Protein in INSANE! Membrane UpperLeaflet>POPC=1.0 LowerLeaflet>POPC=1.0
243857
    1AU     AUC    1  38.271   2.631   7.505
    1AU     AUC    2  38.549   2.648   7.328
    1AU     AUC    3  38.532   2.620   7.678
    1AU     AUC    4  37.988   2.624   7.336
    1AU     AUC    5  38.005   2.663   7.685
    1AU     AUC    6  38.103   2.916   7.502
    1AU     AUC    7  38.466   2.912   7.499
    1AU     AUC    8  38.087   2.358   7.513
    1AU     AUC    9  38.438   2.340   7.501
    1AU     AUC   10  38.273   2.454   7.782
    1AU     AUC   11  38.266   2.804   7.776
    1AU     AUC   12  38.268   2.466   7.229
    1AU     AUC   13  38.285   2.790   7.232
    1AU     AUC   14  38.854   2.660   7.159
    1AU     AUC   15  38.872   2.610   7.519
    1AU     AUC   16  38.820   2.591   7.875
    1AU     AUC   17  37.690   2.604   7.165
    1AU     AUC   18  37.666   2.651   7.526
    1AU     AUC   19  37.711   2.691   7.867
    1AU     AUC   20  37.936   3.222   7.482
    1AU     AUC   21  38.298   3.237   7.480
    1AU     AUC   22  38.676   3.185   7.497
    1AU     AUC   23  37.897   2.080   7.521
    1AU     AUC   24  38.249   2.028   7.494
    1AU     AUC   25  38.610   2.044   7.484
    1AU     AUC   26  38.256   2.279   8.066
    1AU     AUC   27  38.281   2.653   8.115
    1AU     AUC   28  38.287   2.985   8.071
    1AU     AUC   29  38.297   2.291   6.951
    1AU     AUC   30  38.276   2.629   6.896
    1AU     AUC   31  38.258   2.960   6.933
    1AU     AUC   32  38.535   2.419   8.007
    1AU     AUC   33  38.583   2.771   8.012
    1AU     AUC   34  38.596   2.505   6.996
    1AU     AUC   35  38.582   2.826   7.030
    1AU     AUC   36  37.966   2.505   8.016
    1AU     AUC   37  37.990   2.880   7.985
    1AU     AUC   38  37.974   2.433   7.044
    1AU     AUC   39  37.950   2.758   7.001
    1AU     AUC   40  38.804   2.933   7.338
    1AU     AUC   41  38.775   2.910   7.686
    1AU     AUC   42  37.786   2.924   7.315
    1AU     AUC   43  37.800   2.976   7.671
    1AU     AUC   44  38.743   2.337   7.320
    1AU     AUC   45  38.719   2.288   7.681
    1AU     AUC   46  37.760   2.317   7.365
    1AU     AUC   47  37.804   2.372   7.721
    1AU     AUC   48  38.127   3.169   7.778
    1AU     AUC   49  38.479   3.095   7.769
    1AU     AUC   50  38.081   2.158   7.807
    1AU     AUC   51  38.406   2.104   7.780
    1AU     AUC   52  38.094   3.077   7.202
    1AU     AUC   53  38.464   3.125   7.209
    1AU     AUC   54  38.086   2.150   7.214
    1AU     AUC   55  38.475   2.176   7.200
    1AU    AUSL   56  38.795   2.489   8.261
    1AU    AUSL   57  38.552   2.104   8.177
    1AU     AUL   58  38.753   2.136   8.561
    1AU       S   59  38.881   1.916   8.189
    1AU     LIG   60  38.744   1.620   8.527
    1AU     LIG   61  38.977   1.297   8.765
    1AU     LIG   62  39.238   1.035   9.059
    1AU     LIG   63  39.345   0.882   9.494
    1AU       S   64  38.995   2.410   8.293
    1AU     LIG   65  39.143   2.435   8.729
    1AU     LIG   66  39.166   2.333   9.194
    1AU     LIG   67  39.411   2.235   9.587
    1AU     LIG   68  39.784   2.237   9.874
    1AU    AUSL   69  38.377   2.445   8.385
    1AU    AUSL   70  38.132   2.826   8.392
    1AU     AUL   71  38.312   2.764   8.747
    1AU       S   72  38.394   2.390   8.511
    1AU     LIG   73  38.348   2.279   8.910
    1AU     LIG   74  38.660   2.204   9.247
    1AU     LIG   75  38.901   2.144   9.648
    1AU     LIG   76  38.960   2.061  10.112
    1AU       S   77  37.919   2.566   8.627
    1AU     LIG   78  37.926   2.592   9.108
    1AU     LIG   79  37.689   2.571   9.528
    1AU     LIG   80  37.491   2.735   9.928
    1AU     LIG   81  37.328   3.085  10.218
    1AU    AUSL   82  38.549   2.853   8.368
    1AU    AUSL   83  38.919   2.875   8.120
    1AU     AUL   84  38.820   2.763   8.528
    1AU       S   85  38.449   3.164   8.501
    1AU     LIG   86  38.697   3.103   8.879
    1AU     LIG   87  38.944   3.235   9.268
    1AU     LIG   88  38.930   3.275   9.754
    1AU     LIG   89  39.020   3.397  10.211
    1AU       S   90  39.001   3.127   8.302
    1AU     LIG   91  39.358   2.970   8.459
    1AU     LIG   92  39.673   3.215   8.739
    1AU     LIG   93  39.937   3.539   8.980
    1AU     LIG   94  40.151   3.904   9.190
    1AU    AUSL   95  38.800   2.812   6.748
    1AU    AUSL   96  38.568   3.108   6.972
    1AU     AUL   97  38.610   3.205   6.607
    1AU       S   98  38.806   2.848   6.378
    1AU     LIG   99  39.179   2.718   6.161
    1AU     LIG  100  39.235   2.461   5.794
    1AU     LIG  101  39.311   2.292   5.365
    1AU     LIG  102  39.488   2.361   4.944
    1AU       S  103  38.997   3.352   6.829
    1AU     LIG  104  39.139   3.536   6.436
    1AU     LIG  105  39.341   3.731   6.051
    1AU     LIG  106  39.614   4.001   5.772
    1AU     LIG  107  39.831   4.134   5.367
    1AU    AUSL  108  38.587   2.464   6.620
    1AU    AUSL  109  38.915   2.427   6.920
    1AU     AUL  110  39.045   2.583   6.681
    1AU       S  111  38.935   2.131   6.635
    1AU     LIG  112  39.250   1.921   6.330
    1AU     LIG  113  39.565   1.583   6.391
    1AU     LIG  114  39.803   1.222   6.243
    1AU     LIG  115  40.054   1.142   5.869
    1AU       S  116  38.739   2.565   6.327
    1AU     LIG  117  38.883   2.232   6.109
    1AU     LIG  118  38.904   2.085   5.657
    1AU     LIG  119  38.875   2.086   5.183
    1AU     LIG  120  39.114   2.030   4.791
    1AU    AUSL  121  38.373   2.829   6.702
    1AU    AUSL  122  38.172   2.423   6.729
    1AU     AUL  123  38.310   2.468   6.444
    1AU       S  124  37.876   2.455   6.297
    1AU     LIG  125  37.968   2.315   5.897
    1AU     LIG  126  37.746   2.087   5.561
    1AU     LIG  127  37.529   2.082   5.149
    1AU     LIG  128  37.277   1.884   4.799
    1AU       S  129  38.525   2.854   6.305
    1AU     LIG  130  38.733   2.715   5.863
    1AU     LIG  131  38.862   2.557   5.436
    1AU     LIG  132  39.017   2.563   4.996
    1AU     LIG  133  38.926   2.822   4.603
    1AU    AUSL  134  37.727   2.774   8.243
    1AU    AUSL  135  38.013   3.134   8.132
    1AU     AUL  136  37.903   3.072   8.466
    1AU       S  137  37.730   2.677   8.653
    1AU     LIG  138  37.434   2.423   8.799
    1AU     LIG  139  37.305   2.368   9.230
    1AU     LIG  140  37.217   2.362   9.683
    1AU     LIG  141  37.101   2.134  10.078
    1AU       S  142  37.623   3.355   8.185
    1AU     LIG  143  37.719   3.547   8.559
    1AU     LIG  144  37.637   3.712   8.956
    1AU     LIG  145  37.303   3.903   9.176
    1AU     LIG  146  36.966   4.082   9.428
    1AU    AUSL  147  38.023   2.481   8.157
    1AU    AUSL  148  37.613   2.352   8.138
    1AU     AUL  149  37.507   2.584   8.261
    1AU       S  150  37.547   2.131   8.392
    1AU     LIG  151  37.113   2.038   8.231
    1AU     LIG  152  36.899   1.639   8.352
    1AU     LIG  153  36.681   1.289   8.585
    1AU     LIG  154  36.464   1.127   8.973
    1AU       S  155  37.902   2.437   8.544
    1AU     LIG  156  37.844   2.140   8.912
    1AU     LIG  157  37.724   2.090   9.348
    1AU     LIG  158  37.560   1.998   9.781
    1AU     LIG  159  37.533   1.901  10.240
    1AU    AUSL  160  37.749   2.473   6.776
    1AU    AUSL  161  37.964   2.131   6.955
    1AU     AUL  162  38.007   2.127   6.617
    1AU       S  163  37.711   2.371   6.357
    1AU     LIG  164  37.459   2.356   5.976
    1AU     LIG  165  37.260   2.277   5.565
    1AU     LIG  166  37.014   2.106   5.215
    1AU     LIG  167  36.849   2.226   4.807
    1AU       S  168  37.594   2.010   6.781
    1AU     LIG  169  37.691   1.650   6.563
    1AU     LIG  170  37.394   1.323   6.396
    1AU     LIG  171  37.090   1.153   6.061
    1AU     LIG  172  36.838   1.245   5.657
    1AU    AUSL  173  37.966   2.802   6.607
    1AU    AUSL  174  37.620   2.867   6.907
    1AU     AUL  175  37.529   2.680   6.634
    1AU       S  176  37.603   3.124   6.658
    1AU     LIG  177  37.205   3.220   6.563
    1AU     LIG  178  37.025   3.487   6.221
    1AU     LIG  179  36.883   3.734   5.849
    1AU     LIG  180  36.534   3.754   5.527
    1AU       S  181  37.923   2.745   6.372
    1AU     LIG  182  37.723   2.807   5.973
    1AU     LIG  183  37.675   2.599   5.556
    1AU     LIG  184  37.652   2.594   5.091
    1AU     LIG  185  37.680   2.856   4.691
    1AU    AUSL  186  39.096   3.118   7.499
    1AU    AUSL  187  38.953   2.916   7.123
    1AU     AUL  188  39.326   3.083   7.122
    1AU       S  189  39.014   3.213   6.836
    1AU     LIG  190  39.291   3.043   6.558
    1AU     LIG  191  39.552   3.275   6.241
    1AU     LIG  192  39.835   3.584   6.006
    1AU     LIG  193  40.091   3.813   5.681
    1AU       S  194  39.407   3.229   7.555
    1AU     LIG  195  39.822   3.281   7.311
    1AU     LIG  196  40.275   3.426   7.430
    1AU     LIG  197  40.700   3.670   7.496
    1AU     LIG  198  40.991   3.977   7.775
    1AU    AUSL  199  39.239   2.723   7.389
    1AU    AUSL  200  39.165   2.408   7.713
    1AU     AUL  201  39.401   2.590   7.825
    1AU       S  202  39.507   2.829   7.452
    1AU     LIG  203  39.846   2.757   7.228
    1AU     LIG  204  40.268   2.950   7.223
    1AU     LIG  205  40.686   3.169   7.241
    1AU     LIG  206  41.150   3.168   7.220
    1AU       S  207  39.427   2.221   7.523
    1AU     LIG  208  39.782   2.058   7.756
    1AU     LIG  209  40.195   1.804   7.719
    1AU     LIG  210  40.696   1.754   7.661
    1AU     LIG  211  41.182   1.658   7.663
    1AU    AUSL  212  38.957   2.773   7.717
    1AU    AUSL  213  38.886   3.230   7.850
    1AU     AUL  214  39.174   2.996   7.889
    1AU       S  215  39.081   3.394   8.122
    1AU     LIG  216  39.422   3.496   8.387
    1AU     LIG  217  39.641   3.808   8.663
    1AU     LIG  218  39.915   4.182   8.813
    1AU     LIG  219  40.123   4.634   8.799
    1AU       S  220  39.548   2.997   7.626
    1AU     LIG  221  40.009   2.967   7.680
    1AU     LIG  222  40.483   3.032   7.703
    1AU     LIG  223  40.924   3.225   7.698
    1AU     LIG  224  41.199   3.564   7.552
    1AU    AUSL  225  37.592   3.195   7.508
    1AU    AUSL  226  37.690   2.989   7.887
    1AU     AUL  227  37.370   3.292   7.751
    1AU       S  228  37.514   3.171   8.170
    1AU     LIG  229  37.411   3.129   8.607
    1AU     LIG  230  37.196   3.445   8.895
    1AU     LIG  231  36.839   3.691   9.088
    1AU     LIG  232  36.518   3.822   9.412
    1AU       S  233  37.571   3.571   7.419
    1AU     LIG  234  37.092   3.460   7.354
    1AU     LIG  235  36.627   3.654   7.401
    1AU     LIG  236  36.287   4.036   7.476
    1AU     LIG  237  35.978   4.317   7.746
    1AU    AUSL  238  37.557   2.807   7.314
    1AU    AUSL  239  37.693   3.248   7.106
    1AU     AUL  240  37.390   3.101   7.147
    1AU       S  241  37.209   2.645   6.989
    1AU     LIG  242  36.839   2.950   7.088
    1AU     LIG  243  36.431   3.190   7.183
    1AU     LIG  244  36.024   3.313   6.972
    1AU     LIG  245  35.591   3.176   6.793
    1AU       S  246  37.475   3.510   6.896
    1AU     LIG  247  37.402   3.718   6.483
    1AU     LIG  248  37.119   4.032   6.233
    1AU     LIG  249  36.893   4.476   6.224
    1AU     LIG  250  36.732   4.872   5.999
    1AU    AUSL  251  37.352   2.839   7.702
    1AU    AUSL  252  37.326   2.471   7.406
    1AU     AUL  253  37.168   2.805   7.431
    1AU       S  254  37.124   2.393   7.673
    1AU     LIG  255  36.829   2.430   7.299
    1AU     LIG  256  36.444   2.209   7.138
    1AU     LIG  257  36.028   2.003   7.063
    1AU     LIG  258  35.572   1.863   7.149
    1AU       S  259  37.211   2.865   7.931
    1AU     LIG  260  36.886   3.124   7.708
    1AU     LIG  261  36.440   3.269   7.706
    1AU     LIG  262  36.041   3.278   7.955
    1AU     LIG  263  35.574   3.287   8.054
    1AU    AUSL  264  38.965   2.061   7.528
    1AU    AUSL  265  38.793   2.313   7.881
    1AU     AUL  266  39.139   2.168   7.890
    1AU       S  267  39.274   1.965   7.483
    1AU     LIG  268  39.553   1.630   7.578
    1AU     LIG  269  39.904   1.355   7.441
    1AU     LIG  270  40.141   0.934   7.510
    1AU     LIG  271  40.567   0.879   7.697
    1AU       S  272  38.966   1.818   8.118
    1AU     LIG  273  39.248   1.603   8.410
    1AU     LIG  274  39.496   1.338   8.714
    1AU     LIG  275  39.764   1.088   9.010
    1AU     LIG  276  40.188   1.040   9.231
    1AU    AUSL  277  38.942   2.442   7.335
    1AU    AUSL  278  38.881   2.034   7.114
    1AU     AUL  279  39.140   2.230   7.124
    1AU       S  280  39.500   2.316   7.384
    1AU     LIG  281  39.792   1.953   7.253
    1AU     LIG  282  40.221   1.724   7.216
    1AU     LIG  283  40.682   1.583   7.160
    1AU     LIG  284  41.002   1.468   6.831
    1AU       S  285  39.023   1.958   6.756
    1AU     LIG  286  39.200   1.524   6.756
    1AU     LIG  287  39.412   1.107   6.573
    1AU     LIG  288  39.654   0.679   6.471
    1AU     LIG  289  39.988   0.309   6.528
    1AU    AUSL  290  37.530   2.110   7.564
    1AU    AUSL  291  37.637   2.341   7.157
    1AU     AUL  292  37.286   2.174   7.278
    1AU       S  293  37.445   2.128   6.849
    1AU     LIG  294  37.176   1.763   6.638
    1AU     LIG  295  36.882   1.454   6.432
    1AU     LIG  296  36.584   1.266   6.120
    1AU     LIG  297  36.325   1.309   5.724
    1AU       S  298  37.098   2.156   7.715
    1AU     LIG  299  36.772   1.955   7.470
    1AU     LIG  300  36.363   1.725   7.339
    1AU     LIG  301  35.924   1.523   7.364
    1AU     LIG  302  35.747   1.063   7.450
    1AU    AUSL  303  37.591   2.497   7.748
    1AU    AUSL  304  37.839   2.124   7.857
    1AU     AUL  305  37.512   2.080   7.906
    1AU       S  306  37.577   1.922   8.338
    1AU     LIG  307  37.388   1.567   8.153
    1AU     LIG  308  37.083   1.185   8.173
    1AU     LIG  309  36.860   0.830   8.403
    1AU     LIG  310  36.530   0.678   8.708
    1AU       S  311  37.177   2.399   7.859
    1AU     LIG  312  36.655   2.386   7.801
    1AU     LIG  313  36.311   2.128   7.645
    1AU     LIG  314  35.863   2.084   7.532
    1AU     LIG  315  35.468   1.936   7.654
    1AU    AUSL  316  38.300   3.411   7.995
    1AU    AUSL  317  37.881   3.358   7.785
    1AU     AUL  318  38.070   3.479   8.191
    1AU       S  319  37.739   3.558   7.880
    1AU     LIG  320  37.482   3.827   8.190
    1AU     LIG  321  37.270   3.884   8.622
    1AU     LIG  322  36.963   4.149   8.877
    1AU     LIG  323  36.678   4.520   8.926
    1AU       S  324  38.403   3.777   7.982
    1AU     LIG  325  38.472   4.048   8.313
    1AU     LIG  326  38.316   4.453   8.473
    1AU     LIG  327  38.417   4.788   8.791
    1AU     LIG  328  38.318   5.247   8.739
    1AU    AUSL  329  38.178   3.593   7.606
    1AU    AUSL  330  38.437   3.502   7.258
    1AU     AUL  331  38.457   3.846   7.395
    1AU       S  332  38.204   3.820   7.788
    1AU     LIG  333  38.211   4.275   7.936
    1AU     LIG  334  38.298   4.727   7.933
    1AU     LIG  335  38.124   5.130   8.072
    1AU     LIG  336  37.967   5.585   8.177
    1AU       S  337  38.181   3.800   7.040
    1AU     LIG  338  38.583   4.056   6.968
    1AU     LIG  339  38.667   4.507   6.936
    1AU     LIG  340  38.660   4.917   6.707
    1AU     LIG  341  38.627   5.393   6.692
    1AU    AUSL  342  38.546   3.360   7.646
    1AU    AUSL  343  38.528   3.061   8.015
    1AU     AUL  344  38.615   3.378   8.089
    1AU       S  345  38.912   3.256   8.410
    1AU     LIG  346  39.152   3.313   8.784
    1AU     LIG  347  39.414   3.544   9.058
    1AU     LIG  348  39.633   3.926   9.180
    1AU     LIG  349  39.834   4.155   9.531
    1AU       S  350  38.655   3.683   7.762
    1AU     LIG  351  38.709   4.147   7.845
    1AU     LIG  352  38.704   4.514   8.153
    1AU     LIG  353  38.539   4.952   8.324
    1AU     LIG  354  38.467   5.439   8.282
    1AU    AUSL  355  38.234   1.938   7.936
    1AU    AUSL  356  38.651   1.920   7.781
    1AU     AUL  357  38.440   1.782   8.150
    1AU       S  358  38.191   1.430   7.986
    1AU     LIG  359  38.168   1.162   8.323
    1AU     LIG  360  38.038   0.717   8.354
    1AU     LIG  361  38.031   0.265   8.499
    1AU     LIG  362  38.033  44.934   8.866
    1AU       S  363  38.824   1.754   7.872
    1AU     LIG  364  38.871   1.336   8.111
    1AU     LIG  365  39.208   1.085   8.357
    1AU     LIG  366  39.469   0.807   8.649
    1AU     LIG  367  39.586   0.347   8.745
    1AU    AUSL  368  37.916   1.763   7.668
    1AU    AUSL  369  38.021   2.084   8.263
    1AU     AUL  370  37.902   1.799   8.030
    1AU       S  371  38.008   1.380   7.846
    1AU     LIG  372  37.780   1.035   7.999
    1AU     LIG  373  37.812   0.585   7.905
    1AU     LIG  374  37.807   0.161   8.042
    1AU     LIG  375  37.729  44.784   8.284
    1AU       S  376  37.819   1.971   8.460
    1AU     LIG  377  37.580   1.576   8.671
    1AU     LIG  378  37.198   1.297   8.659
    1AU     LIG  379  36.953   0.966   8.892
    1AU     LIG  380  36.706   0.715   9.198
    1AU    AUSL  381  38.347   1.680   7.614
    1AU    AUSL  382  38.116   1.918   7.323
    1AU     AUL  383  37.996   1.579   7.429
    1AU       S  384  38.334   1.460   7.158
    1AU     LIG  385  37.903   1.231   7.076
    1AU     LIG  386  37.625   0.838   6.949
    1AU     LIG  387  37.659   0.339   6.854
    1AU     LIG  388  37.741  44.863   6.690
    1AU       S  389  38.348   1.451   7.758
    1AU     LIG  390  38.277   0.932   7.870
    1AU     LIG  391  38.307   0.433   8.017
    1AU     LIG  392  38.574   0.032   8.150
    1AU     LIG  393  38.619  44.532   8.275
    1AU    AUSL  394  38.245   3.364   6.889
    1AU    AUSL  395  38.808   3.312   7.265
    1AU     AUL  396  38.585   3.511   6.972
    1AU       S  397  38.196   3.741   6.812
    1AU     LIG  398  38.509   3.834   6.528
    1AU     LIG  399  38.558   4.303   6.477
    1AU     LIG  400  38.444   4.712   6.270
    1AU     LIG  401  38.298   4.872   5.848
    1AU       S  402  39.025   3.448   7.129
    1AU     LIG  403  39.458   3.513   6.860
    1AU     LIG  404  39.651   3.743   6.472
    1AU     LIG  405  39.914   4.080   6.210
    1AU     LIG  406  40.180   4.517   6.213
    1AU    AUSL  407  38.050   3.328   7.306
    1AU    AUSL  408  38.026   3.019   6.959
    1AU     AUL  409  37.921   3.401   6.957
    1AU       S  410  38.005   3.782   7.201
    1AU     LIG  411  38.120   4.276   7.013
    1AU     LIG  412  38.207   4.654   6.733
    1AU     LIG  413  38.178   5.127   6.644
    1AU     LIG  414  38.164   5.590   6.821
    1AU       S  415  37.749   3.229   6.580
    1AU     LIG  416  37.549   3.324   6.176
    1AU     LIG  417  37.400   3.702   5.932
    1AU     LIG  418  37.266   4.015   5.600
    1AU     LIG  419  37.348   4.248   5.182
    1AU    AUSL  420  38.300   1.868   6.931
    1AU    AUSL  421  37.708   1.913   7.234
    1AU     AUL  422  37.964   1.757   6.989
    1AU       S  423  37.509   1.861   7.013
    1AU     LIG  424  37.430   1.414   6.935
    1AU     LIG  425  37.100   1.118   6.762
    1AU     LIG  426  36.823   0.891   6.437
    1AU     LIG  427  36.528   0.518   6.309
    1AU       S  428  38.342   1.476   6.914
    1AU     LIG  429  38.166   1.142   6.655
    1AU     LIG  430  38.046   0.689   6.696
    1AU     LIG  431  38.098   0.225   6.607
    1AU     LIG  432  38.200  44.896   6.282
    1AU    AUSL  433  38.543   1.892   7.313
    1AU    AUSL  434  38.528   2.214   6.950
    1AU     AUL  435  38.656   1.812   6.992
    1AU       S  436  38.527   1.443   7.245
    1AU     LIG  437  38.374   0.956   7.097
    1AU     LIG  438  38.411   0.449   6.969
    1AU     LIG  439  38.546   0.022   6.728
    1AU     LIG  440  38.793  44.600   6.685
    1AU       S  441  38.690   2.023   6.590
    1AU     LIG  442  38.766   1.608   6.491
    1AU     LIG  443  39.104   1.389   6.259
    1AU     LIG  444  39.358   1.065   6.032
    1AU     LIG  445  39.494   0.926   5.597
    2AU     AUC  446   6.294  41.783   7.506
    2AU     AUC  447   6.570  41.792   7.328
    2AU     AUC  448   6.555  41.764   7.679
    2AU     AUC  449   6.011  41.782   7.336
    2AU     AUC  450   6.028  41.820   7.686
    2AU     AUC  451   6.135  42.070   7.503
    2AU     AUC  452   6.495  42.057   7.500
    2AU     AUC  453   6.104  41.514   7.511
    2AU     AUC  454   6.454  41.488   7.501
    2AU     AUC  455   6.292  41.604   7.782
    2AU     AUC  456   6.302  41.959   7.783
    2AU     AUC  457   6.286  41.618   7.228
    2AU     AUC  458   6.310  41.942   7.230
    2AU     AUC  459   6.875  41.796   7.157
    2AU     AUC  460   6.894  41.747   7.518
    2AU     AUC  461   6.842  41.728   7.876
    2AU     AUC  462   5.712  41.770   7.165
    2AU     AUC  463   5.690  41.817   7.527
    2AU     AUC  464   5.736  41.854   7.865
    2AU     AUC  465   5.975  42.378   7.483
    2AU     AUC  466   6.335  42.381   7.481
    2AU     AUC  467   6.714  42.322   7.495
    2AU     AUC  468   5.905  41.239   7.518
    2AU     AUC  469   6.256  41.180   7.494
    2AU     AUC  470   6.618  41.188   7.482
    2AU     AUC  471   6.268  41.427   8.068
    2AU     AUC  472   6.303  41.800   8.117
    2AU     AUC  473   6.324  42.134   8.071
    2AU     AUC  474   6.311  41.443   6.950
    2AU     AUC  475   6.297  41.780   6.895
    2AU     AUC  476   6.286  42.114   6.931
    2AU     AUC  477   6.551  41.562   8.009
    2AU     AUC  478   6.609  41.915   8.011
    2AU     AUC  479   6.614  41.648   6.995
    2AU     AUC  480   6.607  41.970   7.028
    2AU     AUC  481   5.986  41.661   8.014
    2AU     AUC  482   6.017  42.033   7.984
    2AU     AUC  483   5.991  41.591   7.043
    2AU     AUC  484   5.975  41.918   6.999
    2AU     AUC  485   6.833  42.071   7.335
    2AU     AUC  486   6.801  42.048   7.690
    2AU     AUC  487   5.817  42.085   7.315
    2AU     AUC  488   5.833  42.137   7.673
    2AU     AUC  489   6.759  41.478   7.321
    2AU     AUC  490   6.735  41.429   7.683
    2AU     AUC  491   5.775  41.481   7.364
    2AU     AUC  492   5.820  41.533   7.720
    2AU     AUC  493   6.165  42.321   7.778
    2AU     AUC  494   6.515  42.242   7.777
    2AU     AUC  495   6.092  41.311   7.806
    2AU     AUC  496   6.415  41.253   7.779
    2AU     AUC  497   6.125  42.233   7.199
    2AU     AUC  498   6.497  42.270   7.207
    2AU     AUC  499   6.096  41.306   7.212
    2AU     AUC  500   6.486  41.324   7.201
    2AU    AUSL  501   6.810  41.622   8.264
    2AU    AUSL  502   6.558  41.249   8.170
    2AU     AUL  503   6.745  41.237   8.532
    2AU       S  504   6.906  41.028   8.165
    2AU     LIG  505   6.773  40.732   8.484
    2AU     LIG  506   7.010  40.459   8.732
    2AU     LIG  507   7.257  40.149   8.943
    2AU     LIG  508   7.529  39.895   9.213
    2AU       S  509   6.995  41.541   8.312
    2AU     LIG  510   7.047  41.554   8.788
    2AU     LIG  511   7.150  41.704   9.217
    2AU     LIG  512   7.452  41.628   9.564
    2AU     LIG  513   7.735  41.805   9.896
    2AU    AUSL  514   6.392  41.584   8.394
    2AU    AUSL  515   6.151  41.974   8.405
    2AU     AUL  516   6.346  41.912   8.746
    2AU       S  517   6.410  41.527   8.522
    2AU     LIG  518   6.547  41.496   8.944
    2AU     LIG  519   6.736  41.432   9.367
    2AU     LIG  520   6.898  41.374   9.815
    2AU     LIG  521   6.926  41.118  10.223
    2AU       S  522   5.943  41.734   8.625
    2AU     LIG  523   5.997  41.740   9.090
    2AU     LIG  524   5.767  41.708   9.494
    2AU     LIG  525   5.550  41.722   9.909
    2AU     LIG  526   5.494  41.975  10.304
    2AU    AUSL  527   6.565  41.985   8.352
    2AU    AUSL  528   6.945  42.005   8.117
    2AU     AUL  529   6.830  41.912   8.523
    2AU       S  530   6.462  42.321   8.500
    2AU     LIG  531   6.721  42.242   8.882
    2AU     LIG  532   6.989  42.216   9.280
    2AU     LIG  533   7.026  42.364   9.742
    2AU     LIG  534   7.122  42.399  10.209
    2AU       S  535   7.036  42.260   8.297
    2AU     LIG  536   7.475  42.176   8.332
    2AU     LIG  537   7.805  42.392   8.593
    2AU     LIG  538   8.030  42.654   8.929
    2AU     LIG  539   8.216  42.959   9.241
    2AU    AUSL  540   6.823  41.949   6.746
    2AU    AUSL  541   6.602  42.256   6.968
    2AU     AUL  542   6.643  42.348   6.603
    2AU       S  543   6.826  41.979   6.382
    2AU     LIG  544   7.202  41.898   6.191
    2AU     LIG  545   7.260  41.623   5.824
    2AU     LIG  546   7.426  41.587   5.377
    2AU     LIG  547   7.600  41.730   4.959
    2AU       S  548   7.036  42.473   6.827
    2AU     LIG  549   7.149  42.733   6.491
    2AU     LIG  550   7.402  42.761   6.102
    2AU     LIG  551   7.654  43.023   5.817
    2AU     LIG  552   7.619  43.346   5.481
    2AU    AUSL  553   6.603  41.605   6.618
    2AU    AUSL  554   6.934  41.562   6.919
    2AU     AUL  555   7.069  41.727   6.690
    2AU       S  556   6.963  41.274   6.643
    2AU     LIG  557   7.107  40.971   6.277
    2AU     LIG  558   7.413  40.627   6.210
    2AU     LIG  559   7.728  40.350   6.015
    2AU     LIG  560   7.992  40.370   5.610
    2AU       S  561   6.771  41.674   6.333
    2AU     LIG  562   6.797  41.341   6.063
    2AU     LIG  563   6.761  41.213   5.605
    2AU     LIG  564   6.799  41.118   5.130
    2AU     LIG  565   7.044  40.996   4.728
    2AU    AUSL  566   6.398  41.979   6.702
    2AU    AUSL  567   6.188  41.577   6.727
    2AU     AUL  568   6.323  41.642   6.435
    2AU       S  569   5.884  41.610   6.299
    2AU     LIG  570   5.991  41.406   5.928
    2AU     LIG  571   5.762  41.162   5.605
    2AU     LIG  572   5.570  41.208   5.189
    2AU     LIG  573   5.537  41.246   4.728
    2AU       S  574   6.582  41.996   6.295
    2AU     LIG  575   6.772  41.837   5.866
    2AU     LIG  576   6.913  41.683   5.440
    2AU     LIG  577   7.076  41.767   5.004
    2AU     LIG  578   7.082  41.993   4.576
    2AU    AUSL  579   5.751  41.930   8.238
    2AU    AUSL  580   6.067  42.267   8.116
    2AU     AUL  581   5.917  42.215   8.463
    2AU       S  582   5.733  41.821   8.660
    2AU     LIG  583   5.574  41.478   8.912
    2AU     LIG  584   5.368  41.419   9.333
    2AU     LIG  585   5.148  41.430   9.751
    2AU     LIG  586   4.719  41.483   9.959
    2AU       S  587   5.656  42.519   8.188
    2AU     LIG  588   5.755  42.739   8.549
    2AU     LIG  589   5.615  42.919   8.949
    2AU     LIG  590   5.346  43.024   9.309
    2AU     LIG  591   5.043  43.215   9.612
    2AU    AUSL  592   6.047  41.636   8.156
    2AU    AUSL  593   5.634  41.511   8.136
    2AU     AUL  594   5.529  41.747   8.255
    2AU       S  595   5.550  41.296   8.393
    2AU     LIG  596   5.115  41.197   8.214
    2AU     LIG  597   4.911  40.786   8.315
    2AU     LIG  598   4.814  40.438   8.610
    2AU     LIG  599   4.558  40.306   8.967
    2AU       S  600   5.915  41.593   8.543
    2AU     LIG  601   6.067  41.299   8.858
    2AU     LIG  602   5.871  41.241   9.287
    2AU     LIG  603   5.661  41.242   9.718
    2AU     LIG  604   5.446  41.219  10.135
    2AU    AUSL  605   5.767  41.638   6.775
    2AU    AUSL  606   5.974  41.290   6.953
    2AU     AUL  607   6.024  41.287   6.613
    2AU       S  608   5.709  41.524   6.368
    2AU     LIG  609   5.482  41.384   6.002
    2AU     LIG  610   5.286  41.405   5.580
    2AU     LIG  611   5.164  41.546   5.140
    2AU     LIG  612   4.803  41.667   4.833
    2AU       S  613   5.606  41.183   6.781
    2AU     LIG  614   5.697  40.883   6.518
    2AU     LIG  615   5.403  40.569   6.348
    2AU     LIG  616   5.078  40.306   6.138
    2AU     LIG  617   4.756  40.065   5.902
    2AU    AUSL  618   5.991  41.961   6.606
    2AU    AUSL  619   5.647  42.033   6.908
    2AU     AUL  620   5.551  41.855   6.635
    2AU       S  621   5.648  42.296   6.657
    2AU     LIG  622   5.246  42.331   6.600
    2AU     LIG  623   5.067  42.564   6.228
    2AU     LIG  624   4.919  42.798   5.843
    2AU     LIG  625   4.702  42.810   5.427
    2AU       S  626   5.921  41.896   6.342
    2AU     LIG  627   5.699  41.859   5.914
    2AU     LIG  628   5.714  41.664   5.480
    2AU     LIG  629   5.650  41.687   5.007
    2AU     LIG  630   5.494  41.742   4.558
    2AU    AUSL  631   7.133  42.245   7.492
    2AU    AUSL  632   6.979  42.047   7.120
    2AU     AUL  633   7.354  42.208   7.121
    2AU       S  634   7.058  42.338   6.818
    2AU     LIG  635   7.410  42.275   6.540
    2AU     LIG  636   7.751  42.403   6.244
    2AU     LIG  637   8.015  42.689   5.982
    2AU     LIG  638   8.341  43.012   5.859
    2AU       S  639   7.448  42.355   7.552
    2AU     LIG  640   7.844  42.414   7.297
    2AU     LIG  641   8.327  42.446   7.430
    2AU     LIG  642   8.549  42.797   7.627
    2AU     LIG  643   8.842  43.104   7.449
    2AU    AUSL  644   7.265  41.847   7.382
    2AU    AUSL  645   7.185  41.541   7.711
    2AU     AUL  646   7.432  41.723   7.812
    2AU       S  647   7.563  41.951   7.437
    2AU     LIG  648   7.818  41.908   7.096
    2AU     LIG  649   8.196  42.156   7.008
    2AU     LIG  650   8.660  42.243   7.055
    2AU     LIG  651   9.151  42.305   6.987
    2AU       S  652   7.434  41.347   7.523
    2AU     LIG  653   7.768  41.347   7.827
    2AU     LIG  654   8.198  41.228   7.841
    2AU     LIG  655   8.619  41.010   7.822
    2AU     LIG  656   9.013  40.876   8.056
    2AU    AUSL  657   6.983  41.908   7.712
    2AU    AUSL  658   6.933  42.364   7.842
    2AU     AUL  659   7.207  42.124   7.883
    2AU       S  660   7.137  42.510   8.141
    2AU     LIG  661   7.387  42.685   8.459
    2AU     LIG  662   7.729  42.936   8.625
    2AU     LIG  663   8.043  43.212   8.829
    2AU     LIG  664   8.265  43.527   9.099
    2AU       S  665   7.577  42.124   7.612
    2AU     LIG  666   7.845  42.196   7.951
    2AU     LIG  667   8.312  42.263   7.939
    2AU     LIG  668   8.767  42.369   7.807
    2AU     LIG  669   9.058  42.747   7.798
    2AU    AUSL  670   5.635  42.362   7.510
    2AU    AUSL  671   5.716  42.160   7.892
    2AU     AUL  672   5.411  42.468   7.752
    2AU       S  673   5.548  42.335   8.169
    2AU     LIG  674   5.424  42.352   8.622
    2AU     LIG  675   5.187  42.630   8.957
    2AU     LIG  676   4.876  42.822   9.284
    2AU     LIG  677   4.578  42.977   9.639
    2AU       S  678   5.629  42.741   7.424
    2AU     LIG  679   5.146  42.625   7.355
    2AU     LIG  680   4.666  42.710   7.428
    2AU     LIG  681   4.214  42.922   7.525
    2AU     LIG  682   3.922  43.344   7.535
    2AU    AUSL  683   5.587  41.975   7.315
    2AU    AUSL  684   5.725  42.413   7.105
    2AU     AUL  685   5.426  42.269   7.150
    2AU       S  686   5.229  41.828   6.989
    2AU     LIG  687   4.907  42.193   7.092
    2AU     LIG  688   4.442  42.287   7.201
    2AU     LIG  689   3.946  42.276   7.213
    2AU     LIG  690   3.542  42.284   6.937
    2AU       S  691   5.510  42.674   6.901
    2AU     LIG  692   5.465  42.800   6.463
    2AU     LIG  693   5.207  43.078   6.179
    2AU     LIG  694   5.022  43.474   6.002
    2AU     LIG  695   4.808  43.903   6.004
    2AU    AUSL  696   5.380  42.013   7.700
    2AU    AUSL  697   5.344  41.646   7.405
    2AU     AUL  698   5.197  41.980   7.432
    2AU       S  699   5.139  41.570   7.676
    2AU     LIG  700   4.792  41.653   7.372
    2AU     LIG  701   4.312  41.490   7.260
    2AU     LIG  702   3.860  41.245   7.207
    2AU     LIG  703   3.439  40.970   7.224
    2AU       S  704   5.226  42.051   7.924
    2AU     LIG  705   4.859  42.270   7.673
    2AU     LIG  706   4.359  42.386   7.695
    2AU     LIG  707   3.860  42.409   7.717
    2AU     LIG  708   3.421  42.553   7.896
    2AU    AUSL  709   6.976  41.197   7.531
    2AU    AUSL  710   6.813  41.451   7.882
    2AU     AUL  711   7.158  41.320   7.904
    2AU       S  712   7.259  41.095   7.494
    2AU     LIG  713   7.570  40.887   7.739
    2AU     LIG  714   8.035  40.771   7.679
    2AU     LIG  715   8.463  40.626   7.505
    2AU     LIG  716   8.712  40.233   7.427
    2AU       S  717   6.987  40.933   8.065
    2AU     LIG  718   7.283  40.726   8.354
    2AU     LIG  719   7.536  40.479   8.653
    2AU     LIG  720   7.783  40.279   8.979
    2AU     LIG  721   8.104  40.378   9.309
    2AU    AUSL  722   6.958  41.576   7.334
    2AU    AUSL  723   6.890  41.170   7.116
    2AU     AUL  724   7.152  41.360   7.123
    2AU       S  725   7.514  41.435   7.383
    2AU     LIG  726   7.829  41.099   7.331
    2AU     LIG  727   8.289  41.086   7.347
    2AU     LIG  728   8.742  41.062   7.289
    2AU     LIG  729   9.014  40.793   7.048
    2AU       S  730   7.052  41.071   6.761
    2AU     LIG  731   7.153  40.614   6.669
    2AU     LIG  732   7.307  40.189   6.460
    2AU     LIG  733   7.509  39.845   6.177
    2AU     LIG  734   7.686  39.395   6.107
    2AU    AUSL  735   5.538  41.280   7.561
    2AU    AUSL  736   5.654  41.509   7.157
    2AU     AUL  737   5.297  41.353   7.276
    2AU       S  738   5.456  41.300   6.847
    2AU     LIG  739   5.180  40.959   6.625
    2AU     LIG  740   4.870  40.631   6.474
    2AU     LIG  741   4.533  40.421   6.203
    2AU     LIG  742   4.241  40.220   5.885
    2AU       S  743   5.107  41.337   7.713
    2AU     LIG  744   4.678  41.197   7.575
    2AU     LIG  745   4.244  41.024   7.488
    2AU     LIG  746   3.840  40.780   7.472
    2AU     LIG  747   3.472  40.532   7.599
    2AU    AUSL  748   5.609  41.664   7.749
    2AU    AUSL  749   5.853  41.284   7.849
    2AU     AUL  750   5.521  41.246   7.903
    2AU       S  751   5.573  41.078   8.337
    2AU     LIG  752   5.392  40.695   8.140
    2AU     LIG  753   5.096  40.291   8.199
    2AU     LIG  754   4.851  39.920   8.436
    2AU     LIG  755   4.626  39.535   8.657
    2AU       S  756   5.204  41.581   7.863
    2AU     LIG  757   4.700  41.609   7.894
    2AU     LIG  758   4.252  41.468   7.769
    2AU     LIG  759   3.829  41.248   7.731
    2AU     LIG  760   3.397  41.045   7.738
    2AU    AUSL  761   6.337  42.573   8.000
    2AU    AUSL  762   5.925  42.518   7.792
    2AU     AUL  763   6.108  42.586   8.218
    2AU       S  764   5.800  42.711   7.889
    2AU     LIG  765   5.472  42.960   8.123
    2AU     LIG  766   5.277  42.949   8.551
    2AU     LIG  767   5.101  43.213   8.895
    2AU     LIG  768   4.930  43.657   8.957
    2AU       S  769   6.355  42.926   8.020
    2AU     LIG  770   6.539  43.058   8.373
    2AU     LIG  771   6.572  43.500   8.489
    2AU     LIG  772   6.480  43.897   8.705
    2AU     LIG  773   6.392  44.101   9.127
    2AU    AUSL  774   6.230  42.739   7.603
    2AU    AUSL  775   6.479  42.628   7.257
    2AU     AUL  776   6.613  42.901   7.424
    2AU       S  777   6.229  42.979   7.737
    2AU     LIG  778   6.251  43.404   8.036
    2AU     LIG  779   6.277  43.848   8.219
    2AU     LIG  780   6.060  44.285   8.301
    2AU     LIG  781   5.760  44.689   8.250
    2AU       S  782   6.263  42.933   7.128
    2AU     LIG  783   6.656  43.181   7.012
    2AU     LIG  784   6.782  43.617   6.907
    2AU     LIG  785   6.801  44.091   6.856
    2AU     LIG  786   6.792  44.573   6.885
    2AU    AUSL  787   6.586  42.499   7.650
    2AU    AUSL  788   6.572  42.231   8.025
    2AU     AUL  789   6.695  42.588   8.011
    2AU       S  790   6.910  42.402   8.380
    2AU     LIG  791   7.211  42.315   8.762
    2AU     LIG  792   7.508  42.603   8.975
    2AU     LIG  793   7.693  42.999   9.148
    2AU     LIG  794   7.891  43.303   9.448
    2AU       S  795   6.553  43.002   7.866
    2AU     LIG  796   6.765  43.395   8.022
    2AU     LIG  797   6.813  43.866   8.172
    2AU     LIG  798   7.047  44.325   8.186
    2AU     LIG  799   7.245  44.779   8.306
    2AU    AUSL  800   6.236  41.081   7.937
    2AU    AUSL  801   6.650  41.069   7.774
    2AU     AUL  802   6.451  40.930   8.148
    2AU       S  803   6.185  40.590   7.986
    2AU     LIG  804   6.134  40.329   8.312
    2AU     LIG  805   6.006  39.896   8.328
    2AU     LIG  806   6.034  39.442   8.406
    2AU     LIG  807   6.111  39.110   8.712
    2AU       S  808   6.821  40.875   7.853
    2AU     LIG  809   6.932  40.443   8.089
    2AU     LIG  810   7.241  40.170   8.369
    2AU     LIG  811   7.572  39.906   8.627
    2AU     LIG  812   7.796  39.566   8.884
    2AU    AUSL  813   5.916  40.919   7.663
    2AU    AUSL  814   6.023  41.238   8.260
    2AU     AUL  815   5.896  40.958   8.027
    2AU       S  816   5.995  40.539   7.841
    2AU     LIG  817   5.738  40.200   7.995
    2AU     LIG  818   5.669  39.728   7.958
    2AU     LIG  819   5.759  39.285   8.010
    2AU     LIG  820   5.587  38.867   8.199
    2AU       S  821   5.826  41.133   8.459
    2AU     LIG  822   5.763  40.653   8.493
    2AU     LIG  823   5.361  40.414   8.616
    2AU     LIG  824   5.104  40.078   8.853
    2AU     LIG  825   4.836  39.949   9.205
    2AU    AUSL  826   6.345  40.829   7.610
    2AU    AUSL  827   6.121  41.074   7.321
    2AU     AUL  828   5.995  40.735   7.421
    2AU       S  829   6.341  40.616   7.158
    2AU     LIG  830   5.917  40.365   7.095
    2AU     LIG  831   5.797  39.886   7.139
    2AU     LIG  832   5.776  39.420   6.963
    2AU     LIG  833   5.396  39.143   6.806
    2AU       S  834   6.341  40.603   7.752
    2AU     LIG  835   6.244  40.099   7.839
    2AU     LIG  836   6.186  39.608   7.931
    2AU     LIG  837   6.367  39.166   8.066
    2AU     LIG  838   6.762  38.861   8.048
    2AU    AUSL  839   6.281  42.520   6.886
    2AU    AUSL  840   6.853  42.450   7.260
    2AU     AUL  841   6.631  42.651   6.965
    2AU       S  842   6.250  42.910   6.847
    2AU     LIG  843   6.554  43.014   6.549
    2AU     LIG  844   6.611  43.468   6.438
    2AU     LIG  845   6.487  43.876   6.216
    2AU     LIG  846   6.368  44.097   5.797
    2AU       S  847   7.063  42.579   7.129
    2AU     LIG  848   7.489  42.658   6.912
    2AU     LIG  849   7.685  42.837   6.521
    2AU     LIG  850   7.961  43.124   6.251
    2AU     LIG  851   8.374  43.375   6.244
    2AU    AUSL  852   6.083  42.481   7.308
    2AU    AUSL  853   6.055  42.180   6.957
    2AU     AUL  854   5.959  42.576   6.969
    2AU       S  855   6.069  42.953   7.211
    2AU     LIG  856   6.199  43.402   6.948
    2AU     LIG  857   6.341  43.818   6.728
    2AU     LIG  858   6.374  44.291   6.650
    2AU     LIG  859   6.275  44.750   6.712
    2AU       S  860   5.795  42.397   6.590
    2AU     LIG  861   5.577  42.390   6.167
    2AU     LIG  862   5.432  42.732   5.870
    2AU     LIG  863   5.270  43.068   5.551
    2AU     LIG  864   5.298  43.370   5.162
    2AU    AUSL  865   6.304  41.022   6.928
    2AU    AUSL  866   5.712  41.079   7.232
    2AU     AUL  867   5.967  40.915   6.984
    2AU       S  868   5.514  41.034   7.009
    2AU     LIG  869   5.465  40.592   6.878
    2AU     LIG  870   5.162  40.252   6.681
    2AU     LIG  871   4.772  40.048   6.462
    2AU     LIG  872   4.406  39.842   6.206
    2AU       S  873   6.342  40.620   6.928
    2AU     LIG  874   6.262  40.173   6.779
    2AU     LIG  875   5.952  39.823   6.656
    2AU     LIG  876   5.788  39.430   6.440
    2AU     LIG  877   5.789  39.151   6.059
    2AU    AUSL  878   6.547  41.039   7.311
    2AU    AUSL  879   6.541  41.361   6.952
    2AU     AUL  880   6.655  40.965   6.978
    2AU       S  881   6.550  40.604   7.253
    2AU     LIG  882   6.337  40.140   7.296
    2AU     LIG  883   6.279  39.702   7.069
    2AU     LIG  884   6.481  39.253   6.996
    2AU     LIG  885   6.697  38.884   6.767
    2AU       S  886   6.743  41.175   6.584
    2AU     LIG  887   6.683  40.752   6.508
    2AU     LIG  888   6.919  40.457   6.223
    2AU     LIG  889   7.219  40.213   5.941
    2AU     LIG  890   7.534  40.117   5.601
    3AU     AUC  891  26.296  23.478   7.519
    3AU     AUC  892  26.566  23.485   7.333
    3AU     AUC  893  26.564  23.475   7.682
    3AU     AUC  894  26.010  23.475   7.354
    3AU     AUC  895  26.046  23.511   7.712
    3AU     AUC  896  26.130  23.757   7.526
    3AU     AUC  897  26.493  23.756   7.500
    3AU     AUC  898  26.104  23.205   7.526
    3AU     AUC  899  26.453  23.185   7.515
    3AU     AUC  900  26.300  23.305   7.800
    3AU     AUC  901  26.311  23.656   7.796
    3AU     AUC  902  26.278  23.309   7.244
    3AU     AUC  903  26.303  23.630   7.236
    3AU     AUC  904  26.871  23.482   7.157
    3AU     AUC  905  26.895  23.453   7.522
    3AU     AUC  906  26.856  23.461   7.869
    3AU     AUC  907  25.704  23.470   7.187
    3AU     AUC  908  25.695  23.519   7.548
    3AU     AUC  909  25.752  23.537   7.910
    3AU     AUC  910  25.966  24.065   7.517
    3AU     AUC  911  26.320  24.080   7.482
    3AU     AUC  912  26.695  24.036   7.478
    3AU     AUC  913  25.894  22.927   7.537
    3AU     AUC  914  26.252  22.872   7.508
    3AU     AUC  915  26.620  22.887   7.499
    3AU     AUC  916  26.290  23.123   8.091
    3AU     AUC  917  26.339  23.498   8.130
    3AU     AUC  918  26.343  23.838   8.078
    3AU     AUC  919  26.297  23.125   6.967
    3AU     AUC  920  26.283  23.464   6.905
    3AU     AUC  921  26.278  23.794   6.932
    3AU     AUC  922  26.583  23.277   8.013
    3AU     AUC  923  26.632  23.648   8.002
    3AU     AUC  924  26.606  23.330   7.004
    3AU     AUC  925  26.599  23.646   7.025
    3AU     AUC  926  26.000  23.334   8.035
    3AU     AUC  927  26.040  23.697   8.022
    3AU     AUC  928  25.980  23.280   7.063
    3AU     AUC  929  25.965  23.610   7.017
    3AU     AUC  930  26.830  23.760   7.324
    3AU     AUC  931  26.805  23.772   7.669
    3AU     AUC  932  25.824  23.781   7.341
    3AU     AUC  933  25.833  23.827   7.717
    3AU     AUC  934  26.761  23.172   7.339
    3AU     AUC  935  26.737  23.137   7.695
    3AU     AUC  936  25.771  23.170   7.375
    3AU     AUC  937  25.832  23.224   7.728
    3AU     AUC  938  26.144  24.010   7.803
    3AU     AUC  939  26.503  23.954   7.767
    3AU     AUC  940  26.081  23.008   7.819
    3AU     AUC  941  26.420  22.957   7.793
    3AU     AUC  942  26.125  23.915   7.206
    3AU     AUC  943  26.504  23.950   7.202
    3AU     AUC  944  26.089  22.994   7.232
    3AU     AUC  945  26.478  23.014   7.223
    3AU    AUSL  946  26.898  23.401   8.219
    3AU    AUSL  947  26.586  22.935   8.187
    3AU     AUL  948  26.913  22.983   8.373
    3AU       S  949  26.921  22.599   8.122
    3AU     LIG  950  26.812  22.459   8.493
    3AU     LIG  951  26.990  22.191   8.810
    3AU     LIG  952  27.234  21.863   9.026
    3AU     LIG  953  27.513  21.643   9.330
    3AU       S  954  27.126  23.375   8.286
    3AU     LIG  955  27.034  23.306   8.767
    3AU     LIG  956  27.105  23.258   9.247
    3AU     LIG  957  27.396  23.174   9.630
    3AU     LIG  958  27.693  22.968   9.959
    3AU    AUSL  959  26.496  23.309   8.380
    3AU    AUSL  960  26.209  23.651   8.430
    3AU     AUL  961  26.431  23.615   8.748
    3AU       S  962  26.596  23.257   8.536
    3AU     LIG  963  26.485  23.117   8.911
    3AU     LIG  964  26.589  23.186   9.355
    3AU     LIG  965  26.891  23.073   9.700
    3AU     LIG  966  27.176  22.957  10.060
    3AU       S  967  26.047  23.382   8.683
    3AU     LIG  968  26.088  23.320   9.159
    3AU     LIG  969  25.858  23.360   9.564
    3AU     LIG  970  25.586  23.465   9.939
    3AU     LIG  971  25.367  23.762  10.258
    3AU    AUSL  972  26.608  23.729   8.337
    3AU    AUSL  973  26.971  23.801   8.088
    3AU     AUL  974  26.892  23.705   8.493
    3AU       S  975  26.492  24.031   8.500
    3AU     LIG  976  26.725  23.977   8.916
    3AU     LIG  977  26.852  23.905   9.383
    3AU     LIG  978  26.814  24.048   9.849
    3AU     LIG  979  26.910  24.148  10.304
    3AU       S  980  27.017  24.069   8.230
    3AU     LIG  981  27.397  23.870   8.349
    3AU     LIG  982  27.691  24.059   8.676
    3AU     LIG  983  27.930  24.337   8.988
    3AU     LIG  984  28.119  24.716   9.200
    3AU    AUSL  985  26.808  23.610   6.739
    3AU    AUSL  986  26.589  23.916   6.958
    3AU     AUL  987  26.643  24.010   6.594
    3AU       S  988  26.792  23.635   6.358
    3AU     LIG  989  27.180  23.536   6.180
    3AU     LIG  990  27.289  23.345   5.780
    3AU     LIG  991  27.389  23.187   5.352
    3AU     LIG  992  27.523  23.168   4.910
    3AU       S  993  27.042  24.138   6.818
    3AU     LIG  994  27.171  24.349   6.433
    3AU     LIG  995  27.370  24.549   6.048
    3AU     LIG  996  27.596  24.827   5.739
    3AU     LIG  997  27.624  25.085   5.345
    3AU    AUSL  998  26.579  23.263   6.624
    3AU    AUSL  999  26.935  23.240   6.929
    3AU     AUL 1000  27.032  23.378   6.661
    3AU       S 1001  27.053  22.915   6.692
    3AU     LIG 1002  27.222  22.637   6.347
    3AU     LIG 1003  27.524  22.290   6.256
    3AU     LIG 1004  27.818  21.984   6.043
    3AU     LIG 1005  28.245  21.895   5.850
    3AU       S 1006  26.723  23.342   6.311
    3AU     LIG 1007  26.969  23.057   6.087
    3AU     LIG 1008  27.009  22.934   5.623
    3AU     LIG 1009  26.993  22.937   5.136
    3AU     LIG 1010  27.109  22.982   4.669
    3AU    AUSL 1011  26.383  23.649   6.689
    3AU    AUSL 1012  26.167  23.260   6.754
    3AU     AUL 1013  26.285  23.312   6.447
    3AU       S 1014  25.837  23.290   6.329
    3AU     LIG 1015  25.897  22.990   6.025
    3AU     LIG 1016  25.677  22.983   5.624
    3AU     LIG 1017  25.459  22.969   5.212
    3AU     LIG 1018  25.296  23.017   4.776
    3AU       S 1019  26.546  23.660   6.290
    3AU     LIG 1020  26.772  23.525   5.852
    3AU     LIG 1021  26.915  23.400   5.415
    3AU     LIG 1022  27.067  23.421   4.969
    3AU     LIG 1023  27.110  23.576   4.524
    3AU    AUSL 1024  25.806  23.594   8.299
    3AU    AUSL 1025  26.096  23.940   8.144
    3AU     AUL 1026  25.976  23.887   8.498
    3AU       S 1027  25.875  23.507   8.754
    3AU     LIG 1028  25.596  23.243   8.962
    3AU     LIG 1029  25.396  23.213   9.381
    3AU     LIG 1030  25.171  23.193   9.796
    3AU     LIG 1031  24.754  23.177  10.020
    3AU       S 1032  25.657  24.162   8.280
    3AU     LIG 1033  25.658  24.347   8.644
    3AU     LIG 1034  25.333  24.516   8.921
    3AU     LIG 1035  25.085  24.865   9.106
    3AU     LIG 1036  24.984  25.127   9.485
    3AU    AUSL 1037  26.106  23.294   8.210
    3AU    AUSL 1038  25.651  23.235   8.125
    3AU     AUL 1039  25.672  23.302   8.397
    3AU       S 1040  25.474  22.882   8.274
    3AU     LIG 1041  25.047  22.839   8.173
    3AU     LIG 1042  24.812  22.492   8.377
    3AU     LIG 1043  24.613  22.262   8.743
    3AU     LIG 1044  24.392  21.898   8.936
    3AU       S 1045  26.087  23.211   8.591
    3AU     LIG 1046  25.964  22.901   8.858
    3AU     LIG 1047  25.810  22.900   9.307
    3AU     LIG 1048  25.625  22.930   9.747
    3AU     LIG 1049  25.384  22.773  10.116
    3AU    AUSL 1050  25.744  23.330   6.804
    3AU    AUSL 1051  25.950  22.968   6.972
    3AU     AUL 1052  25.995  22.975   6.637
    3AU       S 1053  25.650  23.199   6.419
    3AU     LIG 1054  25.389  23.127   6.047
    3AU     LIG 1055  25.170  23.142   5.621
    3AU     LIG 1056  25.030  23.255   5.177
    3AU     LIG 1057  24.847  23.272   4.734
    3AU       S 1058  25.591  22.860   6.828
    3AU     LIG 1059  25.662  22.600   6.512
    3AU     LIG 1060  25.366  22.288   6.342
    3AU     LIG 1061  25.013  22.018   6.174
    3AU     LIG 1062  24.660  21.838   5.915
    3AU    AUSL 1063  25.969  23.644   6.622
    3AU    AUSL 1064  25.640  23.736   6.940
    3AU     AUL 1065  25.533  23.563   6.668
    3AU       S 1066  25.647  24.000   6.706
    3AU     LIG 1067  25.228  24.024   6.668
    3AU     LIG 1068  25.004  24.228   6.303
    3AU     LIG 1069  24.842  24.492   5.938
    3AU     LIG 1070  24.602  24.766   5.646
    3AU       S 1071  25.880  23.558   6.343
    3AU     LIG 1072  25.732  23.472   5.869
    3AU     LIG 1073  25.536  23.447   5.418
    3AU     LIG 1074  25.401  23.587   4.971
    3AU     LIG 1075  25.418  23.956   4.633
    3AU    AUSL 1076  27.143  23.951   7.452
    3AU    AUSL 1077  26.980  23.731   7.103
    3AU     AUL 1078  27.378  23.864   7.079
    3AU       S 1079  27.034  24.003   6.844
    3AU     LIG 1080  27.356  23.869   6.546
    3AU     LIG 1081  27.633  24.142   6.270
    3AU     LIG 1082  27.877  24.466   5.997
    3AU     LIG 1083  28.062  24.630   5.580
    3AU       S 1084  27.481  24.040   7.494
    3AU     LIG 1085  27.885  24.161   7.305
    3AU     LIG 1086  28.340  24.277   7.428
    3AU     LIG 1087  28.789  24.461   7.442
    3AU     LIG 1088  29.069  24.870   7.390
    3AU    AUSL 1089  27.264  23.541   7.381
    3AU    AUSL 1090  27.179  23.258   7.732
    3AU     AUL 1091  27.407  23.453   7.841
    3AU       S 1092  27.532  23.617   7.432
    3AU     LIG 1093  27.867  23.662   7.168
    3AU     LIG 1094  28.297  23.830   7.180
    3AU     LIG 1095  28.737  23.986   7.202
    3AU     LIG 1096  29.173  23.850   7.087
    3AU       S 1097  27.445  23.040   7.595
    3AU     LIG 1098  27.705  22.688   7.742
    3AU     LIG 1099  28.170  22.553   7.731
    3AU     LIG 1100  28.641  22.471   7.639
    3AU     LIG 1101  29.110  22.582   7.646
    3AU    AUSL 1102  26.992  23.634   7.707
    3AU    AUSL 1103  26.905  24.108   7.765
    3AU     AUL 1104  27.210  23.889   7.841
    3AU       S 1105  27.125  24.295   8.065
    3AU     LIG 1106  27.434  24.394   8.371
    3AU     LIG 1107  27.685  24.645   8.662
    3AU     LIG 1108  27.888  25.026   8.848
    3AU     LIG 1109  27.957  25.487   8.951
    3AU       S 1110  27.591  23.813   7.593
    3AU     LIG 1111  28.056  23.809   7.642
    3AU     LIG 1112  28.540  23.863   7.662
    3AU     LIG 1113  29.014  24.005   7.658
    3AU     LIG 1114  29.418  24.014   7.943
    3AU    AUSL 1115  25.642  24.054   7.563
    3AU    AUSL 1116  25.724  23.816   7.949
    3AU     AUL 1117  25.411  24.144   7.825
    3AU       S 1118  25.567  23.971   8.219
    3AU     LIG 1119  25.138  24.092   8.276
    3AU     LIG 1120  24.951  24.357   8.588
    3AU     LIG 1121  24.804  24.422   9.021
    3AU     LIG 1122  24.439  24.290   9.289
    3AU       S 1123  25.623  24.420   7.494
    3AU     LIG 1124  25.140  24.324   7.448
    3AU     LIG 1125  24.715  24.549   7.551
    3AU     LIG 1126  24.346  24.880   7.608
    3AU     LIG 1127  23.929  25.097   7.751
    3AU    AUSL 1128  25.592  23.684   7.350
    3AU    AUSL 1129  25.741  24.110   7.157
    3AU     AUL 1130  25.439  23.993   7.190
    3AU       S 1131  25.198  23.589   7.019
    3AU     LIG 1132  24.922  23.971   7.124
    3AU     LIG 1133  24.475  24.132   6.996
    3AU     LIG 1134  23.980  24.225   6.935
    3AU     LIG 1135  23.511  24.332   7.020
    3AU       S 1136  25.543  24.392   6.938
    3AU     LIG 1137  25.386  24.513   6.514
    3AU     LIG 1138  25.128  24.810   6.230
    3AU     LIG 1139  24.918  25.168   5.970
    3AU     LIG 1140  24.766  25.631   5.854
    3AU    AUSL 1141  25.379  23.705   7.744
    3AU    AUSL 1142  25.334  23.364   7.409
    3AU     AUL 1143  25.212  23.712   7.472
    3AU       S 1144  25.066  23.279   7.618
    3AU     LIG 1145  24.768  23.164   7.298
    3AU     LIG 1146  24.351  22.965   7.249
    3AU     LIG 1147  23.883  22.942   7.243
    3AU     LIG 1148  23.651  22.672   6.927
    3AU       S 1149  25.262  23.661   7.976
    3AU     LIG 1150  24.947  23.979   7.812
    3AU     LIG 1151  24.641  24.264   8.000
    3AU     LIG 1152  24.198  24.156   8.146
    3AU     LIG 1153  23.721  24.171   8.013
    3AU    AUSL 1154  26.987  22.904   7.554
    3AU    AUSL 1155  26.805  23.160   7.893
    3AU     AUL 1156  27.129  23.027   7.948
    3AU       S 1157  27.236  22.805   7.538
    3AU     LIG 1158  27.471  22.579   7.268
    3AU     LIG 1159  27.877  22.335   7.361
    3AU     LIG 1160  28.308  22.113   7.452
    3AU     LIG 1161  28.579  21.707   7.543
    3AU       S 1162  27.046  22.582   7.956
    3AU     LIG 1163  27.318  22.403   8.324
    3AU     LIG 1164  27.490  22.168   8.675
    3AU     LIG 1165  27.752  21.927   8.968
    3AU     LIG 1166  28.050  21.965   9.331
    3AU    AUSL 1167  26.954  23.274   7.345
    3AU    AUSL 1168  26.889  22.859   7.143
    3AU     AUL 1169  27.163  23.064   7.154
    3AU       S 1170  27.511  23.107   7.435
    3AU     LIG 1171  27.903  22.865   7.307
    3AU     LIG 1172  28.303  22.608   7.237
    3AU     LIG 1173  28.761  22.569   7.149
    3AU     LIG 1174  29.208  22.444   7.164
    3AU       S 1175  27.097  22.710   6.848
    3AU     LIG 1176  27.272  22.292   6.740
    3AU     LIG 1177  27.437  21.874   6.548
    3AU     LIG 1178  27.679  21.543   6.290
    3AU     LIG 1179  27.956  21.143   6.200
    3AU    AUSL 1180  25.494  22.991   7.580
    3AU    AUSL 1181  25.656  23.204   7.192
    3AU     AUL 1182  25.293  23.089   7.256
    3AU       S 1183  25.463  22.958   6.854
    3AU     LIG 1184  25.158  22.637   6.682
    3AU     LIG 1185  24.834  22.416   6.443
    3AU     LIG 1186  24.487  22.234   6.186
    3AU     LIG 1187  24.149  22.026   5.917
    3AU       S 1188  25.077  22.985   7.669
    3AU     LIG 1189  24.660  22.771   7.624
    3AU     LIG 1190  24.238  22.529   7.549
    3AU     LIG 1191  23.967  22.305   7.857
    3AU     LIG 1192  23.627  22.003   7.892
    3AU    AUSL 1193  25.629  23.377   7.731
    3AU    AUSL 1194  25.825  22.976   7.839
    3AU     AUL 1195  25.433  23.161   7.910
    3AU       S 1196  25.530  22.731   8.034
    3AU     LIG 1197  25.221  22.422   7.931
    3AU     LIG 1198  24.993  22.069   8.151
    3AU     LIG 1199  24.694  21.839   8.457
    3AU     LIG 1200  24.413  21.474   8.624
    3AU       S 1201  25.028  23.299   7.762
    3AU     LIG 1202  24.581  23.247   7.815
    3AU     LIG 1203  24.192  22.995   7.738
    3AU     LIG 1204  23.787  22.774   7.722
    3AU     LIG 1205  23.452  22.501   7.877
    3AU    AUSL 1206  26.315  24.283   8.006
    3AU    AUSL 1207  25.885  24.206   7.881
    3AU     AUL 1208  26.111  24.280   8.258
    3AU       S 1209  25.748  24.421   8.000
    3AU     LIG 1210  25.360  24.564   8.265
    3AU     LIG 1211  25.143  24.859   8.580
    3AU     LIG 1212  24.974  25.291   8.733
    3AU     LIG 1213  24.745  25.728   8.729
    3AU       S 1214  26.318  24.626   7.994
    3AU     LIG 1215  26.538  24.706   8.323
    3AU     LIG 1216  26.586  25.153   8.473
    3AU     LIG 1217  26.537  25.597   8.638
    3AU     LIG 1218  26.530  25.978   8.926
    3AU    AUSL 1219  26.128  24.413   7.616
    3AU    AUSL 1220  26.479  24.390   7.249
    3AU     AUL 1221  26.155  24.629   7.362
    3AU       S 1222  26.150  24.697   7.826
    3AU     LIG 1223  26.168  25.078   8.130
    3AU     LIG 1224  26.342  25.509   8.170
    3AU     LIG 1225  26.340  25.974   8.302
    3AU     LIG 1226  26.019  26.318   8.373
    3AU       S 1227  26.431  24.708   6.995
    3AU     LIG 1228  26.743  24.995   7.023
    3AU     LIG 1229  26.816  25.426   6.871
    3AU     LIG 1230  26.822  25.913   6.879
    3AU     LIG 1231  26.908  26.391   6.919
    3AU    AUSL 1232  26.520  24.215   7.628
    3AU    AUSL 1233  26.577  23.962   8.002
    3AU     AUL 1234  26.676  24.331   7.948
    3AU       S 1235  26.894  24.206   8.332
    3AU     LIG 1236  27.154  24.136   8.710
    3AU     LIG 1237  27.408  24.354   9.001
    3AU     LIG 1238  27.605  24.725   9.176
    3AU     LIG 1239  27.774  25.127   9.347
    3AU       S 1240  26.513  24.676   7.688
    3AU     LIG 1241  26.651  25.070   7.956
    3AU     LIG 1242  26.854  25.514   8.103
    3AU     LIG 1243  27.085  25.975   8.110
    3AU     LIG 1244  27.149  26.422   8.335
    3AU    AUSL 1245  26.244  22.826   7.953
    3AU    AUSL 1246  26.656  22.777   7.785
    3AU     AUL 1247  26.459  22.642   8.159
    3AU       S 1248  26.255  22.256   8.013
    3AU     LIG 1249  26.338  21.918   8.299
    3AU     LIG 1250  26.118  21.526   8.456
    3AU     LIG 1251  26.062  21.049   8.486
    3AU     LIG 1252  25.923  20.598   8.581
    3AU       S 1253  26.807  22.555   7.834
    3AU     LIG 1254  26.772  22.137   8.077
    3AU     LIG 1255  27.097  21.931   8.377
    3AU     LIG 1256  27.438  21.664   8.597
    3AU     LIG 1257  27.618  21.303   8.841
    3AU    AUSL 1258  25.926  22.602   7.699
    3AU    AUSL 1259  25.958  22.911   8.251
    3AU     AUL 1260  25.974  22.628   8.048
    3AU       S 1261  26.045  22.197   7.862
    3AU     LIG 1262  25.969  21.740   7.987
    3AU     LIG 1263  25.867  21.271   8.061
    3AU     LIG 1264  25.675  20.835   8.183
    3AU     LIG 1265  25.621  20.366   8.224
    3AU       S 1266  25.689  22.803   8.382
    3AU     LIG 1267  25.368  22.426   8.424
    3AU     LIG 1268  25.103  22.134   8.649
    3AU     LIG 1269  24.904  21.841   8.934
    3AU     LIG 1270  24.699  21.710   9.329
    3AU    AUSL 1271  26.347  22.535   7.643
    3AU    AUSL 1272  26.113  22.754   7.342
    3AU     AUL 1273  25.984  22.418   7.454
    3AU       S 1274  26.343  22.317   7.201
    3AU     LIG 1275  25.941  22.057   7.065
    3AU     LIG 1276  25.751  21.615   6.973
    3AU     LIG 1277  25.684  21.135   6.892
    3AU     LIG 1278  25.627  20.648   6.924
    3AU       S 1279  26.361  22.324   7.762
    3AU     LIG 1280  26.440  21.838   7.792
    3AU     LIG 1281  26.385  21.400   8.035
    3AU     LIG 1282  26.456  20.909   8.158
    3AU     LIG 1283  26.701  20.455   8.171
    3AU    AUSL 1284  26.293  24.204   6.891
    3AU    AUSL 1285  26.808  24.120   7.264
    3AU     AUL 1286  26.643  24.306   6.961
    3AU       S 1287  26.286  24.470   6.698
    3AU     LIG 1288  26.579  24.830   6.533
    3AU     LIG 1289  26.604  25.302   6.394
    3AU     LIG 1290  26.589  25.652   6.038
    3AU     LIG 1291  26.574  26.061   5.755
    3AU       S 1292  27.088  24.256   7.094
    3AU     LIG 1293  27.506  24.317   6.831
    3AU     LIG 1294  27.663  24.615   6.473
    3AU     LIG 1295  27.856  24.976   6.203
    3AU     LIG 1296  28.056  25.441   6.210
    3AU    AUSL 1297  26.131  24.145   7.303
    3AU    AUSL 1298  26.049  23.876   6.961
    3AU     AUL 1299  25.987  24.308   7.047
    3AU       S 1300  26.221  24.675   6.902
    3AU     LIG 1301  26.302  25.167   6.812
    3AU     LIG 1302  26.369  25.644   6.742
    3AU     LIG 1303  26.203  26.093   6.725
    3AU     LIG 1304  25.793  26.329   6.705
    3AU       S 1305  25.835  24.109   6.662
    3AU     LIG 1306  25.578  24.123   6.238
    3AU     LIG 1307  25.363  24.438   5.962
    3AU     LIG 1308  25.180  24.800   5.697
    3AU     LIG 1309  24.926  25.112   5.445
    3AU    AUSL 1310  26.294  22.718   6.947
    3AU    AUSL 1311  25.702  22.773   7.278
    3AU     AUL 1312  25.952  22.599   7.015
    3AU       S 1313  25.503  22.714   7.075
    3AU     LIG 1314  25.487  22.304   6.899
    3AU     LIG 1315  25.105  22.067   6.723
    3AU     LIG 1316  24.680  21.919   6.555
    3AU     LIG 1317  24.279  21.773   6.345
    3AU       S 1318  26.348  22.340   7.008
    3AU     LIG 1319  26.295  22.099   6.673
    3AU     LIG 1320  26.091  21.704   6.596
    3AU     LIG 1321  26.023  21.250   6.524
    3AU     LIG 1322  25.892  20.822   6.387
    3AU    AUSL 1323  26.540  22.733   7.327
    3AU    AUSL 1324  26.539  23.054   6.980
    3AU     AUL 1325  26.644  22.686   6.959
    3AU       S 1326  26.578  22.342   7.275
    3AU     LIG 1327  26.414  21.838   7.127
    3AU     LIG 1328  26.218  21.389   6.995
    3AU     LIG 1329  26.147  20.904   6.907
    3AU     LIG 1330  26.322  20.449   6.952
    3AU       S 1331  26.845  22.885   6.603
    3AU     LIG 1332  26.786  22.430   6.549
    3AU     LIG 1333  27.030  22.119   6.311
    3AU     LIG 1334  27.312  21.858   6.044
    3AU     LIG 1335  27.560  21.564   5.779
    4AU     AUC 1336  14.441  44.612   7.502
    4AU     AUC 1337  14.721  44.624   7.327
    4AU     AUC 1338  14.701  44.600   7.677
    4AU     AUC 1339  14.158  44.606   7.333
    4AU     AUC 1340  14.174  44.646   7.681
    4AU     AUC 1341  14.276  44.897   7.497
    4AU     AUC 1342  14.638  44.890   7.495
    4AU     AUC 1343  14.253  44.340   7.510
    4AU     AUC 1344  14.606  44.322   7.502
    4AU     AUC 1345  14.440  44.436   7.780
    4AU     AUC 1346  14.435  44.786   7.772
    4AU     AUC 1347  14.436  44.445   7.228
    4AU     AUC 1348  14.459  44.765   7.228
    4AU     AUC 1349  15.031  44.630   7.156
    4AU     AUC 1350  15.043  44.590   7.519
    4AU     AUC 1351  14.988  44.572   7.877
    4AU     AUC 1352  13.860  44.591   7.161
    4AU     AUC 1353  13.836  44.639   7.522
    4AU     AUC 1354  13.882  44.678   7.860
    4AU     AUC 1355  14.113   0.208   7.472
    4AU     AUC 1356  14.474   0.218   7.471
    4AU     AUC 1357  14.849   0.164   7.492
    4AU     AUC 1358  14.059  44.064   7.519
    4AU     AUC 1359  14.412  44.010   7.493
    4AU     AUC 1360  14.778  44.023   7.485
    4AU     AUC 1361  14.419  44.262   8.066
    4AU     AUC 1362  14.447  44.635   8.114
    4AU     AUC 1363  14.455  44.969   8.067
    4AU     AUC 1364  14.465  44.267   6.950
    4AU     AUC 1365  14.449  44.599   6.889
    4AU     AUC 1366  14.437  44.930   6.925
    4AU     AUC 1367  14.700  44.402   8.008
    4AU     AUC 1368  14.750  44.752   8.011
    4AU     AUC 1369  14.773  44.475   6.996
    4AU     AUC 1370  14.759  44.792   7.026
    4AU     AUC 1371  14.133  44.489   8.011
    4AU     AUC 1372  14.160  44.865   7.981
    4AU     AUC 1373  14.141  44.414   7.043
    4AU     AUC 1374  14.124  44.738   6.995
    4AU     AUC 1375  14.978  44.907   7.333
    4AU     AUC 1376  14.944  44.889   7.685
    4AU     AUC 1377  13.962  44.910   7.308
    4AU     AUC 1378  13.974  44.963   7.664
    4AU     AUC 1379  14.920  44.314   7.331
    4AU     AUC 1380  14.888  44.269   7.685
    4AU     AUC 1381  13.923  44.304   7.364
    4AU     AUC 1382  13.969  44.358   7.718
    4AU     AUC 1383  14.297   0.154   7.771
    4AU     AUC 1384  14.649   0.075   7.764
    4AU     AUC 1385  14.244  44.140   7.806
    4AU     AUC 1386  14.570  44.089   7.780
    4AU     AUC 1387  14.273   0.055   7.194
    4AU     AUC 1388  14.643   0.098   7.202
    4AU     AUC 1389  14.249  44.133   7.213
    4AU     AUC 1390  14.642  44.157   7.208
    4AU    AUSL 1391  14.958  44.469   8.265
    4AU    AUSL 1392  14.711  44.089   8.172
    4AU     AUL 1393  14.900  44.083   8.536
    4AU       S 1394  15.057  43.870   8.170
    4AU     LIG 1395  14.911  43.559   8.482
    4AU     LIG 1396  15.120  43.228   8.698
    4AU     LIG 1397  15.373  43.056   9.069
    4AU     LIG 1398  15.674  42.864   9.373
    4AU       S 1399  15.145  44.388   8.310
    4AU     LIG 1400  15.232  44.390   8.771
    4AU     LIG 1401  15.357  44.279   9.215
    4AU     LIG 1402  15.567  44.144   9.622
    4AU     LIG 1403  15.948  44.081   9.909
    4AU    AUSL 1404  14.540  44.427   8.388
    4AU    AUSL 1405  14.297  44.811   8.388
    4AU     AUL 1406  14.479  44.751   8.744
    4AU       S 1407  14.560  44.369   8.520
    4AU     LIG 1408  14.679  44.320   8.946
    4AU     LIG 1409  14.877  44.128   9.339
    4AU     LIG 1410  15.081  43.968   9.752
    4AU     LIG 1411  15.211  43.745  10.164
    4AU       S 1412  14.084  44.561   8.618
    4AU     LIG 1413  14.129  44.579   9.085
    4AU     LIG 1414  13.876  44.558   9.466
    4AU     LIG 1415  13.668  44.634   9.871
    4AU     LIG 1416  13.519  44.980  10.164
    4AU    AUSL 1417  14.714  44.834   8.364
    4AU    AUSL 1418  15.086  44.854   8.118
    4AU     AUL 1419  14.983  44.754   8.529
    4AU       S 1420  14.613   0.152   8.495
    4AU     LIG 1421  14.865   0.108   8.871
    4AU     LIG 1422  15.046   0.280   9.282
    4AU     LIG 1423  14.987   0.386   9.762
    4AU     LIG 1424  15.012   0.546  10.222
    4AU       S 1425  15.170   0.111   8.297
    4AU     LIG 1426  15.527  44.965   8.467
    4AU     LIG 1427  15.836   0.227   8.741
    4AU     LIG 1428  16.094   0.554   8.991
    4AU     LIG 1429  16.309   0.912   9.211
    4AU    AUSL 1430  14.976  44.762   6.746
    4AU    AUSL 1431  14.747   0.066   6.961
    4AU     AUL 1432  14.803   0.156   6.604
    4AU       S 1433  14.949  44.812   6.337
    4AU     LIG 1434  15.319  44.675   6.121
    4AU     LIG 1435  15.445  44.378   5.817
    4AU     LIG 1436  15.486  44.260   5.380
    4AU     LIG 1437  15.762  44.125   5.029
    4AU       S 1438  15.180   0.313   6.832
    4AU     LIG 1439  15.287   0.555   6.465
    4AU     LIG 1440  15.471   0.790   6.091
    4AU     LIG 1441  15.685   1.055   5.771
    4AU     LIG 1442  15.770   1.091   5.310
    4AU    AUSL 1443  14.759  44.414   6.610
    4AU    AUSL 1444  15.111  44.389   6.923
    4AU     AUL 1445  15.177  44.511   6.616
    4AU       S 1446  15.266  44.058   6.689
    4AU     LIG 1447  15.426  43.703   6.390
    4AU     LIG 1448  15.672  43.306   6.286
    4AU     LIG 1449  15.949  43.107   5.954
    4AU     LIG 1450  16.197  42.946   5.573
    4AU       S 1451  14.850  44.627   6.294
    4AU     LIG 1452  15.002  44.259   6.110
    4AU     LIG 1453  15.081  44.039   5.684
    4AU     LIG 1454  15.061  44.028   5.203
    4AU     LIG 1455  15.112  44.102   4.730
    4AU    AUSL 1456  14.551  44.785   6.696
    4AU    AUSL 1457  14.342  44.391   6.728
    4AU     AUL 1458  14.497  44.389   6.450
    4AU       S 1459  14.070  44.431   6.289
    4AU     LIG 1460  14.158  44.289   5.886
    4AU     LIG 1461  13.924  44.046   5.565
    4AU     LIG 1462  13.725  44.015   5.148
    4AU     LIG 1463  13.585  43.804   4.750
    4AU       S 1464  14.610  44.827   6.329
    4AU     LIG 1465  14.725  44.694   5.837
    4AU     LIG 1466  15.034  44.523   5.509
    4AU     LIG 1467  15.168  44.522   5.052
    4AU     LIG 1468  15.181  44.734   4.629
    4AU    AUSL 1469  13.894  44.760   8.234
    4AU    AUSL 1470  14.182   0.124   8.131
    4AU     AUL 1471  14.066   0.052   8.466
    4AU       S 1472  13.882  44.656   8.652
    4AU     LIG 1473  13.697  44.329   8.894
    4AU     LIG 1474  13.459  44.299   9.300
    4AU     LIG 1475  13.255  44.352   9.726
    4AU     LIG 1476  12.873  44.265   9.997
    4AU       S 1477  13.803   0.342   8.183
    4AU     LIG 1478  13.912   0.546   8.563
    4AU     LIG 1479  13.803   0.707   8.974
    4AU     LIG 1480  13.460   0.929   9.187
    4AU     LIG 1481  13.153   1.051   9.519
    4AU    AUSL 1482  14.192  44.467   8.153
    4AU    AUSL 1483  13.781  44.338   8.134
    4AU     AUL 1484  13.674  44.571   8.251
    4AU       S 1485  13.707  44.123   8.395
    4AU     LIG 1486  13.274  44.060   8.239
    4AU     LIG 1487  13.032  43.684   8.376
    4AU     LIG 1488  12.810  43.447   8.722
    4AU     LIG 1489  12.585  43.162   9.020
    4AU       S 1490  14.067  44.426   8.537
    4AU     LIG 1491  14.188  44.131   8.869
    4AU     LIG 1492  13.953  44.082   9.279
    4AU     LIG 1493  13.723  44.111   9.702
    4AU     LIG 1494  13.512  43.927  10.080
    4AU    AUSL 1495  13.921  44.459   6.777
    4AU    AUSL 1496  14.120  44.113   6.958
    4AU     AUL 1497  14.151  44.105   6.624
    4AU       S 1498  13.895  44.361   6.334
    4AU     LIG 1499  13.642  44.312   5.957
    4AU     LIG 1500  13.445  44.249   5.532
    4AU     LIG 1501  13.227  44.171   5.130
    4AU     LIG 1502  12.873  44.304   4.854
    4AU       S 1503  13.739  44.000   6.795
    4AU     LIG 1504  13.823  43.683   6.547
    4AU     LIG 1505  13.512  43.391   6.376
    4AU     LIG 1506  13.191  43.137   6.158
    4AU     LIG 1507  13.002  43.058   5.735
    4AU    AUSL 1508  14.143  44.779   6.598
    4AU    AUSL 1509  13.794  44.856   6.900
    4AU     AUL 1510  13.710  44.654   6.625
    4AU       S 1511  13.759   0.100   6.659
    4AU     LIG 1512  13.352   0.207   6.619
    4AU     LIG 1513  13.150   0.451   6.268
    4AU     LIG 1514  12.965   0.713   5.921
    4AU     LIG 1515  12.738   0.998   5.634
    4AU       S 1516  14.118  44.703   6.372
    4AU     LIG 1517  13.901  44.774   5.971
    4AU     LIG 1518  13.855  44.565   5.552
    4AU     LIG 1519  13.659  44.541   5.128
    4AU     LIG 1520  13.621  44.838   4.751
    4AU    AUSL 1521  15.265   0.098   7.499
    4AU    AUSL 1522  15.135  44.890   7.113
    4AU     AUL 1523  15.498   0.091   7.162
    4AU       S 1524  15.205   0.155   6.836
    4AU     LIG 1525  15.409   0.041   6.474
    4AU     LIG 1526  15.694   0.322   6.220
    4AU     LIG 1527  15.965   0.661   6.018
    4AU     LIG 1528  16.203   1.016   5.829
    4AU       S 1529  15.639   0.200   7.590
    4AU     LIG 1530  16.126   0.220   7.459
    4AU     LIG 1531  16.585   0.357   7.477
    4AU     LIG 1532  16.997   0.597   7.462
    4AU     LIG 1533  17.153   1.044   7.517
    4AU    AUSL 1534  15.411  44.700   7.386
    4AU    AUSL 1535  15.336  44.390   7.719
    4AU     AUL 1536  15.578  44.578   7.804
    4AU       S 1537  15.735  44.802   7.428
    4AU     LIG 1538  16.176  44.723   7.323
    4AU     LIG 1539  16.605  44.923   7.197
    4AU     LIG 1540  16.963   0.232   7.106
    4AU     LIG 1541  17.413   0.298   6.916
    4AU       S 1542  15.623  44.164   7.560
    4AU     LIG 1543  16.083  44.077   7.624
    4AU     LIG 1544  16.429  43.765   7.719
    4AU     LIG 1545  16.871  43.602   7.792
    4AU     LIG 1546  17.348  43.676   7.804
    4AU    AUSL 1547  15.126  44.753   7.715
    4AU    AUSL 1548  15.052   0.211   7.847
    4AU     AUL 1549  15.343  44.978   7.885
    4AU       S 1550  15.246   0.377   8.116
    4AU     LIG 1551  15.601   0.466   8.346
    4AU     LIG 1552  15.813   0.767   8.624
    4AU     LIG 1553  16.018   1.144   8.833
    4AU     LIG 1554  16.104   1.630   8.798
    4AU       S 1555  15.715  44.981   7.616
    4AU     LIG 1556  16.068  44.840   7.821
    4AU     LIG 1557  16.510  44.876   7.698
    4AU     LIG 1558  16.947   0.014   7.601
    4AU     LIG 1559  17.181   0.313   7.862
    4AU    AUSL 1560  13.771   0.184   7.496
    4AU    AUSL 1561  13.866  44.977   7.879
    4AU     AUL 1562  13.547   0.282   7.749
    4AU       S 1563  13.685   0.164   8.172
    4AU     LIG 1564  13.574   0.160   8.613
    4AU     LIG 1565  13.350   0.476   8.896
    4AU     LIG 1566  13.029   0.645   9.203
    4AU     LIG 1567  12.734   0.730   9.564
    4AU       S 1568  13.745   0.553   7.413
    4AU     LIG 1569  13.267   0.418   7.352
    4AU     LIG 1570  12.802   0.525   7.461
    4AU     LIG 1571  12.392   0.800   7.492
    4AU     LIG 1572  12.046   1.142   7.588
    4AU    AUSL 1573  13.733  44.795   7.307
    4AU    AUSL 1574  13.880   0.240   7.094
    4AU     AUL 1575  13.575   0.095   7.133
    4AU       S 1576  13.385  44.636   6.982
    4AU     LIG 1577  13.074  44.998   7.044
    4AU     LIG 1578  12.694   0.277   7.017
    4AU     LIG 1579  12.226   0.363   7.008
    4AU     LIG 1580  11.744   0.370   6.966
    4AU       S 1581  13.682   0.504   6.893
    4AU     LIG 1582  13.572   0.672   6.477
    4AU     LIG 1583  13.275   0.968   6.239
    4AU     LIG 1584  12.859   1.206   6.132
    4AU     LIG 1585  12.566   1.583   6.272
    4AU    AUSL 1586  13.525  44.833   7.694
    4AU    AUSL 1587  13.490  44.468   7.404
    4AU     AUL 1588  13.349  44.812   7.421
    4AU       S 1589  13.285  44.401   7.673
    4AU     LIG 1590  12.957  44.512   7.376
    4AU     LIG 1591  12.537  44.339   7.237
    4AU     LIG 1592  12.115  44.118   7.226
    4AU     LIG 1593  11.681  44.270   7.292
    4AU       S 1594  13.392  44.858   7.927
    4AU     LIG 1595  12.987  44.914   7.763
    4AU     LIG 1596  12.579   0.086   7.945
    4AU     LIG 1597  12.218   0.340   8.072
    4AU     LIG 1598  11.766   0.442   8.069
    4AU    AUSL 1599  15.141  44.039   7.542
    4AU    AUSL 1600  14.962  44.295   7.884
    4AU     AUL 1601  15.306  44.166   7.909
    4AU       S 1602  15.458  43.931   7.516
    4AU     LIG 1603  15.849  43.633   7.519
    4AU     LIG 1604  16.247  43.341   7.495
    4AU     LIG 1605  16.705  43.190   7.467
    4AU     LIG 1606  17.040  42.975   7.189
    4AU       S 1607  15.139  43.775   8.071
    4AU     LIG 1608  15.410  43.554   8.356
    4AU     LIG 1609  15.621  43.337   8.693
    4AU     LIG 1610  15.898  43.130   8.981
    4AU     LIG 1611  16.311  42.931   9.075
    4AU    AUSL 1612  15.113  44.417   7.339
    4AU    AUSL 1613  15.055  44.002   7.127
    4AU     AUL 1614  15.321  44.198   7.154
    4AU       S 1615  15.677  44.296   7.407
    4AU     LIG 1616  15.868  43.988   7.146
    4AU     LIG 1617  16.283  43.775   7.218
    4AU     LIG 1618  16.755  43.716   7.305
    4AU     LIG 1619  17.206  43.905   7.338
    4AU       S 1620  15.261  43.842   6.846
    4AU     LIG 1621  15.303  43.371   6.780
    4AU     LIG 1622  15.454  42.949   6.603
    4AU     LIG 1623  15.746  42.749   6.280
    4AU     LIG 1624  16.118  42.611   5.997
    4AU    AUSL 1625  13.686  44.103   7.564
    4AU    AUSL 1626  13.798  44.328   7.156
    4AU     AUL 1627  13.442  44.167   7.284
    4AU       S 1628  13.606  44.129   6.856
    4AU     LIG 1629  13.306  43.813   6.632
    4AU     LIG 1630  12.994  43.545   6.408
    4AU     LIG 1631  12.728  43.372   6.064
    4AU     LIG 1632  12.428  43.469   5.719
    4AU       S 1633  13.263  44.167   7.725
    4AU     LIG 1634  12.886  44.034   7.522
    4AU     LIG 1635  12.482  43.828   7.427
    4AU     LIG 1636  12.058  43.672   7.562
    4AU     LIG 1637  11.875  43.243   7.716
    4AU    AUSL 1638  13.757  44.487   7.746
    4AU    AUSL 1639  14.003  44.107   7.850
    4AU     AUL 1640  13.676  44.068   7.905
    4AU       S 1641  13.736  43.914   8.339
    4AU     LIG 1642  13.530  43.608   8.127
    4AU     LIG 1643  13.222  43.259   8.150
    4AU     LIG 1644  12.901  43.047   8.412
    4AU     LIG 1645  12.637  42.765   8.684
    4AU       S 1646  13.351  44.395   7.859
    4AU     LIG 1647  12.848  44.409   7.899
    4AU     LIG 1648  12.438  44.232   7.735
    4AU     LIG 1649  11.983  44.188   7.737
    4AU     LIG 1650  11.537  44.191   7.808
    4AU    AUSL 1651  14.471   0.394   7.982
    4AU    AUSL 1652  14.053   0.347   7.781
    4AU     AUL 1653  14.250   0.468   8.186
    4AU       S 1654  13.912   0.549   7.881
    4AU     LIG 1655  13.640   0.804   8.200
    4AU     LIG 1656  13.474   0.930   8.639
    4AU     LIG 1657  13.311   1.329   8.867
    4AU     LIG 1658  13.217   1.811   8.798
    4AU       S 1659  14.583   0.754   7.947
    4AU     LIG 1660  14.641   0.806   8.338
    4AU     LIG 1661  14.678   1.228   8.510
    4AU     LIG 1662  14.727   1.672   8.633
    4AU     LIG 1663  14.651   1.935   9.017
    4AU    AUSL 1664  14.347   0.575   7.591
    4AU    AUSL 1665  14.621   0.498   7.250
    4AU     AUL 1666  14.600   0.858   7.406
    4AU       S 1667  14.364   0.810   7.802
    4AU     LIG 1668  14.471   1.229   8.029
    4AU     LIG 1669  14.382   1.633   8.236
    4AU     LIG 1670  14.050   1.992   8.243
    4AU     LIG 1671  13.945   2.415   8.413
    4AU       S 1672  14.357   0.756   7.042
    4AU     LIG 1673  14.818   0.959   6.983
    4AU     LIG 1674  14.932   1.385   6.876
    4AU     LIG 1675  15.083   1.817   6.749
    4AU     LIG 1676  15.444   2.152   6.711
    4AU    AUSL 1677  14.715   0.337   7.635
    4AU    AUSL 1678  14.696   0.044   8.013
    4AU     AUL 1679  14.782   0.362   8.081
    4AU       S 1680  15.077   0.240   8.403
    4AU     LIG 1681  15.317   0.337   8.765
    4AU     LIG 1682  15.575   0.577   9.043
    4AU     LIG 1683  15.795   0.917   9.261
    4AU     LIG 1684  15.870   1.078   9.699
    4AU       S 1685  14.827   0.652   7.736
    4AU     LIG 1686  14.964   1.058   7.992
    4AU     LIG 1687  14.923   1.511   8.152
    4AU     LIG 1688  15.173   1.914   8.254
    4AU     LIG 1689  15.241   2.327   8.476
    4AU    AUSL 1690  14.394  43.916   7.936
    4AU    AUSL 1691  14.808  43.911   7.776
    4AU     AUL 1692  14.604  43.773   8.153
    4AU       S 1693  14.361  43.419   7.985
    4AU     LIG 1694  14.559  43.188   8.296
    4AU     LIG 1695  14.469  42.729   8.387
    4AU     LIG 1696  14.430  42.273   8.441
    4AU     LIG 1697  14.217  41.921   8.653
    4AU       S 1698  14.973  43.719   7.858
    4AU     LIG 1699  15.036  43.284   8.064
    4AU     LIG 1700  15.404  43.047   8.295
    4AU     LIG 1701  15.594  42.818   8.666
    4AU     LIG 1702  15.902  42.614   8.959
    4AU    AUSL 1703  14.079  43.744   7.665
    4AU    AUSL 1704  14.180  44.070   8.260
    4AU     AUL 1705  14.059  43.781   8.029
    4AU       S 1706  14.187  43.362   7.843
    4AU     LIG 1707  14.177  42.922   8.006
    4AU     LIG 1708  14.166  42.444   8.028
    4AU     LIG 1709  14.100  41.993   8.147
    4AU     LIG 1710  13.892  41.618   8.363
    4AU       S 1711  13.972  43.958   8.462
    4AU     LIG 1712  13.735  43.545   8.643
    4AU     LIG 1713  13.319  43.329   8.652
    4AU     LIG 1714  13.070  43.024   8.899
    4AU     LIG 1715  12.927  42.883   9.316
    4AU    AUSL 1716  14.511  43.664   7.610
    4AU    AUSL 1717  14.278  43.897   7.319
    4AU     AUL 1718  14.162  43.554   7.420
    4AU       S 1719  14.524  43.464   7.163
    4AU     LIG 1720  14.163  43.159   7.096
    4AU     LIG 1721  14.192  42.694   7.023
    4AU     LIG 1722  14.162  42.226   6.893
    4AU     LIG 1723  13.949  41.779   6.943
    4AU       S 1724  14.526  43.459   7.747
    4AU     LIG 1725  14.648  43.005   7.830
    4AU     LIG 1726  14.657  42.537   7.944
    4AU     LIG 1727  14.628  42.068   8.006
    4AU     LIG 1728  14.912  41.753   8.207
    4AU    AUSL 1729  14.436   0.332   6.881
    4AU    AUSL 1730  14.975   0.278   7.257
    4AU     AUL 1731  14.760   0.469   6.952
    4AU       S 1732  14.382   0.731   6.812
    4AU     LIG 1733  14.617   0.994   6.529
    4AU     LIG 1734  14.767   1.406   6.383
    4AU     LIG 1735  14.771   1.711   6.026
    4AU     LIG 1736  14.793   2.043   5.685
    4AU       S 1737  15.185   0.435   7.132
    4AU     LIG 1738  15.608   0.538   6.890
    4AU     LIG 1739  15.782   0.762   6.505
    4AU     LIG 1740  15.901   1.151   6.243
    4AU     LIG 1741  16.016   1.635   6.235
    4AU    AUSL 1742  14.240   0.303   7.290
    4AU    AUSL 1743  14.204  44.993   6.950
    4AU     AUL 1744  14.122   0.358   6.906
    4AU       S 1745  14.171   0.734   7.175
    4AU     LIG 1746  14.378   1.229   7.015
    4AU     LIG 1747  14.481   1.633   6.781
    4AU     LIG 1748  14.312   2.083   6.759
    4AU     LIG 1749  14.103   2.487   6.608
    4AU       S 1750  13.893   0.194   6.558
    4AU     LIG 1751  13.651   0.264   6.171
    4AU     LIG 1752  13.487   0.626   5.902
    4AU     LIG 1753  13.280   0.869   5.532
    4AU     LIG 1754  13.053   1.174   5.241
    4AU    AUSL 1755  14.464  43.866   6.925
    4AU    AUSL 1756  13.868  43.900   7.241
    4AU     AUL 1757  14.125  43.740   6.985
    4AU       S 1758  13.669  43.852   7.021
    4AU     LIG 1759  13.532  43.435   6.903
    4AU     LIG 1760  13.178  43.168   6.703
    4AU     LIG 1761  12.767  43.050   6.472
    4AU     LIG 1762  12.308  42.876   6.380
    4AU       S 1763  14.523  43.468   6.949
    4AU     LIG 1764  14.581  43.026   6.797
    4AU     LIG 1765  14.490  42.603   6.606
    4AU     LIG 1766  14.436  42.210   6.357
    4AU     LIG 1767  14.516  42.037   5.912
    4AU    AUSL 1768  14.704  43.881   7.309
    4AU    AUSL 1769  14.710  44.202   6.964
    4AU     AUL 1770  14.804  43.834   6.936
    4AU       S 1771  14.762  43.492   7.252
    4AU     LIG 1772  14.612  43.004   7.306
    4AU     LIG 1773  14.696  42.581   7.086
    4AU     LIG 1774  14.667  42.179   6.823
    4AU     LIG 1775  14.831  41.721   6.884
    4AU       S 1776  15.032  44.032   6.596
    4AU     LIG 1777  14.933  43.592   6.502
    4AU     LIG 1778  15.157  43.221   6.283
    4AU     LIG 1779  15.425  42.981   5.955
    4AU     LIG 1780  15.719  42.732   5.666
    5AU     AUC 1781   8.174  17.038   7.500
    5AU     AUC 1782   8.453  17.054   7.325
    5AU     AUC 1783   8.433  17.024   7.675
    5AU     AUC 1784   7.891  17.033   7.329
    5AU     AUC 1785   7.905  17.069   7.678
    5AU     AUC 1786   8.008  17.322   7.497
    5AU     AUC 1787   8.370  17.316   7.497
    5AU     AUC 1788   7.988  16.766   7.504
    5AU     AUC 1789   8.340  16.747   7.496
    5AU     AUC 1790   8.173  16.858   7.775
    5AU     AUC 1791   8.167  17.208   7.772
    5AU     AUC 1792   8.171  16.875   7.222
    5AU     AUC 1793   8.191  17.196   7.227
    5AU     AUC 1794   8.763  17.063   7.156
    5AU     AUC 1795   8.775  17.014   7.518
    5AU     AUC 1796   8.718  16.993   7.874
    5AU     AUC 1797   7.594  17.018   7.156
    5AU     AUC 1798   7.568  17.062   7.518
    5AU     AUC 1799   7.612  17.098   7.858
    5AU     AUC 1800   7.845  17.630   7.476
    5AU     AUC 1801   8.206  17.644   7.477
    5AU     AUC 1802   8.583  17.590   7.498
    5AU     AUC 1803   7.795  16.489   7.509
    5AU     AUC 1804   8.149  16.436   7.483
    5AU     AUC 1805   8.512  16.448   7.477
    5AU     AUC 1806   8.153  16.681   8.059
    5AU     AUC 1807   8.178  17.055   8.111
    5AU     AUC 1808   8.186  17.387   8.068
    5AU     AUC 1809   8.200  16.702   6.943
    5AU     AUC 1810   8.182  17.034   6.888
    5AU     AUC 1811   8.169  17.367   6.928
    5AU     AUC 1812   8.432  16.821   8.004
    5AU     AUC 1813   8.481  17.173   8.010
    5AU     AUC 1814   8.506  16.910   6.991
    5AU     AUC 1815   8.491  17.228   7.029
    5AU     AUC 1816   7.865  16.908   8.007
    5AU     AUC 1817   7.889  17.284   7.980
    5AU     AUC 1818   7.876  16.845   7.036
    5AU     AUC 1819   7.857  17.170   6.992
    5AU     AUC 1820   8.711  17.336   7.338
    5AU     AUC 1821   8.677  17.313   7.687
    5AU     AUC 1822   7.694  17.335   7.307
    5AU     AUC 1823   7.704  17.384   7.664
    5AU     AUC 1824   8.650  16.743   7.322
    5AU     AUC 1825   8.620  16.691   7.679
    5AU     AUC 1826   7.658  16.730   7.357
    5AU     AUC 1827   7.702  16.779   7.712
    5AU     AUC 1828   8.029  17.574   7.774
    5AU     AUC 1829   8.382  17.499   7.767
    5AU     AUC 1830   7.980  16.562   7.797
    5AU     AUC 1831   8.305  16.508   7.772
    5AU     AUC 1832   8.005  17.484   7.196
    5AU     AUC 1833   8.374  17.530   7.208
    5AU     AUC 1834   7.986  16.563   7.204
    5AU     AUC 1835   8.378  16.587   7.197
    5AU    AUSL 1836   8.689  16.889   8.259
    5AU    AUSL 1837   8.446  16.506   8.171
    5AU     AUL 1838   8.649  16.537   8.556
    5AU       S 1839   8.773  16.316   8.184
    5AU     LIG 1840   8.625  16.022   8.521
    5AU     LIG 1841   8.862  15.693   8.737
    5AU     LIG 1842   9.152  15.408   8.972
    5AU     LIG 1843   9.331  15.387   9.408
    5AU       S 1844   8.891  16.812   8.290
    5AU     LIG 1845   9.043  16.834   8.718
    5AU     LIG 1846   9.020  16.822   9.184
    5AU     LIG 1847   9.178  16.786   9.626
    5AU     LIG 1848   9.516  16.786   9.952
    5AU    AUSL 1849   8.271  16.844   8.383
    5AU    AUSL 1850   8.024  17.225   8.391
    5AU     AUL 1851   8.212  17.161   8.743
    5AU       S 1852   8.283  16.783   8.509
    5AU     LIG 1853   8.308  16.702   8.938
    5AU     LIG 1854   8.546  16.682   9.348
    5AU     LIG 1855   8.705  16.648   9.797
    5AU     LIG 1856   8.774  16.423  10.211
    5AU       S 1857   7.814  16.976   8.617
    5AU     LIG 1858   7.874  17.011   9.086
    5AU     LIG 1859   7.619  17.048   9.464
    5AU     LIG 1860   7.408  17.054   9.869
    5AU     LIG 1861   7.394  17.332  10.242
    5AU    AUSL 1862   8.441  17.252   8.363
    5AU    AUSL 1863   8.815  17.276   8.122
    5AU     AUL 1864   8.705  17.157   8.531
    5AU       S 1865   8.333  17.570   8.498
    5AU     LIG 1866   8.571  17.506   8.878
    5AU     LIG 1867   8.778  17.644   9.284
    5AU     LIG 1868   8.753  17.750   9.758
    5AU     LIG 1869   8.863  17.632  10.209
    5AU       S 1870   8.889  17.519   8.306
    5AU     LIG 1871   9.296  17.425   8.379
    5AU     LIG 1872   9.597  17.633   8.689
    5AU     LIG 1873   9.829  17.925   8.989
    5AU     LIG 1874  10.028  18.287   9.213
    5AU    AUSL 1875   8.709  17.207   6.749
    5AU    AUSL 1876   8.480  17.507   6.971
    5AU     AUL 1877   8.530  17.604   6.615
    5AU       S 1878   8.688  17.273   6.339
    5AU     LIG 1879   9.043  17.092   6.123
    5AU     LIG 1880   9.083  16.804   5.775
    5AU     LIG 1881   9.205  16.749   5.333
    5AU     LIG 1882   9.600  16.707   5.072
    5AU       S 1883   8.915  17.747   6.838
    5AU     LIG 1884   9.009  17.939   6.436
    5AU     LIG 1885   9.234  18.113   6.052
    5AU     LIG 1886   9.507  18.396   5.797
    5AU     LIG 1887   9.607  18.539   5.356
    5AU    AUSL 1888   8.493  16.862   6.607
    5AU    AUSL 1889   8.841  16.829   6.916
    5AU     AUL 1890   8.901  16.954   6.607
    5AU       S 1891   8.983  16.501   6.669
    5AU     LIG 1892   9.162  16.188   6.347
    5AU     LIG 1893   9.450  15.823   6.216
    5AU     LIG 1894   9.715  15.537   5.925
    5AU     LIG 1895  10.145  15.424   5.767
    5AU       S 1896   8.571  17.112   6.295
    5AU     LIG 1897   8.672  16.724   6.134
    5AU     LIG 1898   8.644  16.542   5.708
    5AU     LIG 1899   8.727  16.553   5.245
    5AU     LIG 1900   8.782  16.568   4.782
    5AU    AUSL 1901   8.283  17.227   6.703
    5AU    AUSL 1902   8.077  16.828   6.721
    5AU     AUL 1903   8.241  16.833   6.445
    5AU       S 1904   7.814  16.869   6.283
    5AU     LIG 1905   7.868  16.737   5.875
    5AU     LIG 1906   7.646  16.514   5.545
    5AU     LIG 1907   7.398  16.548   5.160
    5AU     LIG 1908   7.135  16.382   4.803
    5AU       S 1909   8.333  17.280   6.340
    5AU     LIG 1910   8.364  17.073   5.862
    5AU     LIG 1911   8.688  17.015   5.498
    5AU     LIG 1912   8.824  17.031   5.041
    5AU     LIG 1913   8.715  17.154   4.592
    5AU    AUSL 1914   7.622  17.174   8.231
    5AU    AUSL 1915   7.917  17.536   8.129
    5AU     AUL 1916   7.789  17.467   8.461
    5AU       S 1917   7.610  17.068   8.650
    5AU     LIG 1918   7.393  16.853   8.979
    5AU     LIG 1919   7.173  16.803   9.398
    5AU     LIG 1920   6.974  16.767   9.829
    5AU     LIG 1921   6.608  16.804  10.135
    5AU       S 1922   7.528  17.764   8.181
    5AU     LIG 1923   7.630  17.962   8.554
    5AU     LIG 1924   7.522  18.085   8.966
    5AU     LIG 1925   7.192  18.297   9.194
    5AU     LIG 1926   6.829  18.527   9.391
    5AU    AUSL 1927   7.923  16.885   8.148
    5AU    AUSL 1928   7.515  16.750   8.128
    5AU     AUL 1929   7.405  16.980   8.247
    5AU       S 1930   7.446  16.528   8.390
    5AU     LIG 1931   7.015  16.503   8.225
    5AU     LIG 1932   6.712  16.170   8.191
    5AU     LIG 1933   6.567  15.868   8.528
    5AU     LIG 1934   6.388  15.766   8.948
    5AU       S 1935   7.794  16.837   8.536
    5AU     LIG 1936   7.809  16.550   8.896
    5AU     LIG 1937   7.652  16.555   9.325
    5AU     LIG 1938   7.458  16.555   9.749
    5AU     LIG 1939   7.244  16.414  10.146
    5AU    AUSL 1940   7.654  16.891   6.768
    5AU    AUSL 1941   7.858  16.546   6.948
    5AU     AUL 1942   7.897  16.537   6.614
    5AU       S 1943   7.645  16.807   6.340
    5AU     LIG 1944   7.346  16.775   6.039
    5AU     LIG 1945   7.197  16.762   5.617
    5AU     LIG 1946   6.921  16.712   5.262
    5AU     LIG 1947   6.725  16.722   4.846
    5AU       S 1948   7.483  16.426   6.777
    5AU     LIG 1949   7.546  16.050   6.568
    5AU     LIG 1950   7.216  15.757   6.391
    5AU     LIG 1951   6.853  15.501   6.197
    5AU     LIG 1952   6.469  15.276   5.994
    5AU    AUSL 1953   7.878  17.214   6.598
    5AU    AUSL 1954   7.528  17.287   6.896
    5AU     AUL 1955   7.440  17.102   6.614
    5AU       S 1956   7.524  17.543   6.654
    5AU     LIG 1957   7.117  17.602   6.590
    5AU     LIG 1958   6.902  17.843   6.240
    5AU     LIG 1959   6.740  18.064   5.852
    5AU     LIG 1960   6.584  18.238   5.437
    5AU       S 1961   7.852  17.143   6.368
    5AU     LIG 1962   7.629  17.206   5.961
    5AU     LIG 1963   7.623  17.033   5.516
    5AU     LIG 1964   7.628  17.006   5.041
    5AU     LIG 1965   7.696  17.177   4.597
    5AU    AUSL 1966   9.003  17.521   7.505
    5AU    AUSL 1967   8.867  17.321   7.120
    5AU     AUL 1968   9.240  17.502   7.149
    5AU       S 1969   8.934  17.600   6.844
    5AU     LIG 1970   9.153  17.438   6.514
    5AU     LIG 1971   9.466  17.708   6.293
    5AU     LIG 1972   9.748  17.995   6.030
    5AU     LIG 1973  10.007  18.274   5.736
    5AU       S 1974   9.357  17.613   7.583
    5AU     LIG 1975   9.797  17.594   7.357
    5AU     LIG 1976  10.235  17.757   7.388
    5AU     LIG 1977  10.485  18.143   7.414
    5AU     LIG 1978  10.884  18.310   7.237
    5AU    AUSL 1979   9.142  17.124   7.392
    5AU    AUSL 1980   9.065  16.809   7.714
    5AU     AUL 1981   9.294  16.992   7.836
    5AU       S 1982   9.418  17.214   7.452
    5AU     LIG 1983   9.783  17.078   7.255
    5AU     LIG 1984  10.211  17.240   7.307
    5AU     LIG 1985  10.640  17.419   7.302
    5AU     LIG 1986  11.062  17.361   7.085
    5AU       S 1987   9.334  16.629   7.530
    5AU     LIG 1988   9.686  16.583   7.790
    5AU     LIG 1989  10.015  16.267   7.844
    5AU     LIG 1990  10.430  16.107   7.734
    5AU     LIG 1991  10.846  16.293   7.828
    5AU    AUSL 1992   8.859  17.175   7.719
    5AU    AUSL 1993   8.787  17.633   7.852
    5AU     AUL 1994   9.072  17.404   7.893
    5AU       S 1995   8.982  17.791   8.147
    5AU     LIG 1996   9.270  17.956   8.452
    5AU     LIG 1997   9.602  18.232   8.646
    5AU     LIG 1998   9.833  18.610   8.845
    5AU     LIG 1999   9.961  19.080   8.840
    5AU       S 2000   9.451  17.384   7.637
    5AU     LIG 2001   9.861  17.230   7.736
    5AU     LIG 2002  10.274  17.430   7.784
    5AU     LIG 2003  10.737  17.509   7.806
    5AU     LIG 2004  11.165  17.722   7.866
    5AU    AUSL 2005   7.504  17.605   7.501
    5AU    AUSL 2006   7.590  17.400   7.882
    5AU     AUL 2007   7.274  17.706   7.738
    5AU       S 2008   7.418  17.578   8.157
    5AU     LIG 2009   7.298  17.569   8.601
    5AU     LIG 2010   7.060  17.867   8.889
    5AU     LIG 2011   6.721  18.095   9.123
    5AU     LIG 2012   6.431  18.107   9.498
    5AU       S 2013   7.490  17.987   7.415
    5AU     LIG 2014   7.004  17.910   7.319
    5AU     LIG 2015   6.533  18.158   7.319
    5AU     LIG 2016   6.107  18.469   7.311
    5AU     LIG 2017   5.661  18.737   7.317
    5AU    AUSL 2018   7.463  17.219   7.302
    5AU    AUSL 2019   7.608  17.665   7.100
    5AU     AUL 2020   7.305  17.521   7.141
    5AU       S 2021   7.124  17.054   6.973
    5AU     LIG 2022   6.831  17.432   7.010
    5AU     LIG 2023   6.448  17.689   7.115
    5AU     LIG 2024   6.009  17.897   7.105
    5AU     LIG 2025   5.540  17.973   7.006
    5AU       S 2026   7.395  17.928   6.890
    5AU     LIG 2027   7.296  18.091   6.463
    5AU     LIG 2028   7.007  18.376   6.193
    5AU     LIG 2029   6.794  18.799   6.091
    5AU     LIG 2030   6.606  19.252   6.129
    5AU    AUSL 2031   7.256  17.253   7.688
    5AU    AUSL 2032   7.226  16.888   7.398
    5AU     AUL 2033   7.070  17.221   7.412
    5AU       S 2034   7.022  16.812   7.674
    5AU     LIG 2035   6.678  16.842   7.411
    5AU     LIG 2036   6.261  16.622   7.318
    5AU     LIG 2037   5.822  16.418   7.299
    5AU     LIG 2038   5.519  16.102   7.116
    5AU       S 2039   7.112  17.280   7.917
    5AU     LIG 2040   6.686  17.251   7.749
    5AU     LIG 2041   6.243  17.469   7.774
    5AU     LIG 2042   5.794  17.650   7.912
    5AU     LIG 2043   5.370  17.724   8.158
    5AU    AUSL 2044   8.868  16.463   7.527
    5AU    AUSL 2045   8.691  16.714   7.878
    5AU     AUL 2046   9.037  16.565   7.888
    5AU       S 2047   9.201  16.365   7.488
    5AU     LIG 2048   9.627  16.151   7.504
    5AU     LIG 2049  10.007  15.850   7.507
    5AU     LIG 2050  10.412  15.653   7.381
    5AU     LIG 2051  10.782  15.432   7.542
    5AU       S 2052   8.857  16.217   8.117
    5AU     LIG 2053   9.137  16.011   8.415
    5AU     LIG 2054   9.404  15.767   8.704
    5AU     LIG 2055   9.655  15.567   9.037
    5AU     LIG 2056   9.980  15.676   9.364
    5AU    AUSL 2057   8.843  16.844   7.333
    5AU    AUSL 2058   8.789  16.435   7.111
    5AU     AUL 2059   9.048  16.635   7.136
    5AU       S 2060   9.406  16.721   7.393
    5AU     LIG 2061   9.780  16.560   7.242
    5AU     LIG 2062  10.138  16.312   7.347
    5AU     LIG 2063  10.545  16.139   7.223
    5AU     LIG 2064  10.923  16.389   7.109
    5AU       S 2065   8.991  16.292   6.817
    5AU     LIG 2066   9.093  15.848   6.740
    5AU     LIG 2067   9.294  15.461   6.552
    5AU     LIG 2068   9.623  15.215   6.312
    5AU     LIG 2069   9.800  14.973   5.951
    5AU    AUSL 2070   7.424  16.524   7.554
    5AU    AUSL 2071   7.534  16.755   7.147
    5AU     AUL 2072   7.180  16.592   7.272
    5AU       S 2073   7.346  16.552   6.845
    5AU     LIG 2074   7.055  16.246   6.598
    5AU     LIG 2075   6.728  15.945   6.445
    5AU     LIG 2076   6.368  15.710   6.250
    5AU     LIG 2077   6.000  15.644   5.958
    5AU       S 2078   7.002  16.574   7.712
    5AU     LIG 2079   6.598  16.371   7.648
    5AU     LIG 2080   6.166  16.171   7.589
    5AU     LIG 2081   5.737  15.968   7.587
    5AU     LIG 2082   5.538  15.598   7.817
    5AU    AUSL 2083   7.489  16.907   7.743
    5AU    AUSL 2084   7.740  16.529   7.840
    5AU     AUL 2085   7.414  16.483   7.897
    5AU       S 2086   7.470  16.320   8.329
    5AU     LIG 2087   7.211  16.004   8.133
    5AU     LIG 2088   6.860  15.652   8.168
    5AU     LIG 2089   6.527  15.354   8.384
    5AU     LIG 2090   6.505  15.008   8.706
    5AU       S 2091   7.094  16.815   7.851
    5AU     LIG 2092   6.616  16.778   7.966
    5AU     LIG 2093   6.179  16.639   7.827
    5AU     LIG 2094   5.744  16.423   7.819
    5AU     LIG 2095   5.375  16.120   7.944
    5AU    AUSL 2096   8.202  17.816   7.991
    5AU    AUSL 2097   7.788  17.765   7.783
    5AU     AUL 2098   7.978  17.880   8.192
    5AU       S 2099   7.646  17.963   7.881
    5AU     LIG 2100   7.372  18.228   8.183
    5AU     LIG 2101   7.188  18.295   8.622
    5AU     LIG 2102   6.905  18.579   8.873
    5AU     LIG 2103   6.767  19.026   8.953
    5AU       S 2104   8.311  18.175   7.966
    5AU     LIG 2105   8.412  18.278   8.339
    5AU     LIG 2106   8.413  18.714   8.502
    5AU     LIG 2107   8.363  19.138   8.685
    5AU     LIG 2108   8.221  19.322   9.104
    5AU    AUSL 2109   8.081  18.001   7.600
    5AU    AUSL 2110   8.352  17.918   7.258
    5AU     AUL 2111   8.354  18.270   7.409
    5AU       S 2112   8.107  18.233   7.802
    5AU     LIG 2113   8.195  18.665   8.026
    5AU     LIG 2114   8.160  19.122   8.198
    5AU     LIG 2115   7.992  19.588   8.208
    5AU     LIG 2116   7.695  19.973   8.087
    5AU       S 2117   8.110  18.207   7.034
    5AU     LIG 2118   8.544  18.420   6.979
    5AU     LIG 2119   8.637  18.864   6.861
    5AU     LIG 2120   8.745  19.339   6.880
    5AU     LIG 2121   9.021  19.744   6.989
    5AU    AUSL 2122   8.448  17.763   7.645
    5AU    AUSL 2123   8.427  17.465   8.014
    5AU     AUL 2124   8.518  17.780   8.091
    5AU       S 2125   8.800  17.648   8.422
    5AU     LIG 2126   9.059  17.631   8.792
    5AU     LIG 2127   9.307  17.949   8.989
    5AU     LIG 2128   9.511  18.323   9.151
    5AU     LIG 2129   9.685  18.550   9.510
    5AU       S 2130   8.561  18.075   7.753
    5AU     LIG 2131   8.686  18.500   7.936
    5AU     LIG 2132   8.644  18.943   8.107
    5AU     LIG 2133   8.614  19.393   8.272
    5AU     LIG 2134   8.780  19.853   8.284
    5AU    AUSL 2135   8.131  16.339   7.925
    5AU    AUSL 2136   8.549  16.323   7.775
    5AU     AUL 2137   8.331  16.184   8.143
    5AU       S 2138   8.088  15.840   7.959
    5AU     LIG 2139   8.092  15.735   8.350
    5AU     LIG 2140   7.988  15.296   8.469
    5AU     LIG 2141   7.956  14.822   8.510
    5AU     LIG 2142   7.886  14.365   8.577
    5AU       S 2143   8.720  16.150   7.870
    5AU     LIG 2144   8.798  15.726   8.132
    5AU     LIG 2145   9.146  15.461   8.381
    5AU     LIG 2146   9.465  15.155   8.617
    5AU     LIG 2147   9.715  14.704   8.602
    5AU    AUSL 2148   7.816  16.168   7.651
    5AU    AUSL 2149   7.915  16.486   8.250
    5AU     AUL 2150   7.794  16.202   8.015
    5AU       S 2151   7.910  15.787   7.824
    5AU     LIG 2152   7.688  15.513   8.100
    5AU     LIG 2153   7.622  15.051   8.177
    5AU     LIG 2154   7.643  14.567   8.167
    5AU     LIG 2155   7.449  14.149   8.327
    5AU       S 2156   7.734  16.367   8.449
    5AU     LIG 2157   7.599  15.882   8.481
    5AU     LIG 2158   7.148  15.734   8.587
    5AU     LIG 2159   6.802  15.485   8.802
    5AU     LIG 2160   6.541  15.295   9.147
    5AU    AUSL 2161   8.248  16.090   7.596
    5AU    AUSL 2162   8.015  16.328   7.308
    5AU     AUL 2163   7.900  15.986   7.407
    5AU       S 2164   8.252  15.892   7.140
    5AU     LIG 2165   7.828  15.655   7.043
    5AU     LIG 2166   7.711  15.222   6.916
    5AU     LIG 2167   7.705  14.745   6.852
    5AU     LIG 2168   7.751  14.267   6.778
    5AU       S 2169   8.256  15.872   7.734
    5AU     LIG 2170   8.215  15.375   7.838
    5AU     LIG 2171   8.106  14.935   8.030
    5AU     LIG 2172   8.151  14.440   8.098
    5AU     LIG 2173   8.477  14.084   7.987
    5AU    AUSL 2174   8.164  17.770   6.888
    5AU    AUSL 2175   8.714  17.711   7.268
    5AU     AUL 2176   8.501  17.910   6.972
    5AU       S 2177   8.122  18.148   6.801
    5AU     LIG 2178   8.368  18.367   6.513
    5AU     LIG 2179   8.431  18.801   6.384
    5AU     LIG 2180   8.273  19.190   6.166
    5AU     LIG 2181   8.212  19.448   5.755
    5AU       S 2182   8.938  17.860   7.131
    5AU     LIG 2183   9.357  17.943   6.833
    5AU     LIG 2184   9.545  18.205   6.461
    5AU     LIG 2185   9.884  18.480   6.218
    5AU     LIG 2186  10.284  18.793   6.251
    5AU    AUSL 2187   7.968  17.732   7.300
    5AU    AUSL 2188   7.936  17.429   6.951
    5AU     AUL 2189   7.841  17.813   6.950
    5AU       S 2190   7.926  18.200   7.183
    5AU     LIG 2191   8.097  18.672   6.925
    5AU     LIG 2192   8.186  19.101   6.729
    5AU     LIG 2193   7.992  19.520   6.644
    5AU     LIG 2194   7.845  19.931   6.801
    5AU       S 2195   7.666  17.644   6.572
    5AU     LIG 2196   7.434  17.683   6.171
    5AU     LIG 2197   7.263  18.032   5.908
    5AU     LIG 2198   7.087  18.388   5.642
    5AU     LIG 2199   7.133  18.675   5.267
    5AU    AUSL 2200   8.200  16.297   6.914
    5AU    AUSL 2201   7.605  16.327   7.227
    5AU     AUL 2202   7.863  16.173   6.973
    5AU       S 2203   7.402  16.272   7.009
    5AU     LIG 2204   7.200  15.855   6.905
    5AU     LIG 2205   6.868  15.533   6.723
    5AU     LIG 2206   6.500  15.279   6.516
    5AU     LIG 2207   6.281  14.893   6.287
    5AU       S 2208   8.253  15.891   6.917
    5AU     LIG 2209   8.191  15.437   6.759
    5AU     LIG 2210   8.038  15.015   6.557
    5AU     LIG 2211   7.933  14.561   6.392
    5AU     LIG 2212   7.919  14.068   6.312
    5AU    AUSL 2213   8.442  16.308   7.298
    5AU    AUSL 2214   8.443  16.634   6.951
    5AU     AUL 2215   8.541  16.256   6.933
    5AU       S 2216   8.474  15.902   7.231
    5AU     LIG 2217   8.255  15.433   7.290
    5AU     LIG 2218   8.159  15.008   7.066
    5AU     LIG 2219   8.192  14.583   6.840
    5AU     LIG 2220   8.251  14.131   6.703
    5AU       S 2221   8.747  16.472   6.589
    5AU     LIG 2222   8.679  16.038   6.487
    5AU     LIG 2223   8.935  15.710   6.260
    5AU     LIG 2224   9.214  15.400   6.032
    5AU     LIG 2225   9.369  15.105   5.701
    6AU     AUC 2226  31.215   4.077   7.499
    6AU     AUC 2227  31.494   4.093   7.322
    6AU     AUC 2228  31.476   4.064   7.673
    6AU     AUC 2229  30.931   4.072   7.330
    6AU     AUC 2230  30.945   4.109   7.679
    6AU     AUC 2231  31.048   4.359   7.497
    6AU     AUC 2232  31.411   4.356   7.494
    6AU     AUC 2233  31.028   3.806   7.506
    6AU     AUC 2234  31.381   3.787   7.495
    6AU     AUC 2235  31.215   3.900   7.775
    6AU     AUC 2236  31.210   4.248   7.770
    6AU     AUC 2237  31.210   3.913   7.223
    6AU     AUC 2238  31.230   4.234   7.225
    6AU     AUC 2239  31.800   4.102   7.151
    6AU     AUC 2240  31.817   4.054   7.513
    6AU     AUC 2241  31.764   4.034   7.871
    6AU     AUC 2242  30.633   4.056   7.158
    6AU     AUC 2243  30.608   4.102   7.521
    6AU     AUC 2244  30.653   4.140   7.859
    6AU     AUC 2245  30.884   4.667   7.477
    6AU     AUC 2246  31.246   4.680   7.474
    6AU     AUC 2247  31.624   4.629   7.491
    6AU     AUC 2248  30.835   3.529   7.513
    6AU     AUC 2249  31.189   3.477   7.486
    6AU     AUC 2250  31.552   3.490   7.476
    6AU     AUC 2251  31.196   3.725   8.060
    6AU     AUC 2252  31.222   4.096   8.109
    6AU     AUC 2253  31.231   4.428   8.064
    6AU     AUC 2254  31.238   3.738   6.944
    6AU     AUC 2255  31.220   4.073   6.889
    6AU     AUC 2256  31.204   4.406   6.925
    6AU     AUC 2257  31.477   3.864   8.002
    6AU     AUC 2258  31.526   4.214   8.007
    6AU     AUC 2259  31.541   3.948   6.989
    6AU     AUC 2260  31.528   4.269   7.024
    6AU     AUC 2261  30.907   3.951   8.008
    6AU     AUC 2262  30.932   4.325   7.979
    6AU     AUC 2263  30.915   3.882   7.038
    6AU     AUC 2264  30.895   4.206   6.993
    6AU     AUC 2265  31.750   4.377   7.331
    6AU     AUC 2266  31.720   4.353   7.682
    6AU     AUC 2267  30.733   4.372   7.309
    6AU     AUC 2268  30.745   4.424   7.665
    6AU     AUC 2269  31.689   3.782   7.316
    6AU     AUC 2270  31.663   3.734   7.676
    6AU     AUC 2271  30.699   3.768   7.360
    6AU     AUC 2272  30.743   3.821   7.714
    6AU     AUC 2273  31.072   4.615   7.771
    6AU     AUC 2274  31.425   4.539   7.763
    6AU     AUC 2275  31.020   3.606   7.799
    6AU     AUC 2276  31.348   3.553   7.773
    6AU     AUC 2277  31.042   4.519   7.194
    6AU     AUC 2278  31.412   4.569   7.202
    6AU     AUC 2279  31.025   3.600   7.206
    6AU     AUC 2280  31.416   3.624   7.196
    6AU    AUSL 2281  31.734   3.930   8.259
    6AU    AUSL 2282  31.490   3.550   8.168
    6AU     AUL 2283  31.680   3.558   8.545
    6AU       S 2284  31.826   3.352   8.173
    6AU     LIG 2285  31.698   3.032   8.489
    6AU     LIG 2286  31.955   2.761   8.753
    6AU     LIG 2287  32.248   2.445   8.929
    6AU     LIG 2288  32.496   2.301   9.304
    6AU       S 2289  31.928   3.847   8.300
    6AU     LIG 2290  32.022   3.850   8.776
    6AU     LIG 2291  32.221   3.745   9.207
    6AU     LIG 2292  32.444   3.632   9.622
    6AU     LIG 2293  32.806   3.665   9.934
    6AU    AUSL 2294  31.316   3.888   8.382
    6AU    AUSL 2295  31.072   4.268   8.388
    6AU     AUL 2296  31.255   4.211   8.740
    6AU       S 2297  31.332   3.831   8.510
    6AU     LIG 2298  31.400   3.767   8.926
    6AU     LIG 2299  31.726   3.596   9.178
    6AU     LIG 2300  31.947   3.475   9.572
    6AU     LIG 2301  32.099   3.377   9.999
    6AU       S 2302  30.862   4.016   8.616
    6AU     LIG 2303  30.920   4.037   9.083
    6AU     LIG 2304  30.691   4.053   9.480
    6AU     LIG 2305  30.397   4.103   9.840
    6AU     LIG 2306  30.276   4.338  10.235
    6AU    AUSL 2307  31.489   4.295   8.359
    6AU    AUSL 2308  31.862   4.315   8.115
    6AU     AUL 2309  31.753   4.203   8.527
    6AU       S 2310  31.382   4.615   8.492
    6AU     LIG 2311  31.625   4.556   8.867
    6AU     LIG 2312  31.848   4.679   9.262
    6AU     LIG 2313  31.825   4.717   9.743
    6AU     LIG 2314  31.880   4.744  10.216
    6AU       S 2315  31.942   4.559   8.298
    6AU     LIG 2316  32.352   4.486   8.373
    6AU     LIG 2317  32.643   4.692   8.688
    6AU     LIG 2318  32.884   4.980   8.979
    6AU     LIG 2319  33.108   5.337   9.185
    6AU    AUSL 2320  31.743   4.250   6.744
    6AU    AUSL 2321  31.514   4.552   6.965
    6AU     AUL 2322  31.563   4.642   6.602
    6AU       S 2323  31.735   4.284   6.355
    6AU     LIG 2324  32.123   4.117   6.152
    6AU     LIG 2325  32.271   3.793   5.869
    6AU     LIG 2326  32.332   3.679   5.424
    6AU     LIG 2327  32.503   3.694   4.996
    6AU       S 2328  31.948   4.791   6.824
    6AU     LIG 2329  32.089   4.990   6.431
    6AU     LIG 2330  32.326   5.175   6.054
    6AU     LIG 2331  32.595   5.433   5.749
    6AU     LIG 2332  32.560   5.760   5.386
    6AU    AUSL 2333  31.530   3.902   6.610
    6AU    AUSL 2334  31.866   3.866   6.911
    6AU     AUL 2335  31.986   4.039   6.667
    6AU       S 2336  31.913   3.584   6.647
    6AU     LIG 2337  32.241   3.502   6.334
    6AU     LIG 2338  32.468   3.096   6.267
    6AU     LIG 2339  32.633   2.722   6.038
    6AU     LIG 2340  32.742   2.386   5.729
    6AU       S 2341  31.674   4.013   6.317
    6AU     LIG 2342  31.814   3.676   6.089
    6AU     LIG 2343  31.900   3.486   5.666
    6AU     LIG 2344  31.920   3.483   5.186
    6AU     LIG 2345  32.087   3.526   4.743
    6AU    AUSL 2346  31.319   4.269   6.697
    6AU    AUSL 2347  31.114   3.867   6.725
    6AU     AUL 2348  31.252   3.897   6.442
    6AU       S 2349  30.819   3.902   6.289
    6AU     LIG 2350  30.875   3.713   5.893
    6AU     LIG 2351  30.594   3.484   5.598
    6AU     LIG 2352  30.381   3.461   5.182
    6AU     LIG 2353  30.461   3.552   4.732
    6AU       S 2354  31.437   4.299   6.309
    6AU     LIG 2355  31.624   4.168   5.858
    6AU     LIG 2356  31.913   3.986   5.525
    6AU     LIG 2357  32.048   3.967   5.062
    6AU     LIG 2358  31.973   4.026   4.588
    6AU    AUSL 2359  30.669   4.218   8.234
    6AU    AUSL 2360  30.964   4.576   8.123
    6AU     AUL 2361  30.844   4.511   8.458
    6AU       S 2362  30.664   4.116   8.651
    6AU     LIG 2363  30.465   3.826   8.918
    6AU     LIG 2364  30.259   3.811   9.339
    6AU     LIG 2365  30.032   3.749   9.741
    6AU     LIG 2366  29.744   3.840  10.088
    6AU       S 2367  30.572   4.805   8.183
    6AU     LIG 2368  30.657   4.974   8.574
    6AU     LIG 2369  30.567   5.214   8.944
    6AU     LIG 2370  30.237   5.413   9.186
    6AU     LIG 2371  29.909   5.671   9.399
    6AU    AUSL 2372  30.967   3.926   8.148
    6AU    AUSL 2373  30.555   3.797   8.131
    6AU     AUL 2374  30.449   4.032   8.252
    6AU       S 2375  30.478   3.579   8.382
    6AU     LIG 2376  30.047   3.456   8.205
    6AU     LIG 2377  29.849   3.053   8.351
    6AU     LIG 2378  29.629   2.858   8.729
    6AU     LIG 2379  29.428   2.665   9.113
    6AU       S 2380  30.839   3.879   8.535
    6AU     LIG 2381  30.923   3.581   8.873
    6AU     LIG 2382  30.731   3.567   9.294
    6AU     LIG 2383  30.545   3.606   9.723
    6AU     LIG 2384  30.321   3.539  10.127
    6AU    AUSL 2385  30.689   3.925   6.769
    6AU    AUSL 2386  30.898   3.581   6.949
    6AU     AUL 2387  30.938   3.576   6.613
    6AU       S 2388  30.643   3.823   6.353
    6AU     LIG 2389  30.378   3.817   5.969
    6AU     LIG 2390  30.154   3.761   5.551
    6AU     LIG 2391  29.923   3.756   5.150
    6AU     LIG 2392  29.472   3.770   4.993
    6AU       S 2393  30.524   3.467   6.781
    6AU     LIG 2394  30.621   3.154   6.531
    6AU     LIG 2395  30.334   2.829   6.377
    6AU     LIG 2396  30.036   2.627   6.078
    6AU     LIG 2397  29.797   2.597   5.671
    6AU    AUSL 2398  30.914   4.248   6.600
    6AU    AUSL 2399  30.567   4.320   6.899
    6AU     AUL 2400  30.477   4.150   6.620
    6AU       S 2401  30.580   4.591   6.644
    6AU     LIG 2402  30.163   4.591   6.640
    6AU     LIG 2403  29.929   4.827   6.310
    6AU     LIG 2404  29.769   5.053   5.932
    6AU     LIG 2405  29.590   5.229   5.537
    6AU       S 2406  30.875   4.188   6.358
    6AU     LIG 2407  30.703   4.226   5.927
    6AU     LIG 2408  30.610   3.997   5.521
    6AU     LIG 2409  30.427   3.968   5.083
    6AU     LIG 2410  30.457   4.192   4.658
    6AU    AUSL 2411  32.042   4.563   7.496
    6AU    AUSL 2412  31.901   4.361   7.115
    6AU     AUL 2413  32.269   4.547   7.144
    6AU       S 2414  31.969   4.642   6.831
    6AU     LIG 2415  32.222   4.489   6.523
    6AU     LIG 2416  32.544   4.757   6.315
    6AU     LIG 2417  32.826   5.054   6.077
    6AU     LIG 2418  33.082   5.228   5.736
    6AU       S 2419  32.415   4.651   7.572
    6AU     LIG 2420  32.906   4.679   7.463
    6AU     LIG 2421  33.358   4.839   7.504
    6AU     LIG 2422  33.770   5.071   7.496
    6AU     LIG 2423  33.919   5.515   7.384
    6AU    AUSL 2424  32.183   4.165   7.381
    6AU    AUSL 2425  32.109   3.853   7.706
    6AU     AUL 2426  32.344   4.042   7.817
    6AU       S 2427  32.476   4.251   7.426
    6AU     LIG 2428  32.900   4.180   7.312
    6AU     LIG 2429  33.324   4.385   7.256
    6AU     LIG 2430  33.749   4.616   7.231
    6AU     LIG 2431  34.042   4.960   7.064
    6AU       S 2432  32.357   3.680   7.512
    6AU     LIG 2433  32.619   3.562   7.834
    6AU     LIG 2434  32.994   3.266   7.813
    6AU     LIG 2435  33.404   3.021   7.749
    6AU     LIG 2436  33.817   2.890   7.925
    6AU    AUSL 2437  31.901   4.217   7.711
    6AU    AUSL 2438  31.831   4.673   7.847
    6AU     AUL 2439  32.119   4.450   7.880
    6AU       S 2440  32.030   4.834   8.142
    6AU     LIG 2441  32.333   5.020   8.435
    6AU     LIG 2442  32.660   5.304   8.648
    6AU     LIG 2443  32.911   5.675   8.832
    6AU     LIG 2444  33.139   6.122   8.828
    6AU       S 2445  32.493   4.433   7.611
    6AU     LIG 2446  32.857   4.294   7.812
    6AU     LIG 2447  33.315   4.399   7.771
    6AU     LIG 2448  33.759   4.594   7.754
    6AU     LIG 2449  34.175   4.654   7.989
    6AU    AUSL 2450  30.541   4.645   7.503
    6AU    AUSL 2451  30.631   4.442   7.884
    6AU     AUL 2452  30.316   4.747   7.745
    6AU       S 2453  30.464   4.618   8.158
    6AU     LIG 2454  30.350   4.547   8.578
    6AU     LIG 2455  30.176   4.883   8.861
    6AU     LIG 2456  29.825   5.158   9.020
    6AU     LIG 2457  29.456   5.207   9.306
    6AU       S 2458  30.528   5.022   7.416
    6AU     LIG 2459  30.044   4.878   7.348
    6AU     LIG 2460  29.570   4.930   7.422
    6AU     LIG 2461  29.234   5.270   7.505
    6AU     LIG 2462  28.788   5.450   7.517
    6AU    AUSL 2463  30.502   4.258   7.306
    6AU    AUSL 2464  30.642   4.698   7.101
    6AU     AUL 2465  30.342   4.549   7.138
    6AU       S 2466  30.158   4.098   6.978
    6AU     LIG 2467  29.829   4.449   7.055
    6AU     LIG 2468  29.415   4.656   6.985
    6AU     LIG 2469  28.988   4.489   6.872
    6AU     LIG 2470  28.657   4.669   6.603
    6AU       S 2471  30.427   4.957   6.897
    6AU     LIG 2472  30.369   5.055   6.467
    6AU     LIG 2473  30.078   5.334   6.234
    6AU     LIG 2474  29.731   5.621   6.109
    6AU     LIG 2475  29.657   6.081   6.160
    6AU    AUSL 2476  30.295   4.294   7.692
    6AU    AUSL 2477  30.264   3.927   7.399
    6AU     AUL 2478  30.107   4.263   7.420
    6AU       S 2479  30.045   3.855   7.662
    6AU     LIG 2480  29.765   3.852   7.232
    6AU     LIG 2481  29.272   3.688   7.183
    6AU     LIG 2482  28.784   3.499   7.230
    6AU     LIG 2483  28.305   3.466   7.127
    6AU       S 2484  30.146   4.324   7.920
    6AU     LIG 2485  29.792   4.577   7.741
    6AU     LIG 2486  29.356   4.765   7.894
    6AU     LIG 2487  28.949   4.905   8.106
    6AU     LIG 2488  28.499   4.907   7.947
    6AU    AUSL 2489  31.908   3.505   7.523
    6AU    AUSL 2490  31.739   3.758   7.877
    6AU     AUL 2491  32.086   3.620   7.891
    6AU       S 2492  32.207   3.409   7.483
    6AU     LIG 2493  32.467   3.101   7.666
    6AU     LIG 2494  32.851   2.884   7.504
    6AU     LIG 2495  33.242   2.664   7.389
    6AU     LIG 2496  33.564   2.318   7.298
    6AU       S 2497  31.906   3.263   8.102
    6AU     LIG 2498  32.207   3.072   8.387
    6AU     LIG 2499  32.474   2.830   8.667
    6AU     LIG 2500  32.729   2.658   9.009
    6AU     LIG 2501  33.015   2.666   9.381
    6AU    AUSL 2502  31.886   3.884   7.327
    6AU    AUSL 2503  31.825   3.473   7.109
    6AU     AUL 2504  32.082   3.669   7.115
    6AU       S 2505  32.442   3.748   7.378
    6AU     LIG 2506  32.771   3.397   7.357
    6AU     LIG 2507  33.223   3.208   7.308
    6AU     LIG 2508  33.700   3.253   7.201
    6AU     LIG 2509  34.071   2.991   7.042
    6AU       S 2510  32.007   3.359   6.762
    6AU     LIG 2511  32.156   2.920   6.644
    6AU     LIG 2512  32.403   2.538   6.460
    6AU     LIG 2513  32.697   2.221   6.232
    6AU     LIG 2514  33.077   1.891   6.233
    6AU    AUSL 2515  30.465   3.564   7.557
    6AU    AUSL 2516  30.577   3.795   7.152
    6AU     AUL 2517  30.224   3.629   7.279
    6AU       S 2518  30.379   3.588   6.848
    6AU     LIG 2519  30.103   3.220   6.660
    6AU     LIG 2520  29.813   2.962   6.406
    6AU     LIG 2521  29.528   2.744   6.103
    6AU     LIG 2522  29.297   2.746   5.684
    6AU       S 2523  30.034   3.625   7.716
    6AU     LIG 2524  29.581   3.578   7.609
    6AU     LIG 2525  29.175   3.343   7.553
    6AU     LIG 2526  28.895   2.970   7.442
    6AU     LIG 2527  28.526   2.632   7.469
    6AU    AUSL 2528  30.527   3.948   7.744
    6AU    AUSL 2529  30.778   3.571   7.846
    6AU     AUL 2530  30.452   3.526   7.895
    6AU       S 2531  30.512   3.366   8.328
    6AU     LIG 2532  30.388   3.045   8.048
    6AU     LIG 2533  30.177   2.673   8.167
    6AU     LIG 2534  29.803   2.513   8.386
    6AU     LIG 2535  29.551   2.333   8.731
    6AU       S 2536  30.132   3.856   7.857
    6AU     LIG 2537  29.683   3.849   8.035
    6AU     LIG 2538  29.216   3.731   7.932
    6AU     LIG 2539  28.783   3.622   7.732
    6AU     LIG 2540  28.322   3.626   7.640
    6AU    AUSL 2541  31.247   4.857   7.986
    6AU    AUSL 2542  30.829   4.806   7.781
    6AU     AUL 2543  31.021   4.921   8.189
    6AU       S 2544  30.684   5.013   7.885
    6AU     LIG 2545  30.404   5.263   8.221
    6AU     LIG 2546  30.169   5.358   8.639
    6AU     LIG 2547  29.892   5.664   8.883
    6AU     LIG 2548  29.602   5.992   9.074
    6AU       S 2549  31.355   5.212   7.963
    6AU     LIG 2550  31.456   5.295   8.342
    6AU     LIG 2551  31.438   5.722   8.527
    6AU     LIG 2552  31.471   6.172   8.660
    6AU     LIG 2553  31.387   6.504   8.983
    6AU    AUSL 2554  31.125   5.039   7.595
    6AU    AUSL 2555  31.386   4.944   7.249
    6AU     AUL 2556  31.418   5.276   7.387
    6AU       S 2557  31.162   5.273   7.782
    6AU     LIG 2558  31.250   5.692   8.027
    6AU     LIG 2559  31.205   6.116   8.226
    6AU     LIG 2560  31.133   6.581   8.302
    6AU     LIG 2561  30.996   7.000   8.097
    6AU       S 2562  31.161   5.262   7.011
    6AU     LIG 2563  31.571   5.489   6.960
    6AU     LIG 2564  31.651   5.962   6.911
    6AU     LIG 2565  31.664   6.421   6.733
    6AU     LIG 2566  31.674   6.917   6.714
    6AU    AUSL 2567  31.494   4.806   7.640
    6AU    AUSL 2568  31.472   4.506   8.009
    6AU     AUL 2569  31.565   4.818   8.085
    6AU       S 2570  31.850   4.689   8.413
    6AU     LIG 2571  32.110   4.709   8.779
    6AU     LIG 2572  32.363   5.031   8.977
    6AU     LIG 2573  32.593   5.383   9.176
    6AU     LIG 2574  32.654   5.584   9.603
    6AU       S 2575  31.607   5.134   7.767
    6AU     LIG 2576  31.744   5.535   7.967
    6AU     LIG 2577  31.697   5.971   8.157
    6AU     LIG 2578  31.630   6.444   8.238
    6AU     LIG 2579  31.522   6.926   8.224
    6AU    AUSL 2580  31.173   3.387   7.927
    6AU    AUSL 2581  31.589   3.370   7.772
    6AU     AUL 2582  31.379   3.230   8.143
    6AU       S 2583  31.135   2.880   7.966
    6AU     LIG 2584  31.036   2.846   8.358
    6AU     LIG 2585  30.957   2.401   8.497
    6AU     LIG 2586  31.050   1.931   8.500
    6AU     LIG 2587  31.122   1.480   8.571
    6AU       S 2588  31.765   3.197   7.862
    6AU     LIG 2589  31.983   2.789   8.008
    6AU     LIG 2590  32.183   2.526   8.354
    6AU     LIG 2591  32.310   2.101   8.538
    6AU     LIG 2592  32.641   1.787   8.626
    6AU    AUSL 2593  30.855   3.210   7.659
    6AU    AUSL 2594  30.957   3.529   8.255
    6AU     AUL 2595  30.846   3.247   8.024
    6AU       S 2596  30.946   2.831   7.831
    6AU     LIG 2597  30.696   2.561   8.077
    6AU     LIG 2598  30.720   2.086   8.135
    6AU     LIG 2599  30.777   1.599   8.157
    6AU     LIG 2600  30.548   1.158   8.057
    6AU       S 2601  30.745   3.406   8.455
    6AU     LIG 2602  30.557   2.925   8.519
    6AU     LIG 2603  30.150   2.762   8.680
    6AU     LIG 2604  29.931   2.544   9.030
    6AU     LIG 2605  29.966   2.402   9.490
    6AU    AUSL 2606  31.286   3.132   7.603
    6AU    AUSL 2607  31.054   3.368   7.315
    6AU     AUL 2608  30.935   3.029   7.415
    6AU       S 2609  31.292   2.925   7.160
    6AU     LIG 2610  30.882   2.678   7.078
    6AU     LIG 2611  30.817   2.239   7.040
    6AU     LIG 2612  30.816   1.784   6.922
    6AU     LIG 2613  30.553   1.433   6.730
    6AU       S 2614  31.295   2.926   7.736
    6AU     LIG 2615  31.272   2.440   7.772
    6AU     LIG 2616  31.238   2.040   8.032
    6AU     LIG 2617  31.453   1.632   8.192
    6AU     LIG 2618  31.768   1.246   8.190
    6AU    AUSL 2619  31.192   4.811   6.881
    6AU    AUSL 2620  31.757   4.755   7.258
    6AU     AUL 2621  31.534   4.950   6.962
    6AU       S 2622  31.150   5.174   6.780
    6AU     LIG 2623  31.363   5.432   6.505
    6AU     LIG 2624  31.461   5.871   6.447
    6AU     LIG 2625  31.414   6.307   6.285
    6AU     LIG 2626  31.400   6.562   5.883
    6AU       S 2627  31.969   4.904   7.123
    6AU     LIG 2628  32.398   4.977   6.851
    6AU     LIG 2629  32.591   5.251   6.497
    6AU     LIG 2630  32.877   5.565   6.234
    6AU     LIG 2631  33.169   5.986   6.249
    6AU    AUSL 2632  31.002   4.767   7.303
    6AU    AUSL 2633  30.973   4.466   6.952
    6AU     AUL 2634  30.871   4.871   6.989
    6AU       S 2635  30.982   5.267   7.181
    6AU     LIG 2636  31.122   5.733   6.914
    6AU     LIG 2637  31.198   6.192   6.758
    6AU     LIG 2638  31.191   6.669   6.640
    6AU     LIG 2639  30.921   7.099   6.641
    6AU       S 2640  30.745   4.691   6.597
    6AU     LIG 2641  30.622   4.717   6.158
    6AU     LIG 2642  30.298   4.973   5.938
    6AU     LIG 2643  30.123   5.355   5.707
    6AU     LIG 2644  30.189   5.690   5.381
    6AU    AUSL 2645  31.237   3.325   6.921
    6AU    AUSL 2646  30.645   3.365   7.229
    6AU     AUL 2647  30.903   3.207   6.978
    6AU       S 2648  30.454   3.327   7.011
    6AU     LIG 2649  30.425   2.910   6.937
    6AU     LIG 2650  30.052   2.683   6.778
    6AU     LIG 2651  29.765   2.445   6.492
    6AU     LIG 2652  29.537   2.028   6.475
    6AU       S 2653  31.292   2.925   6.943
    6AU     LIG 2654  31.225   2.501   6.749
    6AU     LIG 2655  31.021   2.119   6.576
    6AU     LIG 2656  31.022   1.668   6.457
    6AU     LIG 2657  31.223   1.346   6.178
    6AU    AUSL 2658  31.481   3.346   7.302
    6AU    AUSL 2659  31.474   3.665   6.948
    6AU     AUL 2660  31.585   3.284   6.947
    6AU       S 2661  31.520   2.933   7.248
    6AU     LIG 2662  31.336   2.449   7.250
    6AU     LIG 2663  31.288   2.029   7.014
    6AU     LIG 2664  31.313   1.567   6.881
    6AU     LIG 2665  31.547   1.147   6.804
    6AU       S 2666  31.728   3.490   6.567
    6AU     LIG 2667  31.866   3.159   6.286
    6AU     LIG 2668  32.091   2.776   6.128
    6AU     LIG 2669  32.259   2.378   5.938
    6AU     LIG 2670  32.308   2.155   5.516
    7AU     AUC 2671  20.830  34.522   7.511
    7AU     AUC 2672  21.109  34.529   7.331
    7AU     AUC 2673  21.091  34.506   7.681
    7AU     AUC 2674  20.546  34.520   7.346
    7AU     AUC 2675  20.562  34.559   7.695
    7AU     AUC 2676  20.667  34.807   7.508
    7AU     AUC 2677  21.031  34.797   7.500
    7AU     AUC 2678  20.638  34.254   7.521
    7AU     AUC 2679  20.990  34.228   7.507
    7AU     AUC 2680  20.829  34.346   7.788
    7AU     AUC 2681  20.831  34.695   7.780
    7AU     AUC 2682  20.819  34.356   7.235
    7AU     AUC 2683  20.849  34.677   7.235
    7AU     AUC 2684  21.416  34.529   7.157
    7AU     AUC 2685  21.432  34.487   7.519
    7AU     AUC 2686  21.378  34.472   7.876
    7AU     AUC 2687  20.242  34.511   7.182
    7AU     AUC 2688  20.224  34.553   7.543
    7AU     AUC 2689  20.272  34.595   7.877
    7AU     AUC 2690  20.507  35.121   7.482
    7AU     AUC 2691  20.870  35.122   7.474
    7AU     AUC 2692  21.247  35.064   7.491
    7AU     AUC 2693  20.440  33.980   7.530
    7AU     AUC 2694  20.790  33.921   7.502
    7AU     AUC 2695  21.154  33.925   7.489
    7AU     AUC 2696  20.810  34.172   8.075
    7AU     AUC 2697  20.842  34.545   8.121
    7AU     AUC 2698  20.857  34.877   8.069
    7AU     AUC 2699  20.839  34.179   6.956
    7AU     AUC 2700  20.832  34.512   6.899
    7AU     AUC 2701  20.826  34.838   6.936
    7AU     AUC 2702  21.091  34.307   8.012
    7AU     AUC 2703  21.145  34.659   8.012
    7AU     AUC 2704  21.152  34.379   6.999
    7AU     AUC 2705  21.148  34.700   7.031
    7AU     AUC 2706  20.525  34.404   8.025
    7AU     AUC 2707  20.554  34.776   7.990
    7AU     AUC 2708  20.521  34.332   7.055
    7AU     AUC 2709  20.504  34.655   7.009
    7AU     AUC 2710  21.372  34.807   7.336
    7AU     AUC 2711  21.338  34.791   7.687
    7AU     AUC 2712  20.347  34.824   7.332
    7AU     AUC 2713  20.367  34.879   7.684
    7AU     AUC 2714  21.298  34.214   7.329
    7AU     AUC 2715  21.272  34.169   7.686
    7AU     AUC 2716  20.307  34.220   7.378
    7AU     AUC 2717  20.357  34.273   7.733
    7AU     AUC 2718  20.695  35.064   7.775
    7AU     AUC 2719  21.048  34.985   7.767
    7AU     AUC 2720  20.631  34.054   7.816
    7AU     AUC 2721  20.954  33.994   7.787
    7AU     AUC 2722  20.659  34.967   7.202
    7AU     AUC 2723  21.039  35.001   7.203
    7AU     AUC 2724  20.626  34.047   7.220
    7AU     AUC 2725  21.018  34.063   7.210
    7AU    AUSL 2726  21.353  34.374   8.262
    7AU    AUSL 2727  21.103  33.994   8.181
    7AU     AUL 2728  21.308  34.011   8.554
    7AU       S 2729  21.438  33.789   8.184
    7AU     LIG 2730  21.316  33.479   8.506
    7AU     LIG 2731  21.562  33.160   8.731
    7AU     LIG 2732  21.840  32.878   8.989
    7AU     LIG 2733  22.067  32.776   9.391
    7AU       S 2734  21.547  34.295   8.297
    7AU     LIG 2735  21.701  34.316   8.713
    7AU     LIG 2736  21.714  34.258   9.172
    7AU     LIG 2737  21.990  34.255   9.554
    7AU     LIG 2738  22.378  34.363   9.806
    7AU    AUSL 2739  20.937  34.335   8.396
    7AU    AUSL 2740  20.694  34.721   8.404
    7AU     AUL 2741  20.888  34.661   8.751
    7AU       S 2742  20.953  34.276   8.524
    7AU     LIG 2743  21.050  34.223   8.956
    7AU     LIG 2744  21.263  34.027   9.328
    7AU     LIG 2745  21.350  33.794   9.742
    7AU     LIG 2746  21.529  33.630  10.156
    7AU       S 2747  20.486  34.481   8.631
    7AU     LIG 2748  20.528  34.494   9.102
    7AU     LIG 2749  20.306  34.483   9.516
    7AU     LIG 2750  20.245  34.495   9.977
    7AU     LIG 2751  20.093  34.673  10.381
    7AU    AUSL 2752  21.109  34.741   8.360
    7AU    AUSL 2753  21.480  34.758   8.117
    7AU     AUL 2754  21.375  34.652   8.528
    7AU       S 2755  21.010  35.066   8.492
    7AU     LIG 2756  21.256  35.008   8.868
    7AU     LIG 2757  21.468  35.150   9.268
    7AU     LIG 2758  21.412  35.266   9.740
    7AU     LIG 2759  21.256  35.423  10.173
    7AU       S 2760  21.564  35.008   8.297
    7AU     LIG 2761  21.944  34.872   8.423
    7AU     LIG 2762  22.273  35.087   8.709
    7AU     LIG 2763  22.577  35.399   8.913
    7AU     LIG 2764  22.967  35.525   9.144
    7AU    AUSL 2765  21.361  34.664   6.746
    7AU    AUSL 2766  21.158  34.983   6.961
    7AU     AUL 2767  21.196  35.065   6.603
    7AU       S 2768  21.338  34.707   6.351
    7AU     LIG 2769  21.702  34.579   6.128
    7AU     LIG 2770  21.738  34.363   5.736
    7AU     LIG 2771  21.810  34.228   5.302
    7AU     LIG 2772  22.015  34.248   4.883
    7AU       S 2773  21.576  35.194   6.835
    7AU     LIG 2774  21.524  35.537   6.580
    7AU     LIG 2775  21.812  35.681   6.225
    7AU     LIG 2776  22.193  35.889   6.020
    7AU     LIG 2777  22.247  36.136   5.634
    7AU    AUSL 2778  21.128  34.325   6.613
    7AU    AUSL 2779  21.479  34.286   6.921
    7AU     AUL 2780  21.566  34.414   6.636
    7AU       S 2781  21.599  33.952   6.672
    7AU     LIG 2782  21.797  33.643   6.361
    7AU     LIG 2783  22.099  33.276   6.293
    7AU     LIG 2784  22.411  32.999   6.039
    7AU     LIG 2785  22.886  32.905   5.938
    7AU       S 2786  21.248  34.474   6.297
    7AU     LIG 2787  21.374  34.148   6.047
    7AU     LIG 2788  21.365  34.041   5.575
    7AU     LIG 2789  21.368  34.069   5.091
    7AU     LIG 2790  21.577  34.092   4.665
    7AU    AUSL 2791  20.935  34.704   6.714
    7AU    AUSL 2792  20.715  34.314   6.738
    7AU     AUL 2793  20.841  34.344   6.450
    7AU       S 2794  20.393  34.342   6.318
    7AU     LIG 2795  20.461  34.083   5.999
    7AU     LIG 2796  20.211  34.009   5.631
    7AU     LIG 2797  20.118  34.031   5.177
    7AU     LIG 2798  19.928  34.117   4.756
    7AU       S 2799  21.038  34.738   6.308
    7AU     LIG 2800  21.243  34.625   5.834
    7AU     LIG 2801  21.380  34.522   5.382
    7AU     LIG 2802  21.566  34.538   4.946
    7AU     LIG 2803  21.733  34.755   4.557
    7AU    AUSL 2804  20.292  34.673   8.245
    7AU    AUSL 2805  20.599  35.020   8.125
    7AU     AUL 2806  20.465  34.969   8.464
    7AU       S 2807  20.287  34.575   8.666
    7AU     LIG 2808  20.093  34.247   8.896
    7AU     LIG 2809  19.918  34.201   9.316
    7AU     LIG 2810  19.806  34.357   9.733
    7AU     LIG 2811  19.509  34.298  10.090
    7AU       S 2812  20.193  35.269   8.199
    7AU     LIG 2813  20.193  35.404   8.612
    7AU     LIG 2814  19.976  35.690   8.921
    7AU     LIG 2815  19.772  35.865   9.322
    7AU     LIG 2816  19.704  35.917   9.792
    7AU    AUSL 2817  20.587  34.379   8.164
    7AU    AUSL 2818  20.175  34.251   8.154
    7AU     AUL 2819  20.069  34.488   8.270
    7AU       S 2820  20.093  34.038   8.410
    7AU     LIG 2821  19.660  33.926   8.232
    7AU     LIG 2822  19.516  33.476   8.278
    7AU     LIG 2823  19.425  33.115   8.567
    7AU     LIG 2824  19.186  32.992   8.951
    7AU       S 2825  20.462  34.339   8.552
    7AU     LIG 2826  20.575  34.044   8.879
    7AU     LIG 2827  20.405  34.014   9.307
    7AU     LIG 2828  20.201  34.019   9.734
    7AU     LIG 2829  19.983  34.081  10.150
    7AU    AUSL 2830  20.299  34.398   6.793
    7AU    AUSL 2831  20.492  34.032   6.960
    7AU     AUL 2832  20.533  34.027   6.629
    7AU       S 2833  20.193  34.263   6.413
    7AU     LIG 2834  19.933  34.108   6.089
    7AU     LIG 2835  19.756  34.268   5.671
    7AU     LIG 2836  19.701  34.333   5.195
    7AU     LIG 2837  19.458  34.343   4.776
    7AU       S 2838  20.117  33.934   6.800
    7AU     LIG 2839  20.194  33.614   6.529
    7AU     LIG 2840  19.891  33.297   6.339
    7AU     LIG 2841  19.506  33.057   6.176
    7AU     LIG 2842  19.120  33.055   5.909
    7AU    AUSL 2843  20.534  34.708   6.595
    7AU    AUSL 2844  20.152  34.781   6.932
    7AU     AUL 2845  20.142  34.664   6.625
    7AU       S 2846  19.878  35.023   6.744
    7AU     LIG 2847  19.567  34.870   6.516
    7AU     LIG 2848  19.448  35.034   6.112
    7AU     LIG 2849  19.251  35.224   5.746
    7AU     LIG 2850  19.035  35.579   5.536
    7AU       S 2851  20.461  34.588   6.289
    7AU     LIG 2852  20.184  34.519   5.895
    7AU     LIG 2853  20.151  34.492   5.426
    7AU     LIG 2854  20.109  34.568   4.960
    7AU     LIG 2855  20.133  34.883   4.587
    7AU    AUSL 2856  21.663  34.987   7.497
    7AU    AUSL 2857  21.525  34.784   7.115
    7AU     AUL 2858  21.886  34.968   7.146
    7AU       S 2859  21.630  35.043   6.786
    7AU     LIG 2860  21.900  35.197   6.425
    7AU     LIG 2861  22.243  35.387   6.138
    7AU     LIG 2862  22.586  35.561   5.842
    7AU     LIG 2863  23.057  35.714   5.853
    7AU       S 2864  21.986  35.110   7.577
    7AU     LIG 2865  22.319  35.249   7.294
    7AU     LIG 2866  22.784  35.274   7.220
    7AU     LIG 2867  23.247  35.363   7.261
    7AU     LIG 2868  23.474  35.737   7.452
    7AU    AUSL 2869  21.803  34.589   7.386
    7AU    AUSL 2870  21.722  34.280   7.714
    7AU     AUL 2871  21.974  34.465   7.795
    7AU       S 2872  22.133  34.710   7.434
    7AU     LIG 2873  22.550  34.786   7.233
    7AU     LIG 2874  23.025  34.812   7.172
    7AU     LIG 2875  23.410  34.978   6.950
    7AU     LIG 2876  23.740  35.303   7.041
    7AU       S 2877  21.975  34.073   7.525
    7AU     LIG 2878  22.242  33.949   7.830
    7AU     LIG 2879  22.645  33.704   7.773
    7AU     LIG 2880  23.108  33.619   7.673
    7AU     LIG 2881  23.526  33.777   7.502
    7AU    AUSL 2882  21.520  34.647   7.717
    7AU    AUSL 2883  21.456  35.112   7.843
    7AU     AUL 2884  21.740  34.863   7.889
    7AU       S 2885  21.666  35.263   8.129
    7AU     LIG 2886  22.000  35.404   8.406
    7AU     LIG 2887  22.327  35.702   8.587
    7AU     LIG 2888  22.451  36.128   8.744
    7AU     LIG 2889  22.612  36.475   9.009
    7AU       S 2890  22.111  34.879   7.616
    7AU     LIG 2891  22.540  34.991   7.700
    7AU     LIG 2892  22.994  35.071   7.640
    7AU     LIG 2893  23.371  35.302   7.766
    7AU     LIG 2894  23.799  35.204   7.858
    7AU    AUSL 2895  20.177  35.101   7.513
    7AU    AUSL 2896  20.250  34.903   7.899
    7AU     AUL 2897  19.934  35.200   7.751
    7AU       S 2898  20.102  35.078   8.156
    7AU     LIG 2899  19.943  34.937   8.526
    7AU     LIG 2900  19.772  35.202   8.860
    7AU     LIG 2901  19.494  35.525   9.043
    7AU     LIG 2902  19.220  35.714   9.367
    7AU       S 2903  20.142  35.477   7.435
    7AU     LIG 2904  19.641  35.361   7.375
    7AU     LIG 2905  19.155  35.348   7.461
    7AU     LIG 2906  18.697  35.495   7.570
    7AU     LIG 2907  18.429  35.852   7.807
    7AU    AUSL 2908  20.122  34.706   7.338
    7AU    AUSL 2909  20.263  35.164   7.103
    7AU     AUL 2910  19.957  35.023   7.205
    7AU       S 2911  19.775  34.531   6.993
    7AU     LIG 2912  19.485  34.916   7.039
    7AU     LIG 2913  19.050  35.132   7.011
    7AU     LIG 2914  18.575  35.200   7.073
    7AU     LIG 2915  18.106  35.212   7.109
    7AU       S 2916  20.097  35.414   6.936
    7AU     LIG 2917  19.797  35.538   6.602
    7AU     LIG 2918  19.716  35.910   6.323
    7AU     LIG 2919  19.551  36.356   6.300
    7AU     LIG 2920  19.322  36.721   6.122
    7AU    AUSL 2921  19.912  34.748   7.717
    7AU    AUSL 2922  19.877  34.379   7.426
    7AU     AUL 2923  19.722  34.701   7.436
    7AU       S 2924  19.669  34.302   7.701
    7AU     LIG 2925  19.394  34.307   7.334
    7AU     LIG 2926  19.003  34.140   7.230
    7AU     LIG 2927  18.587  33.965   7.156
    7AU     LIG 2928  18.209  33.717   7.089
    7AU       S 2929  19.772  34.775   7.944
    7AU     LIG 2930  19.417  34.979   7.728
    7AU     LIG 2931  18.988  35.122   7.886
    7AU     LIG 2932  18.550  35.246   7.996
    7AU     LIG 2933  18.124  35.441   7.948
    7AU    AUSL 2934  21.512  33.937   7.535
    7AU    AUSL 2935  21.348  34.194   7.883
    7AU     AUL 2936  21.695  34.056   7.899
    7AU       S 2937  21.810  33.826   7.498
    7AU     LIG 2938  22.099  33.497   7.630
    7AU     LIG 2939  22.509  33.285   7.506
    7AU     LIG 2940  22.972  33.141   7.488
    7AU     LIG 2941  23.268  32.773   7.624
    7AU       S 2942  21.517  33.696   8.107
    7AU     LIG 2943  21.825  33.512   8.414
    7AU     LIG 2944  22.077  33.270   8.734
    7AU     LIG 2945  22.341  33.057   9.055
    7AU     LIG 2946  22.632  33.126   9.415
    7AU    AUSL 2947  21.497  34.315   7.336
    7AU    AUSL 2948  21.424  33.899   7.122
    7AU     AUL 2949  21.691  34.097   7.136
    7AU       S 2950  22.056  34.175   7.389
    7AU     LIG 2951  22.371  33.816   7.332
    7AU     LIG 2952  22.798  33.630   7.262
    7AU     LIG 2953  23.232  33.479   7.177
    7AU     LIG 2954  23.691  33.407   7.112
    7AU       S 2955  21.621  33.748   6.829
    7AU     LIG 2956  21.753  33.309   6.758
    7AU     LIG 2957  21.913  32.894   6.589
    7AU     LIG 2958  22.149  32.629   6.292
    7AU     LIG 2959  22.502  32.361   6.146
    7AU    AUSL 2960  20.076  34.016   7.580
    7AU    AUSL 2961  20.182  34.251   7.169
    7AU     AUL 2962  19.836  34.083   7.295
    7AU       S 2963  19.979  34.068   6.856
    7AU     LIG 2964  19.715  33.824   6.531
    7AU     LIG 2965  19.414  33.452   6.498
    7AU     LIG 2966  19.011  33.205   6.384
    7AU     LIG 2967  18.618  33.088   6.108
    7AU       S 2968  19.660  34.058   7.729
    7AU     LIG 2969  19.287  33.857   7.562
    7AU     LIG 2970  18.843  33.694   7.497
    7AU     LIG 2971  18.389  33.662   7.624
    7AU     LIG 2972  18.246  33.247   7.806
    7AU    AUSL 2973  20.144  34.401   7.767
    7AU    AUSL 2974  20.393  34.026   7.864
    7AU     AUL 2975  20.068  33.983   7.924
    7AU       S 2976  20.120  33.815   8.354
    7AU     LIG 2977  19.994  33.452   8.072
    7AU     LIG 2978  19.778  33.004   8.137
    7AU     LIG 2979  19.629  32.660   8.449
    7AU     LIG 2980  19.337  32.527   8.790
    7AU       S 2981  19.739  34.306   7.886
    7AU     LIG 2982  19.260  34.171   7.977
    7AU     LIG 2983  18.864  34.121   7.781
    7AU     LIG 2984  18.430  34.145   7.879
    7AU     LIG 2985  17.989  33.978   7.898
    7AU    AUSL 2986  20.873  35.310   7.985
    7AU    AUSL 2987  20.450  35.267   7.800
    7AU     AUL 2988  20.648  35.366   8.200
    7AU       S 2989  20.305  35.470   7.900
    7AU     LIG 2990  20.036  35.739   8.229
    7AU     LIG 2991  19.837  36.060   8.552
    7AU     LIG 2992  19.673  36.523   8.675
    7AU     LIG 2993  19.369  36.913   8.733
    7AU       S 2994  20.965  35.658   7.952
    7AU     LIG 2995  21.044  35.711   8.341
    7AU     LIG 2996  21.115  36.138   8.492
    7AU     LIG 2997  21.099  36.566   8.671
    7AU     LIG 2998  21.000  36.845   9.040
    7AU    AUSL 2999  20.745  35.473   7.586
    7AU    AUSL 3000  21.015  35.379   7.242
    7AU     AUL 3001  20.997  35.730   7.369
    7AU       S 3002  20.770  35.719   7.779
    7AU     LIG 3003  20.880  36.139   8.019
    7AU     LIG 3004  20.819  36.548   8.231
    7AU     LIG 3005  20.471  36.889   8.274
    7AU     LIG 3006  20.101  37.189   8.173
    7AU       S 3007  20.712  35.634   7.030
    7AU     LIG 3008  21.151  35.905   6.937
    7AU     LIG 3009  21.333  36.346   6.851
    7AU     LIG 3010  21.652  36.729   6.795
    7AU     LIG 3011  21.752  37.195   6.915
    7AU    AUSL 3012  21.119  35.249   7.637
    7AU    AUSL 3013  21.096  34.958   8.014
    7AU     AUL 3014  21.200  35.278   8.073
    7AU       S 3015  21.475  35.139   8.408
    7AU     LIG 3016  21.732  35.178   8.782
    7AU     LIG 3017  22.032  35.472   8.950
    7AU     LIG 3018  22.305  35.794   9.120
    7AU     LIG 3019  22.344  36.193   9.354
    7AU       S 3020  21.215  35.580   7.736
    7AU     LIG 3021  21.363  35.963   8.008
    7AU     LIG 3022  21.363  36.437   8.144
    7AU     LIG 3023  21.638  36.861   8.170
    7AU     LIG 3024  21.801  37.304   8.299
    7AU    AUSL 3025  20.779  33.829   7.947
    7AU    AUSL 3026  21.192  33.805   7.785
    7AU     AUL 3027  20.989  33.673   8.158
    7AU       S 3028  20.727  33.327   7.999
    7AU     LIG 3029  20.581  32.980   8.259
    7AU     LIG 3030  20.292  32.629   8.320
    7AU     LIG 3031  20.407  32.228   8.542
    7AU     LIG 3032  20.105  31.950   8.781
    7AU       S 3033  21.371  33.626   7.875
    7AU     LIG 3034  21.561  33.209   8.085
    7AU     LIG 3035  21.875  32.964   8.370
    7AU     LIG 3036  22.207  32.751   8.651
    7AU     LIG 3037  22.525  32.395   8.731
    7AU    AUSL 3038  20.453  33.661   7.678
    7AU    AUSL 3039  20.568  33.982   8.273
    7AU     AUL 3040  20.448  33.702   8.044
    7AU       S 3041  20.531  33.288   7.851
    7AU     LIG 3042  20.238  32.960   7.885
    7AU     LIG 3043  20.250  32.520   7.805
    7AU     LIG 3044  20.324  32.146   8.033
    7AU     LIG 3045  20.261  31.775   8.300
    7AU       S 3046  20.364  33.875   8.473
    7AU     LIG 3047  20.318  33.378   8.460
    7AU     LIG 3048  19.973  33.061   8.599
    7AU     LIG 3049  19.710  32.853   8.933
    7AU     LIG 3050  19.461  32.703   9.293
    7AU    AUSL 3051  20.881  33.575   7.618
    7AU    AUSL 3052  20.649  33.815   7.329
    7AU     AUL 3053  20.526  33.477   7.429
    7AU       S 3054  20.879  33.372   7.169
    7AU     LIG 3055  20.451  33.109   7.103
    7AU     LIG 3056  20.148  32.744   6.971
    7AU     LIG 3057  20.141  32.297   6.806
    7AU     LIG 3058  20.307  31.860   6.754
    7AU       S 3059  20.882  33.365   7.753
    7AU     LIG 3060  20.806  32.879   7.784
    7AU     LIG 3061  20.709  32.510   8.044
    7AU     LIG 3062  20.801  32.093   8.223
    7AU     LIG 3063  21.052  31.701   8.193
    7AU    AUSL 3064  20.821  35.215   6.878
    7AU    AUSL 3065  21.385  35.187   7.260
    7AU     AUL 3066  21.158  35.381   6.953
    7AU       S 3067  20.756  35.598   6.813
    7AU     LIG 3068  21.008  35.770   6.483
    7AU     LIG 3069  21.087  36.231   6.403
    7AU     LIG 3070  21.083  36.580   6.072
    7AU     LIG 3071  21.050  36.739   5.612
    7AU       S 3072  21.591  35.323   7.108
    7AU     LIG 3073  22.000  35.454   6.872
    7AU     LIG 3074  22.223  35.731   6.534
    7AU     LIG 3075  22.406  36.163   6.396
    7AU     LIG 3076  22.491  36.490   6.067
    7AU    AUSL 3077  20.631  35.202   7.287
    7AU    AUSL 3078  20.571  34.888   6.967
    7AU     AUL 3079  20.511  35.207   6.853
    7AU       S 3080  20.554  35.572   7.160
    7AU     LIG 3081  20.693  36.103   7.079
    7AU     LIG 3082  20.781  36.496   6.814
    7AU     LIG 3083  20.533  36.923   6.761
    7AU     LIG 3084  20.234  37.304   6.679
    7AU       S 3085  20.125  35.145   6.632
    7AU     LIG 3086  20.234  35.475   6.336
    7AU     LIG 3087  20.040  35.706   5.955
    7AU     LIG 3088  19.918  35.793   5.489
    7AU     LIG 3089  19.704  35.923   5.076
    7AU    AUSL 3090  20.827  33.773   6.934
    7AU    AUSL 3091  20.240  33.819   7.243
    7AU     AUL 3092  20.488  33.659   6.992
    7AU       S 3093  20.032  33.780   6.997
    7AU     LIG 3094  19.827  33.400   6.841
    7AU     LIG 3095  19.616  32.991   6.683
    7AU     LIG 3096  19.227  32.752   6.517
    7AU     LIG 3097  18.743  32.725   6.458
    7AU       S 3098  20.873  33.371   6.963
    7AU     LIG 3099  20.793  32.956   6.761
    7AU     LIG 3100  20.480  32.637   6.581
    7AU     LIG 3101  20.373  32.211   6.367
    7AU     LIG 3102  20.489  31.766   6.270
    7AU    AUSL 3103  21.074  33.785   7.313
    7AU    AUSL 3104  21.079  34.104   6.962
    7AU     AUL 3105  21.168  33.730   6.940
    7AU       S 3106  21.116  33.389   7.256
    7AU     LIG 3107  20.916  32.911   7.284
    7AU     LIG 3108  20.624  32.592   7.103
    7AU     LIG 3109  20.658  32.228   6.827
    7AU     LIG 3110  20.838  31.852   6.634
    7AU       S 3111  21.377  33.934   6.590
    7AU     LIG 3112  21.322  33.484   6.511
    7AU     LIG 3113  21.581  33.156   6.288
    7AU     LIG 3114  21.868  32.948   5.974
    7AU     LIG 3115  22.030  33.018   5.540
    8AU     AUC 3116  33.301  27.839   7.500
    8AU     AUC 3117  33.578  27.851   7.325
    8AU     AUC 3118  33.561  27.825   7.676
    8AU     AUC 3119  33.017  27.836   7.331
    8AU     AUC 3120  33.034  27.875   7.679
    8AU     AUC 3121  33.139  28.125   7.495
    8AU     AUC 3122  33.501  28.117   7.494
    8AU     AUC 3123  33.112  27.568   7.507
    8AU     AUC 3124  33.464  27.546   7.499
    8AU     AUC 3125  33.298  27.663   7.777
    8AU     AUC 3126  33.298  28.013   7.771
    8AU     AUC 3127  33.295  27.672   7.225
    8AU     AUC 3128  33.318  27.994   7.225
    8AU     AUC 3129  33.887  27.854   7.156
    8AU     AUC 3130  33.903  27.811   7.518
    8AU     AUC 3131  33.847  27.794   7.878
    8AU     AUC 3132  32.718  27.823   7.159
    8AU     AUC 3133  32.696  27.872   7.520
    8AU     AUC 3134  32.742  27.910   7.858
    8AU     AUC 3135  32.980  28.434   7.473
    8AU     AUC 3136  33.341  28.441   7.472
    8AU     AUC 3137  33.718  28.383   7.489
    8AU     AUC 3138  32.916  27.294   7.514
    8AU     AUC 3139  33.270  27.236   7.489
    8AU     AUC 3140  33.634  27.246   7.483
    8AU     AUC 3141  33.274  27.490   8.064
    8AU     AUC 3142  33.306  27.863   8.112
    8AU     AUC 3143  33.319  28.197   8.063
    8AU     AUC 3144  33.321  27.495   6.948
    8AU     AUC 3145  33.307  27.830   6.891
    8AU     AUC 3146  33.295  28.164   6.924
    8AU     AUC 3147  33.557  27.628   8.007
    8AU     AUC 3148  33.612  27.977   8.009
    8AU     AUC 3149  33.629  27.702   6.994
    8AU     AUC 3150  33.617  28.023   7.025
    8AU     AUC 3151  32.990  27.717   8.008
    8AU     AUC 3152  33.022  28.095   7.979
    8AU     AUC 3153  32.998  27.644   7.041
    8AU     AUC 3154  32.982  27.969   6.994
    8AU     AUC 3155  33.841  28.130   7.330
    8AU     AUC 3156  33.809  28.109   7.683
    8AU     AUC 3157  32.823  28.139   7.308
    8AU     AUC 3158  32.838  28.194   7.663
    8AU     AUC 3159  33.774  27.538   7.330
    8AU     AUC 3160  33.744  27.492   7.688
    8AU     AUC 3161  32.781  27.536   7.362
    8AU     AUC 3162  32.827  27.589   7.714
    8AU     AUC 3163  33.167  28.382   7.769
    8AU     AUC 3164  33.517  28.301   7.761
    8AU     AUC 3165  33.101  27.368   7.802
    8AU     AUC 3166  33.426  27.316   7.778
    8AU     AUC 3167  33.133  28.284   7.191
    8AU     AUC 3168  33.504  28.325   7.199
    8AU     AUC 3169  33.106  27.362   7.209
    8AU     AUC 3170  33.500  27.381   7.202
    8AU    AUSL 3171  33.813  27.690   8.268
    8AU    AUSL 3172  33.561  27.319   8.169
    8AU     AUL 3173  33.736  27.292   8.527
    8AU       S 3174  33.919  27.085   8.166
    8AU     LIG 3175  33.784  26.777   8.459
    8AU     LIG 3176  33.947  26.440   8.694
    8AU     LIG 3177  34.223  26.267   9.036
    8AU     LIG 3178  34.522  25.960   9.217
    8AU       S 3179  33.988  27.607   8.326
    8AU     LIG 3180  34.023  27.605   8.811
    8AU     LIG 3181  34.270  27.560   9.230
    8AU     LIG 3182  34.513  27.454   9.630
    8AU     LIG 3183  34.873  27.388   9.930
    8AU    AUSL 3184  33.394  27.655   8.390
    8AU    AUSL 3185  33.155  28.040   8.386
    8AU     AUL 3186  33.332  27.986   8.739
    8AU       S 3187  33.415  27.601   8.520
    8AU     LIG 3188  33.496  27.546   8.927
    8AU     LIG 3189  33.769  27.446   9.268
    8AU     LIG 3190  33.994  27.422   9.675
    8AU     LIG 3191  34.219  27.303  10.071
    8AU       S 3192  32.940  27.787   8.616
    8AU     LIG 3193  32.987  27.801   9.083
    8AU     LIG 3194  32.730  27.781   9.469
    8AU     LIG 3195  32.525  27.814   9.884
    8AU     LIG 3196  32.436  28.052  10.274
    8AU    AUSL 3197  33.572  28.060   8.359
    8AU    AUSL 3198  33.948  28.070   8.116
    8AU     AUL 3199  33.833  27.981   8.531
    8AU       S 3200  33.476  28.382   8.488
    8AU     LIG 3201  33.709  28.326   8.879
    8AU     LIG 3202  33.861  28.404   9.328
    8AU     LIG 3203  33.823  28.438   9.819
    8AU     LIG 3204  33.761  28.553  10.284
    8AU       S 3205  34.042  28.319   8.293
    8AU     LIG 3206  34.453  28.239   8.362
    8AU     LIG 3207  34.741  28.467   8.670
    8AU     LIG 3208  34.977  28.767   8.962
    8AU     LIG 3209  35.172  29.109   9.218
    8AU    AUSL 3210  33.832  27.995   6.744
    8AU    AUSL 3211  33.609  28.306   6.961
    8AU     AUL 3212  33.658  28.393   6.605
    8AU       S 3213  33.802  28.041   6.348
    8AU     LIG 3214  34.196  27.942   6.153
    8AU     LIG 3215  34.349  27.630   5.848
    8AU     LIG 3216  34.410  27.455   5.419
    8AU     LIG 3217  34.745  27.276   5.121
    8AU       S 3218  34.046  28.536   6.823
    8AU     LIG 3219  34.186  28.750   6.450
    8AU     LIG 3220  34.405  28.955   6.077
    8AU     LIG 3221  34.643  29.225   5.760
    8AU     LIG 3222  34.676  29.527   5.404
    8AU    AUSL 3223  33.613  27.647   6.611
    8AU    AUSL 3224  33.964  27.621   6.925
    8AU     AUL 3225  34.039  27.750   6.628
    8AU       S 3226  34.102  27.293   6.684
    8AU     LIG 3227  34.272  27.033   6.327
    8AU     LIG 3228  34.533  26.623   6.257
    8AU     LIG 3229  34.790  26.334   5.984
    8AU     LIG 3230  35.174  26.321   5.693
    8AU       S 3231  33.723  27.825   6.287
    8AU     LIG 3232  33.942  27.474   6.144
    8AU     LIG 3233  33.992  27.283   5.714
    8AU     LIG 3234  33.936  27.313   5.245
    8AU     LIG 3235  33.910  27.354   4.771
    8AU    AUSL 3236  33.408  28.020   6.701
    8AU    AUSL 3237  33.198  27.623   6.731
    8AU     AUL 3238  33.343  27.637   6.451
    8AU       S 3239  32.915  27.666   6.287
    8AU     LIG 3240  32.965  27.538   5.874
    8AU     LIG 3241  32.700  27.312   5.581
    8AU     LIG 3242  32.491  27.372   5.181
    8AU     LIG 3243  32.281  27.387   4.767
    8AU       S 3244  33.480  28.063   6.324
    8AU     LIG 3245  33.671  28.013   5.844
    8AU     LIG 3246  33.952  27.778   5.528
    8AU     LIG 3247  34.035  27.784   5.056
    8AU     LIG 3248  33.907  27.874   4.598
    8AU    AUSL 3249  32.752  27.989   8.230
    8AU    AUSL 3250  33.050  28.355   8.129
    8AU     AUL 3251  32.923  28.281   8.463
    8AU       S 3252  32.739  27.884   8.648
    8AU     LIG 3253  32.546  27.566   8.898
    8AU     LIG 3254  32.308  27.528   9.306
    8AU     LIG 3255  32.092  27.569   9.728
    8AU     LIG 3256  31.835  27.452  10.114
    8AU       S 3257  32.672  28.578   8.179
    8AU     LIG 3258  32.786  28.788   8.553
    8AU     LIG 3259  32.621  28.901   8.960
    8AU     LIG 3260  32.287  29.120   9.199
    8AU     LIG 3261  31.980  29.287   9.512
    8AU    AUSL 3262  33.050  27.696   8.149
    8AU    AUSL 3263  32.639  27.566   8.130
    8AU     AUL 3264  32.532  27.799   8.246
    8AU       S 3265  32.557  27.349   8.392
    8AU     LIG 3266  32.120  27.266   8.228
    8AU     LIG 3267  31.849  26.909   8.398
    8AU     LIG 3268  31.711  26.564   8.698
    8AU     LIG 3269  31.447  26.235   8.916
    8AU       S 3270  32.921  27.654   8.534
    8AU     LIG 3271  33.019  27.349   8.867
    8AU     LIG 3272  32.796  27.304   9.281
    8AU     LIG 3273  32.565  27.325   9.705
    8AU     LIG 3274  32.356  27.372  10.133
    8AU    AUSL 3275  32.774  27.688   6.770
    8AU    AUSL 3276  32.974  27.341   6.953
    8AU     AUL 3277  33.009  27.337   6.619
    8AU       S 3278  32.738  27.593   6.343
    8AU     LIG 3279  32.458  27.563   5.983
    8AU     LIG 3280  32.211  27.533   5.588
    8AU     LIG 3281  31.980  27.494   5.182
    8AU     LIG 3282  31.751  27.430   4.780
    8AU       S 3283  32.597  27.228   6.791
    8AU     LIG 3284  32.678  26.906   6.543
    8AU     LIG 3285  32.371  26.587   6.391
    8AU     LIG 3286  32.069  26.370   6.096
    8AU     LIG 3287  31.955  26.256   5.650
    8AU    AUSL 3288  33.003  28.007   6.600
    8AU    AUSL 3289  32.655  28.085   6.898
    8AU     AUL 3290  32.562  27.905   6.623
    8AU       S 3291  32.660  28.346   6.645
    8AU     LIG 3292  32.252  28.402   6.588
    8AU     LIG 3293  32.058  28.646   6.224
    8AU     LIG 3294  31.890  28.885   5.849
    8AU     LIG 3295  31.568  28.998   5.526
    8AU       S 3296  32.967  27.943   6.365
    8AU     LIG 3297  32.727  28.005   5.964
    8AU     LIG 3298  32.643  27.821   5.521
    8AU     LIG 3299  32.591  27.861   5.034
    8AU     LIG 3300  32.682  28.091   4.606
    8AU    AUSL 3301  34.136  28.311   7.494
    8AU    AUSL 3302  33.992  28.109   7.114
    8AU     AUL 3303  34.362  28.291   7.146
    8AU       S 3304  34.069  28.383   6.825
    8AU     LIG 3305  34.429  28.302   6.585
    8AU     LIG 3306  34.610  28.482   6.201
    8AU     LIG 3307  34.877  28.785   5.967
    8AU     LIG 3308  35.137  29.052   5.698
    8AU       S 3309  34.497  28.411   7.575
    8AU     LIG 3310  34.979  28.501   7.608
    8AU     LIG 3311  35.409  28.497   7.433
    8AU     LIG 3312  35.800  28.762   7.410
    8AU     LIG 3313  36.013  29.015   7.734
    8AU    AUSL 3314  34.273  27.911   7.380
    8AU    AUSL 3315  34.196  27.609   7.718
    8AU     AUL 3316  34.450  27.790   7.790
    8AU       S 3317  34.613  28.012   7.416
    8AU     LIG 3318  34.917  28.249   7.170
    8AU     LIG 3319  35.374  28.149   7.052
    8AU     LIG 3320  35.823  28.169   6.957
    8AU     LIG 3321  36.161  28.478   7.115
    8AU       S 3322  34.468  27.362   7.568
    8AU     LIG 3323  34.803  27.163   7.798
    8AU     LIG 3324  35.278  27.073   7.772
    8AU     LIG 3325  35.755  27.062   7.832
    8AU     LIG 3326  36.242  27.181   7.973
    8AU    AUSL 3327  33.988  27.972   7.711
    8AU    AUSL 3328  33.928  28.426   7.844
    8AU     AUL 3329  34.214  28.185   7.880
    8AU       S 3330  34.127  28.584   8.116
    8AU     LIG 3331  34.397  28.758   8.415
    8AU     LIG 3332  34.696  29.028   8.626
    8AU     LIG 3333  34.977  29.353   8.799
    8AU     LIG 3334  35.166  29.789   8.749
    8AU       S 3335  34.584  28.192   7.602
    8AU     LIG 3336  34.905  28.078   7.889
    8AU     LIG 3337  35.365  28.230   7.877
    8AU     LIG 3338  35.777  28.504   7.869
    8AU     LIG 3339  36.226  28.549   7.645
    8AU    AUSL 3340  32.638  28.418   7.499
    8AU    AUSL 3341  32.730  28.212   7.878
    8AU     AUL 3342  32.421  28.523   7.742
    8AU       S 3343  32.546  28.396   8.168
    8AU     LIG 3344  32.423  28.434   8.615
    8AU     LIG 3345  32.148  28.695   8.917
    8AU     LIG 3346  31.859  28.833   9.279
    8AU     LIG 3347  31.618  28.927   9.684
    8AU       S 3348  32.644  28.798   7.412
    8AU     LIG 3349  32.182  28.699   7.336
    8AU     LIG 3350  31.744  28.829   7.435
    8AU     LIG 3351  31.350  29.049   7.604
    8AU     LIG 3352  31.020  29.333   7.785
    8AU    AUSL 3353  32.592  28.030   7.306
    8AU    AUSL 3354  32.733  28.465   7.094
    8AU     AUL 3355  32.434  28.323   7.136
    8AU       S 3356  32.237  27.882   6.981
    8AU     LIG 3357  31.929  28.277   7.069
    8AU     LIG 3358  31.480  28.493   7.139
    8AU     LIG 3359  30.991  28.604   7.055
    8AU     LIG 3360  30.510  28.527   6.955
    8AU       S 3361  32.522  28.728   6.884
    8AU     LIG 3362  32.449  28.890   6.457
    8AU     LIG 3363  32.181  29.176   6.175
    8AU     LIG 3364  32.026  29.577   5.953
    8AU     LIG 3365  31.941  30.047   5.913
    8AU    AUSL 3366  32.387  28.070   7.694
    8AU    AUSL 3367  32.349  27.704   7.402
    8AU     AUL 3368  32.201  28.041   7.423
    8AU       S 3369  32.144  27.632   7.677
    8AU     LIG 3370  31.835  27.673   7.353
    8AU     LIG 3371  31.402  27.477   7.302
    8AU     LIG 3372  30.957  27.277   7.311
    8AU     LIG 3373  30.513  27.090   7.297
    8AU       S 3374  32.245  28.100   7.917
    8AU     LIG 3375  31.917  28.379   7.691
    8AU     LIG 3376  31.465  28.574   7.783
    8AU     LIG 3377  31.050  28.792   7.957
    8AU     LIG 3378  30.612  28.722   8.176
    8AU    AUSL 3379  33.993  27.263   7.544
    8AU    AUSL 3380  33.822  27.519   7.885
    8AU     AUL 3381  34.163  27.405   7.926
    8AU       S 3382  34.264  27.159   7.525
    8AU     LIG 3383  34.481  26.794   7.613
    8AU     LIG 3384  34.951  26.686   7.610
    8AU     LIG 3385  35.401  26.493   7.529
    8AU     LIG 3386  35.608  26.031   7.525
    8AU       S 3387  34.023  26.987   8.028
    8AU     LIG 3388  34.281  26.753   8.313
    8AU     LIG 3389  34.463  26.548   8.674
    8AU     LIG 3390  34.730  26.394   9.008
    8AU     LIG 3391  35.040  26.215   9.306
    8AU    AUSL 3392  33.965  27.639   7.341
    8AU    AUSL 3393  33.913  27.229   7.128
    8AU     AUL 3394  34.177  27.432   7.152
    8AU       S 3395  34.536  27.482   7.415
    8AU     LIG 3396  34.757  27.075   7.270
    8AU     LIG 3397  35.224  26.950   7.271
    8AU     LIG 3398  35.703  26.897   7.308
    8AU     LIG 3399  36.101  26.666   7.104
    8AU       S 3400  34.117  27.082   6.836
    8AU     LIG 3401  34.231  26.665   6.686
    8AU     LIG 3402  34.209  26.218   6.550
    8AU     LIG 3403  34.474  25.843   6.387
    8AU     LIG 3404  34.886  25.619   6.241
    8AU    AUSL 3405  32.540  27.337   7.560
    8AU    AUSL 3406  32.657  27.562   7.154
    8AU     AUL 3407  32.298  27.410   7.276
    8AU       S 3408  32.461  27.352   6.850
    8AU     LIG 3409  32.163  26.996   6.659
    8AU     LIG 3410  31.850  26.713   6.413
    8AU     LIG 3411  31.537  26.453   6.140
    8AU     LIG 3412  31.079  26.280   6.087
    8AU       S 3413  32.120  27.392   7.715
    8AU     LIG 3414  31.782  27.176   7.500
    8AU     LIG 3415  31.348  26.966   7.456
    8AU     LIG 3416  30.905  26.762   7.450
    8AU     LIG 3417  30.487  26.713   7.644
    8AU    AUSL 3418  32.615  27.721   7.744
    8AU    AUSL 3419  32.859  27.338   7.843
    8AU     AUL 3420  32.531  27.303   7.900
    8AU       S 3421  32.584  27.126   8.322
    8AU     LIG 3422  32.319  26.762   8.236
    8AU     LIG 3423  31.975  26.408   8.277
    8AU     LIG 3424  31.689  26.077   8.487
    8AU     LIG 3425  31.539  25.731   8.798
    8AU       S 3426  32.202  27.630   7.858
    8AU     LIG 3427  31.669  27.558   7.840
    8AU     LIG 3428  31.211  27.357   7.770
    8AU     LIG 3429  30.747  27.159   7.776
    8AU     LIG 3430  30.355  27.019   8.038
    8AU    AUSL 3431  33.342  28.623   7.981
    8AU    AUSL 3432  32.927  28.579   7.778
    8AU     AUL 3433  33.122  28.692   8.187
    8AU       S 3434  32.783  28.791   7.887
    8AU     LIG 3435  32.465  29.019   8.209
    8AU     LIG 3436  32.281  29.144   8.649
    8AU     LIG 3437  32.081  29.512   8.915
    8AU     LIG 3438  31.938  29.988   8.979
    8AU       S 3439  33.443  28.982   7.963
    8AU     LIG 3440  33.518  29.052   8.347
    8AU     LIG 3441  33.568  29.491   8.497
    8AU     LIG 3442  33.503  29.916   8.694
    8AU     LIG 3443  33.336  30.188   9.050
    8AU    AUSL 3444  33.229  28.800   7.588
    8AU    AUSL 3445  33.483  28.688   7.243
    8AU     AUL 3446  33.547  28.999   7.377
    8AU       S 3447  33.267  29.041   7.762
    8AU     LIG 3448  33.342  29.463   8.017
    8AU     LIG 3449  33.302  29.884   8.218
    8AU     LIG 3450  33.049  30.286   8.281
    8AU     LIG 3451  32.685  30.591   8.166
    8AU       S 3452  33.256  29.015   7.027
    8AU     LIG 3453  33.621  29.325   6.994
    8AU     LIG 3454  33.734  29.788   6.909
    8AU     LIG 3455  34.026  30.179   6.884
    8AU     LIG 3456  34.265  30.593   6.825
    8AU    AUSL 3457  33.597  28.571   7.639
    8AU    AUSL 3458  33.564  28.270   8.008
    8AU     AUL 3459  33.663  28.587   8.073
    8AU       S 3460  33.944  28.454   8.403
    8AU     LIG 3461  34.201  28.448   8.774
    8AU     LIG 3462  34.449  28.757   8.992
    8AU     LIG 3463  34.654  29.135   9.154
    8AU     LIG 3464  34.823  29.340   9.539
    8AU       S 3465  33.689  28.946   7.801
    8AU     LIG 3466  33.836  29.317   8.026
    8AU     LIG 3467  33.807  29.775   8.132
    8AU     LIG 3468  33.981  30.220   8.205
    8AU     LIG 3469  34.125  30.679   8.155
    8AU    AUSL 3470  33.247  27.143   7.934
    8AU    AUSL 3471  33.661  27.137   7.778
    8AU     AUL 3472  33.454  27.007   8.162
    8AU       S 3473  33.226  26.648   7.984
    8AU     LIG 3474  33.437  26.418   8.282
    8AU     LIG 3475  33.308  26.001   8.457
    8AU     LIG 3476  33.153  25.571   8.392
    8AU     LIG 3477  33.240  25.119   8.450
    8AU       S 3478  33.824  26.959   7.878
    8AU     LIG 3479  33.909  26.499   8.043
    8AU     LIG 3480  34.246  26.238   8.318
    8AU     LIG 3481  34.510  26.022   8.673
    8AU     LIG 3482  34.924  25.928   8.891
    8AU    AUSL 3483  32.935  26.973   7.659
    8AU    AUSL 3484  33.029  27.298   8.254
    8AU     AUL 3485  32.916  27.007   8.020
    8AU       S 3486  33.052  26.586   7.841
    8AU     LIG 3487  33.070  26.145   8.008
    8AU     LIG 3488  32.982  25.687   7.921
    8AU     LIG 3489  32.887  25.250   8.041
    8AU     LIG 3490  32.613  24.889   8.164
    8AU       S 3491  32.824  27.191   8.448
    8AU     LIG 3492  32.618  26.809   8.688
    8AU     LIG 3493  32.240  26.515   8.702
    8AU     LIG 3494  31.985  26.164   8.895
    8AU     LIG 3495  31.767  26.096   9.296
    8AU    AUSL 3496  33.367  26.892   7.607
    8AU    AUSL 3497  33.135  27.125   7.313
    8AU     AUL 3498  33.019  26.785   7.421
    8AU       S 3499  33.358  26.683   7.138
    8AU     LIG 3500  33.032  26.360   7.151
    8AU     LIG 3501  32.926  25.915   7.016
    8AU     LIG 3502  32.992  25.446   6.988
    8AU     LIG 3503  32.745  25.045   6.879
    8AU       S 3504  33.390  26.692   7.743
    8AU     LIG 3505  33.526  26.243   7.795
    8AU     LIG 3506  33.480  25.800   7.987
    8AU     LIG 3507  33.418  25.333   8.014
    8AU     LIG 3508  33.675  24.979   8.193
    8AU    AUSL 3509  33.288  28.567   6.874
    8AU    AUSL 3510  33.856  28.507   7.254
    8AU     AUL 3511  33.632  28.706   6.956
    8AU       S 3512  33.250  28.941   6.789
    8AU     LIG 3513  33.574  29.079   6.557
    8AU     LIG 3514  33.562  29.539   6.491
    8AU     LIG 3515  33.506  29.928   6.226
    8AU     LIG 3516  33.517  30.131   5.779
    8AU       S 3517  34.059  28.647   7.128
    8AU     LIG 3518  34.488  28.731   6.913
    8AU     LIG 3519  34.687  28.882   6.518
    8AU     LIG 3520  34.837  29.223   6.238
    8AU     LIG 3521  35.070  29.503   5.938
    8AU    AUSL 3522  33.091  28.533   7.297
    8AU    AUSL 3523  33.063  28.228   6.951
    8AU     AUL 3524  32.966  28.625   6.964
    8AU       S 3525  33.083  29.012   7.181
    8AU     LIG 3526  33.148  29.470   6.887
    8AU     LIG 3527  33.227  29.925   6.707
    8AU     LIG 3528  32.991  30.376   6.657
    8AU     LIG 3529  32.813  30.844   6.651
    8AU       S 3530  32.812  28.447   6.579
    8AU     LIG 3531  32.574  28.485   6.165
    8AU     LIG 3532  32.409  28.826   5.870
    8AU     LIG 3533  32.235  29.222   5.645
    8AU     LIG 3534  32.097  29.608   5.392
    8AU    AUSL 3535  33.317  27.094   6.917
    8AU    AUSL 3536  32.723  27.132   7.239
    8AU     AUL 3537  32.977  26.970   6.984
    8AU       S 3538  32.526  27.089   7.025
    8AU     LIG 3539  32.454  26.666   6.938
    8AU     LIG 3540  32.078  26.426   6.781
    8AU     LIG 3541  31.791  26.175   6.499
    8AU     LIG 3542  31.435  25.944   6.280
    8AU       S 3543  33.357  26.689   6.898
    8AU     LIG 3544  33.319  26.207   6.764
    8AU     LIG 3545  33.233  25.749   6.625
    8AU     LIG 3546  32.961  25.369   6.471
    8AU     LIG 3547  32.876  25.075   6.092
    8AU    AUSL 3548  33.560  27.097   7.300
    8AU    AUSL 3549  33.568  27.424   6.959
    8AU     AUL 3550  33.665  27.043   6.943
    8AU       S 3551  33.531  26.696   7.218
    8AU     LIG 3552  33.544  26.233   7.244
    8AU     LIG 3553  33.421  25.798   7.106
    8AU     LIG 3554  33.524  25.384   6.902
    8AU     LIG 3555  33.690  24.945   6.740
    8AU       S 3556  33.875  27.264   6.607
    8AU     LIG 3557  33.798  26.854   6.475
    8AU     LIG 3558  34.036  26.570   6.201
    8AU     LIG 3559  34.277  26.196   6.033
    8AU     LIG 3560  34.569  25.848   5.877
    9AU     AUC 3561  28.163  15.366   7.508
    9AU     AUC 3562  28.444  15.377   7.332
    9AU     AUC 3563  28.423  15.353   7.683
    9AU     AUC 3564  27.882  15.363   7.337
    9AU     AUC 3565  27.893  15.405   7.685
    9AU     AUC 3566  28.000  15.653   7.500
    9AU     AUC 3567  28.363  15.643   7.499
    9AU     AUC 3568  27.974  15.096   7.515
    9AU     AUC 3569  28.327  15.074   7.508
    9AU     AUC 3570  28.159  15.191   7.785
    9AU     AUC 3571  28.158  15.540   7.776
    9AU     AUC 3572  28.161  15.200   7.233
    9AU     AUC 3573  28.186  15.519   7.233
    9AU     AUC 3574  28.755  15.380   7.164
    9AU     AUC 3575  28.765  15.338   7.527
    9AU     AUC 3576  28.708  15.322   7.885
    9AU     AUC 3577  27.585  15.348   7.165
    9AU     AUC 3578  27.557  15.398   7.525
    9AU     AUC 3579  27.598  15.441   7.861
    9AU     AUC 3580  27.840  15.965   7.471
    9AU     AUC 3581  28.201  15.972   7.474
    9AU     AUC 3582  28.577  15.914   7.496
    9AU     AUC 3583  27.779  14.822   7.522
    9AU     AUC 3584  28.132  14.765   7.500
    9AU     AUC 3585  28.497  14.775   7.495
    9AU     AUC 3586  28.135  15.018   8.072
    9AU     AUC 3587  28.165  15.391   8.118
    9AU     AUC 3588  28.180  15.721   8.067
    9AU     AUC 3589  28.191  15.023   6.956
    9AU     AUC 3590  28.176  15.353   6.894
    9AU     AUC 3591  28.165  15.683   6.930
    9AU     AUC 3592  28.417  15.156   8.015
    9AU     AUC 3593  28.471  15.505   8.015
    9AU     AUC 3594  28.497  15.227   7.001
    9AU     AUC 3595  28.485  15.545   7.032
    9AU     AUC 3596  27.850  15.248   8.014
    9AU     AUC 3597  27.876  15.621   7.979
    9AU     AUC 3598  27.867  15.171   7.046
    9AU     AUC 3599  27.851  15.494   6.999
    9AU     AUC 3600  28.704  15.657   7.339
    9AU     AUC 3601  28.669  15.639   7.689
    9AU     AUC 3602  27.687  15.667   7.311
    9AU     AUC 3603  27.694  15.721   7.667
    9AU     AUC 3604  28.639  15.065   7.337
    9AU     AUC 3605  28.606  15.020   7.694
    9AU     AUC 3606  27.646  15.061   7.367
    9AU     AUC 3607  27.688  15.117   7.720
    9AU     AUC 3608  28.023  15.907   7.769
    9AU     AUC 3609  28.375  15.829   7.768
    9AU     AUC 3610  27.962  14.897   7.810
    9AU     AUC 3611  28.287  14.842   7.788
    9AU     AUC 3612  27.998  15.813   7.198
    9AU     AUC 3613  28.370  15.851   7.207
    9AU     AUC 3614  27.973  14.889   7.218
    9AU     AUC 3615  28.364  14.910   7.213
    9AU    AUSL 3616  28.673  15.222   8.274
    9AU    AUSL 3617  28.424  14.844   8.182
    9AU     AUL 3618  28.611  14.849   8.556
    9AU       S 3619  28.766  14.638   8.189
    9AU     LIG 3620  28.629  14.339   8.522
    9AU     LIG 3621  28.878  14.009   8.725
    9AU     LIG 3622  29.176  13.696   8.926
    9AU     LIG 3623  29.483  13.376   9.113
    9AU       S 3624  28.863  15.140   8.318
    9AU     LIG 3625  28.946  15.145   8.788
    9AU     LIG 3626  29.147  15.067   9.210
    9AU     LIG 3627  29.393  15.018   9.607
    9AU     LIG 3628  29.770  15.059   9.894
    9AU    AUSL 3629  28.254  15.184   8.396
    9AU    AUSL 3630  28.012  15.569   8.397
    9AU     AUL 3631  28.194  15.514   8.748
    9AU       S 3632  28.269  15.130   8.524
    9AU     LIG 3633  28.386  15.095   8.942
    9AU     LIG 3634  28.664  14.898   9.233
    9AU     LIG 3635  28.906  14.802   9.627
    9AU     LIG 3636  28.918  14.564  10.045
    9AU       S 3637  27.798  15.327   8.621
    9AU     LIG 3638  27.837  15.331   9.092
    9AU     LIG 3639  27.596  15.289   9.494
    9AU     LIG 3640  27.462  15.287   9.941
    9AU     LIG 3641  27.269  15.506  10.306
    9AU    AUSL 3642  28.429  15.589   8.365
    9AU    AUSL 3643  28.806  15.603   8.125
    9AU     AUL 3644  28.690  15.502   8.538
    9AU       S 3645  28.331  15.911   8.491
    9AU     LIG 3646  28.569  15.868   8.879
    9AU     LIG 3647  28.689  16.059   9.308
    9AU     LIG 3648  28.692  16.218   9.773
    9AU     LIG 3649  28.878  16.321  10.206
    9AU       S 3650  28.889  15.849   8.304
    9AU     LIG 3651  29.311  15.791   8.372
    9AU     LIG 3652  29.609  16.012   8.671
    9AU     LIG 3653  29.853  16.286   8.971
    9AU     LIG 3654  30.082  16.609   9.223
    9AU    AUSL 3655  28.704  15.517   6.751
    9AU    AUSL 3656  28.476  15.821   6.967
    9AU     AUL 3657  28.525  15.913   6.609
    9AU       S 3658  28.694  15.572   6.351
    9AU     LIG 3659  29.059  15.413   6.136
    9AU     LIG 3660  29.169  15.103   5.823
    9AU     LIG 3661  29.277  14.995   5.381
    9AU     LIG 3662  29.553  15.073   5.012
    9AU       S 3663  28.904  16.064   6.835
    9AU     LIG 3664  29.036  16.279   6.455
    9AU     LIG 3665  29.235  16.470   6.070
    9AU     LIG 3666  29.427  16.670   5.679
    9AU     LIG 3667  29.333  16.947   5.289
    9AU    AUSL 3668  28.487  15.169   6.617
    9AU    AUSL 3669  28.832  15.142   6.932
    9AU     AUL 3670  28.909  15.265   6.632
    9AU       S 3671  28.968  14.809   6.693
    9AU     LIG 3672  29.126  14.522   6.345
    9AU     LIG 3673  29.416  14.150   6.250
    9AU     LIG 3674  29.723  13.806   6.088
    9AU     LIG 3675  30.182  13.650   5.959
    9AU       S 3676  28.588  15.374   6.302
    9AU     LIG 3677  28.737  14.999   6.131
    9AU     LIG 3678  28.783  14.784   5.698
    9AU     LIG 3679  28.846  14.768   5.224
    9AU     LIG 3680  29.086  14.751   4.816
    9AU    AUSL 3681  28.279  15.541   6.700
    9AU    AUSL 3682  28.069  15.149   6.730
    9AU     AUL 3683  28.222  15.153   6.453
    9AU       S 3684  27.790  15.177   6.295
    9AU     LIG 3685  27.783  14.939   5.894
    9AU     LIG 3686  27.604  14.705   5.531
    9AU     LIG 3687  27.438  14.744   5.101
    9AU     LIG 3688  27.440  14.913   4.664
    9AU       S 3689  28.360  15.580   6.320
    9AU     LIG 3690  28.563  15.456   5.833
    9AU     LIG 3691  28.815  15.253   5.470
    9AU     LIG 3692  28.976  15.234   5.015
    9AU     LIG 3693  28.927  15.422   4.572
    9AU    AUSL 3694  27.613  15.520   8.231
    9AU    AUSL 3695  27.917  15.861   8.112
    9AU     AUL 3696  27.781  15.818   8.447
    9AU       S 3697  27.599  15.424   8.653
    9AU     LIG 3698  27.420  15.074   8.886
    9AU     LIG 3699  27.206  15.012   9.293
    9AU     LIG 3700  27.037  15.100   9.719
    9AU     LIG 3701  26.792  15.066  10.121
    9AU       S 3702  27.511  16.132   8.170
    9AU     LIG 3703  27.603  16.304   8.558
    9AU     LIG 3704  27.479  16.587   8.909
    9AU     LIG 3705  27.210  16.878   9.127
    9AU     LIG 3706  27.138  17.177   9.481
    9AU    AUSL 3707  27.909  15.225   8.156
    9AU    AUSL 3708  27.497  15.099   8.135
    9AU     AUL 3709  27.390  15.335   8.253
    9AU       S 3710  27.419  14.885   8.392
    9AU     LIG 3711  26.987  14.808   8.225
    9AU     LIG 3712  26.795  14.403   8.324
    9AU     LIG 3713  26.607  14.079   8.596
    9AU     LIG 3714  26.370  13.874   8.942
    9AU       S 3715  27.778  15.186   8.540
    9AU     LIG 3716  27.916  14.892   8.859
    9AU     LIG 3717  27.702  14.831   9.271
    9AU     LIG 3718  27.480  14.815   9.696
    9AU     LIG 3719  27.258  14.825  10.115
    9AU    AUSL 3720  27.649  15.219   6.778
    9AU    AUSL 3721  27.848  14.872   6.962
    9AU     AUL 3722  27.887  14.859   6.629
    9AU       S 3723  27.606  15.098   6.352
    9AU     LIG 3724  27.296  15.035   6.041
    9AU     LIG 3725  27.160  14.962   5.601
    9AU     LIG 3726  26.998  15.020   5.170
    9AU     LIG 3727  26.597  15.107   4.936
    9AU       S 3728  27.469  14.763   6.791
    9AU     LIG 3729  27.570  14.460   6.534
    9AU     LIG 3730  27.296  14.129   6.389
    9AU     LIG 3731  27.007  13.868   6.138
    9AU     LIG 3732  26.914  13.574   5.789
    9AU    AUSL 3733  27.873  15.539   6.598
    9AU    AUSL 3734  27.519  15.613   6.908
    9AU     AUL 3735  27.459  15.431   6.622
    9AU       S 3736  27.361  15.867   6.684
    9AU     LIG 3737  27.051  16.123   6.614
    9AU     LIG 3738  27.001  16.366   6.240
    9AU     LIG 3739  26.850  16.639   5.901
    9AU     LIG 3740  26.488  16.730   5.618
    9AU       S 3741  27.846  15.448   6.344
    9AU     LIG 3742  27.611  15.438   5.917
    9AU     LIG 3743  27.579  15.232   5.490
    9AU     LIG 3744  27.452  15.271   5.037
    9AU     LIG 3745  27.490  15.420   4.578
    9AU    AUSL 3746  28.995  15.843   7.502
    9AU    AUSL 3747  28.859  15.637   7.122
    9AU     AUL 3748  29.228  15.819   7.151
    9AU       S 3749  28.929  15.913   6.837
    9AU     LIG 3750  29.168  15.774   6.509
    9AU     LIG 3751  29.484  16.053   6.285
    9AU     LIG 3752  29.737  16.376   6.023
    9AU     LIG 3753  29.904  16.459   5.574
    9AU       S 3754  29.342  15.947   7.580
    9AU     LIG 3755  29.780  15.957   7.357
    9AU     LIG 3756  30.231  15.915   7.481
    9AU     LIG 3757  30.582  16.237   7.514
    9AU     LIG 3758  30.663  16.704   7.585
    9AU    AUSL 3759  29.135  15.443   7.395
    9AU    AUSL 3760  29.054  15.137   7.729
    9AU     AUL 3761  29.299  15.321   7.814
    9AU       S 3762  29.458  15.544   7.438
    9AU     LIG 3763  29.889  15.460   7.276
    9AU     LIG 3764  30.279  15.616   7.058
    9AU     LIG 3765  30.755  15.547   6.992
    9AU     LIG 3766  31.217  15.665   7.091
    9AU       S 3767  29.342  14.909   7.564
    9AU     LIG 3768  29.806  14.847   7.666
    9AU     LIG 3769  30.248  14.680   7.648
    9AU     LIG 3770  30.684  14.510   7.721
    9AU     LIG 3771  31.031  14.531   8.035
    9AU    AUSL 3772  28.850  15.503   7.722
    9AU    AUSL 3773  28.782  15.960   7.849
    9AU     AUL 3774  29.067  15.724   7.892
    9AU       S 3775  28.986  16.118   8.140
    9AU     LIG 3776  29.271  16.323   8.436
    9AU     LIG 3777  29.622  16.588   8.625
    9AU     LIG 3778  29.928  16.918   8.815
    9AU     LIG 3779  30.195  17.341   8.768
    9AU       S 3780  29.443  15.723   7.628
    9AU     LIG 3781  29.864  15.611   7.765
    9AU     LIG 3782  30.315  15.627   7.905
    9AU     LIG 3783  30.705  15.871   7.856
    9AU     LIG 3784  31.167  15.771   7.809
    9AU    AUSL 3785  27.503  15.942   7.492
    9AU    AUSL 3786  27.565  15.753   7.888
    9AU     AUL 3787  27.257  16.046   7.726
    9AU       S 3788  27.419  15.923   8.136
    9AU     LIG 3789  27.290  15.836   8.543
    9AU     LIG 3790  27.186  16.151   8.870
    9AU     LIG 3791  26.900  16.457   9.081
    9AU     LIG 3792  26.470  16.526   9.270
    9AU       S 3793  27.468  16.320   7.406
    9AU     LIG 3794  26.981  16.229   7.329
    9AU     LIG 3795  26.526  16.449   7.403
    9AU     LIG 3796  26.119  16.746   7.382
    9AU     LIG 3797  25.989  17.189   7.213
    9AU    AUSL 3798  27.456  15.549   7.312
    9AU    AUSL 3799  27.609  16.001   7.087
    9AU     AUL 3800  27.299  15.862   7.159
    9AU       S 3801  27.116  15.388   6.972
    9AU     LIG 3802  26.829  15.790   7.015
    9AU     LIG 3803  26.448  16.084   7.058
    9AU     LIG 3804  26.037  16.360   7.048
    9AU     LIG 3805  25.607  16.466   6.851
    9AU       S 3806  27.442  16.276   6.907
    9AU     LIG 3807  27.319  16.594   6.596
    9AU     LIG 3808  27.102  16.872   6.301
    9AU     LIG 3809  26.925  17.227   6.060
    9AU     LIG 3810  26.645  17.524   5.799
    9AU    AUSL 3811  27.241  15.591   7.689
    9AU    AUSL 3812  27.212  15.222   7.403
    9AU     AUL 3813  27.059  15.552   7.411
    9AU       S 3814  27.006  15.148   7.678
    9AU     LIG 3815  26.684  15.173   7.367
    9AU     LIG 3816  26.217  15.032   7.332
    9AU     LIG 3817  25.751  14.884   7.364
    9AU     LIG 3818  25.497  14.498   7.264
    9AU       S 3819  27.091  15.624   7.915
    9AU     LIG 3820  26.768  15.876   7.674
    9AU     LIG 3821  26.332  16.078   7.701
    9AU     LIG 3822  25.929  16.319   7.809
    9AU     LIG 3823  25.487  16.354   7.990
    9AU    AUSL 3824  28.857  14.788   7.550
    9AU    AUSL 3825  28.679  15.046   7.893
    9AU     AUL 3826  29.026  14.911   7.914
    9AU       S 3827  29.170  14.678   7.519
    9AU     LIG 3828  29.599  14.500   7.355
    9AU     LIG 3829  30.035  14.263   7.425
    9AU     LIG 3830  30.506  14.115   7.437
    9AU     LIG 3831  30.791  13.930   7.777
    9AU       S 3832  28.845  14.544   8.111
    9AU     LIG 3833  29.137  14.360   8.419
    9AU     LIG 3834  29.406  14.089   8.673
    9AU     LIG 3835  29.693  13.816   8.903
    9AU     LIG 3836  29.955  13.624   9.224
    9AU    AUSL 3837  28.833  15.165   7.349
    9AU    AUSL 3838  28.775  14.753   7.135
    9AU     AUL 3839  29.040  14.948   7.158
    9AU       S 3840  29.394  15.034   7.419
    9AU     LIG 3841  29.744  14.975   7.171
    9AU     LIG 3842  30.077  14.687   7.154
    9AU     LIG 3843  30.528  14.609   7.212
    9AU     LIG 3844  30.859  14.319   7.072
    9AU       S 3845  28.986  14.594   6.844
    9AU     LIG 3846  29.133  14.149   6.711
    9AU     LIG 3847  29.279  13.717   6.496
    9AU     LIG 3848  29.548  13.361   6.299
    9AU     LIG 3849  29.976  13.196   6.138
    9AU    AUSL 3850  27.408  14.860   7.564
    9AU    AUSL 3851  27.525  15.088   7.158
    9AU     AUL 3852  27.167  14.930   7.279
    9AU       S 3853  27.332  14.887   6.851
    9AU     LIG 3854  27.052  14.516   6.660
    9AU     LIG 3855  26.769  14.237   6.411
    9AU     LIG 3856  26.492  14.008   6.103
    9AU     LIG 3857  26.123  14.038   5.795
    9AU       S 3858  26.974  14.902   7.711
    9AU     LIG 3859  26.549  14.704   7.572
    9AU     LIG 3860  26.094  14.510   7.504
    9AU     LIG 3861  25.737  14.178   7.576
    9AU     LIG 3862  25.260  14.079   7.557
    9AU    AUSL 3863  27.475  15.247   7.747
    9AU    AUSL 3864  27.720  14.867   7.854
    9AU     AUL 3865  27.390  14.832   7.905
    9AU       S 3866  27.444  14.674   8.343
    9AU     LIG 3867  27.267  14.357   8.086
    9AU     LIG 3868  26.996  13.962   8.134
    9AU     LIG 3869  26.802  13.630   8.422
    9AU     LIG 3870  26.646  13.327   8.761
    9AU       S 3871  27.061  15.155   7.857
    9AU     LIG 3872  26.539  15.118   7.872
    9AU     LIG 3873  26.068  14.923   7.812
    9AU     LIG 3874  25.655  14.637   7.808
    9AU     LIG 3875  25.211  14.523   7.992
    9AU    AUSL 3876  28.199  16.151   7.990
    9AU    AUSL 3877  27.783  16.101   7.778
    9AU     AUL 3878  27.969  16.203   8.188
    9AU       S 3879  27.652  16.283   7.856
    9AU     LIG 3880  27.689  16.616   8.121
    9AU     LIG 3881  27.401  16.790   8.445
    9AU     LIG 3882  27.221  17.146   8.678
    9AU     LIG 3883  26.935  17.306   9.003
    9AU       S 3884  28.300  16.508   7.966
    9AU     LIG 3885  28.168  16.665   8.325
    9AU     LIG 3886  28.294  17.054   8.504
    9AU     LIG 3887  28.097  17.402   8.664
    9AU     LIG 3888  28.126  17.833   8.813
    9AU    AUSL 3889  28.078  16.329   7.593
    9AU    AUSL 3890  28.349  16.246   7.253
    9AU     AUL 3891  28.323  16.612   7.385
    9AU       S 3892  28.102  16.549   7.786
    9AU     LIG 3893  28.110  16.980   7.914
    9AU     LIG 3894  28.083  17.387   8.103
    9AU     LIG 3895  27.942  17.751   8.327
    9AU     LIG 3896  27.548  17.980   8.367
    9AU       S 3897  28.041  16.500   7.050
    9AU     LIG 3898  28.485  16.733   6.940
    9AU     LIG 3899  28.533  17.160   6.830
    9AU     LIG 3900  28.493  17.593   6.679
    9AU     LIG 3901  28.445  18.050   6.604
    9AU    AUSL 3902  28.443  16.089   7.641
    9AU    AUSL 3903  28.422  15.799   8.014
    9AU     AUL 3904  28.522  16.120   8.078
    9AU       S 3905  28.797  15.984   8.414
    9AU     LIG 3906  29.063  16.003   8.780
    9AU     LIG 3907  29.327  16.329   8.975
    9AU     LIG 3908  29.569  16.695   9.138
    9AU     LIG 3909  29.776  16.940   9.484
    9AU       S 3910  28.546  16.391   7.714
    9AU     LIG 3911  28.596  16.855   7.772
    9AU     LIG 3912  28.563  17.202   8.092
    9AU     LIG 3913  28.468  17.593   8.364
    9AU     LIG 3914  28.360  18.057   8.401
    9AU    AUSL 3915  28.109  14.672   7.943
    9AU    AUSL 3916  28.526  14.659   7.789
    9AU     AUL 3917  28.317  14.523   8.161
    9AU       S 3918  28.063  14.177   7.991
    9AU     LIG 3919  28.083  13.893   8.302
    9AU     LIG 3920  27.961  13.452   8.325
    9AU     LIG 3921  27.882  12.993   8.326
    9AU     LIG 3922  28.076  12.643   8.571
    9AU       S 3923  28.700  14.473   7.882
    9AU     LIG 3924  28.819  14.050   8.138
    9AU     LIG 3925  29.151  13.759   8.369
    9AU     LIG 3926  29.484  13.469   8.584
    9AU     LIG 3927  29.891  13.314   8.794
    9AU    AUSL 3928  27.794  14.503   7.669
    9AU    AUSL 3929  27.893  14.828   8.264
    9AU     AUL 3930  27.769  14.543   8.033
    9AU       S 3931  27.886  14.124   7.849
    9AU     LIG 3932  27.713  13.725   7.960
    9AU     LIG 3933  27.727  13.256   7.884
    9AU     LIG 3934  27.530  12.833   7.952
    9AU     LIG 3935  27.234  12.638   8.262
    9AU       S 3936  27.689  14.719   8.462
    9AU     LIG 3937  27.565  14.232   8.497
    9AU     LIG 3938  27.137  14.040   8.617
    9AU     LIG 3939  26.884  13.771   8.916
    9AU     LIG 3940  26.662  13.653   9.311
    9AU    AUSL 3941  28.226  14.419   7.619
    9AU    AUSL 3942  27.998  14.654   7.325
    9AU     AUL 3943  27.877  14.316   7.428
    9AU       S 3944  28.233  14.214   7.169
    9AU     LIG 3945  27.826  13.959   7.086
    9AU     LIG 3946  27.739  13.504   7.134
    9AU     LIG 3947  27.752  13.035   7.034
    9AU     LIG 3948  27.644  12.670   6.756
    9AU       S 3949  28.231  14.203   7.758
    9AU     LIG 3950  28.212  13.702   7.825
    9AU     LIG 3951  28.241  13.215   7.959
    9AU     LIG 3952  28.290  12.755   8.123
    9AU     LIG 3953  28.608  12.481   8.336
    9AU    AUSL 3954  28.163  16.085   6.886
    9AU    AUSL 3955  28.706  16.030   7.263
    9AU     AUL 3956  28.487  16.229   6.961
    9AU       S 3957  28.086  16.477   6.824
    9AU     LIG 3958  28.146  16.855   6.575
    9AU     LIG 3959  28.328  17.214   6.352
    9AU     LIG 3960  28.324  17.646   6.189
    9AU     LIG 3961  28.322  17.853   5.777
    9AU       S 3962  28.919  16.172   7.129
    9AU     LIG 3963  29.351  16.256   6.871
    9AU     LIG 3964  29.531  16.523   6.503
    9AU     LIG 3965  29.798  16.880   6.295
    9AU     LIG 3966  30.069  17.311   6.308
    9AU    AUSL 3967  27.966  16.057   7.291
    9AU    AUSL 3968  27.931  15.743   6.956
    9AU     AUL 3969  27.859  16.079   6.869
    9AU       S 3970  27.888  16.441   7.172
    9AU     LIG 3971  28.042  16.977   7.083
    9AU     LIG 3972  28.047  17.330   6.767
    9AU     LIG 3973  28.004  17.773   6.617
    9AU     LIG 3974  27.966  18.257   6.685
    9AU       S 3975  27.567  15.933   6.566
    9AU     LIG 3976  27.680  16.311   6.388
    9AU     LIG 3977  27.447  16.555   6.056
    9AU     LIG 3978  27.276  16.915   5.808
    9AU     LIG 3979  26.888  17.064   5.574
    9AU    AUSL 3980  28.187  14.617   6.933
    9AU    AUSL 3981  27.589  14.659   7.239
    9AU     AUL 3982  27.847  14.497   6.989
    9AU       S 3983  27.398  14.620   7.019
    9AU     LIG 3984  27.371  14.198   6.929
    9AU     LIG 3985  27.003  13.944   6.768
    9AU     LIG 3986  26.674  13.715   6.505
    9AU     LIG 3987  26.428  13.345   6.312
    9AU       S 3988  28.237  14.220   6.953
    9AU     LIG 3989  28.196  13.805   6.771
    9AU     LIG 3990  27.950  13.429   6.665
    9AU     LIG 3991  28.005  12.982   6.573
    9AU     LIG 3992  28.111  12.518   6.591
    9AU    AUSL 3993  28.424  14.631   7.318
    9AU    AUSL 3994  28.432  14.952   6.967
    9AU     AUL 3995  28.531  14.578   6.954
    9AU       S 3996  28.458  14.228   7.258
    9AU     LIG 3997  28.262  13.741   7.286
    9AU     LIG 3998  28.214  13.293   7.088
    9AU     LIG 3999  28.327  12.846   6.953
    9AU     LIG 4000  28.621  12.496   6.813
    9AU       S 4001  28.743  14.782   6.608
    9AU     LIG 4002  28.673  14.339   6.522
    9AU     LIG 4003  28.908  14.015   6.269
    9AU     LIG 4004  29.184  13.774   5.968
    9AU     LIG 4005  29.186  13.774   5.490
   10AU     AUC 4006  17.810  14.115   7.499
   10AU     AUC 4007  18.089  14.132   7.324
   10AU     AUC 4008  18.070  14.106   7.674
   10AU     AUC 4009  17.529  14.106   7.327
   10AU     AUC 4010  17.540  14.146   7.676
   10AU     AUC 4011  17.642  14.396   7.493
   10AU     AUC 4012  18.004  14.396   7.493
   10AU     AUC 4013  17.627  13.842   7.506
   10AU     AUC 4014  17.979  13.825   7.498
   10AU     AUC 4015  17.810  13.939   7.776
   10AU     AUC 4016  17.802  14.288   7.769
   10AU     AUC 4017  17.811  13.948   7.223
   10AU     AUC 4018  17.826  14.271   7.223
   10AU     AUC 4019  18.398  14.142   7.155
   10AU     AUC 4020  18.412  14.096   7.516
   10AU     AUC 4021  18.357  14.078   7.873
   10AU     AUC 4022  17.233  14.087   7.152
   10AU     AUC 4023  17.204  14.134   7.514
   10AU     AUC 4024  17.247  14.175   7.853
   10AU     AUC 4025  17.475  14.702   7.470
   10AU     AUC 4026  17.837  14.719   7.470
   10AU     AUC 4027  18.214  14.669   7.491
   10AU     AUC 4028  17.437  13.563   7.513
   10AU     AUC 4029  17.792  13.514   7.489
   10AU     AUC 4030  18.154  13.529   7.483
   10AU     AUC 4031  17.791  13.766   8.062
   10AU     AUC 4032  17.814  14.139   8.110
   10AU     AUC 4033  17.819  14.471   8.063
   10AU     AUC 4034  17.843  13.772   6.946
   10AU     AUC 4035  17.821  14.107   6.888
   10AU     AUC 4036  17.802  14.440   6.923
   10AU     AUC 4037  18.070  13.907   8.005
   10AU     AUC 4038  18.117  14.259   8.006
   10AU     AUC 4039  18.144  13.986   6.992
   10AU     AUC 4040  18.126  14.306   7.025
   10AU     AUC 4041  17.500  13.989   8.006
   10AU     AUC 4042  17.522  14.365   7.975
   10AU     AUC 4043  17.517  13.913   7.036
   10AU     AUC 4044  17.494  14.239   6.989
   10AU     AUC 4045  18.345  14.416   7.333
   10AU     AUC 4046  18.313  14.395   7.683
   10AU     AUC 4047  17.328  14.405   7.301
   10AU     AUC 4048  17.336  14.459   7.658
   10AU     AUC 4049  18.288  13.823   7.324
   10AU     AUC 4050  18.258  13.773   7.683
   10AU     AUC 4051  17.301  13.800   7.357
   10AU     AUC 4052  17.341  13.855   7.711
   10AU     AUC 4053  17.660  14.653   7.767
   10AU     AUC 4054  18.014  14.581   7.761
   10AU     AUC 4055  17.618  13.643   7.801
   10AU     AUC 4056  17.945  13.592   7.778
   10AU     AUC 4057  17.637  14.555   7.188
   10AU     AUC 4058  18.006  14.606   7.201
   10AU     AUC 4059  17.630  13.633   7.207
   10AU     AUC 4060  18.021  13.662   7.200
   10AU    AUSL 4061  18.328  13.979   8.261
   10AU    AUSL 4062  18.086  13.594   8.174
   10AU     AUL 4063  18.288  13.625   8.558
   10AU       S 4064  18.420  13.402   8.188
   10AU     LIG 4065  18.282  13.110   8.525
   10AU     LIG 4066  18.526  12.821   8.780
   10AU     LIG 4067  18.798  12.496   8.968
   10AU     LIG 4068  19.073  12.295   9.294
   10AU       S 4069  18.528  13.903   8.295
   10AU     LIG 4070  18.675  13.940   8.725
   10AU     LIG 4071  18.671  13.991   9.191
   10AU     LIG 4072  18.856  13.830   9.592
   10AU     LIG 4073  19.081  13.890  10.002
   10AU    AUSL 4074  17.910  13.933   8.384
   10AU    AUSL 4075  17.661  14.314   8.388
   10AU     AUL 4076  17.857  14.251   8.743
   10AU       S 4077  17.922  13.870   8.511
   10AU     LIG 4078  17.964  13.796   8.949
   10AU     LIG 4079  18.247  13.728   9.339
   10AU     LIG 4080  18.442  13.539   9.740
   10AU     LIG 4081  18.448  13.342  10.184
   10AU       S 4082  17.458  14.073   8.615
   10AU     LIG 4083  17.519  14.108   9.085
   10AU     LIG 4084  17.292  14.117   9.481
   10AU     LIG 4085  16.992  14.197   9.823
   10AU     LIG 4086  16.907  14.469  10.188
   10AU    AUSL 4087  18.078  14.341   8.357
   10AU    AUSL 4088  18.451  14.364   8.114
   10AU     AUL 4089  18.348  14.258   8.523
   10AU       S 4090  17.985  14.649   8.496
   10AU     LIG 4091  18.232  14.578   8.889
   10AU     LIG 4092  18.478  14.493   9.297
   10AU     LIG 4093  18.531  14.523   9.787
   10AU     LIG 4094  18.600  14.730  10.217
   10AU       S 4095  18.534  14.616   8.293
   10AU     LIG 4096  18.893  14.443   8.434
   10AU     LIG 4097  19.212  14.684   8.718
   10AU     LIG 4098  19.471  14.993   8.987
   10AU     LIG 4099  19.664  15.293   9.297
   10AU    AUSL 4100  18.344  14.287   6.744
   10AU    AUSL 4101  18.111  14.589   6.964
   10AU     AUL 4102  18.160  14.682   6.608
   10AU       S 4103  18.317  14.335   6.348
   10AU     LIG 4104  18.699  14.221   6.134
   10AU     LIG 4105  18.864  13.922   5.854
   10AU     LIG 4106  18.914  13.850   5.412
   10AU     LIG 4107  18.979  13.842   4.954
   10AU       S 4108  18.543  14.830   6.832
   10AU     LIG 4109  18.674  15.034   6.444
   10AU     LIG 4110  18.865  15.264   6.070
   10AU     LIG 4111  19.078  15.539   5.744
   10AU     LIG 4112  19.244  15.618   5.300
   10AU    AUSL 4113  18.134  13.936   6.609
   10AU    AUSL 4114  18.476  13.911   6.920
   10AU     AUL 4115  18.562  14.051   6.631
   10AU       S 4116  18.594  13.591   6.669
   10AU     LIG 4117  18.758  13.305   6.322
   10AU     LIG 4118  19.048  12.940   6.222
   10AU     LIG 4119  19.337  12.690   5.937
   10AU     LIG 4120  19.721  12.715   5.640
   10AU       S 4121  18.240  14.116   6.293
   10AU     LIG 4122  18.433  13.762   6.116
   10AU     LIG 4123  18.507  13.597   5.663
   10AU     LIG 4124  18.529  13.615   5.175
   10AU     LIG 4125  18.704  13.449   4.755
   10AU    AUSL 4126  17.920  14.301   6.699
   10AU    AUSL 4127  17.718  13.898   6.726
   10AU     AUL 4128  17.864  13.913   6.446
   10AU       S 4129  17.430  13.918   6.292
   10AU     LIG 4130  17.432  13.719   5.899
   10AU     LIG 4131  17.139  13.500   5.627
   10AU     LIG 4132  16.973  13.570   5.217
   10AU     LIG 4133  17.082  13.595   4.759
   10AU       S 4134  17.986  14.347   6.332
   10AU     LIG 4135  18.137  14.279   5.852
   10AU     LIG 4136  18.463  14.102   5.558
   10AU     LIG 4137  18.582  14.137   5.104
   10AU     LIG 4138  18.565  14.364   4.682
   10AU    AUSL 4139  17.260  14.257   8.227
   10AU    AUSL 4140  17.546  14.617   8.120
   10AU     AUL 4141  17.414  14.553   8.453
   10AU       S 4142  17.259  14.139   8.640
   10AU     LIG 4143  17.019  14.039   8.978
   10AU     LIG 4144  16.801  13.983   9.381
   10AU     LIG 4145  16.585  13.865   9.776
   10AU     LIG 4146  16.183  13.867  10.020
   10AU       S 4147  17.147  14.845   8.169
   10AU     LIG 4148  17.112  14.954   8.595
   10AU     LIG 4149  16.863  15.213   8.889
   10AU     LIG 4150  16.685  15.337   9.307
   10AU     LIG 4151  16.456  15.545   9.658
   10AU    AUSL 4152  17.561  13.969   8.149
   10AU    AUSL 4153  17.151  13.836   8.128
   10AU     AUL 4154  17.039  14.067   8.243
   10AU       S 4155  17.081  13.619   8.390
   10AU     LIG 4156  16.646  13.558   8.224
   10AU     LIG 4157  16.401  13.189   8.348
   10AU     LIG 4158  16.218  12.898   8.658
   10AU     LIG 4159  15.995  12.547   8.894
   10AU       S 4160  17.433  13.926   8.534
   10AU     LIG 4161  17.440  13.654   8.893
   10AU     LIG 4162  17.209  13.653   9.278
   10AU     LIG 4163  17.080  13.687   9.722
   10AU     LIG 4164  17.033  13.528  10.161
   10AU    AUSL 4165  17.293  13.954   6.767
   10AU    AUSL 4166  17.503  13.609   6.947
   10AU     AUL 4167  17.548  13.598   6.617
   10AU       S 4168  17.239  13.831   6.366
   10AU     LIG 4169  16.937  13.743   6.050
   10AU     LIG 4170  16.729  13.826   5.641
   10AU     LIG 4171  16.532  13.854   5.225
   10AU     LIG 4172  16.129  13.898   4.985
   10AU       S 4173  17.134  13.490   6.785
   10AU     LIG 4174  17.192  13.188   6.517
   10AU     LIG 4175  16.859  12.966   6.290
   10AU     LIG 4176  16.585  12.731   6.006
   10AU     LIG 4177  16.510  12.657   5.539
   10AU    AUSL 4178  17.517  14.276   6.594
   10AU    AUSL 4179  17.166  14.351   6.890
   10AU     AUL 4180  17.079  14.177   6.610
   10AU       S 4181  17.183  14.616   6.638
   10AU     LIG 4182  16.755  14.621   6.621
   10AU     LIG 4183  16.446  14.781   6.301
   10AU     LIG 4184  16.275  14.981   5.909
   10AU     LIG 4185  16.094  15.224   5.553
   10AU       S 4186  17.476  14.194   6.348
   10AU     LIG 4187  17.192  14.193   5.959
   10AU     LIG 4188  17.185  14.011   5.523
   10AU     LIG 4189  16.998  14.071   5.099
   10AU     LIG 4190  16.941  14.373   4.747
   10AU    AUSL 4191  18.638  14.602   7.498
   10AU    AUSL 4192  18.497  14.401   7.117
   10AU     AUL 4193  18.864  14.588   7.148
   10AU       S 4194  18.565  14.683   6.836
   10AU     LIG 4195  18.819  14.537   6.523
   10AU     LIG 4196  19.086  14.791   6.217
   10AU     LIG 4197  19.348  15.121   5.977
   10AU     LIG 4198  19.568  15.390   5.650
   10AU       S 4199  19.005  14.696   7.578
   10AU     LIG 4200  19.497  14.708   7.456
   10AU     LIG 4201  19.946  14.880   7.489
   10AU     LIG 4202  20.380  15.088   7.513
   10AU     LIG 4203  20.721  15.371   7.321
   10AU    AUSL 4204  18.779  14.204   7.382
   10AU    AUSL 4205  18.706  13.894   7.713
   10AU     AUL 4206  18.944  14.078   7.810
   10AU       S 4207  19.081  14.299   7.427
   10AU     LIG 4208  19.494  14.188   7.326
   10AU     LIG 4209  19.891  14.421   7.231
   10AU     LIG 4210  20.329  14.597   7.273
   10AU     LIG 4211  20.704  14.859   7.189
   10AU       S 4212  18.980  13.683   7.537
   10AU     LIG 4213  19.311  13.591   7.811
   10AU     LIG 4214  19.728  13.366   7.745
   10AU     LIG 4215  20.131  13.121   7.842
   10AU     LIG 4216  20.598  13.164   7.967
   10AU    AUSL 4217  18.497  14.257   7.713
   10AU    AUSL 4218  18.419  14.717   7.842
   10AU     AUL 4219  18.713  14.484   7.883
   10AU       S 4220  18.609  14.886   8.107
   10AU     LIG 4221  18.949  14.966   8.375
   10AU     LIG 4222  19.166  15.256   8.672
   10AU     LIG 4223  19.350  15.662   8.851
   10AU     LIG 4224  19.390  16.158   8.809
   10AU       S 4225  19.086  14.477   7.615
   10AU     LIG 4226  19.442  14.330   7.816
   10AU     LIG 4227  19.890  14.431   7.746
   10AU     LIG 4228  20.316  14.640   7.784
   10AU     LIG 4229  20.767  14.770   7.711
   10AU    AUSL 4230  17.134  14.677   7.492
   10AU    AUSL 4231  17.219  14.477   7.875
   10AU     AUL 4232  16.898  14.776   7.719
   10AU       S 4233  17.047  14.652   8.135
   10AU     LIG 4234  16.887  14.488   8.515
   10AU     LIG 4235  16.728  14.696   8.899
   10AU     LIG 4236  16.402  14.975   9.076
   10AU     LIG 4237  16.087  15.095   9.398
   10AU       S 4238  17.125  15.059   7.400
   10AU     LIG 4239  16.652  14.975   7.282
   10AU     LIG 4240  16.199  15.206   7.194
   10AU     LIG 4241  15.751  15.412   7.266
   10AU     LIG 4242  15.342  15.459   7.532
   10AU    AUSL 4243  17.099  14.289   7.297
   10AU    AUSL 4244  17.238  14.730   7.091
   10AU     AUL 4245  16.937  14.585   7.127
   10AU       S 4246  16.760  14.124   6.967
   10AU     LIG 4247  16.436  14.480   7.022
   10AU     LIG 4248  16.147  14.810   6.851
   10AU     LIG 4249  15.720  15.021   6.891
   10AU     LIG 4250  15.260  15.179   6.848
   10AU       S 4251  17.021  14.991   6.865
   10AU     LIG 4252  16.767  15.147   6.494
   10AU     LIG 4253  16.566  15.491   6.204
   10AU     LIG 4254  16.369  15.955   6.181
   10AU     LIG 4255  16.006  16.282   6.138
   10AU    AUSL 4256  16.887  14.322   7.682
   10AU    AUSL 4257  16.865  13.955   7.390
   10AU     AUL 4258  16.707  14.293   7.407
   10AU       S 4259  16.652  13.877   7.644
   10AU     LIG 4260  16.382  13.871   7.254
   10AU     LIG 4261  15.924  13.788   7.177
   10AU     LIG 4262  15.472  13.603   7.111
   10AU     LIG 4263  15.008  13.584   6.958
   10AU       S 4264  16.749  14.337   7.909
   10AU     LIG 4265  16.415  14.616   7.853
   10AU     LIG 4266  15.991  14.702   8.083
   10AU     LIG 4267  15.544  14.824   8.169
   10AU     LIG 4268  15.077  14.915   8.218
   10AU    AUSL 4269  18.508  13.546   7.533
   10AU    AUSL 4270  18.332  13.802   7.881
   10AU     AUL 4271  18.679  13.662   7.897
   10AU       S 4272  18.816  13.440   7.497
   10AU     LIG 4273  19.219  13.193   7.491
   10AU     LIG 4274  19.661  13.032   7.365
   10AU     LIG 4275  20.119  12.855   7.388
   10AU     LIG 4276  20.329  12.426   7.514
   10AU       S 4277  18.504  13.304   8.114
   10AU     LIG 4278  18.785  13.088   8.397
   10AU     LIG 4279  19.054  12.843   8.682
   10AU     LIG 4280  19.321  12.602   8.965
   10AU     LIG 4281  19.590  12.569   9.350
   10AU    AUSL 4282  18.479  13.925   7.337
   10AU    AUSL 4283  18.432  13.516   7.118
   10AU     AUL 4284  18.691  13.722   7.142
   10AU       S 4285  19.052  13.793   7.402
   10AU     LIG 4286  19.490  13.597   7.324
   10AU     LIG 4287  19.951  13.447   7.250
   10AU     LIG 4288  20.375  13.550   7.020
   10AU     LIG 4289  20.847  13.652   7.096
   10AU       S 4290  18.632  13.389   6.813
   10AU     LIG 4291  18.720  12.955   6.715
   10AU     LIG 4292  18.878  12.558   6.522
   10AU     LIG 4293  19.116  12.303   6.219
   10AU     LIG 4294  19.238  11.872   6.059
   10AU    AUSL 4295  17.065  13.594   7.553
   10AU    AUSL 4296  17.182  13.822   7.149
   10AU     AUL 4297  16.835  13.657   7.259
   10AU       S 4298  16.994  13.610   6.831
   10AU     LIG 4299  16.751  13.474   6.464
   10AU     LIG 4300  16.399  13.188   6.398
   10AU     LIG 4301  16.132  12.863   6.219
   10AU     LIG 4302  16.097  12.563   5.870
   10AU       S 4303  16.635  13.617   7.682
   10AU     LIG 4304  16.260  13.417   7.441
   10AU     LIG 4305  15.770  13.419   7.513
   10AU     LIG 4306  15.453  13.058   7.565
   10AU     LIG 4307  15.499  12.575   7.613
   10AU    AUSL 4308  17.124  13.980   7.738
   10AU    AUSL 4309  17.375  13.607   7.845
   10AU     AUL 4310  17.042  13.573   7.899
   10AU       S 4311  17.105  13.408   8.331
   10AU     LIG 4312  16.875  13.072   8.144
   10AU     LIG 4313  16.542  12.712   8.204
   10AU     LIG 4314  16.236  12.427   8.444
   10AU     LIG 4315  15.842  12.157   8.548
   10AU       S 4316  16.694  13.874   7.829
   10AU     LIG 4317  16.176  13.791   7.757
   10AU     LIG 4318  15.734  13.793   7.899
   10AU     LIG 4319  15.338  13.522   7.892
   10AU     LIG 4320  14.917  13.286   7.945
   10AU    AUSL 4321  17.829  14.898   7.983
   10AU    AUSL 4322  17.415  14.843   7.774
   10AU     AUL 4323  17.596  14.963   8.184
   10AU       S 4324  17.264  15.042   7.871
   10AU     LIG 4325  17.085  15.338   8.231
   10AU     LIG 4326  16.856  15.660   8.540
   10AU     LIG 4327  16.674  16.120   8.665
   10AU     LIG 4328  16.425  16.555   8.714
   10AU       S 4329  17.935  15.252   7.958
   10AU     LIG 4330  18.051  15.338   8.330
   10AU     LIG 4331  18.096  15.780   8.458
   10AU     LIG 4332  18.034  16.222   8.597
   10AU     LIG 4333  17.915  16.469   8.983
   10AU    AUSL 4334  17.710  15.078   7.589
   10AU    AUSL 4335  17.979  14.986   7.247
   10AU     AUL 4336  17.999  15.324   7.384
   10AU       S 4337  17.744  15.311   7.777
   10AU     LIG 4338  17.874  15.742   7.980
   10AU     LIG 4339  17.857  16.193   8.109
   10AU     LIG 4340  17.640  16.609   8.187
   10AU     LIG 4341  17.323  16.759   8.496
   10AU       S 4342  17.756  15.300   6.998
   10AU     LIG 4343  18.179  15.513   6.960
   10AU     LIG 4344  18.270  15.981   6.933
   10AU     LIG 4345  18.321  16.438   6.795
   10AU     LIG 4346  18.242  16.905   6.881
   10AU    AUSL 4347  18.078  14.846   7.639
   10AU    AUSL 4348  18.061  14.551   8.007
   10AU     AUL 4349  18.144  14.861   8.086
   10AU       S 4350  18.447  14.747   8.403
   10AU     LIG 4351  18.693  14.767   8.780
   10AU     LIG 4352  18.956  14.990   9.065
   10AU     LIG 4353  19.158  15.356   9.241
   10AU     LIG 4354  19.215  15.584   9.649
   10AU       S 4355  18.190  15.162   7.755
   10AU     LIG 4356  18.356  15.541   7.961
   10AU     LIG 4357  18.341  15.999   8.062
   10AU     LIG 4358  18.307  16.466   8.108
   10AU     LIG 4359  18.380  16.928   8.055
   10AU    AUSL 4360  17.771  13.423   7.932
   10AU    AUSL 4361  18.189  13.410   7.782
   10AU     AUL 4362  17.975  13.275   8.154
   10AU       S 4363  17.734  12.925   7.979
   10AU     LIG 4364  17.639  12.755   8.352
   10AU     LIG 4365  17.557  12.305   8.431
   10AU     LIG 4366  17.548  11.838   8.433
   10AU     LIG 4367  17.551  11.381   8.502
   10AU       S 4368  18.359  13.240   7.875
   10AU     LIG 4369  18.416  12.818   8.117
   10AU     LIG 4370  18.739  12.558   8.390
   10AU     LIG 4371  19.084  12.273   8.595
   10AU     LIG 4372  19.275  11.808   8.593
   10AU    AUSL 4373  17.459  13.246   7.659
   10AU    AUSL 4374  17.551  13.571   8.254
   10AU     AUL 4375  17.430  13.285   8.020
   10AU       S 4376  17.556  12.871   7.839
   10AU     LIG 4377  17.359  12.507   7.992
   10AU     LIG 4378  17.229  12.074   8.081
   10AU     LIG 4379  17.282  11.622   8.049
   10AU     LIG 4380  17.404  11.169   8.071
   10AU       S 4381  17.364  13.457   8.452
   10AU     LIG 4382  17.210  12.994   8.551
   10AU     LIG 4383  16.765  12.857   8.637
   10AU     LIG 4384  16.517  12.546   8.883
   10AU     LIG 4385  16.343  12.381   9.284
   10AU    AUSL 4386  17.891  13.170   7.608
   10AU    AUSL 4387  17.661  13.404   7.316
   10AU     AUL 4388  17.547  13.062   7.419
   10AU       S 4389  17.902  12.960   7.160
   10AU     LIG 4390  17.494  12.697   7.093
   10AU     LIG 4391  17.364  12.246   7.086
   10AU     LIG 4392  17.358  11.765   7.022
   10AU     LIG 4393  17.382  11.319   6.843
   10AU       S 4394  17.902  12.960   7.749
   10AU     LIG 4395  17.858  12.467   7.802
   10AU     LIG 4396  17.736  12.033   7.987
   10AU     LIG 4397  17.785  11.542   8.040
   10AU     LIG 4398  17.897  11.103   8.180
   10AU    AUSL 4399  17.788  14.846   6.880
   10AU    AUSL 4400  18.346  14.791   7.263
   10AU     AUL 4401  18.129  14.989   6.964
   10AU       S 4402  17.747  15.202   6.769
   10AU     LIG 4403  17.963  15.475   6.508
   10AU     LIG 4404  18.050  15.922   6.480
   10AU     LIG 4405  18.219  16.313   6.290
   10AU     LIG 4406  18.334  16.496   5.867
   10AU       S 4407  18.560  14.943   7.133
   10AU     LIG 4408  18.988  15.021   6.874
   10AU     LIG 4409  19.172  15.231   6.485
   10AU     LIG 4410  19.319  15.590   6.207
   10AU     LIG 4411  19.514  16.029   6.193
   10AU    AUSL 4412  17.595  14.802   7.296
   10AU    AUSL 4413  17.571  14.500   6.944
   10AU     AUL 4414  17.463  14.904   6.980
   10AU       S 4415  17.575  15.303   7.166
   10AU     LIG 4416  17.742  15.781   6.920
   10AU     LIG 4417  17.814  16.275   6.811
   10AU     LIG 4418  17.621  16.761   6.858
   10AU     LIG 4419  17.221  17.082   6.845
   10AU       S 4420  17.346  14.721   6.584
   10AU     LIG 4421  17.079  14.836   6.212
   10AU     LIG 4422  16.775  15.063   5.970
   10AU     LIG 4423  16.604  15.301   5.615
   10AU     LIG 4424  16.631  15.549   5.214
   10AU    AUSL 4425  17.848  13.362   6.925
   10AU    AUSL 4426  17.252  13.394   7.231
   10AU     AUL 4427  17.513  13.237   6.981
   10AU       S 4428  17.052  13.333   6.999
   10AU     LIG 4429  16.742  13.064   6.786
   10AU     LIG 4430  16.489  12.702   6.563
   10AU     LIG 4431  16.121  12.387   6.449
   10AU     LIG 4432  15.761  12.045   6.539
   10AU       S 4433  17.903  12.957   6.935
   10AU     LIG 4434  17.829  12.508   6.765
   10AU     LIG 4435  17.571  12.122   6.629
   10AU     LIG 4436  17.425  11.694   6.506
   10AU     LIG 4437  17.471  11.253   6.342
   10AU    AUSL 4438  18.088  13.382   7.307
   10AU    AUSL 4439  18.084  13.704   6.951
   10AU     AUL 4440  18.190  13.324   6.948
   10AU       S 4441  18.123  12.972   7.250
   10AU     LIG 4442  17.938  12.485   7.274
   10AU     LIG 4443  17.838  12.046   7.063
   10AU     LIG 4444  17.831  11.578   6.907
   10AU     LIG 4445  18.083  11.159   6.930
   10AU       S 4446  18.377  13.547   6.597
   10AU     LIG 4447  18.292  13.130   6.487
   10AU     LIG 4448  18.535  12.821   6.237
   10AU     LIG 4449  18.805  12.596   5.922
   10AU     LIG 4450  18.864  12.375   5.511
   11POPC   NC3 4451   4.478   6.319   9.261
   11POPC   PO4 4452   4.682   6.848   9.618
   11POPC   GL1 4453   4.462   6.837   9.149
   11POPC   GL2 4454   4.118   6.603   9.038
   11POPC   C1A 4455   4.401   6.786   8.657
   11POPC   D2A 4456   4.053   6.633   8.354
   11POPC   C3A 4457   4.046   6.776   7.917
   11POPC   C4A 4458   4.352   7.014   7.687
   11POPC   C1B 4459   4.255   6.271   8.694
   11POPC   C2B 4460   4.501   6.350   8.364
   11POPC   C3B 4461   4.301   6.308   8.006
   11POPC   C4B 4462   4.325   6.417   7.640
   12POPC   NC3 4463  25.181   1.169   9.463
   12POPC   PO4 4464  25.564   1.723   9.516
   12POPC   GL1 4465  25.516   1.403   9.126
   12POPC   GL2 4466  25.507   1.047   9.066
   12POPC   C1A 4467  25.367   1.288   8.649
   12POPC   D2A 4468  25.593   1.262   8.227
   12POPC   C3A 4469  25.392   1.267   7.813
   12POPC   C4A 4470  24.961   1.393   7.854
   12POPC   C1B 4471  25.356   0.756   8.756
   12POPC   C2B 4472  25.196   0.620   8.378
   12POPC   C3B 4473  25.254   0.791   7.993
   12POPC   C4B 4474  25.065   0.790   7.595
   13POPC   NC3 4475  14.899  20.137   9.582
   13POPC   PO4 4476  15.567  20.181   9.520
   13POPC   GL1 4477  15.316  19.930   9.220
   13POPC   GL2 4478  14.995  20.055   9.094
   13POPC   C1A 4479  15.322  19.689   8.822
   13POPC   D2A 4480  15.643  19.601   8.488
   13POPC   C3A 4481  15.530  19.696   8.062
   13POPC   C4A 4482  15.125  19.640   7.854
   13POPC   C1B 4483  14.847  19.949   8.694
   13POPC   C2B 4484  14.894  19.922   8.239
   13POPC   C3B 4485  14.718  19.948   7.823
   13POPC   C4B 4486  14.876  20.155   7.461
   14POPC   NC3 4487  38.644  26.031   9.623
   14POPC   PO4 4488  38.526  26.609   9.427
   14POPC   GL1 4489  38.542  26.218   9.155
   14POPC   GL2 4490  38.842  25.971   9.173
   14POPC   C1A 4491  38.604  26.024   8.726
   14POPC   D2A 4492  38.516  25.813   8.326
   14POPC   C3A 4493  38.565  26.104   8.004
   14POPC   C4A 4494  38.241  26.121   7.702
   14POPC   C1B 4495  39.046  25.723   8.872
   14POPC   C2B 4496  39.038  25.847   8.432
   14POPC   C3B 4497  38.923  25.728   8.009
   14POPC   C4B 4498  38.876  25.924   7.624
   15POPC   NC3 4499   8.370  10.722   9.297
   15POPC   PO4 4500   8.530  10.236   9.670
   15POPC   GL1 4501   8.433  10.257   9.136
   15POPC   GL2 4502   8.103  10.430   8.982
   15POPC   C1A 4503   8.352  10.199   8.631
   15POPC   D2A 4504   7.924  10.392   8.458
   15POPC   C3A 4505   7.757  10.243   8.067
   15POPC   C4A 4506   7.931  10.380   7.679
   15POPC   C1B 4507   8.302  10.713   8.651
   15POPC   C2B 4508   8.346  10.575   8.228
   15POPC   C3B 4509   8.366  10.575   7.806
   15POPC   C4B 4510   8.644  10.695   7.524
   16POPC   NC3 4511  20.606   4.559   9.519
   16POPC   PO4 4512  20.869   3.983   9.214
   16POPC   GL1 4513  20.656   4.305   9.079
   16POPC   GL2 4514  20.327   4.265   9.187
   16POPC   C1A 4515  20.748   4.522   8.720
   16POPC   D2A 4516  20.959   4.331   8.351
   16POPC   C3A 4517  20.776   4.446   7.937
   16POPC   C4A 4518  20.910   4.732   7.618
   16POPC   C1B 4519  20.246   4.382   8.774
   16POPC   C2B 4520  20.401   4.250   8.401
   16POPC   C3B 4521  20.277   4.303   7.996
   16POPC   C4B 4522  20.411   4.132   7.626
   17POPC   NC3 4523  10.849  44.706   9.838
   17POPC   PO4 4524  10.272  44.345   9.716
   17POPC   GL1 4525  10.413  44.637   9.385
   17POPC   GL2 4526  10.751  44.650   9.286
   17POPC   C1A 4527  10.376  44.715   8.927
   17POPC   D2A 4528  10.532  44.637   8.500
   17POPC   C3A 4529  10.468  44.862   8.107
   17POPC   C4A 4530  10.246  44.794   7.722
   17POPC   C1B 4531  10.894  44.781   8.864
   17POPC   C2B 4532  11.032  44.686   8.432
   17POPC   C3B 4533  10.846  44.466   8.106
   17POPC   C4B 4534  10.763  44.606   7.668
   18POPC   NC3 4535  10.521  40.035   9.494
   18POPC   PO4 4536  10.524  39.450   9.484
   18POPC   GL1 4537  10.576  39.706   9.080
   18POPC   GL2 4538  10.410  40.055   9.013
   18POPC   C1A 4539  10.786  39.931   8.722
   18POPC   D2A 4540  10.587  40.267   8.469
   18POPC   C3A 4541  10.661  40.183   8.032
   18POPC   C4A 4542  10.616  40.229   7.597
   18POPC   C1B 4543  10.260  39.831   8.659
   18POPC   C2B 4544  10.264  39.883   8.208
   18POPC   C3B 4545  10.128  40.135   7.859
   18POPC   C4B 4546  10.148  40.151   7.402
   19POPC   NC3 4547  26.096  10.580   9.421
   19POPC   PO4 4548  25.373  10.544   9.566
   19POPC   GL1 4549  25.658  10.459   9.153
   19POPC   GL2 4550  25.796  10.769   8.967
   19POPC   C1A 4551  25.915  10.361   8.728
   19POPC   D2A 4552  25.960  10.678   8.352
   19POPC   C3A 4553  26.052  10.452   7.956
   19POPC   C4A 4554  25.803  10.173   7.759
   19POPC   C1B 4555  26.260  10.750   8.767
   19POPC   C2B 4556  26.386  10.965   8.352
   19POPC   C3B 4557  26.542  10.828   7.963
   19POPC   C4B 4558  26.454  10.765   7.510
   20POPC   NC3 4559  22.521  14.151   9.414
   20POPC   PO4 4560  22.114  14.704   9.421
   20POPC   GL1 4561  22.318  14.477   9.087
   20POPC   GL2 4562  22.168  14.102   9.051
   20POPC   C1A 4563  22.393  14.349   8.677
   20POPC   D2A 4564  22.119  14.529   8.359
   20POPC   C3A 4565  22.232  14.475   7.917
   20POPC   C4A 4566  22.239  14.219   7.539
   20POPC   C1B 4567  21.996  14.054   8.611
   20POPC   C2B 4568  22.032  14.060   8.148
   20POPC   C3B 4569  21.797  14.213   7.767
   20POPC   C4B 4570  21.774  14.126   7.292
   21POPC   NC3 4571  31.964   0.270   9.353
   21POPC   PO4 4572  32.384   0.591   9.741
   21POPC   GL1 4573  32.357   0.572   9.256
   21POPC   GL2 4574  32.626   0.399   9.100
   21POPC   C1A 4575  32.220   0.419   8.797
   21POPC   D2A 4576  32.038   0.643   8.454
   21POPC   C3A 4577  31.972   0.515   8.051
   21POPC   C4A 4578  32.023   0.173   7.795
   21POPC   C1B 4579  32.598   0.776   8.859
   21POPC   C2B 4580  32.550   0.638   8.466
   21POPC   C3B 4581  32.478   0.524   8.069
   21POPC   C4B 4582  32.531   0.779   7.780
   22POPC   NC3 4583  12.791  34.871   9.424
   22POPC   PO4 4584  12.953  34.217   9.472
   22POPC   GL1 4585  12.992  34.469   9.140
   22POPC   GL2 4586  13.258  34.742   9.201
   22POPC   C1A 4587  12.736  34.552   8.788
   22POPC   D2A 4588  12.701  34.356   8.403
   22POPC   C3A 4589  12.676  34.594   8.055
   22POPC   C4A 4590  12.706  34.377   7.697
   22POPC   C1B 4591  13.253  34.678   8.748
   22POPC   C2B 4592  13.023  34.779   8.394
   22POPC   C3B 4593  13.083  34.897   7.975
   22POPC   C4B 4594  13.349  34.887   7.643
   23POPC   NC3 4595   9.206   2.506   9.419
   23POPC   PO4 4596   8.560   2.609   9.483
   23POPC   GL1 4597   8.668   2.845   9.152
   23POPC   GL2 4598   9.014   2.814   9.069
   23POPC   C1A 4599   8.656   2.848   8.723
   23POPC   D2A 4600   8.999   2.876   8.438
   23POPC   C3A 4601   8.756   2.825   8.079
   23POPC   C4A 4602   8.542   2.575   7.759
   23POPC   C1B 4603   9.393   2.791   8.795
   23POPC   C2B 4604   9.486   2.555   8.416
   23POPC   C3B 4605   9.314   2.420   8.011
   23POPC   C4B 4606   9.069   2.669   7.723
   24POPC   NC3 4607  44.216  32.180   9.421
   24POPC   PO4 4608  43.654  31.955   9.572
   24POPC   GL1 4609  43.707  32.155   9.190
   24POPC   GL2 4610  43.785  32.478   9.284
   24POPC   C1A 4611  43.860  32.125   8.774
   24POPC   D2A 4612  43.712  32.185   8.356
   24POPC   C3A 4613  43.789  31.978   7.933
   24POPC   C4A 4614  43.987  32.052   7.503
   24POPC   C1B 4615  44.039  32.578   8.905
   24POPC   C2B 4616  44.010  32.596   8.450
   24POPC   C3B 4617  43.904  32.486   7.999
   24POPC   C4B 4618  44.180  32.484   7.688
   25POPC   NC3 4619  16.468   3.784   9.547
   25POPC   PO4 4620  16.869   3.267   9.718
   25POPC   GL1 4621  16.838   3.483   9.298
   25POPC   GL2 4622  16.510   3.532   9.132
   25POPC   C1A 4623  16.934   3.538   8.836
   25POPC   D2A 4624  16.929   3.843   8.503
   25POPC   C3A 4625  16.961   3.688   8.067
   25POPC   C4A 4626  16.920   3.492   7.656
   25POPC   C1B 4627  16.464   3.752   8.750
   25POPC   C2B 4628  16.328   3.696   8.321
   25POPC   C3B 4629  16.478   3.536   7.923
   25POPC   C4B 4630  16.447   3.511   7.453
   26POPC   NC3 4631  12.414  12.214   9.357
   26POPC   PO4 4632  11.845  11.890   9.545
   26POPC   GL1 4633  11.908  12.221   9.195
   26POPC   GL2 4634  12.066  11.934   9.048
   26POPC   C1A 4635  12.086  12.326   8.740
   26POPC   D2A 4636  12.153  12.123   8.338
   26POPC   C3A 4637  12.195  12.389   7.984
   26POPC   C4A 4638  12.140  12.533   7.546
   26POPC   C1B 4639  12.265  11.747   8.685
   26POPC   C2B 4640  12.344  11.548   8.285
   26POPC   C3B 4641  12.383  11.874   7.957
   26POPC   C4B 4642  12.222  12.034   7.587
   27POPC   NC3 4643   0.408  41.227   9.463
   27POPC   PO4 4644   0.294  41.809   9.734
   27POPC   GL1 4645   0.288  41.754   9.286
   27POPC   GL2 4646   0.590  41.671   9.275
   27POPC   C1A 4647   0.188  41.560   8.893
   27POPC   D2A 4648  44.984  41.742   8.538
   27POPC   C3A 4649   0.170  41.582   8.177
   27POPC   C4A 4650   0.063  41.599   7.760
   27POPC   C1B 4651   0.674  41.718   8.829
   27POPC   C2B 4652   0.567  41.471   8.492
   27POPC   C3B 4653   0.642  41.370   8.077
   27POPC   C4B 4654   0.742  41.539   7.699
   28POPC   NC3 4655  28.166  39.117   9.488
   28POPC   PO4 4656  28.795  39.387   9.545
   28POPC   GL1 4657  28.570  39.309   9.162
   28POPC   GL2 4658  28.265  39.460   9.089
   28POPC   C1A 4659  28.620  39.494   8.739
   28POPC   D2A 4660  28.602  39.214   8.378
   28POPC   C3A 4661  28.629  39.291   7.936
   28POPC   C4A 4662  28.653  38.912   7.666
   28POPC   C1B 4663  28.162  39.230   8.755
   28POPC   C2B 4664  28.081  39.041   8.369
   28POPC   C3B 4665  28.211  38.982   7.959
   28POPC   C4B 4666  27.884  39.002   7.683
   29POPC   NC3 4667  36.023   8.499   9.341
   29POPC   PO4 4668  35.822   7.923   9.328
   29POPC   GL1 4669  36.214   8.056   9.089
   29POPC   GL2 4670  36.348   8.418   8.975
   29POPC   C1A 4671  36.393   7.968   8.685
   29POPC   D2A 4672  36.415   8.245   8.323
   29POPC   C3A 4673  36.317   8.048   7.937
   29POPC   C4A 4674  36.073   7.870   7.598
   29POPC   C1B 4675  36.016   8.342   8.693
   29POPC   C2B 4676  35.864   8.284   8.298
   29POPC   C3B 4677  35.981   8.519   7.945
   29POPC   C4B 4678  35.810   8.343   7.604
   30POPC   NC3 4679  19.432  28.162   9.368
   30POPC   PO4 4680  19.957  28.505   9.552
   30POPC   GL1 4681  19.753  28.589   9.183
   30POPC   GL2 4682  20.028  28.779   9.093
   30POPC   C1A 4683  19.749  28.357   8.803
   30POPC   D2A 4684  19.762  28.015   8.484
   30POPC   C3A 4685  19.679  28.176   8.071
   30POPC   C4A 4686  19.831  28.110   7.658
   30POPC   C1B 4687  20.170  28.649   8.722
   30POPC   C2B 4688  19.978  28.513   8.362
   30POPC   C3B 4689  20.095  28.492   7.945
   30POPC   C4B 4690  19.814  28.611   7.607
   31POPC   NC3 4691  19.079  16.439   9.786
   31POPC   PO4 4692  19.234  17.041   9.700
   31POPC   GL1 4693  19.178  17.010   9.213
   31POPC   GL2 4694  19.200  16.659   9.067
   31POPC   C1A 4695  19.245  17.106   8.761
   31POPC   D2A 4696  18.890  17.057   8.481
   31POPC   C3A 4697  18.829  17.189   8.074
   31POPC   C4A 4698  18.676  17.097   7.661
   31POPC   C1B 4699  19.117  16.603   8.613
   31POPC   C2B 4700  19.278  16.800   8.224
   31POPC   C3B 4701  19.086  16.801   7.809
   31POPC   C4B 4702  19.053  16.538   7.406
   32POPC   NC3 4703  28.446  29.642   9.487
   32POPC   PO4 4704  28.487  30.201   9.197
   32POPC   GL1 4705  28.470  29.833   9.018
   32POPC   GL2 4706  28.110  29.733   9.094
   32POPC   C1A 4707  28.645  29.892   8.633
   32POPC   D2A 4708  28.810  30.102   8.319
   32POPC   C3A 4709  28.564  30.051   7.993
   32POPC   C4A 4710  28.503  29.909   7.602
   32POPC   C1B 4711  28.147  29.797   8.637
   32POPC   C2B 4712  28.315  29.694   8.267
   32POPC   C3B 4713  28.115  29.747   7.898
   32POPC   C4B 4714  28.009  29.962   7.525
   33POPC   NC3 4715  14.126  34.640   9.622
   33POPC   PO4 4716  14.794  34.974   9.389
   33POPC   GL1 4717  14.470  34.884   9.091
   33POPC   GL2 4718  14.218  34.599   9.099
   33POPC   C1A 4719  14.496  34.733   8.686
   33POPC   D2A 4720  14.240  34.603   8.389
   33POPC   C3A 4721  14.471  34.680   8.025
   33POPC   C4A 4722  14.798  34.404   7.861
   33POPC   C1B 4723  14.097  34.260   8.751
   33POPC   C2B 4724  14.015  34.042   8.344
   33POPC   C3B 4725  14.047  34.340   8.005
   33POPC   C4B 4726  14.295  34.403   7.638
   34POPC   NC3 4727   0.510   0.240   9.624
   34POPC   PO4 4728   0.393   0.943   9.534
   34POPC   GL1 4729   0.550   0.658   9.286
   34POPC   GL2 4730   0.356   0.391   9.148
   34POPC   C1A 4731   0.719   0.698   8.858
   34POPC   D2A 4732   0.548   0.435   8.491
   34POPC   C3A 4733   0.620   0.519   8.033
   34POPC   C4A 4734   0.704   0.174   7.747
   34POPC   C1B 4735   0.136   0.216   8.772
   34POPC   C2B 4736  44.980   0.232   8.335
   34POPC   C3B 4737   0.205   0.221   7.977
   34POPC   C4B 4738   0.239   0.412   7.613
   35POPC   NC3 4739  23.153   8.998   9.670
   35POPC   PO4 4740  22.547   8.738   9.521
   35POPC   GL1 4741  22.739   9.072   9.262
   35POPC   GL2 4742  23.108   9.107   9.163
   35POPC   C1A 4743  22.616   9.143   8.828
   35POPC   D2A 4744  22.654   8.889   8.448
   35POPC   C3A 4745  22.751   8.931   7.976
   35POPC   C4A 4746  22.824   8.565   7.701
   35POPC   C1B 4747  23.101   8.922   8.737
   35POPC   C2B 4748  23.162   8.839   8.281
   35POPC   C3B 4749  23.250   8.822   7.827
   35POPC   C4B 4750  23.150   9.077   7.484
   36POPC   NC3 4751  17.749   6.639   9.616
   36POPC   PO4 4752  17.174   6.926   9.841
   36POPC   GL1 4753  17.368   6.864   9.360
   36POPC   GL2 4754  17.740   6.932   9.202
   36POPC   C1A 4755  17.474   6.561   8.986
   36POPC   D2A 4756  17.585   6.440   8.516
   36POPC   C3A 4757  17.385   6.399   8.092
   36POPC   C4A 4758  17.302   6.602   7.690
   36POPC   C1B 4759  17.910   6.727   8.781
   36POPC   C2B 4760  18.001   6.633   8.305
   36POPC   C3B 4761  17.825   6.589   7.849
   36POPC   C4B 4762  17.858   6.745   7.380
   37POPC   NC3 4763  36.710  41.484   9.391
   37POPC   PO4 4764  37.227  41.884   9.329
   37POPC   GL1 4765  36.980  41.693   8.992
   37POPC   GL2 4766  36.955  41.305   8.983
   37POPC   C1A 4767  37.130  41.604   8.598
   37POPC   D2A 4768  37.151  41.583   8.179
   37POPC   C3A 4769  36.877  41.797   7.957
   37POPC   C4A 4770  36.646  41.861   7.559
   37POPC   C1B 4771  36.854  41.185   8.546
   37POPC   C2B 4772  36.680  41.337   8.143
   37POPC   C3B 4773  36.780  41.365   7.692
   37POPC   C4B 4774  36.673  41.188   7.270
   38POPC   NC3 4775  14.559   9.526   9.422
   38POPC   PO4 4776  14.057   9.885   9.597
   38POPC   GL1 4777  14.181   9.847   9.177
   38POPC   GL2 4778  14.120   9.524   9.154
   38POPC   C1A 4779  14.443   9.702   8.802
   38POPC   D2A 4780  14.591   9.566   8.400
   38POPC   C3A 4781  14.707   9.822   8.034
   38POPC   C4A 4782  14.606   9.620   7.649
   38POPC   C1B 4783  13.987   9.446   8.778
   38POPC   C2B 4784  14.005   9.663   8.418
   38POPC   C3B 4785  14.203   9.682   8.038
   38POPC   C4B 4786  13.934   9.773   7.727
   39POPC   NC3 4787   0.928   4.876   9.323
   39POPC   PO4 4788   1.472   5.084   9.635
   39POPC   GL1 4789   1.357   5.140   9.213
   39POPC   GL2 4790   1.575   4.895   9.157
   39POPC   C1A 4791   1.159   5.061   8.767
   39POPC   D2A 4792   0.946   5.264   8.425
   39POPC   C3A 4793   1.151   5.205   8.042
   39POPC   C4A 4794   0.972   4.961   7.714
   39POPC   C1B 4795   1.664   5.002   8.769
   39POPC   C2B 4796   1.500   4.990   8.382
   39POPC   C3B 4797   1.556   4.893   7.991
   39POPC   C4B 4798   1.496   4.744   7.605
   40POPC   NC3 4799   6.722  37.198   9.557
   40POPC   PO4 4800   6.287  36.595   9.596
   40POPC   GL1 4801   6.418  36.889   9.265
   40POPC   GL2 4802   6.772  36.854   9.184
   40POPC   C1A 4803   6.482  36.991   8.805
   40POPC   D2A 4804   6.746  37.045   8.422
   40POPC   C3A 4805   6.510  36.944   8.042
   40POPC   C4A 4806   6.598  37.063   7.633
   40POPC   C1B 4807   6.935  36.696   8.774
   40POPC   C2B 4808   7.173  36.590   8.393
   40POPC   C3B 4809   7.080  36.424   7.972
   40POPC   C4B 4810   6.696  36.546   7.739
   41POPC   NC3 4811  38.276  13.960   9.643
   41POPC   PO4 4812  38.774  13.558   9.635
   41POPC   GL1 4813  38.523  13.557   9.272
   41POPC   GL2 4814  38.800  13.445   9.098
   41POPC   C1A 4815  38.309  13.325   8.920
   41POPC   D2A 4816  38.272  13.230   8.443
   41POPC   C3A 4817  38.155  13.482   8.052
   41POPC   C4A 4818  38.171  13.354   7.590
   41POPC   C1B 4819  38.632  13.711   8.770
   41POPC   C2B 4820  38.646  13.621   8.316
   41POPC   C3B 4821  38.608  13.658   7.872
   41POPC   C4B 4822  38.461  13.743   7.483
   42POPC   NC3 4823  10.013  27.166   9.486
   42POPC   PO4 4824   9.789  27.878   9.468
   42POPC   GL1 4825   9.755  27.657   9.114
   42POPC   GL2 4826  10.070  27.540   9.153
   42POPC   C1A 4827   9.861  27.707   8.667
   42POPC   D2A 4828   9.646  27.597   8.279
   42POPC   C3A 4829   9.668  27.600   7.812
   42POPC   C4A 4830   9.525  27.815   7.429
   42POPC   C1B 4831  10.119  27.261   8.811
   42POPC   C2B 4832  10.068  27.282   8.404
   42POPC   C3B 4833   9.812  27.172   8.106
   42POPC   C4B 4834  10.042  27.205   7.807
   43POPC   NC3 4835  29.819  36.470   9.496
   43POPC   PO4 4836  29.886  35.820   9.423
   43POPC   GL1 4837  29.950  36.086   9.082
   43POPC   GL2 4838  29.628  36.221   9.096
   43POPC   C1A 4839  29.851  35.960   8.657
   43POPC   D2A 4840  29.720  35.719   8.278
   43POPC   C3A 4841  29.700  35.968   7.879
   43POPC   C4A 4842  30.037  36.110   7.566
   43POPC   C1B 4843  29.556  36.368   8.696
   43POPC   C2B 4844  29.790  36.311   8.284
   43POPC   C3B 4845  29.961  36.455   7.905
   43POPC   C4B 4846  29.809  36.515   7.425
   44POPC   NC3 4847  34.240  39.748   9.461
   44POPC   PO4 4848  33.499  39.864   9.610
   44POPC   GL1 4849  33.621  39.693   9.211
   44POPC   GL2 4850  33.918  39.935   9.131
   44POPC   C1A 4851  33.551  39.845   8.792
   44POPC   D2A 4852  33.883  40.113   8.603
   44POPC   C3A 4853  33.948  40.088   8.138
   44POPC   C4A 4854  33.825  40.136   7.739
   44POPC   C1B 4855  34.025  39.629   8.800
   44POPC   C2B 4856  33.831  39.640   8.402
   44POPC   C3B 4857  34.041  39.587   8.044
   44POPC   C4B 4858  33.885  39.624   7.646
   45POPC   NC3 4859  44.869  41.668   9.564
   45POPC   PO4 4860  44.306  41.964   9.725
   45POPC   GL1 4861  44.459  41.771   9.265
   45POPC   GL2 4862  44.799  41.848   9.079
   45POPC   C1A 4863  44.363  41.851   8.807
   45POPC   D2A 4864  44.477  41.626   8.434
   45POPC   C3A 4865  44.664  41.792   8.094
   45POPC   C4A 4866  44.543  41.549   7.762
   45POPC   C1B 4867  44.675  41.462   8.880
   45POPC   C2B 4868  44.806  41.246   8.523
   45POPC   C3B 4869  44.803  41.240   8.093
   45POPC   C4B 4870  44.857  41.136   7.669
   46POPC   NC3 4871  39.627  25.882   9.727
   46POPC   PO4 4872  39.085  26.220   9.634
   46POPC   GL1 4873  39.293  26.201   9.220
   46POPC   GL2 4874  39.482  25.927   9.215
   46POPC   C1A 4875  39.285  26.164   8.778
   46POPC   D2A 4876  39.394  26.258   8.375
   46POPC   C3A 4877  39.137  26.191   8.027
   46POPC   C4A 4878  39.350  26.325   7.700
   46POPC   C1B 4879  39.758  25.754   8.889
   46POPC   C2B 4880  39.786  25.662   8.436
   46POPC   C3B 4881  39.466  25.779   8.133
   46POPC   C4B 4882  39.326  25.696   7.707
   47POPC   NC3 4883  20.975  40.595   9.519
   47POPC   PO4 4884  20.328  40.743   9.615
   47POPC   GL1 4885  20.498  40.837   9.173
   47POPC   GL2 4886  20.747  40.557   9.054
   47POPC   C1A 4887  20.494  40.822   8.712
   47POPC   D2A 4888  20.711  40.854   8.317
   47POPC   C3A 4889  20.526  40.970   7.909
   47POPC   C4A 4890  20.794  40.906   7.528
   47POPC   C1B 4891  20.814  40.395   8.638
   47POPC   C2B 4892  20.894  40.341   8.214
   47POPC   C3B 4893  20.693  40.495   7.864
   47POPC   C4B 4894  20.406  40.603   7.518
   48POPC   NC3 4895  43.644   8.400   9.497
   48POPC   PO4 4896  44.261   8.213   9.369
   48POPC   GL1 4897  43.888   8.098   9.138
   48POPC   GL2 4898  43.688   7.788   9.165
   48POPC   C1A 4899  43.738   8.347   8.794
   48POPC   D2A 4900  43.948   8.500   8.460
   48POPC   C3A 4901  43.888   8.307   8.086
   48POPC   C4A 4902  44.228   8.389   7.894
   48POPC   C1B 4903  43.751   7.843   8.711
   48POPC   C2B 4904  43.575   7.904   8.297
   48POPC   C3B 4905  43.715   7.879   7.849
   48POPC   C4B 4906  43.834   7.862   7.407
   49POPC   NC3 4907  12.456  21.068   9.470
   49POPC   PO4 4908  12.172  20.514   9.466
   49POPC   GL1 4909  12.029  20.453   9.124
   49POPC   GL2 4910  11.949  20.798   9.085
   49POPC   C1A 4911  12.045  20.407   8.718
   49POPC   D2A 4912  11.922  20.605   8.384
   49POPC   C3A 4913  11.952  20.388   8.004
   49POPC   C4A 4914  11.842  20.619   7.645
   49POPC   C1B 4915  12.151  20.941   8.737
   49POPC   C2B 4916  12.231  21.061   8.359
   49POPC   C3B 4917  12.139  20.874   7.996
   49POPC   C4B 4918  12.061  21.073   7.623
   50POPC   NC3 4919  44.276   7.069   9.514
   50POPC   PO4 4920  43.728   7.209   9.935
   50POPC   GL1 4921  43.853   7.354   9.425
   50POPC   GL2 4922  44.165   7.542   9.274
   50POPC   C1A 4923  43.765   7.345   8.931
   50POPC   D2A 4924  43.890   7.402   8.477
   50POPC   C3A 4925  43.694   7.370   8.037
   50POPC   C4A 4926  43.775   7.414   7.594
   50POPC   C1B 4927  44.269   7.279   8.886
   50POPC   C2B 4928  44.399   7.262   8.455
   50POPC   C3B 4929  44.214   7.368   8.069
   50POPC   C4B 4930  44.396   7.407   7.692
   51POPC   NC3 4931   1.313  41.865   9.540
   51POPC   PO4 4932   0.801  42.269   9.569
   51POPC   GL1 4933   1.094  42.340   9.177
   51POPC   GL2 4934   1.448  42.193   9.161
   51POPC   C1A 4935   0.944  42.412   8.751
   51POPC   D2A 4936   1.120  42.468   8.338
   51POPC   C3A 4937   0.935  42.319   7.960
   51POPC   C4A 4938   1.098  42.416   7.564
   51POPC   C1B 4939   1.473  42.351   8.746
   51POPC   C2B 4940   1.509  42.163   8.362
   51POPC   C3B 4941   1.446  42.269   7.939
   51POPC   C4B 4942   1.512  42.134   7.513
   52POPC   NC3 4943  29.523  38.006   9.474
   52POPC   PO4 4944  30.128  37.501   9.507
   52POPC   GL1 4945  29.826  37.662   9.187
   52POPC   GL2 4946  29.896  38.028   9.115
   52POPC   C1A 4947  29.877  37.646   8.741
   52POPC   D2A 4948  29.944  37.913   8.414
   52POPC   C3A 4949  29.805  37.740   8.043
   52POPC   C4A 4950  29.596  37.728   7.671
   52POPC   C1B 4951  29.562  38.034   8.792
   52POPC   C2B 4952  29.481  38.139   8.378
   52POPC   C3B 4953  29.312  37.933   8.046
   52POPC   C4B 4954  29.268  38.118   7.684
   53POPC   NC3 4955   1.644  12.341   9.532
   53POPC   PO4 4956   2.152  11.876   9.465
   53POPC   GL1 4957   2.106  12.198   9.168
   53POPC   GL2 4958   1.809  12.335   9.062
   53POPC   C1A 4959   2.226  12.207   8.750
   53POPC   D2A 4960   1.996  12.070   8.421
   53POPC   C3A 4961   2.166  12.090   8.066
   53POPC   C4A 4962   2.074  12.188   7.662
   53POPC   C1B 4963   1.852  12.579   8.680
   53POPC   C2B 4964   2.083  12.575   8.282
   53POPC   C3B 4965   1.892  12.649   7.864
   53POPC   C4B 4966   1.775  12.552   7.432
   54POPC   NC3 4967   2.399  40.682   9.457
   54POPC   PO4 4968   3.019  40.862   9.625
   54POPC   GL1 4969   2.792  40.947   9.244
   54POPC   GL2 4970   2.813  40.582   9.202
   54POPC   C1A 4971   2.584  41.041   8.822
   54POPC   D2A 4972   2.739  40.890   8.390
   54POPC   C3A 4973   2.541  40.846   7.980
   54POPC   C4A 4974   2.387  41.174   7.772
   54POPC   C1B 4975   2.996  40.706   8.817
   54POPC   C2B 4976   2.990  40.469   8.429
   54POPC   C3B 4977   3.025  40.631   8.011
   54POPC   C4B 4978   3.028  40.294   7.735
   55POPC   NC3 4979  34.324   3.907   9.474
   55POPC   PO4 4980  34.762   3.519   9.688
   55POPC   GL1 4981  34.622   3.492   9.249
   55POPC   GL2 4982  34.774   3.192   9.113
   55POPC   C1A 4983  34.639   3.598   8.774
   55POPC   D2A 4984  34.695   3.463   8.309
   55POPC   C3A 4985  34.594   3.721   7.904
   55POPC   C4A 4986  34.653   3.787   7.425
   55POPC   C1B 4987  34.402   3.140   8.826
   55POPC   C2B 4988  34.366   3.062   8.356
   55POPC   C3B 4989  34.428   3.230   7.926
   55POPC   C4B 4990  34.764   3.325   7.608
   56POPC   NC3 4991   8.485  23.584   9.516
   56POPC   PO4 4992   9.086  23.828   9.334
   56POPC   GL1 4993   8.838  23.699   8.984
   56POPC   GL2 4994   8.697  23.395   9.111
   56POPC   C1A 4995   9.053  23.514   8.611
   56POPC   D2A 4996   9.362  23.631   8.290
   56POPC   C3A 4997   9.086  23.728   7.953
   56POPC   C4A 4998   8.984  23.928   7.547
   56POPC   C1B 4999   8.503  23.352   8.745
   56POPC   C2B 5000   8.580  23.552   8.365
   56POPC   C3B 5001   8.541  23.404   7.983
   56POPC   C4B 5002   8.818  23.453   7.627
   57POPC   NC3 5003  37.648   6.109   9.836
   57POPC   PO4 5004  37.742   6.723   9.491
   57POPC   GL1 5005  37.630   6.574   9.083
   57POPC   GL2 5006  37.461   6.264   9.131
   57POPC   C1A 5007  37.720   6.738   8.682
   57POPC   D2A 5008  37.421   6.887   8.358
   57POPC   C3A 5009  37.430   6.747   7.962
   57POPC   C4A 5010  37.861   6.755   7.826
   57POPC   C1B 5011  37.639   6.240   8.695
   57POPC   C2B 5012  37.703   6.426   8.271
   57POPC   C3B 5013  37.639   6.284   7.860
   57POPC   C4B 5014  37.497   6.108   7.451
   58POPC   NC3 5015  35.698  22.262   9.324
   58POPC   PO4 5016  36.247  22.398   9.638
   58POPC   GL1 5017  36.189  22.136   9.245
   58POPC   GL2 5018  36.065  22.388   9.004
   58POPC   C1A 5019  36.222  21.970   8.810
   58POPC   D2A 5020  36.292  22.237   8.446
   58POPC   C3A 5021  36.249  22.049   8.040
   58POPC   C4A 5022  36.271  22.147   7.621
   58POPC   C1B 5023  35.887  22.524   8.619
   58POPC   C2B 5024  36.018  22.748   8.253
   58POPC   C3B 5025  36.114  22.534   7.934
   58POPC   C4B 5026  35.915  22.495   7.548
   59POPC   NC3 5027  37.106  10.375   9.532
   59POPC   PO4 5028  36.869  11.032   9.471
   59POPC   GL1 5029  36.896  10.836   9.093
   59POPC   GL2 5030  36.825  10.484   9.105
   59POPC   C1A 5031  37.021  10.686   8.698
   59POPC   D2A 5032  37.133  10.805   8.335
   59POPC   C3A 5033  36.905  10.664   8.024
   59POPC   C4A 5034  36.988  10.573   7.651
   59POPC   C1B 5035  36.812  10.182   8.734
   59POPC   C2B 5036  36.905  10.138   8.300
   59POPC   C3B 5037  36.896  10.123   7.865
   59POPC   C4B 5038  36.634  10.224   7.532
   60POPC   NC3 5039  35.368  15.658   9.409
   60POPC   PO4 5040  35.821  16.289   9.376
   60POPC   GL1 5041  35.606  15.990   9.116
   60POPC   GL2 5042  35.218  15.987   9.056
   60POPC   C1A 5043  35.643  15.871   8.730
   60POPC   D2A 5044  35.519  16.037   8.350
   60POPC   C3A 5045  35.602  15.875   7.974
   60POPC   C4A 5046  35.504  15.943   7.535
   60POPC   C1B 5047  35.149  15.745   8.678
   60POPC   C2B 5048  35.211  15.660   8.246
   60POPC   C3B 5049  35.072  15.892   7.889
   60POPC   C4B 5050  35.043  15.804   7.441
   61POPC   NC3 5051  33.780  11.044   9.439
   61POPC   PO4 5052  33.645  10.393   9.577
   61POPC   GL1 5053  33.963  10.509   9.258
   61POPC   GL2 5054  34.068  10.168   9.190
   61POPC   C1A 5055  34.123  10.594   8.808
   61POPC   D2A 5056  33.831  10.599   8.429
   61POPC   C3A 5057  34.019  10.603   8.023
   61POPC   C4A 5058  33.939  10.384   7.650
   61POPC   C1B 5059  33.791  10.220   8.792
   61POPC   C2B 5060  33.872  10.070   8.352
   61POPC   C3B 5061  34.028   9.945   7.935
   61POPC   C4B 5062  33.751   9.885   7.578
   62POPC   NC3 5063  12.551  30.280   9.430
   62POPC   PO4 5064  12.992  30.800   9.448
   62POPC   GL1 5065  13.010  31.003   9.097
   62POPC   GL2 5066  12.723  30.792   9.006
   62POPC   C1A 5067  13.108  31.194   8.726
   62POPC   D2A 5068  12.885  31.233   8.318
   62POPC   C3A 5069  12.945  30.863   8.044
   62POPC   C4A 5070  13.121  30.802   7.633
   62POPC   C1B 5071  12.746  30.765   8.553
   62POPC   C2B 5072  12.953  30.410   8.363
   62POPC   C3B 5073  13.146  30.379   7.969
   62POPC   C4B 5074  12.896  30.333   7.608
   63POPC   NC3 5075  12.965  27.764   9.411
   63POPC   PO4 5076  13.280  27.213   9.202
   63POPC   GL1 5077  13.016  27.479   8.995
   63POPC   GL2 5078  12.663  27.577   9.053
   63POPC   C1A 5079  13.156  27.631   8.656
   63POPC   D2A 5080  13.066  27.825   8.323
   63POPC   C3A 5081  13.047  27.500   8.028
   63POPC   C4A 5082  12.915  27.570   7.641
   63POPC   C1B 5083  12.661  27.790   8.651
   63POPC   C2B 5084  12.587  27.680   8.211
   63POPC   C3B 5085  12.509  27.851   7.786
   63POPC   C4B 5086  12.557  27.725   7.326
   64POPC   NC3 5087  12.013  33.239   9.408
   64POPC   PO4 5088  12.545  32.957   9.666
   64POPC   GL1 5089  12.438  33.110   9.186
   64POPC   GL2 5090  12.153  32.901   9.034
   64POPC   C1A 5091  12.162  33.326   8.793
   64POPC   D2A 5092  12.006  33.041   8.471
   64POPC   C3A 5093  12.069  33.155   8.055
   64POPC   C4A 5094  12.199  32.982   7.651
   64POPC   C1B 5095  12.473  32.934   8.693
   64POPC   C2B 5096  12.632  32.731   8.343
   64POPC   C3B 5097  12.377  32.611   7.994
   64POPC   C4B 5098  12.544  32.587   7.595
   65POPC   NC3 5099  25.705   0.333   9.629
   65POPC   PO4 5100  26.231   0.589   9.425
   65POPC   GL1 5101  26.119   0.465   9.086
   65POPC   GL2 5102  25.951   0.175   9.160
   65POPC   C1A 5103  26.336   0.504   8.711
   65POPC   D2A 5104  26.083   0.415   8.367
   65POPC   C3A 5105  26.159   0.592   7.976
   65POPC   C4A 5106  26.019   0.427   7.575
   65POPC   C1B 5107  26.130   0.044   8.775
   65POPC   C2B 5108  25.951  44.917   8.393
   65POPC   C3B 5109  26.062   0.052   7.988
   65POPC   C4B 5110  25.822  44.959   7.622
   66POPC   NC3 5111  20.141  23.742   9.576
   66POPC   PO4 5112  19.514  23.585   9.609
   66POPC   GL1 5113  19.632  23.695   9.203
   66POPC   GL2 5114  19.839  23.403   9.189
   66POPC   C1A 5115  19.474  23.734   8.775
   66POPC   D2A 5116  19.476  23.905   8.364
   66POPC   C3A 5117  19.766  23.693   8.069
   66POPC   C4A 5118  19.899  23.856   7.634
   66POPC   C1B 5119  19.980  23.579   8.783
   66POPC   C2B 5120  20.134  23.424   8.366
   66POPC   C3B 5121  20.226  23.522   7.922
   66POPC   C4B 5122  20.256  23.517   7.467
   67POPC   NC3 5123  22.275  29.703   9.514
   67POPC   PO4 5124  22.030  30.282   9.623
   67POPC   GL1 5125  22.129  30.130   9.233
   67POPC   GL2 5126  22.484  30.083   9.231
   67POPC   C1A 5127  21.996  30.083   8.821
   67POPC   D2A 5128  22.088  29.834   8.477
   67POPC   C3A 5129  21.967  29.950   8.064
   67POPC   C4A 5130  22.060  29.863   7.672
   67POPC   C1B 5131  22.535  29.814   8.906
   67POPC   C2B 5132  22.598  29.873   8.481
   67POPC   C3B 5133  22.464  29.869   8.072
   67POPC   C4B 5134  22.532  30.043   7.708
   68POPC   NC3 5135  16.126  18.960   9.445
   68POPC   PO4 5136  15.583  19.332   9.516
   68POPC   GL1 5137  15.805  19.236   9.110
   68POPC   GL2 5138  16.171  19.205   9.015
   68POPC   C1A 5139  15.814  19.152   8.667
   68POPC   D2A 5140  15.711  18.948   8.269
   68POPC   C3A 5141  15.827  19.256   8.023
   68POPC   C4A 5142  16.120  19.256   7.677
   68POPC   C1B 5143  16.371  19.090   8.700
   68POPC   C2B 5144  16.229  19.160   8.340
   68POPC   C3B 5145  16.202  18.913   8.028
   68POPC   C4B 5146  16.474  18.901   7.683
   69POPC   NC3 5147   2.066  39.844   9.378
   69POPC   PO4 5148   2.259  40.355   9.758
   69POPC   GL1 5149   2.058  40.410   9.211
   69POPC   GL2 5150   1.788  40.186   9.120
   69POPC   C1A 5151   2.122  40.237   8.745
   69POPC   D2A 5152   2.007  40.022   8.401
   69POPC   C3A 5153   2.208  40.039   8.040
   69POPC   C4A 5154   2.059  40.071   7.655
   69POPC   C1B 5155   1.741  39.866   8.814
   69POPC   C2B 5156   1.762  39.581   8.476
   69POPC   C3B 5157   1.954  39.603   8.103
   69POPC   C4B 5158   1.763  39.695   7.747
   70POPC   NC3 5159  27.605  17.608  10.238
   70POPC   PO4 5160  27.894  17.471   9.780
   70POPC   GL1 5161  27.780  17.500   9.253
   70POPC   GL2 5162  27.477  17.316   9.126
   70POPC   C1A 5163  27.651  17.621   8.770
   70POPC   D2A 5164  27.508  17.453   8.359
   70POPC   C3A 5165  27.647  17.592   7.933
   70POPC   C4A 5166  27.903  17.359   7.593
   70POPC   C1B 5167  27.711  17.084   8.798
   70POPC   C2B 5168  27.815  17.054   8.358
   70POPC   C3B 5169  27.613  17.088   7.945
   70POPC   C4B 5170  27.427  17.173   7.521
   71POPC   NC3 5171  26.389  32.895   9.416
   71POPC   PO4 5172  25.660  32.907   9.548
   71POPC   GL1 5173  25.676  33.078   9.140
   71POPC   GL2 5174  26.005  33.147   9.167
   71POPC   C1A 5175  25.823  33.038   8.697
   71POPC   D2A 5176  26.142  33.051   8.379
   71POPC   C3A 5177  26.026  33.227   7.995
   71POPC   C4A 5178  25.748  33.143   7.664
   71POPC   C1B 5179  26.156  33.424   8.846
   71POPC   C2B 5180  26.496  33.391   8.582
   71POPC   C3B 5181  26.500  33.454   8.148
   71POPC   C4B 5182  26.490  33.185   7.809
   72POPC   NC3 5183  34.006  10.114   9.729
   72POPC   PO4 5184  33.810   9.478   9.943
   72POPC   GL1 5185  33.863   9.663   9.469
   72POPC   GL2 5186  33.782   9.358   9.312
   72POPC   C1A 5187  33.844   9.742   8.959
   72POPC   D2A 5188  33.600   9.620   8.526
   72POPC   C3A 5189  33.548   9.716   8.046
   72POPC   C4A 5190  33.487   9.346   7.710
   72POPC   C1B 5191  33.789   9.249   8.875
   72POPC   C2B 5192  33.972   9.257   8.483
   72POPC   C3B 5193  33.797   9.269   8.111
   72POPC   C4B 5194  33.958   9.448   7.760
   73POPC   NC3 5195   6.892   1.979   9.553
   73POPC   PO4 5196   6.342   2.238   9.463
   73POPC   GL1 5197   6.428   2.113   9.068
   73POPC   GL2 5198   6.558   1.825   9.117
   73POPC   C1A 5199   6.537   2.202   8.645
   73POPC   D2A 5200   6.505   1.999   8.266
   73POPC   C3A 5201   6.556   2.171   7.891
   73POPC   C4A 5202   6.680   1.945   7.549
   73POPC   C1B 5203   6.389   1.709   8.705
   73POPC   C2B 5204   6.208   1.601   8.295
   73POPC   C3B 5205   6.451   1.622   7.896
   73POPC   C4B 5206   6.744   1.463   7.619
   74POPC   NC3 5207   5.844  23.188   9.564
   74POPC   PO4 5208   5.511  22.547   9.457
   74POPC   GL1 5209   5.759  22.851   9.211
   74POPC   GL2 5210   5.537  23.052   9.033
   74POPC   C1A 5211   6.018  22.921   8.836
   74POPC   D2A 5212   5.846  22.785   8.415
   74POPC   C3A 5213   5.862  22.948   7.971
   74POPC   C4A 5214   5.684  22.990   7.538
   74POPC   C1B 5215   5.498  22.687   8.804
   74POPC   C2B 5216   5.328  22.593   8.453
   74POPC   C3B 5217   5.511  22.539   8.095
   74POPC   C4B 5218   5.713  22.509   7.712
   75POPC   NC3 5219  44.046  25.526   9.450
   75POPC   PO4 5220  43.659  24.902   9.479
   75POPC   GL1 5221  43.901  25.142   9.160
   75POPC   GL2 5222  44.193  24.975   9.063
   75POPC   C1A 5223  43.832  25.500   8.839
   75POPC   D2A 5224  43.966  25.617   8.405
   75POPC   C3A 5225  43.828  25.485   7.962
   75POPC   C4A 5226  43.894  25.482   7.503
   75POPC   C1B 5227  44.230  25.238   8.741
   75POPC   C2B 5228  44.354  25.284   8.376
   75POPC   C3B 5229  44.246  25.188   8.027
   75POPC   C4B 5230  44.091  25.066   7.691
   76POPC   NC3 5231  17.228  10.603   9.444
   76POPC   PO4 5232  17.791  10.738   9.255
   76POPC   GL1 5233  17.525  10.522   9.010
   76POPC   GL2 5234  17.302  10.818   8.991
   76POPC   C1A 5235  17.476  10.221   8.669
   76POPC   D2A 5236  17.337  10.226   8.233
   76POPC   C3A 5237  17.660  10.305   7.912
   76POPC   C4A 5238  17.908  10.614   7.776
   76POPC   C1B 5239  17.590  10.872   8.628
   76POPC   C2B 5240  17.584  10.692   8.247
   76POPC   C3B 5241  17.332  10.694   7.923
   76POPC   C4B 5242  17.189  10.974   7.619
   77POPC   NC3 5243  36.727  35.693   9.544
   77POPC   PO4 5244  37.163  35.245   9.459
   77POPC   GL1 5245  37.045  35.492   9.123
   77POPC   GL2 5246  36.710  35.436   9.102
   77POPC   C1A 5247  36.994  35.454   8.674
   77POPC   D2A 5248  36.792  35.397   8.269
   77POPC   C3A 5249  37.048  35.489   7.902
   77POPC   C4A 5250  37.355  35.506   7.551
   77POPC   C1B 5251  36.578  35.709   8.764
   77POPC   C2B 5252  36.752  35.884   8.396
   77POPC   C3B 5253  36.619  35.836   7.991
   77POPC   C4B 5254  36.554  35.527   7.719
   78POPC   NC3 5255  39.238  23.481   9.880
   78POPC   PO4 5256  39.060  24.038   9.511
   78POPC   GL1 5257  39.272  23.733   9.255
   78POPC   GL2 5258  39.040  23.529   9.038
   78POPC   C1A 5259  39.439  23.772   8.834
   78POPC   D2A 5260  39.175  23.671   8.491
   78POPC   C3A 5261  39.263  23.803   8.085
   78POPC   C4A 5262  39.550  23.755   7.750
   78POPC   C1B 5263  38.953  23.931   8.865
   78POPC   C2B 5264  39.055  24.176   8.528
   78POPC   C3B 5265  39.017  24.264   8.086
   78POPC   C4B 5266  38.983  24.007   7.703
   79POPC   NC3 5267  16.539  40.876   9.340
   79POPC   PO4 5268  15.882  40.773   9.524
   79POPC   GL1 5269  16.108  40.718   9.129
   79POPC   GL2 5270  16.356  40.434   9.106
   79POPC   C1A 5271  15.944  40.822   8.732
   79POPC   D2A 5272  15.781  40.989   8.358
   79POPC   C3A 5273  16.055  40.951   8.024
   79POPC   C4A 5274  15.804  40.952   7.676
   79POPC   C1B 5275  16.153  40.372   8.697
   79POPC   C2B 5276  15.951  40.490   8.321
   79POPC   C3B 5277  15.829  40.508   7.908
   79POPC   C4B 5278  15.922  40.449   7.481
   80POPC   NC3 5279  11.561  34.620   9.707
   80POPC   PO4 5280  12.259  34.637   9.451
   80POPC   GL1 5281  12.003  34.608   9.092
   80POPC   GL2 5282  11.663  34.553   9.168
   80POPC   C1A 5283  11.898  34.695   8.667
   80POPC   D2A 5284  11.661  34.766   8.303
   80POPC   C3A 5285  11.923  34.772   7.991
   80POPC   C4A 5286  12.227  34.578   7.812
   80POPC   C1B 5287  11.712  34.233   8.858
   80POPC   C2B 5288  11.761  34.238   8.430
   80POPC   C3B 5289  11.874  34.256   8.014
   80POPC   C4B 5290  11.787  34.269   7.599
   81POPC   NC3 5291  15.804  33.240   9.574
   81POPC   PO4 5292  15.821  32.685   9.252
   81POPC   GL1 5293  15.975  33.022   9.031
   81POPC   GL2 5294  16.042  33.362   9.147
   81POPC   C1A 5295  15.944  32.990   8.580
   81POPC   D2A 5296  15.727  32.697   8.285
   81POPC   C3A 5297  15.874  32.789   7.877
   81POPC   C4A 5298  15.720  32.950   7.492
   81POPC   C1B 5299  16.243  33.393   8.784
   81POPC   C2B 5300  16.349  33.273   8.376
   81POPC   C3B 5301  16.376  33.378   7.944
   81POPC   C4B 5302  16.119  33.202   7.628
   82POPC   NC3 5303   3.557  41.870   9.604
   82POPC   PO4 5304   3.463  41.322   9.719
   82POPC   GL1 5305   3.530  41.444   9.272
   82POPC   GL2 5306   3.420  41.765   9.103
   82POPC   C1A 5307   3.509  41.366   8.794
   82POPC   D2A 5308   3.451  41.211   8.339
   82POPC   C3A 5309   3.425  41.503   7.989
   82POPC   C4A 5310   3.091  41.622   7.748
   82POPC   C1B 5311   3.145  41.742   8.687
   82POPC   C2B 5312   3.081  41.841   8.220
   82POPC   C3B 5313   3.352  42.033   7.855
   82POPC   C4B 5314   3.466  42.043   7.399
   83POPC   NC3 5315  25.211  19.381   9.851
   83POPC   PO4 5316  25.400  19.885   9.526
   83POPC   GL1 5317  25.304  19.739   9.145
   83POPC   GL2 5318  25.626  19.579   9.071
   83POPC   C1A 5319  24.972  19.776   8.817
   83POPC   D2A 5320  24.988  19.572   8.420
   83POPC   C3A 5321  24.881  19.709   7.999
   83POPC   C4A 5322  25.178  19.720   7.713
   83POPC   C1B 5323  25.511  19.699   8.656
   83POPC   C2B 5324  25.650  19.854   8.275
   83POPC   C3B 5325  25.697  19.645   7.886
   83POPC   C4B 5326  25.608  19.687   7.424
   84POPC   NC3 5327   3.131   0.823   9.938
   84POPC   PO4 5328   3.570   0.310   9.732
   84POPC   GL1 5329   3.455   0.342   9.244
   84POPC   GL2 5330   3.706   0.565   9.064
   84POPC   C1A 5331   3.385   0.290   8.779
   84POPC   D2A 5332   3.620   0.435   8.399
   84POPC   C3A 5333   3.455   0.250   8.065
   84POPC   C4A 5334   3.507   0.382   7.679
   84POPC   C1B 5335   3.369   0.818   8.897
   84POPC   C2B 5336   3.236   0.716   8.528
   84POPC   C3B 5337   3.300   0.735   8.100
   84POPC   C4B 5338   3.360   0.876   7.710
   85POPC   NC3 5339  26.546  30.223   9.410
   85POPC   PO4 5340  26.951  29.683   9.537
   85POPC   GL1 5341  26.899  29.808   9.116
   85POPC   GL2 5342  26.564  29.913   9.011
   85POPC   C1A 5343  26.920  29.705   8.674
   85POPC   D2A 5344  26.573  29.807   8.403
   85POPC   C3A 5345  26.748  29.682   8.023
   85POPC   C4A 5346  26.747  29.804   7.615
   85POPC   C1B 5347  26.751  30.186   8.709
   85POPC   C2B 5348  26.579  30.329   8.355
   85POPC   C3B 5349  26.490  30.114   8.002
   85POPC   C4B 5350  26.602  30.290   7.659
   86POPC   NC3 5351  17.029  24.759   9.510
   86POPC   PO4 5352  17.693  24.480   9.600
   86POPC   GL1 5353  17.490  24.503   9.155
   86POPC   GL2 5354  17.345  24.806   9.116
   86POPC   C1A 5355  17.599  24.392   8.706
   86POPC   D2A 5356  17.746  24.092   8.383
   86POPC   C3A 5357  17.698  24.150   7.926
   86POPC   C4A 5358  17.345  24.373   7.712
   86POPC   C1B 5359  17.524  24.898   8.720
   86POPC   C2B 5360  17.542  24.723   8.305
   86POPC   C3B 5361  17.771  24.691   7.941
   86POPC   C4B 5362  17.937  24.918   7.603
   87POPC   NC3 5363   2.257  22.783   9.642
   87POPC   PO4 5364   2.851  23.170   9.577
   87POPC   GL1 5365   3.038  22.989   9.171
   87POPC   GL2 5366   3.193  23.244   9.011
   87POPC   C1A 5367   2.996  22.673   8.805
   87POPC   D2A 5368   2.962  22.413   8.405
   87POPC   C3A 5369   2.667  22.623   8.105
   87POPC   C4A 5370   2.677  22.861   7.726
   87POPC   C1B 5371   3.154  23.122   8.560
   87POPC   C2B 5372   2.951  23.067   8.144
   87POPC   C3B 5373   3.068  23.196   7.710
   87POPC   C4B 5374   3.048  23.327   7.264
   88POPC   NC3 5375   6.153   7.621   9.589
   88POPC   PO4 5376   6.513   7.135   9.397
   88POPC   GL1 5377   6.522   7.488   9.129
   88POPC   GL2 5378   6.245   7.689   9.090
   88POPC   C1A 5379   6.548   7.537   8.680
   88POPC   D2A 5380   6.622   7.141   8.459
   88POPC   C3A 5381   6.676   7.137   7.996
   88POPC   C4A 5382   6.794   7.525   7.774
   88POPC   C1B 5383   6.144   7.276   8.891
   88POPC   C2B 5384   6.124   7.323   8.471
   88POPC   C3B 5385   6.384   7.522   8.162
   88POPC   C4B 5386   6.294   7.495   7.723
   89POPC   NC3 5387  23.104  44.325   9.337
   89POPC   PO4 5388  22.693  44.772   9.619
   89POPC   GL1 5389  22.765  44.701   9.185
   89POPC   GL2 5390  22.620   0.007   9.139
   89POPC   C1A 5391  22.813  44.506   8.748
   89POPC   D2A 5392  22.854  44.366   8.299
   89POPC   C3A 5393  23.048  44.618   7.958
   89POPC   C4A 5394  23.003  44.672   7.458
   89POPC   C1B 5395  22.904   0.015   8.800
   89POPC   C2B 5396  22.849  44.906   8.394
   89POPC   C3B 5397  22.836   0.211   8.102
   89POPC   C4B 5398  22.986   0.075   7.746
   90POPC   NC3 5399  10.999   7.771   9.329
   90POPC   PO4 5400  11.429   8.323   9.511
   90POPC   GL1 5401  11.298   8.242   9.119
   90POPC   GL2 5402  11.420   7.928   9.090
   90POPC   C1A 5403  11.328   8.404   8.689
   90POPC   D2A 5404  11.171   8.153   8.388
   90POPC   C3A 5405  11.247   8.101   7.985
   90POPC   C4A 5406  10.948   8.147   7.701
   90POPC   C1B 5407  11.567   7.963   8.702
   90POPC   C2B 5408  11.514   7.760   8.348
   90POPC   C3B 5409  11.779   7.676   8.044
   90POPC   C4B 5410  11.591   7.820   7.742
   91POPC   NC3 5411  29.482  35.552   9.412
   91POPC   PO4 5412  29.142  34.986   9.545
   91POPC   GL1 5413  29.232  35.176   9.142
   91POPC   GL2 5414  29.448  34.920   8.983
   91POPC   C1A 5415  29.418  35.388   8.758
   91POPC   D2A 5416  29.229  35.583   8.410
   91POPC   C3A 5417  29.318  35.492   7.992
   91POPC   C4A 5418  29.110  35.431   7.574
   91POPC   C1B 5419  29.116  34.995   8.678
   91POPC   C2B 5420  29.013  35.137   8.283
   91POPC   C3B 5421  29.163  35.026   7.872
   91POPC   C4B 5422  28.969  34.919   7.467
   92POPC   NC3 5423  34.897  42.993   9.520
   92POPC   PO4 5424  34.374  43.393   9.414
   92POPC   GL1 5425  34.567  43.104   9.118
   92POPC   GL2 5426  34.451  42.740   9.104
   92POPC   C1A 5427  34.571  43.027   8.657
   92POPC   D2A 5428  34.768  43.178   8.318
   92POPC   C3A 5429  34.807  43.278   7.883
   92POPC   C4A 5430  34.637  43.149   7.508
   92POPC   C1B 5431  34.889  42.750   8.914
   92POPC   C2B 5432  35.076  42.765   8.484
   92POPC   C3B 5433  34.952  42.807   8.024
   92POPC   C4B 5434  34.990  42.785   7.549
   93POPC   NC3 5435  12.683  32.160   9.390
   93POPC   PO4 5436  13.355  32.360   9.607
   93POPC   GL1 5437  13.116  32.383   9.165
   93POPC   GL2 5438  13.005  32.031   9.013
   93POPC   C1A 5439  12.928  32.450   8.716
   93POPC   D2A 5440  12.975  32.277   8.288
   93POPC   C3A 5441  12.926  32.558   7.928
   93POPC   C4A 5442  13.027  32.518   7.470
   93POPC   C1B 5443  12.594  32.063   8.747
   93POPC   C2B 5444  12.451  32.223   8.355
   93POPC   C3B 5445  12.620  32.142   7.944
   93POPC   C4B 5446  12.597  31.862   7.624
   94POPC   NC3 5447   3.190  34.756   9.442
   94POPC   PO4 5448   3.772  34.349   9.607
   94POPC   GL1 5449   3.533  34.411   9.226
   94POPC   GL2 5450   3.642  34.704   9.180
   94POPC   C1A 5451   3.542  34.332   8.792
   94POPC   D2A 5452   3.405  34.449   8.389
   94POPC   C3A 5453   3.644  34.439   8.033
   94POPC   C4A 5454   3.349  34.607   7.721
   94POPC   C1B 5455   3.503  34.848   8.787
   94POPC   C2B 5456   3.730  34.850   8.415
   94POPC   C3B 5457   3.560  34.924   8.048
   94POPC   C4B 5458   3.222  35.133   7.897
   95POPC   NC3 5459  38.583  22.834   9.489
   95POPC   PO4 5460  39.010  23.313   9.523
   95POPC   GL1 5461  38.655  23.218   9.169
   95POPC   GL2 5462  38.356  22.942   9.039
   95POPC   C1A 5463  38.734  23.121   8.744
   95POPC   D2A 5464  38.790  23.341   8.377
   95POPC   C3A 5465  38.692  23.099   8.058
   95POPC   C4A 5466  38.461  23.062   7.690
   95POPC   C1B 5467  38.106  22.858   8.643
   95POPC   C2B 5468  38.228  22.860   8.186
   95POPC   C3B 5469  38.138  22.632   7.779
   95POPC   C4B 5470  37.997  22.590   7.298
   96POPC   NC3 5471  31.330  13.082   9.432
   96POPC   PO4 5472  31.744  12.593   9.398
   96POPC   GL1 5473  31.547  12.781   9.083
   96POPC   GL2 5474  31.721  13.099   9.025
   96POPC   C1A 5475  31.390  12.725   8.698
   96POPC   D2A 5476  31.650  12.858   8.371
   96POPC   C3A 5477  31.651  12.629   8.012
   96POPC   C4A 5478  31.657  12.742   7.607
   96POPC   C1B 5479  31.345  13.220   8.775
   96POPC   C2B 5480  31.122  13.075   8.401
   96POPC   C3B 5481  31.249  12.933   8.008
   96POPC   C4B 5482  31.427  13.198   7.746
   97POPC   NC3 5483  30.034  44.042   9.565
   97POPC   PO4 5484  29.501  43.628   9.515
   97POPC   GL1 5485  29.420  43.852   9.130
   97POPC   GL2 5486  29.696  44.072   9.177
   97POPC   C1A 5487  29.551  43.920   8.725
   97POPC   D2A 5488  29.865  43.839   8.459
   97POPC   C3A 5489  29.812  44.018   8.039
   97POPC   C4A 5490  29.662  43.830   7.648
   97POPC   C1B 5491  30.025  44.126   8.859
   97POPC   C2B 5492  30.184  44.230   8.428
   97POPC   C3B 5493  30.308  43.901   8.122
   97POPC   C4B 5494  30.187  43.868   7.702
   98POPC   NC3 5495  24.365  40.874   9.404
   98POPC   PO4 5496  24.769  40.366   9.326
   98POPC   GL1 5497  24.708  40.694   9.044
   98POPC   GL2 5498  24.854  41.048   9.130
   98POPC   C1A 5499  24.383  40.643   8.729
   98POPC   D2A 5500  24.289  40.400   8.368
   98POPC   C3A 5501  24.401  40.643   8.040
   98POPC   C4A 5502  24.296  40.812   7.680
   98POPC   C1B 5503  24.578  41.117   8.800
   98POPC   C2B 5504  24.667  40.958   8.417
   98POPC   C3B 5505  24.533  41.129   8.023
   98POPC   C4B 5506  24.734  41.075   7.658
   99POPC   NC3 5507  10.357  42.598   9.518
   99POPC   PO4 5508  10.383  41.973   9.522
   99POPC   GL1 5509  10.362  42.222   9.160
   99POPC   GL2 5510  10.597  42.521   9.082
   99POPC   C1A 5511  10.225  42.344   8.766
   99POPC   D2A 5512  10.320  42.214   8.376
   99POPC   C3A 5513  10.394  42.488   8.019
   99POPC   C4A 5514  10.364  42.175   7.702
   99POPC   C1B 5515  10.705  42.201   8.765
   99POPC   C2B 5516  10.833  42.358   8.376
   99POPC   C3B 5517  10.827  42.233   8.009
   99POPC   C4B 5518  10.777  42.461   7.651
  100POPC   NC3 5519  27.255  28.562   9.538
  100POPC   PO4 5520  27.561  28.008   9.378
  100POPC   GL1 5521  27.694  28.172   9.020
  100POPC   GL2 5522  27.857  28.481   9.083
  100POPC   C1A 5523  27.465  28.432   8.733
  100POPC   D2A 5524  27.539  28.572   8.322
  100POPC   C3A 5525  27.547  28.206   8.027
  100POPC   C4A 5526  27.735  28.152   7.604
  100POPC   C1B 5527  27.912  28.737   8.699
  100POPC   C2B 5528  28.038  28.764   8.250
  100POPC   C3B 5529  27.835  28.579   7.883
  100POPC   C4B 5530  27.889  28.602   7.403
  101POPC   NC3 5531   7.130   9.906   9.330
  101POPC   PO4 5532   7.748   9.722   9.433
  101POPC   GL1 5533   7.531   9.630   9.068
  101POPC   GL2 5534   7.267   9.390   9.055
  101POPC   C1A 5535   7.630   9.514   8.657
  101POPC   D2A 5536   7.574   9.776   8.309
  101POPC   C3A 5537   7.745   9.644   7.946
  101POPC   C4A 5538   7.662   9.936   7.655
  101POPC   C1B 5539   7.103   9.533   8.677
  101POPC   C2B 5540   7.179   9.468   8.242
  101POPC   C3B 5541   7.245   9.687   7.856
  101POPC   C4B 5542   7.421   9.509   7.468
  102POPC   NC3 5543  13.841  32.568   9.553
  102POPC   PO4 5544  13.369  33.032   9.272
  102POPC   GL1 5545  13.775  32.905   9.135
  102POPC   GL2 5546  13.645  32.569   9.092
  102POPC   C1A 5547  13.870  32.853   8.706
  102POPC   D2A 5548  13.639  32.989   8.370
  102POPC   C3A 5549  13.728  32.997   7.945
  102POPC   C4A 5550  13.554  33.338   7.692
  102POPC   C1B 5551  13.388  32.665   8.741
  102POPC   C2B 5552  13.183  32.745   8.367
  102POPC   C3B 5553  13.407  32.595   8.053
  102POPC   C4B 5554  13.472  32.649   7.642
  103POPC   NC3 5555  40.830   0.003   9.343
  103POPC   PO4 5556  40.760  44.411   9.219
  103POPC   GL1 5557  40.721  44.697   8.937
  103POPC   GL2 5558  40.407  44.826   9.040
  103POPC   C1A 5559  40.862  44.626   8.535
  103POPC   D2A 5560  41.119  44.672   8.189
  103POPC   C3A 5561  40.972  44.595   7.783
  103POPC   C4A 5562  40.578  44.409   7.618
  103POPC   C1B 5563  40.499   0.033   8.639
  103POPC   C2B 5564  40.708   0.031   8.250
  103POPC   C3B 5565  40.564  44.896   7.843
  103POPC   C4B 5566  40.347   0.127   7.497
  104POPC   NC3 5567   4.049   0.388   9.720
  104POPC   PO4 5568   4.618   0.268   9.401
  104POPC   GL1 5569   4.209   0.431   9.149
  104POPC   GL2 5570   4.182   0.782   9.021
  104POPC   C1A 5571   4.026   0.438   8.702
  104POPC   D2A 5572   4.160   0.636   8.304
  104POPC   C3A 5573   4.190   0.433   7.917
  104POPC   C4A 5574   3.990   0.358   7.532
  104POPC   C1B 5575   4.490   0.675   8.698
  104POPC   C2B 5576   4.713   0.621   8.323
  104POPC   C3B 5577   4.771   0.791   7.926
  104POPC   C4B 5578   4.553   0.623   7.586
  105POPC   NC3 5579  20.141  22.468   9.570
  105POPC   PO4 5580  20.753  22.128   9.475
  105POPC   GL1 5581  20.675  22.250   9.052
  105POPC   GL2 5582  20.320  22.284   9.097
  105POPC   C1A 5583  20.645  22.261   8.575
  105POPC   D2A 5584  20.650  21.954   8.251
  105POPC   C3A 5585  20.894  22.115   7.932
  105POPC   C4A 5586  20.962  22.506   7.727
  105POPC   C1B 5587  20.263  21.967   8.729
  105POPC   C2B 5588  20.129  21.913   8.278
  105POPC   C3B 5589  20.319  21.995   7.846
  105POPC   C4B 5590  20.422  21.889   7.389
  106POPC   NC3 5591  19.601   9.272   9.532
  106POPC   PO4 5592  20.052   8.790   9.473
  106POPC   GL1 5593  19.760   8.903   9.101
  106POPC   GL2 5594  19.473   9.159   9.077
  106POPC   C1A 5595  19.526   8.899   8.673
  106POPC   D2A 5596  19.403   8.885   8.273
  106POPC   C3A 5597  19.732   8.663   8.098
  106POPC   C4A 5598  19.778   8.924   7.785
  106POPC   C1B 5599  19.875   9.268   8.785
  106POPC   C2B 5600  19.927   9.078   8.362
  106POPC   C3B 5601  20.113   9.238   7.991
  106POPC   C4B 5602  20.080   9.261   7.547
  107POPC   NC3 5603  41.874   6.885   9.533
  107POPC   PO4 5604  41.387   6.517   9.403
  107POPC   GL1 5605  41.667   6.638   9.121
  107POPC   GL2 5606  41.524   6.916   9.094
  107POPC   C1A 5607  41.796   6.552   8.720
  107POPC   D2A 5608  41.556   6.500   8.357
  107POPC   C3A 5609  41.800   6.528   8.008
  107POPC   C4A 5610  41.590   6.420   7.681
  107POPC   C1B 5611  41.386   6.871   8.697
  107POPC   C2B 5612  41.297   6.951   8.297
  107POPC   C3B 5613  41.342   6.811   7.915
  107POPC   C4B 5614  41.665   6.931   7.657
  108POPC   NC3 5615  16.970  22.984   9.437
  108POPC   PO4 5616  17.593  23.071   9.350
  108POPC   GL1 5617  17.470  22.915   9.039
  108POPC   GL2 5618  17.327  22.633   9.231
  108POPC   C1A 5619  17.213  23.146   8.756
  108POPC   D2A 5620  17.312  23.343   8.375
  108POPC   C3A 5621  17.553  23.171   8.045
  108POPC   C4A 5622  17.236  23.267   7.722
  108POPC   C1B 5623  17.128  22.631   8.837
  108POPC   C2B 5624  17.321  22.738   8.476
  108POPC   C3B 5625  17.196  22.833   8.105
  108POPC   C4B 5626  17.439  22.710   7.778
  109POPC   NC3 5627  11.335   2.839   9.671
  109POPC   PO4 5628  10.825   2.525   9.365
  109POPC   GL1 5629  11.189   2.788   9.157
  109POPC   GL2 5630  11.514   2.989   9.210
  109POPC   C1A 5631  11.134   3.058   8.788
  109POPC   D2A 5632  11.330   3.066   8.399
  109POPC   C3A 5633  11.160   2.795   8.135
  109POPC   C4A 5634  11.159   2.781   7.708
  109POPC   C1B 5635  11.558   2.782   8.827
  109POPC   C2B 5636  11.553   2.594   8.449
  109POPC   C3B 5637  11.537   2.478   8.037
  109POPC   C4B 5638  11.470   2.349   7.651
  110POPC   NC3 5639  29.320   9.207   9.651
  110POPC   PO4 5640  28.900   9.779   9.707
  110POPC   GL1 5641  29.026   9.655   9.282
  110POPC   GL2 5642  29.343   9.735   9.126
  110POPC   C1A 5643  28.901   9.801   8.858
  110POPC   D2A 5644  28.842   9.973   8.443
  110POPC   C3A 5645  28.982   9.796   8.063
  110POPC   C4A 5646  28.779   9.864   7.652
  110POPC   C1B 5647  29.555   9.655   8.727
  110POPC   C2B 5648  29.517   9.770   8.297
  110POPC   C3B 5649  29.427   9.611   7.880
  110POPC   C4B 5650  29.482   9.537   7.404
  111POPC   NC3 5651  19.809   3.072   9.326
  111POPC   PO4 5652  20.126   2.563   9.501
  111POPC   GL1 5653  20.118   2.716   9.070
  111POPC   GL2 5654  20.337   2.988   9.020
  111POPC   C1A 5655  19.874   2.763   8.668
  111POPC   D2A 5656  19.617   2.562   8.339
  111POPC   C3A 5657  19.856   2.373   8.018
  111POPC   C4A 5658  19.831   2.431   7.559
  111POPC   C1B 5659  20.362   2.874   8.590
  111POPC   C2B 5660  20.190   2.905   8.206
  111POPC   C3B 5661  19.836   2.874   7.978
  111POPC   C4B 5662  19.574   3.083   7.719
  112POPC   NC3 5663   3.289  11.039   9.522
  112POPC   PO4 5664   3.783  11.422   9.341
  112POPC   GL1 5665   3.758  11.309   8.976
  112POPC   GL2 5666   3.433  11.182   9.053
  112POPC   C1A 5667   3.581  11.471   8.659
  112POPC   D2A 5668   3.330  11.263   8.400
  112POPC   C3A 5669   3.492  11.339   7.998
  112POPC   C4A 5670   3.419  11.605   7.650
  112POPC   C1B 5671   3.122  10.969   8.818
  112POPC   C2B 5672   3.010  10.856   8.407
  112POPC   C3B 5673   3.165  10.922   7.997
  112POPC   C4B 5674   2.877  10.969   7.658
  113POPC   NC3 5675   0.650  30.986   9.630
  113POPC   PO4 5676   0.110  30.567   9.452
  113POPC   GL1 5677   0.412  30.823   9.171
  113POPC   GL2 5678   0.738  31.042   9.147
  113POPC   C1A 5679   0.251  30.894   8.776
  113POPC   D2A 5680   0.080  30.756   8.412
  113POPC   C3A 5681   0.296  30.661   8.055
  113POPC   C4A 5682   0.071  30.425   7.774
  113POPC   C1B 5683   0.725  31.072   8.739
  113POPC   C2B 5684   0.660  30.698   8.460
  113POPC   C3B 5685   0.821  30.667   8.033
  113POPC   C4B 5686   0.725  30.745   7.609
  114POPC   NC3 5687  16.253  33.809   9.406
  114POPC   PO4 5688  16.885  33.782   9.607
  114POPC   GL1 5689  16.729  33.809   9.160
  114POPC   GL2 5690  17.034  33.726   8.970
  114POPC   C1A 5691  16.622  33.726   8.702
  114POPC   D2A 5692  16.954  33.804   8.427
  114POPC   C3A 5693  16.995  33.645   8.022
  114POPC   C4A 5694  16.665  33.822   7.834
  114POPC   C1B 5695  16.958  34.164   8.837
  114POPC   C2B 5696  17.045  34.328   8.447
  114POPC   C3B 5697  17.003  34.170   8.042
  114POPC   C4B 5698  16.882  34.254   7.632
  115POPC   NC3 5699  14.296  33.677   9.469
  115POPC   PO4 5700  14.437  34.303   9.570
  115POPC   GL1 5701  14.201  34.095   9.207
  115POPC   GL2 5702  14.515  34.000   9.083
  115POPC   C1A 5703  14.152  33.760   8.819
  115POPC   D2A 5704  14.420  33.738   8.481
  115POPC   C3A 5705  14.337  33.605   8.076
  115POPC   C4A 5706  14.241  33.923   7.797
  115POPC   C1B 5707  14.598  34.222   8.698
  115POPC   C2B 5708  14.509  34.189   8.254
  115POPC   C3B 5709  14.770  33.924   8.055
  115POPC   C4B 5710  14.785  33.607   7.795
  116POPC   NC3 5711  11.158   4.774   9.642
  116POPC   PO4 5712  11.511   4.168   9.551
  116POPC   GL1 5713  11.331   4.237   9.152
  116POPC   GL2 5714  11.024   4.413   9.247
  116POPC   C1A 5715  11.406   4.382   8.715
  116POPC   D2A 5716  11.354   4.127   8.342
  116POPC   C3A 5717  11.505   4.324   7.973
  116POPC   C4A 5718  11.303   4.555   7.657
  116POPC   C1B 5719  10.930   4.269   8.816
  116POPC   C2B 5720  10.869   4.472   8.429
  116POPC   C3B 5721  10.981   4.360   8.042
  116POPC   C4B 5722  10.859   4.293   7.635
  117POPC   NC3 5723  42.758  41.068   9.521
  117POPC   PO4 5724  43.171  40.491   9.514
  117POPC   GL1 5725  42.932  40.673   9.215
  117POPC   GL2 5726  43.081  40.947   9.154
  117POPC   C1A 5727  42.904  40.707   8.754
  117POPC   D2A 5728  42.870  40.450   8.405
  117POPC   C3A 5729  42.876  40.608   8.020
  117POPC   C4A 5730  43.166  40.595   7.719
  117POPC   C1B 5731  43.351  40.993   8.835
  117POPC   C2B 5732  43.399  40.844   8.427
  117POPC   C3B 5733  43.300  40.985   8.018
  117POPC   C4B 5734  42.895  41.061   7.778
  118POPC   NC3 5735  16.236  32.706   9.432
  118POPC   PO4 5736  16.740  32.301   9.535
  118POPC   GL1 5737  16.787  32.256   9.134
  118POPC   GL2 5738  16.540  32.046   9.098
  118POPC   C1A 5739  16.668  32.480   8.756
  118POPC   D2A 5740  16.618  32.355   8.353
  118POPC   C3A 5741  16.773  32.478   7.981
  118POPC   C4A 5742  16.847  32.222   7.603
  118POPC   C1B 5743  16.630  31.975   8.715
  118POPC   C2B 5744  16.347  31.947   8.360
  118POPC   C3B 5745  16.573  32.008   7.992
  118POPC   C4B 5746  16.544  31.829   7.630
  119POPC   NC3 5747  21.164  17.775   9.668
  119POPC   PO4 5748  21.573  17.317   9.522
  119POPC   GL1 5749  21.384  17.560   9.240
  119POPC   GL2 5750  21.052  17.415   9.269
  119POPC   C1A 5751  21.276  17.644   8.838
  119POPC   D2A 5752  21.360  17.393   8.488
  119POPC   C3A 5753  21.525  17.581   8.114
  119POPC   C4A 5754  21.232  17.557   7.783
  119POPC   C1B 5755  20.923  17.267   8.849
  119POPC   C2B 5756  20.932  17.068   8.416
  119POPC   C3B 5757  20.954  17.169   7.946
  119POPC   C4B 5758  20.885  17.035   7.490
  120POPC   NC3 5759  24.827  33.675   9.846
  120POPC   PO4 5760  25.365  33.862   9.511
  120POPC   GL1 5761  25.205  33.895   9.087
  120POPC   GL2 5762  24.936  33.659   9.139
  120POPC   C1A 5763  25.397  33.961   8.659
  120POPC   D2A 5764  25.331  33.728   8.290
  120POPC   C3A 5765  25.289  33.910   7.849
  120POPC   C4A 5766  25.318  33.970   7.397
  120POPC   C1B 5767  25.040  33.574   8.705
  120POPC   C2B 5768  24.984  33.336   8.305
  120POPC   C3B 5769  25.012  33.507   7.929
  120POPC   C4B 5770  24.903  33.709   7.565
  121POPC   NC3 5771   0.838  35.964   9.437
  121POPC   PO4 5772   1.534  36.187   9.446
  121POPC   GL1 5773   1.233  36.157   9.126
  121POPC   GL2 5774   0.944  36.347   9.053
  121POPC   C1A 5775   1.158  35.887   8.799
  121POPC   D2A 5776   0.997  35.745   8.424
  121POPC   C3A 5777   1.228  35.840   8.079
  121POPC   C4A 5778   1.319  35.720   7.688
  121POPC   C1B 5779   1.036  36.385   8.646
  121POPC   C2B 5780   1.223  36.351   8.249
  121POPC   C3B 5781   1.101  36.308   7.822
  121POPC   C4B 5782   1.098  36.615   7.476
  122POPC   NC3 5783   2.452  24.633   9.431
  122POPC   PO4 5784   3.031  24.514   9.279
  122POPC   GL1 5785   2.705  24.477   9.015
  122POPC   GL2 5786   2.646  24.812   9.005
  122POPC   C1A 5787   2.566  24.446   8.602
  122POPC   D2A 5788   2.525  24.662   8.215
  122POPC   C3A 5789   2.564  24.424   7.815
  122POPC   C4A 5790   2.909  24.216   7.567
  122POPC   C1B 5791   2.952  24.795   8.665
  122POPC   C2B 5792   2.917  24.988   8.260
  122POPC   C3B 5793   2.999  24.629   7.994
  122POPC   C4B 5794   3.306  24.534   7.721
  123POPC   NC3 5795  44.732  28.706   9.499
  123POPC   PO4 5796  44.339  29.283   9.350
  123POPC   GL1 5797  44.760  29.171   9.212
  123POPC   GL2 5798  44.816  28.858   9.038
  123POPC   C1A 5799  44.875  29.341   8.817
  123POPC   D2A 5800  44.595  29.303   8.484
  123POPC   C3A 5801  44.678  28.933   8.251
  123POPC   C4A 5802  44.738  28.878   7.831
  123POPC   C1B 5803  44.454  28.924   8.797
  123POPC   C2B 5804  44.206  28.967   8.425
  123POPC   C3B 5805  44.191  28.897   7.969
  123POPC   C4B 5806  44.344  29.059   7.577
  124POPC   NC3 5807  30.464  32.568   9.322
  124POPC   PO4 5808  30.517  32.029   9.754
  124POPC   GL1 5809  30.796  32.180   9.324
  124POPC   GL2 5810  31.015  32.511   9.291
  124POPC   C1A 5811  30.776  32.261   8.842
  124POPC   D2A 5812  30.636  32.019   8.487
  124POPC   C3A 5813  30.732  32.108   8.074
  124POPC   C4A 5814  30.406  32.135   7.818
  124POPC   C1B 5815  31.118  32.624   8.842
  124POPC   C2B 5816  30.973  32.469   8.359
  124POPC   C3B 5817  30.921  32.519   7.829
  124POPC   C4B 5818  30.892  32.557   7.330
  125POPC   NC3 5819  18.668   9.662   9.180
  125POPC   PO4 5820  19.258   9.605   9.473
  125POPC   GL1 5821  19.145   9.583   9.064
  125POPC   GL2 5822  19.216   9.941   9.010
  125POPC   C1A 5823  18.987   9.685   8.634
  125POPC   D2A 5824  19.253   9.973   8.440
  125POPC   C3A 5825  19.339   9.827   8.036
  125POPC   C4A 5826  19.140   9.677   7.713
  125POPC   C1B 5827  18.860  10.142   8.776
  125POPC   C2B 5828  18.759  10.047   8.329
  125POPC   C3B 5829  18.856  10.073   7.873
  125POPC   C4B 5830  18.781   9.898   7.426
  126POPC   NC3 5831   3.184   9.908   9.958
  126POPC   PO4 5832   3.815   9.661   9.664
  126POPC   GL1 5833   3.627   9.737   9.265
  126POPC   GL2 5834   3.301   9.598   9.221
  126POPC   C1A 5835   3.579   9.849   8.840
  126POPC   D2A 5836   3.302   9.957   8.507
  126POPC   C3A 5837   3.434   9.737   8.145
  126POPC   C4A 5838   3.665   9.928   7.798
  126POPC   C1B 5839   3.184   9.486   8.777
  126POPC   C2B 5840   3.354   9.262   8.405
  126POPC   C3B 5841   3.185   9.297   7.983
  126POPC   C4B 5842   3.354   9.524   7.638
  127POPC   NC3 5843   3.374  11.650   9.410
  127POPC   PO4 5844   3.807  12.131   9.544
  127POPC   GL1 5845   3.600  12.073   9.141
  127POPC   GL2 5846   3.775  11.827   9.017
  127POPC   C1A 5847   3.297  11.963   8.770
  127POPC   D2A 5848   3.330  11.781   8.333
  127POPC   C3A 5849   3.495  11.983   7.978
  127POPC   C4A 5850   3.289  12.108   7.620
  127POPC   C1B 5851   3.773  11.951   8.576
  127POPC   C2B 5852   3.839  11.656   8.254
  127POPC   C3B 5853   3.912  11.706   7.852
  127POPC   C4B 5854   3.763  11.933   7.489
  128POPC   NC3 5855  25.057  28.048   9.472
  128POPC   PO4 5856  25.583  28.470   9.461
  128POPC   GL1 5857  25.347  28.572   9.112
  128POPC   GL2 5858  25.027  28.422   9.113
  128POPC   C1A 5859  25.399  28.404   8.712
  128POPC   D2A 5860  25.404  28.165   8.355
  128POPC   C3A 5861  25.427  28.482   8.052
  128POPC   C4A 5862  25.409  28.428   7.615
  128POPC   C1B 5863  24.949  28.677   8.739
  128POPC   C2B 5864  25.084  28.791   8.306
  128POPC   C3B 5865  25.023  28.717   7.840
  128POPC   C4B 5866  25.183  28.820   7.413
  129POPC   NC3 5867  43.537  19.880   9.593
  129POPC   PO4 5868  44.191  19.753   9.557
  129POPC   GL1 5869  44.042  19.694   9.172
  129POPC   GL2 5870  44.029  20.055   9.138
  129POPC   C1A 5871  44.093  19.681   8.734
  129POPC   D2A 5872  44.000  20.003   8.429
  129POPC   C3A 5873  43.909  19.786   8.071
  129POPC   C4A 5874  43.888  19.583   7.687
  129POPC   C1B 5875  43.686  20.016   8.847
  129POPC   C2B 5876  43.564  20.301   8.495
  129POPC   C3B 5877  43.727  20.297   8.081
  129POPC   C4B 5878  43.940  20.148   7.709
  130POPC   NC3 5879  39.066  13.805   9.374
  130POPC   PO4 5880  39.306  13.211   9.493
  130POPC   GL1 5881  39.321  13.387   9.093
  130POPC   GL2 5882  39.518  13.666   9.168
  130POPC   C1A 5883  39.119  13.524   8.693
  130POPC   D2A 5884  39.078  13.346   8.287
  130POPC   C3A 5885  39.113  13.524   7.878
  130POPC   C4A 5886  39.283  13.903   7.756
  130POPC   C1B 5887  39.588  13.707   8.729
  130POPC   C2B 5888  39.421  13.758   8.306
  130POPC   C3B 5889  39.619  13.584   7.970
  130POPC   C4B 5890  39.649  13.424   7.570
  131POPC   NC3 5891  26.395  28.356   9.575
  131POPC   PO4 5892  27.029  28.199   9.717
  131POPC   GL1 5893  26.973  28.186   9.229
  131POPC   GL2 5894  26.637  28.309   9.112
  131POPC   C1A 5895  26.963  28.062   8.764
  131POPC   D2A 5896  26.768  27.979   8.362
  131POPC   C3A 5897  26.798  28.286   8.014
  131POPC   C4A 5898  27.148  28.561   7.966
  131POPC   C1B 5899  26.827  28.566   8.749
  131POPC   C2B 5900  26.817  28.781   8.319
  131POPC   C3B 5901  26.674  28.779   7.869
  131POPC   C4B 5902  26.902  28.558   7.505
  132POPC   NC3 5903  44.535   1.691   9.531
  132POPC   PO4 5904   0.038   2.159   9.580
  132POPC   GL1 5905  44.805   2.071   9.234
  132POPC   GL2 5906  44.916   1.737   9.191
  132POPC   C1A 5907  44.732   2.129   8.800
  132POPC   D2A 5908  44.478   2.000   8.444
  132POPC   C3A 5909  44.662   2.196   8.092
  132POPC   C4A 5910  44.671   2.063   7.662
  132POPC   C1B 5911  44.644   1.625   8.849
  132POPC   C2B 5912  44.689   1.528   8.418
  132POPC   C3B 5913  44.690   1.689   8.026
  132POPC   C4B 5914  44.411   1.602   7.719
  133POPC   NC3 5915   1.019  40.984   9.668
  133POPC   PO4 5916   1.273  40.355   9.611
  133POPC   GL1 5917   1.129  40.686   9.269
  133POPC   GL2 5918   1.289  41.036   9.230
  133POPC   C1A 5919   1.215  40.669   8.833
  133POPC   D2A 5920   1.081  40.504   8.431
  133POPC   C3A 5921   1.292  40.611   8.050
  133POPC   C4A 5922   1.150  40.459   7.668
  133POPC   C1B 5923   1.108  41.176   8.828
  133POPC   C2B 5924   1.053  41.317   8.402
  133POPC   C3B 5925   1.070  41.097   8.001
  133POPC   C4B 5926   1.237  40.952   7.613
  134POPC   NC3 5927  34.922  17.038   9.252
  134POPC   PO4 5928  34.484  17.472   9.602
  134POPC   GL1 5929  34.653  17.540   9.183
  134POPC   GL2 5930  34.378  17.705   9.055
  134POPC   C1A 5931  34.714  17.392   8.722
  134POPC   D2A 5932  34.847  17.611   8.329
  134POPC   C3A 5933  34.708  17.453   7.915
  134POPC   C4A 5934  34.772  17.071   7.659
  134POPC   C1B 5935  34.542  17.862   8.691
  134POPC   C2B 5936  34.331  17.699   8.337
  134POPC   C3B 5937  34.228  17.676   7.918
  134POPC   C4B 5938  34.144  17.778   7.517
  135POPC   NC3 5939  26.666  39.538   9.252
  135POPC   PO4 5940  27.004  38.980   9.488
  135POPC   GL1 5941  26.936  39.085   9.118
  135POPC   GL2 5942  26.584  39.035   9.144
  135POPC   C1A 5943  27.086  39.352   8.789
  135POPC   D2A 5944  26.951  39.595   8.454
  135POPC   C3A 5945  27.123  39.420   8.058
  135POPC   C4A 5946  26.911  39.504   7.666
  135POPC   C1B 5947  26.639  39.105   8.716
  135POPC   C2B 5948  26.891  39.107   8.386
  135POPC   C3B 5949  26.676  39.194   8.053
  135POPC   C4B 5950  26.714  39.040   7.664
  136POPC   NC3 5951  30.855  18.296   9.641
  136POPC   PO4 5952  30.161  18.457   9.564
  136POPC   GL1 5953  30.427  18.334   9.206
  136POPC   GL2 5954  30.788  18.285   9.159
  136POPC   C1A 5955  30.542  18.549   8.801
  136POPC   D2A 5956  30.497  18.686   8.367
  136POPC   C3A 5957  30.602  18.328   8.150
  136POPC   C4A 5958  30.675  18.220   7.752
  136POPC   C1B 5959  31.075  18.055   8.901
  136POPC   C2B 5960  30.943  18.057   8.482
  136POPC   C3B 5961  30.877  17.883   8.080
  136POPC   C4B 5962  31.095  17.854   7.705
  137POPC   NC3 5963   5.588  20.567   9.431
  137POPC   PO4 5964   6.077  20.915   9.732
  137POPC   GL1 5965   5.905  20.944   9.276
  137POPC   GL2 5966   6.200  21.040   9.117
  137POPC   C1A 5967   5.806  20.750   8.844
  137POPC   D2A 5968   5.595  20.713   8.474
  137POPC   C3A 5969   5.742  20.545   8.105
  137POPC   C4A 5970   5.863  20.829   7.828
  137POPC   C1B 5971   6.273  20.931   8.724
  137POPC   C2B 5972   6.077  20.866   8.366
  137POPC   C3B 5973   6.341  20.837   8.036
  137POPC   C4B 5974   6.324  20.655   7.674
  138POPC   NC3 5975  27.104   7.726   9.522
  138POPC   PO4 5976  27.009   7.093   9.366
  138POPC   GL1 5977  26.752   7.388   9.131
  138POPC   GL2 5978  26.786   7.769   9.138
  138POPC   C1A 5979  26.653   7.502   8.707
  138POPC   D2A 5980  26.603   7.491   8.291
  138POPC   C3A 5981  26.890   7.363   7.997
  138POPC   C4A 5982  26.542   7.369   7.723
  138POPC   C1B 5983  26.963   7.956   8.780
  138POPC   C2B 5984  26.785   7.979   8.363
  138POPC   C3B 5985  26.700   7.850   7.938
  138POPC   C4B 5986  26.903   7.674   7.571
  139POPC   NC3 5987  28.063   7.892   9.358
  139POPC   PO4 5988  28.514   7.326   9.497
  139POPC   GL1 5989  28.536   7.453   9.095
  139POPC   GL2 5990  28.203   7.525   9.022
  139POPC   C1A 5991  28.622   7.537   8.677
  139POPC   D2A 5992  28.379   7.643   8.344
  139POPC   C3A 5993  28.382   7.372   8.008
  139POPC   C4A 5994  28.711   7.296   7.724
  139POPC   C1B 5995  27.974   7.716   8.677
  139POPC   C2B 5996  27.891   7.575   8.228
  139POPC   C3B 5997  28.036   7.707   7.803
  139POPC   C4B 5998  28.158   7.922   7.403
  140POPC   NC3 5999  17.951  44.386   9.685
  140POPC   PO4 6000  18.130  44.965   9.507
  140POPC   GL1 6001  18.384  44.704   9.212
  140POPC   GL2 6002  18.135  44.488   9.150
  140POPC   C1A 6003  18.472  44.394   8.791
  140POPC   D2A 6004  18.566  44.424   8.321
  140POPC   C3A 6005  18.277  44.433   7.983
  140POPC   C4A 6006  18.326  44.621   7.592
  140POPC   C1B 6007  18.164  44.786   8.746
  140POPC   C2B 6008  18.274  44.865   8.290
  140POPC   C3B 6009  18.145  44.988   7.869
  140POPC   C4B 6010  17.973  44.979   7.418
  141POPC   NC3 6011  17.341   8.744   9.352
  141POPC   PO4 6012  17.647   9.327   9.438
  141POPC   GL1 6013  17.487   9.208   9.051
  141POPC   GL2 6014  17.672   8.892   8.967
  141POPC   C1A 6015  17.498   9.234   8.602
  141POPC   D2A 6016  17.749   8.901   8.449
  141POPC   C3A 6017  17.744   8.930   8.036
  141POPC   C4A 6018  17.908   9.028   7.656
  141POPC   C1B 6019  17.270   8.794   8.714
  141POPC   C2B 6020  17.064   8.677   8.332
  141POPC   C3B 6021  17.259   8.716   7.951
  141POPC   C4B 6022  17.031   8.793   7.597
  142POPC   NC3 6023  30.227  41.624   9.392
  142POPC   PO4 6024  30.868  41.486   9.439
  142POPC   GL1 6025  30.629  41.482   9.099
  142POPC   GL2 6026  30.849  41.741   8.978
  142POPC   C1A 6027  30.414  41.661   8.742
  142POPC   D2A 6028  30.694  41.612   8.378
  142POPC   C3A 6029  30.516  41.714   7.994
  142POPC   C4A 6030  30.360  41.562   7.637
  142POPC   C1B 6031  31.031  41.972   8.656
  142POPC   C2B 6032  31.143  41.858   8.269
  142POPC   C3B 6033  31.008  41.727   7.920
  142POPC   C4B 6034  31.148  41.751   7.537
  143POPC   NC3 6035  15.717  20.610   9.492
  143POPC   PO4 6036  15.112  20.869   9.585
  143POPC   GL1 6037  15.224  20.778   9.185
  143POPC   GL2 6038  15.307  20.457   9.178
  143POPC   C1A 6039  15.192  20.948   8.778
  143POPC   D2A 6040  15.322  20.871   8.380
  143POPC   C3A 6041  15.077  21.016   8.033
  143POPC   C4A 6042  15.307  20.907   7.670
  143POPC   C1B 6043  15.357  20.248   8.780
  143POPC   C2B 6044  15.151  20.373   8.401
  143POPC   C3B 6045  15.192  20.496   8.001
  143POPC   C4B 6046  15.292  20.131   7.838
  144POPC   NC3 6047  32.443  15.487   9.482
  144POPC   PO4 6048  32.071  14.967   9.592
  144POPC   GL1 6049  32.114  15.077   9.173
  144POPC   GL2 6050  32.448  15.109   9.122
  144POPC   C1A 6051  32.096  15.170   8.748
  144POPC   D2A 6052  32.397  15.188   8.447
  144POPC   C3A 6053  32.193  15.150   8.075
  144POPC   C4A 6054  32.236  15.267   7.652
  144POPC   C1B 6055  32.648  15.425   8.857
  144POPC   C2B 6056  32.754  15.542   8.432
  144POPC   C3B 6057  32.670  15.354   8.017
  144POPC   C4B 6058  32.710  15.461   7.586
  145POPC   NC3 6059  15.504  18.199   9.356
  145POPC   PO4 6060  16.168  18.491   9.478
  145POPC   GL1 6061  15.998  18.416   9.081
  145POPC   GL2 6062  15.959  18.741   8.998
  145POPC   C1A 6063  15.755  18.316   8.689
  145POPC   D2A 6064  15.589  18.053   8.381
  145POPC   C3A 6065  15.935  17.868   8.158
  145POPC   C4A 6066  16.222  18.012   7.830
  145POPC   C1B 6067  16.039  18.716   8.569
  145POPC   C2B 6068  15.969  18.453   8.224
  145POPC   C3B 6069  15.859  18.600   7.841
  145POPC   C4B 6070  15.970  18.797   7.451
  146POPC   NC3 6071   9.124  26.959   9.604
  146POPC   PO4 6072   8.596  26.505   9.518
  146POPC   GL1 6073   8.901  26.565   9.174
  146POPC   GL2 6074   8.881  26.950   9.158
  146POPC   C1A 6075   8.965  26.713   8.726
  146POPC   D2A 6076   8.981  26.956   8.340
  146POPC   C3A 6077   8.896  26.805   7.958
  146POPC   C4A 6078   9.111  26.910   7.589
  146POPC   C1B 6079   8.872  27.214   8.782
  146POPC   C2B 6080   8.701  27.406   8.396
  146POPC   C3B 6081   8.811  27.337   7.973
  146POPC   C4B 6082   8.636  27.089   7.623
  147POPC   NC3 6083   8.786   4.097   9.374
  147POPC   PO4 6084   9.269   4.492   9.610
  147POPC   GL1 6085   9.108   4.515   9.182
  147POPC   GL2 6086   9.060   4.171   8.969
  147POPC   C1A 6087   9.208   4.602   8.766
  147POPC   D2A 6088   9.004   4.325   8.465
  147POPC   C3A 6089   9.012   4.485   8.076
  147POPC   C4A 6090   8.852   4.417   7.661
  147POPC   C1B 6091   8.611   4.160   8.770
  147POPC   C2B 6092   8.416   4.156   8.370
  147POPC   C3B 6093   8.648   4.097   7.996
  147POPC   C4B 6094   8.468   4.085   7.571
  148POPC   NC3 6095  18.546  31.574   9.288
  148POPC   PO4 6096  19.050  31.251   9.666
  148POPC   GL1 6097  19.035  31.271   9.200
  148POPC   GL2 6098  18.735  31.134   9.130
  148POPC   C1A 6099  19.157  31.470   8.772
  148POPC   D2A 6100  19.404  31.374   8.359
  148POPC   C3A 6101  19.203  31.361   7.922
  148POPC   C4A 6102  19.104  31.799   7.713
  148POPC   C1B 6103  18.697  31.247   8.726
  148POPC   C2B 6104  18.899  31.277   8.356
  148POPC   C3B 6105  18.778  31.589   8.085
  148POPC   C4B 6106  18.651  31.516   7.705
  149POPC   NC3 6107  14.955  30.948   9.230
  149POPC   PO4 6108  15.194  30.578   9.765
  149POPC   GL1 6109  15.362  30.625   9.279
  149POPC   GL2 6110  15.486  30.965   9.128
  149POPC   C1A 6111  15.274  30.551   8.793
  149POPC   D2A 6112  14.904  30.733   8.506
  149POPC   C3A 6113  15.000  30.719   8.072
  149POPC   C4A 6114  15.383  30.506   7.909
  149POPC   C1B 6115  15.300  31.034   8.687
  149POPC   C2B 6116  15.233  31.148   8.244
  149POPC   C3B 6117  15.396  31.011   7.855
  149POPC   C4B 6118  15.456  31.084   7.411
  150POPC   NC3 6119  14.116  30.854   9.436
  150POPC   PO4 6120  14.701  30.555   9.303
  150POPC   GL1 6121  14.461  30.807   9.039
  150POPC   GL2 6122  14.151  30.649   8.951
  150POPC   C1A 6123  14.458  30.982   8.628
  150POPC   D2A 6124  14.599  31.257   8.296
  150POPC   C3A 6125  14.388  31.091   7.952
  150POPC   C4A 6126  14.606  30.792   7.737
  150POPC   C1B 6127  14.385  30.482   8.605
  150POPC   C2B 6128  14.437  30.612   8.183
  150POPC   C3B 6129  14.400  30.346   7.792
  150POPC   C4B 6130  14.221  30.287   7.384
  151POPC   NC3 6131  21.871  23.016   9.524
  151POPC   PO4 6132  21.136  23.047   9.573
  151POPC   GL1 6133  21.330  22.948   9.202
  151POPC   GL2 6134  21.608  23.199   9.142
  151POPC   C1A 6135  21.404  22.916   8.777
  151POPC   D2A 6136  21.545  22.722   8.441
  151POPC   C3A 6137  21.443  22.962   8.128
  151POPC   C4A 6138  21.454  22.815   7.756
  151POPC   C1B 6139  21.658  23.403   8.765
  151POPC   C2B 6140  21.599  23.459   8.343
  151POPC   C3B 6141  21.698  23.354   7.919
  151POPC   C4B 6142  21.498  23.277   7.491
  152POPC   NC3 6143   3.313  23.321   9.515
  152POPC   PO4 6144   3.776  23.959   9.468
  152POPC   GL1 6145   3.808  23.858   9.059
  152POPC   GL2 6146   3.497  23.670   9.105
  152POPC   C1A 6147   3.610  23.922   8.668
  152POPC   D2A 6148   3.255  23.862   8.457
  152POPC   C3A 6149   3.290  23.707   8.065
  152POPC   C4A 6150   3.629  23.786   7.831
  152POPC   C1B 6151   3.562  23.431   8.749
  152POPC   C2B 6152   3.650  23.480   8.356
  152POPC   C3B 6153   3.444  23.223   8.112
  152POPC   C4B 6154   3.559  23.301   7.737
  153POPC   NC3 6155  11.665  30.407   9.291
  153POPC   PO4 6156  11.209  30.745   9.534
  153POPC   GL1 6157  11.233  30.917   9.123
  153POPC   GL2 6158  11.389  30.674   8.976
  153POPC   C1A 6159  11.093  30.940   8.699
  153POPC   D2A 6160  11.240  30.751   8.351
  153POPC   C3A 6161  11.148  30.862   7.957
  153POPC   C4A 6162  11.501  30.735   7.710
  153POPC   C1B 6163  11.455  30.392   8.649
  153POPC   C2B 6164  11.210  30.245   8.319
  153POPC   C3B 6165  11.210  30.288   7.880
  153POPC   C4B 6166  11.263  30.158   7.416
  154POPC   NC3 6167   2.948  42.487   9.452
  154POPC   PO4 6168   2.264  42.511   9.450
  154POPC   GL1 6169   2.552  42.466   9.129
  154POPC   GL2 6170   2.698  42.148   9.088
  154POPC   C1A 6171   2.796  42.526   8.736
  154POPC   D2A 6172   3.087  42.292   8.464
  154POPC   C3A 6173   2.946  42.319   8.038
  154POPC   C4A 6174   2.704  42.598   7.790
  154POPC   C1B 6175   2.694  42.035   8.657
  154POPC   C2B 6176   2.455  42.203   8.326
  154POPC   C3B 6177   2.458  42.123   7.901
  154POPC   C4B 6178   2.776  42.016   7.608
  155POPC   NC3 6179  44.622  30.441   9.483
  155POPC   PO4 6180  44.591  31.071   9.366
  155POPC   GL1 6181  44.721  30.759   9.068
  155POPC   GL2 6182  44.389  30.587   9.055
  155POPC   C1A 6183  44.621  30.705   8.613
  155POPC   D2A 6184  44.599  30.998   8.241
  155POPC   C3A 6185  44.808  30.844   7.870
  155POPC   C4A 6186  44.828  30.683   7.411
  155POPC   C1B 6187  44.358  30.264   8.759
  155POPC   C2B 6188  44.435  30.124   8.338
  155POPC   C3B 6189  44.522  30.367   7.940
  155POPC   C4B 6190  44.668  30.223   7.534
  156POPC   NC3 6191  34.181  20.829   9.445
  156POPC   PO4 6192  33.562  20.494   9.475
  156POPC   GL1 6193  33.847  20.497   9.163
  156POPC   GL2 6194  34.061  20.271   9.270
  156POPC   C1A 6195  33.953  20.769   8.821
  156POPC   D2A 6196  33.771  20.795   8.433
  156POPC   C3A 6197  33.899  20.934   8.050
  156POPC   C4A 6198  33.782  20.717   7.692
  156POPC   C1B 6199  34.240  20.327   8.877
  156POPC   C2B 6200  34.116  20.410   8.482
  156POPC   C3B 6201  34.147  20.474   8.073
  156POPC   C4B 6202  34.178  20.125   7.808
  157POPC   NC3 6203  38.259  12.261   9.535
  157POPC   PO4 6204  38.666  11.746   9.552
  157POPC   GL1 6205  38.532  11.922   9.194
  157POPC   GL2 6206  38.634  12.247   9.150
  157POPC   C1A 6207  38.541  11.870   8.769
  157POPC   D2A 6208  38.310  11.636   8.446
  157POPC   C3A 6209  38.311  11.834   8.072
  157POPC   C4A 6210  38.530  12.088   7.771
  157POPC   C1B 6211  38.286  12.302   8.854
  157POPC   C2B 6212  38.421  12.230   8.422
  157POPC   C3B 6213  38.199  12.348   8.083
  157POPC   C4B 6214  38.222  12.500   7.698
  158POPC   NC3 6215  20.800  38.731   9.572
  158POPC   PO4 6216  20.284  38.475   9.447
  158POPC   GL1 6217  20.437  38.781   9.130
  158POPC   GL2 6218  20.815  38.758   9.054
  158POPC   C1A 6219  20.311  38.849   8.693
  158POPC   D2A 6220  20.042  38.812   8.293
  158POPC   C3A 6221  20.320  38.680   7.942
  158POPC   C4A 6222  20.448  38.279   7.798
  158POPC   C1B 6223  20.757  38.589   8.632
  158POPC   C2B 6224  20.740  38.476   8.179
  158POPC   C3B 6225  20.952  38.387   7.760
  158POPC   C4B 6226  20.989  38.370   7.299
  159POPC   NC3 6227  18.519  39.349   9.457
  159POPC   PO4 6228  17.919  39.133   9.724
  159POPC   GL1 6229  18.049  39.159   9.236
  159POPC   GL2 6230  18.191  39.407   9.033
  159POPC   C1A 6231  18.141  38.994   8.752
  159POPC   D2A 6232  18.061  39.261   8.391
  159POPC   C3A 6233  18.148  39.134   7.949
  159POPC   C4A 6234  18.410  38.897   7.706
  159POPC   C1B 6235  18.453  39.422   8.704
  159POPC   C2B 6236  18.444  39.639   8.336
  159POPC   C3B 6237  18.530  39.478   7.936
  159POPC   C4B 6238  18.758  39.616   7.594
  160POPC   NC3 6239  28.673  37.828   9.445
  160POPC   PO4 6240  29.334  37.515   9.474
  160POPC   GL1 6241  29.009  37.571   9.153
  160POPC   GL2 6242  29.170  37.865   9.062
  160POPC   C1A 6243  28.885  37.625   8.713
  160POPC   D2A 6244  28.991  37.993   8.466
  160POPC   C3A 6245  28.791  37.945   8.058
  160POPC   C4A 6246  28.967  37.538   7.936
  160POPC   C1B 6247  29.386  37.542   8.819
  160POPC   C2B 6248  29.473  37.606   8.411
  160POPC   C3B 6249  29.449  37.363   8.039
  160POPC   C4B 6250  29.646  37.238   7.683
  161POPC   NC3 6251  20.565  25.606   9.449
  161POPC   PO4 6252  20.546  26.233   9.403
  161POPC   GL1 6253  20.500  25.937   9.067
  161POPC   GL2 6254  20.825  25.790   9.008
  161POPC   C1A 6255  20.259  25.805   8.722
  161POPC   D2A 6256  20.113  25.944   8.349
  161POPC   C3A 6257  20.318  25.880   7.927
  161POPC   C4A 6258  20.708  26.040   7.737
  161POPC   C1B 6259  20.844  26.030   8.658
  161POPC   C2B 6260  20.776  25.907   8.236
  161POPC   C3B 6261  20.968  25.637   7.920
  161POPC   C4B 6262  20.990  25.710   7.437
  162POPC   NC3 6263   1.131   1.679   9.460
  162POPC   PO4 6264   0.944   2.370   9.540
  162POPC   GL1 6265   1.179   2.163   9.171
  162POPC   GL2 6266   1.378   1.848   9.079
  162POPC   C1A 6267   1.144   2.064   8.718
  162POPC   D2A 6268   1.028   1.936   8.341
  162POPC   C3A 6269   1.251   2.146   8.110
  162POPC   C4A 6270   1.256   2.202   7.739
  162POPC   C1B 6271   1.552   1.600   8.787
  162POPC   C2B 6272   1.511   1.766   8.384
  162POPC   C3B 6273   1.534   1.738   7.938
  162POPC   C4B 6274   1.541   1.857   7.500
  163POPC   NC3 6275   6.550   6.666   9.492
  163POPC   PO4 6276   7.122   6.969   9.376
  163POPC   GL1 6277   6.842   6.768   9.093
  163POPC   GL2 6278   6.772   6.377   9.120
  163POPC   C1A 6279   6.561   6.706   8.768
  163POPC   D2A 6280   6.387   6.406   8.477
  163POPC   C3A 6281   6.666   6.523   8.165
  163POPC   C4A 6282   6.643   6.670   7.767
  163POPC   C1B 6283   6.950   6.373   8.682
  163POPC   C2B 6284   7.163   6.365   8.273
  163POPC   C3B 6285   7.025   6.330   7.828
  163POPC   C4B 6286   6.910   6.288   7.372
  164POPC   NC3 6287  40.499   8.698   9.414
  164POPC   PO4 6288  41.005   9.329   9.458
  164POPC   GL1 6289  40.848   9.287   9.011
  164POPC   GL2 6290  40.552   9.054   9.005
  164POPC   C1A 6291  40.892   9.076   8.603
  164POPC   D2A 6292  40.742   8.779   8.268
  164POPC   C3A 6293  40.861   8.846   7.827
  164POPC   C4A 6294  40.972   8.912   7.390
  164POPC   C1B 6295  40.471   9.341   8.662
  164POPC   C2B 6296  40.526   9.251   8.248
  164POPC   C3B 6297  40.392   9.155   7.880
  164POPC   C4B 6298  40.467   8.936   7.531
  165POPC   NC3 6299  38.531  42.943   9.887
  165POPC   PO4 6300  38.690  43.313   9.431
  165POPC   GL1 6301  38.528  43.286   9.067
  165POPC   GL2 6302  38.432  42.974   9.102
  165POPC   C1A 6303  38.467  43.520   8.737
  165POPC   D2A 6304  38.688  43.360   8.367
  165POPC   C3A 6305  38.490  43.295   7.964
  165POPC   C4A 6306  38.633  43.166   7.540
  165POPC   C1B 6307  38.489  42.978   8.660
  165POPC   C2B 6308  38.557  42.851   8.262
  165POPC   C3B 6309  38.532  42.776   7.847
  165POPC   C4B 6310  38.200  42.881   7.584
  166POPC   NC3 6311  12.113  24.891   9.427
  166POPC   PO4 6312  12.459  25.540   9.547
  166POPC   GL1 6313  12.346  25.363   9.126
  166POPC   GL2 6314  12.028  25.257   9.083
  166POPC   C1A 6315  12.323  25.114   8.718
  166POPC   D2A 6316  12.455  25.204   8.328
  166POPC   C3A 6317  12.250  25.231   7.968
  166POPC   C4A 6318  12.208  25.569   7.706
  166POPC   C1B 6319  11.855  25.358   8.715
  166POPC   C2B 6320  11.753  25.112   8.376
  166POPC   C3B 6321  11.739  25.251   7.980
  166POPC   C4B 6322  11.694  25.122   7.567
  167POPC   NC3 6323  34.633  38.120   9.589
  167POPC   PO4 6324  34.276  37.561   9.523
  167POPC   GL1 6325  34.642  37.574   9.264
  167POPC   GL2 6326  34.541  37.871   9.126
  167POPC   C1A 6327  34.645  37.422   8.838
  167POPC   D2A 6328  34.375  37.489   8.459
  167POPC   C3A 6329  34.601  37.641   8.066
  167POPC   C4A 6330  34.706  37.407   7.666
  167POPC   C1B 6331  34.455  37.948   8.709
  167POPC   C2B 6332  34.653  38.145   8.358
  167POPC   C3B 6333  34.559  38.131   7.921
  167POPC   C4B 6334  34.662  37.912   7.571
  168POPC   NC3 6335  17.156  35.198   9.466
  168POPC   PO4 6336  17.791  34.909   9.229
  168POPC   GL1 6337  17.402  35.077   9.028
  168POPC   GL2 6338  17.307  35.459   9.042
  168POPC   C1A 6339  17.471  35.196   8.620
  168POPC   D2A 6340  17.686  35.280   8.238
  168POPC   C3A 6341  17.456  35.026   7.960
  168POPC   C4A 6342  17.416  34.992   7.561
  168POPC   C1B 6343  17.127  35.570   8.640
  168POPC   C2B 6344  17.178  35.374   8.233
  168POPC   C3B 6345  17.416  35.534   7.881
  168POPC   C4B 6346  17.808  35.796   7.765
  169POPC   NC3 6347  33.275  10.118   9.460
  169POPC   PO4 6348  32.851   9.727   9.812
  169POPC   GL1 6349  33.033   9.640   9.344
  169POPC   GL2 6350  33.387   9.675   9.228
  169POPC   C1A 6351  33.078   9.536   8.861
  169POPC   D2A 6352  33.033   9.703   8.441
  169POPC   C3A 6353  33.092   9.457   8.053
  169POPC   C4A 6354  33.071   9.548   7.587
  169POPC   C1B 6355  33.366   9.952   8.840
  169POPC   C2B 6356  33.365  10.088   8.424
  169POPC   C3B 6357  33.095  10.084   8.076
  169POPC   C4B 6358  33.250  10.055   7.657
  170POPC   NC3 6359   3.055  27.890   9.510
  170POPC   PO4 6360   2.410  27.612   9.562
  170POPC   GL1 6361   2.638  27.716   9.235
  170POPC   GL2 6362   2.828  27.460   9.269
  170POPC   C1A 6363   2.720  27.757   8.792
  170POPC   D2A 6364   2.888  27.632   8.411
  170POPC   C3A 6365   2.724  27.667   8.005
  170POPC   C4A 6366   3.016  27.609   7.667
  170POPC   C1B 6367   2.473  27.335   8.960
  170POPC   C2B 6368   2.484  27.325   8.556
  170POPC   C3B 6369   2.493  27.227   8.122
  170POPC   C4B 6370   2.338  27.224   7.711
  171POPC   NC3 6371  36.995  22.875   9.329
  171POPC   PO4 6372  36.445  23.235   9.435
  171POPC   GL1 6373  36.516  22.944   9.110
  171POPC   GL2 6374  36.507  22.571   9.187
  171POPC   C1A 6375  36.748  23.092   8.760
  171POPC   D2A 6376  37.072  23.200   8.474
  171POPC   C3A 6377  36.963  23.060   8.073
  171POPC   C4A 6378  37.201  22.904   7.751
  171POPC   C1B 6379  36.667  22.452   8.767
  171POPC   C2B 6380  37.030  22.657   8.556
  171POPC   C3B 6381  37.177  22.562   8.151
  171POPC   C4B 6382  36.809  22.583   7.876
  172POPC   NC3 6383  34.185  43.782   9.583
  172POPC   PO4 6384  33.781  44.187   9.549
  172POPC   GL1 6385  33.691  44.032   9.185
  172POPC   GL2 6386  33.841  43.730   9.142
  172POPC   C1A 6387  33.821  44.069   8.768
  172POPC   D2A 6388  33.658  43.794   8.453
  172POPC   C3A 6389  33.646  44.029   8.099
  172POPC   C4A 6390  33.601  44.082   7.669
  172POPC   C1B 6391  34.053  43.644   8.725
  172POPC   C2B 6392  34.144  43.855   8.338
  172POPC   C3B 6393  33.982  43.617   8.045
  172POPC   C4B 6394  33.620  43.563   7.820
  173POPC   NC3 6395  34.757  43.614   9.259
  173POPC   PO4 6396  34.494  44.166   9.547
  173POPC   GL1 6397  34.231  44.102   9.162
  173POPC   GL2 6398  34.340  43.784   9.080
  173POPC   C1A 6399  34.364  44.102   8.714
  173POPC   D2A 6400  34.690  44.045   8.354
  173POPC   C3A 6401  34.533  44.055   7.941
  173POPC   C4A 6402  34.106  44.075   7.842
  173POPC   C1B 6403  34.552  43.597   8.647
  173POPC   C2B 6404  34.537  43.596   8.183
  173POPC   C3B 6405  34.422  43.601   7.771
  173POPC   C4B 6406  34.591  43.632   7.395
  174POPC   NC3 6407  11.628  41.278   9.529
  174POPC   PO4 6408  11.184  41.792   9.543
  174POPC   GL1 6409  11.402  41.710   9.219
  174POPC   GL2 6410  11.586  41.992   9.177
  174POPC   C1A 6411  11.337  41.519   8.848
  174POPC   D2A 6412  11.224  41.555   8.448
  174POPC   C3A 6413  11.379  41.379   8.085
  174POPC   C4A 6414  11.229  41.530   7.681
  174POPC   C1B 6415  11.691  41.874   8.742
  174POPC   C2B 6416  11.676  41.764   8.298
  174POPC   C3B 6417  11.711  41.989   7.907
  174POPC   C4B 6418  11.540  41.887   7.491
  175POPC   NC3 6419   4.071  20.830   9.584
  175POPC   PO4 6420   4.487  20.314   9.542
  175POPC   GL1 6421   4.493  20.557   9.143
  175POPC   GL2 6422   4.550  20.926   9.141
  175POPC   C1A 6423   4.220  20.558   8.777
  175POPC   D2A 6424   4.075  20.271   8.424
  175POPC   C3A 6425   4.233  20.319   7.967
  175POPC   C4A 6426   4.498  20.533   7.608
  175POPC   C1B 6427   4.708  20.801   8.739
  175POPC   C2B 6428   4.526  20.577   8.375
  175POPC   C3B 6429   4.262  20.807   8.094
  175POPC   C4B 6430   4.589  20.985   7.872
  176POPC   NC3 6431  12.871   9.860   9.539
  176POPC   PO4 6432  13.183   9.354   9.358
  176POPC   GL1 6433  12.950   9.628   9.085
  176POPC   GL2 6434  12.585   9.750   9.109
  176POPC   C1A 6435  12.962   9.761   8.678
  176POPC   D2A 6436  13.164   9.629   8.310
  176POPC   C3A 6437  12.876   9.743   7.978
  176POPC   C4A 6438  13.055   9.744   7.616
  176POPC   C1B 6439  12.529   9.456   8.753
  176POPC   C2B 6440  12.717   9.397   8.343
  176POPC   C3B 6441  12.637   9.278   7.928
  176POPC   C4B 6442  12.584   9.483   7.528
  177POPC   NC3 6443  15.043  26.495   9.876
  177POPC   PO4 6444  15.003  27.078   9.487
  177POPC   GL1 6445  15.259  26.945   9.141
  177POPC   GL2 6446  15.221  26.648   8.982
  177POPC   C1A 6447  15.197  27.069   8.693
  177POPC   D2A 6448  15.067  27.383   8.383
  177POPC   C3A 6449  14.921  27.259   7.961
  177POPC   C4A 6450  14.994  27.133   7.548
  177POPC   C1B 6451  15.213  26.585   8.534
  177POPC   C2B 6452  15.012  26.819   8.230
  177POPC   C3B 6453  15.029  26.686   7.837
  177POPC   C4B 6454  15.328  26.353   7.734
  178POPC   NC3 6455  41.957  21.893   9.568
  178POPC   PO4 6456  42.118  21.264   9.411
  178POPC   GL1 6457  42.270  21.233   9.016
  178POPC   GL2 6458  42.530  21.019   9.109
  178POPC   C1A 6459  42.290  21.222   8.574
  178POPC   D2A 6460  42.149  21.556   8.289
  178POPC   C3A 6461  42.372  21.553   7.903
  178POPC   C4A 6462  42.530  21.402   7.480
  178POPC   C1B 6463  42.785  20.920   8.773
  178POPC   C2B 6464  42.779  21.066   8.363
  178POPC   C3B 6465  42.645  21.118   7.961
  178POPC   C4B 6466  42.734  20.929   7.618
  179POPC   NC3 6467  44.942   3.331   9.849
  179POPC   PO4 6468  44.647   3.849   9.615
  179POPC   GL1 6469  44.541   3.854   9.155
  179POPC   GL2 6470  44.824   3.842   8.941
  179POPC   C1A 6471  44.425   3.634   8.716
  179POPC   D2A 6472  44.575   3.331   8.386
  179POPC   C3A 6473  44.395   3.422   7.967
  179POPC   C4A 6474  44.649   3.323   7.571
  179POPC   C1B 6475  44.697   4.051   8.613
  179POPC   C2B 6476  44.560   3.887   8.230
  179POPC   C3B 6477  44.669   3.808   7.836
  179POPC   C4B 6478  44.938   3.742   7.518
  180POPC   NC3 6479  32.532  10.068   9.616
  180POPC   PO4 6480  32.024   9.576   9.490
  180POPC   GL1 6481  32.213   9.851   9.247
  180POPC   GL2 6482  32.534   9.729   9.209
  180POPC   C1A 6483  32.206   9.985   8.823
  180POPC   D2A 6484  32.023   9.794   8.493
  180POPC   C3A 6485  31.963  10.058   8.182
  180POPC   C4A 6486  32.210   9.904   7.842
  180POPC   C1B 6487  32.589   9.671   8.743
  180POPC   C2B 6488  32.545   9.863   8.309
  180POPC   C3B 6489  32.710   9.779   7.893
  180POPC   C4B 6490  32.713   9.840   7.450
  181POPC   NC3 6491  18.681  34.362   9.666
  181POPC   PO4 6492  19.180  34.209   9.489
  181POPC   GL1 6493  18.953  34.397   9.126
  181POPC   GL2 6494  18.756  34.679   9.201
  181POPC   C1A 6495  19.061  34.441   8.672
  181POPC   D2A 6496  19.415  34.491   8.350
  181POPC   C3A 6497  19.162  34.661   8.040
  181POPC   C4A 6498  19.089  34.560   7.641
  181POPC   C1B 6499  18.704  34.818   8.751
  181POPC   C2B 6500  18.723  34.849   8.284
  181POPC   C3B 6501  18.650  34.737   7.849
  181POPC   C4B 6502  18.774  34.936   7.456
  182POPC   NC3 6503  24.861  44.211   9.296
  182POPC   PO4 6504  24.402  43.787   9.547
  182POPC   GL1 6505  24.359  43.941   9.127
  182POPC   GL2 6506  24.659  43.886   8.934
  182POPC   C1A 6507  24.184  43.881   8.709
  182POPC   D2A 6508  24.425  43.967   8.332
  182POPC   C3A 6509  24.274  43.998   7.910
  182POPC   C4A 6510  24.437  43.757   7.569
  182POPC   C1B 6511  24.796  43.457   8.773
  182POPC   C2B 6512  25.066  43.325   8.463
  182POPC   C3B 6513  25.061  43.611   8.105
  182POPC   C4B 6514  24.811  43.920   7.870
  183POPC   NC3 6515  34.328  32.145   9.546
  183POPC   PO4 6516  34.823  32.512   9.266
  183POPC   GL1 6517  34.679  32.147   9.042
  183POPC   GL2 6518  34.374  31.889   9.114
  183POPC   C1A 6519  34.862  32.147   8.617
  183POPC   D2A 6520  35.085  32.226   8.244
  183POPC   C3A 6521  34.799  32.237   7.870
  183POPC   C4A 6522  34.589  32.094   7.495
  183POPC   C1B 6523  34.184  32.252   8.872
  183POPC   C2B 6524  34.367  32.484   8.516
  183POPC   C3B 6525  34.407  32.564   8.064
  183POPC   C4B 6526  34.445  32.574   7.583
  184POPC   NC3 6527   8.624  12.488   9.316
  184POPC   PO4 6528   8.753  13.126   9.563
  184POPC   GL1 6529   8.664  12.993   9.142
  184POPC   GL2 6530   9.022  12.854   9.124
  184POPC   C1A 6531   8.817  12.995   8.701
  184POPC   D2A 6532   9.114  13.155   8.378
  184POPC   C3A 6533   8.920  13.046   7.971
  184POPC   C4A 6534   8.889  12.829   7.562
  184POPC   C1B 6535   9.317  12.823   8.728
  184POPC   C2B 6536   9.437  12.744   8.256
  184POPC   C3B 6537   9.343  12.813   7.798
  184POPC   C4B 6538   9.265  12.550   7.390
  185POPC   NC3 6539  35.955   9.307   9.325
  185POPC   PO4 6540  36.427   8.716   9.388
  185POPC   GL1 6541  36.247   8.945   9.129
  185POPC   GL2 6542  36.392   9.255   9.020
  185POPC   C1A 6543  35.994   8.917   8.788
  185POPC   D2A 6544  35.926   8.786   8.395
  185POPC   C3A 6545  35.870   9.090   8.073
  185POPC   C4A 6546  35.914   9.050   7.619
  185POPC   C1B 6547  36.498   8.924   8.704
  185POPC   C2B 6548  36.420   8.772   8.315
  185POPC   C3B 6549  36.329   8.927   7.920
  185POPC   C4B 6550  36.519   9.273   7.753
  186POPC   NC3 6551  24.785   9.953   9.426
  186POPC   PO4 6552  25.307   9.553   9.679
  186POPC   GL1 6553  25.233   9.600   9.140
  186POPC   GL2 6554  24.940   9.485   8.981
  186POPC   C1A 6555  25.448   9.685   8.785
  186POPC   D2A 6556  25.424  10.016   8.507
  186POPC   C3A 6557  25.473   9.892   8.080
  186POPC   C4A 6558  25.371   9.937   7.660
  186POPC   C1B 6559  24.958   9.761   8.619
  186POPC   C2B 6560  24.979   9.982   8.215
  186POPC   C3B 6561  24.873   9.964   7.763
  186POPC   C4B 6562  24.943   9.623   7.472
  187POPC   NC3 6563  44.703  42.704   9.352
  187POPC   PO4 6564  44.902  43.364   9.217
  187POPC   GL1 6565  44.643  43.096   9.029
  187POPC   GL2 6566  44.363  43.196   9.182
  187POPC   C1A 6567  44.527  42.940   8.649
  187POPC   D2A 6568  44.700  42.682   8.343
  187POPC   C3A 6569  44.774  42.996   8.045
  187POPC   C4A 6570  44.987  43.187   7.701
  187POPC   C1B 6571  44.369  43.447   8.746
  187POPC   C2B 6572  44.611  43.517   8.362
  187POPC   C3B 6573  44.663  43.496   7.915
  187POPC   C4B 6574  44.555  43.360   7.473
  188POPC   NC3 6575  35.861   2.851   9.765
  188POPC   PO4 6576  35.759   2.294   9.552
  188POPC   GL1 6577  35.709   2.672   9.289
  188POPC   GL2 6578  35.991   2.911   9.238
  188POPC   C1A 6579  35.725   2.773   8.825
  188POPC   D2A 6580  35.814   3.054   8.442
  188POPC   C3A 6581  35.832   2.825   8.027
  188POPC   C4A 6582  35.971   2.426   7.895
  188POPC   C1B 6583  36.199   2.983   8.791
  188POPC   C2B 6584  36.298   2.966   8.308
  188POPC   C3B 6585  36.329   2.797   7.879
  188POPC   C4B 6586  36.554   2.800   7.501
  189POPC   NC3 6587  25.962  40.843   9.606
  189POPC   PO4 6588  25.758  40.225   9.369
  189POPC   GL1 6589  25.819  40.655   9.130
  189POPC   GL2 6590  25.902  41.058   9.149
  189POPC   C1A 6591  26.051  40.765   8.754
  189POPC   D2A 6592  26.226  40.589   8.356
  189POPC   C3A 6593  26.099  40.773   7.958
  189POPC   C4A 6594  26.208  40.681   7.501
  189POPC   C1B 6595  26.175  41.252   8.773
  189POPC   C2B 6596  26.250  41.149   8.333
  189POPC   C3B 6597  25.983  41.270   7.987
  189POPC   C4B 6598  26.004  41.143   7.567
  190POPC   NC3 6599  11.195  24.966   9.362
  190POPC   PO4 6600  11.749  25.203   9.497
  190POPC   GL1 6601  11.531  25.407   9.150
  190POPC   GL2 6602  11.158  25.516   9.140
  190POPC   C1A 6603  11.357  25.250   8.756
  190POPC   D2A 6604  11.017  25.151   8.482
  190POPC   C3A 6605  11.095  25.151   8.038
  190POPC   C4A 6606  11.304  25.407   7.782
  190POPC   C1B 6607  10.981  25.657   8.698
  190POPC   C2B 6608  10.956  25.628   8.215
  190POPC   C3B 6609  10.841  25.602   7.766
  190POPC   C4B 6610  10.934  25.468   7.351
  191POPC   NC3 6611  44.674   9.301   9.559
  191POPC   PO4 6612  44.703   9.962   9.527
  191POPC   GL1 6613  44.747   9.856   9.131
  191POPC   GL2 6614  44.878   9.510   9.133
  191POPC   C1A 6615  44.775   9.783   8.707
  191POPC   D2A 6616  44.616   9.580   8.381
  191POPC   C3A 6617  44.786   9.774   8.051
  191POPC   C4A 6618  44.611   9.970   7.687
  191POPC   C1B 6619  44.810   9.282   8.740
  191POPC   C2B 6620  44.909   9.131   8.317
  191POPC   C3B 6621  44.671   9.284   7.967
  191POPC   C4B 6622  44.787   9.487   7.617
  192POPC   NC3 6623  38.885   8.664   9.413
  192POPC   PO4 6624  39.220   7.997   9.482
  192POPC   GL1 6625  39.204   8.234   9.149
  192POPC   GL2 6626  38.875   8.244   9.145
  192POPC   C1A 6627  39.431   8.260   8.779
  192POPC   D2A 6628  39.342   8.522   8.466
  192POPC   C3A 6629  39.283   8.349   8.062
  192POPC   C4A 6630  39.239   7.922   7.906
  192POPC   C1B 6631  38.919   8.365   8.740
  192POPC   C2B 6632  39.036   8.084   8.425
  192POPC   C3B 6633  38.772   7.990   8.077
  192POPC   C4B 6634  38.830   8.337   7.787
  193POPC   NC3 6635  31.584  20.120   9.744
  193POPC   PO4 6636  31.219  19.663   9.514
  193POPC   GL1 6637  31.363  19.942   9.209
  193POPC   GL2 6638  31.692  19.802   9.161
  193POPC   C1A 6639  31.308  19.909   8.746
  193POPC   D2A 6640  31.458  20.018   8.320
  193POPC   C3A 6641  31.210  19.979   7.915
  193POPC   C4A 6642  31.210  19.942   7.434
  193POPC   C1B 6643  31.834  19.841   8.727
  193POPC   C2B 6644  31.938  19.661   8.311
  193POPC   C3B 6645  31.640  19.680   7.977
  193POPC   C4B 6646  31.672  19.962   7.643
  194POPC   NC3 6647  28.084  30.301   9.408
  194POPC   PO4 6648  28.524  30.833   9.494
  194POPC   GL1 6649  28.280  30.708   9.131
  194POPC   GL2 6650  27.936  30.632   9.063
  194POPC   C1A 6651  28.381  30.693   8.716
  194POPC   D2A 6652  28.638  30.833   8.401
  194POPC   C3A 6653  28.548  30.587   8.055
  194POPC   C4A 6654  28.375  30.703   7.650
  194POPC   C1B 6655  28.060  30.300   8.745
  194POPC   C2B 6656  28.295  30.245   8.375
  194POPC   C3B 6657  28.124  30.295   7.931
  194POPC   C4B 6658  27.937  30.451   7.548
  195POPC   NC3 6659   8.096  26.349   9.527
  195POPC   PO4 6660   8.510  25.726   9.506
  195POPC   GL1 6661   8.312  25.830   9.125
  195POPC   GL2 6662   8.300  26.193   9.105
  195POPC   C1A 6663   8.295  25.923   8.679
  195POPC   D2A 6664   8.066  26.020   8.342
  195POPC   C3A 6665   8.269  25.988   7.975
  195POPC   C4A 6666   8.120  25.887   7.565
  195POPC   C1B 6667   8.090  26.385   8.738
  195POPC   C2B 6668   8.184  26.530   8.345
  195POPC   C3B 6669   7.983  26.407   7.988
  195POPC   C4B 6670   8.083  26.416   7.575
  196POPC   NC3 6671   0.891  42.756   9.373
  196POPC   PO4 6672   1.466  43.024   9.542
  196POPC   GL1 6673   1.414  43.092   9.098
  196POPC   GL2 6674   1.432  42.726   9.104
  196POPC   C1A 6675   1.275  43.350   8.687
  196POPC   D2A 6676   0.959  43.445   8.347
  196POPC   C3A 6677   1.156  43.341   7.951
  196POPC   C4A 6678   1.453  43.458   7.682
  196POPC   C1B 6679   1.257  42.824   8.700
  196POPC   C2B 6680   1.184  42.969   8.303
  196POPC   C3B 6681   1.250  42.764   7.916
  196POPC   C4B 6682   1.390  42.949   7.541
  197POPC   NC3 6683   3.922  25.138   9.543
  197POPC   PO4 6684   4.578  25.418   9.490
  197POPC   GL1 6685   4.530  25.205   9.156
  197POPC   GL2 6686   4.177  25.302   9.118
  197POPC   C1A 6687   4.621  25.369   8.759
  197POPC   D2A 6688   4.328  25.412   8.439
  197POPC   C3A 6689   4.509  25.367   8.050
  197POPC   C4A 6690   4.321  25.471   7.646
  197POPC   C1B 6691   4.237  25.028   8.783
  197POPC   C2B 6692   4.058  24.958   8.385
  197POPC   C3B 6693   4.241  24.915   7.981
  197POPC   C4B 6694   4.383  24.935   7.544
  198POPC   NC3 6695  40.047  12.497   9.516
  198POPC   PO4 6696  40.294  13.119   9.618
  198POPC   GL1 6697  40.140  13.046   9.150
  198POPC   GL2 6698  39.956  12.809   9.118
  198POPC   C1A 6699  40.205  12.962   8.698
  198POPC   D2A 6700  39.970  12.800   8.344
  198POPC   C3A 6701  40.230  12.812   8.050
  198POPC   C4A 6702  40.334  12.763   7.679
  198POPC   C1B 6703  39.775  13.222   8.865
  198POPC   C2B 6704  39.748  13.291   8.399
  198POPC   C3B 6705  39.921  13.195   7.955
  198POPC   C4B 6706  40.037  13.121   7.476
  199POPC   NC3 6707  35.105  24.303   9.637
  199POPC   PO4 6708  35.173  24.880   9.354
  199POPC   GL1 6709  35.427  24.571   9.205
  199POPC   GL2 6710  35.161  24.377   9.130
  199POPC   C1A 6711  35.567  24.503   8.779
  199POPC   D2A 6712  35.406  24.327   8.405
  199POPC   C3A 6713  35.431  24.504   7.999
  199POPC   C4A 6714  35.458  24.722   7.616
  199POPC   C1B 6715  35.064  24.572   8.771
  199POPC   C2B 6716  34.919  24.500   8.400
  199POPC   C3B 6717  34.989  24.255   8.041
  199POPC   C4B 6718  35.041  24.438   7.594
  200POPC   NC3 6719   2.237  19.493   9.470
  200POPC   PO4 6720   1.856  19.995   9.599
  200POPC   GL1 6721   1.833  19.880   9.146
  200POPC   GL2 6722   2.086  19.623   9.021
  200POPC   C1A 6723   1.798  19.817   8.680
  200POPC   D2A 6724   2.091  19.611   8.468
  200POPC   C3A 6725   1.994  19.732   8.070
  200POPC   C4A 6726   2.011  19.755   7.625
  200POPC   C1B 6727   2.272  19.992   8.788
  200POPC   C2B 6728   2.446  19.974   8.392
  200POPC   C3B 6729   2.314  20.121   8.016
  200POPC   C4B 6730   2.373  20.129   7.602
  201POPC   NC3 6731   8.002  34.029   9.817
  201POPC   PO4 6732   8.401  33.470   9.757
  201POPC   GL1 6733   8.391  33.629   9.294
  201POPC   GL2 6734   8.527  33.974   9.224
  201POPC   C1A 6735   8.231  33.564   8.861
  201POPC   D2A 6736   8.103  33.787   8.474
  201POPC   C3A 6737   8.279  33.612   8.092
  201POPC   C4A 6738   8.169  33.710   7.679
  201POPC   C1B 6739   8.529  33.977   8.779
  201POPC   C2B 6740   8.516  34.112   8.339
  201POPC   C3B 6741   8.338  34.119   7.942
  201POPC   C4B 6742   8.437  34.077   7.483
  202POPC   NC3 6743   9.625  38.499   9.745
  202POPC   PO4 6744  10.067  38.081   9.905
  202POPC   GL1 6745   9.895  38.190   9.398
  202POPC   GL2 6746   9.715  38.532   9.255
  202POPC   C1A 6747  10.005  38.280   8.901
  202POPC   D2A 6748   9.832  38.476   8.504
  202POPC   C3A 6749   9.898  38.267   8.098
  202POPC   C4A 6750  10.021  38.539   7.741
  202POPC   C1B 6751   9.496  38.573   8.870
  202POPC   C2B 6752   9.393  38.780   8.464
  202POPC   C3B 6753   9.617  38.711   8.101
  202POPC   C4B 6754   9.540  38.465   7.757
  203POPC   NC3 6755  26.879   9.283   9.498
  203POPC   PO4 6756  26.372   8.880   9.722
  203POPC   GL1 6757  26.543   8.895   9.284
  203POPC   GL2 6758  26.909   8.844   9.249
  203POPC   C1A 6759  26.667   8.979   8.831
  203POPC   D2A 6760  26.656   8.808   8.402
  203POPC   C3A 6761  26.650   9.127   8.136
  203POPC   C4A 6762  26.881   9.333   7.766
  203POPC   C1B 6763  27.196   8.878   8.844
  203POPC   C2B 6764  27.369   8.863   8.391
  203POPC   C3B 6765  27.089   8.913   8.022
  203POPC   C4B 6766  26.745   8.791   7.765
  204POPC   NC3 6767  19.597  20.400   9.535
  204POPC   PO4 6768  20.014  21.023   9.397
  204POPC   GL1 6769  20.109  20.654   9.142
  204POPC   GL2 6770  19.760  20.596   9.076
  204POPC   C1A 6771  20.161  20.379   8.751
  204POPC   D2A 6772  20.247  20.242   8.348
  204POPC   C3A 6773  19.973  20.466   8.099
  204POPC   C4A 6774  19.978  20.726   7.761
  204POPC   C1B 6775  19.714  20.610   8.638
  204POPC   C2B 6776  19.679  20.906   8.326
  204POPC   C3B 6777  19.520  20.758   7.967
  204POPC   C4B 6778  19.577  20.361   7.784
  205POPC   NC3 6779   3.198  24.924   9.408
  205POPC   PO4 6780   3.581  25.485   9.557
  205POPC   GL1 6781   3.674  25.527   9.153
  205POPC   GL2 6782   3.606  25.156   9.124
  205POPC   C1A 6783   3.435  25.586   8.769
  205POPC   D2A 6784   3.296  25.316   8.464
  205POPC   C3A 6785   3.462  25.329   8.052
  205POPC   C4A 6786   3.233  25.047   7.814
  205POPC   C1B 6787   3.805  25.261   8.736
  205POPC   C2B 6788   3.805  25.533   8.402
  205POPC   C3B 6789   3.985  25.363   8.055
  205POPC   C4B 6790   3.915  25.179   7.665
  206POPC   NC3 6791  14.444  32.331   9.516
  206POPC   PO4 6792  14.547  31.745   9.885
  206POPC   GL1 6793  14.519  31.811   9.357
  206POPC   GL2 6794  14.739  31.997   9.172
  206POPC   C1A 6795  14.322  31.950   8.903
  206POPC   D2A 6796  14.290  32.203   8.506
  206POPC   C3A 6797  14.154  32.067   8.091
  206POPC   C4A 6798  14.285  32.210   7.667
  206POPC   C1B 6799  14.701  32.315   8.814
  206POPC   C2B 6800  14.744  32.403   8.374
  206POPC   C3B 6801  14.669  32.202   8.003
  206POPC   C4B 6802  14.806  32.287   7.571
  207POPC   NC3 6803  26.992   1.878   9.731
  207POPC   PO4 6804  27.668   1.794   9.604
  207POPC   GL1 6805  27.464   1.869   9.201
  207POPC   GL2 6806  27.181   1.682   9.218
  207POPC   C1A 6807  27.330   2.050   8.785
  207POPC   D2A 6808  27.440   2.244   8.395
  207POPC   C3A 6809  27.459   2.004   8.009
  207POPC   C4A 6810  27.537   2.073   7.578
  207POPC   C1B 6811  27.163   1.552   8.814
  207POPC   C2B 6812  27.269   1.685   8.417
  207POPC   C3B 6813  27.143   1.613   8.029
  207POPC   C4B 6814  26.941   1.557   7.663
  208POPC   NC3 6815  23.574  11.469   9.530
  208POPC   PO4 6816  23.794  10.848   9.597
  208POPC   GL1 6817  23.814  11.147   9.220
  208POPC   GL2 6818  23.460  11.209   9.105
  208POPC   C1A 6819  23.846  11.364   8.812
  208POPC   D2A 6820  23.668  11.290   8.397
  208POPC   C3A 6821  23.869  11.240   7.974
  208POPC   C4A 6822  23.969  10.945   7.620
  208POPC   C1B 6823  23.194  11.417   8.770
  208POPC   C2B 6824  23.257  11.617   8.368
  208POPC   C3B 6825  23.618  11.717   8.118
  208POPC   C4B 6826  23.571  11.586   7.709
  209POPC   NC3 6827  10.777   9.647   9.500
  209POPC   PO4 6828  10.275  10.148   9.479
  209POPC   GL1 6829  10.488   9.912   9.172
  209POPC   GL2 6830  10.806  10.036   9.097
  209POPC   C1A 6831  10.334   9.683   8.820
  209POPC   D2A 6832  10.083   9.911   8.528
  209POPC   C3A 6833  10.199  10.061   8.109
  209POPC   C4A 6834  10.276   9.795   7.750
  209POPC   C1B 6835  10.845   9.722   8.768
  209POPC   C2B 6836  10.675   9.410   8.463
  209POPC   C3B 6837  10.570   9.460   8.023
  209POPC   C4B 6838  10.782   9.751   7.765
  210POPC   NC3 6839  24.153   6.506   9.432
  210POPC   PO4 6840  24.669   6.945   9.514
  210POPC   GL1 6841  24.752   6.768   9.118
  210POPC   GL2 6842  24.520   6.534   9.088
  210POPC   C1A 6843  24.731   6.679   8.666
  210POPC   D2A 6844  24.426   6.747   8.341
  210POPC   C3A 6845  24.679   6.743   8.002
  210POPC   C4A 6846  24.701   6.560   7.612
  210POPC   C1B 6847  24.332   6.367   8.706
  210POPC   C2B 6848  24.537   6.254   8.347
  210POPC   C3B 6849  24.380   6.322   7.950
  210POPC   C4B 6850  24.413   6.132   7.538
  211POPC   NC3 6851   8.033   4.754   9.411
  211POPC   PO4 6852   8.344   4.125   9.519
  211POPC   GL1 6853   8.305   4.330   9.152
  211POPC   GL2 6854   8.575   4.551   9.161
  211POPC   C1A 6855   8.227   4.504   8.732
  211POPC   D2A 6856   7.947   4.397   8.409
  211POPC   C3A 6857   7.908   4.591   8.022
  211POPC   C4A 6858   8.008   4.377   7.626
  211POPC   C1B 6859   8.715   4.663   8.743
  211POPC   C2B 6860   8.570   4.651   8.310
  211POPC   C3B 6861   8.412   4.538   7.897
  211POPC   C4B 6862   8.446   4.569   7.411
  212POPC   NC3 6863  32.558  18.848   9.848
  212POPC   PO4 6864  32.457  19.246   9.275
  212POPC   GL1 6865  32.237  18.902   9.101
  212POPC   GL2 6866  31.915  18.731   9.189
  212POPC   C1A 6867  32.265  18.861   8.671
  212POPC   D2A 6868  32.354  18.635   8.324
  212POPC   C3A 6869  32.445  18.929   8.011
  212POPC   C4A 6870  32.267  19.091   7.644
  212POPC   C1B 6871  31.785  18.972   8.797
  212POPC   C2B 6872  31.814  19.137   8.336
  212POPC   C3B 6873  31.740  19.177   7.853
  212POPC   C4B 6874  31.832  18.959   7.448
  213POPC   NC3 6875  27.464  39.032   9.575
  213POPC   PO4 6876  27.929  39.533   9.442
  213POPC   GL1 6877  27.779  39.198   9.170
  213POPC   GL2 6878  27.460  39.340   9.120
  213POPC   C1A 6879  27.680  39.032   8.760
  213POPC   D2A 6880  27.425  39.196   8.432
  213POPC   C3A 6881  27.625  39.235   8.059
  213POPC   C4A 6882  27.424  39.289   7.653
  213POPC   C1B 6883  27.727  39.538   8.764
  213POPC   C2B 6884  27.944  39.550   8.337
  213POPC   C3B 6885  28.049  39.497   7.880
  213POPC   C4B 6886  27.853  39.476   7.466
  214POPC   NC3 6887  27.109  35.951   9.373
  214POPC   PO4 6888  26.819  36.602   9.419
  214POPC   GL1 6889  26.904  36.337   9.096
  214POPC   GL2 6890  26.682  36.061   9.129
  214POPC   C1A 6891  27.035  36.158   8.709
  214POPC   D2A 6892  26.826  36.206   8.310
  214POPC   C3A 6893  26.995  36.064   7.911
  214POPC   C4A 6894  26.780  36.162   7.514
  214POPC   C1B 6895  26.522  36.056   8.745
  214POPC   C2B 6896  26.500  35.808   8.378
  214POPC   C3B 6897  26.477  35.995   7.985
  214POPC   C4B 6898  26.362  35.887   7.571
  215POPC   NC3 6899  11.107  32.831   9.522
  215POPC   PO4 6900  11.748  32.860   9.452
  215POPC   GL1 6901  11.434  32.781   9.134
  215POPC   GL2 6902  11.218  33.105   9.097
  215POPC   C1A 6903  11.273  32.761   8.715
  215POPC   D2A 6904  11.412  32.712   8.304
  215POPC   C3A 6905  11.285  33.066   8.070
  215POPC   C4A 6906  11.108  33.174   7.699
  215POPC   C1B 6907  11.614  33.141   8.818
  215POPC   C2B 6908  11.577  33.311   8.399
  215POPC   C3B 6909  11.635  33.442   7.968
  215POPC   C4B 6910  11.694  33.114   7.666
  216POPC   NC3 6911  13.846  29.002   9.391
  216POPC   PO4 6912  13.529  29.655   9.513
  216POPC   GL1 6913  13.497  29.339   9.205
  216POPC   GL2 6914  13.818  29.381   9.076
  216POPC   C1A 6915  13.386  29.228   8.768
  216POPC   D2A 6916  13.225  29.381   8.355
  216POPC   C3A 6917  13.283  29.071   8.036
  216POPC   C4A 6918  13.636  28.850   7.852
  216POPC   C1B 6919  13.988  29.448   8.721
  216POPC   C2B 6920  13.761  29.257   8.380
  216POPC   C3B 6921  13.718  29.354   7.964
  216POPC   C4B 6922  14.069  29.393   7.697
  217POPC   NC3 6923  11.458  35.403   9.365
  217POPC   PO4 6924  10.798  35.594   9.434
  217POPC   GL1 6925  11.037  35.538   9.105
  217POPC   GL2 6926  10.917  35.218   9.089
  217POPC   C1A 6927  11.272  35.379   8.754
  217POPC   D2A 6928  11.323  35.294   8.365
  217POPC   C3A 6929  11.342  35.572   7.993
  217POPC   C4A 6930  11.491  35.549   7.571
  217POPC   C1B 6931  10.855  35.029   8.693
  217POPC   C2B 6932  11.070  34.855   8.352
  217POPC   C3B 6933  11.313  34.988   7.974
  217POPC   C4B 6934  11.255  35.089   7.562
  218POPC   NC3 6935  18.244  20.353   9.617
  218POPC   PO4 6936  18.297  21.030   9.577
  218POPC   GL1 6937  18.334  20.837   9.187
  218POPC   GL2 6938  18.220  20.471   9.130
  218POPC   C1A 6939  18.283  20.823   8.741
  218POPC   D2A 6940  18.156  21.043   8.384
  218POPC   C3A 6941  18.043  20.692   8.138
  218POPC   C4A 6942  18.209  20.632   7.728
  218POPC   C1B 6943  18.186  20.195   8.777
  218POPC   C2B 6944  18.304  20.305   8.382
  218POPC   C3B 6945  18.138  20.210   7.995
  218POPC   C4B 6946  17.935  20.226   7.620
  219POPC   NC3 6947  38.740  15.624   9.472
  219POPC   PO4 6948  38.990  15.017   9.444
  219POPC   GL1 6949  38.637  15.047   9.148
  219POPC   GL2 6950  38.353  14.799   9.153
  219POPC   C1A 6951  38.414  15.214   8.769
  219POPC   D2A 6952  38.309  15.448   8.372
  219POPC   C3A 6953  38.561  15.381   7.979
  219POPC   C4A 6954  38.591  15.359   7.499
  219POPC   C1B 6955  38.575  14.717   8.742
  219POPC   C2B 6956  38.574  14.946   8.314
  219POPC   C3B 6957  38.402  14.897   7.874
  219POPC   C4B 6958  38.403  14.520   7.603
  220POPC   NC3 6959  42.393  43.568   9.598
  220POPC   PO4 6960  42.394  44.247   9.476
  220POPC   GL1 6961  42.261  43.987   9.119
  220POPC   GL2 6962  42.226  43.632   9.114
  220POPC   C1A 6963  42.300  43.950   8.711
  220POPC   D2A 6964  42.239  43.725   8.383
  220POPC   C3A 6965  42.250  44.012   8.065
  220POPC   C4A 6966  42.371  43.936   7.708
  220POPC   C1B 6967  41.920  43.577   8.781
  220POPC   C2B 6968  41.828  43.411   8.375
  220POPC   C3B 6969  41.922  43.622   7.997
  220POPC   C4B 6970  42.086  43.532   7.589
  221POPC   NC3 6971   1.674  30.579   9.333
  221POPC   PO4 6972   1.067  30.848   9.522
  221POPC   GL1 6973   1.166  30.579   9.181
  221POPC   GL2 6974   0.880  30.590   8.940
  221POPC   C1A 6975   1.306  30.375   8.771
  221POPC   D2A 6976   1.107  30.444   8.410
  221POPC   C3A 6977   1.371  30.629   8.126
  221POPC   C4A 6978   1.271  30.663   7.702
  221POPC   C1B 6979   1.177  30.859   8.762
  221POPC   C2B 6980   1.097  30.983   8.374
  221POPC   C3B 6981   1.129  31.070   7.973
  221POPC   C4B 6982   0.990  31.200   7.629
  222POPC   NC3 6983  32.203  24.491   9.530
  222POPC   PO4 6984  32.284  23.859   9.570
  222POPC   GL1 6985  32.221  24.107   9.124
  222POPC   GL2 6986  32.342  24.485   9.036
  222POPC   C1A 6987  32.320  24.123   8.677
  222POPC   D2A 6988  32.364  24.432   8.297
  222POPC   C3A 6989  32.247  24.393   7.847
  222POPC   C4A 6990  32.468  24.309   7.445
  222POPC   C1B 6991  32.127  24.605   8.719
  222POPC   C2B 6992  31.897  24.795   8.408
  222POPC   C3B 6993  31.908  24.945   7.977
  222POPC   C4B 6994  31.789  24.769   7.608
  223POPC   NC3 6995   2.663  36.869   9.582
  223POPC   PO4 6996   3.148  37.362   9.552
  223POPC   GL1 6997   2.947  37.241   9.160
  223POPC   GL2 6998   2.889  36.889   9.116
  223POPC   C1A 6999   3.049  37.152   8.720
  223POPC   D2A 7000   2.793  37.015   8.400
  223POPC   C3A 7001   3.016  36.823   8.119
  223POPC   C4A 7002   2.865  36.769   7.743
  223POPC   C1B 7003   2.531  36.988   8.841
  223POPC   C2B 7004   2.343  36.752   8.482
  223POPC   C3B 7005   2.464  36.714   8.050
  223POPC   C4B 7006   2.391  36.539   7.625
  224POPC   NC3 7007  40.827  29.171   9.394
  224POPC   PO4 7008  40.310  28.667   9.373
  224POPC   GL1 7009  40.419  29.032   9.125
  224POPC   GL2 7010  40.506  29.400   9.041
  224POPC   C1A 7011  40.684  29.010   8.751
  224POPC   D2A 7012  40.591  29.078   8.331
  224POPC   C3A 7013  40.873  28.960   8.011
  224POPC   C4A 7014  41.125  29.217   7.713
  224POPC   C1B 7015  40.570  29.523   8.623
  224POPC   C2B 7016  40.329  29.527   8.262
  224POPC   C3B 7017  40.431  29.278   7.887
  224POPC   C4B 7018  40.380  29.352   7.443
  225POPC   NC3 7019  23.417  41.191   9.425
  225POPC   PO4 7020  23.831  41.787   9.540
  225POPC   GL1 7021  23.654  41.593   9.152
  225POPC   GL2 7022  23.683  41.911   9.068
  225POPC   C1A 7023  23.491  41.578   8.673
  225POPC   D2A 7024  23.711  41.424   8.273
  225POPC   C3A 7025  23.516  41.199   7.904
  225POPC   C4A 7026  23.486  41.370   7.449
  225POPC   C1B 7027  23.831  41.951   8.720
  225POPC   C2B 7028  23.689  41.964   8.336
  225POPC   C3B 7029  23.888  41.933   7.974
  225POPC   C4B 7030  23.857  41.553   7.739
  226POPC   NC3 7031   9.153  44.959   9.475
  226POPC   PO4 7032   8.599  44.580   9.533
  226POPC   GL1 7033   8.909  44.532   9.218
  226POPC   GL2 7034   8.883  44.832   9.078
  226POPC   C1A 7035   9.152  44.478   8.828
  226POPC   D2A 7036   9.086  44.633   8.423
  226POPC   C3A 7037   9.109  44.416   8.042
  226POPC   C4A 7038   9.094  44.381   7.576
  226POPC   C1B 7039   9.148  44.996   8.776
  226POPC   C2B 7040   9.044   0.132   8.349
  226POPC   C3B 7041   8.964  44.915   7.988
  226POPC   C4B 7042   9.263  44.949   7.679
  227POPC   NC3 7043  15.268  28.150   9.550
  227POPC   PO4 7044  14.825  28.587   9.566
  227POPC   GL1 7045  14.914  28.319   9.203
  227POPC   GL2 7046  15.265  28.420   9.086
  227POPC   C1A 7047  14.884  28.245   8.765
  227POPC   D2A 7048  15.223  28.348   8.497
  227POPC   C3A 7049  15.329  28.208   8.078
  227POPC   C4A 7050  15.451  28.277   7.659
  227POPC   C1B 7051  14.980  28.728   8.855
  227POPC   C2B 7052  14.768  28.656   8.443
  227POPC   C3B 7053  14.918  28.498   8.043
  227POPC   C4B 7054  14.991  28.571   7.601
  228POPC   NC3 7055  43.105  22.597   9.627
  228POPC   PO4 7056  43.318  23.278   9.522
  228POPC   GL1 7057  43.163  22.973   9.235
  228POPC   GL2 7058  43.500  23.012   9.087
  228POPC   C1A 7059  43.003  22.863   8.801
  228POPC   D2A 7060  43.065  23.086   8.384
  228POPC   C3A 7061  43.136  22.890   7.969
  228POPC   C4A 7062  42.953  22.516   7.936
  228POPC   C1B 7063  43.505  22.966   8.654
  228POPC   C2B 7064  43.558  23.038   8.228
  228POPC   C3B 7065  43.624  22.854   7.810
  228POPC   C4B 7066  43.412  22.988   7.409
  229POPC   NC3 7067  27.944  40.627   9.660
  229POPC   PO4 7068  27.505  41.140   9.391
  229POPC   GL1 7069  27.519  40.956   8.988
  229POPC   GL2 7070  27.690  40.626   9.027
  229POPC   C1A 7071  27.840  40.965   8.645
  229POPC   D2A 7072  27.682  40.982   8.269
  229POPC   C3A 7073  27.890  40.858   7.977
  229POPC   C4A 7074  28.023  41.093   7.702
  229POPC   C1B 7075  27.485  40.590   8.618
  229POPC   C2B 7076  27.238  40.763   8.277
  229POPC   C3B 7077  27.391  40.773   7.865
  229POPC   C4B 7078  27.551  40.407   7.687
  230POPC   NC3 7079  35.070   9.991   9.579
  230POPC   PO4 7080  35.641   9.576   9.530
  230POPC   GL1 7081  35.407   9.535   9.196
  230POPC   GL2 7082  35.331   9.893   9.142
  230POPC   C1A 7083  35.357   9.495   8.765
  230POPC   D2A 7084  35.091   9.658   8.436
  230POPC   C3A 7085  35.201   9.622   7.994
  230POPC   C4A 7086  34.964   9.597   7.603
  230POPC   C1B 7087  35.527   9.970   8.747
  230POPC   C2B 7088  35.646   9.792   8.360
  230POPC   C3B 7089  35.609   9.969   7.961
  230POPC   C4B 7090  35.460  10.256   7.666
  231POPC   NC3 7091  28.998  38.857   9.446
  231POPC   PO4 7092  29.034  38.122   9.474
  231POPC   GL1 7093  29.317  38.354   9.175
  231POPC   GL2 7094  29.421  38.694   9.219
  231POPC   C1A 7095  29.160  38.375   8.796
  231POPC   D2A 7096  28.935  38.598   8.503
  231POPC   C3A 7097  29.068  38.402   8.125
  231POPC   C4A 7098  28.963  38.520   7.725
  231POPC   C1B 7099  29.402  38.859   8.824
  231POPC   C2B 7100  29.441  38.643   8.471
  231POPC   C3B 7101  29.454  38.750   8.098
  231POPC   C4B 7102  29.466  38.583   7.727
  232POPC   NC3 7103  35.551   4.658   9.674
  232POPC   PO4 7104  34.985   5.090   9.704
  232POPC   GL1 7105  35.373   5.074   9.374
  232POPC   GL2 7106  35.542   5.332   9.136
  232POPC   C1A 7107  35.435   4.898   8.931
  232POPC   D2A 7108  35.210   4.972   8.525
  232POPC   C3A 7109  35.331   4.888   8.095
  232POPC   C4A 7110  35.108   4.930   7.728
  232POPC   C1B 7111  35.460   5.377   8.696
  232POPC   C2B 7112  35.458   5.560   8.270
  232POPC   C3B 7113  35.273   5.395   7.883
  232POPC   C4B 7114  35.229   5.423   7.425
  233POPC   NC3 7115   7.562  21.086   9.510
  233POPC   PO4 7116   6.914  21.206   9.403
  233POPC   GL1 7117   7.279  21.347   9.144
  233POPC   GL2 7118   7.694  21.388   9.130
  233POPC   C1A 7119   7.385  21.143   8.772
  233POPC   D2A 7120   7.410  21.342   8.367
  233POPC   C3A 7121   7.291  21.176   7.970
  233POPC   C4A 7122   7.570  21.135   7.598
  233POPC   C1B 7123   7.508  21.633   8.790
  233POPC   C2B 7124   7.363  21.857   8.430
  233POPC   C3B 7125   7.466  21.764   8.031
  233POPC   C4B 7126   7.419  21.602   7.628
  234POPC   NC3 7127   6.452   2.618   9.224
  234POPC   PO4 7128   7.043   2.490   9.461
  234POPC   GL1 7129   6.965   2.697   9.103
  234POPC   GL2 7130   6.841   2.420   8.999
  234POPC   C1A 7131   6.771   2.896   8.707
  234POPC   D2A 7132   6.866   3.020   8.271
  234POPC   C3A 7133   6.515   3.074   7.949
  234POPC   C4A 7134   6.490   3.274   7.560
  234POPC   C1B 7135   6.983   2.442   8.632
  234POPC   C2B 7136   6.791   2.456   8.275
  234POPC   C3B 7137   6.801   2.619   7.925
  234POPC   C4B 7138   7.070   2.328   7.755
  235POPC   NC3 7139  40.245  26.586   9.553
  235POPC   PO4 7140  39.733  26.939   9.380
  235POPC   GL1 7141  40.054  26.945   9.111
  235POPC   GL2 7142  40.190  26.622   9.055
  235POPC   C1A 7143  39.886  26.890   8.716
  235POPC   D2A 7144  39.987  26.675   8.379
  235POPC   C3A 7145  39.869  26.947   8.054
  235POPC   C4A 7146  39.640  26.739   7.775
  235POPC   C1B 7147  40.377  26.805   8.725
  235POPC   C2B 7148  40.489  26.636   8.377
  235POPC   C3B 7149  40.316  26.706   7.987
  235POPC   C4B 7150  40.332  26.404   7.715
  236POPC   NC3 7151  18.598   5.452   9.791
  236POPC   PO4 7152  18.377   5.004   9.444
  236POPC   GL1 7153  18.352   4.969   9.018
  236POPC   GL2 7154  18.162   4.667   8.932
  236POPC   C1A 7155  18.119   5.206   8.729
  236POPC   D2A 7156  18.039   5.503   8.394
  236POPC   C3A 7157  18.180   5.330   8.015
  236POPC   C4A 7158  18.345   5.205   7.645
  236POPC   C1B 7159  18.094   4.662   8.529
  236POPC   C2B 7160  18.326   4.933   8.313
  236POPC   C3B 7161  18.399   4.790   7.938
  236POPC   C4B 7162  18.209   4.692   7.581
  237POPC   NC3 7163  43.939  41.662   9.737
  237POPC   PO4 7164  43.978  41.037   9.584
  237POPC   GL1 7165  43.820  41.304   9.213
  237POPC   GL2 7166  43.944  41.666   9.212
  237POPC   C1A 7167  44.079  41.397   8.807
  237POPC   D2A 7168  43.979  41.644   8.464
  237POPC   C3A 7169  44.058  41.439   8.044
  237POPC   C4A 7170  43.731  41.281   7.772
  237POPC   C1B 7171  43.626  41.671   8.863
  237POPC   C2B 7172  43.472  41.731   8.427
  237POPC   C3B 7173  43.626  41.720   8.022
  237POPC   C4B 7174  43.650  41.878   7.587
  238POPC   NC3 7175   5.475  36.184   9.367
  238POPC   PO4 7176   5.983  35.803   9.489
  238POPC   GL1 7177   5.946  36.095   9.177
  238POPC   GL2 7178   5.689  35.905   8.997
  238POPC   C1A 7179   5.816  36.424   8.865
  238POPC   D2A 7180   5.668  36.382   8.447
  238POPC   C3A 7181   5.912  36.473   8.064
  238POPC   C4A 7182   5.794  36.421   7.652
  238POPC   C1B 7183   5.982  35.990   8.682
  238POPC   C2B 7184   6.013  36.010   8.275
  238POPC   C3B 7185   5.978  35.952   7.867
  238POPC   C4B 7186   5.842  35.940   7.477
  239POPC   NC3 7187  24.111   5.841   9.527
  239POPC   PO4 7188  24.541   6.262   9.517
  239POPC   GL1 7189  24.548   6.012   9.159
  239POPC   GL2 7190  24.219   6.106   9.106
  239POPC   C1A 7191  24.762   5.880   8.760
  239POPC   D2A 7192  24.686   5.758   8.326
  239POPC   C3A 7193  24.790   6.002   7.953
  239POPC   C4A 7194  24.731   5.749   7.595
  239POPC   C1B 7195  24.238   5.846   8.741
  239POPC   C2B 7196  24.140   5.942   8.323
  239POPC   C3B 7197  24.317   5.809   7.958
  239POPC   C4B 7198  24.224   5.660   7.590
  240POPC   NC3 7199  37.644  18.792   9.492
  240POPC   PO4 7200  37.763  19.429   9.747
  240POPC   GL1 7201  37.648  19.279   9.322
  240POPC   GL2 7202  37.937  19.143   9.271
  240POPC   C1A 7203  37.580  19.080   8.894
  240POPC   D2A 7204  37.352  19.022   8.515
  240POPC   C3A 7205  37.554  19.069   8.112
  240POPC   C4A 7206  37.418  19.123   7.713
  240POPC   C1B 7207  38.090  19.000   8.880
  240POPC   C2B 7208  37.892  18.928   8.478
  240POPC   C3B 7209  38.058  18.968   8.035
  240POPC   C4B 7210  37.879  18.938   7.626
  241POPC   NC3 7211  19.214  29.747   9.569
  241POPC   PO4 7212  18.651  29.432   9.369
  241POPC   GL1 7213  18.954  29.770   9.128
  241POPC   GL2 7214  19.301  29.946   9.117
  241POPC   C1A 7215  19.083  29.886   8.682
  241POPC   D2A 7216  18.897  30.135   8.375
  241POPC   C3A 7217  19.163  30.307   8.052
  241POPC   C4A 7218  18.956  30.077   7.727
  241POPC   C1B 7219  19.442  29.554   8.931
  241POPC   C2B 7220  19.370  29.487   8.503
  241POPC   C3B 7221  19.207  29.750   8.162
  241POPC   C4B 7222  19.124  29.598   7.744
  242POPC   NC3 7223  25.197  32.805   9.520
  242POPC   PO4 7224  24.727  33.230   9.740
  242POPC   GL1 7225  24.885  33.150   9.309
  242POPC   GL2 7226  24.747  32.819   9.261
  242POPC   C1A 7227  25.208  33.149   8.950
  242POPC   D2A 7228  25.403  33.261   8.557
  242POPC   C3A 7229  25.545  33.054   8.198
  242POPC   C4A 7230  25.289  33.095   7.859
  242POPC   C1B 7231  24.953  32.708   8.886
  242POPC   C2B 7232  25.118  32.845   8.497
  242POPC   C3B 7233  25.015  32.729   8.082
  242POPC   C4B 7234  25.059  32.707   7.629
  243POPC   NC3 7235  41.154  30.193   9.415
  243POPC   PO4 7236  41.236  29.472   9.484
  243POPC   GL1 7237  41.005  29.648   9.169
  243POPC   GL2 7238  40.712  29.835   9.254
  243POPC   C1A 7239  41.015  29.743   8.756
  243POPC   D2A 7240  41.025  29.561   8.349
  243POPC   C3A 7241  40.757  29.743   8.075
  243POPC   C4A 7242  40.772  29.601   7.670
  243POPC   C1B 7243  40.655  30.094   8.848
  243POPC   C2B 7244  40.707  30.164   8.414
  243POPC   C3B 7245  40.547  30.220   8.011
  243POPC   C4B 7246  40.735  30.110   7.639
  244POPC   NC3 7247  21.439   6.321   9.488
  244POPC   PO4 7248  21.623   6.971   9.511
  244POPC   GL1 7249  21.453   6.713   9.144
  244POPC   GL2 7250  21.512   6.334   8.998
  244POPC   C1A 7251  21.140   6.616   8.841
  244POPC   D2A 7252  21.375   6.491   8.480
  244POPC   C3A 7253  21.511   6.796   8.186
  244POPC   C4A 7254  21.534   6.687   7.744
  244POPC   C1B 7255  21.806   6.241   8.690
  244POPC   C2B 7256  21.857   6.370   8.277
  244POPC   C3B 7257  21.564   6.246   7.977
  244POPC   C4B 7258  21.601   6.234   7.493
  245POPC   NC3 7259  39.644  20.679   9.494
  245POPC   PO4 7260  39.085  21.066   9.413
  245POPC   GL1 7261  39.289  20.930   9.064
  245POPC   GL2 7262  39.342  20.585   9.035
  245POPC   C1A 7263  39.120  20.828   8.657
  245POPC   D2A 7264  39.262  21.055   8.328
  245POPC   C3A 7265  39.078  20.889   7.998
  245POPC   C4A 7266  39.195  20.589   7.736
  245POPC   C1B 7267  39.463  20.258   8.749
  245POPC   C2B 7268  39.307  20.060   8.402
  245POPC   C3B 7269  39.274  20.111   8.006
  245POPC   C4B 7270  38.929  20.173   7.770
  246POPC   NC3 7271   8.937  34.334   9.424
  246POPC   PO4 7272   8.908  34.991   9.341
  246POPC   GL1 7273   8.831  34.780   8.952
  246POPC   GL2 7274   8.632  34.483   9.046
  246POPC   C1A 7275   9.045  34.804   8.530
  246POPC   D2A 7276   9.263  35.008   8.182
  246POPC   C3A 7277   9.308  34.680   7.925
  246POPC   C4A 7278   8.921  34.668   7.769
  246POPC   C1B 7279   8.847  34.354   8.665
  246POPC   C2B 7280   8.969  34.351   8.220
  246POPC   C3B 7281   8.828  34.185   7.803
  246POPC   C4B 7282   8.850  34.346   7.374
  247POPC   NC3 7283  15.856  28.821   9.452
  247POPC   PO4 7284  15.731  28.171   9.482
  247POPC   GL1 7285  15.893  28.367   9.111
  247POPC   GL2 7286  16.176  28.145   9.104
  247POPC   C1A 7287  15.919  28.524   8.685
  247POPC   D2A 7288  15.690  28.513   8.289
  247POPC   C3A 7289  15.903  28.712   7.925
  247POPC   C4A 7290  15.826  28.568   7.505
  247POPC   C1B 7291  16.295  28.157   8.720
  247POPC   C2B 7292  16.130  28.238   8.324
  247POPC   C3B 7293  15.906  28.170   7.955
  247POPC   C4B 7294  16.222  28.333   7.712
  248POPC   NC3 7295   4.133  23.659   9.429
  248POPC   PO4 7296   4.472  24.199   9.418
  248POPC   GL1 7297   4.463  23.954   9.051
  248POPC   GL2 7298   4.298  23.674   8.966
  248POPC   C1A 7299   4.569  23.964   8.637
  248POPC   D2A 7300   4.412  24.049   8.259
  248POPC   C3A 7301   4.557  23.809   7.946
  248POPC   C4A 7302   4.794  24.015   7.681
  248POPC   C1B 7303   4.058  23.588   8.654
  248POPC   C2B 7304   4.232  23.555   8.267
  248POPC   C3B 7305   4.018  23.464   7.916
  248POPC   C4B 7306   3.955  23.601   7.489
  249POPC   NC3 7307  31.263  24.163   9.440
  249POPC   PO4 7308  31.495  23.478   9.512
  249POPC   GL1 7309  31.642  23.587   9.147
  249POPC   GL2 7310  31.721  23.936   9.217
  249POPC   C1A 7311  31.478  23.456   8.758
  249POPC   D2A 7312  31.235  23.431   8.414
  249POPC   C3A 7313  31.437  23.542   8.064
  249POPC   C4A 7314  31.340  23.462   7.656
  249POPC   C1B 7315  31.393  23.940   8.866
  249POPC   C2B 7316  31.238  24.041   8.493
  249POPC   C3B 7317  31.356  24.076   8.094
  249POPC   C4B 7318  31.361  23.951   7.703
  250POPC   NC3 7319   2.589  29.842   9.472
  250POPC   PO4 7320   3.249  30.003   9.507
  250POPC   GL1 7321   2.925  30.091   9.131
  250POPC   GL2 7322   2.605  29.949   9.000
  250POPC   C1A 7323   2.845  30.275   8.719
  250POPC   D2A 7324   2.982  30.073   8.365
  250POPC   C3A 7325   2.761  29.903   8.039
  250POPC   C4A 7326   3.000  29.869   7.656
  250POPC   C1B 7327   2.560  29.851   8.576
  250POPC   C2B 7328   2.681  29.523   8.359
  250POPC   C3B 7329   2.684  29.383   7.960
  250POPC   C4B 7330   2.583  29.593   7.648
  251POPC   NC3 7331  13.203  20.578   9.337
  251POPC   PO4 7332  13.825  20.613   9.582
  251POPC   GL1 7333  13.793  20.486   9.188
  251POPC   GL2 7334  13.575  20.729   9.029
  251POPC   C1A 7335  13.987  20.563   8.796
  251POPC   D2A 7336  13.887  20.798   8.427
  251POPC   C3A 7337  13.677  20.586   8.067
  251POPC   C4A 7338  13.903  20.351   7.743
  251POPC   C1B 7339  13.450  20.574   8.607
  251POPC   C2B 7340  13.215  20.760   8.260
  251POPC   C3B 7341  13.312  20.888   7.830
  251POPC   C4B 7342  13.647  20.711   7.489
  252POPC   NC3 7343  30.363  11.521   9.440
  252POPC   PO4 7344  29.874  11.100   9.502
  252POPC   GL1 7345  29.947  11.304   9.148
  252POPC   GL2 7346  29.879  11.654   9.235
  252POPC   C1A 7347  30.002  11.149   8.732
  252POPC   D2A 7348  30.159  11.102   8.322
  252POPC   C3A 7349  29.873  11.106   7.986
  252POPC   C4A 7350  30.135  11.183   7.646
  252POPC   C1B 7351  29.987  11.674   8.798
  252POPC   C2B 7352  29.852  11.589   8.378
  252POPC   C3B 7353  30.006  11.603   7.932
  252POPC   C4B 7354  29.783  11.507   7.539
  253POPC   NC3 7355   9.360  21.319   9.363
  253POPC   PO4 7356   8.638  21.410   9.482
  253POPC   GL1 7357   8.930  21.552   9.189
  253POPC   GL2 7358   8.714  21.735   9.041
  253POPC   C1A 7359   9.115  21.518   8.758
  253POPC   D2A 7360   9.262  21.248   8.413
  253POPC   C3A 7361   9.120  21.439   8.050
  253POPC   C4A 7362   9.234  21.461   7.659
  253POPC   C1B 7363   8.552  21.525   8.725
  253POPC   C2B 7364   8.760  21.305   8.411
  253POPC   C3B 7365   8.700  21.181   7.986
  253POPC   C4B 7366   8.739  21.427   7.560
  254POPC   NC3 7367   8.439  31.115   9.400
  254POPC   PO4 7368   7.863  31.445   9.496
  254POPC   GL1 7369   8.001  31.622   9.117
  254POPC   GL2 7370   8.372  31.589   9.095
  254POPC   C1A 7371   7.790  31.706   8.728
  254POPC   D2A 7372   7.770  31.885   8.299
  254POPC   C3A 7373   7.957  31.570   8.051
  254POPC   C4A 7374   7.891  31.477   7.631
  254POPC   C1B 7375   8.473  31.341   8.734
  254POPC   C2B 7376   8.369  31.265   8.284
  254POPC   C3B 7377   8.438  31.474   7.895
  254POPC   C4B 7378   8.375  31.342   7.435
  255POPC   NC3 7379  14.826  33.118   9.401
  255POPC   PO4 7380  14.272  32.758   9.605
  255POPC   GL1 7381  14.348  32.939   9.248
  255POPC   GL2 7382  14.601  32.692   9.173
  255POPC   C1A 7383  14.235  33.154   8.889
  255POPC   D2A 7384  14.371  33.237   8.493
  255POPC   C3A 7385  14.216  33.087   8.125
  255POPC   C4A 7386  14.510  33.178   7.799
  255POPC   C1B 7387  14.260  32.574   8.902
  255POPC   C2B 7388  14.306  32.710   8.493
  255POPC   C3B 7389  14.289  32.560   8.092
  255POPC   C4B 7390  14.166  32.757   7.721
  256POPC   NC3 7391  15.727   3.186   9.475
  256POPC   PO4 7392  16.076   2.679   9.616
  256POPC   GL1 7393  16.154   2.756   9.179
  256POPC   GL2 7394  16.136   3.080   9.073
  256POPC   C1A 7395  16.015   2.639   8.748
  256POPC   D2A 7396  16.183   2.526   8.360
  256POPC   C3A 7397  15.990   2.620   7.971
  256POPC   C4A 7398  16.172   2.502   7.587
  256POPC   C1B 7399  15.754   3.057   8.809
  256POPC   C2B 7400  15.692   2.855   8.389
  256POPC   C3B 7401  15.662   3.007   7.963
  256POPC   C4B 7402  15.789   2.865   7.545
  257POPC   NC3 7403  42.186  27.859   9.447
  257POPC   PO4 7404  42.631  27.409   9.515
  257POPC   GL1 7405  42.530  27.612   9.134
  257POPC   GL2 7406  42.157  27.590   9.021
  257POPC   C1A 7407  42.517  27.695   8.691
  257POPC   D2A 7408  42.308  27.491   8.349
  257POPC   C3A 7409  42.510  27.531   7.940
  257POPC   C4A 7410  42.668  27.190   7.680
  257POPC   C1B 7411  42.084  27.984   8.778
  257POPC   C2B 7412  42.214  27.993   8.348
  257POPC   C3B 7413  42.025  27.751   8.011
  257POPC   C4B 7414  42.118  27.744   7.590
  258POPC   NC3 7415  23.270   2.460   9.480
  258POPC   PO4 7416  22.809   2.912   9.706
  258POPC   GL1 7417  22.962   2.928   9.251
  258POPC   GL2 7418  22.914   2.617   9.096
  258POPC   C1A 7419  23.142   2.979   8.798
  258POPC   D2A 7420  23.232   2.804   8.348
  258POPC   C3A 7421  22.849   2.676   8.149
  258POPC   C4A 7422  22.601   2.647   7.781
  258POPC   C1B 7423  23.224   2.426   8.796
  258POPC   C2B 7424  23.215   2.268   8.366
  258POPC   C3B 7425  23.261   2.399   7.960
  258POPC   C4B 7426  23.139   2.791   7.732
  259POPC   NC3 7427   3.374  36.982   9.313
  259POPC   PO4 7428   3.912  36.724   9.650
  259POPC   GL1 7429   3.736  36.518   9.228
  259POPC   GL2 7430   3.679  36.760   8.966
  259POPC   C1A 7431   3.832  36.288   8.821
  259POPC   D2A 7432   3.791  36.352   8.363
  259POPC   C3A 7433   3.606  36.760   8.184
  259POPC   C4A 7434   3.404  36.866   7.796
  259POPC   C1B 7435   3.750  37.115   8.687
  259POPC   C2B 7436   3.906  37.175   8.294
  259POPC   C3B 7437   3.615  37.292   8.001
  259POPC   C4B 7438   3.535  37.305   7.586
  260POPC   NC3 7439  40.603  18.756   9.600
  260POPC   PO4 7440  41.074  19.170   9.730
  260POPC   GL1 7441  41.004  18.871   9.290
  260POPC   GL2 7442  40.695  18.749   9.111
  260POPC   C1A 7443  41.062  18.876   8.783
  260POPC   D2A 7444  40.894  19.099   8.365
  260POPC   C3A 7445  41.123  19.213   7.946
  260POPC   C4A 7446  40.959  18.951   7.585
  260POPC   C1B 7447  40.550  18.991   8.745
  260POPC   C2B 7448  40.407  18.895   8.317
  260POPC   C3B 7449  40.585  19.014   7.902
  260POPC   C4B 7450  40.514  19.145   7.409
  261POPC   NC3 7451   7.021  30.409  10.021
  261POPC   PO4 7452   6.602  30.743   9.682
  261POPC   GL1 7453   6.643  30.718   9.247
  261POPC   GL2 7454   6.864  30.528   9.169
  261POPC   C1A 7455   6.519  30.677   8.820
  261POPC   D2A 7456   6.586  30.542   8.406
  261POPC   C3A 7457   6.634  30.931   8.137
  261POPC   C4A 7458   6.391  31.041   7.752
  261POPC   C1B 7459   6.856  30.291   8.805
  261POPC   C2B 7460   6.999  30.135   8.429
  261POPC   C3B 7461   6.832  30.266   8.036
  261POPC   C4B 7462   6.737  30.613   7.751
  262POPC   NC3 7463   4.341   5.583   9.490
  262POPC   PO4 7464   4.041   6.178   9.332
  262POPC   GL1 7465   4.110   5.853   9.121
  262POPC   GL2 7466   4.448   5.848   9.070
  262POPC   C1A 7467   4.028   5.741   8.708
  262POPC   D2A 7468   4.112   5.950   8.317
  262POPC   C3A 7469   4.075   5.773   7.902
  262POPC   C4A 7470   4.111   5.982   7.536
  262POPC   C1B 7471   4.538   5.755   8.656
  262POPC   C2B 7472   4.644   5.883   8.229
  262POPC   C3B 7473   4.546   5.918   7.784
  262POPC   C4B 7474   4.454   5.648   7.403
  263POPC   NC3 7475   9.046  29.341   9.358
  263POPC   PO4 7476   8.603  28.811   9.307
  263POPC   GL1 7477   8.949  28.923   9.063
  263POPC   GL2 7478   8.827  29.225   8.928
  263POPC   C1A 7479   9.280  29.099   8.789
  263POPC   D2A 7480   9.351  29.015   8.387
  263POPC   C3A 7481   9.069  29.170   8.122
  263POPC   C4A 7482   8.847  29.153   7.757
  263POPC   C1B 7483   8.787  28.979   8.588
  263POPC   C2B 7484   8.573  29.035   8.226
  263POPC   C3B 7485   8.589  28.749   7.915
  263POPC   C4B 7486   8.481  28.880   7.502
  264POPC   NC3 7487  26.897  11.622   9.321
  264POPC   PO4 7488  26.687  12.122   9.749
  264POPC   GL1 7489  26.923  12.136   9.285
  264POPC   GL2 7490  27.236  11.978   9.196
  264POPC   C1A 7491  26.817  12.001   8.770
  264POPC   D2A 7492  26.829  11.666   8.461
  264POPC   C3A 7493  26.811  11.839   8.040
  264POPC   C4A 7494  26.600  12.151   7.788
  264POPC   C1B 7495  27.245  12.221   8.831
  264POPC   C2B 7496  27.178  12.119   8.387
  264POPC   C3B 7497  27.301  11.994   7.986
  264POPC   C4B 7498  27.111  12.016   7.597
  265POPC   NC3 7499  39.391  33.715   9.486
  265POPC   PO4 7500  39.019  34.299   9.318
  265POPC   GL1 7501  39.222  33.996   9.104
  265POPC   GL2 7502  39.592  33.993   9.123
  265POPC   C1A 7503  39.055  33.795   8.776
  265POPC   D2A 7504  39.154  33.655   8.375
  265POPC   C3A 7505  38.982  33.879   8.025
  265POPC   C4A 7506  39.091  33.881   7.610
  265POPC   C1B 7507  39.557  33.759   8.751
  265POPC   C2B 7508  39.644  33.871   8.374
  265POPC   C3B 7509  39.489  33.780   8.005
  265POPC   C4B 7510  39.602  33.790   7.596
  266POPC   NC3 7511   2.841  21.980   9.551
  266POPC   PO4 7512   2.668  22.703   9.392
  266POPC   GL1 7513   2.686  22.326   9.170
  266POPC   GL2 7514   2.996  22.303   9.192
  266POPC   C1A 7515   2.644  22.122   8.760
  266POPC   D2A 7516   2.538  21.945   8.342
  266POPC   C3A 7517   2.684  22.135   7.951
  266POPC   C4A 7518   2.502  22.395   7.638
  266POPC   C1B 7519   3.087  21.930   8.930
  266POPC   C2B 7520   3.154  21.938   8.499
  266POPC   C3B 7521   3.045  21.809   8.102
  266POPC   C4B 7522   3.125  21.974   7.675
  267POPC   NC3 7523  34.489   2.303   9.431
  267POPC   PO4 7524  34.949   1.810   9.510
  267POPC   GL1 7525  34.668   1.869   9.165
  267POPC   GL2 7526  34.651   2.204   8.954
  267POPC   C1A 7527  34.640   1.746   8.747
  267POPC   D2A 7528  34.839   2.018   8.459
  267POPC   C3A 7529  34.682   2.131   8.085
  267POPC   C4A 7530  34.843   2.064   7.674
  267POPC   C1B 7531  34.341   2.110   8.588
  267POPC   C2B 7532  34.301   1.785   8.278
  267POPC   C3B 7533  34.334   1.884   7.825
  267POPC   C4B 7534  34.379   2.274   7.668
  268POPC   NC3 7535  22.689   9.959   9.730
  268POPC   PO4 7536  23.015   9.416   9.558
  268POPC   GL1 7537  22.823   9.593   9.207
  268POPC   GL2 7538  23.128   9.747   9.120
  268POPC   C1A 7539  22.783   9.618   8.749
  268POPC   D2A 7540  22.592   9.415   8.370
  268POPC   C3A 7541  22.633   9.709   8.059
  268POPC   C4A 7542  22.995   9.799   7.846
  268POPC   C1B 7543  23.255   9.428   8.793
  268POPC   C2B 7544  23.118   9.398   8.365
  268POPC   C3B 7545  23.184   9.334   7.933
  268POPC   C4B 7546  23.294   9.560   7.489
  269POPC   NC3 7547   7.540   6.805   9.480
  269POPC   PO4 7548   7.163   6.194   9.469
  269POPC   GL1 7549   7.284   6.501   9.093
  269POPC   GL2 7550   7.475   6.831   8.989
  269POPC   C1A 7551   7.481   6.434   8.686
  269POPC   D2A 7552   7.578   6.715   8.363
  269POPC   C3A 7553   7.640   6.512   7.981
  269POPC   C4A 7554   7.433   6.485   7.585
  269POPC   C1B 7555   7.143   6.867   8.700
  269POPC   C2B 7556   7.029   6.887   8.297
  269POPC   C3B 7557   7.213   6.785   7.953
  269POPC   C4B 7558   7.533   6.990   7.708
  270POPC   NC3 7559  42.069   2.397   9.448
  270POPC   PO4 7560  42.149   3.059   9.708
  270POPC   GL1 7561  42.443   2.915   9.321
  270POPC   GL2 7562  42.770   3.099   9.180
  270POPC   C1A 7563  42.494   2.761   8.892
  270POPC   D2A 7564  42.180   2.686   8.588
  270POPC   C3A 7565  42.279   2.552   8.183
  270POPC   C4A 7566  42.165   2.553   7.758
  270POPC   C1B 7567  42.548   3.276   8.782
  270POPC   C2B 7568  42.335   3.141   8.382
  270POPC   C3B 7569  42.343   3.007   7.938
  270POPC   C4B 7570  42.654   2.667   7.814
  271POPC   NC3 7571   9.834  14.331   9.497
  271POPC   PO4 7572   9.454  14.744   9.227
  271POPC   GL1 7573   9.609  14.350   9.032
  271POPC   GL2 7574   9.939  14.443   9.016
  271POPC   C1A 7575   9.509  14.018   8.726
  271POPC   D2A 7576   9.252  14.059   8.331
  271POPC   C3A 7577   9.431  14.225   7.922
  271POPC   C4A 7578   9.512  14.494   7.544
  271POPC   C1B 7579   9.979  14.201   8.671
  271POPC   C2B 7580  10.110  14.384   8.283
  271POPC   C3B 7581   9.930  14.464   7.876
  271POPC   C4B 7582   9.836  14.878   7.713
  272POPC   NC3 7583  12.284  26.647   9.495
  272POPC   PO4 7584  11.683  26.615   9.771
  272POPC   GL1 7585  11.812  26.564   9.258
  272POPC   GL2 7586  11.945  26.844   9.123
  272POPC   C1A 7587  12.186  26.478   8.864
  272POPC   D2A 7588  12.204  26.418   8.378
  272POPC   C3A 7589  12.316  26.719   8.015
  272POPC   C4A 7590  11.980  26.650   7.690
  272POPC   C1B 7591  11.897  26.816   8.645
  272POPC   C2B 7592  11.869  26.841   8.201
  272POPC   C3B 7593  12.010  27.125   7.875
  272POPC   C4B 7594  11.781  27.140   7.513
  273POPC   NC3 7595  36.924  32.980   9.524
  273POPC   PO4 7596  37.289  32.737   9.056
  273POPC   GL1 7597  36.964  33.031   9.027
  273POPC   GL2 7598  36.652  32.831   9.098
  273POPC   C1A 7599  36.710  33.197   8.724
  273POPC   D2A 7600  36.579  33.055   8.323
  273POPC   C3A 7601  36.805  33.218   7.959
  273POPC   C4A 7602  37.119  33.052   7.661
  273POPC   C1B 7603  36.732  32.689   8.684
  273POPC   C2B 7604  37.022  32.814   8.347
  273POPC   C3B 7605  36.846  32.718   7.936
  273POPC   C4B 7606  36.633  32.881   7.559
  274POPC   NC3 7607  37.279  31.109   9.415
  274POPC   PO4 7608  37.929  31.353   9.609
  274POPC   GL1 7609  37.716  31.322   9.205
  274POPC   GL2 7610  37.540  31.060   8.994
  274POPC   C1A 7611  37.723  31.551   8.834
  274POPC   D2A 7612  37.587  31.743   8.452
  274POPC   C3A 7613  37.695  31.472   8.095
  274POPC   C4A 7614  37.876  31.442   7.662
  274POPC   C1B 7615  37.315  31.277   8.679
  274POPC   C2B 7616  37.184  31.395   8.262
  274POPC   C3B 7617  37.278  31.359   7.814
  274POPC   C4B 7618  37.227  31.362   7.371
  275POPC   NC3 7619  42.855   7.593   9.336
  275POPC   PO4 7620  42.202   7.224   9.504
  275POPC   GL1 7621  42.335   7.510   9.187
  275POPC   GL2 7622  42.474   7.232   9.022
  275POPC   C1A 7623  42.096   7.615   8.803
  275POPC   D2A 7624  42.052   7.408   8.407
  275POPC   C3A 7625  42.083   7.590   8.025
  275POPC   C4A 7626  42.407   7.436   7.779
  275POPC   C1B 7627  42.611   7.511   8.710
  275POPC   C2B 7628  42.519   7.664   8.306
  275POPC   C3B 7629  42.774   7.735   7.979
  275POPC   C4B 7630  42.901   7.435   7.660
  276POPC   NC3 7631  18.131  26.593   9.457
  276POPC   PO4 7632  18.697  26.940   9.391
  276POPC   GL1 7633  18.461  26.806   9.079
  276POPC   GL2 7634  18.186  27.005   9.152
  276POPC   C1A 7635  18.245  26.608   8.749
  276POPC   D2A 7636  18.152  26.748   8.319
  276POPC   C3A 7637  18.301  26.496   7.951
  276POPC   C4A 7638  18.308  26.483   7.494
  276POPC   C1B 7639  18.126  27.100   8.749
  276POPC   C2B 7640  18.300  27.276   8.418
  276POPC   C3B 7641  18.161  27.181   8.032
  276POPC   C4B 7642  18.410  27.154   7.668
  277POPC   NC3 7643  15.059  39.057   9.601
  277POPC   PO4 7644  15.643  39.273   9.560
  277POPC   GL1 7645  15.257  39.226   9.176
  277POPC   GL2 7646  15.095  38.875   9.123
  277POPC   C1A 7647  15.158  39.267   8.706
  277POPC   D2A 7648  15.398  39.089   8.310
  277POPC   C3A 7649  15.249  39.201   7.884
  277POPC   C4A 7650  15.406  39.358   7.488
  277POPC   C1B 7651  14.794  38.907   8.789
  277POPC   C2B 7652  14.932  38.888   8.362
  277POPC   C3B 7653  14.784  38.962   7.956
  277POPC   C4B 7654  14.814  39.167   7.544
  278POPC   NC3 7655  37.283   6.777   9.390
  278POPC   PO4 7656  36.688   6.541   9.490
  278POPC   GL1 7657  36.649   6.809   9.134
  278POPC   GL2 7658  36.954   6.798   8.996
  278POPC   C1A 7659  36.581   7.001   8.735
  278POPC   D2A 7660  36.932   6.979   8.464
  278POPC   C3A 7661  36.924   6.747   8.085
  278POPC   C4A 7662  36.862   6.755   7.675
  278POPC   C1B 7663  37.215   6.582   8.718
  278POPC   C2B 7664  37.197   6.390   8.305
  278POPC   C3B 7665  37.120   6.302   7.855
  278POPC   C4B 7666  37.017   6.328   7.403
  279POPC   NC3 7667  37.935  24.334   9.530
  279POPC   PO4 7668  37.392  24.635   9.892
  279POPC   GL1 7669  37.500  24.608   9.387
  279POPC   GL2 7670  37.829  24.786   9.292
  279POPC   C1A 7671  37.671  24.435   8.942
  279POPC   D2A 7672  37.650  24.131   8.561
  279POPC   C3A 7673  37.669  24.227   8.103
  279POPC   C4A 7674  37.548  24.398   7.655
  279POPC   C1B 7675  37.967  24.837   8.863
  279POPC   C2B 7676  37.745  24.628   8.468
  279POPC   C3B 7677  37.540  24.717   8.064
  279POPC   C4B 7678  37.677  24.901   7.647
  280POPC   NC3 7679  43.331  32.291   9.565
  280POPC   PO4 7680  42.787  32.049   9.473
  280POPC   GL1 7681  42.972  32.303   9.150
  280POPC   GL2 7682  43.294  32.467   9.095
  280POPC   C1A 7683  42.849  32.179   8.746
  280POPC   D2A 7684  43.076  32.286   8.402
  280POPC   C3A 7685  42.865  32.168   8.025
  280POPC   C4A 7686  43.030  32.070   7.631
  280POPC   C1B 7687  43.530  32.551   8.729
  280POPC   C2B 7688  43.505  32.637   8.287
  280POPC   C3B 7689  43.373  32.342   7.986
  280POPC   C4B 7690  43.435  32.504   7.636
  281POPC   NC3 7691  24.877  27.068   9.564
  281POPC   PO4 7692  25.531  26.900   9.395
  281POPC   GL1 7693  25.264  26.811   9.080
  281POPC   GL2 7694  25.004  27.078   9.033
  281POPC   C1A 7695  24.999  26.625   8.787
  281POPC   D2A 7696  24.981  26.562   8.324
  281POPC   C3A 7697  25.188  26.805   8.053
  281POPC   C4A 7698  25.457  26.712   7.696
  281POPC   C1B 7699  25.225  27.045   8.590
  281POPC   C2B 7700  25.546  27.116   8.239
  281POPC   C3B 7701  25.490  27.206   7.769
  281POPC   C4B 7702  25.175  27.119   7.403
  282POPC   NC3 7703  27.627   6.188   9.471
  282POPC   PO4 7704  27.839   6.798   9.306
  282POPC   GL1 7705  27.517   6.622   9.066
  282POPC   GL2 7706  27.718   6.356   8.999
  282POPC   C1A 7707  27.287   6.804   8.693
  282POPC   D2A 7708  27.161   7.036   8.320
  282POPC   C3A 7709  27.261   6.807   7.938
  282POPC   C4A 7710  27.422   6.400   7.796
  282POPC   C1B 7711  27.742   6.506   8.599
  282POPC   C2B 7712  27.741   6.560   8.157
  282POPC   C3B 7713  27.918   6.303   7.802
  282POPC   C4B 7714  27.942   6.638   7.545
  283POPC   NC3 7715   1.811  24.211   9.469
  283POPC   PO4 7716   2.088  24.894   9.347
  283POPC   GL1 7717   2.037  24.518   9.088
  283POPC   GL2 7718   1.697  24.346   8.994
  283POPC   C1A 7719   2.071  24.387   8.663
  283POPC   D2A 7720   2.039  24.227   8.271
  283POPC   C3A 7721   1.833  24.483   7.953
  283POPC   C4A 7722   1.956  24.522   7.518
  283POPC   C1B 7723   1.701  24.734   8.723
  283POPC   C2B 7724   1.529  24.732   8.306
  283POPC   C3B 7725   1.591  24.950   7.919
  283POPC   C4B 7726   1.510  24.771   7.546
  284POPC   NC3 7727  22.372  21.091   9.511
  284POPC   PO4 7728  22.794  20.394   9.566
  284POPC   GL1 7729  22.771  20.587   9.173
  284POPC   GL2 7730  22.431  20.779   9.115
  284POPC   C1A 7731  23.000  20.570   8.806
  284POPC   D2A 7732  22.931  20.308   8.458
  284POPC   C3A 7733  23.057  20.481   8.085
  284POPC   C4A 7734  23.137  20.619   7.661
  284POPC   C1B 7735  22.590  20.871   8.739
  284POPC   C2B 7736  22.687  20.746   8.362
  284POPC   C3B 7737  22.736  20.860   7.972
  284POPC   C4B 7738  22.695  20.962   7.579
  285POPC   NC3 7739  14.962  29.478   9.458
  285POPC   PO4 7740  15.608  29.205   9.489
  285POPC   GL1 7741  15.379  29.248   9.155
  285POPC   GL2 7742  15.478  28.900   9.096
  285POPC   C1A 7743  15.198  29.212   8.742
  285POPC   D2A 7744  15.360  29.354   8.342
  285POPC   C3A 7745  15.164  29.189   8.002
  285POPC   C4A 7746  14.913  29.389   7.772
  285POPC   C1B 7747  15.465  28.755   8.708
  285POPC   C2B 7748  15.245  28.822   8.338
  285POPC   C3B 7749  15.376  28.726   7.922
  285POPC   C4B 7750  15.542  29.045   7.682
  286POPC   NC3 7751  23.175  14.372   9.885
  286POPC   PO4 7752  22.729  14.577   9.389
  286POPC   GL1 7753  22.823  14.345   9.033
  286POPC   GL2 7754  23.165  14.224   8.954
  286POPC   C1A 7755  22.843  14.573   8.670
  286POPC   D2A 7756  22.639  14.519   8.269
  286POPC   C3A 7757  22.930  14.421   8.021
  286POPC   C4A 7758  23.160  14.575   7.705
  286POPC   C1B 7759  22.909  14.062   8.595
  286POPC   C2B 7760  22.532  13.943   8.354
  286POPC   C3B 7761  22.521  14.052   7.935
  286POPC   C4B 7762  22.853  14.105   7.635
  287POPC   NC3 7763  23.486  30.390   9.952
  287POPC   PO4 7764  22.977  30.588   9.522
  287POPC   GL1 7765  23.066  30.750   9.108
  287POPC   GL2 7766  23.067  30.385   9.066
  287POPC   C1A 7767  23.068  30.944   8.678
  287POPC   D2A 7768  22.800  31.000   8.299
  287POPC   C3A 7769  22.958  31.066   7.875
  287POPC   C4A 7770  22.813  30.855   7.493
  287POPC   C1B 7771  22.898  30.484   8.712
  287POPC   C2B 7772  22.771  30.493   8.335
  287POPC   C3B 7773  22.978  30.554   7.940
  287POPC   C4B 7774  22.883  30.362   7.561
  288POPC   NC3 7775  29.983   6.869   9.442
  288POPC   PO4 7776  30.168   6.304   9.203
  288POPC   GL1 7777  29.939   6.654   8.994
  288POPC   GL2 7778  29.638   6.624   9.158
  288POPC   C1A 7779  29.817   6.935   8.660
  288POPC   D2A 7780  30.102   6.970   8.330
  288POPC   C3A 7781  30.091   7.068   7.901
  288POPC   C4A 7782  30.106   6.870   7.492
  288POPC   C1B 7783  29.554   6.428   8.761
  288POPC   C2B 7784  29.605   6.587   8.344
  288POPC   C3B 7785  29.853   6.615   7.976
  288POPC   C4B 7786  29.760   6.455   7.578
  289POPC   NC3 7787   5.061  14.902   9.431
  289POPC   PO4 7788   4.679  14.402   9.639
  289POPC   GL1 7789   4.917  14.412   9.212
  289POPC   GL2 7790   5.249  14.301   9.165
  289POPC   C1A 7791   4.845  14.270   8.783
  289POPC   D2A 7792   4.807  14.413   8.384
  289POPC   C3A 7793   4.802  14.303   7.967
  289POPC   C4A 7794   5.108  14.325   7.614
  289POPC   C1B 7795   5.220  14.621   8.815
  289POPC   C2B 7796   5.172  14.768   8.386
  289POPC   C3B 7797   5.231  14.633   7.989
  289POPC   C4B 7798   5.435  14.710   7.568
  290POPC   NC3 7799  29.862   1.134   9.675
  290POPC   PO4 7800  30.016   1.713   9.607
  290POPC   GL1 7801  29.960   1.358   9.226
  290POPC   GL2 7802  29.677   1.091   9.197
  290POPC   C1A 7803  30.055   1.081   8.835
  290POPC   D2A 7804  29.931   0.951   8.380
  290POPC   C3A 7805  30.023   1.205   7.996
  290POPC   C4A 7806  30.123   1.294   7.536
  290POPC   C1B 7807  29.572   0.923   8.779
  290POPC   C2B 7808  29.434   1.069   8.362
  290POPC   C3B 7809  29.403   0.911   7.952
  290POPC   C4B 7810  29.772   0.865   7.725
  291POPC   NC3 7811  16.370  23.775   9.557
  291POPC   PO4 7812  15.669  23.551   9.425
  291POPC   GL1 7813  16.008  23.711   9.171
  291POPC   GL2 7814  16.363  23.555   9.121
  291POPC   C1A 7815  15.908  23.687   8.752
  291POPC   D2A 7816  15.732  23.993   8.485
  291POPC   C3A 7817  15.776  24.087   8.059
  291POPC   C4A 7818  15.606  23.956   7.667
  291POPC   C1B 7819  16.421  23.839   8.823
  291POPC   C2B 7820  16.262  23.822   8.412
  291POPC   C3B 7821  16.029  23.635   8.089
  291POPC   C4B 7822  16.059  23.739   7.665
  292POPC   NC3 7823  32.845  35.739   9.649
  292POPC   PO4 7824  32.711  35.106   9.599
  292POPC   GL1 7825  32.959  35.348   9.266
  292POPC   GL2 7826  32.681  35.494   9.183
  292POPC   C1A 7827  33.070  35.489   8.817
  292POPC   D2A 7828  32.876  35.330   8.395
  292POPC   C3A 7829  33.116  35.148   8.111
  292POPC   C4A 7830  33.306  35.382   7.794
  292POPC   C1B 7831  32.564  35.441   8.776
  292POPC   C2B 7832  32.455  35.627   8.436
  292POPC   C3B 7833  32.555  35.697   8.073
  292POPC   C4B 7834  32.806  35.445   7.841
  293POPC   NC3 7835   6.511  28.911   9.415
  293POPC   PO4 7836   6.872  29.534   9.387
  293POPC   GL1 7837   6.804  29.214   9.093
  293POPC   GL2 7838   6.448  29.213   9.018
  293POPC   C1A 7839   6.770  29.315   8.662
  293POPC   D2A 7840   6.660  29.181   8.239
  293POPC   C3A 7841   6.909  29.363   7.894
  293POPC   C4A 7842   6.950  29.519   7.435
  293POPC   C1B 7843   6.313  29.044   8.608
  293POPC   C2B 7844   6.373  28.759   8.235
  293POPC   C3B 7845   6.446  28.970   7.822
  293POPC   C4B 7846   6.483  29.378   7.607
  294POPC   NC3 7847  24.290  20.460   9.555
  294POPC   PO4 7848  24.890  20.266   9.341
  294POPC   GL1 7849  24.499  20.424   9.106
  294POPC   GL2 7850  24.144  20.270   9.117
  294POPC   C1A 7851  24.418  20.593   8.702
  294POPC   D2A 7852  24.491  20.479   8.297
  294POPC   C3A 7853  24.567  20.698   7.918
  294POPC   C4A 7854  24.732  20.586   7.494
  294POPC   C1B 7855  23.933  20.504   8.824
  294POPC   C2B 7856  23.948  20.623   8.415
  294POPC   C3B 7857  24.073  20.497   8.006
  294POPC   C4B 7858  24.171  20.622   7.590
  295POPC   NC3 7859   5.675  37.921   9.400
  295POPC   PO4 7860   5.559  37.270   9.470
  295POPC   GL1 7861   5.684  37.501   9.097
  295POPC   GL2 7862   6.033  37.619   9.190
  295POPC   C1A 7863   5.725  37.656   8.673
  295POPC   D2A 7864   5.712  37.815   8.230
  295POPC   C3A 7865   5.516  37.513   7.893
  295POPC   C4A 7866   5.276  37.557   7.457
  295POPC   C1B 7867   6.188  37.863   8.840
  295POPC   C2B 7868   6.308  37.812   8.416
  295POPC   C3B 7869   6.175  37.910   7.994
  295POPC   C4B 7870   5.950  37.659   7.689
  296POPC   NC3 7871   2.940  41.359   9.569
  296POPC   PO4 7872   3.152  42.051   9.470
  296POPC   GL1 7873   2.923  41.702   9.161
  296POPC   GL2 7874   3.056  41.374   9.074
  296POPC   C1A 7875   2.663  41.550   8.772
  296POPC   D2A 7876   2.447  41.677   8.355
  296POPC   C3A 7877   2.642  41.641   7.958
  296POPC   C4A 7878   2.640  41.529   7.506
  296POPC   C1B 7879   3.038  41.219   8.656
  296POPC   C2B 7880   2.948  41.336   8.232
  296POPC   C3B 7881   2.901  41.162   7.816
  296POPC   C4B 7882   3.034  41.239   7.385
  297POPC   NC3 7883  43.352  20.851   9.591
  297POPC   PO4 7884  42.742  21.093   9.596
  297POPC   GL1 7885  42.976  20.805   9.251
  297POPC   GL2 7886  42.873  20.455   9.234
  297POPC   C1A 7887  43.217  20.607   8.889
  297POPC   D2A 7888  43.081  20.589   8.467
  297POPC   C3A 7889  42.931  20.653   8.052
  297POPC   C4A 7890  43.167  20.715   7.709
  297POPC   C1B 7891  42.737  20.380   8.829
  297POPC   C2B 7892  42.800  20.173   8.436
  297POPC   C3B 7893  43.149  20.181   8.139
  297POPC   C4B 7894  43.090  20.224   7.708
  298POPC   NC3 7895  22.970  36.066   9.586
  298POPC   PO4 7896  23.437  36.284   9.421
  298POPC   GL1 7897  23.080  36.199   9.079
  298POPC   GL2 7898  22.773  35.996   9.122
  298POPC   C1A 7899  22.941  36.328   8.642
  298POPC   D2A 7900  23.117  36.468   8.217
  298POPC   C3A 7901  22.905  36.411   7.808
  298POPC   C4A 7902  22.692  36.488   7.404
  298POPC   C1B 7903  22.864  35.817   8.720
  298POPC   C2B 7904  23.116  35.943   8.345
  298POPC   C3B 7905  23.162  35.922   7.891
  298POPC   C4B 7906  22.975  35.610   7.606
  299POPC   NC3 7907  13.880  40.973   9.505
  299POPC   PO4 7908  13.397  40.536   9.451
  299POPC   GL1 7909  13.532  40.511   9.044
  299POPC   GL2 7910  13.874  40.553   9.121
  299POPC   C1A 7911  13.437  40.786   8.679
  299POPC   D2A 7912  13.666  41.108   8.407
  299POPC   C3A 7913  13.622  40.995   7.967
  299POPC   C4A 7914  13.489  40.566   7.835
  299POPC   C1B 7915  13.952  40.754   8.738
  299POPC   C2B 7916  13.788  40.610   8.333
  299POPC   C3B 7917  14.010  40.665   7.978
  299POPC   C4B 7918  14.095  40.546   7.607
  300POPC   NC3 7919   0.342  27.860   9.429
  300POPC   PO4 7920   0.413  27.150   9.395
  300POPC   GL1 7921   0.434  27.432   9.096
  300POPC   GL2 7922   0.744  27.297   8.981
  300POPC   C1A 7923   0.279  27.498   8.688
  300POPC   D2A 7924   0.058  27.472   8.266
  300POPC   C3A 7925   0.055  27.783   7.916
  300POPC   C4A 7926   0.236  27.583   7.547
  300POPC   C1B 7927   0.744  27.710   8.757
  300POPC   C2B 7928   0.556  27.803   8.367
  300POPC   C3B 7929   0.519  27.595   7.993
  300POPC   C4B 7930   0.767  27.653   7.673
  301POPC   NC3 7931  41.076  32.927   9.718
  301POPC   PO4 7932  40.521  32.776   9.494
  301POPC   GL1 7933  40.604  33.084   9.151
  301POPC   GL2 7934  40.928  33.020   9.213
  301POPC   C1A 7935  40.574  33.160   8.666
  301POPC   D2A 7936  40.609  33.135   8.172
  301POPC   C3A 7937  40.659  32.801   7.815
  301POPC   C4A 7938  40.462  32.824   7.393
  301POPC   C1B 7939  41.092  33.125   8.797
  301POPC   C2B 7940  41.087  32.941   8.358
  301POPC   C3B 7941  41.060  33.140   7.937
  301POPC   C4B 7942  41.222  33.464   7.706
  302POPC   NC3 7943   1.383  31.135   9.371
  302POPC   PO4 7944   1.363  31.800   9.444
  302POPC   GL1 7945   1.376  31.627   9.050
  302POPC   GL2 7946   1.125  31.348   8.975
  302POPC   C1A 7947   1.250  31.727   8.659
  302POPC   D2A 7948   1.020  31.482   8.374
  302POPC   C3A 7949   1.129  31.577   7.965
  302POPC   C4A 7950   1.478  31.490   7.717
  302POPC   C1B 7951   1.449  31.273   8.642
  302POPC   C2B 7952   1.516  31.301   8.209
  302POPC   C3B 7953   1.637  31.024   7.861
  302POPC   C4B 7954   1.431  31.066   7.459
  303POPC   NC3 7955  23.592   5.527   9.487
  303POPC   PO4 7956  23.821   6.191   9.450
  303POPC   GL1 7957  23.736   5.994   9.079
  303POPC   GL2 7958  23.895   5.671   9.091
  303POPC   C1A 7959  23.842   6.164   8.681
  303POPC   D2A 7960  23.982   6.433   8.310
  303POPC   C3A 7961  23.882   6.180   7.940
  303POPC   C4A 7962  23.507   5.970   7.787
  303POPC   C1B 7963  23.640   5.649   8.728
  303POPC   C2B 7964  23.618   5.838   8.323
  303POPC   C3B 7965  23.828   5.646   8.010
  303POPC   C4B 7966  23.728   5.528   7.605
  304POPC   NC3 7967  18.146  40.270   9.568
  304POPC   PO4 7968  18.151  39.639   9.465
  304POPC   GL1 7969  18.122  39.937   9.158
  304POPC   GL2 7970  17.790  40.104   9.204
  304POPC   C1A 7971  18.313  39.958   8.749
  304POPC   D2A 7972  18.290  40.195   8.352
  304POPC   C3A 7973  18.350  39.975   7.952
  304POPC   C4A 7974  18.370  39.918   7.514
  304POPC   C1B 7975  17.908  40.300   8.801
  304POPC   C2B 7976  17.755  40.319   8.374
  304POPC   C3B 7977  17.952  40.307   7.946
  304POPC   C4B 7978  17.959  40.227   7.465
  305POPC   NC3 7979  31.009  20.842   9.540
  305POPC   PO4 7980  30.521  20.318   9.501
  305POPC   GL1 7981  30.812  20.444   9.172
  305POPC   GL2 7982  30.827  20.807   9.077
  305POPC   C1A 7983  30.696  20.450   8.729
  305POPC   D2A 7984  30.631  20.622   8.327
  305POPC   C3A 7985  30.830  20.473   7.961
  305POPC   C4A 7986  30.518  20.354   7.644
  305POPC   C1B 7987  30.801  20.967   8.674
  305POPC   C2B 7988  30.668  21.127   8.281
  305POPC   C3B 7989  30.558  20.882   7.892
  305POPC   C4B 7990  30.817  20.820   7.569
  306POPC   NC3 7991  39.150  37.954   9.569
  306POPC   PO4 7992  39.302  37.284   9.468
  306POPC   GL1 7993  39.231  37.623   9.177
  306POPC   GL2 7994  38.912  37.861   9.124
  306POPC   C1A 7995  39.386  37.679   8.765
  306POPC   D2A 7996  39.437  37.885   8.347
  306POPC   C3A 7997  39.440  37.672   7.936
  306POPC   C4A 7998  39.446  37.350   7.594
  306POPC   C1B 7999  38.865  37.559   8.816
  306POPC   C2B 8000  38.991  37.633   8.400
  306POPC   C3B 8001  38.945  37.809   8.000
  306POPC   C4B 8002  39.058  37.667   7.599
  307POPC   NC3 8003  15.590   7.483   9.438
  307POPC   PO4 8004  14.917   7.566   9.488
  307POPC   GL1 8005  15.175   7.552   9.101
  307POPC   GL2 8006  15.496   7.735   8.999
  307POPC   C1A 8007  15.050   7.504   8.673
  307POPC   D2A 8008  15.014   7.248   8.294
  307POPC   C3A 8009  15.173   7.415   7.913
  307POPC   C4A 8010  15.244   7.647   7.548
  307POPC   C1B 8011  15.557   7.356   8.772
  307POPC   C2B 8012  15.720   7.128   8.427
  307POPC   C3B 8013  15.596   7.123   7.963
  307POPC   C4B 8014  15.735   7.069   7.550
  308POPC   NC3 8015  20.314  39.605   9.567
  308POPC   PO4 8016  19.687  39.244   9.656
  308POPC   GL1 8017  19.761  39.226   9.189
  308POPC   GL2 8018  20.140  39.232   9.112
  308POPC   C1A 8019  19.472  39.270   8.798
  308POPC   D2A 8020  19.354  39.194   8.329
  308POPC   C3A 8021  19.671  39.095   7.998
  308POPC   C4A 8022  19.700  39.094   7.521
  308POPC   C1B 8023  19.958  39.200   8.688
  308POPC   C2B 8024  19.781  39.472   8.375
  308POPC   C3B 8025  19.685  39.602   7.968
  308POPC   C4B 8026  20.036  39.371   7.773
  309POPC   NC3 8027  27.632  20.477   9.554
  309POPC   PO4 8028  27.228  20.971   9.303
  309POPC   GL1 8029  27.474  20.664   9.105
  309POPC   GL2 8030  27.270  20.397   9.178
  309POPC   C1A 8031  27.658  20.428   8.767
  309POPC   D2A 8032  27.799  20.238   8.364
  309POPC   C3A 8033  27.717  20.566   8.037
  309POPC   C4A 8034  27.615  20.696   7.616
  309POPC   C1B 8035  27.141  20.382   8.735
  309POPC   C2B 8036  27.308  20.429   8.313
  309POPC   C3B 8037  27.255  20.368   7.854
  309POPC   C4B 8038  26.968  20.427   7.482
  310POPC   NC3 8039  29.988  32.368   9.753
  310POPC   PO4 8040  30.303  32.024   9.238
  310POPC   GL1 8041  29.885  32.121   9.089
  310POPC   GL2 8042  29.701  32.431   9.141
  310POPC   C1A 8043  29.818  32.220   8.651
  310POPC   D2A 8044  30.095  32.248   8.282
  310POPC   C3A 8045  29.862  32.089   7.943
  310POPC   C4A 8046  29.981  32.206   7.545
  310POPC   C1B 8047  29.749  32.705   8.785
  310POPC   C2B 8048  29.677  32.627   8.337
  310POPC   C3B 8049  29.859  32.588   7.935
  310POPC   C4B 8050  29.679  32.592   7.533
  311POPC   NC3 8051  37.753  31.777   9.501
  311POPC   PO4 8052  37.363  32.414   9.571
  311POPC   GL1 8053  37.539  32.300   9.153
  311POPC   GL2 8054  37.687  32.004   9.053
  311POPC   C1A 8055  37.787  32.444   8.776
  311POPC   D2A 8056  38.029  32.471   8.403
  311POPC   C3A 8057  37.826  32.586   8.026
  311POPC   C4A 8058  37.665  32.299   7.732
  311POPC   C1B 8059  38.006  31.985   8.712
  311POPC   C2B 8060  38.163  31.975   8.279
  311POPC   C3B 8061  37.927  31.899   7.881
  311POPC   C4B 8062  37.910  31.922   7.389
  312POPC   NC3 8063  27.929  28.786   9.482
  312POPC   PO4 8064  28.520  29.180   9.467
  312POPC   GL1 8065  28.272  28.974   9.151
  312POPC   GL2 8066  28.003  29.203   9.155
  312POPC   C1A 8067  28.408  28.841   8.725
  312POPC   D2A 8068  28.664  29.079   8.432
  312POPC   C3A 8069  28.554  28.980   8.020
  312POPC   C4A 8070  28.238  28.818   7.748
  312POPC   C1B 8071  28.296  29.344   8.816
  312POPC   C2B 8072  28.165  29.230   8.428
  312POPC   C3B 8073  28.067  29.233   8.017
  312POPC   C4B 8074  28.320  29.325   7.687
  313POPC   NC3 8075  30.609  36.374   9.530
  313POPC   PO4 8076  31.198  36.045   9.671
  313POPC   GL1 8077  30.941  36.151   9.249
  313POPC   GL2 8078  30.563  35.961   9.227
  313POPC   C1A 8079  30.722  36.252   8.848
  313POPC   D2A 8080  30.494  36.252   8.452
  313POPC   C3A 8081  30.737  36.083   8.095
  313POPC   C4A 8082  30.755  36.390   7.780
  313POPC   C1B 8083  30.373  35.859   8.806
  313POPC   C2B 8084  30.242  35.804   8.368
  313POPC   C3B 8085  30.245  36.011   8.001
  313POPC   C4B 8086  30.505  35.897   7.618
  314POPC   NC3 8087  41.060  15.709   9.579
  314POPC   PO4 8088  40.653  16.052   9.264
  314POPC   GL1 8089  40.731  15.849   8.987
  314POPC   GL2 8090  41.061  15.760   9.071
  314POPC   C1A 8091  40.702  15.936   8.577
  314POPC   D2A 8092  40.711  15.676   8.249
  314POPC   C3A 8093  40.750  15.990   7.978
  314POPC   C4A 8094  40.410  16.182   7.788
  314POPC   C1B 8095  41.191  15.869   8.685
  314POPC   C2B 8096  41.208  15.700   8.309
  314POPC   C3B 8097  41.104  15.556   7.920
  314POPC   C4B 8098  40.887  15.708   7.574
  315POPC   NC3 8099  12.941   7.010   9.527
  315POPC   PO4 8100  12.885   7.706   9.413
  315POPC   GL1 8101  13.114   7.428   9.165
  315POPC   GL2 8102  12.942   7.174   9.065
  315POPC   C1A 8103  13.107   7.507   8.730
  315POPC   D2A 8104  12.787   7.473   8.428
  315POPC   C3A 8105  12.944   7.536   8.009
  315POPC   C4A 8106  13.128   7.212   7.753
  315POPC   C1B 8107  12.563   7.214   8.846
  315POPC   C2B 8108  12.351   7.215   8.465
  315POPC   C3B 8109  12.512   7.233   8.048
  315POPC   C4B 8110  12.594   6.956   7.695
  316POPC   NC3 8111  34.037   8.288   9.447
  316POPC   PO4 8112  33.433   7.914   9.489
  316POPC   GL1 8113  33.415   8.071   9.115
  316POPC   GL2 8114  33.678   8.313   9.064
  316POPC   C1A 8115  33.431   7.920   8.722
  316POPC   D2A 8116  33.751   7.791   8.438
  316POPC   C3A 8117  33.787   8.078   8.112
  316POPC   C4A 8118  33.842   8.123   7.696
  316POPC   C1B 8119  34.055   8.404   8.792
  316POPC   C2B 8120  34.190   8.278   8.371
  316POPC   C3B 8121  34.111   8.468   7.950
  316POPC   C4B 8122  34.095   8.583   7.513
  317POPC   NC3 8123  24.235  30.385   9.530
  317POPC   PO4 8124  23.631  30.767   9.682
  317POPC   GL1 8125  23.540  30.636   9.256
  317POPC   GL2 8126  23.837  30.610   9.176
  317POPC   C1A 8127  23.444  30.554   8.799
  317POPC   D2A 8128  23.693  30.409   8.448
  317POPC   C3A 8129  23.545  30.562   8.052
  317POPC   C4A 8130  23.591  30.317   7.695
  317POPC   C1B 8131  23.942  30.738   8.767
  317POPC   C2B 8132  24.185  30.617   8.441
  317POPC   C3B 8133  24.062  30.453   8.060
  317POPC   C4B 8134  23.969  30.688   7.724
  318POPC   NC3 8135  30.668  40.651   9.469
  318POPC   PO4 8136  30.607  39.908   9.522
  318POPC   GL1 8137  30.666  39.839   9.127
  318POPC   GL2 8138  30.370  39.622   9.107
  318POPC   C1A 8139  30.873  40.014   8.770
  318POPC   D2A 8140  30.806  39.878   8.372
  318POPC   C3A 8141  30.583  40.055   8.076
  318POPC   C4A 8142  30.840  40.259   7.813
  318POPC   C1B 8143  30.379  39.851   8.709
  318POPC   C2B 8144  30.210  39.778   8.319
  318POPC   C3B 8145  30.290  39.638   7.909
  318POPC   C4B 8146  30.573  39.812   7.628
  319POPC   NC3 8147  10.426  13.950   9.542
  319POPC   PO4 8148  10.665  13.282   9.532
  319POPC   GL1 8149  10.607  13.399   9.109
  319POPC   GL2 8150  10.314  13.572   9.130
  319POPC   C1A 8151  10.681  13.502   8.684
  319POPC   D2A 8152  10.413  13.430   8.343
  319POPC   C3A 8153  10.513  13.650   7.960
  319POPC   C4A 8154  10.549  13.402   7.592
  319POPC   C1B 8155  10.376  13.890   8.808
  319POPC   C2B 8156  10.294  13.921   8.361
  319POPC   C3B 8157  10.158  14.005   7.940
  319POPC   C4B 8158  10.240  13.819   7.557
  320POPC   NC3 8159  32.907  16.103   9.585
  320POPC   PO4 8160  33.551  16.088   9.561
  320POPC   GL1 8161  33.315  16.238   9.137
  320POPC   GL2 8162  32.953  16.171   9.100
  320POPC   C1A 8163  33.189  16.130   8.652
  320POPC   D2A 8164  33.136  15.834   8.273
  320POPC   C3A 8165  33.198  15.959   7.847
  320POPC   C4A 8166  33.034  15.827   7.433
  320POPC   C1B 8167  32.733  15.922   8.811
  320POPC   C2B 8168  32.700  16.055   8.403
  320POPC   C3B 8169  32.699  15.920   7.961
  320POPC   C4B 8170  32.526  16.224   7.687
  321POPC   NC3 8171  23.483  19.216   9.346
  321POPC   PO4 8172  23.889  18.791   9.609
  321POPC   GL1 8173  23.843  18.765   9.129
  321POPC   GL2 8174  23.986  19.045   9.019
  321POPC   C1A 8175  23.850  18.813   8.619
  321POPC   D2A 8176  23.752  18.740   8.180
  321POPC   C3A 8177  23.916  18.962   7.822
  321POPC   C4A 8178  23.741  19.020   7.407
  321POPC   C1B 8179  23.769  19.313   8.696
  321POPC   C2B 8180  23.800  19.246   8.288
  321POPC   C3B 8181  24.074  19.409   8.004
  321POPC   C4B 8182  23.977  19.448   7.570
  322POPC   NC3 8183  21.577  30.360   9.799
  322POPC   PO4 8184  21.400  29.796   9.459
  322POPC   GL1 8185  21.446  29.950   9.076
  322POPC   GL2 8186  21.182  29.714   8.971
  322POPC   C1A 8187  21.575  29.831   8.665
  322POPC   D2A 8188  21.299  29.709   8.373
  322POPC   C3A 8189  21.462  29.889   8.064
  322POPC   C4A 8190  21.557  29.916   7.643
  322POPC   C1B 8191  21.120  30.066   8.691
  322POPC   C2B 8192  21.241  30.245   8.342
  322POPC   C3B 8193  21.137  30.324   7.953
  322POPC   C4B 8194  21.065  29.975   7.778
  323POPC   NC3 8195  35.789  42.796   9.490
  323POPC   PO4 8196  35.985  43.379   9.745
  323POPC   GL1 8197  36.020  43.444   9.174
  323POPC   GL2 8198  35.839  43.098   9.068
  323POPC   C1A 8199  35.840  43.406   8.695
  323POPC   D2A 8200  35.795  43.158   8.313
  323POPC   C3A 8201  35.921  43.349   7.926
  323POPC   C4A 8202  36.210  43.217   7.625
  323POPC   C1B 8203  36.105  42.948   8.712
  323POPC   C2B 8204  36.458  42.807   8.422
  323POPC   C3B 8205  36.378  42.809   7.987
  323POPC   C4B 8206  35.943  42.833   7.884
  324POPC   NC3 8207  38.770  10.548   9.701
  324POPC   PO4 8208  39.034  11.015   9.348
  324POPC   GL1 8209  38.684  10.662   9.144
  324POPC   GL2 8210  38.272  10.737   9.093
  324POPC   C1A 8211  38.473  10.395   8.764
  324POPC   D2A 8212  38.491  10.149   8.351
  324POPC   C3A 8213  38.327  10.289   7.931
  324POPC   C4A 8214  38.585  10.395   7.550
  324POPC   C1B 8215  38.476  10.895   8.734
  324POPC   C2B 8216  38.539  10.725   8.325
  324POPC   C3B 8217  38.429  10.818   7.906
  324POPC   C4B 8218  38.173  10.655   7.592
  325POPC   NC3 8219  33.610  12.573   9.735
  325POPC   PO4 8220  34.075  13.045   9.702
  325POPC   GL1 8221  34.101  12.777   9.345
  325POPC   GL2 8222  33.754  12.765   9.243
  325POPC   C1A 8223  34.131  12.748   8.884
  325POPC   D2A 8224  34.279  12.713   8.465
  325POPC   C3A 8225  33.952  12.751   8.166
  325POPC   C4A 8226  33.956  12.904   7.749
  325POPC   C1B 8227  33.604  12.847   8.807
  325POPC   C2B 8228  33.478  12.622   8.426
  325POPC   C3B 8229  33.505  12.578   8.004
  325POPC   C4B 8230  33.450  12.929   7.732
  326POPC   NC3 8231  37.884  27.154   9.820
  326POPC   PO4 8232  37.638  27.705   9.527
  326POPC   GL1 8233  37.670  27.454   9.171
  326POPC   GL2 8234  37.392  27.636   9.045
  326POPC   C1A 8235  37.550  27.283   8.750
  326POPC   D2A 8236  37.524  27.470   8.368
  326POPC   C3A 8237  37.848  27.446   8.066
  326POPC   C4A 8238  38.003  27.814   7.802
  326POPC   C1B 8239  37.820  27.707   8.756
  326POPC   C2B 8240  37.867  27.878   8.333
  326POPC   C3B 8241  37.529  27.829   7.988
  326POPC   C4B 8242  37.287  27.756   7.636
  327POPC   NC3 8243  22.699   3.327   9.476
  327POPC   PO4 8244  23.076   3.843   9.457
  327POPC   GL1 8245  22.908   3.632   9.111
  327POPC   GL2 8246  23.201   3.398   9.115
  327POPC   C1A 8247  22.927   3.474   8.684
  327POPC   D2A 8248  22.852   3.172   8.361
  327POPC   C3A 8249  23.000   3.381   7.999
  327POPC   C4A 8250  22.811   3.616   7.650
  327POPC   C1B 8251  23.334   3.742   8.813
  327POPC   C2B 8252  23.367   3.822   8.369
  327POPC   C3B 8253  23.158   3.892   7.965
  327POPC   C4B 8254  23.289   3.814   7.535
  328POPC   NC3 8255   9.603   4.802   9.545
  328POPC   PO4 8256  10.010   5.226   9.572
  328POPC   GL1 8257   9.740   5.119   9.164
  328POPC   GL2 8258   9.623   4.750   9.055
  328POPC   C1A 8259   9.900   5.147   8.729
  328POPC   D2A 8260   9.713   5.276   8.353
  328POPC   C3A 8261   9.927   5.242   7.986
  328POPC   C4A 8262   9.614   5.358   7.673
  328POPC   C1B 8263   9.839   4.655   8.688
  328POPC   C2B 8264   9.845   4.778   8.257
  328POPC   C3B 8265   9.604   4.860   7.902
  328POPC   C4B 8266   9.263   4.709   7.696
  329POPC   NC3 8267  18.870   7.135   9.385
  329POPC   PO4 8268  19.244   6.583   9.488
  329POPC   GL1 8269  19.095   6.729   9.131
  329POPC   GL2 8270  19.252   7.020   9.054
  329POPC   C1A 8271  18.863   6.553   8.800
  329POPC   D2A 8272  19.041   6.437   8.436
  329POPC   C3A 8273  18.953   6.501   8.018
  329POPC   C4A 8274  19.116   6.188   7.726
  329POPC   C1B 8275  19.058   7.030   8.681
  329POPC   C2B 8276  19.178   6.938   8.297
  329POPC   C3B 8277  19.333   6.856   7.918
  329POPC   C4B 8278  19.145   6.662   7.564
  330POPC   NC3 8279   2.086  18.516   9.405
  330POPC   PO4 8280   1.742  17.887   9.389
  330POPC   GL1 8281   1.944  17.982   9.016
  330POPC   GL2 8282   1.889  18.344   8.968
  330POPC   C1A 8283   1.975  18.045   8.566
  330POPC   D2A 8284   2.078  18.408   8.315
  330POPC   C3A 8285   2.231  18.240   7.939
  330POPC   C4A 8286   2.104  17.874   7.738
  330POPC   C1B 8287   1.624  18.586   8.697
  330POPC   C2B 8288   1.488  18.772   8.324
  330POPC   C3B 8289   1.720  18.887   7.977
  330POPC   C4B 8290   2.136  18.753   7.915
  331POPC   NC3 8291  39.947  42.009   9.530
  331POPC   PO4 8292  40.364  42.552   9.442
  331POPC   GL1 8293  40.151  42.577   9.037
  331POPC   GL2 8294  39.839  42.403   9.123
  331POPC   C1A 8295  40.021  42.394   8.640
  331POPC   D2A 8296  40.163  42.097   8.331
  331POPC   C3A 8297  40.284  42.323   7.990
  331POPC   C4A 8298  40.259  42.794   8.003
  331POPC   C1B 8299  39.872  41.988   8.891
  331POPC   C2B 8300  39.839  41.769   8.520
  331POPC   C3B 8301  39.666  41.961   8.151
  331POPC   C4B 8302  39.813  42.213   7.805
  332POPC   NC3 8303  16.640  17.112   9.604
  332POPC   PO4 8304  16.290  16.564   9.461
  332POPC   GL1 8305  16.518  16.871   9.145
  332POPC   GL2 8306  16.886  16.917   9.200
  332POPC   C1A 8307  16.737  16.981   8.719
  332POPC   D2A 8308  16.951  17.067   8.320
  332POPC   C3A 8309  16.778  16.811   7.987
  332POPC   C4A 8310  16.603  16.678   7.583
  332POPC   C1B 8311  16.909  16.549   8.903
  332POPC   C2B 8312  16.864  16.549   8.437
  332POPC   C3B 8313  17.141  16.471   8.080
  332POPC   C4B 8314  17.078  16.472   7.631
  333POPC   NC3 8315  43.205  24.989   9.512
  333POPC   PO4 8316  42.980  25.636   9.464
  333POPC   GL1 8317  43.066  25.331   9.155
  333POPC   GL2 8318  43.401  25.218   9.068
  333POPC   C1A 8319  42.915  25.199   8.786
  333POPC   D2A 8320  42.998  25.098   8.402
  333POPC   C3A 8321  42.748  25.138   8.037
  333POPC   C4A 8322  42.622  25.401   7.706
  333POPC   C1B 8323  43.434  25.319   8.596
  333POPC   C2B 8324  43.367  25.338   8.157
  333POPC   C3B 8325  43.203  25.317   7.759
  333POPC   C4B 8326  43.505  25.152   7.487
  334POPC   NC3 8327  26.281  44.352   9.728
  334POPC   PO4 8328  25.838  44.890   9.567
  334POPC   GL1 8329  25.957  44.660   9.216
  334POPC   GL2 8330  26.234  44.494   9.159
  334POPC   C1A 8331  25.883  44.602   8.795
  334POPC   D2A 8332  26.131  44.421   8.442
  334POPC   C3A 8333  25.994  44.554   8.026
  334POPC   C4A 8334  25.746  44.455   7.671
  334POPC   C1B 8335  26.466  44.659   8.785
  334POPC   C2B 8336  26.453  44.862   8.370
  334POPC   C3B 8337  26.479  44.681   7.963
  334POPC   C4B 8338  26.235  44.654   7.556
  335POPC   NC3 8339  14.192   5.394   9.519
  335POPC   PO4 8340  14.529   4.794   9.775
  335POPC   GL1 8341  14.476   4.951   9.289
  335POPC   GL2 8342  14.621   5.310   9.199
  335POPC   C1A 8343  14.399   5.041   8.801
  335POPC   D2A 8344  14.640   5.174   8.399
  335POPC   C3A 8345  14.520   5.005   7.995
  335POPC   C4A 8346  14.771   4.917   7.678
  335POPC   C1B 8347  14.572   5.519   8.773
  335POPC   C2B 8348  14.362   5.625   8.405
  335POPC   C3B 8349  14.472   5.515   8.007
  335POPC   C4B 8350  14.137   5.322   7.800
  336POPC   NC3 8351  21.520   4.015   9.358
  336POPC   PO4 8352  20.960   4.269   9.633
  336POPC   GL1 8353  21.183   4.354   9.142
  336POPC   GL2 8354  21.257   4.067   8.909
  336POPC   C1A 8355  21.291   4.567   8.759
  336POPC   D2A 8356  21.528   4.531   8.379
  336POPC   C3A 8357  21.294   4.519   7.991
  336POPC   C4A 8358  21.195   4.136   7.754
  336POPC   C1B 8359  21.670   4.193   8.765
  336POPC   C2B 8360  21.854   4.133   8.392
  336POPC   C3B 8361  21.702   4.188   8.021
  336POPC   C4B 8362  21.639   3.884   7.748
  337POPC   NC3 8363  36.807  36.480   9.291
  337POPC   PO4 8364  37.155  36.012   9.611
  337POPC   GL1 8365  37.178  35.999   9.172
  337POPC   GL2 8366  36.835  35.983   9.094
  337POPC   C1A 8367  37.187  36.193   8.749
  337POPC   D2A 8368  37.038  36.345   8.349
  337POPC   C3A 8369  37.105  36.026   8.047
  337POPC   C4A 8370  37.408  36.002   7.739
  337POPC   C1B 8371  36.661  36.244   8.726
  337POPC   C2B 8372  36.514  36.352   8.313
  337POPC   C3B 8373  36.710  36.315   7.906
  337POPC   C4B 8374  36.500  36.063   7.504
  338POPC   NC3 8375  24.954   6.484   9.511
  338POPC   PO4 8376  25.399   7.009   9.517
  338POPC   GL1 8377  25.264   6.806   9.129
  338POPC   GL2 8378  25.160   6.434   9.049
  338POPC   C1A 8379  25.332   6.779   8.689
  338POPC   D2A 8380  25.094   6.762   8.322
  338POPC   C3A 8381  25.224   6.801   7.923
  338POPC   C4A 8382  25.117   6.396   7.893
  338POPC   C1B 8383  25.591   6.358   8.880
  338POPC   C2B 8384  25.721   6.474   8.477
  338POPC   C3B 8385  25.689   6.451   8.028
  338POPC   C4B 8386  25.546   6.301   7.634
  339POPC   NC3 8387  40.208  23.451   9.455
  339POPC   PO4 8388  40.008  22.759   9.446
  339POPC   GL1 8389  40.226  23.005   9.143
  339POPC   GL2 8390  39.901  23.182   9.161
  339POPC   C1A 8391  40.262  23.012   8.675
  339POPC   D2A 8392  40.110  22.678   8.359
  339POPC   C3A 8393  40.031  22.762   7.897
  339POPC   C4A 8394  40.271  23.092   7.668
  339POPC   C1B 8395  39.781  22.932   8.838
  339POPC   C2B 8396  39.745  23.025   8.422
  339POPC   C3B 8397  39.515  22.838   8.099
  339POPC   C4B 8398  39.447  22.693   7.694
  340POPC   NC3 8399  22.358  24.820   9.448
  340POPC   PO4 8400  22.303  24.153   9.383
  340POPC   GL1 8401  21.977  24.361   9.162
  340POPC   GL2 8402  22.017  24.708   9.095
  340POPC   C1A 8403  21.842  24.338   8.749
  340POPC   D2A 8404  22.108  24.358   8.412
  340POPC   C3A 8405  21.926  24.315   8.088
  340POPC   C4A 8406  21.920  24.665   7.855
  340POPC   C1B 8407  22.351  24.554   8.814
  340POPC   C2B 8408  22.527  24.647   8.385
  340POPC   C3B 8409  22.420  24.651   7.941
  340POPC   C4B 8410  22.266  24.505   7.499
  341POPC   NC3 8411   6.944   3.905   9.718
  341POPC   PO4 8412   6.633   3.267   9.651
  341POPC   GL1 8413   6.625   3.115   9.229
  341POPC   GL2 8414   6.937   3.196   9.096
  341POPC   C1A 8415   6.436   3.286   8.835
  341POPC   D2A 8416   6.421   3.327   8.382
  341POPC   C3A 8417   6.231   3.692   8.142
  341POPC   C4A 8418   6.316   3.793   7.688
  341POPC   C1B 8419   6.906   3.412   8.678
  341POPC   C2B 8420   6.773   3.736   8.374
  341POPC   C3B 8421   6.706   3.628   7.958
  341POPC   C4B 8422   6.806   3.665   7.513
  342POPC   NC3 8423  22.746  41.959   9.248
  342POPC   PO4 8424  22.949  41.371   9.411
  342POPC   GL1 8425  23.074  41.478   9.007
  342POPC   GL2 8426  23.196  41.809   9.098
  342POPC   C1A 8427  22.872  41.451   8.564
  342POPC   D2A 8428  22.649  41.184   8.245
  342POPC   C3A 8429  22.708  41.321   7.796
  342POPC   C4A 8430  23.127  41.480   7.778
  342POPC   C1B 8431  23.084  41.886   8.702
  342POPC   C2B 8432  23.169  41.901   8.292
  342POPC   C3B 8433  22.844  41.743   8.073
  342POPC   C4B 8434  22.716  41.822   7.649
  343POPC   NC3 8435  23.026  18.962   9.592
  343POPC   PO4 8436  22.522  19.246   9.328
  343POPC   GL1 8437  22.708  19.036   9.038
  343POPC   GL2 8438  23.063  19.083   9.097
  343POPC   C1A 8439  22.862  19.106   8.628
  343POPC   D2A 8440  22.964  19.296   8.251
  343POPC   C3A 8441  22.863  19.113   7.861
  343POPC   C4A 8442  22.590  19.241   7.533
  343POPC   C1B 8443  23.358  19.004   8.755
  343POPC   C2B 8444  23.280  18.889   8.351
  343POPC   C3B 8445  23.394  19.086   7.980
  343POPC   C4B 8446  23.281  18.946   7.591
  344POPC   NC3 8447  29.669  40.795   9.405
  344POPC   PO4 8448  30.263  40.784   9.633
  344POPC   GL1 8449  30.130  40.721   9.169
  344POPC   GL2 8450  29.874  40.459   9.091
  344POPC   C1A 8451  30.220  40.741   8.706
  344POPC   D2A 8452  29.958  40.842   8.332
  344POPC   C3A 8453  30.110  40.837   7.953
  344POPC   C4A 8454  30.140  40.593   7.596
  344POPC   C1B 8455  29.729  40.554   8.702
  344POPC   C2B 8456  29.554  40.510   8.304
  344POPC   C3B 8457  29.727  40.446   7.929
  344POPC   C4B 8458  29.639  40.669   7.598
  345POPC   NC3 8459   2.184  27.193   9.511
  345POPC   PO4 8460   1.952  26.476   9.571
  345POPC   GL1 8461   2.130  26.740   9.273
  345POPC   GL2 8462   1.793  26.922   9.268
  345POPC   C1A 8463   2.142  26.940   8.845
  345POPC   D2A 8464   2.330  26.855   8.438
  345POPC   C3A 8465   2.110  26.855   8.105
  345POPC   C4A 8466   2.244  26.733   7.713
  345POPC   C1B 8467   1.748  26.610   8.945
  345POPC   C2B 8468   1.798  26.644   8.506
  345POPC   C3B 8469   1.625  26.611   8.091
  345POPC   C4B 8470   1.757  26.834   7.751
  346POPC   NC3 8471  22.068  10.159   9.496
  346POPC   PO4 8472  22.071  10.779   9.355
  346POPC   GL1 8473  22.384  10.511   9.127
  346POPC   GL2 8474  22.549  10.212   9.301
  346POPC   C1A 8475  22.373  10.429   8.663
  346POPC   D2A 8476  22.060  10.240   8.390
  346POPC   C3A 8477  21.948  10.486   8.021
  346POPC   C4A 8478  21.959  10.674   7.584
  346POPC   C1B 8479  22.436   9.994   8.938
  346POPC   C2B 8480  22.495   9.958   8.485
  346POPC   C3B 8481  22.585  10.233   8.125
  346POPC   C4B 8482  22.383  10.384   7.719
  347POPC   NC3 8483  28.685  44.862   9.508
  347POPC   PO4 8484  28.213  44.391   9.510
  347POPC   GL1 8485  28.455  44.544   9.172
  347POPC   GL2 8486  28.272  44.739   9.049
  347POPC   C1A 8487  28.399  44.412   8.689
  347POPC   D2A 8488  28.677  44.320   8.301
  347POPC   C3A 8489  28.465  44.459   7.915
  347POPC   C4A 8490  28.064  44.594   7.843
  347POPC   C1B 8491  28.407  44.922   8.706
  347POPC   C2B 8492  28.323  44.782   8.309
  347POPC   C3B 8493  28.431   0.009   7.966
  347POPC   C4B 8494  28.197   0.032   7.635
  348POPC   NC3 8495   5.875  14.162   9.457
  348POPC   PO4 8496   5.477  14.718   9.411
  348POPC   GL1 8497   5.730  14.503   9.056
  348POPC   GL2 8498   5.941  14.153   8.968
  348POPC   C1A 8499   5.808  14.465   8.613
  348POPC   D2A 8500   6.064  14.218   8.364
  348POPC   C3A 8501   6.091  14.413   7.968
  348POPC   C4A 8502   5.908  14.747   7.752
  348POPC   C1B 8503   5.535  14.054   8.814
  348POPC   C2B 8504   5.286  14.227   8.486
  348POPC   C3B 8505   5.273  14.134   8.063
  348POPC   C4B 8506   5.599  14.306   7.815
  349POPC   NC3 8507  42.884   9.070   9.532
  349POPC   PO4 8508  43.412   8.732   9.262
  349POPC   GL1 8509  43.059   8.950   9.061
  349POPC   GL2 8510  42.914   9.316   9.097
  349POPC   C1A 8511  43.074   8.925   8.627
  349POPC   D2A 8512  43.045   8.735   8.247
  349POPC   C3A 8513  43.291   9.032   8.041
  349POPC   C4A 8514  43.308   9.177   7.635
  349POPC   C1B 8515  42.892   9.419   8.688
  349POPC   C2B 8516  42.903   9.293   8.276
  349POPC   C3B 8517  42.888   9.328   7.846
  349POPC   C4B 8518  42.895   9.373   7.357
  350POPC   NC3 8519  26.240  40.215   9.411
  350POPC   PO4 8520  26.202  39.555   9.326
  350POPC   GL1 8521  26.036  39.910   9.041
  350POPC   GL2 8522  26.159  40.267   8.920
  350POPC   C1A 8523  25.993  39.859   8.653
  350POPC   D2A 8524  26.146  40.040   8.314
  350POPC   C3A 8525  25.923  39.845   7.999
  350POPC   C4A 8526  26.015  39.746   7.601
  350POPC   C1B 8527  25.818  40.342   8.620
  350POPC   C2B 8528  25.782  40.363   8.159
  350POPC   C3B 8529  26.108  40.288   7.848
  350POPC   C4B 8530  26.203  40.173   7.439
  351POPC   NC3 8531  33.996  11.486  10.023
  351POPC   PO4 8532  33.486  11.367   9.581
  351POPC   GL1 8533  33.620  11.380   9.111
  351POPC   GL2 8534  33.967  11.350   9.080
  351POPC   C1A 8535  33.655  11.466   8.703
  351POPC   D2A 8536  33.498  11.339   8.346
  351POPC   C3A 8537  33.670  11.615   8.055
  351POPC   C4A 8538  33.779  11.482   7.654
  351POPC   C1B 8539  33.804  10.999   8.792
  351POPC   C2B 8540  33.939  11.094   8.379
  351POPC   C3B 8541  33.780  11.086   7.987
  351POPC   C4B 8542  33.981  10.986   7.624
  352POPC   NC3 8543  37.292  27.362   9.503
  352POPC   PO4 8544  36.923  28.019   9.564
  352POPC   GL1 8545  36.899  27.792   9.163
  352POPC   GL2 8546  36.903  27.460   9.145
  352POPC   C1A 8547  37.024  27.766   8.719
  352POPC   D2A 8548  37.145  27.891   8.306
  352POPC   C3A 8549  36.879  27.809   7.970
  352POPC   C4A 8550  36.746  27.814   7.570
  352POPC   C1B 8551  37.020  27.269   8.772
  352POPC   C2B 8552  37.021  27.392   8.380
  352POPC   C3B 8553  37.166  27.407   8.006
  352POPC   C4B 8554  36.986  27.352   7.614
  353POPC   NC3 8555  37.822  20.391   9.318
  353POPC   PO4 8556  37.377  20.894   9.629
  353POPC   GL1 8557  37.551  20.831   9.208
  353POPC   GL2 8558  37.889  20.798   9.029
  353POPC   C1A 8559  37.435  20.838   8.773
  353POPC   D2A 8560  37.762  20.907   8.454
  353POPC   C3A 8561  37.758  20.663   8.068
  353POPC   C4A 8562  37.443  20.574   7.732
  353POPC   C1B 8563  37.869  20.448   8.682
  353POPC   C2B 8564  38.064  20.290   8.307
  353POPC   C3B 8565  38.182  20.401   7.899
  353POPC   C4B 8566  37.904  20.361   7.597
  354POPC   NC3 8567   3.076  22.698   9.604
  354POPC   PO4 8568   3.743  22.966   9.583
  354POPC   GL1 8569   3.653  23.093   9.190
  354POPC   GL2 8570   3.883  23.337   9.125
  354POPC   C1A 8571   3.487  22.853   8.864
  354POPC   D2A 8572   3.599  22.830   8.444
  354POPC   C3A 8573   3.321  22.714   8.145
  354POPC   C4A 8574   3.394  22.804   7.736
  354POPC   C1B 8575   3.933  23.087   8.749
  354POPC   C2B 8576   4.007  23.112   8.333
  354POPC   C3B 8577   3.857  22.967   7.959
  354POPC   C4B 8578   3.992  23.106   7.523
  355POPC   NC3 8579  14.126  38.641   9.464
  355POPC   PO4 8580  14.737  38.760   9.482
  355POPC   GL1 8581  14.572  38.516   9.112
  355POPC   GL2 8582  14.327  38.254   9.207
  355POPC   C1A 8583  14.321  38.654   8.736
  355POPC   D2A 8584  14.040  38.771   8.377
  355POPC   C3A 8585  14.280  38.746   8.016
  355POPC   C4A 8586  14.412  38.829   7.623
  355POPC   C1B 8587  14.123  38.189   8.807
  355POPC   C2B 8588  14.161  38.249   8.382
  355POPC   C3B 8589  13.963  38.365   8.039
  355POPC   C4B 8590  14.026  38.498   7.590
  356POPC   NC3 8591  33.701  19.389   9.421
  356POPC   PO4 8592  33.886  18.753   9.468
  356POPC   GL1 8593  33.847  19.014   9.118
  356POPC   GL2 8594  34.099  19.274   9.138
  356POPC   C1A 8595  33.683  19.249   8.765
  356POPC   D2A 8596  33.684  18.989   8.426
  356POPC   C3A 8597  33.626  18.988   8.012
  356POPC   C4A 8598  33.766  19.068   7.628
  356POPC   C1B 8599  34.174  19.166   8.727
  356POPC   C2B 8600  34.039  19.348   8.338
  356POPC   C3B 8601  34.155  19.258   7.922
  356POPC   C4B 8602  34.096  19.451   7.514
  357POPC   NC3 8603  16.794  36.730   9.634
  357POPC   PO4 8604  17.088  37.332   9.487
  357POPC   GL1 8605  16.838  36.968   9.193
  357POPC   GL2 8606  16.970  36.584   9.192
  357POPC   C1A 8607  16.599  36.922   8.807
  357POPC   D2A 8608  16.401  36.665   8.475
  357POPC   C3A 8609  16.587  36.792   8.062
  357POPC   C4A 8610  16.590  37.216   7.822
  357POPC   C1B 8611  16.807  36.461   8.808
  357POPC   C2B 8612  16.916  36.614   8.428
  357POPC   C3B 8613  16.968  36.394   8.056
  357POPC   C4B 8614  16.750  36.424   7.674
  358POPC   NC3 8615  16.452  24.398   9.610
  358POPC   PO4 8616  17.026  24.302   9.366
  358POPC   GL1 8617  16.900  24.527   9.072
  358POPC   GL2 8618  16.588  24.660   9.191
  358POPC   C1A 8619  17.121  24.560   8.719
  358POPC   D2A 8620  17.194  24.336   8.360
  358POPC   C3A 8621  17.068  24.592   8.065
  358POPC   C4A 8622  16.953  24.743   7.684
  358POPC   C1B 8623  16.480  24.527   8.785
  358POPC   C2B 8624  16.700  24.610   8.436
  358POPC   C3B 8625  16.566  24.534   8.063
  358POPC   C4B 8626  16.512  24.479   7.650
  359POPC   NC3 8627  27.083  34.956   9.467
  359POPC   PO4 8628  26.882  34.261   9.550
  359POPC   GL1 8629  26.881  34.540   9.221
  359POPC   GL2 8630  27.198  34.484   9.150
  359POPC   C1A 8631  26.648  34.573   8.848
  359POPC   D2A 8632  26.583  34.636   8.417
  359POPC   C3A 8633  26.800  34.714   8.030
  359POPC   C4A 8634  26.649  34.831   7.636
  359POPC   C1B 8635  27.058  34.297   8.761
  359POPC   C2B 8636  27.095  34.402   8.348
  359POPC   C3B 8637  26.997  34.245   7.960
  359POPC   C4B 8638  26.989  34.469   7.595
  360POPC   NC3 8639   0.672  18.277   9.670
  360POPC   PO4 8640   0.051  18.402   9.534
  360POPC   GL1 8641   0.334  18.463   9.191
  360POPC   GL2 8642   0.498  18.122   9.205
  360POPC   C1A 8643   0.314  18.359   8.747
  360POPC   D2A 8644   0.298  18.062   8.386
  360POPC   C3A 8645   0.183  18.251   8.013
  360POPC   C4A 8646   0.261  18.576   7.740
  360POPC   C1B 8647   0.597  17.947   8.804
  360POPC   C2B 8648   0.796  18.139   8.410
  360POPC   C3B 8649   0.664  18.026   7.986
  360POPC   C4B 8650   0.541  17.790   7.608
  361POPC   NC3 8651  30.151  10.006   9.498
  361POPC   PO4 8652  29.614   9.544   9.513
  361POPC   GL1 8653  29.868   9.724   9.169
  361POPC   GL2 8654  30.155   9.495   9.139
  361POPC   C1A 8655  29.997   9.929   8.773
  361POPC   D2A 8656  30.228  10.072   8.382
  361POPC   C3A 8657  29.996  10.101   7.970
  361POPC   C4A 8658  29.733   9.914   7.622
  361POPC   C1B 8659  30.000   9.394   8.746
  361POPC   C2B 8660  30.023   9.592   8.354
  361POPC   C3B 8661  29.933   9.559   7.929
  361POPC   C4B 8662  29.983   9.327   7.540
  362POPC   NC3 8663   5.539  30.525   9.426
  362POPC   PO4 8664   4.881  30.381   9.523
  362POPC   GL1 8665   5.038  30.527   9.150
  362POPC   GL2 8666   5.256  30.794   9.080
  362POPC   C1A 8667   5.176  30.374   8.770
  362POPC   D2A 8668   5.296  30.162   8.418
  362POPC   C3A 8669   5.152  30.235   8.034
  362POPC   C4A 8670   5.406  30.396   7.679
  362POPC   C1B 8671   4.986  30.915   8.770
  362POPC   C2B 8672   4.998  30.687   8.396
  362POPC   C3B 8673   5.205  30.734   8.014
  362POPC   C4B 8674   4.852  30.640   7.778
  363POPC   NC3 8675  34.375  19.998   9.601
  363POPC   PO4 8676  35.053  19.774   9.633
  363POPC   GL1 8677  34.654  19.676   9.340
  363POPC   GL2 8678  34.593  20.014   9.146
  363POPC   C1A 8679  34.498  19.533   8.932
  363POPC   D2A 8680  34.535  19.532   8.482
  363POPC   C3A 8681  34.357  19.689   8.120
  363POPC   C4A 8682  34.505  19.607   7.735
  363POPC   C1B 8683  34.577  20.006   8.689
  363POPC   C2B 8684  34.510  20.144   8.267
  363POPC   C3B 8685  34.662  20.043   7.856
  363POPC   C4B 8686  34.787  19.903   7.410
  364POPC   NC3 8687   0.107  10.199   9.514
  364POPC   PO4 8688   0.701  10.528   9.292
  364POPC   GL1 8689   0.471  10.695   8.974
  364POPC   GL2 8690   0.226  10.486   9.094
  364POPC   C1A 8691   0.358  10.525   8.603
  364POPC   D2A 8692   0.133  10.652   8.299
  364POPC   C3A 8693   0.302  10.571   7.926
  364POPC   C4A 8694   0.606  10.842   7.864
  364POPC   C1B 8695   0.054  10.176   8.859
  364POPC   C2B 8696  44.984  10.154   8.422
  364POPC   C3B 8697  44.919  10.251   7.995
  364POPC   C4B 8698   0.118  10.168   7.580
  365POPC   NC3 8699  34.472  10.496   9.362
  365POPC   PO4 8700  34.938  10.930   9.273
  365POPC   GL1 8701  34.621  10.801   9.014
  365POPC   GL2 8702  34.287  10.948   9.191
  365POPC   C1A 8703  34.662  10.537   8.676
  365POPC   D2A 8704  34.830  10.519   8.270
  365POPC   C3A 8705  34.523  10.380   8.007
  365POPC   C4A 8706  34.459  10.499   7.586
  365POPC   C1B 8707  34.295  11.071   8.760
  365POPC   C2B 8708  34.381  10.829   8.361
  365POPC   C3B 8709  34.425  10.906   7.915
  365POPC   C4B 8710  34.448  10.991   7.463
  366POPC   NC3 8711  34.126  34.724   9.428
  366POPC   PO4 8712  34.740  34.486   9.522
  366POPC   GL1 8713  34.535  34.572   9.161
  366POPC   GL2 8714  34.666  34.929   9.132
  366POPC   C1A 8715  34.492  34.361   8.782
  366POPC   D2A 8716  34.722  34.145   8.455
  366POPC   C3A 8717  34.624  34.319   8.054
  366POPC   C4A 8718  34.330  34.392   7.726
  366POPC   C1B 8719  34.759  34.790   8.697
  366POPC   C2B 8720  34.580  34.854   8.256
  366POPC   C3B 8721  34.664  34.809   7.805
  366POPC   C4B 8722  35.036  34.843   7.547
  367POPC   NC3 8723  34.143  44.503   9.465
  367POPC   PO4 8724  33.490  44.760   9.280
  367POPC   GL1 8725  33.521  44.469   8.964
  367POPC   GL2 8726  33.887  44.497   9.016
  367POPC   C1A 8727  33.569  44.405   8.508
  367POPC   D2A 8728  33.995  44.365   8.321
  367POPC   C3A 8729  33.992  44.573   7.926
  367POPC   C4A 8730  33.662  44.718   7.640
  367POPC   C1B 8731  34.138  44.738   8.728
  367POPC   C2B 8732  34.217  44.898   8.320
  367POPC   C3B 8733  34.343  44.991   7.918
  367POPC   C4B 8734  34.130  44.891   7.543
  368POPC   NC3 8735  30.089  20.451   9.560
  368POPC   PO4 8736  29.641  20.733   9.876
  368POPC   GL1 8737  29.758  20.697   9.299
  368POPC   GL2 8738  29.741  20.395   9.117
  368POPC   C1A 8739  29.987  20.745   8.879
  368POPC   D2A 8740  29.906  20.920   8.496
  368POPC   C3A 8741  30.143  20.819   8.166
  368POPC   C4A 8742  30.106  20.622   7.774
  368POPC   C1B 8743  29.995  20.222   8.841
  368POPC   C2B 8744  30.194  20.432   8.514
  368POPC   C3B 8745  30.298  20.293   8.111
  368POPC   C4B 8746  30.065  20.109   7.783
  369POPC   NC3 8747  38.870  36.249   9.528
  369POPC   PO4 8748  39.473  36.035   9.540
  369POPC   GL1 8749  39.328  35.967   9.126
  369POPC   GL2 8750  38.984  35.961   9.128
  369POPC   C1A 8751  39.255  36.131   8.712
  369POPC   D2A 8752  39.154  36.350   8.350
  369POPC   C3A 8753  39.208  36.109   8.022
  369POPC   C4A 8754  39.357  35.809   7.761
  369POPC   C1B 8755  38.728  35.876   8.801
  369POPC   C2B 8756  38.870  35.914   8.403
  369POPC   C3B 8757  38.854  35.762   8.021
  369POPC   C4B 8758  38.822  35.919   7.640
  370POPC   NC3 8759  33.326  10.843   9.653
  370POPC   PO4 8760  32.865  10.373   9.449
  370POPC   GL1 8761  32.990  10.324   9.052
  370POPC   GL2 8762  32.893  10.006   8.990
  370POPC   C1A 8763  33.280  10.483   8.742
  370POPC   D2A 8764  33.292  10.590   8.304
  370POPC   C3A 8765  33.547  10.360   8.014
  370POPC   C4A 8766  33.569  10.697   7.736
  370POPC   C1B 8767  32.865  10.193   8.567
  370POPC   C2B 8768  32.786  10.631   8.408
  370POPC   C3B 8769  32.785  10.763   8.005
  370POPC   C4B 8770  33.091  10.541   7.823
  371POPC   NC3 8771   0.176  16.675   9.362
  371POPC   PO4 8772   0.770  17.103   9.472
  371POPC   GL1 8773   0.580  16.862   9.121
  371POPC   GL2 8774   0.660  16.500   9.132
  371POPC   C1A 8775   0.423  17.001   8.703
  371POPC   D2A 8776   0.262  17.119   8.301
  371POPC   C3A 8777   0.186  16.847   7.926
  371POPC   C4A 8778   0.157  16.993   7.501
  371POPC   C1B 8779   0.461  16.504   8.731
  371POPC   C2B 8780   0.395  16.579   8.297
  371POPC   C3B 8781   0.647  16.621   7.879
  371POPC   C4B 8782   0.814  16.518   7.450
  372POPC   NC3 8783  43.296  39.350   9.608
  372POPC   PO4 8784  43.250  38.787   9.279
  372POPC   GL1 8785  43.034  39.197   9.182
  372POPC   GL2 8786  43.281  39.479   9.110
  372POPC   C1A 8787  42.888  39.420   8.770
  372POPC   D2A 8788  43.085  39.322   8.361
  372POPC   C3A 8789  42.914  39.205   7.976
  372POPC   C4A 8790  43.060  39.185   7.566
  372POPC   C1B 8791  43.326  39.154   8.771
  372POPC   C2B 8792  43.355  38.820   8.499
  372POPC   C3B 8793  43.378  38.965   8.100
  372POPC   C4B 8794  43.404  38.845   7.704
  373POPC   NC3 8795  41.326  42.572  10.070
  373POPC   PO4 8796  41.603  43.137   9.698
  373POPC   GL1 8797  41.484  43.147   9.239
  373POPC   GL2 8798  41.424  42.848   9.104
  373POPC   C1A 8799  41.533  43.231   8.770
  373POPC   D2A 8800  41.263  43.294   8.390
  373POPC   C3A 8801  41.499  43.178   8.045
  373POPC   C4A 8802  41.618  43.386   7.671
  373POPC   C1B 8803  41.575  42.732   8.699
  373POPC   C2B 8804  41.755  42.749   8.281
  373POPC   C3B 8805  41.520  42.673   7.907
  373POPC   C4B 8806  41.357  42.970   7.591
  374POPC   NC3 8807  35.361  37.871   9.569
  374POPC   PO4 8808  35.139  37.313   9.512
  374POPC   GL1 8809  35.199  37.599   9.149
  374POPC   GL2 8810  35.038  37.937   9.163
  374POPC   C1A 8811  35.488  37.638   8.791
  374POPC   D2A 8812  35.665  37.825   8.408
  374POPC   C3A 8813  35.559  37.613   8.038
  374POPC   C4A 8814  35.550  37.732   7.638
  374POPC   C1B 8815  34.971  37.805   8.721
  374POPC   C2B 8816  35.101  37.658   8.302
  374POPC   C3B 8817  35.073  37.764   7.853
  374POPC   C4B 8818  35.093  37.603   7.413
  375POPC   NC3 8819  12.542   4.792   9.371
  375POPC   PO4 8820  12.951   5.252   9.616
  375POPC   GL1 8821  12.890   5.119   9.183
  375POPC   GL2 8822  13.198   4.975   9.092
  375POPC   C1A 8823  12.821   5.332   8.771
  375POPC   D2A 8824  12.952   5.197   8.372
  375POPC   C3A 8825  12.779   5.314   8.030
  375POPC   C4A 8826  12.805   5.173   7.674
  375POPC   C1B 8827  12.974   4.836   8.724
  375POPC   C2B 8828  12.808   4.709   8.312
  375POPC   C3B 8829  12.960   4.733   7.916
  375POPC   C4B 8830  12.799   4.642   7.528
  376POPC   NC3 8831   2.757  40.160   9.830
  376POPC   PO4 8832   2.432  40.125   9.289
  376POPC   GL1 8833   2.809  40.040   9.113
  376POPC   GL2 8834   2.787  40.229   8.837
  376POPC   C1A 8835   2.777  39.746   8.752
  376POPC   D2A 8836   2.543  39.934   8.417
  376POPC   C3A 8837   2.795  39.908   8.040
  376POPC   C4A 8838   2.797  39.815   7.622
  376POPC   C1B 8839   2.515  40.547   8.751
  376POPC   C2B 8840   2.347  40.539   8.366
  376POPC   C3B 8841   2.591  40.365   8.093
  376POPC   C4B 8842   2.531  40.246   7.703
  377POPC   NC3 8843   3.404   4.183   9.449
  377POPC   PO4 8844   3.628   4.797   9.687
  377POPC   GL1 8845   3.882   4.483   9.333
  377POPC   GL2 8846   3.635   4.367   9.056
  377POPC   C1A 8847   4.086   4.408   8.868
  377POPC   D2A 8848   3.795   4.319   8.489
  377POPC   C3A 8849   3.879   4.394   8.026
  377POPC   C4A 8850   3.719   4.562   7.632
  377POPC   C1B 8851   3.384   4.131   8.745
  377POPC   C2B 8852   3.307   4.286   8.318
  377POPC   C3B 8853   3.415   4.223   7.895
  377POPC   C4B 8854   3.204   4.143   7.533
  378POPC   NC3 8855  12.053  24.023   9.676
  378POPC   PO4 8856  12.165  23.377   9.491
  378POPC   GL1 8857  12.046  23.694   9.195
  378POPC   GL2 8858  12.330  23.931   9.175
  378POPC   C1A 8859  11.816  23.682   8.793
  378POPC   D2A 8860  11.887  23.905   8.435
  378POPC   C3A 8861  11.785  23.673   8.115
  378POPC   C4A 8862  11.782  23.454   7.754
  378POPC   C1B 8863  12.327  23.766   8.724
  378POPC   C2B 8864  12.340  23.889   8.250
  378POPC   C3B 8865  12.221  23.788   7.819
  378POPC   C4B 8866  12.411  23.447   7.512
  379POPC   NC3 8867  13.638  25.674   9.413
  379POPC   PO4 8868  13.370  25.129   9.579
  379POPC   GL1 8869  13.597  25.189   9.152
  379POPC   GL2 8870  13.395  24.891   9.116
  379POPC   C1A 8871  13.779  25.424   8.754
  379POPC   D2A 8872  13.905  25.335   8.310
  379POPC   C3A 8873  13.700  25.506   7.930
  379POPC   C4A 8874  13.739  25.342   7.527
  379POPC   C1B 8875  13.329  24.753   8.721
  379POPC   C2B 8876  13.421  24.855   8.304
  379POPC   C3B 8877  13.470  25.051   7.915
  379POPC   C4B 8878  13.408  24.950   7.434
  380POPC   NC3 8879   9.265  31.659   9.547
  380POPC   PO4 8880   8.632  31.519   9.521
  380POPC   GL1 8881   8.914  31.422   9.169
  380POPC   GL2 8882   9.215  31.649   9.058
  380POPC   C1A 8883   9.004  31.332   8.736
  380POPC   D2A 8884   8.827  31.494   8.383
  380POPC   C3A 8885   8.961  31.332   8.010
  380POPC   C4A 8886   8.841  31.484   7.604
  380POPC   C1B 8887   9.240  31.823   8.655
  380POPC   C2B 8888   9.300  31.692   8.228
  380POPC   C3B 8889   9.244  31.724   7.779
  380POPC   C4B 8890   9.130  31.788   7.323
  381POPC   NC3 8891   3.876   2.773   9.702
  381POPC   PO4 8892   4.496   2.711   9.441
  381POPC   GL1 8893   4.170   2.701   9.133
  381POPC   GL2 8894   4.105   2.361   9.063
  381POPC   C1A 8895   4.256   2.647   8.677
  381POPC   D2A 8896   4.430   2.619   8.283
  381POPC   C3A 8897   4.403   2.966   8.099
  381POPC   C4A 8898   4.313   2.848   7.726
  381POPC   C1B 8899   3.863   2.323   8.699
  381POPC   C2B 8900   3.946   2.449   8.276
  381POPC   C3B 8901   4.083   2.429   7.846
  381POPC   C4B 8902   3.967   2.425   7.374
  382POPC   NC3 8903  12.262  44.752   9.705
  382POPC   PO4 8904  11.862  44.378   9.633
  382POPC   GL1 8905  11.971  44.590   9.220
  382POPC   GL2 8906  11.782  44.895   9.127
  382POPC   C1A 8907  11.872  44.531   8.722
  382POPC   D2A 8908  12.003  44.396   8.259
  382POPC   C3A 8909  12.221  44.651   7.931
  382POPC   C4A 8910  12.550  44.714   7.609
  382POPC   C1B 8911  11.856   0.036   8.651
  382POPC   C2B 8912  11.881  44.935   8.184
  382POPC   C3B 8913  11.975   0.056   7.729
  382POPC   C4B 8914  11.958   0.018   7.271
  383POPC   NC3 8915  36.802  11.720   9.450
  383POPC   PO4 8916  37.295  11.519   9.190
  383POPC   GL1 8917  36.902  11.385   9.058
  383POPC   GL2 8918  36.735  11.708   8.958
  383POPC   C1A 8919  36.967  11.188   8.677
  383POPC   D2A 8920  37.234  11.305   8.319
  383POPC   C3A 8921  36.963  11.187   7.978
  383POPC   C4A 8922  36.587  11.008   7.797
  383POPC   C1B 8923  36.836  11.662   8.546
  383POPC   C2B 8924  36.539  11.540   8.267
  383POPC   C3B 8925  36.584  11.514   7.856
  383POPC   C4B 8926  37.000  11.616   7.698
  384POPC   NC3 8927  24.697  26.236  10.065
  384POPC   PO4 8928  25.305  26.330   9.661
  384POPC   GL1 8929  25.207  26.258   9.150
  384POPC   GL2 8930  24.969  25.976   9.176
  384POPC   C1A 8931  25.061  26.151   8.677
  384POPC   D2A 8932  25.325  26.166   8.302
  384POPC   C3A 8933  25.180  26.312   7.890
  384POPC   C4A 8934  24.996  26.211   7.482
  384POPC   C1B 8935  25.236  25.725   8.872
  384POPC   C2B 8936  25.154  25.686   8.403
  384POPC   C3B 8937  25.211  25.802   7.943
  384POPC   C4B 8938  25.152  25.708   7.491
  385POPC   NC3 8939  40.919   0.698   9.443
  385POPC   PO4 8940  40.408   0.175   9.407
  385POPC   GL1 8941  40.626   0.344   9.016
  385POPC   GL2 8942  40.975   0.400   9.022
  385POPC   C1A 8943  40.778   0.509   8.577
  385POPC   D2A 8944  41.155   0.649   8.327
  385POPC   C3A 8945  40.958   0.607   7.931
  385POPC   C4A 8946  40.552   0.404   7.888
  385POPC   C1B 8947  41.020   0.094   8.708
  385POPC   C2B 8948  41.214   0.144   8.320
  385POPC   C3B 8949  41.070   0.117   7.892
  385POPC   C4B 8950  40.866   0.275   7.506
  386POPC   NC3 8951  40.023  10.977   9.694
  386POPC   PO4 8952  40.234  11.536   9.365
  386POPC   GL1 8953  39.960  11.353   9.077
  386POPC   GL2 8954  39.885  10.967   9.132
  386POPC   C1A 8955  39.992  11.379   8.634
  386POPC   D2A 8956  39.777  11.191   8.279
  386POPC   C3A 8957  39.795  11.333   7.891
  386POPC   C4A 8958  40.220  11.336   7.787
  386POPC   C1B 8959  39.773  10.830   8.718
  386POPC   C2B 8960  39.553  10.748   8.311
  386POPC   C3B 8961  39.796  10.807   7.915
  386POPC   C4B 8962  39.804  11.004   7.509
  387POPC   NC3 8963  36.621  31.510   9.500
  387POPC   PO4 8964  37.271  31.641   9.370
  387POPC   GL1 8965  36.964  31.388   9.118
  387POPC   GL2 8966  36.731  31.685   9.041
  387POPC   C1A 8967  36.792  31.232   8.724
  387POPC   D2A 8968  36.501  31.430   8.438
  387POPC   C3A 8969  36.603  31.274   8.033
  387POPC   C4A 8970  36.785  31.311   7.627
  387POPC   C1B 8971  37.025  31.702   8.708
  387POPC   C2B 8972  36.873  31.807   8.313
  387POPC   C3B 8973  36.901  31.702   7.919
  387POPC   C4B 8974  36.591  31.829   7.665
  388POPC   NC3 8975  24.768  14.344   9.115
  388POPC   PO4 8976  24.382  14.540   9.605
  388POPC   GL1 8977  24.223  14.228   9.235
  388POPC   GL2 8978  24.141  14.527   9.082
  388POPC   C1A 8979  24.239  14.035   8.767
  388POPC   D2A 8980  24.316  14.120   8.286
  388POPC   C3A 8981  24.684  14.355   8.072
  388POPC   C4A 8982  24.858  14.409   7.629
  388POPC   C1B 8983  24.114  14.494   8.646
  388POPC   C2B 8984  24.316  14.658   8.289
  388POPC   C3B 8985  24.252  14.551   7.871
  388POPC   C4B 8986  24.348  14.352   7.509
  389POPC   NC3 8987  18.209  18.849   9.404
  389POPC   PO4 8988  18.707  19.364   9.155
  389POPC   GL1 8989  18.322  19.163   9.009
  389POPC   GL2 8990  18.412  18.790   8.949
  389POPC   C1A 8991  18.269  19.157   8.579
  389POPC   D2A 8992  18.487  19.407   8.298
  389POPC   C3A 8993  18.401  19.210   7.950
  389POPC   C4A 8994  18.341  19.314   7.573
  389POPC   C1B 8995  17.989  18.791   8.797
  389POPC   C2B 8996  17.911  18.756   8.400
  389POPC   C3B 8997  17.985  18.920   8.014
  389POPC   C4B 8998  18.269  18.788   7.677
  390POPC   NC3 8999  14.117   4.638   9.885
  390POPC   PO4 9000  14.631   4.152   9.631
  390POPC   GL1 9001  14.451   4.382   9.253
  390POPC   GL2 9002  14.200   4.173   9.107
  390POPC   C1A 9003  14.297   4.542   8.805
  390POPC   D2A 9004  14.466   4.678   8.402
  390POPC   C3A 9005  14.331   4.526   7.986
  390POPC   C4A 9006  14.502   4.509   7.554
  390POPC   C1B 9007  14.491   4.066   8.787
  390POPC   C2B 9008  14.356   4.158   8.360
  390POPC   C3B 9009  14.581   4.088   7.964
  390POPC   C4B 9010  14.743   4.075   7.566
  391POPC   NC3 9011  42.975  27.738   9.525
  391POPC   PO4 9012  43.504  27.239   9.445
  391POPC   GL1 9013  43.228  27.471   9.171
  391POPC   GL2 9014  43.265  27.815   9.076
  391POPC   C1A 9015  42.931  27.431   8.841
  391POPC   D2A 9016  42.783  27.304   8.403
  391POPC   C3A 9017  43.023  27.442   8.014
  391POPC   C4A 9018  43.025  27.513   7.540
  391POPC   C1B 9019  43.008  27.912   8.693
  391POPC   C2B 9020  42.778  27.854   8.279
  391POPC   C3B 9021  42.894  27.895   7.846
  391POPC   C4B 9022  43.039  28.020   7.421
  392POPC   NC3 9023  11.522  16.664   9.615
  392POPC   PO4 9024  11.310  17.270   9.320
  392POPC   GL1 9025  11.323  16.856   9.079
  392POPC   GL2 9026  11.504  16.533   9.109
  392POPC   C1A 9027  11.356  16.708   8.624
  392POPC   D2A 9028  11.520  16.907   8.252
  392POPC   C3A 9029  11.420  16.886   7.807
  392POPC   C4A 9030  11.536  17.110   7.420
  392POPC   C1B 9031  11.755  16.401   8.727
  392POPC   C2B 9032  11.572  16.364   8.278
  392POPC   C3B 9033  11.349  16.376   7.875
  392POPC   C4B 9034  11.229  16.148   7.478
  393POPC   NC3 9035  35.977  18.829   9.397
  393POPC   PO4 9036  36.354  19.335   9.309
  393POPC   GL1 9037  36.436  19.128   8.947
  393POPC   GL2 9038  36.301  18.843   9.026
  393POPC   C1A 9039  36.356  19.026   8.534
  393POPC   D2A 9040  36.015  19.121   8.292
  393POPC   C3A 9041  35.970  18.812   7.975
  393POPC   C4A 9042  36.236  19.138   7.801
  393POPC   C1B 9043  36.085  18.617   8.737
  393POPC   C2B 9044  36.217  18.548   8.351
  393POPC   C3B 9045  36.483  18.701   8.027
  393POPC   C4B 9046  36.359  18.698   7.592
  394POPC   NC3 9047  12.731   8.148   9.405
  394POPC   PO4 9048  13.266   8.492   9.280
  394POPC   GL1 9049  13.125   8.143   9.050
  394POPC   GL2 9050  12.795   8.290   8.931
  394POPC   C1A 9051  13.079   8.001   8.620
  394POPC   D2A 9052  12.752   7.964   8.327
  394POPC   C3A 9053  12.855   8.079   7.931
  394POPC   C4A 9054  12.620   8.357   7.735
  394POPC   C1B 9055  12.996   8.519   8.618
  394POPC   C2B 9056  12.942   8.589   8.169
  394POPC   C3B 9057  13.147   8.509   7.790
  394POPC   C4B 9058  13.041   8.292   7.410
  395POPC   NC3 9059  30.881   9.344   9.496
  395POPC   PO4 9060  30.380   8.911   9.404
  395POPC   GL1 9061  30.597   9.182   9.079
  395POPC   GL2 9062  30.969   9.091   9.068
  395POPC   C1A 9063  30.734   9.127   8.624
  395POPC   D2A 9064  30.670   8.716   8.400
  395POPC   C3A 9065  30.420   8.749   8.019
  395POPC   C4A 9066  30.443   9.129   7.782
  395POPC   C1B 9067  31.135   8.808   8.731
  395POPC   C2B 9068  31.196   8.711   8.294
  395POPC   C3B 9069  31.015   8.900   7.919
  395POPC   C4B 9070  31.192   8.836   7.517
  396POPC   NC3 9071  13.907   4.497   9.388
  396POPC   PO4 9072  13.283   4.787   9.561
  396POPC   GL1 9073  13.444   4.524   9.179
  396POPC   GL2 9074  13.489   4.169   9.219
  396POPC   C1A 9075  13.715   4.401   8.790
  396POPC   D2A 9076  13.957   4.480   8.408
  396POPC   C3A 9077  13.719   4.420   8.046
  396POPC   C4A 9078  13.472   4.674   7.825
  396POPC   C1B 9079  13.459   3.957   8.814
  396POPC   C2B 9080  13.553   4.093   8.408
  396POPC   C3B 9081  13.545   3.936   7.981
  396POPC   C4B 9082  13.673   4.104   7.585
  397POPC   NC3 9083   4.194  39.087   9.491
  397POPC   PO4 9084   4.794  39.301   9.310
  397POPC   GL1 9085   4.495  39.059   9.051
  397POPC   GL2 9086   4.081  39.019   9.020
  397POPC   C1A 9087   4.646  39.009   8.655
  397POPC   D2A 9088   4.830  39.180   8.302
  397POPC   C3A 9089   4.677  39.097   7.905
  397POPC   C4A 9090   4.676  39.320   7.498
  397POPC   C1B 9091   4.175  39.220   8.670
  397POPC   C2B 9092   4.300  39.139   8.273
  397POPC   C3B 9093   4.250  39.351   7.865
  397POPC   C4B 9094   4.166  39.326   7.417
  398POPC   NC3 9095  19.527  44.706   9.575
  398POPC   PO4 9096  18.830  44.767   9.518
  398POPC   GL1 9097  19.143  44.631   9.221
  398POPC   GL2 9098  18.864  44.563   9.053
  398POPC   C1A 9099  19.323  44.755   8.801
  398POPC   D2A 9100  19.231   0.072   8.476
  398POPC   C3A 9101  19.385  44.943   8.064
  398POPC   C4A 9102  19.230  44.670   7.741
  398POPC   C1B 9103  18.877  44.657   8.633
  398POPC   C2B 9104  19.023  44.628   8.235
  398POPC   C3B 9105  18.744  44.742   7.895
  398POPC   C4B 9106  18.789  44.691   7.437
  399POPC   NC3 9107  40.471  13.370   9.277
  399POPC   PO4 9108  40.888  13.647   9.721
  399POPC   GL1 9109  40.860  13.686   9.200
  399POPC   GL2 9110  40.894  13.356   8.967
  399POPC   C1A 9111  40.889  13.791   8.733
  399POPC   D2A 9112  41.013  13.451   8.449
  399POPC   C3A 9113  40.813  13.447   8.072
  399POPC   C4A 9114  40.638  13.699   7.731
  399POPC   C1B 9115  40.551  13.382   8.637
  399POPC   C2B 9116  40.270  13.302   8.296
  399POPC   C3B 9117  40.417  13.235   7.849
  399POPC   C4B 9118  40.773  13.198   7.583
  400POPC   NC3 9119  44.900  39.128   9.365
  400POPC   PO4 9120  44.553  39.597   9.662
  400POPC   GL1 9121  44.488  39.444   9.188
  400POPC   GL2 9122  44.592  39.106   8.973
  400POPC   C1A 9123  44.549  39.525   8.741
  400POPC   D2A 9124  44.613  39.156   8.442
  400POPC   C3A 9125  44.736  39.227   8.055
  400POPC   C4A 9126  44.564  39.505   7.824
  400POPC   C1B 9127   0.011  39.110   8.737
  400POPC   C2B 9128   0.080  38.912   8.355
  400POPC   C3B 9129   0.065  38.854   7.940
  400POPC   C4B 9130   0.008  39.188   7.600
  401POPC   NC3 9131  22.440  12.573   9.516
  401POPC   PO4 9132  22.965  12.131   9.609
  401POPC   GL1 9133  22.919  12.010   9.182
  401POPC   GL2 9134  22.670  12.267   8.995
  401POPC   C1A 9135  23.081  12.050   8.750
  401POPC   D2A 9136  22.747  12.289   8.501
  401POPC   C3A 9137  22.788  12.351   8.088
  401POPC   C4A 9138  22.923  12.114   7.722
  401POPC   C1B 9139  22.615  11.856   8.822
  401POPC   C2B 9140  22.769  11.756   8.464
  401POPC   C3B 9141  22.615  11.851   8.084
  401POPC   C4B 9142  22.775  11.635   7.756
  402POPC   NC3 9143  29.826  38.958   9.519
  402POPC   PO4 9144  29.706  39.644   9.700
  402POPC   GL1 9145  29.871  39.433   9.266
  402POPC   GL2 9146  30.133  39.162   9.146
  402POPC   C1A 9147  29.730  39.302   8.834
  402POPC   D2A 9148  29.688  39.085   8.444
  402POPC   C3A 9149  29.582  39.253   8.045
  402POPC   C4A 9150  29.881  39.343   7.722
  402POPC   C1B 9151  30.225  39.338   8.691
  402POPC   C2B 9152  30.143  39.231   8.224
  402POPC   C3B 9153  30.356  39.151   7.804
  402POPC   C4B 9154  30.256  39.307   7.369
  403POPC   NC3 9155   6.473  34.272   9.365
  403POPC   PO4 9156   7.019  34.597   9.617
  403POPC   GL1 9157   6.860  34.562   9.158
  403POPC   GL2 9158   6.539  34.576   8.975
  403POPC   C1A 9159   6.959  34.633   8.702
  403POPC   D2A 9160   6.791  34.826   8.316
  403POPC   C3A 9161   6.847  34.530   7.950
  403POPC   C4A 9162   6.855  34.618   7.494
  403POPC   C1B 9163   6.278  34.629   8.626
  403POPC   C2B 9164   6.297  34.676   8.193
  403POPC   C3B 9165   6.390  34.707   7.780
  403POPC   C4B 9166   6.027  34.740   7.543
  404POPC   NC3 9167  17.938  21.254   9.411
  404POPC   PO4 9168  18.408  21.692   9.528
  404POPC   GL1 9169  18.339  21.468   9.168
  404POPC   GL2 9170  18.043  21.631   9.104
  404POPC   C1A 9171  18.486  21.312   8.765
  404POPC   D2A 9172  18.551  21.427   8.329
  404POPC   C3A 9173  18.473  21.152   7.983
  404POPC   C4A 9174  18.047  21.089   7.834
  404POPC   C1B 9175  17.963  21.368   8.758
  404POPC   C2B 9176  17.903  21.539   8.368
  404POPC   C3B 9177  18.120  21.549   8.013
  404POPC   C4B 9178  18.215  21.502   7.581
  405POPC   NC3 9179  17.876  28.151   9.566
  405POPC   PO4 9180  18.484  28.585   9.521
  405POPC   GL1 9181  18.218  28.325   9.198
  405POPC   GL2 9182  17.854  28.416   9.128
  405POPC   C1A 9183  18.186  28.214   8.753
  405POPC   D2A 9184  18.482  28.248   8.383
  405POPC   C3A 9185  18.371  28.140   7.942
  405POPC   C4A 9186  18.636  28.196   7.573
  405POPC   C1B 9187  17.877  28.676   8.757
  405POPC   C2B 9188  18.026  28.527   8.352
  405POPC   C3B 9189  17.919  28.592   7.918
  405POPC   C4B 9190  17.911  28.326   7.554
  406POPC   NC3 9191  19.645  26.674   9.828
  406POPC   PO4 9192  20.188  26.726   9.577
  406POPC   GL1 9193  20.064  26.703   9.136
  406POPC   GL2 9194  19.750  26.662   9.149
  406POPC   C1A 9195  19.926  26.888   8.735
  406POPC   D2A 9196  20.201  27.096   8.476
  406POPC   C3A 9197  20.081  26.985   8.087
  406POPC   C4A 9198  20.195  26.698   7.815
  406POPC   C1B 9199  19.488  26.561   8.782
  406POPC   C2B 9200  19.545  26.642   8.329
  406POPC   C3B 9201  19.681  26.679   7.900
  406POPC   C4B 9202  19.720  27.091   7.733
  407POPC   NC3 9203  19.485  31.305   9.502
  407POPC   PO4 9204  19.925  31.703   9.490
  407POPC   GL1 9205  19.868  31.330   9.154
  407POPC   GL2 9206  19.526  31.225   9.002
  407POPC   C1A 9207  19.923  31.122   8.726
  407POPC   D2A 9208  19.822  31.087   8.271
  407POPC   C3A 9209  19.954  31.426   7.973
  407POPC   C4A 9210  20.049  31.461   7.518
  407POPC   C1B 9211  19.678  31.594   8.759
  407POPC   C2B 9212  19.752  31.760   8.350
  407POPC   C3B 9213  19.576  31.774   7.932
  407POPC   C4B 9214  19.519  31.502   7.551
  408POPC   NC3 9215  44.448  44.940   9.455
  408POPC   PO4 9216   0.044   0.267   9.555
  408POPC   GL1 9217  44.805   0.313   9.157
  408POPC   GL2 9218  44.911   0.671   9.033
  408POPC   C1A 9219  44.633   0.325   8.707
  408POPC   D2A 9220  44.715   0.668   8.412
  408POPC   C3A 9221  44.806   0.572   7.950
  408POPC   C4A 9222  44.730   0.463   7.477
  408POPC   C1B 9223  44.453   0.720   8.954
  408POPC   C2B 9224  44.229   0.614   8.555
  408POPC   C3B 9225  44.353   0.399   8.178
  408POPC   C4B 9226  44.302   0.586   7.786
  409POPC   NC3 9227  32.601  14.453   9.376
  409POPC   PO4 9228  32.068  14.203   9.678
  409POPC   GL1 9229  32.140  14.196   9.245
  409POPC   GL2 9230  32.135  14.569   9.215
  409POPC   C1A 9231  32.141  14.239   8.781
  409POPC   D2A 9232  32.455  14.323   8.424
  409POPC   C3A 9233  32.325  14.264   7.959
  409POPC   C4A 9234  32.544  13.939   7.675
  409POPC   C1B 9235  32.329  14.712   8.816
  409POPC   C2B 9236  32.182  14.736   8.402
  409POPC   C3B 9237  31.957  14.666   8.042
  409POPC   C4B 9238  32.245  14.760   7.737
  410POPC   NC3 9239  15.688  34.553   9.201
  410POPC   PO4 9240  16.238  34.340   9.548
  410POPC   GL1 9241  16.174  34.464   9.161
  410POPC   GL2 9242  16.019  34.192   9.070
  410POPC   C1A 9243  16.177  34.595   8.753
  410POPC   D2A 9244  16.083  34.567   8.330
  410POPC   C3A 9245  15.873  34.920   8.118
  410POPC   C4A 9246  15.996  35.054   7.737
  410POPC   C1B 9247  15.782  34.255   8.659
  410POPC   C2B 9248  15.531  34.566   8.483
  410POPC   C3B 9249  15.609  34.505   8.082
  410POPC   C4B 9250  15.660  34.676   7.693
  411POPC   NC3 9251  43.868  43.247   9.440
  411POPC   PO4 9252  44.235  42.674   9.462
  411POPC   GL1 9253  43.947  42.920   9.052
  411POPC   GL2 9254  43.932  43.304   8.947
  411POPC   C1A 9255  43.566  43.060   8.728
  411POPC   D2A 9256  43.583  43.313   8.335
  411POPC   C3A 9257  43.792  43.056   8.030
  411POPC   C4A 9258  43.769  42.911   7.600
  411POPC   C1B 9259  44.035  43.080   8.547
  411POPC   C2B 9260  44.251  42.891   8.208
  411POPC   C3B 9261  44.300  43.124   7.859
  411POPC   C4B 9262  44.012  43.375   7.699
  412POPC   NC3 9263   4.365   7.259   9.552
  412POPC   PO4 9264   4.123   7.868   9.432
  412POPC   GL1 9265   4.220   7.792   9.071
  412POPC   GL2 9266   4.510   7.622   9.149
  412POPC   C1A 9267   4.126   7.557   8.711
  412POPC   D2A 9268   4.231   7.219   8.434
  412POPC   C3A 9269   4.157   7.332   8.023
  412POPC   C4A 9270   4.098   7.684   7.734
  412POPC   C1B 9271   4.559   7.309   8.859
  412POPC   C2B 9272   4.771   7.271   8.507
  412POPC   C3B 9273   4.655   7.200   8.117
  412POPC   C4B 9274   4.586   7.456   7.767
  413POPC   NC3 9275  17.358  27.126   9.466
  413POPC   PO4 9276  17.243  27.738   9.658
  413POPC   GL1 9277  17.558  27.597   9.282
  413POPC   GL2 9278  17.803  27.872   9.132
  413POPC   C1A 9279  17.615  27.262   8.895
  413POPC   D2A 9280  17.340  27.068   8.557
  413POPC   C3A 9281  17.278  27.309   8.166
  413POPC   C4A 9282  17.356  27.486   7.754
  413POPC   C1B 9283  17.495  27.752   8.807
  413POPC   C2B 9284  17.568  27.806   8.394
  413POPC   C3B 9285  17.305  27.911   8.062
  413POPC   C4B 9286  17.192  27.954   7.645
  414POPC   NC3 9287  27.007  11.787   9.820
  414POPC   PO4 9288  27.604  11.796   9.479
  414POPC   GL1 9289  27.814  11.791   9.109
  414POPC   GL2 9290  27.717  12.110   8.959
  414POPC   C1A 9291  27.819  11.694   8.689
  414POPC   D2A 9292  27.660  11.916   8.353
  414POPC   C3A 9293  27.812  11.907   7.911
  414POPC   C4A 9294  27.552  11.785   7.542
  414POPC   C1B 9295  27.629  12.384   8.557
  414POPC   C2B 9296  27.637  12.361   8.107
  414POPC   C3B 9297  27.520  12.353   7.666
  414POPC   C4B 9298  27.637  12.564   7.260
  415POPC   NC3 9299  24.833  12.584   9.588
  415POPC   PO4 9300  24.374  13.021   9.453
  415POPC   GL1 9301  24.388  12.654   9.157
  415POPC   GL2 9302  24.731  12.689   9.101
  415POPC   C1A 9303  24.499  12.484   8.715
  415POPC   D2A 9304  24.610  12.464   8.277
  415POPC   C3A 9305  24.297  12.523   7.951
  415POPC   C4A 9306  24.286  12.701   7.584
  415POPC   C1B 9307  24.517  13.011   8.796
  415POPC   C2B 9308  24.487  13.224   8.387
  415POPC   C3B 9309  24.482  13.049   7.951
  415POPC   C4B 9310  24.664  13.083   7.512
  416POPC   NC3 9311  23.495  40.414   9.243
  416POPC   PO4 9312  23.449  39.868   9.693
  416POPC   GL1 9313  23.420  39.896   9.217
  416POPC   GL2 9314  23.245  39.648   9.028
  416POPC   C1A 9315  23.597  39.990   8.770
  416POPC   D2A 9316  23.495  39.866   8.341
  416POPC   C3A 9317  23.807  39.957   8.039
  416POPC   C4A 9318  23.806  40.081   7.617
  416POPC   C1B 9319  23.520  39.504   8.721
  416POPC   C2B 9320  23.556  39.363   8.311
  416POPC   C3B 9321  23.363  39.568   7.917
  416POPC   C4B 9322  23.382  39.528   7.441
  417POPC   NC3 9323  35.080  32.152   9.388
  417POPC   PO4 9324  35.706  32.281   9.676
  417POPC   GL1 9325  35.490  32.026   9.158
  417POPC   GL2 9326  35.219  32.324   8.958
  417POPC   C1A 9327  35.374  31.941   8.700
  417POPC   D2A 9328  35.551  31.908   8.303
  417POPC   C3A 9329  35.340  31.952   7.901
  417POPC   C4A 9330  35.150  32.072   7.502
  417POPC   C1B 9331  35.455  32.439   8.617
  417POPC   C2B 9332  35.374  32.693   8.302
  417POPC   C3B 9333  35.481  32.446   8.009
  417POPC   C4B 9334  35.400  32.493   7.637
  418POPC   NC3 9335   7.820   7.769   9.513
  418POPC   PO4 9336   8.370   7.445   9.685
  418POPC   GL1 9337   8.206   7.507   9.249
  418POPC   GL2 9338   8.450   7.759   9.150
  418POPC   C1A 9339   8.010   7.718   8.883
  418POPC   D2A 9340   8.146   7.838   8.458
  418POPC   C3A 9341   7.991   7.519   8.192
  418POPC   C4A 9342   7.952   7.264   7.807
  418POPC   C1B 9343   8.457   7.515   8.750
  418POPC   C2B 9344   8.466   7.299   8.349
  418POPC   C3B 9345   8.433   7.468   7.933
  418POPC   C4B 9346   8.566   7.462   7.528
  419POPC   NC3 9347  26.267  27.370   9.678
  419POPC   PO4 9348  25.795  27.659   9.272
  419POPC   GL1 9349  26.130  27.653   9.059
  419POPC   GL2 9350  26.191  27.991   9.061
  419POPC   C1A 9351  26.092  27.551   8.637
  419POPC   D2A 9352  26.018  27.327   8.256
  419POPC   C3A 9353  26.157  27.427   7.884
  419POPC   C4A 9354  25.838  27.644   7.709
  419POPC   C1B 9355  26.385  28.077   8.747
  419POPC   C2B 9356  26.255  27.941   8.373
  419POPC   C3B 9357  26.159  27.919   7.996
  419POPC   C4B 9358  26.209  28.038   7.592
  420POPC   NC3 9359  37.558  26.330   9.844
  420POPC   PO4 9360  38.100  26.190   9.463
  420POPC   GL1 9361  37.716  26.133   9.235
  420POPC   GL2 9362  37.630  25.765   9.191
  420POPC   C1A 9363  37.660  26.144   8.795
  420POPC   D2A 9364  37.916  26.031   8.425
  420POPC   C3A 9365  37.860  26.224   8.024
  420POPC   C4A 9366  37.845  26.429   7.628
  420POPC   C1B 9367  37.739  25.641   8.759
  420POPC   C2B 9368  37.623  25.623   8.340
  420POPC   C3B 9369  37.479  25.845   7.978
  420POPC   C4B 9370  37.606  25.992   7.610
  421POPC   NC3 9371  20.654  17.084   9.807
  421POPC   PO4 9372  20.691  17.775   9.633
  421POPC   GL1 9373  20.583  17.614   9.215
  421POPC   GL2 9374  20.260  17.492   9.137
  421POPC   C1A 9375  20.584  17.665   8.759
  421POPC   D2A 9376  20.873  17.577   8.426
  421POPC   C3A 9377  20.767  17.664   8.010
  421POPC   C4A 9378  20.403  17.645   7.771
  421POPC   C1B 9379  20.198  17.336   8.713
  421POPC   C2B 9380  20.289  17.479   8.315
  421POPC   C3B 9381  20.185  17.235   7.951
  421POPC   C4B 9382  20.496  16.978   7.822
  422POPC   NC3 9383  31.977  12.191   9.520
  422POPC   PO4 9384  32.660  11.929   9.543
  422POPC   GL1 9385  32.382  11.866   9.281
  422POPC   GL2 9386  32.360  12.163   9.164
  422POPC   C1A 9387  32.413  11.799   8.815
  422POPC   D2A 9388  32.336  11.956   8.403
  422POPC   C3A 9389  32.165  11.799   8.030
  422POPC   C4A 9390  32.228  11.970   7.581
  422POPC   C1B 9391  32.168  12.269   8.781
  422POPC   C2B 9392  31.977  12.314   8.349
  422POPC   C3B 9393  31.932  12.227   7.894
  422POPC   C4B 9394  31.848  12.287   7.417
  423POPC   NC3 9395  16.462   6.054   9.378
  423POPC   PO4 9396  16.937   5.598   9.563
  423POPC   GL1 9397  17.030   5.481   9.156
  423POPC   GL2 9398  16.784   5.724   9.085
  423POPC   C1A 9399  17.134   5.650   8.720
  423POPC   D2A 9400  16.932   5.900   8.374
  423POPC   C3A 9401  16.835   6.001   7.931
  423POPC   C4A 9402  17.129   6.103   7.597
  423POPC   C1B 9403  16.841   6.079   8.838
  423POPC   C2B 9404  16.582   6.313   8.558
  423POPC   C3B 9405  16.300   6.260   8.216
  423POPC   C4B 9406  16.410   6.350   7.811
  424POPC   NC3 9407  34.520  12.985   9.688
  424POPC   PO4 9408  34.776  12.517   9.223
  424POPC   GL1 9409  34.734  12.903   9.009
  424POPC   GL2 9410  34.434  13.117   9.098
  424POPC   C1A 9411  34.740  12.932   8.578
  424POPC   D2A 9412  34.741  12.666   8.221
  424POPC   C3A 9413  34.423  12.798   7.947
  424POPC   C4A 9414  34.546  12.848   7.533
  424POPC   C1B 9415  34.600  13.393   8.751
  424POPC   C2B 9416  34.698  13.382   8.330
  424POPC   C3B 9417  34.787  13.172   7.965
  424POPC   C4B 9418  34.662  13.381   7.600
  425POPC   NC3 9419  29.547  32.797   9.472
  425POPC   PO4 9420  29.137  33.287   9.378
  425POPC   GL1 9421  28.999  33.018   9.043
  425POPC   GL2 9422  29.295  32.814   9.044
  425POPC   C1A 9423  28.877  33.118   8.602
  425POPC   D2A 9424  29.139  33.420   8.415
  425POPC   C3A 9425  29.194  33.388   7.972
  425POPC   C4A 9426  29.008  33.035   7.764
  425POPC   C1B 9427  29.311  32.881   8.625
  425POPC   C2B 9428  29.206  32.919   8.219
  425POPC   C3B 9429  29.326  32.669   7.865
  425POPC   C4B 9430  29.253  32.786   7.376
  426POPC   NC3 9431  12.515   7.458   9.516
  426POPC   PO4 9432  11.937   7.522   9.726
  426POPC   GL1 9433  12.096   7.559   9.253
  426POPC   GL2 9434  11.939   7.785   9.003
  426POPC   C1A 9435  12.045   7.321   8.867
  426POPC   D2A 9436  11.911   7.468   8.492
  426POPC   C3A 9437  11.966   7.209   8.140
  426POPC   C4A 9438  11.750   7.227   7.758
  426POPC   C1B 9439  12.330   7.700   8.712
  426POPC   C2B 9440  12.318   7.689   8.252
  426POPC   C3B 9441  12.459   7.740   7.843
  426POPC   C4B 9442  12.258   7.714   7.391
  427POPC   NC3 9443  37.027  18.116   9.440
  427POPC   PO4 9444  36.423  18.621   9.490
  427POPC   GL1 9445  36.738  18.614   9.123
  427POPC   GL2 9446  36.891  18.328   9.014
  427POPC   C1A 9447  36.605  18.603   8.705
  427POPC   D2A 9448  36.759  18.264   8.458
  427POPC   C3A 9449  36.939  18.366   8.079
  427POPC   C4A 9450  36.739  18.365   7.720
  427POPC   C1B 9451  37.193  18.122   8.800
  427POPC   C2B 9452  37.173  17.870   8.467
  427POPC   C3B 9453  37.322  18.003   8.063
  427POPC   C4B 9454  37.126  17.939   7.681
  428POPC   NC3 9455  33.104  38.422   9.642
  428POPC   PO4 9456  32.620  38.796   9.327
  428POPC   GL1 9457  32.830  38.433   9.036
  428POPC   GL2 9458  33.140  38.317   9.124
  428POPC   C1A 9459  33.020  38.479   8.639
  428POPC   D2A 9460  32.980  38.819   8.364
  428POPC   C3A 9461  32.990  38.641   7.991
  428POPC   C4A 9462  32.814  38.481   7.631
  428POPC   C1B 9463  33.433  38.191   8.796
  428POPC   C2B 9464  33.589  38.201   8.379
  428POPC   C3B 9465  33.469  38.030   7.989
  428POPC   C4B 9466  33.275  38.339   7.715
  429POPC   NC3 9467   3.786  17.141   9.474
  429POPC   PO4 9468   3.241  17.582   9.489
  429POPC   GL1 9469   3.379  17.609   9.080
  429POPC   GL2 9470   3.605  17.377   9.042
  429POPC   C1A 9471   3.234  17.619   8.655
  429POPC   D2A 9472   3.557  17.514   8.383
  429POPC   C3A 9473   3.697  17.785   8.063
  429POPC   C4A 9474   4.092  17.868   7.948
  429POPC   C1B 9475   3.191  17.156   8.886
  429POPC   C2B 9476   3.096  17.174   8.425
  429POPC   C3B 9477   3.365  17.169   8.074
  429POPC   C4B 9478   3.477  17.475   7.719
  430POPC   NC3 9479   5.458  32.849   9.504
  430POPC   PO4 9480   6.093  32.692   9.339
  430POPC   GL1 9481   5.814  32.967   9.148
  430POPC   GL2 9482   6.086  33.109   8.992
  430POPC   C1A 9483   5.616  33.124   8.786
  430POPC   D2A 9484   5.517  32.893   8.414
  430POPC   C3A 9485   5.645  33.135   8.075
  430POPC   C4A 9486   5.766  33.428   7.772
  430POPC   C1B 9487   6.005  32.836   8.635
  430POPC   C2B 9488   6.019  32.810   8.207
  430POPC   C3B 9489   5.975  32.930   7.752
  430POPC   C4B 9490   5.972  32.835   7.301
  431POPC   NC3 9491  37.356  22.072   9.372
  431POPC   PO4 9492  37.985  22.375   9.453
  431POPC   GL1 9493  37.793  22.152   9.127
  431POPC   GL2 9494  37.812  21.804   9.150
  431POPC   C1A 9495  37.598  22.071   8.733
  431POPC   D2A 9496  37.602  22.230   8.298
  431POPC   C3A 9497  37.400  21.996   7.992
  431POPC   C4A 9498  37.469  21.810   7.597
  431POPC   C1B 9499  38.021  21.776   8.781
  431POPC   C2B 9500  38.006  21.880   8.368
  431POPC   C3B 9501  37.873  21.787   7.957
  431POPC   C4B 9502  37.994  21.817   7.522
  432POPC   NC3 9503  35.900  38.908   9.255
  432POPC   PO4 9504  36.213  39.424   9.465
  432POPC   GL1 9505  36.268  39.235   9.054
  432POPC   GL2 9506  36.342  38.882   8.939
  432POPC   C1A 9507  36.168  39.225   8.600
  432POPC   D2A 9508  36.420  39.226   8.245
  432POPC   C3A 9509  36.178  39.353   7.899
  432POPC   C4A 9510  36.111  39.006   7.658
  432POPC   C1B 9511  35.937  38.791   8.656
  432POPC   C2B 9512  35.725  39.041   8.410
  432POPC   C3B 9513  35.766  39.003   8.013
  432POPC   C4B 9514  35.610  39.013   7.609
  433POPC   NC3 9515  10.626  26.606   9.625
  433POPC   PO4 9516  10.100  26.753   9.312
  433POPC   GL1 9517  10.388  27.015   9.161
  433POPC   GL2 9518  10.731  26.962   9.266
  433POPC   C1A 9519  10.546  26.916   8.780
  433POPC   D2A 9520  10.441  26.688   8.423
  433POPC   C3A 9521  10.323  26.901   8.111
  433POPC   C4A 9522  10.372  26.693   7.761
  433POPC   C1B 9523  10.948  26.654   8.961
  433POPC   C2B 9524  10.954  26.590   8.509
  433POPC   C3B 9525  10.812  26.613   8.074
  433POPC   C4B 9526  10.830  26.967   7.783
  434POPC   NC3 9527  35.571  31.025   9.468
  434POPC   PO4 9528  34.904  30.998   9.600
  434POPC   GL1 9529  35.132  30.903   9.186
  434POPC   GL2 9530  35.456  30.697   9.093
  434POPC   C1A 9531  35.250  31.013   8.757
  434POPC   D2A 9532  35.477  30.897   8.404
  434POPC   C3A 9533  35.276  30.966   8.028
  434POPC   C4A 9534  35.529  31.084   7.739
  434POPC   C1B 9535  35.289  30.506   8.690
  434POPC   C2B 9536  35.219  30.491   8.216
  434POPC   C3B 9537  35.408  30.520   7.777
  434POPC   C4B 9538  35.353  30.327   7.342
  435POPC   NC3 9539  40.527  28.158   9.325
  435POPC   PO4 9540  41.005  28.707   9.516
  435POPC   GL1 9541  40.770  28.575   9.156
  435POPC   GL2 9542  40.459  28.575   8.905
  435POPC   C1A 9543  40.940  28.491   8.774
  435POPC   D2A 9544  40.801  28.594   8.379
  435POPC   C3A 9545  40.843  28.217   8.189
  435POPC   C4A 9546  41.173  28.105   7.921
  435POPC   C1B 9547  40.307  28.231   8.678
  435POPC   C2B 9548  40.376  27.986   8.316
  435POPC   C3B 9549  40.393  28.163   7.924
  435POPC   C4B 9550  40.698  28.465   7.773
  436POPC   NC3 9551  12.306   2.393   9.509
  436POPC   PO4 9552  11.778   2.776   9.636
  436POPC   GL1 9553  11.913   2.659   9.200
  436POPC   GL2 9554  12.230   2.749   9.142
  436POPC   C1A 9555  12.021   2.647   8.717
  436POPC   D2A 9556  12.042   2.586   8.289
  436POPC   C3A 9557  11.893   2.855   8.028
  436POPC   C4A 9558  11.863   2.654   7.675
  436POPC   C1B 9559  12.413   2.986   8.820
  436POPC   C2B 9560  12.341   2.998   8.408
  436POPC   C3B 9561  12.400   2.936   7.995
  436POPC   C4B 9562  12.267   2.947   7.606
  437POPC   NC3 9563  36.302   7.644   9.399
  437POPC   PO4 9564  35.883   7.128   9.574
  437POPC   GL1 9565  35.978   7.343   9.152
  437POPC   GL2 9566  36.313   7.427   8.949
  437POPC   C1A 9567  35.857   7.541   8.730
  437POPC   D2A 9568  36.019   7.783   8.340
  437POPC   C3A 9569  36.171   7.506   7.980
  437POPC   C4A 9570  36.188   7.352   7.535
  437POPC   C1B 9571  36.305   7.374   8.501
  437POPC   C2B 9572  36.538   7.139   8.194
  437POPC   C3B 9573  36.632   7.269   7.819
  437POPC   C4B 9574  36.553   7.685   7.616
  438POPC   NC3 9575  21.266  24.421   9.553
  438POPC   PO4 9576  21.439  24.994   9.539
  438POPC   GL1 9577  21.518  24.645   9.172
  438POPC   GL2 9578  21.473  24.253   9.118
  438POPC   C1A 9579  21.597  24.796   8.747
  438POPC   D2A 9580  21.641  24.644   8.336
  438POPC   C3A 9581  21.464  24.853   7.974
  438POPC   C4A 9582  21.119  24.734   7.760
  438POPC   C1B 9583  21.319  24.357   8.721
  438POPC   C2B 9584  21.393  24.210   8.323
  438POPC   C3B 9585  21.431  24.337   7.922
  438POPC   C4B 9586  21.272  24.039   7.673
  439POPC   NC3 9587  39.752  19.263   9.468
  439POPC   PO4 9588  40.397  19.132   9.429
  439POPC   GL1 9589  40.079  19.007   9.136
  439POPC   GL2 9590  39.827  18.793   9.294
  439POPC   C1A 9591  40.010  19.076   8.705
  439POPC   D2A 9592  39.892  19.311   8.362
  439POPC   C3A 9593  40.194  19.297   8.087
  439POPC   C4A 9594  40.124  19.091   7.705
  439POPC   C1B 9595  39.753  18.678   8.893
  439POPC   C2B 9596  39.864  18.643   8.480
  439POPC   C3B 9597  39.905  18.837   8.102
  439POPC   C4B 9598  39.902  18.648   7.700
  440POPC   NC3 9599   7.590  22.253   9.485
  440POPC   PO4 9600   7.506  21.573   9.567
  440POPC   GL1 9601   7.423  21.851   9.230
  440POPC   GL2 9602   7.766  21.914   9.132
  440POPC   C1A 9603   7.312  22.109   8.869
  440POPC   D2A 9604   7.200  22.356   8.496
  440POPC   C3A 9605   7.352  22.272   8.090
  440POPC   C4A 9606   7.237  22.083   7.678
  440POPC   C1B 9607   7.810  22.029   8.703
  440POPC   C2B 9608   7.810  22.178   8.281
  440POPC   C3B 9609   7.763  22.116   7.815
  440POPC   C4B 9610   7.824  22.284   7.411
  441POPC   NC3 9611  13.456  11.121   9.930
  441POPC   PO4 9612  13.663  11.667   9.705
  441POPC   GL1 9613  13.614  11.358   9.317
  441POPC   GL2 9614  13.786  11.043   9.246
  441POPC   C1A 9615  13.631  11.479   8.848
  441POPC   D2A 9616  13.647  11.670   8.415
  441POPC   C3A 9617  13.698  11.416   8.095
  441POPC   C4A 9618  13.287  11.361   7.920
  441POPC   C1B 9619  13.483  11.001   8.918
  441POPC   C2B 9620  13.442  11.116   8.479
  441POPC   C3B 9621  13.495  10.946   8.082
  441POPC   C4B 9622  13.646  11.115   7.662
  442POPC   NC3 9623   4.384   3.997   9.382
  442POPC   PO4 9624   4.395   4.687   9.448
  442POPC   GL1 9625   4.573   4.677   9.044
  442POPC   GL2 9626   4.631   4.349   9.088
  442POPC   C1A 9627   4.468   4.689   8.627
  442POPC   D2A 9628   4.277   4.418   8.358
  442POPC   C3A 9629   4.390   4.367   7.937
  442POPC   C4A 9630   4.168   4.371   7.503
  442POPC   C1B 9631   4.528   4.140   8.722
  442POPC   C2B 9632   4.571   3.990   8.313
  442POPC   C3B 9633   4.603   3.835   7.920
  442POPC   C4B 9634   4.609   4.125   7.558
  443POPC   NC3 9635  24.249  10.789   9.542
  443POPC   PO4 9636  24.645  10.301   9.710
  443POPC   GL1 9637  24.689  10.432   9.249
  443POPC   GL2 9638  24.670  10.775   9.207
  443POPC   C1A 9639  24.472  10.542   8.812
  443POPC   D2A 9640  24.408  10.605   8.380
  443POPC   C3A 9641  24.538  10.249   8.107
  443POPC   C4A 9642  24.459  10.263   7.663
  443POPC   C1B 9643  24.728  11.008   8.758
  443POPC   C2B 9644  24.803  10.945   8.313
  443POPC   C3B 9645  24.692  10.703   7.948
  443POPC   C4B 9646  24.475  10.766   7.586
  444POPC   NC3 9647  27.670  19.487   9.502
  444POPC   PO4 9648  27.273  20.063   9.638
  444POPC   GL1 9649  27.480  19.943   9.232
  444POPC   GL2 9650  27.763  19.793   9.124
  444POPC   C1A 9651  27.454  19.967   8.763
  444POPC   D2A 9652  27.403  19.666   8.410
  444POPC   C3A 9653  27.395  19.847   7.980
  444POPC   C4A 9654  27.704  20.119   7.800
  444POPC   C1B 9655  27.850  19.654   8.726
  444POPC   C2B 9656  27.920  19.540   8.337
  444POPC   C3B 9657  27.670  19.398   8.042
  444POPC   C4B 9658  27.760  19.615   7.695
  445POPC   NC3 9659  16.353  22.199   9.372
  445POPC   PO4 9660  16.949  22.401   9.448
  445POPC   GL1 9661  16.750  22.091   9.066
  445POPC   GL2 9662  16.385  21.837   9.030
  445POPC   C1A 9663  16.573  22.167   8.669
  445POPC   D2A 9664  16.489  22.285   8.247
  445POPC   C3A 9665  16.831  22.206   7.966
  445POPC   C4A 9666  16.767  22.380   7.597
  445POPC   C1B 9667  16.565  21.641   8.682
  445POPC   C2B 9668  16.726  21.797   8.330
  445POPC   C3B 9669  16.524  21.819   7.981
  445POPC   C4B 9670  16.627  21.825   7.585
  446POPC   NC3 9671  40.789  25.357   9.489
  446POPC   PO4 9672  40.826  24.725   9.344
  446POPC   GL1 9673  40.633  25.032   9.111
  446POPC   GL2 9674  40.919  25.213   8.989
  446POPC   C1A 9675  40.477  25.117   8.699
  446POPC   D2A 9676  40.825  25.093   8.428
  446POPC   C3A 9677  40.847  25.269   8.037
  446POPC   C4A 9678  40.762  25.052   7.674
  446POPC   C1B 9679  40.782  25.541   8.688
  446POPC   C2B 9680  40.773  25.754   8.273
  446POPC   C3B 9681  40.711  25.714   7.832
  446POPC   C4B 9682  40.710  25.492   7.451
  447POPC   NC3 9683  23.125  22.674   9.692
  447POPC   PO4 9684  22.539  22.507   9.364
  447POPC   GL1 9685  22.788  22.729   9.034
  447POPC   GL2 9686  22.970  22.987   9.090
  447POPC   C1A 9687  23.124  22.727   8.687
  447POPC   D2A 9688  23.133  22.463   8.330
  447POPC   C3A 9689  22.951  22.649   7.985
  447POPC   C4A 9690  23.161  22.930   7.797
  447POPC   C1B 9691  22.868  23.167   8.703
  447POPC   C2B 9692  22.958  23.090   8.294
  447POPC   C3B 9693  22.754  23.170   7.958
  447POPC   C4B 9694  22.624  22.970   7.655
  448POPC   NC3 9695  35.587  21.932   9.891
  448POPC   PO4 9696  35.258  22.302   9.485
  448POPC   GL1 9697  35.264  22.295   9.054
  448POPC   GL2 9698  35.377  21.958   9.063
  448POPC   C1A 9699  35.181  22.086   8.629
  448POPC   D2A 9700  35.338  21.895   8.258
  448POPC   C3A 9701  35.281  22.151   7.898
  448POPC   C4A 9702  35.028  22.164   7.539
  448POPC   C1B 9703  35.685  22.059   8.741
  448POPC   C2B 9704  35.833  22.019   8.384
  448POPC   C3B 9705  35.769  22.159   8.020
  448POPC   C4B 9706  35.749  22.027   7.654
  449POPC   NC3 9707  24.354  33.405   9.538
  449POPC   PO4 9708  24.591  34.022   9.629
  449POPC   GL1 9709  24.481  33.867   9.227
  449POPC   GL2 9710  24.683  34.136   9.089
  449POPC   C1A 9711  24.546  33.706   8.770
  449POPC   D2A 9712  24.494  33.447   8.368
  449POPC   C3A 9713  24.521  33.637   7.933
  449POPC   C4A 9714  24.456  33.952   7.551
  449POPC   C1B 9715  24.896  34.071   8.714
  449POPC   C2B 9716  24.836  33.856   8.318
  449POPC   C3B 9717  24.793  34.072   7.934
  449POPC   C4B 9718  24.924  34.221   7.559
  450POPC   NC3 9719  13.269  21.551   9.196
  450POPC   PO4 9720  12.985  22.093   9.549
  450POPC   GL1 9721  12.809  22.149   9.135
  450POPC   GL2 9722  13.131  22.058   9.033
  450POPC   C1A 9723  12.706  22.269   8.705
  450POPC   D2A 9724  12.613  22.063   8.285
  450POPC   C3A 9725  12.911  22.222   7.989
  450POPC   C4A 9726  12.767  22.517   7.700
  450POPC   C1B 9727  13.298  22.396   8.763
  450POPC   C2B 9728  13.314  22.413   8.330
  450POPC   C3B 9729  13.325  22.522   7.899
  450POPC   C4B 9730  13.217  22.354   7.540
  451POPC   NC3 9731  19.602   6.949   9.519
  451POPC   PO4 9732  20.175   6.475   9.467
  451POPC   GL1 9733  19.998   6.800   9.202
  451POPC   GL2 9734  19.662   6.712   9.085
  451POPC   C1A 9735  20.057   6.859   8.790
  451POPC   D2A 9736  20.007   6.597   8.449
  451POPC   C3A 9737  19.935   6.759   8.048
  451POPC   C4A 9738  20.094   6.567   7.683
  451POPC   C1B 9739  19.411   6.602   8.742
  451POPC   C2B 9740  19.523   6.542   8.314
  451POPC   C3B 9741  19.536   6.404   7.902
  451POPC   C4B 9742  19.519   6.361   7.445
  452POPC   NC3 9743  41.897  10.903   9.418
  452POPC   PO4 9744  42.279  10.291   9.494
  452POPC   GL1 9745  42.046  10.465   9.185
  452POPC   GL2 9746  42.318  10.688   9.104
  452POPC   C1A 9747  41.939  10.614   8.777
  452POPC   D2A 9748  42.181  10.560   8.377
  452POPC   C3A 9749  41.938  10.421   8.029
  452POPC   C4A 9750  41.773  10.671   7.721
  452POPC   C1B 9751  42.370  10.329   8.805
  452POPC   C2B 9752  42.643  10.260   8.438
  452POPC   C3B 9753  42.622  10.433   8.019
  452POPC   C4B 9754  42.284  10.748   7.858
  453POPC   NC3 9755  37.482  39.851   9.507
  453POPC   PO4 9756  37.620  40.493   9.445
  453POPC   GL1 9757  37.849  40.188   9.217
  453POPC   GL2 9758  37.629  39.966   9.038
  453POPC   C1A 9759  38.030  40.158   8.813
  453POPC   D2A 9760  37.756  40.011   8.497
  453POPC   C3A 9761  37.894  39.985   8.095
  453POPC   C4A 9762  37.684  39.806   7.765
  453POPC   C1B 9763  37.550  40.362   8.796
  453POPC   C2B 9764  37.451  40.430   8.390
  453POPC   C3B 9765  37.413  40.164   8.030
  453POPC   C4B 9766  37.688  40.347   7.781
  454POPC   NC3 9767  32.206  30.860   9.422
  454POPC   PO4 9768  32.506  30.296   9.321
  454POPC   GL1 9769  32.219  30.454   9.015
  454POPC   GL2 9770  31.901  30.503   9.156
  454POPC   C1A 9771  32.292  30.567   8.580
  454POPC   D2A 9772  32.340  30.946   8.329
  454POPC   C3A 9773  32.429  30.956   7.871
  454POPC   C4A 9774  32.727  30.996   7.504
  454POPC   C1B 9775  31.855  30.782   8.783
  454POPC   C2B 9776  31.878  30.727   8.320
  454POPC   C3B 9777  31.997  30.673   7.881
  454POPC   C4B 9778  31.907  30.510   7.464
  455POPC   NC3 9779  13.932   6.968   9.657
  455POPC   PO4 9780  13.719   6.359   9.535
  455POPC   GL1 9781  13.629   6.683   9.209
  455POPC   GL2 9782  13.249   6.723   9.174
  455POPC   C1A 9783  13.817   6.846   8.789
  455POPC   D2A 9784  13.637   6.835   8.352
  455POPC   C3A 9785  13.767   6.584   7.957
  455POPC   C4A 9786  13.881   6.832   7.525
  455POPC   C1B 9787  13.358   6.555   8.769
  455POPC   C2B 9788  13.182   6.643   8.368
  455POPC   C3B 9789  13.303   6.760   7.941
  455POPC   C4B 9790  13.439   6.441   7.590
  456POPC   NC3 9791  14.210  41.469  10.308
  456POPC   PO4 9792  14.157  41.313   9.623
  456POPC   GL1 9793  14.345  41.419   9.184
  456POPC   GL2 9794  14.072  41.517   8.965
  456POPC   C1A 9795  14.537  41.517   8.741
  456POPC   D2A 9796  14.406  41.608   8.292
  456POPC   C3A 9797  14.577  41.529   7.882
  456POPC   C4A 9798  14.522  41.341   7.484
  456POPC   C1B 9799  14.125  41.232   8.610
  456POPC   C2B 9800  14.132  41.168   8.160
  456POPC   C3B 9801  14.065  41.527   7.879
  456POPC   C4B 9802  14.268  41.898   7.667
  457POPC   NC3 9803   7.580  12.535   9.457
  457POPC   PO4 9804   7.502  13.200   9.466
  457POPC   GL1 9805   7.423  12.961   9.105
  457POPC   GL2 9806   7.150  12.717   9.152
  457POPC   C1A 9807   7.360  12.996   8.636
  457POPC   D2A 9808   7.622  12.979   8.263
  457POPC   C3A 9809   7.390  13.016   7.866
  457POPC   C4A 9810   7.519  13.177   7.457
  457POPC   C1B 9811   7.434  12.543   8.822
  457POPC   C2B 9812   7.493  12.503   8.399
  457POPC   C3B 9813   7.575  12.561   7.960
  457POPC   C4B 9814   7.504  12.659   7.498
  458POPC   NC3 9815  14.294  17.393   9.472
  458POPC   PO4 9816  14.886  17.613   9.340
  458POPC   GL1 9817  14.523  17.605   9.076
  458POPC   GL2 9818  14.396  17.257   8.986
  458POPC   C1A 9819  14.512  17.719   8.673
  458POPC   D2A 9820  14.284  17.823   8.328
  458POPC   C3A 9821  14.450  17.608   8.020
  458POPC   C4A 9822  14.672  17.743   7.700
  458POPC   C1B 9823  14.352  16.969   8.614
  458POPC   C2B 9824  14.427  16.954   8.123
  458POPC   C3B 9825  14.480  17.187   7.707
  458POPC   C4B 9826  14.518  17.353   7.287
  459POPC   NC3 9827  41.276  24.667   9.430
  459POPC   PO4 9828  41.924  24.342   9.481
  459POPC   GL1 9829  41.711  24.558   9.146
  459POPC   GL2 9830  41.466  24.329   9.084
  459POPC   C1A 9831  41.593  24.768   8.753
  459POPC   D2A 9832  41.268  24.812   8.459
  459POPC   C3A 9833  41.457  24.740   8.092
  459POPC   C4A 9834  41.574  24.567   7.714
  459POPC   C1B 9835  41.230  24.183   8.718
  459POPC   C2B 9836  41.009  24.365   8.367
  459POPC   C3B 9837  41.173  24.328   7.941
  459POPC   C4B 9838  41.308  24.165   7.562
  460POPC   NC3 9839  21.913   1.632   9.533
  460POPC   PO4 9840  22.333   1.179   9.676
  460POPC   GL1 9841  22.120   1.237   9.259
  460POPC   GL2 9842  22.338   1.500   9.214
  460POPC   C1A 9843  21.953   1.510   8.865
  460POPC   D2A 9844  22.017   1.495   8.401
  460POPC   C3A 9845  21.994   1.067   8.266
  460POPC   C4A 9846  21.995   0.858   7.853
  460POPC   C1B 9847  22.421   1.255   8.819
  460POPC   C2B 9848  22.516   1.407   8.392
  460POPC   C3B 9849  22.403   1.236   8.018
  460POPC   C4B 9850  22.437   1.426   7.639
  461POPC   NC3 9851   6.479  37.926   9.550
  461POPC   PO4 9852   6.276  37.326   9.559
  461POPC   GL1 9853   6.497  37.395   9.143
  461POPC   GL2 9854   6.617  37.728   9.112
  461POPC   C1A 9855   6.818  37.397   8.797
  461POPC   D2A 9856   6.945  37.594   8.401
  461POPC   C3A 9857   6.747  37.415   8.051
  461POPC   C4A 9858   6.436  37.535   7.752
  461POPC   C1B 9859   6.720  37.920   8.730
  461POPC   C2B 9860   6.729  38.097   8.308
  461POPC   C3B 9861   6.680  37.975   7.872
  461POPC   C4B 9862   6.528  37.932   7.425
  462POPC   NC3 9863  42.876  15.490   9.433
  462POPC   PO4 9864  42.376  15.115   9.719
  462POPC   GL1 9865  42.384  15.424   9.288
  462POPC   GL2 9866  42.100  15.314   9.013
  462POPC   C1A 9867  42.518  15.541   8.852
  462POPC   D2A 9868  42.187  15.469   8.525
  462POPC   C3A 9869  42.156  15.570   8.072
  462POPC   C4A 9870  42.291  15.317   7.721
  462POPC   C1B 9871  42.200  14.969   8.642
  462POPC   C2B 9872  42.362  14.883   8.218
  462POPC   C3B 9873  42.161  14.830   7.792
  462POPC   C4B 9874  42.087  15.004   7.346
  463POPC   NC3 9875  24.173   8.801   9.559
  463POPC   PO4 9876  23.594   9.080   9.583
  463POPC   GL1 9877  23.783   8.879   9.227
  463POPC   GL2 9878  24.073   9.084   9.147
  463POPC   C1A 9879  23.632   8.889   8.821
  463POPC   D2A 9880  23.543   9.124   8.479
  463POPC   C3A 9881  23.652   9.030   8.080
  463POPC   C4A 9882  23.597   9.205   7.690
  463POPC   C1B 9883  24.161   8.835   8.784
  463POPC   C2B 9884  24.393   8.903   8.380
  463POPC   C3B 9885  24.175   9.018   8.017
  463POPC   C4B 9886  23.951   8.823   7.702
  464POPC   NC3 9887  31.983  33.909   9.463
  464POPC   PO4 9888  32.557  33.497   9.441
  464POPC   GL1 9889  32.324  33.712   9.125
  464POPC   GL2 9890  32.416  34.028   9.137
  464POPC   C1A 9891  32.105  33.615   8.732
  464POPC   D2A 9892  32.271  33.542   8.320
  464POPC   C3A 9893  32.122  33.633   7.892
  464POPC   C4A 9894  32.389  33.813   7.548
  464POPC   C1B 9895  32.256  34.119   8.776
  464POPC   C2B 9896  32.478  33.988   8.420
  464POPC   C3B 9897  32.410  34.057   8.008
  464POPC   C4B 9898  31.997  34.152   7.891
  465POPC   NC3 9899  23.991  42.199   9.363
  465POPC   PO4 9900  24.537  42.212   9.669
  465POPC   GL1 9901  24.512  42.317   9.212
  465POPC   GL2 9902  24.732  42.013   9.181
  465POPC   C1A 9903  24.348  42.519   8.771
  465POPC   D2A 9904  24.446  42.384   8.284
  465POPC   C3A 9905  24.297  42.289   7.832
  465POPC   C4A 9906  24.180  42.525   7.438
  465POPC   C1B 9907  24.981  42.028   8.844
  465POPC   C2B 9908  24.707  42.008   8.508
  465POPC   C3B 9909  24.655  41.907   8.111
  465POPC   C4B 9910  24.751  42.074   7.743
  466POPC   NC3 9911  17.965  23.321   9.476
  466POPC   PO4 9912  17.977  23.994   9.333
  466POPC   GL1 9913  18.057  23.719   9.028
  466POPC   GL2 9914  18.395  23.831   8.997
  466POPC   C1A 9915  18.126  23.749   8.570
  466POPC   D2A 9916  18.248  24.037   8.237
  466POPC   C3A 9917  18.147  23.833   7.859
  466POPC   C4A 9918  18.379  23.762   7.468
  466POPC   C1B 9919  18.397  23.393   8.856
  466POPC   C2B 9920  18.528  23.319   8.456
  466POPC   C3B 9921  18.537  23.533   8.065
  466POPC   C4B 9922  18.804  23.626   7.736
  467POPC   NC3 9923  40.802  34.895   9.422
  467POPC   PO4 9924  40.814  34.180   9.529
  467POPC   GL1 9925  40.995  34.459   9.204
  467POPC   GL2 9926  40.679  34.552   9.011
  467POPC   C1A 9927  41.130  34.651   8.806
  467POPC   D2A 9928  40.944  34.430   8.472
  467POPC   C3A 9929  41.137  34.497   8.118
  467POPC   C4A 9930  41.185  34.389   7.732
  467POPC   C1B 9931  40.415  34.396   8.650
  467POPC   C2B 9932  40.468  34.463   8.200
  467POPC   C3B 9933  40.718  34.632   7.854
  467POPC   C4B 9934  40.785  34.801   7.430
  468POPC   NC3 9935  42.128   8.441   9.349
  468POPC   PO4 9936  42.701   8.034   9.343
  468POPC   GL1 9937  42.381   8.090   9.077
  468POPC   GL2 9938  42.471   8.461   8.976
  468POPC   C1A 9939  42.415   7.986   8.677
  468POPC   D2A 9940  42.542   8.198   8.327
  468POPC   C3A 9941  42.366   8.023   7.957
  468POPC   C4A 9942  42.209   7.859   7.567
  468POPC   C1B 9943  42.131   8.382   8.680
  468POPC   C2B 9944  42.091   8.435   8.256
  468POPC   C3B 9945  42.362   8.528   7.919
  468POPC   C4B 9946  42.431   8.321   7.540
  469POPC   NC3 9947  34.542  34.073   9.478
  469POPC   PO4 9948  34.401  33.387   9.503
  469POPC   GL1 9949  34.651  33.646   9.164
  469POPC   GL2 9950  34.786  33.991   9.044
  469POPC   C1A 9951  34.817  33.568   8.746
  469POPC   D2A 9952  34.625  33.637   8.357
  469POPC   C3A 9953  34.828  33.836   8.027
  469POPC   C4A 9954  34.840  33.453   7.815
  469POPC   C1B 9955  34.407  33.867   8.775
  469POPC   C2B 9956  34.213  33.944   8.360
  469POPC   C3B 9957  34.345  33.879   7.923
  469POPC   C4B 9958  34.645  33.983   7.555
  470POPC   NC3 9959   3.752  30.103   9.373
  470POPC   PO4 9960   3.789  29.432   9.638
  470POPC   GL1 9961   3.589  29.577   9.184
  470POPC   GL2 9962   3.414  29.863   9.075
  470POPC   C1A 9963   3.545  29.590   8.696
  470POPC   D2A 9964   3.675  29.619   8.270
  470POPC   C3A 9965   3.422  29.829   7.935
  470POPC   C4A 9966   3.372  30.209   7.712
  470POPC   C1B 9967   3.353  30.130   8.746
  470POPC   C2B 9968   3.488  30.085   8.356
  470POPC   C3B 9969   3.810  30.124   8.067
  470POPC   C4B 9970   3.837  30.432   7.752
  471POPC   NC3 9971   5.175  23.014   9.381
  471POPC   PO4 9972   4.632  22.692   9.618
  471POPC   GL1 9973   4.731  22.837   9.156
  471POPC   GL2 9974   4.866  23.185   9.008
  471POPC   C1A 9975   4.880  22.706   8.736
  471POPC   D2A 9976   4.844  22.557   8.304
  471POPC   C3A 9977   4.896  22.843   7.973
  471POPC   C4A 9978   5.247  22.769   7.737
  471POPC   C1B 9979   5.198  23.130   8.666
  471POPC   C2B 9980   5.432  23.085   8.265
  471POPC   C3B 9981   5.373  23.240   7.839
  471POPC   C4B 9982   5.297  23.231   7.326
  472POPC   NC3 9983  44.988   0.739   9.559
  472POPC   PO4 9984  44.839   1.341   9.519
  472POPC   GL1 9985  44.857   1.221   9.132
  472POPC   GL2 9986  44.498   1.211   9.137
  472POPC   C1A 9987   0.056   1.327   8.726
  472POPC   D2A 9988  44.948   1.098   8.322
  472POPC   C3A 9989  44.968   1.278   7.931
  472POPC   C4A 9990  44.773   1.306   7.547
  472POPC   C1B 9991  44.598   1.120   8.709
  472POPC   C2B 9992  44.390   1.086   8.371
  472POPC   C3B 9993  44.526   1.017   7.994
  472POPC   C4B 9994  44.317   1.100   7.658
  473POPC   NC3 9995  28.490  31.283   9.439
  473POPC   PO4 9996  27.978  31.718   9.613
  473POPC   GL1 9997  28.102  31.553   9.208
  473POPC   GL2 9998  28.000  31.173   9.187
  473POPC   C1A 9999  28.310  31.697   8.822
  473POPC   D2A10000  28.192  31.762   8.363
  473POPC   C3A10001  28.430  31.630   7.991
  473POPC   C4A10002  28.709  31.621   7.612
  473POPC   C1B10003  28.284  31.176   8.847
  473POPC   C2B10004  28.309  31.229   8.429
  473POPC   C3B10005  28.346  31.081   8.024
  473POPC   C4B10006  28.092  31.281   7.759
  474POPC   NC310007  15.839  16.525   9.490
  474POPC   PO410008  15.302  16.443   9.364
  474POPC   GL110009  15.603  16.824   9.148
  474POPC   GL210010  15.968  16.984   9.187
  474POPC   C1A10011  15.714  16.985   8.735
  474POPC   D2A10012  15.878  17.000   8.317
  474POPC   C3A10013  15.759  16.735   7.964
  474POPC   C4A10014  15.841  16.679   7.495
  474POPC   C1B10015  16.225  17.064   8.764
  474POPC   C2B10016  16.405  16.955   8.336
  474POPC   C3B10017  16.263  16.966   7.901
  474POPC   C4B10018  16.259  17.026   7.461
  475POPC   NC310019  29.932   9.176   9.488
  475POPC   PO410020  29.567   8.574   9.276
  475POPC   GL110021  29.795   8.730   8.945
  475POPC   GL210022  30.014   8.970   9.048
  475POPC   C1A10023  29.794   8.958   8.575
  475POPC   D2A10024  29.604   9.277   8.364
  475POPC   C3A10025  29.556   9.139   7.956
  475POPC   C4A10026  29.331   8.907   7.730
  475POPC   C1B10027  30.298   8.890   8.764
  475POPC   C2B10028  30.276   9.094   8.406
  475POPC   C3B10029  30.031   9.083   8.089
  475POPC   C4B10030  29.930   8.844   7.719
  476POPC   NC310031  43.489  10.740   9.404
  476POPC   PO410032  43.939  10.294   9.257
  476POPC   GL110033  43.632  10.450   8.970
  476POPC   GL210034  43.595  10.152   8.848
  476POPC   C1A10035  43.654  10.530   8.499
  476POPC   D2A10036  44.031  10.699   8.261
  476POPC   C3A10037  43.949  10.757   7.834
  476POPC   C4A10038  44.097  10.787   7.440
  476POPC   C1B10039  43.999  10.160   8.635
  476POPC   C2B10040  43.979  10.189   8.225
  476POPC   C3B10041  43.674  10.329   7.936
  476POPC   C4B10042  43.862  10.319   7.535
  477POPC   NC310043   1.050  43.484   9.467
  477POPC   PO410044   1.464  44.019   9.452
  477POPC   GL110045   1.148  43.888   9.153
  477POPC   GL210046   1.382  43.613   9.101
  477POPC   C1A10047   0.958  43.968   8.734
  477POPC   D2A10048   0.939  44.204   8.342
  477POPC   C3A10049   1.079  43.899   8.043
  477POPC   C4A10050   0.973  43.715   7.650
  477POPC   C1B10051   1.501  43.902   8.776
  477POPC   C2B10052   1.436  44.095   8.407
  477POPC   C3B10053   1.592  44.199   8.020
  477POPC   C4B10054   1.466  43.955   7.715
  478POPC   NC310055  18.411  24.208   9.351
  478POPC   PO410056  19.028  24.440   9.429
  478POPC   GL110057  19.104  24.355   9.048
  478POPC   GL210058  19.125  23.990   9.042
  478POPC   C1A10059  19.298  24.578   8.732
  478POPC   D2A10060  19.467  24.450   8.361
  478POPC   C3A10061  19.164  24.413   8.015
  478POPC   C4A10062  19.188  24.606   7.581
  478POPC   C1B10063  19.060  24.148   8.588
  478POPC   C2B10064  18.721  24.316   8.291
  478POPC   C3B10065  18.701  24.167   7.866
  478POPC   C4B10066  19.078  24.113   7.610
  479POPC   NC310067   4.211  22.891   9.616
  479POPC   PO410068   4.570  23.493   9.386
  479POPC   GL110069   4.364  23.197   9.128
  479POPC   GL210070   4.194  22.881   9.120
  479POPC   C1A10071   4.423  23.191   8.690
  479POPC   D2A10072   4.494  22.926   8.336
  479POPC   C3A10073   4.376  23.074   7.932
  479POPC   C4A10074   4.478  22.959   7.494
  479POPC   C1B10075   4.280  22.662   8.733
  479POPC   C2B10076   4.080  22.608   8.331
  479POPC   C3B10077   4.182  22.599   7.884
  479POPC   C4B10078   3.857  22.636   7.565
  480POPC   NC310079  22.507  38.348   9.711
  480POPC   PO410080  21.985  37.946   9.719
  480POPC   GL110081  22.142  38.326   9.342
  480POPC   GL210082  22.518  38.430   9.221
  480POPC   C1A10083  22.173  38.696   8.968
  480POPC   D2A10084  22.205  38.909   8.555
  480POPC   C3A10085  22.123  38.814   8.156
  480POPC   C4A10086  22.331  38.721   7.795
  480POPC   C1B10087  22.299  38.215   8.865
  480POPC   C2B10088  22.180  38.380   8.481
  480POPC   C3B10089  22.185  38.289   8.063
  480POPC   C4B10090  22.298  38.192   7.658
  481POPC   NC310091  14.630  27.381   9.509
  481POPC   PO410092  14.188  27.881   9.476
  481POPC   GL110093  14.291  27.637   9.088
  481POPC   GL210094  14.349  27.316   9.085
  481POPC   C1A10095  14.211  27.558   8.641
  481POPC   D2A10096  14.553  27.602   8.376
  481POPC   C3A10097  14.622  27.719   7.988
  481POPC   C4A10098  14.689  27.617   7.609
  481POPC   C1B10099  14.114  27.072   8.765
  481POPC   C2B10100  13.910  27.215   8.375
  481POPC   C3B10101  14.047  27.585   8.143
  481POPC   C4B10102  14.181  27.600   7.734
  482POPC   NC310103  38.929  20.622   9.343
  482POPC   PO410104  38.273  20.484   9.459
  482POPC   GL110105  38.270  20.420   9.019
  482POPC   GL210106  38.520  20.676   9.014
  482POPC   C1A10107  38.499  20.349   8.599
  482POPC   D2A10108  38.858  20.477   8.303
  482POPC   C3A10109  38.677  20.593   7.900
  482POPC   C4A10110  38.741  20.525   7.445
  482POPC   C1B10111  38.249  20.806   8.680
  482POPC   C2B10112  38.235  20.782   8.271
  482POPC   C3B10113  38.280  20.896   7.881
  482POPC   C4B10114  38.276  20.716   7.489
  483POPC   NC310115  18.469   0.239   9.617
  483POPC   PO410116  17.927   0.638   9.553
  483POPC   GL110117  18.268   0.594   9.246
  483POPC   GL210118  18.309   0.236   9.112
  483POPC   C1A10119  18.429   0.647   8.821
  483POPC   D2A10120  18.325   0.346   8.474
  483POPC   C3A10121  18.188   0.495   8.066
  483POPC   C4A10122  18.125   0.439   7.626
  483POPC   C1B10123  18.591   0.040   8.799
  483POPC   C2B10124  18.737   0.069   8.331
  483POPC   C3B10125  18.590   0.227   7.907
  483POPC   C4B10126  18.485   0.085   7.471
  484POPC   NC310127  43.257  11.513   9.395
  484POPC   PO410128  43.100  10.834   9.181
  484POPC   GL110129  42.914  11.251   9.079
  484POPC   GL210130  43.172  11.486   8.907
  484POPC   C1A10131  42.755  11.317   8.656
  484POPC   D2A10132  42.986  11.194   8.274
  484POPC   C3A10133  42.921  11.474   7.946
  484POPC   C4A10134  42.754  11.524   7.539
  484POPC   C1B10135  43.178  11.629   8.490
  484POPC   C2B10136  43.425  11.514   8.113
  484POPC   C3B10137  43.357  11.605   7.688
  484POPC   C4B10138  43.461  11.462   7.263
  485POPC   NC310139   3.434  39.517   9.846
  485POPC   PO410140   3.797  39.323   9.384
  485POPC   GL110141   3.551  39.064   9.123
  485POPC   GL210142   3.660  39.263   8.853
  485POPC   C1A10143   3.218  39.015   8.802
  485POPC   D2A10144   3.202  38.893   8.376
  485POPC   C3A10145   3.314  39.137   8.001
  485POPC   C4A10146   3.366  39.007   7.576
  485POPC   C1B10147   3.760  38.902   8.605
  485POPC   C2B10148   3.779  38.940   8.158
  485POPC   C3B10149   3.807  39.140   7.769
  485POPC   C4B10150   3.780  39.590   7.697
  486POPC   NC310151  10.703  28.740   9.853
  486POPC   PO410152  10.225  28.463   9.501
  486POPC   GL110153  10.401  28.259   9.092
  486POPC   GL210154  10.082  28.063   9.031
  486POPC   C1A10155  10.630  28.371   8.710
  486POPC   D2A10156  10.593  28.673   8.380
  486POPC   C3A10157  10.772  28.534   7.963
  486POPC   C4A10158  10.616  28.383   7.574
  486POPC   C1B10159  10.192  28.136   8.599
  486POPC   C2B10160  10.425  28.226   8.228
  486POPC   C3B10161  10.300  28.111   7.839
  486POPC   C4B10162   9.926  28.043   7.675
  487POPC   NC310163  10.554  25.733   9.375
  487POPC   PO410164  10.224  26.339   9.652
  487POPC   GL110165  10.364  26.208   9.228
  487POPC   GL210166  10.496  26.510   9.124
  487POPC   C1A10167  10.675  26.137   8.843
  487POPC   D2A10168  10.721  26.075   8.393
  487POPC   C3A10169  10.737  26.072   7.926
  487POPC   C4A10170  10.819  25.997   7.436
  487POPC   C1B10171  10.234  26.406   8.768
  487POPC   C2B10172  10.176  26.163   8.422
  487POPC   C3B10173  10.268  26.263   8.035
  487POPC   C4B10174  10.367  26.192   7.609
  488POPC   NC310175  36.835  28.534   9.558
  488POPC   PO410176  37.507  28.681   9.513
  488POPC   GL110177  37.285  28.528   9.165
  488POPC   GL210178  37.191  28.202   9.111
  488POPC   C1A10179  37.344  28.557   8.710
  488POPC   D2A10180  37.050  28.415   8.375
  488POPC   C3A10181  37.113  28.320   7.931
  488POPC   C4A10182  36.890  28.578   7.614
  488POPC   C1B10183  36.841  28.218   8.798
  488POPC   C2B10184  36.655  28.063   8.358
  488POPC   C3B10185  36.576  28.208   7.875
  488POPC   C4B10186  36.565  28.246   7.388
  489POPC   NC310187  24.463  38.044   9.500
  489POPC   PO410188  24.329  37.426   9.326
  489POPC   GL110189  24.698  37.432   9.137
  489POPC   GL210190  24.678  37.780   9.122
  489POPC   C1A10191  24.716  37.443   8.706
  489POPC   D2A10192  24.620  37.302   8.286
  489POPC   C3A10193  24.367  37.554   7.984
  489POPC   C4A10194  24.223  37.548   7.581
  489POPC   C1B10195  24.491  37.915   8.782
  489POPC   C2B10196  24.402  37.781   8.423
  489POPC   C3B10197  24.119  37.967   8.129
  489POPC   C4B10198  24.163  38.089   7.724
  490POPC   NC310199  17.197  32.332   9.563
  490POPC   PO410200  17.883  32.528   9.538
  490POPC   GL110201  17.645  32.165   9.213
  490POPC   GL210202  17.278  32.118   9.127
  490POPC   C1A10203  17.545  32.068   8.720
  490POPC   D2A10204  17.493  32.362   8.345
  490POPC   C3A10205  17.650  32.221   7.944
  490POPC   C4A10206  17.485  31.869   7.778
  490POPC   C1B10207  17.167  32.391   8.804
  490POPC   C2B10208  17.047  32.155   8.465
  490POPC   C3B10209  17.112  32.106   8.041
  490POPC   C4B10210  17.247  32.446   7.777
  491POPC   NC310211  30.988  19.265   9.467
  491POPC   PO410212  31.715  18.986   9.600
  491POPC   GL110213  31.429  19.022   9.322
  491POPC   GL210214  31.479  19.336   9.236
  491POPC   C1A10215  31.296  18.967   8.935
  491POPC   D2A10216  31.315  19.026   8.508
  491POPC   C3A10217  31.429  18.772   8.171
  491POPC   C4A10218  31.426  18.724   7.729
  491POPC   C1B10219  31.541  19.426   8.825
  491POPC   C2B10220  31.462  19.506   8.423
  491POPC   C3B10221  31.290  19.296   8.066
  491POPC   C4B10222  31.273  19.503   7.666
  492POPC   NC310223  19.608  41.163   9.426
  492POPC   PO410224  20.017  41.683   9.473
  492POPC   GL110225  20.023  41.517   9.058
  492POPC   GL210226  20.186  41.209   8.853
  492POPC   C1A10227  19.884  41.581   8.669
  492POPC   D2A10228  20.028  41.386   8.341
  492POPC   C3A10229  19.864  41.513   7.976
  492POPC   C4A10230  20.162  41.505   7.685
  492POPC   C1B10231  19.816  41.059   8.691
  492POPC   C2B10232  19.531  41.207   8.439
  492POPC   C3B10233  19.361  41.162   8.045
  492POPC   C4B10234  19.463  41.379   7.680
  493POPC   NC310235  24.820  14.722   9.696
  493POPC   PO410236  24.929  15.375   9.546
  493POPC   GL110237  24.526  15.303   9.239
  493POPC   GL210238  24.407  14.954   9.217
  493POPC   C1A10239  24.453  15.409   8.784
  493POPC   D2A10240  24.581  15.261   8.330
  493POPC   C3A10241  24.690  15.358   7.866
  493POPC   C4A10242  24.449  15.388   7.466
  493POPC   C1B10243  24.284  14.948   8.774
  493POPC   C2B10244  24.083  15.102   8.367
  493POPC   C3B10245  24.292  15.064   7.956
  493POPC   C4B10246  24.688  14.834   7.848
  494POPC   NC310247   6.098  32.254   9.533
  494POPC   PO410248   5.475  32.383   9.598
  494POPC   GL110249   5.651  32.450   9.185
  494POPC   GL210250   5.982  32.283   9.048
  494POPC   C1A10251   5.632  32.514   8.753
  494POPC   D2A10252   5.752  32.396   8.339
  494POPC   C3A10253   5.616  32.604   7.977
  494POPC   C4A10254   5.862  32.448   7.624
  494POPC   C1B10255   5.859  32.047   8.686
  494POPC   C2B10256   5.930  31.847   8.304
  494POPC   C3B10257   6.262  31.804   8.065
  494POPC   C4B10258   6.466  32.087   7.817
  495POPC   NC310259  40.509  38.830   9.375
  495POPC   PO410260  41.163  38.999   9.459
  495POPC   GL110261  40.925  39.105   9.024
  495POPC   GL210262  40.617  38.934   8.887
  495POPC   C1A10263  40.792  39.356   8.649
  495POPC   D2A10264  40.733  39.322   8.191
  495POPC   C3A10265  41.007  39.458   7.834
  495POPC   C4A10266  40.841  39.632   7.404
  495POPC   C1B10267  40.913  38.834   8.549
  495POPC   C2B10268  41.053  38.915   8.122
  495POPC   C3B10269  40.777  39.003   7.770
  495POPC   C4B10270  40.740  38.825   7.373
  496POPC   NC310271  11.022  37.480   9.560
  496POPC   PO410272  11.671  37.758   9.453
  496POPC   GL110273  11.442  37.543   9.163
  496POPC   GL210274  11.144  37.723   9.152
  496POPC   C1A10275  11.435  37.616   8.736
  496POPC   D2A10276  11.196  37.730   8.385
  496POPC   C3A10277  11.501  37.698   8.062
  496POPC   C4A10278  11.420  37.648   7.639
  496POPC   C1B10279  10.900  37.613   8.800
  496POPC   C2B10280  10.664  37.738   8.456
  496POPC   C3B10281  10.789  37.688   8.063
  496POPC   C4B10282  10.940  37.572   7.693
  497POPC   NC310283  21.209   2.948   9.522
  497POPC   PO410284  21.844   2.756   9.508
  497POPC   GL110285  21.524   2.753   9.193
  497POPC   GL210286  21.590   3.087   9.147
  497POPC   C1A10287  21.246   2.663   8.870
  497POPC   D2A10288  21.317   2.566   8.449
  497POPC   C3A10289  21.060   2.544   8.101
  497POPC   C4A10290  21.233   2.627   7.719
  497POPC   C1B10291  21.437   3.148   8.745
  497POPC   C2B10292  21.247   3.059   8.351
  497POPC   C3B10293  21.279   3.117   7.911
  497POPC   C4B10294  21.155   3.070   7.478
  498POPC   NC310295  38.163  25.782   9.267
  498POPC   PO410296  37.707  25.344   9.526
  498POPC   GL110297  37.627  25.220   9.123
  498POPC   GL210298  37.943  25.307   9.078
  498POPC   C1A10299  37.487  24.936   8.805
  498POPC   D2A10300  37.738  25.125   8.468
  498POPC   C3A10301  37.627  25.215   8.056
  498POPC   C4A10302  37.608  25.442   7.718
  498POPC   C1B10303  38.149  25.310   8.701
  498POPC   C2B10304  38.115  25.417   8.263
  498POPC   C3B10305  37.984  25.721   7.962
  498POPC   C4B10306  38.000  25.704   7.511
  499POPC   NC310307   1.233   4.688   9.744
  499POPC   PO410308   1.059   4.178   9.397
  499POPC   GL110309   1.225   4.496   9.165
  499POPC   GL210310   1.574   4.404   9.228
  499POPC   C1A10311   1.042   4.478   8.757
  499POPC   D2A10312   1.020   4.075   8.537
  499POPC   C3A10313   0.974   4.235   8.141
  499POPC   C4A10314   1.141   4.587   7.989
  499POPC   C1B10315   1.533   4.267   8.794
  499POPC   C2B10316   1.472   4.469   8.399
  499POPC   C3B10317   1.600   4.361   7.992
  499POPC   C4B10318   1.494   4.211   7.599
  500POPC   NC310319   7.132   1.351   9.544
  500POPC   PO410320   7.757   1.073   9.628
  500POPC   GL110321   7.664   0.971   9.188
  500POPC   GL210322   7.337   1.140   9.108
  500POPC   C1A10323   7.735   1.083   8.752
  500POPC   D2A10324   7.663   1.273   8.346
  500POPC   C3A10325   7.495   1.066   7.991
  500POPC   C4A10326   7.675   1.119   7.604
  500POPC   C1B10327   7.395   1.491   8.824
  500POPC   C2B10328   7.262   1.586   8.408
  500POPC   C3B10329   7.368   1.554   7.995
  500POPC   C4B10330   7.233   1.341   7.575
  501POPC   NC310331  21.040  21.687   9.560
  501POPC   PO410332  21.538  21.257   9.313
  501POPC   GL110333  21.306  21.586   9.067
  501POPC   GL210334  20.926  21.593   9.078
  501POPC   C1A10335  21.384  21.566   8.612
  501POPC   D2A10336  21.290  21.167   8.397
  501POPC   C3A10337  21.457  21.116   7.990
  501POPC   C4A10338  21.670  21.444   7.783
  501POPC   C1B10339  20.883  21.553   8.631
  501POPC   C2B10340  20.975  21.535   8.195
  501POPC   C3B10341  21.171  21.489   7.799
  501POPC   C4B10342  21.057  21.537   7.347
  502POPC   NC310343  19.574  17.228   9.424
  502POPC   PO410344  19.097  17.793   9.383
  502POPC   GL110345  19.057  17.531   9.034
  502POPC   GL210346  19.357  17.653   8.950
  502POPC   C1A10347  18.987  17.595   8.557
  502POPC   D2A10348  19.150  17.772   8.140
  502POPC   C3A10349  18.885  17.916   7.838
  502POPC   C4A10350  18.648  17.573   7.782
  502POPC   C1B10351  19.507  17.589   8.540
  502POPC   C2B10352  19.304  17.306   8.233
  502POPC   C3B10353  19.211  17.322   7.773
  502POPC   C4B10354  19.449  17.354   7.380
  503POPC   NC310355  44.528   8.609   9.354
  503POPC   PO410356   0.095   9.084   9.537
  503POPC   GL110357  44.873   8.967   9.179
  503POPC   GL210358  44.536   9.093   9.110
  503POPC   C1A10359  44.866   8.777   8.777
  503POPC   D2A10360   0.174   8.707   8.470
  503POPC   C3A10361   0.052   8.574   8.075
  503POPC   C4A10362  44.825   8.848   7.787
  503POPC   C1B10363  44.299   9.283   8.791
  503POPC   C2B10364  44.395   9.106   8.401
  503POPC   C3B10365  44.332   8.890   8.016
  503POPC   C4B10366  44.281   9.121   7.641
  504POPC   NC310367  25.413   3.768   9.504
  504POPC   PO410368  25.149   4.419   9.566
  504POPC   GL110369  25.117   4.294   9.175
  504POPC   GL210370  25.411   4.120   9.133
  504POPC   C1A10371  25.223   4.484   8.786
  504POPC   D2A10372  25.024   4.540   8.410
  504POPC   C3A10373  25.191   4.541   8.030
  504POPC   C4A10374  25.009   4.374   7.718
  504POPC   C1B10375  25.572   4.115   8.731
  504POPC   C2B10376  25.415   4.097   8.297
  504POPC   C3B10377  25.529   4.006   7.847
  504POPC   C4B10378  25.348   4.152   7.419
  505POPC   NC310379  19.988   6.054   9.420
  505POPC   PO410380  19.546   5.630   9.485
  505POPC   GL110381  19.632   5.867   9.120
  505POPC   GL210382  19.524   6.227   9.193
  505POPC   C1A10383  19.739   5.699   8.732
  505POPC   D2A10384  19.625   5.555   8.320
  505POPC   C3A10385  19.929   5.680   8.025
  505POPC   C4A10386  20.087   5.645   7.575
  505POPC   C1B10387  19.812   6.287   8.833
  505POPC   C2B10388  19.857   6.102   8.441
  505POPC   C3B10389  19.993   6.212   8.065
  505POPC   C4B10390  19.832   6.062   7.698
  506POPC   NC310391  42.521   3.334   9.597
  506POPC   PO410392  42.398   4.000   9.478
  506POPC   GL110393  42.324   3.663   9.208
  506POPC   GL210394  42.647   3.591   9.177
  506POPC   C1A10395  42.157   3.619   8.779
  506POPC   D2A10396  41.978   3.929   8.489
  506POPC   C3A10397  41.991   3.859   8.043
  506POPC   C4A10398  41.929   3.468   7.797
  506POPC   C1B10399  42.615   3.853   8.806
  506POPC   C2B10400  42.465   3.794   8.388
  506POPC   C3B10401  42.380   3.528   8.061
  506POPC   C4B10402  42.472   3.519   7.664
  507POPC   NC310403  13.902  15.463   9.624
  507POPC   PO410404  13.257  15.449   9.595
  507POPC   GL110405  13.395  15.177   9.235
  507POPC   GL210406  13.708  15.319   9.181
  507POPC   C1A10407  13.535  15.047   8.789
  507POPC   D2A10408  13.784  14.867   8.420
  507POPC   C3A10409  13.726  15.069   8.026
  507POPC   C4A10410  13.444  15.415   8.034
  507POPC   C1B10411  13.693  15.552   8.828
  507POPC   C2B10412  13.737  15.413   8.440
  507POPC   C3B10413  13.968  15.588   8.095
  507POPC   C4B10414  14.046  15.370   7.741
  508POPC   NC310415  43.192  24.363   9.474
  508POPC   PO410416  42.748  24.905   9.556
  508POPC   GL110417  42.978  24.811   9.104
  508POPC   GL210418  43.336  24.692   9.121
  508POPC   C1A10419  43.043  24.453   8.777
  508POPC   D2A10420  42.948  24.576   8.385
  508POPC   C3A10421  43.172  24.368   8.078
  508POPC   C4A10422  42.973  24.283   7.681
  508POPC   C1B10423  43.323  24.853   8.729
  508POPC   C2B10424  43.437  24.751   8.342
  508POPC   C3B10425  43.191  24.864   8.017
  508POPC   C4B10426  43.192  24.795   7.661
  509POPC   NC310427  38.166   6.323   9.503
  509POPC   PO410428  38.732   6.596   9.427
  509POPC   GL110429  38.452   6.639   9.089
  509POPC   GL210430  38.117   6.697   9.121
  509POPC   C1A10431  38.406   6.775   8.672
  509POPC   D2A10432  38.132   6.704   8.352
  509POPC   C3A10433  38.334   6.830   8.004
  509POPC   C4A10434  38.679   6.669   7.773
  509POPC   C1B10435  38.125   6.359   8.790
  509POPC   C2B10436  38.142   6.188   8.355
  509POPC   C3B10437  38.180   6.342   7.923
  509POPC   C4B10438  38.395   6.300   7.528
  510POPC   NC310439  41.967  17.988   9.394
  510POPC   PO410440  42.566  17.689   9.576
  510POPC   GL110441  42.410  17.615   9.156
  510POPC   GL210442  42.135  17.361   9.116
  510POPC   C1A10443  42.296  17.718   8.737
  510POPC   D2A10444  42.213  17.497   8.359
  510POPC   C3A10445  42.461  17.527   7.997
  510POPC   C4A10446  42.244  17.742   7.702
  510POPC   C1B10447  42.263  17.136   8.738
  510POPC   C2B10448  42.455  17.055   8.325
  510POPC   C3B10449  42.206  17.088   7.937
  510POPC   C4B10450  42.155  17.255   7.494
  511POPC   NC310451  21.807  30.568   9.330
  511POPC   PO410452  21.205  30.568   9.620
  511POPC   GL110453  21.212  30.447   9.159
  511POPC   GL210454  21.426  30.716   9.027
  511POPC   C1A10455  21.087  30.576   8.693
  511POPC   D2A10456  21.443  30.706   8.356
  511POPC   C3A10457  21.395  30.801   7.884
  511POPC   C4A10458  21.210  31.070   7.528
  511POPC   C1B10459  21.556  30.360   8.760
  511POPC   C2B10460  21.754  30.278   8.385
  511POPC   C3B10461  21.651  30.351   7.952
  511POPC   C4B10462  21.943  30.346   7.635
  512POPC   NC310463  44.283  39.911   9.444
  512POPC   PO410464  44.741  40.397   9.497
  512POPC   GL110465  44.645  40.140   9.121
  512POPC   GL210466  44.280  40.258   9.090
  512POPC   C1A10467  44.769  39.971   8.691
  512POPC   D2A10468  44.628  39.732   8.294
  512POPC   C3A10469  44.883  39.868   7.965
  512POPC   C4A10470  44.843  40.222   7.735
  512POPC   C1B10471  44.243  39.977   8.727
  512POPC   C2B10472  44.128  39.968   8.284
  512POPC   C3B10473  44.350  39.966   7.889
  512POPC   C4B10474  44.503  39.881   7.467
  513POPC   NC310475  15.733  37.181   9.424
  513POPC   PO410476  16.339  36.932   9.460
  513POPC   GL110477  16.064  36.834   9.102
  513POPC   GL210478  15.689  36.786   9.094
  513POPC   C1A10479  16.099  37.062   8.737
  513POPC   D2A10480  16.313  37.174   8.389
  513POPC   C3A10481  16.097  36.918   8.135
  513POPC   C4A10482  16.191  36.906   7.742
  513POPC   C1B10483  15.593  37.093   8.752
  513POPC   C2B10484  15.626  37.046   8.300
  513POPC   C3B10485  15.719  37.125   7.851
  513POPC   C4B10486  15.719  37.223   7.390
  514POPC   NC310487  21.008   3.674   9.520
  514POPC   PO410488  21.638   3.562   9.432
  514POPC   GL110489  21.396   3.584   9.090
  514POPC   GL210490  21.158   3.347   9.141
  514POPC   C1A10491  21.524   3.681   8.675
  514POPC   D2A10492  21.614   3.694   8.230
  514POPC   C3A10493  21.251   3.633   7.948
  514POPC   C4A10494  21.288   3.577   7.495
  514POPC   C1B10495  21.021   3.518   8.725
  514POPC   C2B10496  20.873   3.408   8.281
  514POPC   C3B10497  20.838   3.339   7.797
  514POPC   C4B10498  20.753   3.342   7.337
  515POPC   NC310499   5.811   5.350   9.577
  515POPC   PO410500   5.937   4.678   9.654
  515POPC   GL110501   5.849   4.955   9.252
  515POPC   GL210502   6.095   5.203   9.209
  515POPC   C1A10503   5.812   4.947   8.759
  515POPC   D2A10504   6.049   4.923   8.347
  515POPC   C3A10505   5.801   5.112   8.026
  515POPC   C4A10506   5.584   4.795   7.752
  515POPC   C1B10507   6.154   5.325   8.799
  515POPC   C2B10508   6.133   5.424   8.385
  515POPC   C3B10509   6.314   5.244   8.021
  515POPC   C4B10510   6.149   5.305   7.620
  516POPC   NC310511  15.629  30.348   9.786
  516POPC   PO410512  16.017  30.911   9.821
  516POPC   GL110513  15.921  30.721   9.386
  516POPC   GL210514  16.096  30.962   9.176
  516POPC   C1A10515  15.806  30.594   8.926
  516POPC   D2A10516  15.704  30.768   8.489
  516POPC   C3A10517  15.884  30.684   8.071
  516POPC   C4A10518  15.868  30.869   7.649
  516POPC   C1B10519  16.277  31.135   8.801
  516POPC   C2B10520  16.213  30.951   8.393
  516POPC   C3B10521  16.314  30.991   7.963
  516POPC   C4B10522  16.268  31.190   7.593
  517POPC   NC310523  31.564  15.778   9.607
  517POPC   PO410524  32.252  15.941   9.458
  517POPC   GL110525  32.275  15.943   9.046
  517POPC   GL210526  32.181  15.585   9.047
  517POPC   C1A10527  32.215  16.160   8.632
  517POPC   D2A10528  32.277  16.178   8.175
  517POPC   C3A10529  32.028  16.319   7.852
  517POPC   C4A10530  32.064  16.176   7.438
  517POPC   C1B10531  32.281  15.663   8.621
  517POPC   C2B10532  32.321  15.671   8.190
  517POPC   C3B10533  32.203  15.802   7.796
  517POPC   C4B10534  31.999  15.660   7.436
  518POPC   NC310535  10.567  35.202   9.471
  518POPC   PO410536   9.983  34.922   9.392
  518POPC   GL110537  10.331  35.103   9.046
  518POPC   GL210538  10.474  35.467   9.047
  518POPC   C1A10539  10.397  35.234   8.598
  518POPC   D2A10540  10.420  35.642   8.347
  518POPC   C3A10541  10.435  35.440   7.974
  518POPC   C4A10542  10.493  35.473   7.557
  518POPC   C1B10543  10.790  35.536   8.679
  518POPC   C2B10544  10.828  35.331   8.282
  518POPC   C3B10545  10.914  35.309   7.863
  518POPC   C4B10546  10.987  35.618   7.566
  519POPC   NC310547   5.449  44.254   9.807
  519POPC   PO410548   5.014  44.620   9.642
  519POPC   GL110549   4.987  44.748   9.183
  519POPC   GL210550   4.676  44.857   9.095
  519POPC   C1A10551   5.103  44.885   8.724
  519POPC   D2A10552   5.210  44.904   8.264
  519POPC   C3A10553   5.345  44.594   7.943
  519POPC   C4A10554   5.338  44.416   7.512
  519POPC   C1B10555   4.612  44.721   8.638
  519POPC   C2B10556   4.810  44.594   8.241
  519POPC   C3B10557   4.895  44.810   7.850
  519POPC   C4B10558   4.694  44.875   7.465
  520POPC   NC310559  16.018  39.548   9.476
  520POPC   PO410560  15.720  39.134   9.016
  520POPC   GL110561  15.978  39.470   8.965
  520POPC   GL210562  16.312  39.542   9.049
  520POPC   C1A10563  16.184  39.479   8.571
  520POPC   D2A10564  16.025  39.551   8.190
  520POPC   C3A10565  15.775  39.268   7.967
  520POPC   C4A10566  15.828  39.572   7.678
  520POPC   C1B10567  16.384  39.114   8.888
  520POPC   C2B10568  16.438  38.997   8.447
  520POPC   C3B10569  16.309  39.081   8.037
  520POPC   C4B10570  16.084  38.951   7.679
  521POPC   NC310571  11.715  12.795   9.451
  521POPC   PO410572  12.340  12.730   9.320
  521POPC   GL110573  12.062  12.754   9.002
  521POPC   GL210574  11.791  13.000   9.003
  521POPC   C1A10575  12.024  12.838   8.558
  521POPC   D2A10576  11.688  13.046   8.331
  521POPC   C3A10577  11.736  13.178   7.895
  521POPC   C4A10578  12.060  13.024   7.608
  521POPC   C1B10579  11.628  12.585   8.797
  521POPC   C2B10580  11.718  12.470   8.361
  521POPC   C3B10581  11.787  12.670   7.967
  521POPC   C4B10582  11.643  12.700   7.556
  522POPC   NC310583  42.150   5.549   9.568
  522POPC   PO410584  42.224   6.227   9.693
  522POPC   GL110585  42.218   5.891   9.228
  522POPC   GL210586  42.542   5.761   9.214
  522POPC   C1A10587  42.149   5.969   8.756
  522POPC   D2A10588  42.299   6.145   8.351
  522POPC   C3A10589  42.285   5.884   7.981
  522POPC   C4A10590  42.111   5.727   7.598
  522POPC   C1B10591  42.515   5.604   8.804
  522POPC   C2B10592  42.474   5.585   8.373
  522POPC   C3B10593  42.796   5.582   8.060
  522POPC   C4B10594  42.701   5.692   7.681
  523POPC   NC310595   7.040  21.645   9.499
  523POPC   PO410596   6.488  21.289   9.767
  523POPC   GL110597   6.496  21.435   9.259
  523POPC   GL210598   6.786  21.590   9.075
  523POPC   C1A10599   6.417  21.419   8.785
  523POPC   D2A10600   6.452  21.250   8.357
  523POPC   C3A10601   6.489  21.526   7.995
  523POPC   C4A10602   6.641  21.475   7.580
  523POPC   C1B10603   7.006  21.557   8.698
  523POPC   C2B10604   6.928  21.436   8.278
  523POPC   C3B10605   7.001  21.579   7.885
  523POPC   C4B10606   7.078  21.260   7.483
  524POPC   NC310607   3.307  31.435   9.430
  524POPC   PO410608   3.946  31.266   9.526
  524POPC   GL110609   3.902  31.485   9.100
  524POPC   GL210610   3.579  31.646   9.057
  524POPC   C1A10611   3.748  31.486   8.619
  524POPC   D2A10612   3.421  31.628   8.312
  524POPC   C3A10613   3.490  31.743   7.875
  524POPC   C4A10614   3.491  31.644   7.416
  524POPC   C1B10615   3.226  31.496   8.773
  524POPC   C2B10616   3.052  31.294   8.384
  524POPC   C3B10617   3.196  31.287   7.946
  524POPC   C4B10618   3.288  31.197   7.493
  525POPC   NC310619  35.870  13.905   9.383
  525POPC   PO410620  36.205  13.302   9.561
  525POPC   GL110621  36.157  13.530   9.179
  525POPC   GL210622  35.825  13.435   9.123
  525POPC   C1A10623  36.019  13.730   8.759
  525POPC   D2A10624  35.867  13.782   8.347
  525POPC   C3A10625  36.220  13.801   8.100
  525POPC   C4A10626  36.265  13.758   7.678
  525POPC   C1B10627  35.893  13.218   8.757
  525POPC   C2B10628  35.763  13.223   8.329
  525POPC   C3B10629  35.943  13.401   7.959
  525POPC   C4B10630  35.674  13.341   7.641
  526POPC   NC310631  32.529  37.613   9.597
  526POPC   PO410632  31.922  37.587   9.594
  526POPC   GL110633  31.964  37.693   9.159
  526POPC   GL210634  32.278  37.704   9.130
  526POPC   C1A10635  32.052  37.560   8.704
  526POPC   D2A10636  32.007  37.501   8.236
  526POPC   C3A10637  31.963  37.796   7.890
  526POPC   C4A10638  32.109  37.982   7.536
  526POPC   C1B10639  32.440  37.906   8.716
  526POPC   C2B10640  32.389  37.949   8.237
  526POPC   C3B10641  32.469  38.165   7.823
  526POPC   C4B10642  32.539  38.159   7.318
  527POPC   NC310643  42.177   4.695   9.566
  527POPC   PO410644  42.547   5.295   9.533
  527POPC   GL110645  42.384   5.235   9.127
  527POPC   GL210646  42.422   4.914   9.145
  527POPC   C1A10647  42.320   5.166   8.645
  527POPC   D2A10648  42.183   5.176   8.225
  527POPC   C3A10649  42.369   5.366   7.907
  527POPC   C4A10650  42.442   5.098   7.598
  527POPC   C1B10651  42.512   4.715   8.766
  527POPC   C2B10652  42.557   4.737   8.351
  527POPC   C3B10653  42.342   4.744   7.974
  527POPC   C4B10654  42.585   4.545   7.701
  528POPC   NC310655   4.175  34.120   9.722
  528POPC   PO410656   4.554  33.637   9.747
  528POPC   GL110657   4.453  33.726   9.296
  528POPC   GL210658   4.398  34.054   9.219
  528POPC   C1A10659   4.411  33.636   8.836
  528POPC   D2A10660   4.644  33.694   8.430
  528POPC   C3A10661   4.444  33.784   8.060
  528POPC   C4A10662   4.534  33.822   7.637
  528POPC   C1B10663   4.055  34.020   8.903
  528POPC   C2B10664   4.112  33.882   8.472
  528POPC   C3B10665   4.022  34.073   8.068
  528POPC   C4B10666   4.026  33.932   7.658
  529POPC   NC310667  22.439   6.581   9.301
  529POPC   PO410668  21.878   6.151   9.371
  529POPC   GL110669  21.980   6.525   9.083
  529POPC   GL210670  21.945   6.907   9.110
  529POPC   C1A10671  22.226   6.560   8.681
  529POPC   D2A10672  22.390   6.337   8.327
  529POPC   C3A10673  22.264   6.571   7.945
  529POPC   C4A10674  22.000   6.561   7.588
  529POPC   C1B10675  21.769   6.798   8.696
  529POPC   C2B10676  22.002   6.866   8.314
  529POPC   C3B10677  21.929   6.988   7.910
  529POPC   C4B10678  22.261   7.003   7.610
  530POPC   NC310679   4.031  11.735   9.550
  530POPC   PO410680   4.424  12.326   9.482
  530POPC   GL110681   4.205  12.078   9.195
  530POPC   GL210682   4.276  11.714   9.112
  530POPC   C1A10683   4.206  12.156   8.782
  530POPC   D2A10684   4.006  12.407   8.467
  530POPC   C3A10685   3.968  12.175   8.095
  530POPC   C4A10686   4.183  12.167   7.702
  530POPC   C1B10687   4.146  11.625   8.707
  530POPC   C2B10688   4.293  11.872   8.358
  530POPC   C3B10689   4.539  12.102   8.062
  530POPC   C4B10690   4.673  11.970   7.647
  531POPC   NC310691  39.819  11.760   9.431
  531POPC   PO410692  40.378  12.126   9.546
  531POPC   GL110693  40.196  12.230   9.126
  531POPC   GL210694  39.952  11.985   8.994
  531POPC   C1A10695  40.037  12.448   8.769
  531POPC   D2A10696  39.936  12.170   8.438
  531POPC   C3A10697  40.000  12.339   8.026
  531POPC   C4A10698  40.199  12.289   7.619
  531POPC   C1B10699  39.579  11.807   8.776
  531POPC   C2B10700  39.582  11.694   8.353
  531POPC   C3B10701  39.883  11.814   8.060
  531POPC   C4B10702  39.771  11.795   7.670
  532POPC   NC310703  41.754   2.966   9.922
  532POPC   PO410704  41.628   2.441   9.585
  532POPC   GL110705  41.733   2.646   9.129
  532POPC   GL210706  42.000   2.908   9.035
  532POPC   C1A10707  41.674   2.720   8.647
  532POPC   D2A10708  41.847   2.837   8.200
  532POPC   C3A10709  41.677   2.560   7.862
  532POPC   C4A10710  41.796   2.457   7.410
  532POPC   C1B10711  41.901   3.176   8.642
  532POPC   C2B10712  41.661   3.319   8.246
  532POPC   C3B10713  41.478   3.226   7.824
  532POPC   C4B10714  41.623   3.306   7.382
  533POPC   NC310715  41.754  26.294   9.496
  533POPC   PO410716  41.098  26.039   9.598
  533POPC   GL110717  41.385  26.084   9.208
  533POPC   GL210718  41.581  25.822   9.217
  533POPC   C1A10719  41.541  26.191   8.784
  533POPC   D2A10720  41.719  26.092   8.339
  533POPC   C3A10721  41.712  26.324   7.974
  533POPC   C4A10722  41.430  26.182   7.675
  533POPC   C1B10723  41.770  25.715   8.830
  533POPC   C2B10724  41.672  25.593   8.429
  533POPC   C3B10725  41.682  25.699   8.005
  533POPC   C4B10726  41.886  25.918   7.722
  534POPC   NC310727  16.540  11.388   9.707
  534POPC   PO410728  16.920  10.936   9.548
  534POPC   GL110729  16.812  10.966   9.144
  534POPC   GL210730  16.533  11.172   9.223
  534POPC   C1A10731  16.923  11.040   8.725
  534POPC   D2A10732  17.031  11.328   8.396
  534POPC   C3A10733  16.931  11.265   7.951
  534POPC   C4A10734  16.847  11.567   7.636
  534POPC   C1B10735  16.407  11.028   8.825
  534POPC   C2B10736  16.517  11.039   8.381
  534POPC   C3B10737  16.439  11.229   7.985
  534POPC   C4B10738  16.231  11.090   7.670
  535POPC   NC310739   7.695   5.261   9.428
  535POPC   PO410740   8.430   4.984   9.458
  535POPC   GL110741   8.167   5.237   9.176
  535POPC   GL210742   8.468   5.316   9.008
  535POPC   C1A10743   7.889   5.251   8.772
  535POPC   D2A10744   7.653   5.022   8.409
  535POPC   C3A10745   7.790   5.098   7.980
  535POPC   C4A10746   7.994   5.456   7.772
  535POPC   C1B10747   8.347   5.006   8.749
  535POPC   C2B10748   8.174   4.983   8.361
  535POPC   C3B10749   8.325   5.076   7.975
  535POPC   C4B10750   8.138   4.899   7.653
  536POPC   NC310751  24.113  32.604   9.469
  536POPC   PO410752  23.947  33.265   9.406
  536POPC   GL110753  24.289  33.029   9.215
  536POPC   GL210754  24.479  33.299   9.059
  536POPC   C1A10755  24.420  32.788   8.855
  536POPC   D2A10756  24.206  32.660   8.482
  536POPC   C3A10757  24.235  32.830   8.061
  536POPC   C4A10758  24.283  32.955   7.637
  536POPC   C1B10759  24.741  33.158   8.735
  536POPC   C2B10760  24.642  32.944   8.349
  536POPC   C3B10761  24.705  33.093   7.899
  536POPC   C4B10762  24.937  33.208   7.511
  537POPC   NC310763  17.645  42.016   9.470
  537POPC   PO410764  17.387  42.592   9.686
  537POPC   GL110765  17.432  42.567   9.230
  537POPC   GL210766  17.701  42.349   9.075
  537POPC   C1A10767  17.343  42.524   8.763
  537POPC   D2A10768  17.565  42.603   8.371
  537POPC   C3A10769  17.393  42.591   7.950
  537POPC   C4A10770  17.223  42.643   7.523
  537POPC   C1B10771  17.956  42.030   8.826
  537POPC   C2B10772  17.999  42.121   8.392
  537POPC   C3B10773  17.706  42.175   8.070
  537POPC   C4B10774  17.670  41.831   7.826
  538POPC   NC310775  27.044  29.243   9.403
  538POPC   PO410776  26.529  28.770   9.343
  538POPC   GL110777  26.655  29.125   9.115
  538POPC   GL210778  26.509  29.446   9.241
  538POPC   C1A10779  26.941  29.180   8.758
  538POPC   D2A10780  27.162  29.183   8.360
  538POPC   C3A10781  27.070  29.292   7.958
  538POPC   C4A10782  27.069  29.022   7.631
  538POPC   C1B10783  26.481  29.467   8.777
  538POPC   C2B10784  26.630  29.305   8.379
  538POPC   C3B10785  26.442  29.252   8.026
  538POPC   C4B10786  26.623  29.299   7.669
  539POPC   NC310787  41.600  39.327   9.895
  539POPC   PO410788  42.006  39.109   9.397
  539POPC   GL110789  41.684  39.419   9.200
  539POPC   GL210790  41.437  39.176   9.074
  539POPC   C1A10791  41.431  39.587   8.818
  539POPC   D2A10792  41.285  39.225   8.564
  539POPC   C3A10793  41.540  39.106   8.217
  539POPC   C4A10794  41.483  39.221   7.777
  539POPC   C1B10795  41.753  39.072   8.782
  539POPC   C2B10796  41.842  38.748   8.475
  539POPC   C3B10797  41.936  38.795   8.044
  539POPC   C4B10798  42.036  38.979   7.659
  540POPC   NC310799  18.885   9.371   9.621
  540POPC   PO410800  19.274   8.829   9.539
  540POPC   GL110801  19.061   8.829   9.130
  540POPC   GL210802  18.854   9.155   9.119
  540POPC   C1A10803  18.813   8.782   8.732
  540POPC   D2A10804  18.867   8.973   8.311
  540POPC   C3A10805  18.837   8.793   7.890
  540POPC   C4A10806  18.882   8.938   7.449
  540POPC   C1B10807  19.110   9.201   8.722
  540POPC   C2B10808  19.194   9.376   8.304
  540POPC   C3B10809  19.091   9.236   7.931
  540POPC   C4B10810  19.307   9.018   7.689
  541POPC   NC310811   5.658  15.131   9.484
  541POPC   PO410812   5.814  15.689   9.318
  541POPC   GL110813   5.752  15.315   9.023
  541POPC   GL210814   5.436  15.079   9.035
  541POPC   C1A10815   6.024  15.194   8.677
  541POPC   D2A10816   5.841  15.232   8.279
  541POPC   C3A10817   6.022  15.244   7.871
  541POPC   C4A10818   6.005  15.539   7.511
  541POPC   C1B10819   5.596  14.923   8.649
  541POPC   C2B10820   5.663  14.760   8.222
  541POPC   C3B10821   5.532  15.055   7.918
  541POPC   C4B10822   5.624  15.174   7.515
  542POPC   NC310823   5.641   2.550   9.491
  542POPC   PO410824   6.140   2.933   9.290
  542POPC   GL110825   5.851   2.695   9.059
  542POPC   GL210826   5.985   2.381   9.102
  542POPC   C1A10827   5.688   2.487   8.697
  542POPC   D2A10828   5.828   2.685   8.310
  542POPC   C3A10829   5.632   2.730   7.933
  542POPC   C4A10830   5.791   2.879   7.555
  542POPC   C1B10831   6.181   2.587   8.677
  542POPC   C2B10832   6.385   2.754   8.339
  542POPC   C3B10833   6.287   2.614   7.935
  542POPC   C4B10834   5.973   2.424   7.730
  543POPC   NC310835  40.402  35.408   9.868
  543POPC   PO410836  40.975  35.573   9.707
  543POPC   GL110837  40.733  35.417   9.319
  543POPC   GL210838  40.744  35.693   9.107
  543POPC   C1A10839  40.649  35.209   8.886
  543POPC   D2A10840  40.685  34.873   8.551
  543POPC   C3A10841  40.941  34.974   8.187
  543POPC   C4A10842  40.793  35.139   7.801
  543POPC   C1B10843  40.969  35.631   8.788
  543POPC   C2B10844  40.855  35.403   8.455
  543POPC   C3B10845  40.828  35.562   8.098
  543POPC   C4B10846  40.897  35.606   7.674
  544POPC   NC310847   0.810  33.697   9.417
  544POPC   PO410848   1.327  34.095   9.405
  544POPC   GL110849   1.199  34.052   9.036
  544POPC   GL210850   1.181  33.703   9.073
  544POPC   C1A10851   1.402  34.059   8.638
  544POPC   D2A10852   1.335  33.787   8.283
  544POPC   C3A10853   1.049  33.859   7.943
  544POPC   C4A10854   1.115  33.989   7.507
  544POPC   C1B10855   0.978  33.736   8.688
  544POPC   C2B10856   0.920  33.462   8.355
  544POPC   C3B10857   1.139  33.335   8.010
  544POPC   C4B10858   0.980  33.461   7.626
  545POPC   NC310859  21.678  25.376   9.469
  545POPC   PO410860  21.026  25.594   9.417
  545POPC   GL110861  21.302  25.393   9.136
  545POPC   GL210862  21.257  25.051   9.053
  545POPC   C1A10863  21.587  25.328   8.771
  545POPC   D2A10864  21.594  25.161   8.354
  545POPC   C3A10865  21.454  25.412   7.989
  545POPC   C4A10866  21.406  25.470   7.547
  545POPC   C1B10867  21.009  25.240   8.770
  545POPC   C2B10868  21.087  25.376   8.378
  545POPC   C3B10869  21.041  25.143   8.042
  545POPC   C4B10870  20.929  25.206   7.667
  546POPC   NC310871  38.367  36.456   9.553
  546POPC   PO410872  38.731  35.803   9.541
  546POPC   GL110873  38.483  36.088   9.204
  546POPC   GL210874  38.628  36.419   9.116
  546POPC   C1A10875  38.295  36.254   8.770
  546POPC   D2A10876  38.077  36.176   8.348
  546POPC   C3A10877  38.222  36.365   7.987
  546POPC   C4A10878  38.299  36.174   7.621
  546POPC   C1B10879  38.812  36.369   8.752
  546POPC   C2B10880  38.625  36.352   8.365
  546POPC   C3B10881  38.720  36.280   7.971
  546POPC   C4B10882  39.013  36.424   7.676
  547POPC   NC310883   3.938  19.842   9.493
  547POPC   PO410884   3.263  20.088   9.666
  547POPC   GL110885   3.269  19.998   9.215
  547POPC   GL210886   3.528  19.797   9.110
  547POPC   C1A10887   3.285  20.104   8.787
  547POPC   D2A10888   3.593  20.061   8.457
  547POPC   C3A10889   3.420  20.036   8.067
  547POPC   C4A10890   3.269  20.159   7.690
  547POPC   C1B10891   3.541  19.600   8.712
  547POPC   C2B10892   3.665  19.568   8.260
  547POPC   C3B10893   3.457  19.542   7.861
  547POPC   C4B10894   3.757  19.669   7.584
  548POPC   NC310895  39.523  17.482   9.398
  548POPC   PO410896  40.178  17.626   9.151
  548POPC   GL110897  39.857  17.386   9.039
  548POPC   GL210898  39.672  17.701   8.918
  548POPC   C1A10899  39.762  17.270   8.652
  548POPC   D2A10900  40.134  17.253   8.402
  548POPC   C3A10901  40.119  17.511   8.053
  548POPC   C4A10902  39.793  17.603   7.797
  548POPC   C1B10903  39.988  17.741   8.545
  548POPC   C2B10904  40.345  17.915   8.316
  548POPC   C3B10905  40.503  17.897   7.912
  548POPC   C4B10906  40.450  17.574   7.659
  549POPC   NC310907  16.444  22.664   9.655
  549POPC   PO410908  16.640  23.331   9.512
  549POPC   GL110909  16.500  22.975   9.230
  549POPC   GL210910  16.561  23.131   8.918
  549POPC   C1A10911  16.600  22.641   8.886
  549POPC   D2A10912  16.787  22.784   8.470
  549POPC   C3A10913  16.723  22.692   8.024
  549POPC   C4A10914  16.956  22.841   7.644
  549POPC   C1B10915  16.280  23.346   8.643
  549POPC   C2B10916  16.175  23.180   8.268
  549POPC   C3B10917  16.498  23.139   8.030
  549POPC   C4B10918  16.647  23.227   7.658
  550POPC   NC310919  19.079   2.112   9.660
  550POPC   PO410920  19.109   1.472   9.788
  550POPC   GL110921  19.164   1.735   9.319
  550POPC   GL210922  18.903   1.853   9.087
  550POPC   C1A10923  19.324   1.841   8.835
  550POPC   D2A10924  19.309   2.152   8.444
  550POPC   C3A10925  19.173   2.071   8.009
  550POPC   C4A10926  18.879   1.746   7.858
  550POPC   C1B10927  18.869   2.063   8.715
  550POPC   C2B10928  18.783   2.001   8.333
  550POPC   C3B10929  18.752   2.342   8.091
  550POPC   C4B10930  18.574   2.348   7.701
  551POPC   NC310931   3.631  13.314   9.521
  551POPC   PO410932   3.836  13.900   9.448
  551POPC   GL110933   3.688  13.676   9.117
  551POPC   GL210934   3.883  13.348   9.088
  551POPC   C1A10935   3.477  13.854   8.724
  551POPC   D2A10936   3.442  14.073   8.314
  551POPC   C3A10937   3.431  13.793   7.945
  551POPC   C4A10938   3.312  13.970   7.564
  551POPC   C1B10939   3.570  13.337   8.778
  551POPC   C2B10940   3.305  13.379   8.433
  551POPC   C3B10941   3.384  13.261   8.021
  551POPC   C4B10942   3.746  13.368   7.859
  552POPC   NC310943   8.427  11.071   9.722
  552POPC   PO410944   8.027  11.567   9.634
  552POPC   GL110945   8.267  11.562   9.254
  552POPC   GL210946   8.312  11.218   9.192
  552POPC   C1A10947   8.508  11.664   8.872
  552POPC   D2A10948   8.511  11.721   8.402
  552POPC   C3A10949   8.265  11.527   8.048
  552POPC   C4A10950   7.965  11.255   7.833
  552POPC   C1B10951   8.195  11.241   8.751
  552POPC   C2B10952   8.171  11.097   8.322
  552POPC   C3B10953   8.451  11.041   7.975
  552POPC   C4B10954   8.426  11.152   7.563
  553POPC   NC310955  20.606  24.201   9.353
  553POPC   PO410956  20.614  23.612   9.608
  553POPC   GL110957  20.761  23.717   9.224
  553POPC   GL210958  21.035  23.966   9.294
  553POPC   C1A10959  20.671  23.590   8.793
  553POPC   D2A10960  20.574  23.715   8.376
  553POPC   C3A10961  20.701  23.406   8.119
  553POPC   C4A10962  20.637  23.280   7.713
  553POPC   C1B10963  21.040  23.945   8.869
  553POPC   C2B10964  20.921  24.089   8.475
  553POPC   C3B10965  20.943  23.902   8.044
  553POPC   C4B10966  20.640  23.787   7.731
  554POPC   NC310967  19.038  26.578   9.396
  554POPC   PO410968  19.567  27.020   9.516
  554POPC   GL110969  19.336  26.941   9.121
  554POPC   GL210970  19.071  27.116   9.087
  554POPC   C1A10971  19.349  27.044   8.643
  554POPC   D2A10972  19.082  26.855   8.279
  554POPC   C3A10973  19.215  26.867   7.835
  554POPC   C4A10974  19.453  26.781   7.438
  554POPC   C1B10975  18.927  26.798   8.788
  554POPC   C2B10976  18.611  26.866   8.508
  554POPC   C3B10977  18.597  26.906   8.073
  554POPC   C4B10978  18.744  26.705   7.695
  555POPC   NC310979  10.685  28.606   9.336
  555POPC   PO410980  10.487  29.152   9.631
  555POPC   GL110981  10.538  29.115   9.186
  555POPC   GL210982  10.285  28.884   9.165
  555POPC   C1A10983  10.744  28.961   8.785
  555POPC   D2A10984  11.025  28.953   8.419
  555POPC   C3A10985  10.757  29.034   8.075
  555POPC   C4A10986  10.730  29.023   7.680
  555POPC   C1B10987  10.236  29.059   8.734
  555POPC   C2B10988  10.300  29.106   8.289
  555POPC   C3B10989  10.339  28.803   7.907
  555POPC   C4B10990  10.360  28.799   7.415
  556POPC   NC310991  14.607  18.640   9.386
  556POPC   PO410992  14.458  18.056   9.650
  556POPC   GL110993  14.469  18.158   9.192
  556POPC   GL210994  14.216  18.412   9.129
  556POPC   C1A10995  14.489  18.225   8.725
  556POPC   D2A10996  14.737  18.357   8.404
  556POPC   C3A10997  14.622  18.145   8.026
  556POPC   C4A10998  14.551  18.266   7.586
  556POPC   C1B10999  14.071  18.505   8.715
  556POPC   C2B11000  14.154  18.314   8.302
  556POPC   C3B11001  14.240  18.547   7.917
  556POPC   C4B11002  14.173  18.594   7.473
  557POPC   NC311003  44.541  34.998   9.502
  557POPC   PO411004  44.389  35.656   9.512
  557POPC   GL111005  44.390  35.460   9.134
  557POPC   GL211006  44.713  35.305   9.131
  557POPC   C1A11007  44.520  35.455   8.697
  557POPC   D2A11008  44.536  35.068   8.499
  557POPC   C3A11009  44.553  35.078   8.060
  557POPC   C4A11010  44.597  35.335   7.696
  557POPC   C1B11011  44.914  35.058   8.810
  557POPC   C2B11012  44.988  34.909   8.359
  557POPC   C3B11013   0.057  35.095   7.939
  557POPC   C4B11014   0.074  35.343   7.542
  558POPC   NC311015  24.676  16.645   9.713
  558POPC   PO411016  25.247  16.797   9.587
  558POPC   GL111017  24.965  16.805   9.199
  558POPC   GL211018  24.834  17.130   9.060
  558POPC   C1A11019  25.014  16.764   8.722
  558POPC   D2A11020  25.229  17.010   8.353
  558POPC   C3A11021  25.301  16.829   7.933
  558POPC   C4A11022  25.082  16.499   7.675
  558POPC   C1B11023  24.832  17.232   8.615
  558POPC   C2B11024  24.721  16.917   8.308
  558POPC   C3B11025  24.791  16.919   7.890
  558POPC   C4B11026  25.030  17.250   7.785
  559POPC   NC311027  31.147  42.011   9.324
  559POPC   PO411028  30.952  42.556   9.680
  559POPC   GL111029  30.675  42.375   9.302
  559POPC   GL211030  30.364  42.560   9.173
  559POPC   C1A11031  30.584  42.165   8.894
  559POPC   D2A11032  30.491  42.075   8.452
  559POPC   C3A11033  30.761  42.144   8.120
  559POPC   C4A11034  30.692  42.127   7.688
  559POPC   C1B11035  30.660  42.687   8.863
  559POPC   C2B11036  30.714  42.552   8.433
  559POPC   C3B11037  30.689  42.626   7.959
  559POPC   C4B11038  30.471  42.918   7.712
  560POPC   NC311039  35.676  13.122   9.504
  560POPC   PO411040  34.973  12.883   9.619
  560POPC   GL111041  35.247  12.863   9.240
  560POPC   GL211042  35.348  13.206   9.120
  560POPC   C1A11043  35.349  12.823   8.796
  560POPC   D2A11044  35.201  12.832   8.378
  560POPC   C3A11045  35.289  12.618   7.983
  560POPC   C4A11046  35.588  12.827   7.702
  560POPC   C1B11047  35.109  13.276   8.734
  560POPC   C2B11048  35.213  13.365   8.333
  560POPC   C3B11049  35.326  13.144   7.988
  560POPC   C4B11050  35.095  12.927   7.617
  561POPC   NC311051  14.092  18.359   9.633
  561POPC   PO411052  13.447  18.274   9.552
  561POPC   GL111053  13.748  18.178   9.212
  561POPC   GL211054  14.022  17.934   9.305
  561POPC   C1A11055  13.642  18.225   8.761
  561POPC   D2A11056  13.663  18.468   8.359
  561POPC   C3A11057  13.738  18.287   7.961
  561POPC   C4A11058  13.419  18.239   7.662
  561POPC   C1B11059  14.076  17.953   8.836
  561POPC   C2B11060  13.793  17.836   8.466
  561POPC   C3B11061  13.853  17.790   8.017
  561POPC   C4B11062  14.171  18.040   7.827
  562POPC   NC311063  23.379  23.426   9.690
  562POPC   PO411064  23.975  23.636   9.620
  562POPC   GL111065  23.757  23.668   9.195
  562POPC   GL211066  23.377  23.680   9.213
  562POPC   C1A11067  23.722  23.727   8.717
  562POPC   D2A11068  23.884  23.747   8.268
  562POPC   C3A11069  23.633  23.679   7.876
  562POPC   C4A11070  23.790  23.567   7.459
  562POPC   C1B11071  23.301  23.435   8.816
  562POPC   C2B11072  23.270  23.502   8.349
  562POPC   C3B11073  23.156  23.476   7.884
  562POPC   C4B11074  23.285  23.679   7.485
  563POPC   NC311075  11.049  19.591   9.491
  563POPC   PO411076  11.423  20.093   9.588
  563POPC   GL111077  11.380  19.956   9.180
  563POPC   GL211078  11.173  19.679   9.018
  563POPC   C1A11079  11.290  20.117   8.802
  563POPC   D2A11080  11.090  20.022   8.473
  563POPC   C3A11081  11.275  20.009   8.094
  563POPC   C4A11082  11.427  19.796   7.712
  563POPC   C1B11083  11.357  19.608   8.612
  563POPC   C2B11084  11.070  19.568   8.248
  563POPC   C3B11085  11.078  19.464   7.812
  563POPC   C4B11086  11.110  19.608   7.354
  564POPC   NC311087  39.509  30.566   9.512
  564POPC   PO411088  39.132  31.135   9.609
  564POPC   GL111089  39.268  30.889   9.205
  564POPC   GL211090  39.186  30.566   9.051
  564POPC   C1A11091  39.334  30.968   8.771
  564POPC   D2A11092  39.189  30.658   8.488
  564POPC   C3A11093  39.311  30.682   8.073
  564POPC   C4A11094  39.107  30.694   7.703
  564POPC   C1B11095  39.514  30.353   8.772
  564POPC   C2B11096  39.636  30.341   8.294
  564POPC   C3B11097  39.589  30.324   7.796
  564POPC   C4B11098  39.366  30.412   7.367
  565POPC   NC311099  12.256   9.460   9.384
  565POPC   PO411100  11.929  10.030   9.504
  565POPC   GL111101  12.038   9.861   9.119
  565POPC   GL211102  11.723   9.934   9.016
  565POPC   C1A11103  12.049   9.628   8.712
  565POPC   D2A11104  11.920   9.611   8.247
  565POPC   C3A11105  12.287   9.654   7.950
  565POPC   C4A11106  12.313   9.917   7.564
  565POPC   C1B11107  11.674   9.929   8.588
  565POPC   C2B11108  11.938  10.127   8.327
  565POPC   C3B11109  11.993  10.062   7.946
  565POPC   C4B11110  11.816   9.953   7.595
  566POPC   NC311111  21.547  38.072   9.665
  566POPC   PO411112  21.256  38.624   9.629
  566POPC   GL111113  21.352  38.816   9.198
  566POPC   GL211114  21.679  38.666   9.123
  566POPC   C1A11115  21.260  38.697   8.751
  566POPC   D2A11116  21.222  38.467   8.346
  566POPC   C3A11117  21.332  38.658   7.944
  566POPC   C4A11118  21.738  38.829   7.817
  566POPC   C1B11119  21.756  38.579   8.675
  566POPC   C2B11120  21.728  38.509   8.234
  566POPC   C3B11121  21.710  38.268   7.838
  566POPC   C4B11122  21.810  38.083   7.403
  567POPC   NC311123  16.779  41.329   9.806
  567POPC   PO411124  17.189  41.846   9.509
  567POPC   GL111125  17.108  41.631   9.104
  567POPC   GL211126  17.113  41.280   9.115
  567POPC   C1A11127  17.053  41.708   8.628
  567POPC   D2A11128  16.795  41.889   8.284
  567POPC   C3A11129  16.710  41.594   7.920
  567POPC   C4A11130  16.523  41.144   7.892
  567POPC   C1B11131  16.770  41.319   8.833
  567POPC   C2B11132  16.782  41.349   8.380
  567POPC   C3B11133  17.019  41.197   8.023
  567POPC   C4B11134  16.926  41.225   7.578
  568POPC   NC311135   8.527  22.591   9.403
  568POPC   PO411136   8.087  22.078   9.495
  568POPC   GL111137   8.215  22.207   9.142
  568POPC   GL211138   8.052  22.555   9.141
  568POPC   C1A11139   8.323  21.990   8.780
  568POPC   D2A11140   8.338  22.124   8.368
  568POPC   C3A11141   8.156  21.862   8.067
  568POPC   C4A11142   8.242  21.979   7.674
  568POPC   C1B11143   8.087  22.448   8.703
  568POPC   C2B11144   8.141  22.588   8.303
  568POPC   C3B11145   8.175  22.439   7.907
  568POPC   C4B11146   8.124  22.675   7.525
  569POPC   NC311147  34.891   3.931   9.865
  569POPC   PO411148  35.462   4.225   9.798
  569POPC   GL111149  35.271   4.380   9.339
  569POPC   GL211150  35.034   4.667   9.386
  569POPC   C1A11151  35.435   4.392   8.866
  569POPC   D2A11152  35.596   4.633   8.473
  569POPC   C3A11153  35.560   4.417   8.047
  569POPC   C4A11154  35.412   4.154   7.690
  569POPC   C1B11155  34.998   4.637   8.916
  569POPC   C2B11156  35.079   4.482   8.468
  569POPC   C3B11157  35.054   4.441   7.995
  569POPC   C4B11158  34.916   4.090   7.744
  570POPC   NC311159   2.593  13.948   9.523
  570POPC   PO411160   3.190  13.548   9.382
  570POPC   GL111161   2.759  13.528   9.155
  570POPC   GL211162   2.493  13.800   9.056
  570POPC   C1A11163   2.664  13.486   8.696
  570POPC   D2A11164   2.486  13.713   8.342
  570POPC   C3A11165   2.540  13.466   7.979
  570POPC   C4A11166   2.955  13.478   7.806
  570POPC   C1B11167   2.903  13.939   8.858
  570POPC   C2B11168   2.946  14.072   8.417
  570POPC   C3B11169   2.955  13.992   7.976
  570POPC   C4B11170   2.647  13.916   7.672
  571POPC   NC311171  14.989  31.673   9.587
  571POPC   PO411172  14.949  32.367   9.407
  571POPC   GL111173  15.197  32.258   9.050
  571POPC   GL211174  15.208  31.902   8.953
  571POPC   C1A11175  15.179  32.447   8.668
  571POPC   D2A11176  15.166  32.706   8.319
  571POPC   C3A11177  15.144  32.523   7.912
  571POPC   C4A11178  15.459  32.545   7.642
  571POPC   C1B11179  15.401  31.993   8.590
  571POPC   C2B11180  15.247  32.159   8.242
  571POPC   C3B11181  15.102  31.981   7.872
  571POPC   C4B11182  14.904  31.764   7.482
  572POPC   NC311183  13.373  22.206   9.803
  572POPC   PO411184  14.031  22.124   9.802
  572POPC   GL111185  13.684  22.097   9.364
  572POPC   GL211186  13.691  22.377   9.121
  572POPC   C1A11187  13.603  21.987   8.840
  572POPC   D2A11188  13.698  22.086   8.379
  572POPC   C3A11189  13.430  22.017   8.022
  572POPC   C4A11190  13.642  22.135   7.677
  572POPC   C1B11191  13.901  22.418   8.725
  572POPC   C2B11192  13.795  22.601   8.326
  572POPC   C3B11193  13.812  22.675   7.897
  572POPC   C4B11194  13.991  22.515   7.540
  573POPC   NC311195  40.316   5.033   9.567
  573POPC   PO411196  40.972   5.102   9.495
  573POPC   GL111197  40.903   5.238   9.103
  573POPC   GL211198  40.561   5.198   9.155
  573POPC   C1A11199  41.013   5.382   8.706
  573POPC   D2A11200  41.156   5.183   8.340
  573POPC   C3A11201  40.878   5.355   8.017
  573POPC   C4A11202  40.747   5.183   7.608
  573POPC   C1B11203  40.563   4.975   8.802
  573POPC   C2B11204  40.630   5.089   8.384
  573POPC   C3B11205  40.628   4.876   7.979
  573POPC   C4B11206  40.649   4.699   7.533
  574POPC   NC311207  31.155  17.740   9.775
  574POPC   PO411208  31.449  17.218   9.473
  574POPC   GL111209  31.472  17.589   9.168
  574POPC   GL211210  31.724  17.829   9.288
  574POPC   C1A11211  31.375  17.683   8.704
  574POPC   D2A11212  31.358  17.859   8.280
  574POPC   C3A11213  31.354  17.530   7.991
  574POPC   C4A11214  31.388  17.420   7.561
  574POPC   C1B11215  31.734  17.999   8.873
  574POPC   C2B11216  31.852  17.954   8.441
  574POPC   C3B11217  31.784  17.811   8.017
  574POPC   C4B11218  31.838  17.664   7.601
  575POPC   NC311219  15.401  14.287   9.582
  575POPC   PO411220  14.848  14.529   9.581
  575POPC   GL111221  15.001  14.404   9.166
  575POPC   GL211222  15.377  14.392   9.065
  575POPC   C1A11223  14.983  14.478   8.712
  575POPC   D2A11224  15.269  14.445   8.370
  575POPC   C3A11225  15.104  14.453   7.979
  575POPC   C4A11226  15.238  14.811   7.738
  575POPC   C1B11227  15.417  14.092   8.695
  575POPC   C2B11228  15.340  13.958   8.226
  575POPC   C3B11229  15.286  14.016   7.781
  575POPC   C4B11230  15.169  13.907   7.383
  576POPC   NC311231  41.914   7.627   9.496
  576POPC   PO411232  41.493   7.143   9.552
  576POPC   GL111233  41.557   7.409   9.209
  576POPC   GL211234  41.882   7.274   9.122
  576POPC   C1A11235  41.558   7.707   8.860
  576POPC   D2A11236  41.268   7.826   8.527
  576POPC   C3A11237  41.468   7.814   8.123
  576POPC   C4A11238  41.305   7.606   7.752
  576POPC   C1B11239  41.709   7.242   8.749
  576POPC   C2B11240  41.544   7.390   8.398
  576POPC   C3B11241  41.635   7.315   7.984
  576POPC   C4B11242  41.929   7.376   7.600
  577POPC   NC311243   3.007  13.098   9.376
  577POPC   PO411244   2.471  12.671   9.446
  577POPC   GL111245   2.670  12.798   9.110
  577POPC   GL211246   2.491  13.104   8.997
  577POPC   C1A11247   2.983  12.549   8.895
  577POPC   D2A11248   3.048  12.488   8.460
  577POPC   C3A11249   2.694  12.613   8.200
  577POPC   C4A11250   2.402  12.520   7.879
  577POPC   C1B11251   2.829  12.992   8.657
  577POPC   C2B11252   2.929  13.072   8.212
  577POPC   C3B11253   3.033  12.951   7.781
  577POPC   C4B11254   2.938  13.163   7.394
  578POPC   NC311255   2.298  22.672   9.127
  578POPC   PO411256   1.860  23.064   9.501
  578POPC   GL111257   1.922  23.045   9.047
  578POPC   GL211258   2.283  23.167   9.000
  578POPC   C1A11259   1.913  22.805   8.630
  578POPC   D2A11260   2.161  22.610   8.297
  578POPC   C3A11261   1.910  22.671   7.947
  578POPC   C4A11262   1.757  23.094   7.802
  578POPC   C1B11263   2.599  23.133   8.655
  578POPC   C2B11264   2.468  23.234   8.235
  578POPC   C3B11265   2.246  23.048   7.908
  578POPC   C4B11266   2.186  22.802   7.519
  579POPC   NC311267  35.621  16.593   9.657
  579POPC   PO411268  35.061  16.813   9.638
  579POPC   GL111269  35.338  16.737   9.230
  579POPC   GL211270  35.414  16.454   9.151
  579POPC   C1A11271  35.561  16.799   8.806
  579POPC   D2A11272  35.446  17.003   8.429
  579POPC   C3A11273  35.590  16.869   8.013
  579POPC   C4A11274  35.378  16.808   7.605
  579POPC   C1B11275  35.344  16.330   8.721
  579POPC   C2B11276  35.318  16.523   8.294
  579POPC   C3B11277  35.296  16.350   7.829
  579POPC   C4B11278  35.293  16.360   7.327
  580POPC   NC311279  40.847  16.590   9.772
  580POPC   PO411280  41.490  16.780   9.487
  580POPC   GL111281  41.627  16.651   9.111
  580POPC   GL211282  41.837  16.421   9.181
  580POPC   C1A11283  41.743  16.810   8.722
  580POPC   D2A11284  41.520  16.801   8.339
  580POPC   C3A11285  41.703  16.893   7.904
  580POPC   C4A11286  41.439  16.814   7.543
  580POPC   C1B11287  41.857  16.283   8.791
  580POPC   C2B11288  41.717  16.333   8.409
  580POPC   C3B11289  41.611  16.408   8.029
  580POPC   C4B11290  41.767  16.400   7.677
  581POPC   NC311291  20.650  26.656   9.610
  581POPC   PO411292  20.521  27.317   9.489
  581POPC   GL111293  20.549  27.084   9.114
  581POPC   GL211294  20.575  26.735   9.129
  581POPC   C1A11295  20.738  27.018   8.701
  581POPC   D2A11296  20.613  26.827   8.293
  581POPC   C3A11297  20.888  26.963   7.955
  581POPC   C4A11298  20.630  27.000   7.585
  581POPC   C1B11299  20.396  26.644   8.752
  581POPC   C2B11300  20.444  26.298   8.516
  581POPC   C3B11301  20.448  26.329   8.100
  581POPC   C4B11302  20.670  26.544   7.820
  582POPC   NC311303  43.318  25.982   9.464
  582POPC   PO411304  42.987  26.498   9.248
  582POPC   GL111305  43.047  26.181   9.017
  582POPC   GL211306  43.389  26.195   9.002
  582POPC   C1A11307  43.043  26.043   8.607
  582POPC   D2A11308  43.026  25.622   8.476
  582POPC   C3A11309  42.920  25.627   8.063
  582POPC   C4A11310  42.941  25.788   7.642
  582POPC   C1B11311  43.428  25.799   8.790
  582POPC   C2B11312  43.490  25.804   8.325
  582POPC   C3B11313  43.427  25.812   7.855
  582POPC   C4B11314  43.326  26.077   7.479
  583POPC   NC311315   0.334   4.816   9.720
  583POPC   PO411316   0.760   5.291   9.433
  583POPC   GL111317   0.475   5.121   9.149
  583POPC   GL211318   0.112   5.263   9.226
  583POPC   C1A11319   0.621   4.970   8.722
  583POPC   D2A11320   0.770   4.722   8.357
  583POPC   C3A11321   0.556   4.926   8.036
  583POPC   C4A11322   0.664   5.324   7.981
  583POPC   C1B11323   0.134   5.178   8.780
  583POPC   C2B11324   0.301   5.239   8.357
  583POPC   C3B11325   0.164   5.279   7.924
  583POPC   C4B11326   0.284   5.044   7.570
  584POPC   NC311327  31.195  35.161   9.532
  584POPC   PO411328  30.639  35.434   9.314
  584POPC   GL111329  30.968  35.673   9.106
  584POPC   GL211330  31.269  35.584   9.247
  584POPC   C1A11331  30.905  35.763   8.673
  584POPC   D2A11332  30.636  35.449   8.443
  584POPC   C3A11333  30.533  35.555   8.010
  584POPC   C4A11334  30.419  35.368   7.608
  584POPC   C1B11335  31.174  35.293   8.872
  584POPC   C2B11336  31.183  35.375   8.431
  584POPC   C3B11337  30.957  35.270   8.069
  584POPC   C4B11338  30.919  35.419   7.673
  585POPC   NC311339  32.573  22.735   9.387
  585POPC   PO411340  32.061  23.060   9.617
  585POPC   GL111341  32.176  23.063   9.169
  585POPC   GL211342  32.023  22.723   9.132
  585POPC   C1A11343  32.356  22.897   8.740
  585POPC   D2A11344  32.554  22.721   8.317
  585POPC   C3A11345  32.497  23.019   7.927
  585POPC   C4A11346  32.166  23.113   7.603
  585POPC   C1B11347  31.860  22.740   8.694
  585POPC   C2B11348  32.056  22.898   8.295
  585POPC   C3B11349  32.069  22.703   7.897
  585POPC   C4B11350  31.776  22.762   7.560
  586POPC   NC311351  14.070  26.557   9.596
  586POPC   PO411352  13.419  26.800   9.576
  586POPC   GL111353  13.534  26.709   9.175
  586POPC   GL211354  13.202  26.652   9.068
  586POPC   C1A11355  13.630  26.874   8.756
  586POPC   D2A11356  13.483  26.789   8.355
  586POPC   C3A11357  13.774  26.705   8.029
  586POPC   C4A11358  14.022  27.011   7.819
  586POPC   C1B11359  13.426  26.395   8.734
  586POPC   C2B11360  13.515  26.293   8.293
  586POPC   C3B11361  13.307  26.489   7.926
  586POPC   C4B11362  13.222  26.680   7.523
  587POPC   NC311363   8.799   7.303   9.660
  587POPC   PO411364   9.312   7.712   9.480
  587POPC   GL111365   9.048   7.466   9.156
  587POPC   GL211366   8.695   7.305   9.155
  587POPC   C1A11367   9.183   7.288   8.765
  587POPC   D2A11368   9.023   7.321   8.382
  587POPC   C3A11369   9.277   7.252   8.029
  587POPC   C4A11370   9.065   7.419   7.693
  587POPC   C1B11371   8.705   7.061   8.762
  587POPC   C2B11372   8.799   6.857   8.385
  587POPC   C3B11373   8.801   7.065   7.988
  587POPC   C4B11374   8.805   6.854   7.620
  588POPC   NC311375  30.828  15.297   9.643
  588POPC   PO411376  30.340  15.050   9.513
  588POPC   GL111377  30.696  15.088   9.185
  588POPC   GL211378  30.906  15.393   9.138
  588POPC   C1A11379  30.917  14.998   8.779
  588POPC   D2A11380  31.020  15.030   8.314
  588POPC   C3A11381  30.660  14.936   8.015
  588POPC   C4A11382  30.638  14.992   7.552
  588POPC   C1B11383  31.013  15.493   8.687
  588POPC   C2B11384  30.905  15.527   8.229
  588POPC   C3B11385  30.802  15.385   7.829
  588POPC   C4B11386  30.566  15.506   7.468
  589POPC   NC311387  41.956  30.963   9.703
  589POPC   PO411388  41.353  31.046   9.371
  589POPC   GL111389  41.233  30.759   9.098
  589POPC   GL211390  41.539  30.580   9.060
  589POPC   C1A11391  41.359  30.860   8.681
  589POPC   D2A11392  41.573  30.799   8.323
  589POPC   C3A11393  41.339  30.883   7.976
  589POPC   C4A11394  41.558  31.035   7.641
  589POPC   C1B11395  41.550  30.374   8.661
  589POPC   C2B11396  41.742  30.321   8.251
  589POPC   C3B11397  41.758  30.513   7.820
  589POPC   C4B11398  41.934  30.393   7.367
  590POPC   NC311399  40.444   7.895   9.471
  590POPC   PO411400  40.867   8.344   9.358
  590POPC   GL111401  40.738   8.061   9.049
  590POPC   GL211402  40.415   8.189   9.002
  590POPC   C1A11403  40.832   8.160   8.600
  590POPC   D2A11404  41.049   8.337   8.215
  590POPC   C3A11405  41.040   8.004   7.915
  590POPC   C4A11406  41.148   7.953   7.435
  590POPC   C1B11407  40.474   8.534   8.715
  590POPC   C2B11408  40.420   8.379   8.294
  590POPC   C3B11409  40.595   8.417   7.880
  590POPC   C4B11410  40.593   8.478   7.390
  591POPC   NC311411  25.794   7.268   9.512
  591POPC   PO411412  26.160   7.908   9.620
  591POPC   GL111413  26.007   7.700   9.213
  591POPC   GL211414  25.773   7.482   9.061
  591POPC   C1A11415  26.158   7.559   8.782
  591POPC   D2A11416  26.168   7.268   8.447
  591POPC   C3A11417  25.890   7.418   8.165
  591POPC   C4A11418  26.106   7.592   7.848
  591POPC   C1B11419  25.868   7.083   8.844
  591POPC   C2B11420  25.749   6.970   8.427
  591POPC   C3B11421  25.700   6.969   7.987
  591POPC   C4B11422  25.810   7.226   7.663
  592POPC   NC311423  28.148   0.678   9.292
  592POPC   PO411424  28.386   1.205   9.660
  592POPC   GL111425  28.350   1.152   9.202
  592POPC   GL211426  28.066   1.244   9.237
  592POPC   C1A11427  28.327   0.913   8.746
  592POPC   D2A11428  28.432   0.988   8.343
  592POPC   C3A11429  28.248   0.976   7.962
  592POPC   C4A11430  28.450   0.883   7.574
  592POPC   C1B11431  27.998   1.275   8.818
  592POPC   C2B11432  28.079   1.394   8.413
  592POPC   C3B11433  28.184   1.477   8.027
  592POPC   C4B11434  27.962   1.358   7.705
  593POPC   NC311435  13.508  37.132   9.445
  593POPC   PO411436  13.879  36.653   9.562
  593POPC   GL111437  13.804  36.818   9.152
  593POPC   GL211438  13.810  37.181   9.053
  593POPC   C1A11439  13.510  36.842   8.798
  593POPC   D2A11440  13.617  36.942   8.370
  593POPC   C3A11441  13.326  37.004   8.038
  593POPC   C4A11442  13.576  36.954   7.671
  593POPC   C1B11443  13.993  37.033   8.716
  593POPC   C2B11444  14.160  37.105   8.342
  593POPC   C3B11445  13.997  36.915   7.984
  593POPC   C4B11446  13.979  37.258   7.750
  594POPC   NC311447  14.997   5.612   9.420
  594POPC   PO411448  15.402   6.123   9.537
  594POPC   GL111449  15.240   5.991   9.136
  594POPC   GL211450  15.479   5.734   9.098
  594POPC   C1A11451  15.059   5.930   8.690
  594POPC   D2A11452  14.873   5.672   8.351
  594POPC   C3A11453  14.888   5.823   7.907
  594POPC   C4A11454  15.078   6.109   7.585
  594POPC   C1B11455  15.564   6.002   8.719
  594POPC   C2B11456  15.455   5.859   8.288
  594POPC   C3B11457  15.388   5.803   7.842
  594POPC   C4B11458  15.368   5.770   7.353
  595POPC   NC311459  36.725  25.769   9.793
  595POPC   PO411460  37.112  26.243   9.762
  595POPC   GL111461  37.203  26.125   9.304
  595POPC   GL211462  37.185  26.468   9.182
  595POPC   C1A11463  37.232  25.891   8.864
  595POPC   D2A11464  37.333  26.038   8.415
  595POPC   C3A11465  37.021  26.049   8.057
  595POPC   C4A11466  36.634  26.060   7.802
  595POPC   C1B11467  37.174  26.384   8.748
  595POPC   C2B11468  37.093  26.520   8.316
  595POPC   C3B11469  36.859  26.525   7.931
  595POPC   C4B11470  36.418  26.531   7.745
  596POPC   NC311471  18.051  24.137   9.755
  596POPC   PO411472  18.323  24.685   9.419
  596POPC   GL111473  18.023  24.467   9.155
  596POPC   GL211474  17.922  24.694   8.964
  596POPC   C1A11475  18.090  24.256   8.733
  596POPC   D2A11476  18.043  24.544   8.364
  596POPC   C3A11477  18.307  24.507   7.980
  596POPC   C4A11478  18.265  24.254   7.613
  596POPC   C1B11479  18.367  24.687   8.758
  596POPC   C2B11480  18.467  24.881   8.366
  596POPC   C3B11481  18.215  25.012   8.030
  596POPC   C4B11482  18.424  24.942   7.629
  597POPC   NC311483  25.095  38.323   9.623
  597POPC   PO411484  25.649  37.968   9.508
  597POPC   GL111485  25.445  38.336   9.260
  597POPC   GL211486  25.099  38.212   9.137
  597POPC   C1A11487  25.267  38.624   8.907
  597POPC   D2A11488  25.163  38.530   8.480
  597POPC   C3A11489  25.447  38.552   8.132
  597POPC   C4A11490  25.305  38.681   7.713
  597POPC   C1B11491  25.016  37.990   8.755
  597POPC   C2B11492  25.171  38.028   8.321
  597POPC   C3B11493  25.122  38.219   7.915
  597POPC   C4B11494  25.164  38.130   7.487
  598POPC   NC311495  38.808  37.219   9.498
  598POPC   PO411496  38.150  36.874   9.584
  598POPC   GL111497  38.251  36.785   9.170
  598POPC   GL211498  38.498  37.019   9.144
  598POPC   C1A11499  38.065  36.744   8.766
  598POPC   D2A11500  38.234  36.661   8.400
  598POPC   C3A11501  38.496  36.930   8.184
  598POPC   C4A11502  38.316  37.106   7.819
  598POPC   C1B11503  38.584  36.825   8.758
  598POPC   C2B11504  38.932  36.793   8.488
  598POPC   C3B11505  38.959  36.740   8.068
  598POPC   C4B11506  38.799  37.040   7.762
  599POPC   NC311507  35.476  19.971   9.645
  599POPC   PO411508  35.075  19.796   9.103
  599POPC   GL111509  35.326  19.630   8.867
  599POPC   GL211510  35.582  19.768   9.157
  599POPC   C1A11511  35.107  19.463   8.474
  599POPC   D2A11512  34.894  19.718   8.167
  599POPC   C3A11513  35.126  19.836   7.794
  599POPC   C4A11514  35.302  19.998   7.398
  599POPC   C1B11515  35.829  19.593   8.830
  599POPC   C2B11516  35.622  19.400   8.482
  599POPC   C3B11517  35.499  19.610   8.103
  599POPC   C4B11518  35.577  19.660   7.650
  600POPC   NC311519   9.295  10.598   9.574
  600POPC   PO411520   8.765  10.936   9.394
  600POPC   GL111521   8.867  10.525   9.214
  600POPC   GL211522   8.975  10.184   9.345
  600POPC   C1A11523   8.767  10.501   8.776
  600POPC   D2A11524   8.797  10.720   8.391
  600POPC   C3A11525   8.849  10.523   7.989
  600POPC   C4A11526   9.141  10.604   7.659
  600POPC   C1B11527   9.072  10.120   8.897
  600POPC   C2B11528   9.223  10.369   8.529
  600POPC   C3B11529   9.329  10.341   8.062
  600POPC   C4B11530   9.256  10.104   7.687
  601POPC   NC311531  32.785   0.167   9.534
  601POPC   PO411532  33.333   0.645   9.431
  601POPC   GL111533  33.086   0.620   9.106
  601POPC   GL211534  33.120   0.251   9.131
  601POPC   C1A11535  33.024   0.567   8.675
  601POPC   D2A11536  33.236   0.675   8.324
  601POPC   C3A11537  32.995   0.660   7.963
  601POPC   C4A11538  32.836   0.328   7.765
  601POPC   C1B11539  33.432   0.321   8.812
  601POPC   C2B11540  33.361   0.188   8.379
  601POPC   C3B11541  33.367   0.313   7.942
  601POPC   C4B11542  33.269   0.037   7.626
  602POPC   NC311543  18.736  44.280   9.535
  602POPC   PO411544  19.225  43.850   9.462
  602POPC   GL111545  19.052  43.821   9.109
  602POPC   GL211546  18.788  44.055   9.075
  602POPC   C1A11547  19.135  43.689   8.721
  602POPC   D2A11548  18.938  43.496   8.385
  602POPC   C3A11549  19.037  43.664   7.985
  602POPC   C4A11550  19.110  43.837   7.584
  602POPC   C1B11551  19.118  44.216   8.788
  602POPC   C2B11552  19.219  44.089   8.361
  602POPC   C3B11553  19.098  44.205   7.940
  602POPC   C4B11554  18.704  44.269   7.716
  603POPC   NC311555  17.046  23.458   9.753
  603POPC   PO411556  16.693  24.035   9.757
  603POPC   GL111557  16.782  23.848   9.271
  603POPC   GL211558  17.114  23.874   9.121
  603POPC   C1A11559  16.841  23.555   8.860
  603POPC   D2A11560  16.792  23.304   8.464
  603POPC   C3A11561  16.877  23.497   8.052
  603POPC   C4A11562  16.528  23.686   7.851
  603POPC   C1B11563  16.863  24.097   8.763
  603POPC   C2B11564  16.704  24.092   8.333
  603POPC   C3B11565  16.827  24.121   7.896
  603POPC   C4B11566  16.928  24.198   7.467
  604POPC   NC311567  16.221  17.967   9.406
  604POPC   PO411568  16.906  18.204   9.494
  604POPC   GL111569  16.830  18.391   9.124
  604POPC   GL211570  16.504  18.293   9.128
  604POPC   C1A11571  16.893  18.291   8.713
  604POPC   D2A11572  16.658  18.195   8.342
  604POPC   C3A11573  16.853  18.224   7.961
  604POPC   C4A11574  16.693  18.108   7.581
  604POPC   C1B11575  16.410  18.443   8.744
  604POPC   C2B11576  16.501  18.668   8.349
  604POPC   C3B11577  16.420  18.471   7.922
  604POPC   C4B11578  16.376  18.466   7.441
  605POPC   NC311579  23.611  27.895   9.463
  605POPC   PO411580  23.750  28.633   9.608
  605POPC   GL111581  23.664  28.599   9.203
  605POPC   GL211582  23.553  28.920   9.151
  605POPC   C1A11583  23.648  28.321   8.832
  605POPC   D2A11584  23.864  28.339   8.457
  605POPC   C3A11585  23.744  28.095   8.111
  605POPC   C4A11586  23.911  28.309   7.797
  605POPC   C1B11587  23.569  28.817   8.714
  605POPC   C2B11588  23.373  28.584   8.369
  605POPC   C3B11589  23.431  28.490   7.916
  605POPC   C4B11590  23.605  28.814   7.663
  606POPC   NC311591  41.441  29.173   9.787
  606POPC   PO411592  41.706  29.152   9.199
  606POPC   GL111593  41.302  29.217   9.041
  606POPC   GL211594  41.124  28.920   9.042
  606POPC   C1A11595  41.388  29.371   8.648
  606POPC   D2A11596  41.763  29.335   8.389
  606POPC   C3A11597  41.653  29.455   7.964
  606POPC   C4A11598  41.714  29.475   7.542
  606POPC   C1B11599  41.161  28.922   8.578
  606POPC   C2B11600  41.319  29.133   8.193
  606POPC   C3B11601  41.554  28.962   7.823
  606POPC   C4B11602  41.351  28.761   7.447
  607POPC   NC311603  40.281  31.546   9.460
  607POPC   PO411604  39.684  31.702   9.516
  607POPC   GL111605  39.888  31.470   9.147
  607POPC   GL211606  40.121  31.625   8.965
  607POPC   C1A11607  39.792  31.233   8.785
  607POPC   D2A11608  39.609  31.344   8.385
  607POPC   C3A11609  39.830  31.426   8.014
  607POPC   C4A11610  39.834  31.149   7.673
  607POPC   C1B11611  40.100  31.519   8.519
  607POPC   C2B11612  40.150  31.780   8.212
  607POPC   C3B11613  40.269  31.808   7.834
  607POPC   C4B11614  40.091  31.548   7.547
  608POPC   NC311615  31.434  30.313   9.745
  608POPC   PO411616  31.706  30.879   9.464
  608POPC   GL111617  31.437  30.726   9.133
  608POPC   GL211618  31.388  30.397   9.196
  608POPC   C1A11619  31.342  30.794   8.714
  608POPC   D2A11620  31.536  31.088   8.428
  608POPC   C3A11621  31.544  30.943   7.998
  608POPC   C4A11622  31.516  30.832   7.537
  608POPC   C1B11623  31.563  30.349   8.754
  608POPC   C2B11624  31.424  30.501   8.306
  608POPC   C3B11625  31.530  30.432   7.864
  608POPC   C4B11626  31.626  30.076   7.572
  609POPC   NC311627  20.134  32.090   9.563
  609POPC   PO411628  20.347  32.600   9.617
  609POPC   GL111629  20.089  32.492   9.203
  609POPC   GL211630  19.767  32.302   9.149
  609POPC   C1A11631  20.012  32.484   8.740
  609POPC   D2A11632  19.944  32.238   8.358
  609POPC   C3A11633  19.799  32.446   8.021
  609POPC   C4A11634  19.756  32.455   7.595
  609POPC   C1B11635  19.624  32.118   8.731
  609POPC   C2B11636  19.439  32.172   8.294
  609POPC   C3B11637  19.339  32.250   7.838
  609POPC   C4B11638  19.236  32.367   7.380
  610POPC   NC311639  17.692  38.314   9.418
  610POPC   PO411640  17.083  38.603   9.695
  610POPC   GL111641  17.216  38.748   9.218
  610POPC   GL211642  17.517  38.632   9.053
  610POPC   C1A11643  17.187  38.737   8.720
  610POPC   D2A11644  17.381  38.573   8.302
  610POPC   C3A11645  17.482  38.680   7.867
  610POPC   C4A11646  17.200  38.506   7.550
  610POPC   C1B11647  17.430  38.275   8.715
  610POPC   C2B11648  17.526  38.040   8.331
  610POPC   C3B11649  17.459  38.182   7.902
  610POPC   C4B11650  17.517  37.949   7.545
  611POPC   NC311651  41.961  15.228   9.499
  611POPC   PO411652  41.491  14.786   9.390
  611POPC   GL111653  41.580  15.114   9.086
  611POPC   GL211654  41.473  15.459   9.155
  611POPC   C1A11655  41.746  15.179   8.674
  611POPC   D2A11656  41.911  15.129   8.249
  611POPC   C3A11657  41.683  14.869   8.005
  611POPC   C4A11658  41.658  14.981   7.607
  611POPC   C1B11659  41.297  15.384   8.727
  611POPC   C2B11660  41.403  15.230   8.296
  611POPC   C3B11661  41.584  15.387   7.909
  611POPC   C4B11662  41.350  15.369   7.498
  612POPC   NC311663  16.387  20.730   9.563
  612POPC   PO411664  16.236  20.089   9.494
  612POPC   GL111665  16.153  20.422   9.144
  612POPC   GL211666  16.054  20.797   9.152
  612POPC   C1A11667  16.143  20.603   8.701
  612POPC   D2A11668  16.318  20.502   8.332
  612POPC   C3A11669  16.140  20.534   7.933
  612POPC   C4A11670  16.095  20.643   7.506
  612POPC   C1B11671  15.663  20.682   8.854
  612POPC   C2B11672  15.679  20.504   8.438
  612POPC   C3B11673  15.664  20.692   8.040
  612POPC   C4B11674  15.669  20.462   7.703
  613POPC   NC311675  20.287  16.696   9.382
  613POPC   PO411676  20.205  17.236   9.839
  613POPC   GL111677  20.528  17.127   9.332
  613POPC   GL211678  20.747  16.847   9.244
  613POPC   C1A11679  20.521  16.973   8.823
  613POPC   D2A11680  20.430  16.982   8.343
  613POPC   C3A11681  20.428  16.569   8.106
  613POPC   C4A11682  20.322  16.373   7.672
  613POPC   C1B11683  21.019  16.718   8.875
  613POPC   C2B11684  21.070  16.513   8.461
  613POPC   C3B11685  21.015  16.678   8.063
  613POPC   C4B11686  20.787  16.589   7.715
  614POPC   NC311687  27.855  12.181   9.467
  614POPC   PO411688  28.560  12.069   9.587
  614POPC   GL111689  28.306  11.951   9.179
  614POPC   GL211690  28.215  12.236   9.021
  614POPC   C1A11691  28.494  11.889   8.730
  614POPC   D2A11692  28.706  11.945   8.321
  614POPC   C3A11693  28.611  12.156   7.931
  614POPC   C4A11694  28.308  12.109   7.619
  614POPC   C1B11695  28.080  12.140   8.590
  614POPC   C2B11696  28.139  12.243   8.145
  614POPC   C3B11697  28.012  12.497   7.759
  614POPC   C4B11698  28.168  12.518   7.306
  615POPC   NC311699  34.363  31.374   9.364
  615POPC   PO411700  34.742  31.872   9.539
  615POPC   GL111701  34.886  31.688   9.171
  615POPC   GL211702  34.846  31.338   9.179
  615POPC   C1A11703  34.679  31.700   8.769
  615POPC   D2A11704  34.552  31.515   8.397
  615POPC   C3A11705  34.615  31.783   8.067
  615POPC   C4A11706  34.864  31.736   7.734
  615POPC   C1B11707  34.742  31.208   8.780
  615POPC   C2B11708  34.959  31.194   8.373
  615POPC   C3B11709  34.719  31.259   7.992
  615POPC   C4B11710  34.339  31.068   7.900
  616POPC   NC311711   8.860  35.481   9.371
  616POPC   PO411712   9.496  35.389   9.381
  616POPC   GL111713   9.216  35.324   9.037
  616POPC   GL211714   9.104  35.648   8.945
  616POPC   C1A11715   9.162  35.296   8.598
  616POPC   D2A11716   8.976  35.576   8.274
  616POPC   C3A11717   9.141  35.504   7.881
  616POPC   C4A11718   9.178  35.101   7.660
  616POPC   C1B11719   8.712  35.541   8.718
  616POPC   C2B11720   8.695  35.177   8.451
  616POPC   C3B11721   8.768  35.077   8.044
  616POPC   C4B11722   8.726  35.323   7.684
  617POPC   NC311723  38.422  41.210   9.574
  617POPC   PO411724  38.831  41.801   9.666
  617POPC   GL111725  38.529  41.654   9.287
  617POPC   GL211726  38.662  41.366   9.145
  617POPC   C1A11727  38.342  41.549   8.825
  617POPC   D2A11728  38.506  41.465   8.404
  617POPC   C3A11729  38.310  41.600   8.021
  617POPC   C4A11730  38.352  41.748   7.600
  617POPC   C1B11731  38.804  41.215   8.736
  617POPC   C2B11732  39.016  41.312   8.362
  617POPC   C3B11733  38.859  41.540   8.032
  617POPC   C4B11734  38.644  41.328   7.713
  618POPC   NC311735  37.513  11.853   9.410
  618POPC   PO411736  37.819  12.450   9.453
  618POPC   GL111737  37.835  12.149   9.122
  618POPC   GL211738  38.029  11.865   9.286
  618POPC   C1A11739  37.540  12.013   8.760
  618POPC   D2A11740  37.245  12.082   8.390
  618POPC   C3A11741  37.330  11.767   8.079
  618POPC   C4A11742  37.515  11.765   7.682
  618POPC   C1B11743  38.037  11.766   8.856
  618POPC   C2B11744  37.965  12.014   8.479
  618POPC   C3B11745  37.805  12.001   8.059
  618POPC   C4B11746  38.023  12.030   7.702
  619POPC   NC311747  44.248   6.256   9.305
  619POPC   PO411748  43.878   6.831   9.408
  619POPC   GL111749  43.848   6.834   9.010
  619POPC   GL211750  43.939   6.507   8.977
  619POPC   C1A11751  43.869   6.856   8.573
  619POPC   D2A11752  43.905   6.507   8.276
  619POPC   C3A11753  44.000   6.629   7.866
  619POPC   C4A11754  44.059   7.025   7.719
  619POPC   C1B11755  43.856   6.192   8.696
  619POPC   C2B11756  43.545   6.143   8.372
  619POPC   C3B11757  43.601   6.229   7.924
  619POPC   C4B11758  43.949   6.205   7.597
  620POPC   NC311759  44.141  12.152   9.709
  620POPC   PO411760  43.542  11.865   9.528
  620POPC   GL111761  43.904  11.979   9.238
  620POPC   GL211762  44.018  12.297   9.226
  620POPC   C1A11763  44.196  11.943   8.886
  620POPC   D2A11764  44.220  12.002   8.419
  620POPC   C3A11765  43.952  11.788   8.118
  620POPC   C4A11766  43.881  11.687   7.696
  620POPC   C1B11767  43.870  12.318   8.805
  620POPC   C2B11768  43.750  12.407   8.399
  620POPC   C3B11769  43.967  12.354   8.037
  620POPC   C4B11770  43.887  12.326   7.620
  621POPC   NC311771  37.111  37.801   9.618
  621POPC   PO411772  36.739  37.302   9.387
  621POPC   GL111773  36.811  37.439   9.008
  621POPC   GL211774  36.992  37.744   9.106
  621POPC   C1A11775  37.080  37.489   8.646
  621POPC   D2A11776  37.210  37.733   8.289
  621POPC   C3A11777  36.936  37.573   7.965
  621POPC   C4A11778  36.503  37.576   7.848
  621POPC   C1B11779  36.773  37.881   8.731
  621POPC   C2B11780  36.726  37.902   8.291
  621POPC   C3B11781  36.947  38.095   7.935
  621POPC   C4B11782  37.179  38.201   7.545
  622POPC   NC311783   0.647  39.349   9.439
  622POPC   PO411784  44.984  39.567   9.267
  622POPC   GL111785   0.297  39.392   9.071
  622POPC   GL211786   0.356  39.048   9.103
  622POPC   C1A11787   0.404  39.461   8.673
  622POPC   D2A11788   0.080  39.460   8.358
  622POPC   C3A11789   0.243  39.466   7.952
  622POPC   C4A11790   0.380  39.526   7.529
  622POPC   C1B11791   0.537  38.963   8.706
  622POPC   C2B11792   0.539  39.120   8.276
  622POPC   C3B11793   0.505  39.022   7.835
  622POPC   C4B11794   0.767  38.839   7.571
  623POPC   NC311795  24.805  29.404   9.304
  623POPC   PO411796  24.187  29.163   9.564
  623POPC   GL111797  24.384  29.113   9.183
  623POPC   GL211798  24.338  29.458   9.135
  623POPC   C1A11799  24.601  29.066   8.768
  623POPC   D2A11800  24.409  29.150   8.364
  623POPC   C3A11801  24.677  29.094   8.022
  623POPC   C4A11802  24.821  29.130   7.608
  623POPC   C1B11803  24.422  29.533   8.740
  623POPC   C2B11804  24.221  29.614   8.389
  623POPC   C3B11805  24.302  29.513   7.963
  623POPC   C4B11806  24.019  29.544   7.613
  624POPC   NC311807  28.909  27.490   9.579
  624POPC   PO411808  29.124  28.106   9.529
  624POPC   GL111809  29.275  27.835   9.167
  624POPC   GL211810  29.249  27.449   9.205
  624POPC   C1A11811  29.333  27.754   8.701
  624POPC   D2A11812  28.960  27.783   8.428
  624POPC   C3A11813  29.062  27.705   7.988
  624POPC   C4A11814  29.395  27.814   7.694
  624POPC   C1B11815  28.997  27.419   8.830
  624POPC   C2B11816  29.150  27.315   8.383
  624POPC   C3B11817  29.031  27.178   7.968
  624POPC   C4B11818  28.811  27.282   7.665
  625POPC   NC311819  22.230  41.827   9.690
  625POPC   PO411820  21.857  41.385   9.455
  625POPC   GL111821  22.250  41.532   9.243
  625POPC   GL211822  22.244  41.869   9.153
  625POPC   C1A11823  22.413  41.433   8.824
  625POPC   D2A11824  22.170  41.236   8.469
  625POPC   C3A11825  22.207  41.322   8.012
  625POPC   C4A11826  22.193  41.188   7.564
  625POPC   C1B11827  22.330  41.948   8.723
  625POPC   C2B11828  22.461  41.702   8.389
  625POPC   C3B11829  22.339  41.808   7.998
  625POPC   C4B11830  22.131  41.834   7.611
  626POPC   NC311831  43.973  13.773   9.659
  626POPC   PO411832  43.398  13.391   9.541
  626POPC   GL111833  43.659  13.598   9.196
  626POPC   GL211834  44.057  13.579   9.203
  626POPC   C1A11835  43.810  13.599   8.736
  626POPC   D2A11836  43.778  13.790   8.305
  626POPC   C3A11837  43.581  13.631   7.934
  626POPC   C4A11838  43.810  13.727   7.579
  626POPC   C1B11839  44.224  13.310   8.917
  626POPC   C2B11840  44.221  13.250   8.486
  626POPC   C3B11841  44.009  13.370   8.133
  626POPC   C4B11842  44.131  13.328   7.727
  627POPC   NC311843  40.834  37.595   9.496
  627POPC   PO411844  40.204  37.656   9.520
  627POPC   GL111845  40.503  37.817   9.173
  627POPC   GL211846  40.668  37.501   9.020
  627POPC   C1A11847  40.853  37.938   8.857
  627POPC   D2A11848  41.118  37.890   8.449
  627POPC   C3A11849  40.908  37.833   8.032
  627POPC   C4A11850  40.689  37.912   7.607
  627POPC   C1B11851  41.064  37.442   8.754
  627POPC   C2B11852  41.274  37.402   8.345
  627POPC   C3B11853  41.139  37.379   7.898
  627POPC   C4B11854  40.826  37.418   7.567
  628POPC   NC311855  12.387  23.013   9.666
  628POPC   PO411856  12.060  22.485   9.563
  628POPC   GL111857  12.074  22.704   9.178
  628POPC   GL211858  12.245  23.005   9.158
  628POPC   C1A11859  11.926  22.846   8.777
  628POPC   D2A11860  11.878  22.634   8.415
  628POPC   C3A11861  11.995  22.834   8.071
  628POPC   C4A11862  11.879  22.624   7.712
  628POPC   C1B11863  12.153  23.291   8.802
  628POPC   C2B11864  12.137  23.418   8.391
  628POPC   C3B11865  12.227  23.313   7.980
  628POPC   C4B11866  12.082  23.069   7.605
  629POPC   NC311867  20.352  41.367   9.435
  629POPC   PO411868  20.936  41.753   9.328
  629POPC   GL111869  20.545  41.714   9.125
  629POPC   GL211870  20.642  41.342   9.031
  629POPC   C1A11871  20.387  41.647   8.723
  629POPC   D2A11872  20.562  41.399   8.393
  629POPC   C3A11873  20.548  41.658   8.030
  629POPC   C4A11874  20.539  41.855   7.636
  629POPC   C1B11875  21.016  41.272   8.802
  629POPC   C2B11876  21.095  41.385   8.388
  629POPC   C3B11877  20.914  41.284   7.990
  629POPC   C4B11878  20.662  41.378   7.609
  630POPC   NC311879  37.852  17.865   9.337
  630POPC   PO411880  37.394  18.421   9.417
  630POPC   GL111881  37.635  18.315   9.060
  630POPC   GL211882  37.972  18.368   9.213
  630POPC   C1A11883  37.610  18.482   8.618
  630POPC   D2A11884  37.375  18.600   8.224
  630POPC   C3A11885  37.541  18.570   7.819
  630POPC   C4A11886  37.556  18.193   7.572
  630POPC   C1B11887  38.089  18.490   8.792
  630POPC   C2B11888  38.176  18.508   8.356
  630POPC   C3B11889  38.046  18.464   7.930
  630POPC   C4B11890  38.005  18.078   7.732
  631POPC   NC311891  21.523  18.627   9.355
  631POPC   PO411892  21.546  18.009   9.609
  631POPC   GL111893  21.538  18.066   9.143
  631POPC   GL211894  21.790  17.872   8.997
  631POPC   C1A11895  21.337  18.262   8.737
  631POPC   D2A11896  21.118  18.390   8.310
  631POPC   C3A11897  21.459  18.404   8.001
  631POPC   C4A11898  21.608  18.502   7.603
  631POPC   C1B11899  21.668  17.818   8.570
  631POPC   C2B11900  21.253  17.910   8.366
  631POPC   C3B11901  21.140  18.022   7.937
  631POPC   C4B11902  21.535  17.991   7.707
  632POPC   NC311903  28.073  32.638   9.696
  632POPC   PO411904  27.533  32.189   9.407
  632POPC   GL111905  27.688  32.379   9.078
  632POPC   GL211906  27.923  32.626   9.217
  632POPC   C1A11907  27.528  32.254   8.693
  632POPC   D2A11908  27.337  32.347   8.338
  632POPC   C3A11909  27.514  32.185   8.017
  632POPC   C4A11910  27.327  32.176   7.674
  632POPC   C1B11911  28.011  32.638   8.795
  632POPC   C2B11912  27.724  32.663   8.474
  632POPC   C3B11913  27.771  32.631   8.058
  632POPC   C4B11914  27.694  32.512   7.654
  633POPC   NC311915  41.587  42.678   9.535
  633POPC   PO411916  41.235  42.213   9.799
  633POPC   GL111917  41.271  42.382   9.272
  633POPC   GL211918  41.655  42.384   9.124
  633POPC   C1A11919  41.338  42.251   8.773
  633POPC   D2A11920  41.469  42.329   8.359
  633POPC   C3A11921  41.180  42.298   7.991
  633POPC   C4A11922  41.060  42.561   7.652
  633POPC   C1B11923  41.908  42.366   8.717
  633POPC   C2B11924  42.000  42.240   8.308
  633POPC   C3B11925  41.724  42.183   7.950
  633POPC   C4B11926  41.789  42.364   7.536
  634POPC   NC311927  42.886  38.559   9.439
  634POPC   PO411928  43.354  38.148   9.736
  634POPC   GL111929  43.323  38.248   9.265
  634POPC   GL211930  42.998  38.201   9.086
  634POPC   C1A11931  43.412  38.355   8.801
  634POPC   D2A11932  43.180  38.350   8.380
  634POPC   C3A11933  43.403  38.419   7.996
  634POPC   C4A11934  43.225  38.383   7.599
  634POPC   C1B11935  42.899  38.534   8.776
  634POPC   C2B11936  42.864  38.775   8.402
  634POPC   C3B11937  42.964  38.691   8.010
  634POPC   C4B11938  42.766  38.785   7.659
  635POPC   NC311939  26.641  38.539   9.293
  635POPC   PO411940  27.199  38.131   9.501
  635POPC   GL111941  26.989  38.195   9.146
  635POPC   GL211942  27.076  38.444   8.989
  635POPC   C1A11943  26.811  38.079   8.732
  635POPC   D2A11944  26.867  38.262   8.344
  635POPC   C3A11945  26.540  38.259   8.077
  635POPC   C4A11946  26.865  38.206   7.771
  635POPC   C1B11947  26.751  38.607   8.695
  635POPC   C2B11948  26.603  38.713   8.339
  635POPC   C3B11949  26.783  38.682   7.992
  635POPC   C4B11950  26.538  38.564   7.652
  636POPC   NC311951   9.564  32.545   9.561
  636POPC   PO411952  10.115  32.393   9.401
  636POPC   GL111953   9.786  32.428   9.090
  636POPC   GL211954   9.456  32.618   9.071
  636POPC   C1A11955   9.928  32.251   8.693
  636POPC   D2A11956   9.715  31.930   8.461
  636POPC   C3A11957   9.673  32.012   8.027
  636POPC   C4A11958   9.750  31.877   7.602
  636POPC   C1B11959   9.428  32.288   8.762
  636POPC   C2B11960   9.307  32.241   8.340
  636POPC   C3B11961   9.471  32.501   8.040
  636POPC   C4B11962   9.803  32.442   7.773
  637POPC   NC311963  21.684  44.635   9.542
  637POPC   PO411964  21.140   0.027   9.381
  637POPC   GL111965  21.396  44.713   9.129
  637POPC   GL211966  21.608  44.936   9.110
  637POPC   C1A11967  21.424  44.500   8.734
  637POPC   D2A11968  21.357  44.779   8.377
  637POPC   C3A11969  21.172  44.692   7.984
  637POPC   C4A11970  21.308  44.408   7.693
  637POPC   C1B11971  21.748  44.919   8.709
  637POPC   C2B11972  21.891  44.809   8.303
  637POPC   C3B11973  21.702  44.522   8.050
  637POPC   C4B11974  21.800  44.507   7.646
  638POPC   NC311975   7.887  23.974   9.486
  638POPC   PO411976   8.493  23.999   9.730
  638POPC   GL111977   8.430  24.000   9.181
  638POPC   GL211978   8.123  24.163   9.058
  638POPC   C1A11979   8.298  23.822   8.711
  638POPC   D2A11980   8.021  23.759   8.327
  638POPC   C3A11981   8.161  23.793   7.889
  638POPC   C4A11982   8.315  23.509   7.555
  638POPC   C1B11983   8.444  24.300   8.705
  638POPC   C2B11984   8.481  24.087   8.326
  638POPC   C3B11985   8.637  23.939   7.967
  638POPC   C4B11986   8.497  24.111   7.610
  639POPC   NC311987  18.278  29.685   9.439
  639POPC   PO411988  17.973  30.190   9.334
  639POPC   GL111989  18.198  30.018   9.034
  639POPC   GL211990  18.141  29.675   8.958
  639POPC   C1A11991  18.201  30.057   8.618
  639POPC   D2A11992  18.406  29.993   8.272
  639POPC   C3A11993  18.213  30.107   7.907
  639POPC   C4A11994  18.478  30.101   7.555
  639POPC   C1B11995  18.585  29.750   8.780
  639POPC   C2B11996  18.766  29.617   8.364
  639POPC   C3B11997  18.663  29.720   7.933
  639POPC   C4B11998  18.308  29.627   7.659
  640POPC   NC311999   0.719  16.669   9.620
  640POPC   PO412000   1.256  16.252   9.541
  640POPC   GL112001   1.372  16.603   9.275
  640POPC   GL212002   1.085  16.775   9.192
  640POPC   C1A12003   1.413  16.695   8.806
  640POPC   D2A12004   1.328  16.885   8.389
  640POPC   C3A12005   1.376  16.637   7.993
  640POPC   C4A12006   1.648  16.663   7.613
  640POPC   C1B12007   0.942  16.944   8.776
  640POPC   C2B12008   0.798  16.911   8.340
  640POPC   C3B12009   0.994  17.000   7.935
  640POPC   C4B12010   1.175  16.838   7.551
  641POPC   NC312011  12.601  13.418   9.372
  641POPC   PO412012  13.125  13.862   9.427
  641POPC   GL112013  12.948  13.685   9.072
  641POPC   GL212014  13.082  13.365   9.030
  641POPC   C1A12015  12.778  13.554   8.669
  641POPC   D2A12016  12.656  13.737   8.297
  641POPC   C3A12017  12.973  13.740   7.995
  641POPC   C4A12018  12.625  13.760   7.715
  641POPC   C1B12019  13.086  13.109   8.655
  641POPC   C2B12020  13.038  13.234   8.220
  641POPC   C3B12021  12.683  13.296   7.945
  641POPC   C4B12022  12.511  13.312   7.505
  642POPC   NC312023   4.799  13.005   9.485
  642POPC   PO412024   4.086  13.120   9.497
  642POPC   GL112025   4.360  12.842   9.261
  642POPC   GL212026   4.074  12.829   9.051
  642POPC   C1A12027   4.494  12.655   8.843
  642POPC   D2A12028   4.295  12.826   8.452
  642POPC   C3A12029   4.269  12.621   8.020
  642POPC   C4A12030   4.521  12.784   7.645
  642POPC   C1B12031   3.829  12.871   8.694
  642POPC   C2B12032   3.862  13.181   8.393
  642POPC   C3B12033   4.162  13.177   8.095
  642POPC   C4B12034   4.081  13.010   7.722
  643POPC   NC312035  25.467  35.846   9.395
  643POPC   PO412036  25.108  36.331   9.499
  643POPC   GL112037  25.234  36.190   9.094
  643POPC   GL212038  25.594  36.274   9.123
  643POPC   C1A12039  25.092  35.964   8.730
  643POPC   D2A12040  25.232  35.641   8.443
  643POPC   C3A12041  25.150  35.786   8.058
  643POPC   C4A12042  25.041  36.086   7.780
  643POPC   C1B12043  25.617  36.032   8.747
  643POPC   C2B12044  25.441  36.108   8.365
  643POPC   C3B12045  25.503  36.157   7.956
  643POPC   C4B12046  25.379  36.483   7.692
  644POPC   NC312047  21.899  23.932   9.446
  644POPC   PO412048  22.189  23.333   9.420
  644POPC   GL112049  22.063  23.541   9.037
  644POPC   GL212050  21.934  23.867   8.957
  644POPC   C1A12051  22.133  23.489   8.594
  644POPC   D2A12052  22.424  23.220   8.346
  644POPC   C3A12053  22.250  23.257   7.926
  644POPC   C4A12054  22.092  23.678   7.852
  644POPC   C1B12055  22.276  23.988   8.718
  644POPC   C2B12056  22.330  23.887   8.274
  644POPC   C3B12057  22.353  24.128   7.882
  644POPC   C4B12058  21.934  24.164   7.617
  645POPC   NC312059  10.289  20.201   9.715
  645POPC   PO412060  10.569  19.576   9.528
  645POPC   GL112061  10.502  19.727   9.127
  645POPC   GL212062  10.233  19.986   9.164
  645POPC   C1A12063  10.685  19.843   8.730
  645POPC   D2A12064  10.615  20.109   8.334
  645POPC   C3A12065  10.770  19.878   7.993
  645POPC   C4A12066  10.571  19.457   7.892
  645POPC   C1B12067  10.166  19.805   8.739
  645POPC   C2B12068  10.369  19.665   8.361
  645POPC   C3B12069  10.265  19.844   8.009
  645POPC   C4B12070  10.118  19.923   7.637
  646POPC   NC312071  21.831  27.842   9.417
  646POPC   PO412072  22.486  27.643   9.497
  646POPC   GL112073  22.321  27.388   9.156
  646POPC   GL212074  22.652  27.291   9.068
  646POPC   C1A12075  21.998  27.342   8.792
  646POPC   D2A12076  21.787  27.300   8.354
  646POPC   C3A12077  22.014  27.508   7.966
  646POPC   C4A12078  22.221  27.889   7.884
  646POPC   C1B12079  22.504  27.506   8.690
  646POPC   C2B12080  22.432  27.540   8.250
  646POPC   C3B12081  22.525  27.340   7.861
  646POPC   C4B12082  22.516  27.157   7.437
  647POPC   NC312083   6.366  33.732   9.501
  647POPC   PO412084   6.890  34.069   9.336
  647POPC   GL112085   6.803  33.719   9.104
  647POPC   GL212086   6.477  33.877   9.035
  647POPC   C1A12087   6.668  33.523   8.735
  647POPC   D2A12088   6.475  33.755   8.414
  647POPC   C3A12089   6.596  33.588   8.031
  647POPC   C4A12090   6.858  33.540   7.681
  647POPC   C1B12091   6.682  34.134   8.736
  647POPC   C2B12092   6.621  34.313   8.369
  647POPC   C3B12093   6.568  34.101   7.981
  647POPC   C4B12094   6.787  34.138   7.594
  648POPC   NC312095  16.212  35.522   9.413
  648POPC   PO412096  15.802  34.929   9.441
  648POPC   GL112097  16.019  34.974   9.062
  648POPC   GL212098  16.007  35.346   8.978
  648POPC   C1A12099  15.887  34.996   8.622
  648POPC   D2A12100  15.838  35.410   8.478
  648POPC   C3A12101  15.815  35.445   8.063
  648POPC   C4A12102  15.827  35.509   7.633
  648POPC   C1B12103  16.300  35.563   8.709
  648POPC   C2B12104  16.316  35.723   8.282
  648POPC   C3B12105  16.284  35.572   7.846
  648POPC   C4B12106  16.320  35.601   7.401
  649POPC   NC312107  40.265  10.242   9.555
  649POPC   PO412108  39.834   9.714   9.504
  649POPC   GL112109  39.897   9.695   9.092
  649POPC   GL212110  40.182   9.469   9.050
  649POPC   C1A12111  39.802   9.444   8.731
  649POPC   D2A12112  40.026   9.346   8.404
  649POPC   C3A12113  40.124   9.542   8.084
  649POPC   C4A12114  39.924   9.420   7.749
  649POPC   C1B12115  40.201   9.787   8.689
  649POPC   C2B12116  40.178  10.019   8.298
  649POPC   C3B12117  40.237   9.962   7.841
  649POPC   C4B12118  40.389   9.617   7.617
  650POPC   NC312119   9.285  43.891   9.673
  650POPC   PO412120   8.674  43.783   9.653
  650POPC   GL112121   8.874  44.015   9.287
  650POPC   GL212122   9.225  44.122   9.218
  650POPC   C1A12123   8.856  44.078   8.827
  650POPC   D2A12124   9.142  44.097   8.455
  650POPC   C3A12125   8.937  43.940   8.040
  650POPC   C4A12126   8.850  43.570   7.740
  650POPC   C1B12127   9.271  43.767   8.903
  650POPC   C2B12128   9.391  43.666   8.446
  650POPC   C3B12129   9.335  43.616   7.988
  650POPC   C4B12130   9.231  43.886   7.626
  651POPC   NC312131  35.321  21.046   9.713
  651POPC   PO412132  35.433  20.431   9.570
  651POPC   GL112133  35.492  20.489   9.164
  651POPC   GL212134  35.733  20.268   9.132
  651POPC   C1A12135  35.405  20.678   8.752
  651POPC   D2A12136  35.180  20.868   8.383
  651POPC   C3A12137  35.132  20.758   7.927
  651POPC   C4A12138  35.245  20.701   7.453
  651POPC   C1B12139  35.544  20.166   8.727
  651POPC   C2B12140  35.355  20.354   8.314
  651POPC   C3B12141  35.415  20.344   7.839
  651POPC   C4B12142  35.649  20.378   7.436
  652POPC   NC312143  25.049   9.267   9.438
  652POPC   PO412144  24.614   8.832   9.698
  652POPC   GL112145  24.563   9.016   9.284
  652POPC   GL212146  24.480   8.707   9.158
  652POPC   C1A12147  24.540   9.193   8.824
  652POPC   D2A12148  24.812   9.249   8.424
  652POPC   C3A12149  24.655   9.205   7.977
  652POPC   C4A12150  24.643   9.203   7.492
  652POPC   C1B12151  24.664   8.690   8.758
  652POPC   C2B12152  24.788   8.483   8.394
  652POPC   C3B12153  24.810   8.670   8.005
  652POPC   C4B12154  24.513   8.769   7.709
  653POPC   NC312155  29.472  25.920   9.552
  653POPC   PO412156  28.980  26.262   9.569
  653POPC   GL112157  29.128  26.166   9.197
  653POPC   GL212158  29.407  26.373   9.235
  653POPC   C1A12159  28.962  25.979   8.816
  653POPC   D2A12160  28.788  26.093   8.400
  653POPC   C3A12161  29.012  26.123   7.989
  653POPC   C4A12162  29.051  25.778   7.697
  653POPC   C1B12163  29.524  26.097   8.866
  653POPC   C2B12164  29.318  26.003   8.443
  653POPC   C3B12165  29.454  25.874   8.029
  653POPC   C4B12166  29.473  26.126   7.674
  654POPC   NC312167   4.626  30.009   9.349
  654POPC   PO412168   4.087  29.546   9.208
  654POPC   GL112169   3.941  29.875   8.948
  654POPC   GL212170   4.231  30.079   8.996
  654POPC   C1A12171   3.891  30.214   8.643
  654POPC   D2A12172   4.148  30.413   8.312
  654POPC   C3A12173   4.315  30.036   8.113
  654POPC   C4A12174   4.314  29.886   7.725
  654POPC   C1B12175   4.449  30.116   8.605
  654POPC   C2B12176   4.674  30.353   8.219
  654POPC   C3B12177   4.728  30.156   7.759
  654POPC   C4B12178   4.614  30.081   7.279
  655POPC   NC312179  40.725   5.525   9.492
  655POPC   PO412180  40.685   6.110   9.485
  655POPC   GL112181  40.739   6.111   9.075
  655POPC   GL212182  41.083   6.169   9.112
  655POPC   C1A12183  40.721   6.156   8.623
  655POPC   D2A12184  40.813   5.789   8.372
  655POPC   C3A12185  40.619   5.859   8.000
  655POPC   C4A12186  40.743   5.704   7.653
  655POPC   C1B12187  41.153   5.916   8.733
  655POPC   C2B12188  41.267   6.052   8.318
  655POPC   C3B12189  41.123   5.884   7.948
  655POPC   C4B12190  41.193   5.929   7.520
  656POPC   NC312191  21.808  12.099   9.604
  656POPC   PO412192  22.394  12.130   9.379
  656POPC   GL112193  22.173  12.038   8.988
  656POPC   GL212194  21.893  11.877   9.135
  656POPC   C1A12195  22.236  11.981   8.513
  656POPC   D2A12196  22.234  12.239   8.155
  656POPC   C3A12197  22.418  12.279   7.755
  656POPC   C4A12198  22.349  12.473   7.362
  656POPC   C1B12199  21.749  11.869   8.701
  656POPC   C2B12200  21.862  11.589   8.361
  656POPC   C3B12201  22.109  11.756   8.040
  656POPC   C4B12202  21.976  12.028   7.728
  657POPC   NC312203  13.405  17.168   9.563
  657POPC   PO412204  13.395  16.508   9.745
  657POPC   GL112205  13.649  16.670   9.352
  657POPC   GL212206  13.602  16.976   9.134
  657POPC   C1A12207  13.625  16.526   8.906
  657POPC   D2A12208  13.514  16.335   8.518
  657POPC   C3A12209  13.493  16.467   8.094
  657POPC   C4A12210  13.673  16.506   7.681
  657POPC   C1B12211  13.847  16.962   8.773
  657POPC   C2B12212  13.587  16.874   8.410
  657POPC   C3B12213  13.637  16.944   7.966
  657POPC   C4B12214  13.530  16.974   7.507
  658POPC   NC312215  38.083  26.737   9.474
  658POPC   PO412216  37.469  26.941   9.569
  658POPC   GL112217  37.645  26.674   9.226
  658POPC   GL212218  37.783  26.959   9.112
  658POPC   C1A12219  37.810  26.614   8.759
  658POPC   D2A12220  37.599  26.488   8.367
  658POPC   C3A12221  37.430  26.506   7.911
  658POPC   C4A12222  37.548  26.820   7.511
  658POPC   C1B12223  38.005  27.075   8.748
  658POPC   C2B12224  37.846  27.019   8.364
  658POPC   C3B12225  37.798  26.858   7.961
  658POPC   C4B12226  38.043  26.881   7.576
  659POPC   NC312227  39.285  32.749   9.568
  659POPC   PO412228  39.006  33.402   9.535
  659POPC   GL112229  39.258  33.144   9.222
  659POPC   GL212230  39.471  33.414   9.090
  659POPC   C1A12231  39.250  32.807   8.856
  659POPC   D2A12232  39.441  32.791   8.404
  659POPC   C3A12233  39.308  32.953   8.000
  659POPC   C4A12234  38.934  32.941   7.760
  659POPC   C1B12235  39.228  33.307   8.734
  659POPC   C2B12236  39.011  33.149   8.382
  659POPC   C3B12237  38.949  33.373   8.005
  659POPC   C4B12238  39.281  33.404   7.748
  660POPC   NC312239  36.653  39.551   9.402
  660POPC   PO412240  37.054  40.087   9.471
  660POPC   GL112241  36.856  39.943   9.118
  660POPC   GL212242  37.142  40.081   8.957
  660POPC   C1A12243  36.896  39.703   8.736
  660POPC   D2A12244  36.713  39.836   8.327
  660POPC   C3A12245  36.869  39.969   7.912
  660POPC   C4A12246  36.757  39.800   7.526
  660POPC   C1B12247  36.883  40.202   8.653
  660POPC   C2B12248  36.989  40.298   8.274
  660POPC   C3B12249  37.032  40.462   7.861
  660POPC   C4B12250  36.906  40.311   7.459
  661POPC   NC312251  22.687  11.008   9.564
  661POPC   PO412252  22.841  10.390   9.704
  661POPC   GL112253  22.889  10.598   9.292
  661POPC   GL212254  23.145  10.425   9.109
  661POPC   C1A12255  22.774  10.681   8.841
  661POPC   D2A12256  22.968  10.530   8.452
  661POPC   C3A12257  22.955  10.697   8.010
  661POPC   C4A12258  22.791  10.742   7.535
  661POPC   C1B12259  22.914  10.139   8.825
  661POPC   C2B12260  23.032   9.943   8.425
  661POPC   C3B12261  23.146  10.204   8.097
  661POPC   C4B12262  22.898  10.279   7.712
  662POPC   NC312263   9.185   8.166   9.548
  662POPC   PO412264   8.799   8.649   9.345
  662POPC   GL112265   9.000   8.325   9.113
  662POPC   GL212266   8.944   7.963   9.130
  662POPC   C1A12267   8.991   8.252   8.704
  662POPC   D2A12268   9.172   8.058   8.374
  662POPC   C3A12269   9.066   8.227   7.981
  662POPC   C4A12270   9.227   8.039   7.598
  662POPC   C1B12271   8.906   7.742   8.712
  662POPC   C2B12272   8.748   7.740   8.261
  662POPC   C3B12273   8.801   7.835   7.795
  662POPC   C4B12274   8.866   7.818   7.297
  663POPC   NC312275   0.308  42.221   9.520
  663POPC   PO412276   0.067  42.790   9.614
  663POPC   GL112277   0.336  42.634   9.207
  663POPC   GL212278   0.575  42.312   9.111
  663POPC   C1A12279   0.376  42.579   8.733
  663POPC   D2A12280   0.605  42.469   8.365
  663POPC   C3A12281   0.441  42.415   7.968
  663POPC   C4A12282   0.614  42.562   7.574
  663POPC   C1B12283   0.284  42.077   8.839
  663POPC   C2B12284   0.443  41.970   8.431
  663POPC   C3B12285   0.598  41.902   8.037
  663POPC   C4B12286   0.550  42.038   7.622
  664POPC   NC312287   8.805  26.091   9.537
  664POPC   PO412288   9.467  26.013   9.540
  664POPC   GL112289   9.181  26.053   9.157
  664POPC   GL212290   8.801  26.040   9.050
  664POPC   C1A12291   9.186  26.228   8.751
  664POPC   D2A12292   9.256  26.059   8.344
  664POPC   C3A12293   9.111  26.312   8.004
  664POPC   C4A12294   9.138  26.176   7.594
  664POPC   C1B12295   8.802  25.907   8.649
  664POPC   C2B12296   8.754  25.973   8.235
  664POPC   C3B12297   8.964  25.807   7.908
  664POPC   C4B12298   8.680  26.017   7.664
  665POPC   NC312299  34.345  32.909   9.583
  665POPC   PO412300  33.662  33.096   9.565
  665POPC   GL112301  33.731  32.898   9.199
  665POPC   GL212302  34.046  33.100   9.193
  665POPC   C1A12303  33.633  33.025   8.784
  665POPC   D2A12304  33.736  33.285   8.447
  665POPC   C3A12305  33.578  33.132   8.086
  665POPC   C4A12306  33.465  33.285   7.699
  665POPC   C1B12307  34.142  32.826   8.856
  665POPC   C2B12308  33.981  32.811   8.441
  665POPC   C3B12309  34.087  32.991   8.075
  665POPC   C4B12310  33.885  32.983   7.704
  666POPC   NC312311   0.666  29.212   9.390
  666POPC   PO412312   0.201  28.801   9.506
  666POPC   GL112313   0.339  28.856   9.110
  666POPC   GL212314   0.660  28.701   9.066
  666POPC   C1A12315   0.161  28.812   8.688
  666POPC   D2A12316   0.122  29.136   8.403
  666POPC   C3A12317   0.210  29.049   7.983
  666POPC   C4A12318   0.187  29.341   7.672
  666POPC   C1B12319   0.676  28.932   8.719
  666POPC   C2B12320   0.554  28.820   8.321
  666POPC   C3B12321   0.738  28.930   7.957
  666POPC   C4B12322   0.582  28.922   7.544
  667POPC   NC312323   6.807  11.477   9.519
  667POPC   PO412324   6.167  11.172   9.373
  667POPC   GL112325   6.552  11.278   9.108
  667POPC   GL212326   6.941  11.217   9.084
  667POPC   C1A12327   6.621  11.539   8.752
  667POPC   D2A12328   6.353  11.664   8.403
  667POPC   C3A12329   6.553  11.552   8.024
  667POPC   C4A12330   6.906  11.496   7.731
  667POPC   C1B12331   6.880  10.981   8.710
  667POPC   C2B12332   6.640  10.853   8.333
  667POPC   C3B12333   6.708  11.059   7.935
  667POPC   C4B12334   6.829  11.074   7.486
  668POPC   NC312335  19.481  24.458   9.418
  668POPC   PO412336  20.151  24.250   9.409
  668POPC   GL112337  19.875  24.444   9.095
  668POPC   GL212338  19.601  24.208   8.987
  668POPC   C1A12339  19.793  24.718   8.750
  668POPC   D2A12340  19.975  24.678   8.361
  668POPC   C3A12341  19.762  24.629   7.989
  668POPC   C4A12342  19.872  24.693   7.600
  668POPC   C1B12343  19.869  24.199   8.638
  668POPC   C2B12344  19.909  24.176   8.211
  668POPC   C3B12345  19.588  24.154   7.921
  668POPC   C4B12346  19.576  24.284   7.537
  669POPC   NC312347  11.117  34.463   9.379
  669POPC   PO412348  11.650  34.985   9.451
  669POPC   GL112349  11.395  34.958   9.036
  669POPC   GL212350  11.114  34.772   9.012
  669POPC   C1A12351  11.407  34.592   8.685
  669POPC   D2A12352  11.279  34.382   8.300
  669POPC   C3A12353  11.458  34.512   7.899
  669POPC   C4A12354  11.426  34.600   7.462
  669POPC   C1B12355  10.916  34.485   8.700
  669POPC   C2B12356  10.730  34.441   8.290
  669POPC   C3B12357  10.962  34.604   7.929
  669POPC   C4B12358  10.923  34.707   7.503
  670POPC   NC312359  24.552  44.540   9.738
  670POPC   PO412360  24.020  44.977   9.662
  670POPC   GL112361  24.229  44.818   9.244
  670POPC   GL212362  24.386  44.469   9.232
  670POPC   C1A12363  24.256  44.863   8.761
  670POPC   D2A12364  24.456   0.040   8.355
  670POPC   C3A12365  24.382  44.851   7.947
  670POPC   C4A12366  24.122  44.476   7.800
  670POPC   C1B12367  24.413  44.350   8.786
  670POPC   C2B12368  24.440  44.496   8.354
  670POPC   C3B12369  24.650  44.402   7.975
  670POPC   C4B12370  24.583  44.297   7.580
  671POPC   NC312371  41.487   1.579   9.480
  671POPC   PO412372  41.010   1.145   9.423
  671POPC   GL112373  41.403   0.985   9.169
  671POPC   GL212374  41.698   1.236   9.117
  671POPC   C1A12375  41.597   0.939   8.729
  671POPC   D2A12376  41.682   1.215   8.358
  671POPC   C3A12377  41.675   1.000   7.956
  671POPC   C4A12378  41.408   0.730   7.721
  671POPC   C1B12379  41.890   1.507   8.758
  671POPC   C2B12380  41.925   1.690   8.327
  671POPC   C3B12381  41.701   1.693   7.919
  671POPC   C4B12382  41.672   1.612   7.457
  672POPC   NC312383  37.984   7.158   9.449
  672POPC   PO412384  37.488   7.612   9.338
  672POPC   GL112385  37.646   7.296   9.077
  672POPC   GL212386  37.941   7.452   9.032
  672POPC   C1A12387  37.707   7.231   8.620
  672POPC   D2A12388  37.905   7.143   8.224
  672POPC   C3A12389  37.640   7.210   7.895
  672POPC   C4A12390  37.701   7.144   7.461
  672POPC   C1B12391  37.893   7.693   8.642
  672POPC   C2B12392  37.703   7.632   8.214
  672POPC   C3B12393  37.638   7.690   7.759
  672POPC   C4B12394  37.893   7.627   7.395
  673POPC   NC312395  15.457  21.176   9.641
  673POPC   PO412396  15.367  21.836   9.611
  673POPC   GL112397  15.156  21.460   9.333
  673POPC   GL212398  15.386  21.262   9.142
  673POPC   C1A12399  14.911  21.388   8.918
  673POPC   D2A12400  14.791  21.360   8.447
  673POPC   C3A12401  15.000  21.643   8.138
  673POPC   C4A12402  15.200  21.459   7.755
  673POPC   C1B12403  15.389  21.460   8.751
  673POPC   C2B12404  15.378  21.376   8.325
  673POPC   C3B12405  15.571  21.659   8.039
  673POPC   C4B12406  15.733  21.600   7.675
  674POPC   NC312407  26.594  18.847   9.481
  674POPC   PO412408  27.183  19.261   9.647
  674POPC   GL112409  26.929  19.149   9.222
  674POPC   GL212410  26.579  19.139   9.065
  674POPC   C1A12411  26.968  19.191   8.730
  674POPC   D2A12412  26.924  19.472   8.347
  674POPC   C3A12413  26.733  19.350   7.957
  674POPC   C4A12414  26.882  19.194   7.568
  674POPC   C1B12415  26.590  18.879   8.668
  674POPC   C2B12416  26.813  18.961   8.290
  674POPC   C3B12417  26.913  18.744   7.938
  674POPC   C4B12418  26.724  18.713   7.569
  675POPC   NC312419  44.697   6.180   9.691
  675POPC   PO412420   0.098   5.778   9.370
  675POPC   GL112421  44.909   5.870   9.006
  675POPC   GL212422  44.576   5.759   9.021
  675POPC   C1A12423  44.776   5.986   8.586
  675POPC   D2A12424  44.564   5.967   8.224
  675POPC   C3A12425  44.790   6.150   7.935
  675POPC   C4A12426  44.815   6.054   7.505
  675POPC   C1B12427  44.693   5.477   8.695
  675POPC   C2B12428  44.504   5.488   8.319
  675POPC   C3B12429  44.657   5.518   7.888
  675POPC   C4B12430  44.730   5.138   7.689
  676POPC   NC312431  33.210  20.733   9.667
  676POPC   PO412432  32.909  20.112   9.489
  676POPC   GL112433  33.063  20.355   9.108
  676POPC   GL212434  33.192  20.710   9.167
  676POPC   C1A12435  32.881  20.634   8.771
  676POPC   D2A12436  32.684  20.781   8.393
  676POPC   C3A12437  32.896  20.723   7.972
  676POPC   C4A12438  32.782  20.707   7.505
  676POPC   C1B12439  33.416  20.598   8.800
  676POPC   C2B12440  33.260  20.790   8.427
  676POPC   C3B12441  33.415  20.731   8.044
  676POPC   C4B12442  33.276  20.744   7.617
  677POPC   NC312443   0.043  25.593   9.401
  677POPC   PO412444  44.686  26.091   9.660
  677POPC   GL112445  44.664  26.228   9.246
  677POPC   GL212446  44.649  25.875   9.171
  677POPC   C1A12447  44.550  26.277   8.793
  677POPC   D2A12448  44.781  26.199   8.395
  677POPC   C3A12449  44.512  26.183   8.030
  677POPC   C4A12450  44.446  26.333   7.615
  677POPC   C1B12451  44.883  25.882   8.797
  677POPC   C2B12452   0.028  25.688   8.419
  677POPC   C3B12453  44.970  25.844   8.027
  677POPC   C4B12454  44.699  25.847   7.683
  678POPC   NC312455  11.978  40.848   9.636
  678POPC   PO412456  11.770  40.305   9.385
  678POPC   GL112457  12.049  40.627   9.141
  678POPC   GL212458  12.042  40.987   9.150
  678POPC   C1A12459  12.323  40.668   8.793
  678POPC   D2A12460  12.182  40.613   8.400
  678POPC   C3A12461  12.219  40.874   8.159
  678POPC   C4A12462  12.277  40.835   7.770
  678POPC   C1B12463  11.871  40.875   8.731
  678POPC   C2B12464  11.736  40.920   8.316
  678POPC   C3B12465  11.803  40.687   7.913
  678POPC   C4B12466  11.912  40.730   7.459
  679POPC   NC312467  20.787   0.357   9.482
  679POPC   PO412468  20.117   0.254   9.401
  679POPC   GL112469  20.246   0.507   9.081
  679POPC   GL212470  20.545   0.688   9.163
  679POPC   C1A12471  20.521   0.391   8.718
  679POPC   D2A12472  20.704   0.363   8.286
  679POPC   C3A12473  20.548   0.304   7.875
  679POPC   C4A12474  20.659   0.275   7.416
  679POPC   C1B12475  20.758   0.878   8.797
  679POPC   C2B12476  20.903   1.002   8.384
  679POPC   C3B12477  20.849   0.793   8.026
  679POPC   C4B12478  20.937   0.610   7.679
  680POPC   NC312479  35.198  32.636   9.506
  680POPC   PO412480  35.488  33.233   9.463
  680POPC   GL112481  35.359  32.967   9.147
  680POPC   GL212482  35.382  33.264   8.958
  680POPC   C1A12483  35.184  32.849   8.757
  680POPC   D2A12484  35.045  33.171   8.471
  680POPC   C3A12485  35.208  33.136   8.062
  680POPC   C4A12486  35.346  33.361   7.684
  680POPC   C1B12487  35.757  33.044   8.819
  680POPC   C2B12488  35.843  32.792   8.501
  680POPC   C3B12489  35.839  32.816   8.094
  680POPC   C4B12490  35.599  32.934   7.734
  681POPC   NC312491   1.320  32.866   9.571
  681POPC   PO412492   0.753  33.235   9.478
  681POPC   GL112493   1.120  33.178   9.163
  681POPC   GL212494   1.463  32.999   9.110
  681POPC   C1A12495   1.158  33.158   8.711
  681POPC   D2A12496   0.886  32.925   8.437
  681POPC   C3A12497   1.023  32.795   8.069
  681POPC   C4A12498   0.986  32.944   7.673
  681POPC   C1B12499   1.630  32.829   8.756
  681POPC   C2B12500   1.430  32.876   8.364
  681POPC   C3B12501   1.496  32.974   7.941
  681POPC   C4B12502   1.557  32.726   7.598
  682POPC   NC312503  31.131  44.919   9.414
  682POPC   PO412504  31.130  44.254   9.600
  682POPC   GL112505  31.374  44.464   9.232
  682POPC   GL212506  31.304  44.731   8.979
  682POPC   C1A12507  31.551  44.296   8.830
  682POPC   D2A12508  31.731  44.378   8.395
  682POPC   C3A12509  31.461  44.443   8.021
  682POPC   C4A12510  31.376  44.443   7.554
  682POPC   C1B12511  31.698  44.783   8.749
  682POPC   C2B12512  31.982  44.866   8.452
  682POPC   C3B12513  31.930  44.746   8.052
  682POPC   C4B12514  31.635  44.841   7.723
  683POPC   NC312515   8.317  39.320   9.622
  683POPC   PO412516   7.744  39.374   9.574
  683POPC   GL112517   7.989  39.084   9.279
  683POPC   GL212518   8.360  38.922   9.286
  683POPC   C1A12519   8.037  39.097   8.828
  683POPC   D2A12520   7.814  39.195   8.438
  683POPC   C3A12521   8.028  39.272   8.031
  683POPC   C4A12522   7.901  39.332   7.595
  683POPC   C1B12523   8.537  38.969   8.856
  683POPC   C2B12524   8.376  38.950   8.400
  683POPC   C3B12525   8.523  39.093   7.971
  683POPC   C4B12526   8.544  39.500   7.697
  684POPC   NC312527  25.269  17.901   9.825
  684POPC   PO412528  25.306  18.462   9.446
  684POPC   GL112529  25.240  18.366   9.012
  684POPC   GL212530  24.907  18.515   9.026
  684POPC   C1A12531  25.125  18.267   8.604
  684POPC   D2A12532  25.154  18.651   8.397
  684POPC   C3A12533  25.331  18.654   7.983
  684POPC   C4A12534  25.084  18.548   7.630
  684POPC   C1B12535  24.673  18.536   8.644
  684POPC   C2B12536  24.746  18.397   8.258
  684POPC   C3B12537  25.015  18.196   7.962
  684POPC   C4B12538  24.917  18.089   7.490
  685POPC   NC312539  13.016  18.738   9.252
  685POPC   PO412540  12.940  19.209   9.682
  685POPC   GL112541  12.710  19.256   9.207
  685POPC   GL212542  12.535  18.924   9.143
  685POPC   C1A12543  12.741  19.223   8.736
  685POPC   D2A12544  13.162  19.104   8.541
  685POPC   C3A12545  13.118  18.967   8.112
  685POPC   C4A12546  13.044  18.911   7.700
  685POPC   C1B12547  12.517  18.750   8.770
  685POPC   C2B12548  12.769  18.788   8.439
  685POPC   C3B12549  12.650  18.788   8.019
  685POPC   C4B12550  12.604  18.594   7.618
  686POPC   NC312551  28.534  26.244   9.674
  686POPC   PO412552  28.000  25.941   9.545
  686POPC   GL112553  28.145  26.327   9.284
  686POPC   GL212554  28.506  26.404   9.202
  686POPC   C1A12555  28.080  26.349   8.803
  686POPC   D2A12556  28.250  26.164   8.416
  686POPC   C3A12557  28.037  26.115   8.001
  686POPC   C4A12558  28.103  25.995   7.571
  686POPC   C1B12559  28.618  26.444   8.772
  686POPC   C2B12560  28.579  26.551   8.355
  686POPC   C3B12561  28.531  26.307   7.991
  686POPC   C4B12562  28.612  26.032   7.620
  687POPC   NC312563  22.614  42.733   9.868
  687POPC   PO412564  22.256  43.197   9.568
  687POPC   GL112565  22.256  43.004   9.157
  687POPC   GL212566  21.966  43.114   8.977
  687POPC   C1A12567  22.395  43.108   8.720
  687POPC   D2A12568  22.130  43.090   8.362
  687POPC   C3A12569  22.341  43.179   7.968
  687POPC   C4A12570  22.497  43.066   7.565
  687POPC   C1B12571  21.714  42.783   8.819
  687POPC   C2B12572  21.707  42.674   8.391
  687POPC   C3B12573  21.742  42.958   8.037
  687POPC   C4B12574  21.890  43.232   7.687
  688POPC   NC312575  38.729  17.929   9.333
  688POPC   PO412576  39.061  17.331   9.403
  688POPC   GL112577  39.017  17.600   9.059
  688POPC   GL212578  38.669  17.534   8.980
  688POPC   C1A12579  39.171  17.728   8.646
  688POPC   D2A12580  39.521  17.656   8.370
  688POPC   C3A12581  39.567  17.284   8.149
  688POPC   C4A12582  39.332  17.435   7.834
  688POPC   C1B12583  38.911  17.292   8.664
  688POPC   C2B12584  39.026  17.320   8.218
  688POPC   C3B12585  39.001  17.090   7.777
  688POPC   C4B12586  39.023  17.268   7.323
  689POPC   NC312587  36.830   9.685   9.555
  689POPC   PO412588  36.530  10.327   9.488
  689POPC   GL112589  36.642   9.999   9.190
  689POPC   GL212590  37.010  10.007   9.171
  689POPC   C1A12591  36.653   9.697   8.831
  689POPC   D2A12592  36.528   9.774   8.394
  689POPC   C3A12593  36.754   9.638   8.041
  689POPC   C4A12594  36.749   9.709   7.573
  689POPC   C1B12595  37.188   9.761   8.864
  689POPC   C2B12596  37.072   9.667   8.458
  689POPC   C3B12597  37.244   9.812   8.074
  689POPC   C4B12598  37.368   9.756   7.704
  690POPC   NC312599   0.514   2.153   9.596
  690POPC   PO412600   0.707   1.656   9.221
  690POPC   GL112601   0.671   2.062   9.111
  690POPC   GL212602   0.314   2.081   9.135
  690POPC   C1A12603   0.626   2.094   8.692
  690POPC   D2A12604   0.532   1.872   8.383
  690POPC   C3A12605   0.605   2.160   8.105
  690POPC   C4A12606   0.750   2.168   7.730
  690POPC   C1B12607   0.175   1.843   8.777
  690POPC   C2B12608   0.016   1.921   8.380
  690POPC   C3B12609   0.196   1.848   7.994
  690POPC   C4B12610   0.049   1.712   7.638
  691POPC   NC312611  18.249   6.206   9.666
  691POPC   PO412612  18.140   6.887   9.586
  691POPC   GL112613  18.216   6.723   9.189
  691POPC   GL212614  18.015   6.424   9.190
  691POPC   C1A12615  18.412   6.814   8.766
  691POPC   D2A12616  18.659   6.811   8.378
  691POPC   C3A12617  18.439   7.074   8.068
  691POPC   C4A12618  18.225   6.880   7.724
  691POPC   C1B12619  18.374   6.315   8.913
  691POPC   C2B12620  18.432   6.328   8.471
  691POPC   C3B12621  18.337   6.342   8.032
  691POPC   C4B12622  18.619   6.172   7.754
  692POPC   NC312623  40.652  11.751   9.479
  692POPC   PO412624  40.808  11.112   9.439
  692POPC   GL112625  40.913  11.446   9.139
  692POPC   GL212626  40.601  11.546   8.995
  692POPC   C1A12627  41.129  11.360   8.749
  692POPC   D2A12628  41.203  11.021   8.429
  692POPC   C3A12629  41.143  11.196   8.013
  692POPC   C4A12630  41.046  11.320   7.623
  692POPC   C1B12631  40.647  11.168   8.696
  692POPC   C2B12632  40.682  11.136   8.233
  692POPC   C3B12633  40.651  11.045   7.771
  692POPC   C4B12634  40.794  10.990   7.339
  693POPC   NC312635  23.718  29.095   9.603
  693POPC   PO412636  23.554  29.774   9.592
  693POPC   GL112637  23.509  29.445   9.267
  693POPC   GL212638  23.845  29.352   9.161
  693POPC   C1A12639  23.454  29.305   8.823
  693POPC   D2A12640  23.725  29.369   8.450
  693POPC   C3A12641  23.625  29.167   8.057
  693POPC   C4A12642  23.571  29.313   7.646
  693POPC   C1B12643  24.040  29.138   8.789
  693POPC   C2B12644  23.955  28.882   8.398
  693POPC   C3B12645  24.023  28.817   7.971
  693POPC   C4B12646  24.271  29.073   7.705
  694POPC   NC312647  27.624   5.511   9.562
  694POPC   PO412648  27.188   6.070   9.521
  694POPC   GL112649  27.312   6.012   9.095
  694POPC   GL212650  27.658   5.859   9.084
  694POPC   C1A12651  27.228   6.315   8.785
  694POPC   D2A12652  27.318   6.333   8.333
  694POPC   C3A12653  27.398   5.949   8.109
  694POPC   C4A12654  27.486   5.889   7.679
  694POPC   C1B12655  27.595   5.998   8.637
  694POPC   C2B12656  27.850   6.088   8.283
  694POPC   C3B12657  27.928   5.806   7.942
  694POPC   C4B12658  28.010   5.384   7.780
  695POPC   NC312659  17.830  22.684   9.348
  695POPC   PO412660  18.360  23.060   9.424
  695POPC   GL112661  18.187  22.930   9.087
  695POPC   GL212662  17.943  23.158   8.974
  695POPC   C1A12663  18.319  22.901   8.703
  695POPC   D2A12664  18.188  22.945   8.303
  695POPC   C3A12665  18.417  23.025   7.951
  695POPC   C4A12666  18.182  23.334   7.734
  695POPC   C1B12667  17.800  22.844   8.654
  695POPC   C2B12668  17.772  22.673   8.218
  695POPC   C3B12669  17.939  22.822   7.823
  695POPC   C4B12670  17.715  23.127   7.570
  696POPC   NC312671  19.024  11.051   9.531
  696POPC   PO412672  19.660  11.298   9.492
  696POPC   GL112673  19.347  11.289   9.217
  696POPC   GL212674  19.334  10.959   9.154
  696POPC   C1A12675  19.059  11.421   8.908
  696POPC   D2A12676  18.915  11.424   8.486
  696POPC   C3A12677  19.222  11.329   8.189
  696POPC   C4A12678  19.353  10.992   7.930
  696POPC   C1B12679  19.242  10.973   8.710
  696POPC   C2B12680  18.974  10.907   8.343
  696POPC   C3B12681  18.845  11.027   7.928
  696POPC   C4B12682  19.046  10.888   7.524
  697POPC   NC312683  18.657  25.025   9.415
  697POPC   PO412684  18.025  25.410   9.438
  697POPC   GL112685  18.287  25.407   9.091
  697POPC   GL212686  18.254  25.063   9.077
  697POPC   C1A12687  18.483  25.291   8.682
  697POPC   D2A12688  18.821  25.297   8.375
  697POPC   C3A12689  18.600  25.340   7.983
  697POPC   C4A12690  18.582  25.698   7.688
  697POPC   C1B12691  18.033  25.060   8.647
  697POPC   C2B12692  18.073  25.398   8.368
  697POPC   C3B12693  18.171  25.597   8.011
  697POPC   C4B12694  18.180  25.381   7.644
  698POPC   NC312695  19.660   7.749   9.392
  698POPC   PO412696  20.024   7.206   9.550
  698POPC   GL112697  20.018   7.377   9.159
  698POPC   GL212698  19.710   7.233   9.100
  698POPC   C1A12699  19.900   7.486   8.721
  698POPC   D2A12700  19.796   7.802   8.457
  698POPC   C3A12701  19.920   7.704   8.046
  698POPC   C4A12702  19.602   7.706   7.755
  698POPC   C1B12703  19.601   7.071   8.672
  698POPC   C2B12704  19.632   7.211   8.240
  698POPC   C3B12705  19.717   7.164   7.778
  698POPC   C4B12706  19.986   7.031   7.412
  699POPC   NC312707  21.804   8.026   9.281
  699POPC   PO412708  22.393   7.803   9.421
  699POPC   GL112709  22.289   8.097   9.106
  699POPC   GL212710  22.255   8.429   9.200
  699POPC   C1A12711  22.224   8.120   8.697
  699POPC   D2A12712  22.461   7.949   8.364
  699POPC   C3A12713  22.229   7.982   8.001
  699POPC   C4A12714  22.022   8.246   7.715
  699POPC   C1B12715  22.355   8.626   8.800
  699POPC   C2B12716  22.228   8.519   8.369
  699POPC   C3B12717  22.387   8.505   7.948
  699POPC   C4B12718  22.365   8.542   7.476
  700POPC   NC312719  18.145   4.609   9.437
  700POPC   PO412720  18.584   4.075   9.472
  700POPC   GL112721  18.384   4.222   9.108
  700POPC   GL212722  18.596   4.522   9.132
  700POPC   C1A12723  18.190   4.148   8.668
  700POPC   D2A12724  17.924   4.210   8.261
  700POPC   C3A12725  18.036   4.001   7.857
  700POPC   C4A12726  18.131   4.209   7.449
  700POPC   C1B12727  18.677   4.344   8.696
  700POPC   C2B12728  18.485   4.372   8.264
  700POPC   C3B12729  18.519   4.279   7.800
  700POPC   C4B12730  18.575   4.410   7.348
  701POPC   NC312731   6.126  27.394   9.697
  701POPC   PO412732   5.718  27.751   9.378
  701POPC   GL112733   5.756  27.513   9.061
  701POPC   GL212734   6.008  27.274   9.193
  701POPC   C1A12735   5.777  27.714   8.629
  701POPC   D2A12736   5.880  27.895   8.230
  701POPC   C3A12737   5.705  27.626   7.969
  701POPC   C4A12738   5.616  27.528   7.564
  701POPC   C1B12739   6.153  27.380   8.749
  701POPC   C2B12740   6.139  27.449   8.273
  701POPC   C3B12741   6.139  27.429   7.815
  701POPC   C4B12742   5.940  27.181   7.450
  702POPC   NC312743  17.386   5.708   9.580
  702POPC   PO412744  17.798   6.189   9.582
  702POPC   GL112745  17.528   6.089   9.212
  702POPC   GL212746  17.503   5.733   9.104
  702POPC   C1A12747  17.359   6.087   8.786
  702POPC   D2A12748  17.478   5.964   8.365
  702POPC   C3A12749  17.311   5.772   7.983
  702POPC   C4A12750  17.534   5.787   7.567
  702POPC   C1B12751  17.686   5.651   8.741
  702POPC   C2B12752  17.495   5.461   8.397
  702POPC   C3B12753  17.667   5.383   8.026
  702POPC   C4B12754  17.421   5.312   7.699
  703POPC   NC312755  41.879  33.002   9.771
  703POPC   PO412756  42.435  32.972   9.528
  703POPC   GL112757  42.278  33.160   9.186
  703POPC   GL212758  41.956  33.024   9.190
  703POPC   C1A12759  42.403  33.203   8.777
  703POPC   D2A12760  42.598  32.936   8.507
  703POPC   C3A12761  42.563  33.013   8.100
  703POPC   C4A12762  42.717  33.020   7.729
  703POPC   C1B12763  42.036  32.835   8.776
  703POPC   C2B12764  42.117  32.936   8.339
  703POPC   C3B12765  42.075  32.958   7.900
  703POPC   C4B12766  42.221  33.201   7.551
  704POPC   NC312767   7.194  20.159   9.579
  704POPC   PO412768   7.614  20.633   9.613
  704POPC   GL112769   7.572  20.673   9.181
  704POPC   GL212770   7.253  20.836   9.171
  704POPC   C1A12771   7.597  20.660   8.732
  704POPC   D2A12772   7.385  20.832   8.368
  704POPC   C3A12773   7.612  20.784   7.975
  704POPC   C4A12774   7.624  20.392   7.783
  704POPC   C1B12775   7.113  20.608   8.823
  704POPC   C2B12776   7.004  20.479   8.414
  704POPC   C3B12777   7.154  20.557   8.003
  704POPC   C4B12778   7.208  20.789   7.633
  705POPC   NC312779  16.524   4.543   9.467
  705POPC   PO412780  16.890   3.956   9.481
  705POPC   GL112781  16.802   3.972   9.081
  705POPC   GL212782  16.518   4.146   9.148
  705POPC   C1A12783  16.843   4.314   8.797
  705POPC   D2A12784  17.031   4.454   8.445
  705POPC   C3A12785  16.980   4.196   8.115
  705POPC   C4A12786  16.922   4.397   7.776
  705POPC   C1B12787  16.321   4.243   8.783
  705POPC   C2B12788  16.525   4.155   8.418
  705POPC   C3B12789  16.468   4.121   8.005
  705POPC   C4B12790  16.667   3.953   7.653
  706POPC   NC312791  41.515  28.761   9.360
  706POPC   PO412792  41.876  28.216   9.505
  706POPC   GL112793  41.648  28.274   9.123
  706POPC   GL212794  41.264  28.345   9.163
  706POPC   C1A12795  41.740  28.543   8.777
  706POPC   D2A12796  41.648  28.812   8.424
  706POPC   C3A12797  41.330  28.613   8.149
  706POPC   C4A12798  41.533  28.437   7.789
  706POPC   C1B12799  41.196  28.005   8.845
  706POPC   C2B12800  41.167  27.868   8.405
  706POPC   C3B12801  41.519  27.775   8.108
  706POPC   C4B12802  41.647  27.942   7.680
  707POPC   NC312803  32.854  41.849   9.569
  707POPC   PO412804  33.377  41.397   9.391
  707POPC   GL112805  33.134  41.716   9.112
  707POPC   GL212806  32.737  41.760   9.100
  707POPC   C1A12807  32.989  41.662   8.666
  707POPC   D2A12808  32.838  41.345   8.389
  707POPC   C3A12809  33.166  41.238   8.116
  707POPC   C4A12810  33.190  41.400   7.697
  707POPC   C1B12811  32.575  41.951   8.753
  707POPC   C2B12812  32.606  41.832   8.320
  707POPC   C3B12813  32.920  41.741   8.020
  707POPC   C4B12814  32.820  41.752   7.579
  708POPC   NC312815   3.912  29.119   9.304
  708POPC   PO412816   3.234  29.003   9.485
  708POPC   GL112817   3.285  29.177   9.095
  708POPC   GL212818   3.585  29.130   8.911
  708POPC   C1A12819   3.087  29.245   8.707
  708POPC   D2A12820   2.960  29.085   8.312
  708POPC   C3A12821   3.336  28.992   8.152
  708POPC   C4A12822   3.442  29.006   7.739
  708POPC   C1B12823   3.890  29.201   8.559
  708POPC   C2B12824   3.835  29.147   8.106
  708POPC   C3B12825   3.710  29.425   7.793
  708POPC   C4B12826   3.429  29.579   7.480
  709POPC   NC312827  11.284  42.229   9.581
  709POPC   PO412828  11.271  42.804   9.575
  709POPC   GL112829  11.096  42.480   9.201
  709POPC   GL212830  10.911  42.119   9.231
  709POPC   C1A12831  11.074  42.544   8.779
  709POPC   D2A12832  11.318  42.597   8.405
  709POPC   C3A12833  11.318  42.416   8.022
  709POPC   C4A12834  11.259  42.627   7.633
  709POPC   C1B12835  11.182  42.031   8.865
  709POPC   C2B12836  11.277  42.079   8.442
  709POPC   C3B12837  11.230  41.918   8.025
  709POPC   C4B12838  11.154  42.142   7.626
  710POPC   NC312839   0.392  13.203   9.289
  710POPC   PO412840   0.408  13.842   9.422
  710POPC   GL112841   0.467  13.670   9.031
  710POPC   GL212842   0.798  13.686   8.870
  710POPC   C1A12843   0.341  13.858   8.688
  710POPC   D2A12844   0.282  13.808   8.291
  710POPC   C3A12845   0.580  13.619   8.034
  710POPC   C4A12846   0.459  13.781   7.641
  710POPC   C1B12847   0.583  13.444   8.533
  710POPC   C2B12848   0.722  13.082   8.315
  710POPC   C3B12849   0.815  13.013   7.892
  710POPC   C4B12850   0.676  13.324   7.618
  711POPC   NC312851  29.827  24.752   9.683
  711POPC   PO412852  30.258  24.314   9.634
  711POPC   GL112853  30.100  24.328   9.192
  711POPC   GL212854  30.208  24.628   9.088
  711POPC   C1A12855  29.851  24.462   8.785
  711POPC   D2A12856  29.652  24.296   8.401
  711POPC   C3A12857  29.821  24.322   7.978
  711POPC   C4A12858  29.589  24.391   7.574
  711POPC   C1B12859  30.351  24.353   8.744
  711POPC   C2B12860  30.190  24.416   8.352
  711POPC   C3B12861  30.163  24.692   8.018
  711POPC   C4B12862  30.033  24.620   7.586
  712POPC   NC312863  18.623   1.932   9.481
  712POPC   PO412864  18.114   1.466   9.695
  712POPC   GL112865  18.226   1.690   9.274
  712POPC   GL212866  18.124   2.018   9.284
  712POPC   C1A12867  18.423   1.796   8.825
  712POPC   D2A12868  18.191   1.922   8.473
  712POPC   C3A12869  18.326   2.041   8.075
  712POPC   C4A12870  18.396   1.783   7.738
  712POPC   C1B12871  18.006   2.178   8.871
  712POPC   C2B12872  17.918   2.333   8.432
  712POPC   C3B12873  17.810   2.150   7.965
  712POPC   C4B12874  17.709   2.222   7.475
  713POPC   NC312875   4.936  36.304   9.577
  713POPC   PO412876   5.290  35.776   9.356
  713POPC   GL112877   4.958  35.978   9.172
  713POPC   GL212878   5.054  36.297   9.083
  713POPC   C1A12879   4.791  35.976   8.766
  713POPC   D2A12880   5.026  35.828   8.404
  713POPC   C3A12881   5.018  36.092   8.048
  713POPC   C4A12882   4.883  35.997   7.625
  713POPC   C1B12883   5.297  36.115   8.749
  713POPC   C2B12884   5.534  35.876   8.470
  713POPC   C3B12885   5.516  35.967   8.057
  713POPC   C4B12886   5.377  36.116   7.657
  714POPC   NC312887  36.445  19.720   9.547
  714POPC   PO412888  35.907  20.089   9.575
  714POPC   GL112889  36.081  19.891   9.182
  714POPC   GL212890  36.402  19.768   9.045
  714POPC   C1A12891  36.102  20.062   8.758
  714POPC   D2A12892  36.429  20.177   8.476
  714POPC   C3A12893  36.232  20.112   8.095
  714POPC   C4A12894  35.825  20.070   7.874
  714POPC   C1B12895  36.309  19.550   8.670
  714POPC   C2B12896  36.035  19.671   8.336
  714POPC   C3B12897  36.071  19.626   7.909
  714POPC   C4B12898  36.425  19.593   7.656
  715POPC   NC312899  37.233  42.334   9.450
  715POPC   PO412900  36.622  42.614   9.647
  715POPC   GL112901  36.602  42.407   9.234
  715POPC   GL212902  36.899  42.531   9.118
  715POPC   C1A12903  36.630  42.133   8.840
  715POPC   D2A12904  36.507  42.241   8.397
  715POPC   C3A12905  36.674  42.260   7.994
  715POPC   C4A12906  36.812  42.601   7.760
  715POPC   C1B12907  37.106  42.309   8.792
  715POPC   C2B12908  37.035  42.090   8.426
  715POPC   C3B12909  37.182  42.206   8.055
  715POPC   C4B12910  37.043  42.160   7.640
  716POPC   NC312911   4.253  21.541   9.693
  716POPC   PO412912   3.737  21.107   9.759
  716POPC   GL112913   4.075  21.209   9.299
  716POPC   GL212914   4.308  21.478   9.183
  716POPC   C1A12915   4.152  21.106   8.838
  716POPC   D2A12916   4.452  21.162   8.469
  716POPC   C3A12917   4.318  21.357   8.071
  716POPC   C4A12918   4.568  21.472   7.684
  716POPC   C1B12919   4.186  21.631   8.773
  716POPC   C2B12920   4.391  21.763   8.408
  716POPC   C3B12921   4.224  21.855   8.015
  716POPC   C4B12922   4.109  21.648   7.683
  717POPC   NC312923  32.220  36.509   9.776
  717POPC   PO412924  32.457  35.882   9.422
  717POPC   GL112925  32.171  35.974   9.099
  717POPC   GL212926  32.073  36.354   9.021
  717POPC   C1A12927  32.200  35.977   8.689
  717POPC   D2A12928  32.470  36.142   8.394
  717POPC   C3A12929  32.253  36.125   8.042
  717POPC   C4A12930  32.209  35.874   7.697
  717POPC   C1B12931  32.128  36.500   8.620
  717POPC   C2B12932  31.981  36.661   8.243
  717POPC   C3B12933  31.987  36.504   7.834
  717POPC   C4B12934  32.382  36.390   7.612
  718POPC   NC312935  26.731   5.961   9.573
  718POPC   PO412936  26.583   5.285   9.653
  718POPC   GL112937  26.628   5.555   9.260
  718POPC   GL212938  26.321   5.763   9.237
  718POPC   C1A12939  26.790   5.900   8.944
  718POPC   D2A12940  27.053   5.908   8.575
  718POPC   C3A12941  26.897   6.023   8.187
  718POPC   C4A12942  26.999   5.787   7.811
  718POPC   C1B12943  26.380   5.607   8.813
  718POPC   C2B12944  26.479   5.918   8.524
  718POPC   C3B12945  26.436   5.829   8.094
  718POPC   C4B12946  26.589   6.072   7.738
  719POPC   NC312947  14.783  24.237   9.431
  719POPC   PO412948  14.253  24.678   9.447
  719POPC   GL112949  14.379  24.613   9.038
  719POPC   GL212950  14.345  24.243   9.035
  719POPC   C1A12951  14.196  24.514   8.613
  719POPC   D2A12952  14.019  24.212   8.277
  719POPC   C3A12953  14.325  24.256   7.957
  719POPC   C4A12954  14.387  24.670   7.775
  719POPC   C1B12955  14.731  24.342   8.783
  719POPC   C2B12956  14.849  24.293   8.385
  719POPC   C3B12957  14.795  24.447   7.996
  719POPC   C4B12958  14.718  24.254   7.611
  720POPC   NC312959  44.121   3.174   9.625
  720POPC   PO412960  43.703   2.730   9.583
  720POPC   GL112961  43.788   2.843   9.145
  720POPC   GL212962  43.792   2.541   8.947
  720POPC   C1A12963  43.755   3.015   8.689
  720POPC   D2A12964  43.608   3.105   8.226
  720POPC   C3A12965  43.625   2.731   7.989
  720POPC   C4A12966  43.800   2.542   7.624
  720POPC   C1B12967  44.146   2.670   8.746
  720POPC   C2B12968  44.229   2.756   8.332
  720POPC   C3B12969  44.249   2.534   7.945
  720POPC   C4B12970  44.272   2.365   7.506
  721POPC   NC312971   7.829   0.634   9.541
  721POPC   PO412972   7.398   0.126   9.506
  721POPC   GL112973   7.505   0.441   9.201
  721POPC   GL212974   7.249   0.628   9.145
  721POPC   C1A12975   7.676   0.581   8.808
  721POPC   D2A12976   7.834   0.678   8.375
  721POPC   C3A12977   7.545   0.564   8.030
  721POPC   C4A12978   7.403   0.685   7.637
  721POPC   C1B12979   7.182   0.363   8.778
  721POPC   C2B12980   7.230   0.310   8.332
  721POPC   C3B12981   7.053   0.394   7.911
  721POPC   C4B12982   7.063   0.121   7.549
  722POPC   NC312983  41.036   7.115   9.524
  722POPC   PO412984  40.681   7.562   9.953
  722POPC   GL112985  40.827   7.573   9.445
  722POPC   GL212986  40.592   7.536   9.132
  722POPC   C1A12987  41.077   7.583   9.020
  722POPC   D2A12988  41.103   7.315   8.639
  722POPC   C3A12989  41.075   7.467   8.185
  722POPC   C4A12990  40.786   7.560   7.822
  722POPC   C1B12991  40.575   7.247   8.755
  722POPC   C2B12992  40.322   7.090   8.409
  722POPC   C3B12993  40.419   7.237   8.003
  722POPC   C4B12994  40.584   7.155   7.572
  723POPC   NC312995  21.902   7.326   9.443
  723POPC   PO412996  22.426   7.052   9.327
  723POPC   GL112997  22.283   7.328   9.043
  723POPC   GL212998  22.054   7.625   9.054
  723POPC   C1A12999  22.125   7.235   8.653
  723POPC   D2A13000  22.136   7.545   8.323
  723POPC   C3A13001  22.149   7.447   7.871
  723POPC   C4A13002  21.816   7.443   7.594
  723POPC   C1B13003  21.738   7.550   8.734
  723POPC   C2B13004  21.656   7.260   8.416
  723POPC   C3B13005  21.701   7.444   8.080
  723POPC   C4B13006  21.751   7.854   7.867
  724POPC   NC313007  22.712   7.451   9.378
  724POPC   PO413008  23.127   6.897   9.514
  724POPC   GL113009  23.052   7.184   9.133
  724POPC   GL213010  22.777   7.108   8.976
  724POPC   C1A13011  23.059   7.476   8.766
  724POPC   D2A13012  22.876   7.607   8.374
  724POPC   C3A13013  23.038   7.373   8.023
  724POPC   C4A13014  23.121   7.221   7.597
  724POPC   C1B13015  22.633   7.187   8.593
  724POPC   C2B13016  22.538   7.274   8.184
  724POPC   C3B13017  22.599   7.632   7.943
  724POPC   C4B13018  22.577   7.436   7.561
  725POPC   NC313019   6.333   9.098   9.329
  725POPC   PO413020   5.817   8.700   9.583
  725POPC   GL113021   5.901   8.804   9.189
  725POPC   GL213022   5.817   9.144   9.197
  725POPC   C1A13023   5.964   8.711   8.775
  725POPC   D2A13024   6.068   8.902   8.403
  725POPC   C3A13025   5.833   8.925   8.043
  725POPC   C4A13026   5.984   8.952   7.661
  725POPC   C1B13027   5.986   9.246   8.781
  725POPC   C2B13028   5.826   9.350   8.374
  725POPC   C3B13029   6.014   9.400   7.944
  725POPC   C4B13030   5.753   9.390   7.565
  726POPC   NC313031   0.801   3.109   9.536
  726POPC   PO413032   0.169   2.997   9.623
  726POPC   GL113033   0.391   2.884   9.238
  726POPC   GL213034   0.536   2.561   9.272
  726POPC   C1A13035   0.650   2.928   8.849
  726POPC   D2A13036   0.516   2.739   8.429
  726POPC   C3A13037   0.563   3.013   8.086
  726POPC   C4A13038   0.762   2.995   7.687
  726POPC   C1B13039   0.382   2.495   8.869
  726POPC   C2B13040   0.098   2.410   8.547
  726POPC   C3B13041   0.146   2.398   8.104
  726POPC   C4B13042   0.464   2.583   7.832
  727POPC   NC313043  21.245  10.530   9.641
  727POPC   PO413044  20.807  10.088   9.331
  727POPC   GL113045  21.149  10.189   9.060
  727POPC   GL213046  21.368  10.477   9.139
  727POPC   C1A13047  21.254  10.159   8.621
  727POPC   D2A13048  21.551  10.342   8.321
  727POPC   C3A13049  21.452  10.318   7.885
  727POPC   C4A13050  21.139  10.349   7.563
  727POPC   C1B13051  21.420  10.663   8.721
  727POPC   C2B13052  21.127  10.642   8.361
  727POPC   C3B13053  21.115  10.759   7.929
  727POPC   C4B13054  21.493  10.780   7.719
  728POPC   NC313055  15.782  29.611   9.287
  728POPC   PO413056  16.056  30.081   9.668
  728POPC   GL113057  15.926  30.169   9.250
  728POPC   GL213058  15.572  30.162   9.285
  728POPC   C1A13059  16.079  30.167   8.809
  728POPC   D2A13060  16.119  30.371   8.398
  728POPC   C3A13061  16.159  30.036   8.083
  728POPC   C4A13062  15.927  29.767   7.767
  728POPC   C1B13063  15.496  30.086   8.858
  728POPC   C2B13064  15.623  30.254   8.474
  728POPC   C3B13065  15.654  30.109   8.057
  728POPC   C4B13066  15.885  30.333   7.713
  729POPC   NC313067   9.651  30.060   9.442
  729POPC   PO413068  10.130  29.578   9.600
  729POPC   GL113069   9.932  29.687   9.208
  729POPC   GL213070  10.205  29.856   9.086
  729POPC   C1A13071   9.790  29.980   8.824
  729POPC   D2A13072   9.491  30.171   8.535
  729POPC   C3A13073   9.742  30.225   8.174
  729POPC   C4A13074   9.822  29.928   7.824
  729POPC   C1B13075  10.101  29.568   8.747
  729POPC   C2B13076   9.916  29.736   8.360
  729POPC   C3B13077  10.100  29.546   8.010
  729POPC   C4B13078  10.123  29.580   7.570
  730POPC   NC313079  14.208  11.060   9.544
  730POPC   PO413080  14.571  11.557   9.332
  730POPC   GL113081  14.261  11.288   9.085
  730POPC   GL213082  14.266  10.894   9.080
  730POPC   C1A13083  14.124  11.396   8.680
  730POPC   D2A13084  14.436  11.340   8.367
  730POPC   C3A13085  14.261  11.221   8.026
  730POPC   C4A13086  14.106  11.452   7.760
  730POPC   C1B13087  13.960  10.902   8.760
  730POPC   C2B13088  13.939  10.992   8.340
  730POPC   C3B13089  13.946  10.800   7.927
  730POPC   C4B13090  14.127  10.999   7.561
  731POPC   NC313091  13.086   8.906   9.328
  731POPC   PO413092  12.642   9.338   9.616
  731POPC   GL113093  12.682   9.202   9.182
  731POPC   GL213094  12.471   8.907   9.259
  731POPC   C1A13095  12.963   9.194   8.760
  731POPC   D2A13096  13.219   8.961   8.460
  731POPC   C3A13097  13.113   9.092   8.053
  731POPC   C4A13098  13.059   9.247   7.627
  731POPC   C1B13099  12.644   8.794   8.858
  731POPC   C2B13100  12.627   8.905   8.436
  731POPC   C3B13101  12.482   8.785   8.025
  731POPC   C4B13102  12.785   8.838   7.717
  732POPC   NC313103  40.418   7.154   9.822
  732POPC   PO413104  39.937   7.445   9.469
  732POPC   GL113105  39.870   7.508   9.090
  732POPC   GL213106  40.133   7.750   9.061
  732POPC   C1A13107  39.677   7.325   8.763
  732POPC   D2A13108  39.813   7.030   8.454
  732POPC   C3A13109  39.858   7.115   8.037
  732POPC   C4A13110  40.032   7.351   7.733
  732POPC   C1B13111  40.146   7.513   8.662
  732POPC   C2B13112  40.025   7.572   8.230
  732POPC   C3B13113  40.282   7.767   7.898
  732POPC   C4B13114  40.368   7.622   7.481
  733POPC   NC313115  32.733  19.637   9.460
  733POPC   PO413116  33.375  19.613   9.211
  733POPC   GL113117  33.080  19.843   8.999
  733POPC   GL213118  32.721  19.928   9.048
  733POPC   C1A13119  33.064  19.725   8.569
  733POPC   D2A13120  32.809  19.505   8.279
  733POPC   C3A13121  32.901  19.655   7.861
  733POPC   C4A13122  33.305  19.834   7.694
  733POPC   C1B13123  32.798  20.140   8.643
  733POPC   C2B13124  33.064  20.338   8.359
  733POPC   C3B13125  33.182  20.291   7.945
  733POPC   C4B13126  32.861  20.172   7.734
  734POPC   NC313127  25.766  33.627   9.508
  734POPC   PO413128  26.318  33.999   9.441
  734POPC   GL113129  26.049  33.871   9.102
  734POPC   GL213130  25.711  33.930   9.113
  734POPC   C1A13131  25.959  33.961   8.676
  734POPC   D2A13132  26.238  33.800   8.422
  734POPC   C3A13133  26.091  33.760   8.040
  734POPC   C4A13134  26.285  33.722   7.684
  734POPC   C1B13135  25.668  33.566   8.847
  734POPC   C2B13136  25.808  33.505   8.395
  734POPC   C3B13137  25.641  33.551   7.945
  734POPC   C4B13138  25.801  33.731   7.533
  735POPC   NC313139  24.593  15.688   9.572
  735POPC   PO413140  24.409  16.262   9.691
  735POPC   GL113141  24.253  16.083   9.300
  735POPC   GL213142  24.521  15.934   9.111
  735POPC   C1A13143  24.146  16.289   8.903
  735POPC   D2A13144  24.276  16.415   8.496
  735POPC   C3A13145  24.397  16.075   8.213
  735POPC   C4A13146  24.198  16.099   7.857
  735POPC   C1B13147  24.355  15.890   8.685
  735POPC   C2B13148  24.180  15.609   8.359
  735POPC   C3B13149  24.249  15.598   7.915
  735POPC   C4B13150  24.571  15.840   7.653
  736POPC   NC313151  34.899  31.451   9.675
  736POPC   PO413152  35.545  31.500   9.439
  736POPC   GL113153  35.360  31.363   9.114
  736POPC   GL213154  35.665  31.199   9.007
  736POPC   C1A13155  35.150  31.505   8.753
  736POPC   D2A13156  35.054  31.711   8.357
  736POPC   C3A13157  35.189  31.475   8.013
  736POPC   C4A13158  35.073  31.289   7.643
  736POPC   C1B13159  35.688  31.530   8.765
  736POPC   C2B13160  35.526  31.409   8.397
  736POPC   C3B13161  35.687  31.493   8.008
  736POPC   C4B13162  35.507  31.587   7.582
  737POPC   NC313163  25.484  36.613   9.520
  737POPC   PO413164  25.104  37.129   9.503
  737POPC   GL113165  24.997  36.859   9.168
  737POPC   GL213166  25.290  36.693   9.063
  737POPC   C1A13167  25.006  36.936   8.713
  737POPC   D2A13168  24.899  36.771   8.297
  737POPC   C3A13169  25.023  37.108   8.043
  737POPC   C4A13170  25.047  37.234   7.633
  737POPC   C1B13171  25.365  36.539   8.647
  737POPC   C2B13172  25.416  36.848   8.290
  737POPC   C3B13173  25.486  36.976   7.846
  737POPC   C4B13174  25.704  36.827   7.488
  738POPC   NC313175   4.235  32.504   9.312
  738POPC   PO413176   4.541  32.047   9.717
  738POPC   GL113177   4.643  32.169   9.241
  738POPC   GL213178   4.660  32.500   9.013
  738POPC   C1A13179   4.428  32.091   8.823
  738POPC   D2A13180   4.432  32.044   8.371
  738POPC   C3A13181   4.183  32.310   8.083
  738POPC   C4A13182   4.023  32.199   7.645
  738POPC   C1B13183   4.862  32.284   8.654
  738POPC   C2B13184   4.915  32.048   8.236
  738POPC   C3B13185   4.630  32.139   7.848
  738POPC   C4B13186   4.453  32.353   7.452
  739POPC   NC313187  23.282  18.243   9.465
  739POPC   PO413188  22.649  18.588   9.606
  739POPC   GL113189  22.905  18.596   9.238
  739POPC   GL213190  22.923  18.266   9.129
  739POPC   C1A13191  22.988  18.650   8.802
  739POPC   D2A13192  22.850  18.440   8.447
  739POPC   C3A13193  22.862  18.641   8.091
  739POPC   C4A13194  22.904  18.374   7.710
  739POPC   C1B13195  23.112  18.145   8.783
  739POPC   C2B13196  23.014  17.923   8.439
  739POPC   C3B13197  23.086  17.997   8.035
  739POPC   C4B13198  22.922  17.849   7.711
  740POPC   NC313199   9.023  22.777   9.760
  740POPC   PO413200   8.426  23.017   9.551
  740POPC   GL113201   8.876  22.957   9.308
  740POPC   GL213202   9.020  22.653   9.149
  740POPC   C1A13203   9.039  23.082   8.890
  740POPC   D2A13204   8.834  23.057   8.485
  740POPC   C3A13205   9.005  23.241   8.126
  740POPC   C4A13206   9.072  23.011   7.743
  740POPC   C1B13207   9.013  22.596   8.693
  740POPC   C2B13208   9.143  22.718   8.246
  740POPC   C3B13209   9.019  22.494   7.872
  740POPC   C4B13210   8.618  22.510   7.666
  741POPC   NC313211   9.871  44.601   9.725
  741POPC   PO413212   9.591   0.077   9.524
  741POPC   GL113213   9.573  44.684   9.272
  741POPC   GL213214   9.921  44.584   9.222
  741POPC   C1A13215   9.604  44.697   8.820
  741POPC   D2A13216   9.570  44.962   8.475
  741POPC   C3A13217   9.460  44.795   8.121
  741POPC   C4A13218   9.521  44.526   7.803
  741POPC   C1B13219  10.002  44.382   8.862
  741POPC   C2B13220  10.072  44.428   8.468
  741POPC   C3B13221   9.944  44.580   8.084
  741POPC   C4B13222   9.961  44.345   7.689
  742POPC   NC313223  10.038   6.445   9.432
  742POPC   PO413224   9.389   6.802   9.469
  742POPC   GL113225   9.666   6.821   9.140
  742POPC   GL213226   9.940   7.021   9.305
  742POPC   C1A13227   9.721   6.492   8.825
  742POPC   D2A13228   9.776   6.308   8.430
  742POPC   C3A13229   9.678   6.563   8.086
  742POPC   C4A13230   9.811   6.488   7.683
  742POPC   C1B13231  10.076   6.987   8.871
  742POPC   C2B13232   9.881   6.839   8.470
  742POPC   C3B13233  10.026   6.912   8.016
  742POPC   C4B13234  10.087   6.930   7.588
  743POPC   NC313235  15.702  17.460   9.574
  743POPC   PO413236  15.822  17.927   9.181
  743POPC   GL113237  15.826  17.511   9.040
  743POPC   GL213238  16.192  17.469   9.090
  743POPC   C1A13239  15.654  17.495   8.614
  743POPC   D2A13240  15.419  17.604   8.243
  743POPC   C3A13241  15.679  17.474   7.941
  743POPC   C4A13242  15.802  17.157   7.684
  743POPC   C1B13243  16.153  17.573   8.629
  743POPC   C2B13244  16.151  17.404   8.175
  743POPC   C3B13245  16.237  17.497   7.712
  743POPC   C4B13246  16.275  17.850   7.346
  744POPC   NC313247  43.176  44.876   9.850
  744POPC   PO413248  43.371  44.452   9.416
  744POPC   GL113249  43.121  44.700   9.138
  744POPC   GL213250  42.933  44.415   8.905
  744POPC   C1A13251  43.062  44.876   8.746
  744POPC   D2A13252  42.952  44.634   8.396
  744POPC   C3A13253  43.240  44.737   8.083
  744POPC   C4A13254  43.177  44.969   7.703
  744POPC   C1B13255  43.330  44.392   8.783
  744POPC   C2B13256  43.399  44.332   8.391
  744POPC   C3B13257  43.086  44.233   8.084
  744POPC   C4B13258  43.088  44.447   7.692
  745POPC   NC313259  39.868  25.045   9.824
  745POPC   PO413260  40.308  25.427   9.552
  745POPC   GL113261  40.093  25.437   9.170
  745POPC   GL213262  40.425  25.509   9.052
  745POPC   C1A13263  39.980  25.292   8.751
  745POPC   D2A13264  40.067  25.089   8.374
  745POPC   C3A13265  39.888  25.327   8.058
  745POPC   C4A13266  39.859  25.271   7.647
  745POPC   C1B13267  40.277  25.732   8.700
  745POPC   C2B13268  40.318  25.529   8.306
  745POPC   C3B13269  40.364  25.336   7.904
  745POPC   C4B13270  40.238  25.579   7.598
  746POPC   NC313271   5.074  31.104   9.435
  746POPC   PO413272   5.354  31.712   9.412
  746POPC   GL113273   4.996  31.772   9.156
  746POPC   GL213274   4.940  31.430   9.079
  746POPC   C1A13275   4.846  31.782   8.723
  746POPC   D2A13276   4.929  31.536   8.371
  746POPC   C3A13277   5.179  31.649   8.026
  746POPC   C4A13278   5.114  31.952   7.699
  746POPC   C1B13279   5.260  31.360   8.755
  746POPC   C2B13280   5.227  31.124   8.354
  746POPC   C3B13281   4.937  31.164   7.989
  746POPC   C4B13282   5.105  31.352   7.621
  747POPC   NC313283  11.986   4.214   9.617
  747POPC   PO413284  12.187   4.892   9.652
  747POPC   GL113285  12.125   4.534   9.232
  747POPC   GL213286  12.170   4.128   9.165
  747POPC   C1A13287  12.161   4.436   8.761
  747POPC   D2A13288  12.316   4.541   8.332
  747POPC   C3A13289  11.986   4.689   8.044
  747POPC   C4A13290  11.814   4.603   7.635
  747POPC   C1B13291  12.395   3.957   8.823
  747POPC   C2B13292  12.227   4.015   8.440
  747POPC   C3B13293  11.997   4.171   8.089
  747POPC   C4B13294  12.211   4.291   7.726
  748POPC   NC313295  12.149  38.029   9.823
  748POPC   PO413296  12.040  38.594   9.365
  748POPC   GL113297  12.187  38.412   9.052
  748POPC   GL213298  11.849  38.435   8.931
  748POPC   C1A13299  12.236  38.165   8.732
  748POPC   D2A13300  12.453  38.319   8.427
  748POPC   C3A13301  12.196  38.432   8.116
  748POPC   C4A13302  12.155  38.274   7.721
  748POPC   C1B13303  11.695  38.118   8.720
  748POPC   C2B13304  11.858  38.031   8.347
  748POPC   C3B13305  11.727  38.162   7.962
  748POPC   C4B13306  11.802  37.950   7.560
  749POPC   NC313307  41.258  11.301   9.501
  749POPC   PO413308  41.918  11.566   9.399
  749POPC   GL113309  41.647  11.296   9.204
  749POPC   GL213310  41.456  11.585   9.112
  749POPC   C1A13311  41.603  11.090   8.814
  749POPC   D2A13312  41.810  10.960   8.437
  749POPC   C3A13313  41.610  11.015   8.069
  749POPC   C4A13314  41.569  11.165   7.665
  749POPC   C1B13315  41.398  11.794   8.736
  749POPC   C2B13316  41.356  11.621   8.314
  749POPC   C3B13317  41.499  11.602   7.891
  749POPC   C4B13318  41.398  11.572   7.405
  750POPC   NC313319  21.487  20.845   9.515
  750POPC   PO413320  20.879  20.558   9.587
  750POPC   GL113321  21.191  20.389   9.247
  750POPC   GL213322  21.534  20.544   9.108
  750POPC   C1A13323  21.145  20.469   8.811
  750POPC   D2A13324  21.079  20.714   8.487
  750POPC   C3A13325  21.311  20.649   8.134
  750POPC   C4A13326  21.209  20.759   7.718
  750POPC   C1B13327  21.583  20.704   8.663
  750POPC   C2B13328  21.777  20.498   8.309
  750POPC   C3B13329  21.770  20.626   7.885
  750POPC   C4B13330  21.689  20.718   7.453
  751POPC   NC313331  11.910  38.155   9.387
  751POPC   PO413332  12.263  37.620   9.608
  751POPC   GL113333  12.124  37.720   9.224
  751POPC   GL213334  12.353  37.945   9.208
  751POPC   C1A13335  11.970  37.704   8.811
  751POPC   D2A13336  11.836  37.504   8.423
  751POPC   C3A13337  12.006  37.636   8.030
  751POPC   C4A13338  11.897  37.463   7.655
  751POPC   C1B13339  12.502  37.732   8.847
  751POPC   C2B13340  12.324  37.757   8.429
  751POPC   C3B13341  12.420  37.953   8.049
  751POPC   C4B13342  12.306  37.801   7.637
  752POPC   NC313343  13.237  19.625   9.224
  752POPC   PO413344  13.846  19.613   9.553
  752POPC   GL113345  13.744  19.812   9.204
  752POPC   GL213346  13.995  20.013   9.095
  752POPC   C1A13347  13.738  19.650   8.795
  752POPC   D2A13348  13.570  19.785   8.411
  752POPC   C3A13349  13.682  19.488   8.084
  752POPC   C4A13350  13.464  19.238   7.776
  752POPC   C1B13351  13.683  20.156   8.803
  752POPC   C2B13352  13.873  20.243   8.408
  752POPC   C3B13353  13.901  19.976   8.076
  752POPC   C4B13354  13.690  19.867   7.722
  753POPC   NC313355  34.396  17.941   9.510
  753POPC   PO413356  34.985  18.142   9.490
  753POPC   GL113357  34.748  18.092   9.116
  753POPC   GL213358  34.406  18.231   9.083
  753POPC   C1A13359  34.761  18.326   8.728
  753POPC   D2A13360  34.804  18.125   8.331
  753POPC   C3A13361  34.941  18.323   7.980
  753POPC   C4A13362  34.651  18.174   7.698
  753POPC   C1B13363  34.184  18.215   8.674
  753POPC   C2B13364  34.305  18.194   8.220
  753POPC   C3B13365  34.134  18.192   7.820
  753POPC   C4B13366  34.264  18.258   7.372
  754POPC   NC313367  31.150  25.693   9.415
  754POPC   PO413368  30.605  26.095   9.493
  754POPC   GL113369  30.608  26.081   9.066
  754POPC   GL213370  30.693  25.752   9.110
  754POPC   C1A13371  30.517  26.146   8.617
  754POPC   D2A13372  30.345  25.853   8.283
  754POPC   C3A13373  30.456  26.022   7.868
  754POPC   C4A13374  30.799  26.320   7.775
  754POPC   C1B13375  30.610  25.665   8.719
  754POPC   C2B13376  30.908  25.676   8.396
  754POPC   C3B13377  30.915  25.726   7.966
  754POPC   C4B13378  30.604  25.549   7.748
  755POPC   NC313379   5.127  37.092   9.513
  755POPC   PO413380   4.606  36.626   9.514
  755POPC   GL113381   4.938  36.784   9.161
  755POPC   GL213382   5.276  37.035   9.049
  755POPC   C1A13383   4.887  36.988   8.759
  755POPC   D2A13384   5.215  37.021   8.463
  755POPC   C3A13385   5.125  36.894   8.062
  755POPC   C4A13386   5.180  37.132   7.703
  755POPC   C1B13387   5.293  36.639   8.806
  755POPC   C2B13388   5.172  36.473   8.403
  755POPC   C3B13389   5.393  36.475   8.008
  755POPC   C4B13390   5.339  36.650   7.587
  756POPC   NC313391   2.792   1.659   9.507
  756POPC   PO413392   2.661   2.305   9.548
  756POPC   GL113393   2.560   2.025   9.204
  756POPC   GL213394   2.878   1.952   9.099
  756POPC   C1A13395   2.549   1.833   8.762
  756POPC   D2A13396   2.813   1.933   8.384
  756POPC   C3A13397   2.598   1.998   7.979
  756POPC   C4A13398   2.818   1.828   7.595
  756POPC   C1B13399   2.804   2.275   8.802
  756POPC   C2B13400   2.985   2.424   8.423
  756POPC   C3B13401   3.057   2.269   8.005
  756POPC   C4B13402   2.820   2.332   7.631
  757POPC   NC313403   6.469   0.985   9.450
  757POPC   PO413404   6.689   1.562   9.545
  757POPC   GL113405   6.692   1.335   9.145
  757POPC   GL213406   6.330   1.354   9.071
  757POPC   C1A13407   6.874   1.490   8.752
  757POPC   D2A13408   6.728   1.537   8.331
  757POPC   C3A13409   6.945   1.295   8.046
  757POPC   C4A13410   6.975   0.918   7.813
  757POPC   C1B13411   6.484   1.215   8.648
  757POPC   C2B13412   6.607   0.987   8.286
  757POPC   C3B13413   6.481   1.097   7.868
  757POPC   C4B13414   6.327   1.210   7.448
  758POPC   NC313415  35.764  41.796   9.480
  758POPC   PO413416  35.022  41.859   9.426
  758POPC   GL113417  35.298  41.690   9.106
  758POPC   GL213418  35.660  41.711   9.006
  758POPC   C1A13419  35.278  41.515   8.736
  758POPC   D2A13420  35.029  41.520   8.412
  758POPC   C3A13421  35.147  41.373   8.024
  758POPC   C4A13422  34.902  41.450   7.709
  758POPC   C1B13423  35.634  41.837   8.615
  758POPC   C2B13424  35.470  41.712   8.260
  758POPC   C3B13425  35.214  41.874   7.952
  758POPC   C4B13426  35.467  41.991   7.629
  759POPC   NC313427  28.819  12.447   9.459
  759POPC   PO413428  28.966  13.050   9.649
  759POPC   GL113429  29.072  12.843   9.178
  759POPC   GL213430  29.125  12.490   9.055
  759POPC   C1A13431  29.008  12.794   8.692
  759POPC   D2A13432  29.071  12.834   8.257
  759POPC   C3A13433  28.730  12.960   7.975
  759POPC   C4A13434  28.424  12.835   7.638
  759POPC   C1B13435  29.416  12.444   8.682
  759POPC   C2B13436  29.525  12.593   8.254
  759POPC   C3B13437  29.381  12.789   7.852
  759POPC   C4B13438  29.535  12.888   7.457
  760POPC   NC313439  21.130   7.820   9.458
  760POPC   PO413440  21.551   8.385   9.403
  760POPC   GL113441  21.376   8.219   9.068
  760POPC   GL213442  21.087   8.363   9.189
  760POPC   C1A13443  21.561   8.068   8.688
  760POPC   D2A13444  21.842   7.957   8.378
  760POPC   C3A13445  21.736   8.288   8.139
  760POPC   C4A13446  21.523   8.366   7.749
  760POPC   C1B13447  20.941   8.072   8.862
  760POPC   C2B13448  21.092   8.107   8.469
  760POPC   C3B13449  21.146   8.144   8.051
  760POPC   C4B13450  20.836   8.014   7.780
  761POPC   NC313451   2.620   3.535   9.597
  761POPC   PO413452   3.218   3.770   9.596
  761POPC   GL113453   2.991   3.638   9.214
  761POPC   GL213454   2.657   3.458   9.100
  761POPC   C1A13455   3.102   3.631   8.796
  761POPC   D2A13456   3.024   3.855   8.422
  761POPC   C3A13457   2.998   3.601   8.067
  761POPC   C4A13458   2.957   3.713   7.657
  761POPC   C1B13459   2.606   3.696   8.708
  761POPC   C2B13460   2.521   3.619   8.270
  761POPC   C3B13461   2.491   3.828   7.875
  761POPC   C4B13462   2.490   3.640   7.462
  762POPC   NC313463  10.298  37.637   9.699
  762POPC   PO413464  10.825  38.006   9.525
  762POPC   GL113465  10.670  37.929   9.155
  762POPC   GL213466  10.630  37.583   9.237
  762POPC   C1A13467  10.501  38.095   8.779
  762POPC   D2A13468  10.204  37.977   8.439
  762POPC   C3A13469  10.322  37.886   7.999
  762POPC   C4A13470  10.658  38.022   7.683
  762POPC   C1B13471  10.379  37.592   8.881
  762POPC   C2B13472  10.266  37.392   8.521
  762POPC   C3B13473  10.340  37.251   8.132
  762POPC   C4B13474  10.454  37.427   7.757
  763POPC   NC313475  31.141  38.570   9.412
  763POPC   PO413476  31.745  38.245   9.428
  763POPC   GL113477  31.521  38.381   9.122
  763POPC   GL213478  31.544  38.061   9.000
  763POPC   C1A13479  31.324  38.458   8.752
  763POPC   D2A13480  31.524  38.476   8.371
  763POPC   C3A13481  31.654  38.779   8.057
  763POPC   C4A13482  31.452  38.856   7.642
  763POPC   C1B13483  31.786  37.983   8.665
  763POPC   C2B13484  31.858  38.107   8.275
  763POPC   C3B13485  31.614  38.258   7.916
  763POPC   C4B13486  31.652  38.174   7.494
  764POPC   NC313487   2.195   2.362   9.527
  764POPC   PO413488   1.594   2.036   9.485
  764POPC   GL113489   1.875   1.833   9.155
  764POPC   GL213490   2.058   2.071   9.138
  764POPC   C1A13491   2.048   1.784   8.707
  764POPC   D2A13492   1.995   1.866   8.259
  764POPC   C3A13493   1.998   1.935   7.826
  764POPC   C4A13494   1.755   2.267   7.779
  764POPC   C1B13495   2.276   2.262   8.840
  764POPC   C2B13496   2.387   2.220   8.434
  764POPC   C3B13497   2.168   2.350   8.096
  764POPC   C4B13498   2.299   2.345   7.698
  765POPC   NC313499  37.383  36.421   9.727
  765POPC   PO413500  37.969  36.261   9.434
  765POPC   GL113501  37.667  36.195   9.129
  765POPC   GL213502  37.723  35.845   9.095
  765POPC   C1A13503  37.701  36.155   8.682
  765POPC   D2A13504  37.551  36.154   8.250
  765POPC   C3A13505  37.733  36.349   7.873
  765POPC   C4A13506  37.800  36.139   7.429
  765POPC   C1B13507  37.419  35.724   8.799
  765POPC   C2B13508  37.307  35.696   8.375
  765POPC   C3B13509  37.555  35.648   8.044
  765POPC   C4B13510  37.898  35.864   7.852
  766POPC   NC313511  42.670  32.535   9.497
  766POPC   PO413512  42.002  32.350   9.524
  766POPC   GL113513  42.149  32.261   9.115
  766POPC   GL213514  42.469  32.237   9.127
  766POPC   C1A13515  42.265  32.069   8.693
  766POPC   D2A13516  42.474  31.898   8.357
  766POPC   C3A13517  42.346  32.056   7.988
  766POPC   C4A13518  42.528  32.200   7.589
  766POPC   C1B13519  42.455  32.531   8.791
  766POPC   C2B13520  42.571  32.442   8.361
  766POPC   C3B13521  42.429  32.556   7.946
  766POPC   C4B13522  42.321  32.679   7.522
  767POPC   NC313523   6.551   9.995   9.568
  767POPC   PO413524   7.027   9.490   9.488
  767POPC   GL113525   6.754   9.643   9.122
  767POPC   GL213526   6.698  10.031   9.075
  767POPC   C1A13527   6.552   9.433   8.782
  767POPC   D2A13528   6.335   9.352   8.384
  767POPC   C3A13529   6.556   9.535   8.034
  767POPC   C4A13530   6.477   9.650   7.591
  767POPC   C1B13531   6.909  10.004   8.680
  767POPC   C2B13532   6.880   9.885   8.245
  767POPC   C3B13533   6.806   9.972   7.810
  767POPC   C4B13534   6.982  10.251   7.454
  768POPC   NC313535  41.714  37.781   9.833
  768POPC   PO413536  41.143  37.321   9.720
  768POPC   GL113537  41.279  37.481   9.261
  768POPC   GL213538  41.636  37.490   9.332
  768POPC   C1A13539  41.398  37.804   8.907
  768POPC   D2A13540  41.664  37.818   8.502
  768POPC   C3A13541  41.481  37.792   8.067
  768POPC   C4A13542  41.589  37.558   7.689
  768POPC   C1B13543  41.821  37.493   8.915
  768POPC   C2B13544  42.057  37.431   8.546
  768POPC   C3B13545  41.927  37.505   8.131
  768POPC   C4B13546  41.949  37.231   7.799
  769POPC   NC313547  33.539  23.337   9.440
  769POPC   PO413548  34.044  23.862   9.503
  769POPC   GL113549  33.836  23.688   9.157
  769POPC   GL213550  33.547  23.873   9.104
  769POPC   C1A13551  33.706  23.447   8.779
  769POPC   D2A13552  33.794  23.589   8.356
  769POPC   C3A13553  33.597  23.584   7.957
  769POPC   C4A13554  33.960  23.615   7.649
  769POPC   C1B13555  33.675  23.989   8.673
  769POPC   C2B13556  33.523  24.027   8.223
  769POPC   C3B13557  33.671  24.057   7.781
  769POPC   C4B13558  33.452  24.197   7.386
  770POPC   NC313559   0.457  17.626   9.493
  770POPC   PO413560   0.043  17.108   9.292
  770POPC   GL113561   0.366  17.329   9.105
  770POPC   GL213562   0.239  17.683   9.048
  770POPC   C1A13563   0.684  17.428   8.806
  770POPC   D2A13564   0.681  17.646   8.405
  770POPC   C3A13565   0.684  17.384   8.093
  770POPC   C4A13566   0.399  17.305   7.813
  770POPC   C1B13567   0.079  17.443   8.707
  770POPC   C2B13568   0.033  17.605   8.334
  770POPC   C3B13569   0.177  17.740   7.978
  770POPC   C4B13570   0.026  17.616   7.603
  771POPC   NC313571  23.632  16.645   9.883
  771POPC   PO413572  23.983  17.063   9.501
  771POPC   GL113573  23.847  16.828   9.153
  771POPC   GL213574  23.521  16.689   9.229
  771POPC   C1A13575  23.992  16.746   8.746
  771POPC   D2A13576  23.879  16.883   8.345
  771POPC   C3A13577  23.903  16.722   7.954
  771POPC   C4A13578  24.029  16.494   7.626
  771POPC   C1B13579  23.625  16.400   8.883
  771POPC   C2B13580  23.618  16.460   8.448
  771POPC   C3B13581  23.602  16.324   8.020
  771POPC   C4B13582  23.524  16.530   7.602
  772POPC   NC313583  24.903  30.224   9.413
  772POPC   PO413584  24.484  30.815   9.489
  772POPC   GL113585  24.328  30.769   9.099
  772POPC   GL213586  24.280  30.423   9.000
  772POPC   C1A13587  24.401  30.989   8.718
  772POPC   D2A13588  24.671  30.934   8.401
  772POPC   C3A13589  24.432  30.852   8.057
  772POPC   C4A13590  24.498  30.963   7.665
  772POPC   C1B13591  24.616  30.512   8.699
  772POPC   C2B13592  24.650  30.421   8.224
  772POPC   C3B13593  24.474  30.438   7.754
  772POPC   C4B13594  24.207  30.371   7.362
  773POPC   NC313595  16.733  31.842   9.513
  773POPC   PO413596  16.350  31.324   9.447
  773POPC   GL113597  16.580  31.517   9.113
  773POPC   GL213598  16.920  31.593   9.119
  773POPC   C1A13599  16.686  31.465   8.684
  773POPC   D2A13600  16.794  31.685   8.340
  773POPC   C3A13601  16.538  31.507   8.045
  773POPC   C4A13602  16.720  31.371   7.716
  773POPC   C1B13603  17.133  31.751   8.767
  773POPC   C2B13604  17.335  31.753   8.353
  773POPC   C3B13605  17.121  31.590   7.970
  773POPC   C4B13606  17.038  31.741   7.554
  774POPC   NC313607  15.809  41.233   9.584
  774POPC   PO413608  16.391  41.245   9.560
  774POPC   GL113609  16.256  41.212   9.092
  774POPC   GL213610  15.885  41.204   9.053
  774POPC   C1A13611  16.201  41.258   8.626
  774POPC   D2A13612  15.875  41.506   8.382
  774POPC   C3A13613  15.787  41.387   7.976
  774POPC   C4A13614  16.099  41.386   7.701
  774POPC   C1B13615  15.548  41.283   8.710
  774POPC   C2B13616  15.351  41.457   8.303
  774POPC   C3B13617  15.461  41.771   7.980
  774POPC   C4B13618  15.916  41.891   7.869
  775POPC   NC313619  43.579  30.050   9.462
  775POPC   PO413620  43.941  29.553   9.741
  775POPC   GL113621  43.882  29.710   9.256
  775POPC   GL213622  43.794  29.467   9.126
  775POPC   C1A13623  44.028  29.872   8.833
  775POPC   D2A13624  43.944  30.167   8.486
  775POPC   C3A13625  44.013  30.092   8.041
  775POPC   C4A13626  44.371  29.874   7.871
  775POPC   C1B13627  43.555  29.704   8.784
  775POPC   C2B13628  43.691  29.770   8.356
  775POPC   C3B13629  43.752  29.613   7.946
  775POPC   C4B13630  43.445  29.440   7.657
  776POPC   NC313631  14.706  22.603   9.455
  776POPC   PO413632  15.365  22.852   9.511
  776POPC   GL113633  15.062  22.948   9.221
  776POPC   GL213634  15.077  22.634   9.070
  776POPC   C1A13635  15.118  23.198   8.850
  776POPC   D2A13636  14.949  23.284   8.445
  776POPC   C3A13637  15.210  23.134   8.112
  776POPC   C4A13638  15.332  23.053   7.687
  776POPC   C1B13639  14.891  22.743   8.686
  776POPC   C2B13640  14.823  22.805   8.238
  776POPC   C3B13641  14.964  22.560   7.862
  776POPC   C4B13642  14.946  22.693   7.419
  777POPC   NC313643  24.970  18.826   9.458
  777POPC   PO413644  25.564  19.171   9.638
  777POPC   GL113645  25.292  19.211   9.281
  777POPC   GL213646  25.313  18.886   9.085
  777POPC   C1A13647  25.207  19.341   8.857
  777POPC   D2A13648  25.258  19.134   8.449
  777POPC   C3A13649  25.168  19.268   8.040
  777POPC   C4A13650  25.408  19.286   7.680
  777POPC   C1B13651  24.934  18.943   8.796
  777POPC   C2B13652  24.754  19.016   8.390
  777POPC   C3B13653  24.851  18.837   8.006
  777POPC   C4B13654  24.960  19.021   7.624
  778POPC   NC313655  39.115  42.566   9.373
  778POPC   PO413656  39.496  42.056   9.408
  778POPC   GL113657  39.408  42.131   9.022
  778POPC   GL213658  39.345  42.489   8.935
  778POPC   C1A13659  39.517  42.176   8.592
  778POPC   D2A13660  39.253  42.345   8.330
  778POPC   C3A13661  39.353  42.474   7.927
  778POPC   C4A13662  39.382  42.248   7.536
  778POPC   C1B13663  38.991  42.249   8.789
  778POPC   C2B13664  38.798  42.474   8.522
  778POPC   C3B13665  38.812  42.428   8.088
  778POPC   C4B13666  38.905  42.441   7.672
  779POPC   NC313667   6.387  24.027   9.532
  779POPC   PO413668   6.928  24.489   9.660
  779POPC   GL113669   6.762  24.301   9.238
  779POPC   GL213670   6.446  24.384   9.087
  779POPC   C1A13671   6.742  24.081   8.810
  779POPC   D2A13672   6.473  23.986   8.461
  779POPC   C3A13673   6.538  24.286   8.145
  779POPC   C4A13674   6.686  24.270   7.718
  779POPC   C1B13675   6.439  24.489   8.636
  779POPC   C2B13676   6.291  24.741   8.264
  779POPC   C3B13677   6.469  24.730   7.840
  779POPC   C4B13678   6.319  24.582   7.424
  780POPC   NC313679  31.847  18.282   9.521
  780POPC   PO413680  32.486  18.369   9.755
  780POPC   GL113681  32.408  18.394   9.263
  780POPC   GL213682  32.148  18.188   9.111
  780POPC   C1A13683  32.572  18.233   8.818
  780POPC   D2A13684  32.561  17.998   8.407
  780POPC   C3A13685  32.222  18.153   8.136
  780POPC   C4A13686  32.357  18.458   7.832
  780POPC   C1B13687  32.065  18.380   8.726
  780POPC   C2B13688  31.853  18.623   8.426
  780POPC   C3B13689  31.938  18.729   7.990
  780POPC   C4B13690  31.893  18.488   7.608
  781POPC   NC313691  32.644  17.951   9.415
  781POPC   PO413692  33.063  18.496   9.308
  781POPC   GL113693  33.217  18.304   8.954
  781POPC   GL213694  33.014  18.022   9.045
  781POPC   C1A13695  33.037  18.222   8.541
  781POPC   D2A13696  32.792  18.404   8.220
  781POPC   C3A13697  32.888  18.386   7.813
  781POPC   C4A13698  32.739  18.745   7.624
  781POPC   C1B13699  33.240  17.803   8.736
  781POPC   C2B13700  33.364  17.890   8.297
  781POPC   C3B13701  33.109  17.917   7.924
  781POPC   C4B13702  32.978  17.949   7.478
  782POPC   NC313703  33.383   9.129   9.590
  782POPC   PO413704  33.694   8.588   9.502
  782POPC   GL113705  33.851   8.839   9.195
  782POPC   GL213706  34.188   9.049   9.239
  782POPC   C1A13707  33.670   8.764   8.805
  782POPC   D2A13708  33.567   8.957   8.452
  782POPC   C3A13709  33.692   8.717   8.107
  782POPC   C4A13710  33.762   8.907   7.727
  782POPC   C1B13711  34.183   8.916   8.815
  782POPC   C2B13712  34.091   8.773   8.411
  782POPC   C3B13713  34.189   8.967   8.013
  782POPC   C4B13714  34.248   9.069   7.585
  783POPC   NC313715  14.252  39.408   9.381
  783POPC   PO413716  14.918  39.480   9.503
  783POPC   GL113717  14.719  39.262   9.153
  783POPC   GL213718  14.411  39.006   9.119
  783POPC   C1A13719  14.542  39.361   8.737
  783POPC   D2A13720  14.448  39.072   8.394
  783POPC   C3A13721  14.365  39.244   7.976
  783POPC   C4A13722  14.564  39.564   7.778
  783POPC   C1B13723  14.068  39.121   8.775
  783POPC   C2B13724  13.965  39.318   8.356
  783POPC   C3B13725  13.876  39.313   7.891
  783POPC   C4B13726  14.128  39.461   7.518
  784POPC   NC313727  13.433  32.201  10.029
  784POPC   PO413728  13.992  32.107   9.531
  784POPC   GL113729  13.870  32.089   9.107
  784POPC   GL213730  13.520  32.072   9.043
  784POPC   C1A13731  13.832  32.308   8.697
  784POPC   D2A13732  13.837  32.513   8.297
  784POPC   C3A13733  13.813  32.344   7.845
  784POPC   C4A13734  13.907  32.431   7.385
  784POPC   C1B13735  13.349  32.143   8.627
  784POPC   C2B13736  13.458  32.095   8.193
  784POPC   C3B13737  13.276  32.169   7.792
  784POPC   C4B13738  13.466  32.187   7.401
  785POPC   NC313739  22.831  29.345   9.489
  785POPC   PO413740  22.123  29.274   9.463
  785POPC   GL113741  22.266  29.117   9.110
  785POPC   GL213742  22.542  29.339   9.075
  785POPC   C1A13743  22.064  28.938   8.758
  785POPC   D2A13744  22.188  28.951   8.365
  785POPC   C3A13745  21.903  29.046   8.063
  785POPC   C4A13746  21.794  29.090   7.637
  785POPC   C1B13747  22.345  29.410   8.658
  785POPC   C2B13748  22.314  29.424   8.232
  785POPC   C3B13749  22.224  29.394   7.821
  785POPC   C4B13750  22.301  29.126   7.499
  786POPC   NC313751  29.831  42.571   9.387
  786POPC   PO413752  29.887  41.912   9.381
  786POPC   GL113753  30.063  42.167   9.056
  786POPC   GL213754  29.794  42.364   8.942
  786POPC   C1A13755  30.192  42.416   8.668
  786POPC   D2A13756  29.982  42.252   8.302
  786POPC   C3A13757  29.921  42.407   7.891
  786POPC   C4A13758  30.239  42.491   7.612
  786POPC   C1B13759  29.576  42.201   8.620
  786POPC   C2B13760  29.613  41.885   8.272
  786POPC   C3B13761  29.550  41.981   7.833
  786POPC   C4B13762  29.750  42.128   7.446
  787POPC   NC313763  41.668  12.840   9.477
  787POPC   PO413764  41.136  13.321   9.405
  787POPC   GL113765  41.512  13.199   9.163
  787POPC   GL213766  41.550  12.820   8.997
  787POPC   C1A13767  41.805  13.225   8.821
  787POPC   D2A13768  41.753  12.931   8.486
  787POPC   C3A13769  41.808  13.093   8.077
  787POPC   C4A13770  41.768  12.785   7.756
  787POPC   C1B13771  41.267  13.045   8.752
  787POPC   C2B13772  41.161  12.951   8.380
  787POPC   C3B13773  41.329  12.774   8.034
  787POPC   C4B13774  41.216  12.981   7.659
  788POPC   NC313775  38.804   6.988   9.192
  788POPC   PO413776  38.344   7.518   9.420
  788POPC   GL113777  38.465   7.492   9.060
  788POPC   GL213778  38.349   7.149   9.033
  788POPC   C1A13779  38.654   7.468   8.711
  788POPC   D2A13780  38.665   7.139   8.401
  788POPC   C3A13781  38.590   7.261   8.005
  788POPC   C4A13782  38.687   7.562   7.743
  788POPC   C1B13783  38.208   7.249   8.633
  788POPC   C2B13784  38.288   7.565   8.323
  788POPC   C3B13785  38.158   7.603   7.898
  788POPC   C4B13786  38.164   7.246   7.671
  789POPC   NC313787  11.099  24.324   9.646
  789POPC   PO413788  11.632  24.556   9.354
  789POPC   GL113789  11.502  24.558   8.994
  789POPC   GL213790  11.174  24.563   9.025
  789POPC   C1A13791  11.401  24.766   8.606
  789POPC   D2A13792  11.180  24.692   8.230
  789POPC   C3A13793  11.399  24.750   7.864
  789POPC   C4A13794  11.649  24.465   7.693
  789POPC   C1B13795  10.950  24.456   8.625
  789POPC   C2B13796  10.810  24.348   8.184
  789POPC   C3B13797  10.873  24.572   7.778
  789POPC   C4B13798  11.140  24.526   7.378
  790POPC   NC313799   2.192  16.937   9.543
  790POPC   PO413800   2.843  16.667   9.551
  790POPC   GL113801   2.875  16.477   9.177
  790POPC   GL213802   2.599  16.698   9.084
  790POPC   C1A13803   2.957  16.568   8.759
  790POPC   D2A13804   2.743  16.756   8.433
  790POPC   C3A13805   2.957  16.808   8.066
  790POPC   C4A13806   2.890  16.654   7.672
  790POPC   C1B13807   2.328  16.834   8.756
  790POPC   C2B13808   2.221  16.822   8.313
  790POPC   C3B13809   2.468  16.896   7.924
  790POPC   C4B13810   2.521  16.955   7.464
  791POPC   NC313811  15.524  42.264   9.641
  791POPC   PO413812  15.061  42.501   9.808
  791POPC   GL113813  15.109  42.455   9.311
  791POPC   GL213814  15.396  42.534   9.095
  791POPC   C1A13815  15.028  42.238   8.852
  791POPC   D2A13816  14.929  42.345   8.371
  791POPC   C3A13817  15.125  42.215   7.959
  791POPC   C4A13818  15.297  42.020   7.559
  791POPC   C1B13819  15.097  42.727   8.777
  791POPC   C2B13820  14.951  42.855   8.366
  791POPC   C3B13821  15.102  42.769   7.960
  791POPC   C4B13822  15.051  42.903   7.532
  792POPC   NC313823  36.363  12.983   9.846
  792POPC   PO413824  35.851  12.687   9.484
  792POPC   GL113825  35.771  12.799   9.074
  792POPC   GL213826  36.006  12.524   9.011
  792POPC   C1A13827  35.810  12.730   8.603
  792POPC   D2A13828  35.772  12.680   8.172
  792POPC   C3A13829  36.024  12.916   7.923
  792POPC   C4A13830  36.038  13.001   7.523
  792POPC   C1B13831  36.256  12.908   8.991
  792POPC   C2B13832  36.313  12.914   8.574
  792POPC   C3B13833  36.437  12.878   8.179
  792POPC   C4B13834  36.535  12.810   7.762
  793POPC   NC313835  33.825  31.104   9.720
  793POPC   PO413836  34.091  31.714   9.513
  793POPC   GL113837  33.832  31.480   9.253
  793POPC   GL213838  33.977  31.176   9.111
  793POPC   C1A13839  33.714  31.537   8.816
  793POPC   D2A13840  33.552  31.351   8.412
  793POPC   C3A13841  33.705  31.387   7.963
  793POPC   C4A13842  33.630  31.576   7.542
  793POPC   C1B13843  34.194  31.405   8.744
  793POPC   C2B13844  34.041  31.604   8.337
  793POPC   C3B13845  34.182  31.568   7.891
  793POPC   C4B13846  34.127  31.329   7.493
  794POPC   NC313847  23.355  12.188   9.395
  794POPC   PO413848  23.905  11.830   9.449
  794POPC   GL113849  23.734  11.992   9.116
  794POPC   GL213850  23.427  11.747   9.111
  794POPC   C1A13851  23.867  12.274   8.770
  794POPC   D2A13852  24.159  12.236   8.425
  794POPC   C3A13853  23.905  12.196   8.089
  794POPC   C4A13854  23.765  12.548   7.822
  794POPC   C1B13855  23.593  11.796   8.690
  794POPC   C2B13856  23.495  12.128   8.438
  794POPC   C3B13857  23.256  12.079   8.104
  794POPC   C4B13858  23.530  12.107   7.739
  795POPC   NC313859  11.011   5.625   9.526
  795POPC   PO413860  11.664   5.675   9.316
  795POPC   GL113861  11.301   5.775   9.123
  795POPC   GL213862  11.128   6.060   9.275
  795POPC   C1A13863  11.359   5.757   8.699
  795POPC   D2A13864  11.322   5.793   8.295
  795POPC   C3A13865  11.568   5.778   7.945
  795POPC   C4A13866  11.375   5.621   7.598
  795POPC   C1B13867  11.103   6.181   8.850
  795POPC   C2B13868  11.146   6.276   8.405
  795POPC   C3B13869  11.157   6.140   7.966
  795POPC   C4B13870  11.391   6.267   7.616
  796POPC   NC313871   6.276  20.477   9.731
  796POPC   PO413872   5.930  19.931   9.635
  796POPC   GL113873   5.931  20.119   9.216
  796POPC   GL213874   6.018  19.802   9.089
  796POPC   C1A13875   5.701  20.064   8.793
  796POPC   D2A13876   5.565  19.788   8.424
  796POPC   C3A13877   5.660  19.969   8.010
  796POPC   C4A13878   5.922  19.905   7.640
  796POPC   C1B13879   6.015  19.657   8.641
  796POPC   C2B13880   6.032  19.655   8.172
  796POPC   C3B13881   6.056  19.438   7.753
  796POPC   C4B13882   6.023  19.512   7.284
  797POPC   NC313883  28.486  19.801   9.451
  797POPC   PO413884  27.950  20.198   9.359
  797POPC   GL113885  28.209  20.013   9.039
  797POPC   GL213886  28.281  19.666   9.001
  797POPC   C1A13887  28.222  19.977   8.611
  797POPC   D2A13888  28.416  19.703   8.352
  797POPC   C3A13889  28.447  19.935   7.999
  797POPC   C4A13890  28.153  19.939   7.651
  797POPC   C1B13891  28.696  19.753   8.798
  797POPC   C2B13892  28.894  19.552   8.421
  797POPC   C3B13893  28.760  19.484   7.995
  797POPC   C4B13894  28.481  19.566   7.658
  798POPC   NC313895  11.203  30.280   9.717
  798POPC   PO413896  10.997  29.727   9.390
  798POPC   GL113897  11.341  29.968   9.283
  798POPC   GL213898  11.177  30.268   9.196
  798POPC   C1A13899  11.566  29.926   8.890
  798POPC   D2A13900  11.435  29.811   8.490
  798POPC   C3A13901  11.557  29.911   8.083
  798POPC   C4A13902  11.374  29.758   7.694
  798POPC   C1B13903  11.099  30.050   8.808
  798POPC   C2B13904  10.832  29.933   8.487
  798POPC   C3B13905  11.032  29.812   8.107
  798POPC   C4B13906  10.893  29.927   7.717
  799POPC   NC313907  42.031  20.128   9.489
  799POPC   PO413908  42.535  19.648   9.412
  799POPC   GL113909  42.235  19.779   9.112
  799POPC   GL213910  42.420  20.066   9.093
  799POPC   C1A13911  42.046  19.624   8.718
  799POPC   D2A13912  42.026  19.490   8.285
  799POPC   C3A13913  42.317  19.707   7.993
  799POPC   C4A13914  42.150  20.028   7.732
  799POPC   C1B13915  42.281  20.165   8.688
  799POPC   C2B13916  42.297  20.176   8.236
  799POPC   C3B13917  42.621  20.180   7.936
  799POPC   C4B13918  42.624  20.040   7.511
  800POPC   NC313919  34.484   6.995   9.547
  800POPC   PO413920  35.057   7.278   9.335
  800POPC   GL113921  34.654   7.259   9.105
  800POPC   GL213922  34.332   7.109   9.054
  800POPC   C1A13923  34.539   7.496   8.742
  800POPC   D2A13924  34.750   7.499   8.349
  800POPC   C3A13925  34.591   7.560   7.938
  800POPC   C4A13926  34.730   7.812   7.626
  800POPC   C1B13927  34.340   7.047   8.587
  800POPC   C2B13928  34.276   7.252   8.197
  800POPC   C3B13929  34.271   7.190   7.753
  800POPC   C4B13930  34.294   7.088   7.255
  801POPC   NC313931   8.012  33.971   9.308
  801POPC   PO413932   8.484  34.364   9.547
  801POPC   GL113933   8.158  34.461   9.252
  801POPC   GL213934   8.149  34.263   8.947
  801POPC   C1A13935   7.944  34.733   8.965
  801POPC   D2A13936   7.909  34.796   8.524
  801POPC   C3A13937   7.998  34.462   8.232
  801POPC   C4A13938   7.997  34.652   7.832
  801POPC   C1B13939   8.313  34.486   8.661
  801POPC   C2B13940   8.551  34.684   8.392
  801POPC   C3B13941   8.484  34.611   8.001
  801POPC   C4B13942   8.439  34.577   7.566
  802POPC   NC313943  36.600  24.933   9.408
  802POPC   PO413944  35.950  24.870   9.262
  802POPC   GL113945  36.307  24.971   8.989
  802POPC   GL213946  36.382  25.302   9.055
  802POPC   C1A13947  36.416  25.094   8.557
  802POPC   D2A13948  36.236  24.901   8.233
  802POPC   C3A13949  36.161  25.098   7.848
  802POPC   C4A13950  35.897  25.042   7.492
  802POPC   C1B13951  35.995  25.304   8.743
  802POPC   C2B13952  35.928  25.323   8.275
  802POPC   C3B13953  35.916  25.546   7.861
  802POPC   C4B13954  36.117  25.861   7.573
  803POPC   NC313955  35.623  33.680   9.467
  803POPC   PO413956  35.012  33.891   9.520
  803POPC   GL113957  35.188  33.691   9.192
  803POPC   GL213958  35.370  34.024   9.171
  803POPC   C1A13959  35.300  33.726   8.775
  803POPC   D2A13960  35.127  33.828   8.431
  803POPC   C3A13961  35.286  33.638   8.114
  803POPC   C4A13962  35.596  33.772   7.875
  803POPC   C1B13963  35.651  34.101   8.833
  803POPC   C2B13964  35.767  34.268   8.421
  803POPC   C3B13965  35.771  34.251   7.936
  803POPC   C4B13966  35.552  34.125   7.509
  804POPC   NC313967  26.192  12.133   9.783
  804POPC   PO413968  26.511  11.866   9.275
  804POPC   GL113969  26.122  12.031   9.207
  804POPC   GL213970  26.117  12.345   9.326
  804POPC   C1A13971  25.983  12.022   8.768
  804POPC   D2A13972  25.823  12.205   8.373
  804POPC   C3A13973  25.947  11.996   7.965
  804POPC   C4A13974  25.799  11.951   7.550
  804POPC   C1B13975  26.207  12.471   8.913
  804POPC   C2B13976  26.348  12.359   8.495
  804POPC   C3B13977  26.225  12.425   8.061
  804POPC   C4B13978  26.113  12.364   7.645
  805POPC   NC313979  27.470   7.091   9.278
  805POPC   PO413980  27.577   7.727   9.460
  805POPC   GL113981  27.625   7.560   9.074
  805POPC   GL213982  27.265   7.529   9.079
  805POPC   C1A13983  27.594   7.376   8.642
  805POPC   D2A13984  27.691   6.998   8.436
  805POPC   C3A13985  27.955   7.054   8.096
  805POPC   C4A13986  27.848   7.238   7.739
  805POPC   C1B13987  27.114   7.326   8.760
  805POPC   C2B13988  27.097   7.548   8.432
  805POPC   C3B13989  27.389   7.525   8.139
  805POPC   C4B13990  27.433   7.534   7.716
  806POPC   NC313991  44.355  10.241   9.439
  806POPC   PO413992  44.915  10.693   9.501
  806POPC   GL113993  44.749  10.408   9.194
  806POPC   GL213994  44.573  10.673   9.097
  806POPC   C1A13995  44.533  10.237   8.796
  806POPC   D2A13996  44.477  10.081   8.372
  806POPC   C3A13997  44.399  10.349   7.999
  806POPC   C4A13998  44.384  10.405   7.570
  806POPC   C1B13999  44.854  10.619   8.743
  806POPC   C2B14000  44.645  10.584   8.375
  806POPC   C3B14001  44.760  10.730   7.969
  806POPC   C4B14002  44.860  10.597   7.595
  807POPC   NC314003  13.796   9.489   9.629
  807POPC   PO414004  13.395   8.908   9.695
  807POPC   GL114005  13.556   9.014   9.220
  807POPC   GL214006  13.889   9.049   9.188
  807POPC   C1A14007  13.602   8.793   8.800
  807POPC   D2A14008  13.840   8.729   8.414
  807POPC   C3A14009  13.604   8.852   8.068
  807POPC   C4A14010  13.461   8.948   7.691
  807POPC   C1B14011  14.090   8.950   8.796
  807POPC   C2B14012  14.167   9.139   8.377
  807POPC   C3B14013  14.081   8.996   7.949
  807POPC   C4B14014  13.894   9.192   7.535
  808POPC   NC314015  30.940  10.063   9.427
  808POPC   PO414016  30.473   9.634   9.513
  808POPC   GL114017  30.704   9.693   9.147
  808POPC   GL214018  30.453   9.924   9.024
  808POPC   C1A14019  30.924   9.835   8.765
  808POPC   D2A14020  30.716   9.950   8.369
  808POPC   C3A14021  30.876   9.901   7.934
  808POPC   C4A14022  30.866   9.453   7.786
  808POPC   C1B14023  30.472   9.580   8.693
  808POPC   C2B14024  30.537   9.492   8.242
  808POPC   C3B14025  30.400   9.770   7.938
  808POPC   C4B14026  30.210   9.858   7.571
  809POPC   NC314027  40.433  16.441   9.305
  809POPC   PO414028  41.020  16.191   9.644
  809POPC   GL114029  41.028  16.591   9.270
  809POPC   GL214030  40.751  16.784   9.075
  809POPC   C1A14031  41.202  16.810   8.852
  809POPC   D2A14032  41.028  16.776   8.429
  809POPC   C3A14033  41.134  16.637   8.016
  809POPC   C4A14034  40.956  16.888   7.750
  809POPC   C1B14035  40.807  16.445   8.747
  809POPC   C2B14036  40.670  16.409   8.311
  809POPC   C3B14037  40.557  16.662   7.952
  809POPC   C4B14038  40.545  16.607   7.511
  810POPC   NC314039  32.378  42.883   9.484
  810POPC   PO414040  32.238  42.188   9.445
  810POPC   GL114041  32.230  42.307   9.060
  810POPC   GL214042  32.137  42.637   9.117
  810POPC   C1A14043  32.185  42.238   8.641
  810POPC   D2A14044  32.006  42.307   8.284
  810POPC   C3A14045  32.316  42.237   8.027
  810POPC   C4A14046  32.389  41.885   7.825
  810POPC   C1B14047  32.073  42.726   8.692
  810POPC   C2B14048  32.385  42.642   8.356
  810POPC   C3B14049  32.593  42.672   7.962
  810POPC   C4B14050  32.477  42.493   7.571
  811POPC   NC314051  14.894  16.596   9.528
  811POPC   PO414052  15.443  17.077   9.602
  811POPC   GL114053  15.124  16.919   9.228
  811POPC   GL214054  14.856  17.114   9.137
  811POPC   C1A14055  15.173  16.749   8.785
  811POPC   D2A14056  15.432  16.690   8.405
  811POPC   C3A14057  15.246  16.590   8.008
  811POPC   C4A14058  15.362  16.773   7.629
  811POPC   C1B14059  14.823  17.111   8.719
  811POPC   C2B14060  14.903  16.914   8.314
  811POPC   C3B14061  14.913  16.956   7.850
  811POPC   C4B14062  14.904  17.001   7.388
  812POPC   NC314063  33.137  42.811   9.564
  812POPC   PO414064  33.216  42.152   9.649
  812POPC   GL114065  32.964  42.233   9.238
  812POPC   GL214066  32.674  42.492   9.249
  812POPC   C1A14067  33.053  42.164   8.787
  812POPC   D2A14068  33.269  42.003   8.409
  812POPC   C3A14069  33.291  42.221   8.010
  812POPC   C4A14070  33.239  42.012   7.618
  812POPC   C1B14071  32.636  42.482   8.774
  812POPC   C2B14072  32.788  42.311   8.321
  812POPC   C3B14073  32.802  42.208   7.833
  812POPC   C4B14074  32.839  42.196   7.321
  813POPC   NC314075  22.005   3.238   9.405
  813POPC   PO414076  22.423   3.733   9.505
  813POPC   GL114077  22.305   3.541   9.112
  813POPC   GL214078  21.937   3.556   9.003
  813POPC   C1A14079  22.438   3.378   8.720
  813POPC   D2A14080  22.538   3.582   8.341
  813POPC   C3A14081  22.468   3.388   7.981
  813POPC   C4A14082  22.257   3.341   7.614
  813POPC   C1B14083  22.030   3.630   8.562
  813POPC   C2B14084  21.987   3.335   8.192
  813POPC   C3B14085  21.764   3.385   7.792
  813POPC   C4B14086  21.824   3.603   7.375
  814POPC   NC314087  29.492   0.628   9.367
  814POPC   PO414088  30.115   0.718   9.602
  814POPC   GL114089  29.967   0.655   9.168
  814POPC   GL214090  29.826   0.326   9.119
  814POPC   C1A14091  29.980   0.573   8.718
  814POPC   D2A14092  30.292   0.569   8.414
  814POPC   C3A14093  30.108   0.623   8.029
  814POPC   C4A14094  30.280   0.837   7.703
  814POPC   C1B14095  29.730   0.130   8.736
  814POPC   C2B14096  29.833   0.168   8.319
  814POPC   C3B14097  30.004   0.133   7.906
  814POPC   C4B14098  29.953   0.408   7.528
  815POPC   NC314099  23.191  24.741   9.466
  815POPC   PO414100  23.088  24.068   9.497
  815POPC   GL114101  22.828  24.284   9.151
  815POPC   GL214102  22.769  24.643   9.132
  815POPC   C1A14103  22.797  24.315   8.695
  815POPC   D2A14104  22.751  24.160   8.267
  815POPC   C3A14105  22.879  24.426   7.942
  815POPC   C4A14106  23.301  24.423   7.779
  815POPC   C1B14107  22.864  24.864   8.725
  815POPC   C2B14108  23.000  24.826   8.265
  815POPC   C3B14109  23.026  24.898   7.796
  815POPC   C4B14110  22.703  24.774   7.502
  816POPC   NC314111  10.812  14.538   9.480
  816POPC   PO414112  10.266  14.366   9.671
  816POPC   GL114113  10.389  14.328   9.210
  816POPC   GL214114  10.702  14.185   9.093
  816POPC   C1A14115  10.431  14.410   8.749
  816POPC   D2A14116  10.702  14.222   8.444
  816POPC   C3A14117  10.588  14.390   8.033
  816POPC   C4A14118  10.363  14.765   7.831
  816POPC   C1B14119  10.942  13.923   8.815
  816POPC   C2B14120  11.110  13.876   8.397
  816POPC   C3B14121  10.917  13.996   8.029
  816POPC   C4B14122  10.750  14.032   7.630
  817POPC   NC314123  42.830   4.163   9.425
  817POPC   PO414124  43.273   4.610   9.472
  817POPC   GL114125  43.234   4.350   9.131
  817POPC   GL214126  43.464   4.109   9.217
  817POPC   C1A14127  42.913   4.283   8.770
  817POPC   D2A14128  42.753   4.224   8.328
  817POPC   C3A14129  43.008   4.435   7.979
  817POPC   C4A14130  43.256   4.394   7.563
  817POPC   C1B14131  43.412   4.083   8.737
  817POPC   C2B14132  43.238   4.093   8.316
  817POPC   C3B14133  43.286   3.987   7.885
  817POPC   C4B14134  43.710   3.986   7.810
  818POPC   NC314135  15.609  24.034   9.402
  818POPC   PO414136  15.061  24.621   9.360
  818POPC   GL114137  15.350  24.664   9.060
  818POPC   GL214138  15.454  24.338   9.042
  818POPC   C1A14139  15.255  24.575   8.629
  818POPC   D2A14140  15.118  24.760   8.286
  818POPC   C3A14141  15.270  24.587   7.918
  818POPC   C4A14142  15.001  24.681   7.580
  818POPC   C1B14143  15.269  24.085   8.698
  818POPC   C2B14144  15.317  24.181   8.269
  818POPC   C3B14145  15.137  24.067   7.912
  818POPC   C4B14146  15.220  24.237   7.533
  819POPC   NC314147  12.401  14.264   9.455
  819POPC   PO414148  11.899  14.721   9.533
  819POPC   GL114149  12.000  14.487   9.210
  819POPC   GL214150  11.708  14.528   9.068
  819POPC   C1A14151  12.221  14.328   8.855
  819POPC   D2A14152  12.124  14.292   8.439
  819POPC   C3A14153  12.390  14.258   8.124
  819POPC   C4A14154  12.369  14.456   7.762
  819POPC   C1B14155  11.713  14.351   8.725
  819POPC   C2B14156  11.680  14.515   8.339
  819POPC   C3B14157  11.870  14.344   7.998
  819POPC   C4B14158  11.692  14.350   7.624
  820POPC   NC314159  35.853  36.467   9.371
  820POPC   PO414160  36.113  37.051   9.507
  820POPC   GL114161  35.884  36.955   9.156
  820POPC   GL214162  36.122  36.745   9.052
  820POPC   C1A14163  35.832  37.040   8.721
  820POPC   D2A14164  35.745  37.234   8.323
  820POPC   C3A14165  36.023  37.103   7.986
  820POPC   C4A14166  35.962  36.796   7.642
  820POPC   C1B14167  36.086  36.534   8.709
  820POPC   C2B14168  36.147  36.741   8.337
  820POPC   C3B14169  36.359  36.704   7.971
  820POPC   C4B14170  36.435  36.576   7.575
  821POPC   NC314171   7.455  31.184   9.562
  821POPC   PO414172   7.462  30.506   9.677
  821POPC   GL114173   7.407  30.723   9.268
  821POPC   GL214174   7.136  30.965   9.198
  821POPC   C1A14175   7.610  30.830   8.868
  821POPC   D2A14176   7.552  30.580   8.503
  821POPC   C3A14177   7.708  30.647   8.077
  821POPC   C4A14178   7.639  30.734   7.648
  821POPC   C1B14179   7.124  30.714   8.785
  821POPC   C2B14180   7.072  30.658   8.331
  821POPC   C3B14181   7.200  30.801   7.927
  821POPC   C4B14182   7.153  30.713   7.458
  822POPC   NC314183  31.618  35.861   9.727
  822POPC   PO414184  31.652  35.289   9.416
  822POPC   GL114185  31.680  35.333   9.037
  822POPC   GL214186  31.762  35.665   9.051
  822POPC   C1A14187  31.621  35.155   8.662
  822POPC   D2A14188  31.666  35.302   8.269
  822POPC   C3A14189  31.412  35.038   8.061
  822POPC   C4A14190  31.370  35.184   7.677
  822POPC   C1B14191  31.425  35.722   8.761
  822POPC   C2B14192  31.328  35.867   8.341
  822POPC   C3B14193  31.330  35.635   7.951
  822POPC   C4B14194  31.394  35.666   7.490
  823POPC   NC314195  34.270  39.051   9.550
  823POPC   PO414196  34.697  39.580   9.557
  823POPC   GL114197  34.570  39.352   9.231
  823POPC   GL214198  34.660  38.985   9.248
  823POPC   C1A14199  34.481  39.306   8.820
  823POPC   D2A14200  34.448  39.521   8.452
  823POPC   C3A14201  34.487  39.303   8.091
  823POPC   C4A14202  34.384  39.432   7.693
  823POPC   C1B14203  34.755  38.827   8.858
  823POPC   C2B14204  34.708  39.006   8.468
  823POPC   C3B14205  34.841  38.916   8.091
  823POPC   C4B14206  34.814  39.100   7.750
  824POPC   NC314207  14.174  37.043   9.623
  824POPC   PO414208  14.455  36.489   9.760
  824POPC   GL114209  14.296  36.672   9.276
  824POPC   GL214210  14.302  37.040   9.143
  824POPC   C1A14211  14.340  36.663   8.811
  824POPC   D2A14212  14.127  36.610   8.416
  824POPC   C3A14213  14.244  36.445   8.032
  824POPC   C4A14214  14.414  36.586   7.650
  824POPC   C1B14215  14.487  37.175   8.742
  824POPC   C2B14216  14.691  37.050   8.378
  824POPC   C3B14217  14.506  36.925   8.019
  824POPC   C4B14218  14.451  37.095   7.645
  825POPC   NC314219  42.316  20.884   9.586
  825POPC   PO414220  42.456  20.291   9.543
  825POPC   GL114221  42.337  20.557   9.175
  825POPC   GL214222  42.056  20.790   9.137
  825POPC   C1A14223  42.318  20.703   8.731
  825POPC   D2A14224  42.550  20.608   8.396
  825POPC   C3A14225  42.418  20.661   7.997
  825POPC   C4A14226  42.455  20.512   7.571
  825POPC   C1B14227  41.854  20.957   8.775
  825POPC   C2B14228  41.946  20.895   8.347
  825POPC   C3B14229  42.136  21.100   8.034
  825POPC   C4B14230  42.232  20.999   7.642
  826POPC   NC314231  18.950   2.973   9.426
  826POPC   PO414232  18.882   2.328   9.306
  826POPC   GL114233  18.827   2.668   9.042
  826POPC   GL214234  18.558   2.910   9.069
  826POPC   C1A14235  19.102   2.879   8.767
  826POPC   D2A14236  19.079   2.676   8.378
  826POPC   C3A14237  19.290   2.901   8.095
  826POPC   C4A14238  19.425   2.602   7.792
  826POPC   C1B14239  18.625   2.830   8.607
  826POPC   C2B14240  18.657   2.891   8.161
  826POPC   C3B14241  18.907   2.734   7.807
  826POPC   C4B14242  19.080   2.799   7.416
  827POPC   NC314243  27.169  27.806   9.523
  827POPC   PO414244  27.742  27.455   9.534
  827POPC   GL114245  27.516  27.553   9.137
  827POPC   GL214246  27.289  27.288   8.994
  827POPC   C1A14247  27.431  27.791   8.762
  827POPC   D2A14248  27.280  27.888   8.343
  827POPC   C3A14249  27.518  27.701   7.986
  827POPC   C4A14250  27.852  27.482   7.791
  827POPC   C1B14251  27.616  27.277   8.699
  827POPC   C2B14252  27.749  27.248   8.270
  827POPC   C3B14253  27.474  27.192   7.938
  827POPC   C4B14254  27.228  27.431   7.671
  828POPC   NC314255   7.260  10.695   9.485
  828POPC   PO414256   7.951  10.593   9.431
  828POPC   GL114257   7.604  10.599   9.102
  828POPC   GL214258   7.421  10.296   9.170
  828POPC   C1A14259   7.283  10.562   8.739
  828POPC   D2A14260   7.136  10.707   8.329
  828POPC   C3A14261   7.468  10.672   8.032
  828POPC   C4A14262   7.919  10.764   8.021
  828POPC   C1B14263   7.430  10.062   8.767
  828POPC   C2B14264   7.285  10.200   8.364
  828POPC   C3B14265   7.247  10.195   7.942
  828POPC   C4B14266   7.433  10.389   7.613
  829POPC   NC314267  37.199  12.703   9.834
  829POPC   PO414268  37.124  12.134   9.458
  829POPC   GL114269  36.798  12.184   9.167
  829POPC   GL214270  36.590  12.464   9.260
  829POPC   C1A14271  36.845  12.149   8.729
  829POPC   D2A14272  36.575  12.075   8.380
  829POPC   C3A14273  36.830  11.934   8.058
  829POPC   C4A14274  37.095  12.125   7.749
  829POPC   C1B14275  36.495  12.495   8.826
  829POPC   C2B14276  36.709  12.574   8.458
  829POPC   C3B14277  36.727  12.436   8.045
  829POPC   C4B14278  36.616  12.287   7.631
  830POPC   NC314279  31.799  42.346   9.424
  830POPC   PO414280  31.169  42.454   9.185
  830POPC   GL114281  31.410  42.245   8.937
  830POPC   GL214282  31.740  42.378   8.924
  830POPC   C1A14283  31.455  42.389   8.515
  830POPC   D2A14284  31.693  42.682   8.288
  830POPC   C3A14285  31.607  42.481   7.922
  830POPC   C4A14286  31.320  42.137   7.830
  830POPC   C1B14287  31.753  41.992   8.679
  830POPC   C2B14288  31.623  41.971   8.264
  830POPC   C3B14289  31.828  42.012   7.906
  830POPC   C4B14290  31.993  42.276   7.638
  831POPC   NC314291  36.746  38.694   9.355
  831POPC   PO414292  37.144  38.190   9.390
  831POPC   GL114293  36.990  38.260   8.971
  831POPC   GL214294  36.689  38.452   8.913
  831POPC   C1A14295  36.988  38.309   8.503
  831POPC   D2A14296  36.625  38.415   8.231
  831POPC   C3A14297  36.738  38.565   7.866
  831POPC   C4A14298  37.192  38.569   7.921
  831POPC   C1B14299  37.036  38.750   8.791
  831POPC   C2B14300  37.144  38.926   8.433
  831POPC   C3B14301  36.922  38.961   8.120
  831POPC   C4B14302  37.116  39.123   7.787
  832POPC   NC314303  11.068  23.455   9.537
  832POPC   PO414304  11.639  23.838   9.553
  832POPC   GL114305  11.358  23.769   9.233
  832POPC   GL214306  11.239  24.095   9.219
  832POPC   C1A14307  11.336  23.478   8.890
  832POPC   D2A14308  11.558  23.290   8.533
  832POPC   C3A14309  11.326  23.427   8.180
  832POPC   C4A14310  11.332  23.716   7.843
  832POPC   C1B14311  11.216  24.039   8.804
  832POPC   C2B14312  11.392  23.841   8.478
  832POPC   C3B14313  11.478  24.102   8.131
  832POPC   C4B14314  11.228  24.211   7.779
  833POPC   NC314315  27.232  41.676   9.466
  833POPC   PO414316  27.774  42.095   9.520
  833POPC   GL114317  27.765  41.685   9.238
  833POPC   GL214318  27.440  41.523   9.038
  833POPC   C1A14319  27.885  41.447   8.836
  833POPC   D2A14320  27.611  41.455   8.461
  833POPC   C3A14321  27.813  41.440   8.063
  833POPC   C4A14322  28.002  41.606   7.703
  833POPC   C1B14323  27.609  41.866   8.790
  833POPC   C2B14324  27.797  42.049   8.444
  833POPC   C3B14325  27.677  41.942   8.057
  833POPC   C4B14326  27.564  41.869   7.672
  834POPC   NC314327  29.497  29.985   9.575
  834POPC   PO414328  28.829  29.886   9.597
  834POPC   GL114329  29.001  29.877   9.149
  834POPC   GL214330  29.371  29.773   9.134
  834POPC   C1A14331  29.150  30.022   8.715
  834POPC   D2A14332  29.359  30.105   8.293
  834POPC   C3A14333  29.102  30.109   7.899
  834POPC   C4A14334  28.784  30.349   7.668
  834POPC   C1B14335  29.313  29.531   8.784
  834POPC   C2B14336  29.405  29.570   8.354
  834POPC   C3B14337  29.413  29.693   7.947
  834POPC   C4B14338  29.265  29.534   7.569
  835POPC   NC314339   3.684   7.760   9.356
  835POPC   PO414340   3.805   7.142   9.455
  835POPC   GL114341   3.525   7.319   9.102
  835POPC   GL214342   3.221   7.556   9.152
  835POPC   C1A14343   3.604   7.455   8.665
  835POPC   D2A14344   3.822   7.638   8.286
  835POPC   C3A14345   3.672   7.415   7.911
  835POPC   C4A14346   3.872   7.183   7.584
  835POPC   C1B14347   3.083   7.409   8.764
  835POPC   C2B14348   3.109   7.115   8.425
  835POPC   C3B14349   3.103   7.228   7.997
  835POPC   C4B14350   3.223   7.603   7.806
  836POPC   NC314351  39.638  38.616   9.478
  836POPC   PO414352  38.991  38.387   9.603
  836POPC   GL114353  39.218  38.396   9.228
  836POPC   GL214354  39.337  38.124   9.089
  836POPC   C1A14355  39.303  38.593   8.836
  836POPC   D2A14356  39.111  38.770   8.476
  836POPC   C3A14357  39.270  38.708   8.083
  836POPC   C4A14358  39.197  38.600   7.667
  836POPC   C1B14359  39.123  38.106   8.716
  836POPC   C2B14360  39.069  38.267   8.323
  836POPC   C3B14361  39.283  38.192   7.946
  836POPC   C4B14362  39.219  38.111   7.512
  837POPC   NC314363  24.971  31.973   9.625
  837POPC   PO414364  25.318  31.322   9.564
  837POPC   GL114365  25.179  31.269   9.156
  837POPC   GL214366  25.009  31.581   9.168
  837POPC   C1A14367  25.369  31.237   8.754
  837POPC   D2A14368  25.612  31.496   8.467
  837POPC   C3A14369  25.409  31.581   8.063
  837POPC   C4A14370  25.311  31.184   7.847
  837POPC   C1B14371  25.192  31.719   8.739
  837POPC   C2B14372  25.027  31.812   8.320
  837POPC   C3B14373  24.923  31.738   7.873
  837POPC   C4B14374  24.818  31.775   7.409
  838POPC   NC314375  12.214  22.033   9.567
  838POPC   PO414376  11.859  21.552   9.264
  838POPC   GL114377  12.222  21.812   9.093
  838POPC   GL214378  12.287  22.202   9.108
  838POPC   C1A14379  12.291  21.944   8.672
  838POPC   D2A14380  12.067  22.123   8.352
  838POPC   C3A14381  12.150  21.926   8.003
  838POPC   C4A14382  12.045  22.091   7.628
  838POPC   C1B14383  12.219  22.434   8.757
  838POPC   C2B14384  12.370  22.526   8.346
  838POPC   C3B14385  12.302  22.414   7.935
  838POPC   C4B14386  12.314  22.503   7.463
  839POPC   NC314387   0.017  40.741   9.378
  839POPC   PO414388   0.640  40.830   9.446
  839POPC   GL114389   0.399  40.926   9.072
  839POPC   GL214390   0.644  41.212   9.013
  839POPC   C1A14391   0.283  41.095   8.677
  839POPC   D2A14392   0.173  40.930   8.298
  839POPC   C3A14393   0.292  41.051   7.909
  839POPC   C4A14394   0.284  40.782   7.550
  839POPC   C1B14395   0.740  40.845   8.721
  839POPC   C2B14396   0.698  40.892   8.305
  839POPC   C3B14397   0.713  40.754   7.906
  839POPC   C4B14398   0.724  41.041   7.598
  840POPC   NC314399  38.236  19.372   9.698
  840POPC   PO414400  38.336  18.684   9.628
  840POPC   GL114401  38.434  19.053   9.282
  840POPC   GL214402  38.357  19.415   9.197
  840POPC   C1A14403  38.604  19.096   8.852
  840POPC   D2A14404  38.399  18.989   8.446
  840POPC   C3A14405  38.535  18.739   8.083
  840POPC   C4A14406  38.537  19.073   7.820
  840POPC   C1B14407  38.285  19.471   8.748
  840POPC   C2B14408  38.605  19.478   8.438
  840POPC   C3B14409  38.585  19.560   8.018
  840POPC   C4B14410  38.212  19.469   7.786
  841POPC   NC314411  42.646   6.173   9.514
  841POPC   PO414412  43.342   6.098   9.505
  841POPC   GL114413  43.047   6.033   9.168
  841POPC   GL214414  42.814   6.268   9.059
  841POPC   C1A14415  43.160   6.051   8.738
  841POPC   D2A14416  43.231   5.717   8.452
  841POPC   C3A14417  43.191   5.917   8.078
  841POPC   C4A14418  43.224   5.742   7.721
  841POPC   C1B14419  42.651   6.090   8.729
  841POPC   C2B14420  42.775   5.980   8.364
  841POPC   C3B14421  42.735   6.152   7.963
  841POPC   C4B14422  43.078   6.267   7.721
  842POPC   NC314423   8.478   3.773   9.787
  842POPC   PO414424   9.149   3.854   9.517
  842POPC   GL114425   8.931   3.630   9.205
  842POPC   GL214426   8.898   3.283   9.261
  842POPC   C1A14427   8.840   3.707   8.791
  842POPC   D2A14428   8.807   3.835   8.413
  842POPC   C3A14429   8.995   3.701   8.081
  842POPC   C4A14430   8.758   3.676   7.724
  842POPC   C1B14431   9.088   3.254   8.846
  842POPC   C2B14432   9.240   3.391   8.458
  842POPC   C3B14433   9.148   3.216   8.075
  842POPC   C4B14434   9.040   3.235   7.673
  843POPC   NC314435   6.142   8.381   9.496
  843POPC   PO414436   5.852   7.884   9.344
  843POPC   GL114437   5.806   8.236   9.121
  843POPC   GL214438   5.543   8.424   9.254
  843POPC   C1A14439   5.900   8.199   8.702
  843POPC   D2A14440   5.905   7.883   8.401
  843POPC   C3A14441   6.114   7.956   8.052
  843POPC   C4A14442   5.918   8.245   7.818
  843POPC   C1B14443   5.483   8.486   8.797
  843POPC   C2B14444   5.658   8.548   8.360
  843POPC   C3B14445   5.510   8.547   7.896
  843POPC   C4B14446   5.720   8.541   7.457
  844POPC   NC314447  31.543  44.072   9.748
  844POPC   PO414448  32.113  44.113   9.478
  844POPC   GL114449  31.881  43.989   9.181
  844POPC   GL214450  32.038  43.675   9.165
  844POPC   C1A14451  31.953  43.978   8.761
  844POPC   D2A14452  32.267  43.994   8.496
  844POPC   C3A14453  32.016  44.009   8.180
  844POPC   C4A14454  32.014  43.910   7.782
  844POPC   C1B14455  32.372  43.575   8.849
  844POPC   C2B14456  32.539  43.566   8.428
  844POPC   C3B14457  32.349  43.630   8.056
  844POPC   C4B14458  32.233  43.457   7.678
  845POPC   NC314459  10.085  19.543   9.400
  845POPC   PO414460   9.870  20.162   9.516
  845POPC   GL114461   9.721  20.061   9.104
  845POPC   GL214462   9.762  19.699   9.024
  845POPC   C1A14463   9.708  20.056   8.641
  845POPC   D2A14464   9.837  19.787   8.294
  845POPC   C3A14465   9.646  19.859   7.863
  845POPC   C4A14466   9.670  20.075   7.454
  845POPC   C1B14467   9.415  19.661   8.702
  845POPC   C2B14468   9.310  19.904   8.305
  845POPC   C3B14469   9.135  19.851   7.878
  845POPC   C4B14470   9.278  19.759   7.444
  846POPC   NC314471  20.740   6.143   9.568
  846POPC   PO414472  20.208   5.662   9.572
  846POPC   GL114473  20.492   5.656   9.199
  846POPC   GL214474  20.861   5.782   9.201
  846POPC   C1A14475  20.538   5.830   8.775
  846POPC   D2A14476  20.389   6.064   8.415
  846POPC   C3A14477  20.415   5.864   8.010
  846POPC   C4A14478  20.330   6.076   7.683
  846POPC   C1B14479  20.911   6.166   8.908
  846POPC   C2B14480  20.867   6.307   8.450
  846POPC   C3B14481  20.841   6.147   7.993
  846POPC   C4B14482  20.796   6.083   7.506
  847POPC   NC314483  26.609   0.868   9.473
  847POPC   PO414484  26.995   1.429   9.602
  847POPC   GL114485  26.837   1.262   9.194
  847POPC   GL214486  27.140   1.150   9.136
  847POPC   C1A14487  26.593   1.406   8.812
  847POPC   D2A14488  26.716   1.636   8.452
  847POPC   C3A14489  26.705   1.376   8.111
  847POPC   C4A14490  26.424   1.158   7.832
  847POPC   C1B14491  26.979   1.082   8.731
  847POPC   C2B14492  26.595   0.937   8.573
  847POPC   C3B14493  26.636   0.867   8.170
  847POPC   C4B14494  26.935   1.045   7.804
  848POPC   NC314495  40.957  23.705   9.463
  848POPC   PO414496  40.279  23.928   9.475
  848POPC   GL114497  40.537  23.699   9.132
  848POPC   GL214498  40.873  23.800   8.991
  848POPC   C1A14499  40.568  23.509   8.696
  848POPC   D2A14500  40.758  23.528   8.268
  848POPC   C3A14501  40.471  23.574   7.906
  848POPC   C4A14502  40.541  23.506   7.468
  848POPC   C1B14503  41.096  23.672   8.649
  848POPC   C2B14504  41.151  23.889   8.275
  848POPC   C3B14505  40.932  23.873   7.883
  848POPC   C4B14506  40.885  23.891   7.446
  849POPC   NC314507  25.908   2.928   9.509
  849POPC   PO414508  26.060   2.268   9.424
  849POPC   GL114509  25.859   2.534   9.132
  849POPC   GL214510  26.041   2.856   9.030
  849POPC   C1A14511  25.748   2.641   8.711
  849POPC   D2A14512  25.956   2.872   8.423
  849POPC   C3A14513  25.818   2.723   8.067
  849POPC   C4A14514  26.029   2.762   7.687
  849POPC   C1B14515  25.705   3.150   8.766
  849POPC   C2B14516  25.679   3.321   8.337
  849POPC   C3B14517  25.562   3.128   7.917
  849POPC   C4B14518  25.696   3.078   7.472
  850POPC   NC314519  26.926   4.960   9.565
  850POPC   PO414520  26.200   4.880   9.580
  850POPC   GL114521  26.531   5.045   9.208
  850POPC   GL214522  26.888   5.088   9.089
  850POPC   C1A14523  26.517   5.095   8.759
  850POPC   D2A14524  26.868   5.029   8.467
  850POPC   C3A14525  26.822   4.840   8.059
  850POPC   C4A14526  27.158   4.874   7.793
  850POPC   C1B14527  26.899   5.429   8.805
  850POPC   C2B14528  26.758   5.526   8.400
  850POPC   C3B14529  26.739   5.368   7.995
  850POPC   C4B14530  26.525   5.515   7.640
  851POPC   NC314531  15.903  29.386   9.785
  851POPC   PO414532  16.312  29.581   9.287
  851POPC   GL114533  16.010  29.207   9.136
  851POPC   GL214534  16.020  28.896   9.001
  851POPC   C1A14535  15.723  29.204   8.753
  851POPC   D2A14536  15.739  29.007   8.354
  851POPC   C3A14537  15.834  29.281   8.041
  851POPC   C4A14538  16.029  29.259   7.655
  851POPC   C1B14539  16.199  28.983   8.611
  851POPC   C2B14540  16.512  29.030   8.308
  851POPC   C3B14541  16.417  28.977   7.866
  851POPC   C4B14542  16.245  28.816   7.458
  852POPC   NC314543  35.328  11.809   9.750
  852POPC   PO414544  35.222  11.164   9.718
  852POPC   GL114545  35.259  11.334   9.232
  852POPC   GL214546  35.023  11.631   9.142
  852POPC   C1A14547  35.431  11.211   8.817
  852POPC   D2A14548  35.632  11.096   8.417
  852POPC   C3A14549  35.371  11.127   8.053
  852POPC   C4A14550  35.498  11.375   7.731
  852POPC   C1B14551  35.024  11.519   8.777
  852POPC   C2B14552  35.177  11.401   8.415
  852POPC   C3B14553  35.140  11.627   8.046
  852POPC   C4B14554  35.053  11.590   7.632
  853POPC   NC314555  38.296  43.543   9.424
  853POPC   PO414556  38.871  43.867   9.497
  853POPC   GL114557  38.587  43.952   9.170
  853POPC   GL214558  38.258  44.035   9.259
  853POPC   C1A14559  38.667  44.073   8.732
  853POPC   D2A14560  38.498  43.875   8.379
  853POPC   C3A14561  38.494  44.041   7.996
  853POPC   C4A14562  38.508  43.723   7.656
  853POPC   C1B14563  38.157  43.996   8.811
  853POPC   C2B14564  37.997  43.902   8.391
  853POPC   C3B14565  38.100  43.727   8.002
  853POPC   C4B14566  38.055  43.910   7.561
  854POPC   NC314567  33.006  13.335   9.499
  854POPC   PO414568  32.777  14.016   9.457
  854POPC   GL114569  32.925  13.748   9.120
  854POPC   GL214570  32.777  13.410   9.049
  854POPC   C1A14571  33.048  13.640   8.693
  854POPC   D2A14572  33.083  13.845   8.307
  854POPC   C3A14573  33.359  13.635   8.069
  854POPC   C4A14574  33.294  13.450   7.696
  854POPC   C1B14575  32.602  13.336   8.650
  854POPC   C2B14576  32.776  13.432   8.261
  854POPC   C3B14577  32.773  13.486   7.838
  854POPC   C4B14578  32.543  13.264   7.507
  855POPC   NC314579  38.497  33.277   9.584
  855POPC   PO414580  38.822  32.669   9.533
  855POPC   GL114581  38.756  32.996   9.251
  855POPC   GL214582  38.370  33.055   9.146
  855POPC   C1A14583  38.782  33.030   8.827
  855POPC   D2A14584  38.532  32.892   8.500
  855POPC   C3A14585  38.519  33.204   8.227
  855POPC   C4A14586  38.506  33.202   7.790
  855POPC   C1B14587  38.118  32.866   8.799
  855POPC   C2B14588  38.040  32.975   8.343
  855POPC   C3B14589  38.285  32.806   8.010
  855POPC   C4B14590  38.246  32.759   7.574
  856POPC   NC314591   5.075  28.085   9.614
  856POPC   PO414592   5.364  28.608   9.468
  856POPC   GL114593   5.116  28.428   9.177
  856POPC   GL214594   5.158  28.110   9.097
  856POPC   C1A14595   5.157  28.486   8.734
  856POPC   D2A14596   5.090  28.535   8.306
  856POPC   C3A14597   4.698  28.403   8.113
  856POPC   C4A14598   4.673  28.331   7.703
  856POPC   C1B14599   5.174  27.968   8.706
  856POPC   C2B14600   4.940  28.028   8.362
  856POPC   C3B14601   4.959  27.966   7.958
  856POPC   C4B14602   5.294  27.873   7.759
  857POPC   NC314603   2.244  30.662   9.556
  857POPC   PO414604   1.767  31.002   9.164
  857POPC   GL114605   2.205  30.829   9.060
  857POPC   GL214606   2.364  30.488   9.100
  857POPC   C1A14607   2.257  30.746   8.619
  857POPC   D2A14608   1.940  30.689   8.283
  857POPC   C3A14609   2.112  30.829   7.901
  857POPC   C4A14610   2.279  31.017   7.557
  857POPC   C1B14611   2.309  30.258   8.744
  857POPC   C2B14612   2.477  30.295   8.320
  857POPC   C3B14613   2.182  30.327   8.000
  857POPC   C4B14614   1.753  30.471   7.823
  858POPC   NC314615  38.940  29.000   9.599
  858POPC   PO414616  39.566  29.323   9.500
  858POPC   GL114617  39.408  29.290   9.132
  858POPC   GL214618  39.125  29.142   9.162
  858POPC   C1A14619  39.410  29.290   8.714
  858POPC   D2A14620  39.601  29.011   8.458
  858POPC   C3A14621  39.308  29.019   8.143
  858POPC   C4A14622  39.204  29.140   7.748
  858POPC   C1B14623  38.963  29.012   8.789
  858POPC   C2B14624  38.827  29.014   8.357
  858POPC   C3B14625  38.888  28.780   7.961
  858POPC   C4B14626  38.946  28.784   7.494
  859POPC   NC314627  30.301  23.912   9.418
  859POPC   PO414628  29.960  23.392   9.386
  859POPC   GL114629  29.943  23.729   9.117
  859POPC   GL214630  29.692  23.572   8.929
  859POPC   C1A14631  29.977  23.969   8.752
  859POPC   D2A14632  29.787  23.814   8.369
  859POPC   C3A14633  29.944  23.806   7.946
  859POPC   C4A14634  29.988  24.030   7.572
  859POPC   C1B14635  30.067  23.442   8.689
  859POPC   C2B14636  30.084  23.413   8.258
  859POPC   C3B14637  30.088  23.251   7.869
  859POPC   C4B14638  30.295  23.541   7.612
  860POPC   NC314639  43.423  12.939   9.688
  860POPC   PO414640  43.961  12.572   9.655
  860POPC   GL114641  43.959  12.798   9.241
  860POPC   GL214642  43.801  13.110   9.233
  860POPC   C1A14643  44.001  12.851   8.793
  860POPC   D2A14644  43.869  12.908   8.378
  860POPC   C3A14645  44.127  12.873   8.039
  860POPC   C4A14646  43.944  12.840   7.643
  860POPC   C1B14647  43.578  13.152   8.825
  860POPC   C2B14648  43.531  13.315   8.381
  860POPC   C3B14649  43.621  13.127   7.947
  860POPC   C4B14650  43.688  13.250   7.485
  861POPC   NC314651  20.307   5.227   9.441
  861POPC   PO414652  20.912   4.962   9.454
  861POPC   GL114653  20.637   5.000   9.116
  861POPC   GL214654  20.379   4.778   9.119
  861POPC   C1A14655  20.660   5.035   8.681
  861POPC   D2A14656  20.848   4.830   8.309
  861POPC   C3A14657  20.751   5.070   7.965
  861POPC   C4A14658  20.827   5.518   7.822
  861POPC   C1B14659  20.156   4.884   8.790
  861POPC   C2B14660  20.319   4.769   8.401
  861POPC   C3B14661  20.185   4.815   8.001
  861POPC   C4B14662  20.382   4.664   7.639
  862POPC   NC314663  38.147   8.833   9.405
  862POPC   PO414664  38.788   9.105   9.583
  862POPC   GL114665  38.573   9.060   9.184
  862POPC   GL214666  38.317   9.294   9.200
  862POPC   C1A14667  38.495   9.058   8.715
  862POPC   D2A14668  38.307   8.857   8.327
  862POPC   C3A14669  38.637   8.783   8.022
  862POPC   C4A14670  38.675   8.947   7.601
  862POPC   C1B14671  38.194   9.456   8.802
  862POPC   C2B14672  38.086   9.325   8.378
  862POPC   C3B14673  38.303   9.257   7.973
  862POPC   C4B14674  38.236   9.257   7.552
  863POPC   NC314675  24.948  35.110   9.413
  863POPC   PO414676  24.287  34.959   9.452
  863POPC   GL114677  24.504  35.167   9.126
  863POPC   GL214678  24.628  35.517   9.182
  863POPC   C1A14679  24.367  35.383   8.746
  863POPC   D2A14680  24.427  35.307   8.319
  863POPC   C3A14681  24.289  35.323   7.902
  863POPC   C4A14682  24.533  35.089   7.591
  863POPC   C1B14683  24.874  35.460   8.780
  863POPC   C2B14684  24.924  35.233   8.365
  863POPC   C3B14685  24.782  35.385   7.964
  863POPC   C4B14686  24.953  35.600   7.623
  864POPC   NC314687  27.790  35.706   9.547
  864POPC   PO414688  27.436  36.287   9.428
  864POPC   GL114689  27.585  35.982   9.151
  864POPC   GL214690  27.719  36.274   8.994
  864POPC   C1A14691  27.485  35.846   8.741
  864POPC   D2A14692  27.334  35.989   8.328
  864POPC   C3A14693  27.533  36.096   7.943
  864POPC   C4A14694  27.378  36.039   7.544
  864POPC   C1B14695  28.044  36.464   8.770
  864POPC   C2B14696  27.996  36.635   8.368
  864POPC   C3B14697  27.751  36.568   8.020
  864POPC   C4B14698  27.934  36.406   7.618
  865POPC   NC314699  42.662  36.408   9.412
  865POPC   PO414700  43.245  36.685   9.639
  865POPC   GL114701  43.271  36.611   9.136
  865POPC   GL214702  43.035  36.355   9.078
  865POPC   C1A14703  43.216  36.715   8.676
  865POPC   D2A14704  43.325  36.699   8.216
  865POPC   C3A14705  43.240  37.002   7.902
  865POPC   C4A14706  43.478  37.349   7.745
  865POPC   C1B14707  42.777  36.469   8.725
  865POPC   C2B14708  42.904  36.429   8.322
  865POPC   C3B14709  42.938  36.581   7.905
  865POPC   C4B14710  43.317  36.470   7.739
  866POPC   NC314711  41.880  17.061   9.474
  866POPC   PO414712  42.208  16.514   9.496
  866POPC   GL114713  42.303  16.761   9.129
  866POPC   GL214714  42.583  17.039   9.188
  866POPC   C1A14715  42.241  16.614   8.695
  866POPC   D2A14716  42.037  16.729   8.299
  866POPC   C3A14717  42.199  16.584   7.919
  866POPC   C4A14718  42.402  16.778   7.573
  866POPC   C1B14719  42.699  16.843   8.782
  866POPC   C2B14720  42.678  16.582   8.402
  866POPC   C3B14721  42.711  16.746   7.983
  866POPC   C4B14722  42.684  17.141   7.764
  867POPC   NC314723   5.665   4.483   9.310
  867POPC   PO414724   5.021   4.353   9.420
  867POPC   GL114725   5.115   4.569   9.083
  867POPC   GL214726   5.305   4.290   8.979
  867POPC   C1A14727   4.931   4.481   8.703
  867POPC   D2A14728   5.126   4.479   8.373
  867POPC   C3A14729   4.881   4.365   8.087
  867POPC   C4A14730   4.994   4.475   7.707
  867POPC   C1B14731   5.196   4.031   8.617
  867POPC   C2B14732   5.081   3.876   8.222
  867POPC   C3B14733   5.066   3.984   7.794
  867POPC   C4B14734   5.096   4.133   7.352
  868POPC   NC314735  19.383  39.964   9.516
  868POPC   PO414736  20.062  40.076   9.493
  868POPC   GL114737  19.792  39.907   9.206
  868POPC   GL214738  19.647  40.241   9.174
  868POPC   C1A14739  19.868  39.690   8.831
  868POPC   D2A14740  20.091  39.888   8.473
  868POPC   C3A14741  20.166  39.763   8.056
  868POPC   C4A14742  20.045  39.850   7.618
  868POPC   C1B14743  19.733  40.178   8.753
  868POPC   C2B14744  19.600  39.960   8.391
  868POPC   C3B14745  19.789  40.114   8.015
  868POPC   C4B14746  19.602  40.098   7.627
  869POPC   NC314747   1.662  16.362   9.748
  869POPC   PO414748   2.091  16.092   9.302
  869POPC   GL114749   2.177  15.833   8.991
  869POPC   GL214750   1.848  15.706   9.023
  869POPC   C1A14751   2.194  15.943   8.567
  869POPC   D2A14752   1.940  16.114   8.273
  869POPC   C3A14753   2.217  16.065   7.967
  869POPC   C4A14754   2.271  15.946   7.580
  869POPC   C1B14755   1.716  15.778   8.625
  869POPC   C2B14756   1.874  15.607   8.261
  869POPC   C3B14757   1.850  15.700   7.846
  869POPC   C4B14758   1.451  15.731   7.664
  870POPC   NC314759  20.218  28.087   9.582
  870POPC   PO414760  20.730  28.409   9.348
  870POPC   GL114761  20.503  28.455   9.034
  870POPC   GL214762  20.205  28.307   9.132
  870POPC   C1A14763  20.690  28.534   8.663
  870POPC   D2A14764  20.480  28.602   8.313
  870POPC   C3A14765  20.622  28.339   8.036
  870POPC   C4A14766  20.928  28.472   7.773
  870POPC   C1B14767  20.153  28.007   8.831
  870POPC   C2B14768  20.274  28.084   8.404
  870POPC   C3B14769  20.161  27.959   8.024
  870POPC   C4B14770  20.343  28.112   7.669
  871POPC   NC314771  23.294  31.824   9.487
  871POPC   PO414772  23.783  32.289   9.548
  871POPC   GL114773  23.781  32.014   9.213
  871POPC   GL214774  23.487  32.120   9.088
  871POPC   C1A14775  24.001  31.908   8.827
  871POPC   D2A14776  24.133  32.162   8.468
  871POPC   C3A14777  24.056  32.178   8.047
  871POPC   C4A14778  24.029  32.246   7.622
  871POPC   C1B14779  23.771  32.371   8.784
  871POPC   C2B14780  23.750  32.495   8.315
  871POPC   C3B14781  23.619  32.443   7.859
  871POPC   C4B14782  23.570  32.403   7.394
  872POPC   NC314783  14.720   7.041   9.486
  872POPC   PO414784  14.144   7.382   9.523
  872POPC   GL114785  14.362   7.399   9.120
  872POPC   GL214786  14.712   7.333   9.068
  872POPC   C1A14787  14.185   7.386   8.708
  872POPC   D2A14788  14.009   7.175   8.364
  872POPC   C3A14789  14.121   7.391   7.987
  872POPC   C4A14790  14.384   7.708   7.830
  872POPC   C1B14791  14.716   7.094   8.706
  872POPC   C2B14792  14.521   7.055   8.304
  872POPC   C3B14793  14.637   7.271   7.930
  872POPC   C4B14794  14.803   7.386   7.538
  873POPC   NC314795   0.193  15.670   9.456
  873POPC   PO414796   0.488  16.268   9.568
  873POPC   GL114797   0.453  16.034   9.217
  873POPC   GL214798   0.213  16.227   9.069
  873POPC   C1A14799   0.652  16.009   8.842
  873POPC   D2A14800   0.464  16.067   8.460
  873POPC   C3A14801   0.644  15.900   8.115
  873POPC   C4A14802   0.491  15.636   7.795
  873POPC   C1B14803   0.009  16.275   8.649
  873POPC   C2B14804   0.040  16.209   8.234
  873POPC   C3B14805   0.296  16.243   7.873
  873POPC   C4B14806   0.282  16.158   7.416
  874POPC   NC314807   1.307   6.551   9.832
  874POPC   PO414808   1.506   6.894   9.230
  874POPC   GL114809   1.066   6.738   9.065
  874POPC   GL214810   0.768   6.947   9.080
  874POPC   C1A14811   1.153   6.482   8.667
  874POPC   D2A14812   1.502   6.546   8.346
  874POPC   C3A14813   1.314   6.737   7.982
  874POPC   C4A14814   0.919   6.580   7.797
  874POPC   C1B14815   0.902   6.928   8.646
  874POPC   C2B14816   0.888   6.738   8.288
  874POPC   C3B14817   0.808   7.027   8.019
  874POPC   C4B14818   1.048   7.074   7.692
  875POPC   NC314819  19.306  39.377   9.918
  875POPC   PO414820  18.987  39.262   9.356
  875POPC   GL114821  18.798  39.212   9.030
  875POPC   GL214822  18.535  38.977   9.086
  875POPC   C1A14823  18.973  39.323   8.670
  875POPC   D2A14824  18.831  39.303   8.311
  875POPC   C3A14825  19.062  39.506   8.025
  875POPC   C4A14826  19.283  39.315   7.714
  875POPC   C1B14827  18.623  38.924   8.635
  875POPC   C2B14828  18.555  38.894   8.198
  875POPC   C3B14829  18.866  39.038   7.862
  875POPC   C4B14830  18.781  39.158   7.428
  876POPC   NC314831  23.572  17.399   9.407
  876POPC   PO414832  23.938  17.904   9.494
  876POPC   GL114833  23.779  17.715   9.101
  876POPC   GL214834  23.934  17.342   9.026
  876POPC   C1A14835  23.580  17.538   8.728
  876POPC   D2A14836  23.745  17.359   8.361
  876POPC   C3A14837  23.603  17.533   7.994
  876POPC   C4A14838  23.606  17.662   7.602
  876POPC   C1B14839  23.589  17.041   8.776
  876POPC   C2B14840  23.364  16.930   8.366
  876POPC   C3B14841  23.490  17.036   7.920
  876POPC   C4B14842  23.882  17.209   7.702
  877POPC   NC314843  17.738   0.211   9.541
  877POPC   PO414844  17.560  44.629   9.741
  877POPC   GL114845  17.690  44.689   9.295
  877POPC   GL214846  17.845  44.961   9.101
  877POPC   C1A14847  17.713  44.552   8.829
  877POPC   D2A14848  17.816  44.672   8.378
  877POPC   C3A14849  17.782  44.628   7.911
  877POPC   C4A14850  17.494  44.733   7.570
  877POPC   C1B14851  17.779   0.112   8.677
  877POPC   C2B14852  17.823   0.166   8.223
  877POPC   C3B14853  17.679   0.193   7.776
  877POPC   C4B14854  17.390   0.199   7.408
  878POPC   NC314855   4.224  14.528   9.574
  878POPC   PO414856   4.498  14.004   9.275
  878POPC   GL114857   4.415  14.421   9.087
  878POPC   GL214858   4.554  14.759   9.258
  878POPC   C1A14859   4.341  14.447   8.632
  878POPC   D2A14860   4.348  14.539   8.195
  878POPC   C3A14861   4.267  14.254   7.858
  878POPC   C4A14862   4.174  13.997   7.505
  878POPC   C1B14863   4.726  14.767   8.863
  878POPC   C2B14864   4.638  14.877   8.475
  878POPC   C3B14865   4.762  14.838   8.076
  878POPC   C4B14866   4.532  14.698   7.726
  879POPC   NC314867  24.266  42.889   9.687
  879POPC   PO414868  23.720  43.387   9.490
  879POPC   GL114869  23.540  43.187   9.121
  879POPC   GL214870  23.848  42.991   9.117
  879POPC   C1A14871  23.461  43.152   8.709
  879POPC   D2A14872  23.607  42.884   8.393
  879POPC   C3A14873  23.466  43.046   8.023
  879POPC   C4A14874  23.547  43.424   7.823
  879POPC   C1B14875  24.063  43.013   8.698
  879POPC   C2B14876  24.095  42.902   8.251
  879POPC   C3B14877  23.942  43.045   7.809
  879POPC   C4B14878  23.916  42.933   7.333
  880POPC   NC314879  13.679  16.258  10.034
  880POPC   PO414880  14.047  15.931   9.551
  880POPC   GL114881  13.799  16.148   9.220
  880POPC   GL214882  13.411  16.219   9.291
  880POPC   C1A14883  13.907  16.113   8.775
  880POPC   D2A14884  13.756  15.916   8.418
  880POPC   C3A14885  13.815  16.080   7.987
  880POPC   C4A14886  13.651  15.749   7.737
  880POPC   C1B14887  13.433  15.980   8.908
  880POPC   C2B14888  13.262  15.849   8.523
  880POPC   C3B14889  13.329  15.966   8.112
  880POPC   C4B14890  13.324  16.136   7.688
  881POPC   NC314891  37.308  25.108   9.505
  881POPC   PO414892  36.715  25.332   9.654
  881POPC   GL114893  36.882  25.327   9.229
  881POPC   GL214894  37.190  25.475   9.146
  881POPC   C1A14895  36.846  25.210   8.786
  881POPC   D2A14896  36.879  25.370   8.365
  881POPC   C3A14897  36.651  25.186   8.034
  881POPC   C4A14898  36.438  25.528   7.837
  881POPC   C1B14899  37.307  25.385   8.687
  881POPC   C2B14900  37.240  25.025   8.355
  881POPC   C3B14901  37.154  25.025   7.880
  881POPC   C4B14902  37.282  25.163   7.452
  882POPC   NC314903  28.353  10.029   9.775
  882POPC   PO414904  27.857  10.136   9.350
  882POPC   GL114905  28.204   9.928   9.113
  882POPC   GL214906  28.507   9.746   9.242
  882POPC   C1A14907  28.408   9.975   8.732
  882POPC   D2A14908  28.404  10.240   8.366
  882POPC   C3A14909  28.451   9.944   8.040
  882POPC   C4A14910  28.284   9.743   7.672
  882POPC   C1B14911  28.506   9.473   8.845
  882POPC   C2B14912  28.540   9.552   8.378
  882POPC   C3B14913  28.624   9.466   7.929
  882POPC   C4B14914  28.605   9.391   7.464
  883POPC   NC314915  44.388  12.707   9.567
  883POPC   PO414916  44.985  13.040   9.467
  883POPC   GL114917  44.697  13.184   9.143
  883POPC   GL214918  44.458  12.888   9.095
  883POPC   C1A14919  44.669  13.128   8.697
  883POPC   D2A14920  44.658  12.841   8.366
  883POPC   C3A14921  44.631  12.947   7.922
  883POPC   C4A14922  44.443  13.008   7.484
  883POPC   C1B14923  44.352  12.491   8.876
  883POPC   C2B14924  44.242  12.526   8.452
  883POPC   C3B14925  44.463  12.474   8.070
  883POPC   C4B14926  44.349  12.547   7.680
  884POPC   NC314927  11.758   7.925   9.471
  884POPC   PO414928  12.345   8.389   9.510
  884POPC   GL114929  12.151   8.234   9.157
  884POPC   GL214930  11.804   8.289   9.064
  884POPC   C1A14931  12.318   8.204   8.764
  884POPC   D2A14932  12.519   8.407   8.441
  884POPC   C3A14933  12.266   8.297   8.106
  884POPC   C4A14934  12.070   8.041   7.796
  884POPC   C1B14935  11.849   8.356   8.604
  884POPC   C2B14936  11.722   8.224   8.180
  884POPC   C3B14937  11.656   8.319   7.723
  884POPC   C4B14938  11.675   8.497   7.282
  885POPC   NC314939  16.685   8.818   9.641
  885POPC   PO414940  16.866   9.426   9.453
  885POPC   GL114941  16.583   9.191   9.170
  885POPC   GL214942  16.673   8.839   9.132
  885POPC   C1A14943  16.677   9.123   8.714
  885POPC   D2A14944  16.612   9.123   8.292
  885POPC   C3A14945  16.955   9.118   8.024
  885POPC   C4A14946  16.935   9.310   7.616
  885POPC   C1B14947  16.416   8.677   8.778
  885POPC   C2B14948  16.528   8.583   8.352
  885POPC   C3B14949  16.651   8.707   7.958
  885POPC   C4B14950  16.516   9.072   7.765
  886POPC   NC314951  23.265  30.980   9.514
  886POPC   PO414952  22.911  31.514   9.464
  886POPC   GL114953  22.819  31.261   9.108
  886POPC   GL214954  23.150  31.270   9.054
  886POPC   C1A14955  22.777  31.384   8.657
  886POPC   D2A14956  22.948  31.488   8.226
  886POPC   C3A14957  22.678  31.492   7.851
  886POPC   C4A14958  22.713  31.349   7.419
  886POPC   C1B14959  23.299  31.387   8.619
  886POPC   C2B14960  23.514  31.368   8.214
  886POPC   C3B14961  23.319  31.486   7.834
  886POPC   C4B14962  23.053  31.862   7.847
  887POPC   NC314963   8.723  29.848   9.747
  887POPC   PO414964   9.195  29.819   9.341
  887POPC   GL114965   8.916  29.938   9.043
  887POPC   GL214966   8.618  29.838   9.202
  887POPC   C1A14967   8.829  30.003   8.609
  887POPC   D2A14968   8.615  30.077   8.217
  887POPC   C3A14969   8.937  30.092   7.918
  887POPC   C4A14970   9.308  29.868   7.714
  887POPC   C1B14971   8.544  29.633   8.839
  887POPC   C2B14972   8.771  29.479   8.482
  887POPC   C3B14973   8.714  29.559   8.063
  887POPC   C4B14974   8.836  29.658   7.666
  888POPC   NC314975   5.540  38.537   9.523
  888POPC   PO414976   6.056  38.192   9.409
  888POPC   GL114977   5.709  38.307   9.079
  888POPC   GL214978   5.619  38.669   9.030
  888POPC   C1A14979   5.767  38.160   8.666
  888POPC   D2A14980   6.096  38.270   8.368
  888POPC   C3A14981   5.922  38.365   7.982
  888POPC   C4A14982   5.644  38.094   7.800
  888POPC   C1B14983   5.959  38.625   8.720
  888POPC   C2B14984   6.084  38.783   8.298
  888POPC   C3B14985   5.995  38.862   7.867
  888POPC   C4B14986   5.965  39.047   7.433
  889POPC   NC314987  11.666  13.612   9.627
  889POPC   PO414988  12.278  13.801   9.426
  889POPC   GL114989  11.917  13.671   9.162
  889POPC   GL214990  11.848  14.012   9.096
  889POPC   C1A14991  11.787  13.446   8.758
  889POPC   D2A14992  12.109  13.341   8.421
  889POPC   C3A14993  12.194  13.417   7.971
  889POPC   C4A14994  12.018  13.517   7.616
  889POPC   C1B14995  12.060  13.865   8.696
  889POPC   C2B14996  12.138  13.837   8.225
  889POPC   C3B14997  12.129  13.979   7.760
  889POPC   C4B14998  11.787  13.906   7.395
  890POPC   NC314999   1.938   4.972   9.553
  890POPC   PO415000   2.056   5.613   9.561
  890POPC   GL115001   1.845   5.353   9.203
  890POPC   GL215002   2.060   5.042   9.079
  890POPC   C1A15003   1.979   5.409   8.748
  890POPC   D2A15004   2.013   5.117   8.412
  890POPC   C3A15005   2.053   5.247   8.037
  890POPC   C4A15006   1.846   5.170   7.674
  890POPC   C1B15007   2.334   4.945   8.751
  890POPC   C2B15008   2.425   4.795   8.328
  890POPC   C3B15009   2.433   4.902   7.890
  890POPC   C4B15010   2.210   4.914   7.435
  891POPC   NC315011  41.809  31.030   9.227
  891POPC   PO415012  42.277  30.623   9.684
  891POPC   GL115013  42.399  30.526   9.263
  891POPC   GL215014  42.055  30.549   9.140
  891POPC   C1A15015  42.601  30.669   8.848
  891POPC   D2A15016  42.501  30.808   8.423
  891POPC   C3A15017  42.584  30.553   8.049
  891POPC   C4A15018  42.258  30.456   7.745
  891POPC   C1B15019  41.962  30.693   8.698
  891POPC   C2B15020  42.035  31.029   8.379
  891POPC   C3B15021  42.112  30.963   7.941
  891POPC   C4B15022  42.014  30.877   7.499
  892POPC   NC315023  12.900   4.795   9.874
  892POPC   PO415024  12.497   4.327   9.508
  892POPC   GL115025  12.639   4.334   9.111
  892POPC   GL215026  12.928   4.524   9.141
  892POPC   C1A15027  12.674   4.378   8.684
  892POPC   D2A15028  12.720   4.177   8.334
  892POPC   C3A15029  12.650   4.332   7.966
  892POPC   C4A15030  12.706   4.057   7.650
  892POPC   C1B15031  13.182   4.380   8.776
  892POPC   C2B15032  13.274   4.508   8.361
  892POPC   C3B15033  13.167   4.270   8.003
  892POPC   C4B15034  13.180   4.321   7.553
  893POPC   NC315035   1.252  23.352   9.784
  893POPC   PO415036   1.372  23.937   9.506
  893POPC   GL115037   1.320  23.878   9.068
  893POPC   GL215038   0.998  23.670   9.001
  893POPC   C1A15039   1.410  23.634   8.702
  893POPC   D2A15040   1.260  23.525   8.318
  893POPC   C3A15041   1.294  23.824   8.014
  893POPC   C4A15042   1.362  23.908   7.607
  893POPC   C1B15043   0.999  23.268   8.711
  893POPC   C2B15044   0.927  23.153   8.266
  893POPC   C3B15045   0.853  23.505   7.994
  893POPC   C4B15046   0.939  23.647   7.609
  894POPC   NC315047  33.422  20.060   9.352
  894POPC   PO415048  34.067  19.634   9.544
  894POPC   GL115049  34.129  19.786   9.152
  894POPC   GL215050  33.812  19.851   9.092
  894POPC   C1A15051  34.096  19.743   8.686
  894POPC   D2A15052  33.953  19.950   8.301
  894POPC   C3A15053  33.866  19.718   7.907
  894POPC   C4A15054  33.813  19.911   7.501
  894POPC   C1B15055  33.750  20.178   8.770
  894POPC   C2B15056  33.592  20.329   8.362
  894POPC   C3B15057  33.694  20.253   7.930
  894POPC   C4B15058  33.522  20.305   7.529
  895POPC   NC315059   1.812  10.462   9.510
  895POPC   PO415060   2.460  10.182   9.452
  895POPC   GL115061   2.454  10.370   9.056
  895POPC   GL215062   2.197  10.623   9.152
  895POPC   C1A15063   2.141  10.324   8.709
  895POPC   D2A15064   1.712  10.354   8.558
  895POPC   C3A15065   1.757  10.184   8.120
  895POPC   C4A15066   2.122  10.292   7.843
  895POPC   C1B15067   1.935  10.800   8.815
  895POPC   C2B15068   1.807  10.911   8.423
  895POPC   C3B15069   1.918  10.688   8.073
  895POPC   C4B15070   1.684  10.519   7.707
  896POPC   NC315071  21.840  17.685   9.467
  896POPC   PO415072  22.480  17.733   9.597
  896POPC   GL115073  22.250  17.591   9.176
  896POPC   GL215074  22.033  17.261   9.229
  896POPC   C1A15075  22.166  17.675   8.707
  896POPC   D2A15076  22.093  17.783   8.228
  896POPC   C3A15077  22.449  17.660   7.903
  896POPC   C4A15078  22.602  17.600   7.441
  896POPC   C1B15079  21.780  17.380   8.865
  896POPC   C2B15080  21.870  17.337   8.442
  896POPC   C3B15081  21.959  17.318   8.018
  896POPC   C4B15082  21.693  17.396   7.673
  897POPC   NC315083  29.268  19.247   9.535
  897POPC   PO415084  28.888  18.740   9.563
  897POPC   GL115085  28.881  18.964   9.113
  897POPC   GL215086  29.013  19.295   9.096
  897POPC   C1A15087  29.060  19.072   8.641
  897POPC   D2A15088  29.119  19.163   8.169
  897POPC   C3A15089  28.927  19.034   7.752
  897POPC   C4A15090  28.959  18.949   7.284
  897POPC   C1B15091  29.465  19.243   8.918
  897POPC   C2B15092  29.512  19.328   8.493
  897POPC   C3B15093  29.529  19.446   8.090
  897POPC   C4B15094  29.341  19.351   7.703
  898POPC   NC315095  29.588  28.218   9.482
  898POPC   PO415096  29.201  28.824   9.557
  898POPC   GL115097  29.234  28.694   9.161
  898POPC   GL215098  29.151  28.364   9.107
  898POPC   C1A15099  29.082  28.702   8.735
  898POPC   D2A15100  29.328  28.637   8.363
  898POPC   C3A15101  29.038  28.688   8.066
  898POPC   C4A15102  29.144  28.736   7.667
  898POPC   C1B15103  29.285  28.243   8.697
  898POPC   C2B15104  29.308  28.107   8.236
  898POPC   C3B15105  29.351  28.305   7.852
  898POPC   C4B15106  29.100  28.241   7.496
  899POPC   NC315107  22.514   2.579   9.809
  899POPC   PO415108  22.405   3.003   9.277
  899POPC   GL115109  22.054   2.865   9.043
  899POPC   GL215110  21.927   2.478   9.079
  899POPC   C1A15111  22.055   3.059   8.634
  899POPC   D2A15112  22.367   2.995   8.308
  899POPC   C3A15113  22.192   2.930   7.911
  899POPC   C4A15114  22.104   2.560   7.687
  899POPC   C1B15115  21.728   2.697   8.714
  899POPC   C2B15116  21.787   2.785   8.267
  899POPC   C3B15117  21.691   2.834   7.835
  899POPC   C4B15118  21.877   2.996   7.469
  900POPC   NC315119  35.951  41.128   9.539
  900POPC   PO415120  36.255  41.699   9.476
  900POPC   GL115121  36.273  41.370   9.175
  900POPC   GL215122  35.987  41.337   9.068
  900POPC   C1A15123  36.415  41.433   8.740
  900POPC   D2A15124  36.633  41.743   8.464
  900POPC   C3A15125  36.392  41.791   8.077
  900POPC   C4A15126  36.240  41.471   7.784
  900POPC   C1B15127  35.847  41.394   8.658
  900POPC   C2B15128  35.949  41.501   8.249
  900POPC   C3B15129  35.701  41.434   7.876
  900POPC   C4B15130  35.717  41.148   7.527
  901POPC   NC315131  30.997  43.592   9.945
  901POPC   PO415132  30.524  43.987   9.633
  901POPC   GL115133  30.470  43.985   9.207
  901POPC   GL215134  30.532  43.609   9.187
  901POPC   C1A15135  30.519  44.251   8.835
  901POPC   D2A15136  30.702  44.167   8.439
  901POPC   C3A15137  30.563  44.331   8.064
  901POPC   C4A15138  30.645  44.077   7.734
  901POPC   C1B15139  30.684  43.749   8.788
  901POPC   C2B15140  30.910  43.712   8.423
  901POPC   C3B15141  30.782  43.637   8.018
  901POPC   C4B15142  30.880  43.549   7.608
  902POPC   NC315143   3.861  27.404   9.509
  902POPC   PO415144   3.260  27.588   9.780
  902POPC   GL115145   3.324  27.553   9.271
  902POPC   GL215146   3.623  27.635   9.127
  902POPC   C1A15147   3.237  27.693   8.824
  902POPC   D2A15148   3.360  27.447   8.452
  902POPC   C3A15149   3.316  27.643   8.084
  902POPC   C4A15150   3.546  27.675   7.754
  902POPC   C1B15151   3.758  27.400   8.783
  902POPC   C2B15152   3.840  27.211   8.398
  902POPC   C3B15153   3.703  27.249   7.990
  902POPC   C4B15154   3.876  27.321   7.602
  903POPC   NC315155  44.230  39.252   9.577
  903POPC   PO415156  43.588  39.024   9.775
  903POPC   GL115157  43.676  39.168   9.274
  903POPC   GL215158  44.038  39.140   9.133
  903POPC   C1A15159  43.726  39.440   8.835
  903POPC   D2A15160  43.572  39.478   8.387
  903POPC   C3A15161  43.732  39.327   7.958
  903POPC   C4A15162  43.656  39.460   7.518
  903POPC   C1B15163  44.158  39.218   8.691
  903POPC   C2B15164  44.200  39.385   8.241
  903POPC   C3B15165  44.214  39.115   7.863
  903POPC   C4B15166  43.886  38.994   7.547
  904POPC   NC315167  37.797  14.826   9.667
  904POPC   PO415168  37.472  15.514   9.608
  904POPC   GL115169  37.568  15.267   9.228
  904POPC   GL215170  37.880  15.062   9.194
  904POPC   C1A15171  37.717  15.378   8.797
  904POPC   D2A15172  37.562  15.207   8.402
  904POPC   C3A15173  37.484  15.370   7.993
  904POPC   C4A15174  37.311  15.042   7.736
  904POPC   C1B15175  37.973  14.891   8.764
  904POPC   C2B15176  38.001  14.937   8.288
  904POPC   C3B15177  37.873  15.043   7.845
  904POPC   C4B15178  38.079  14.895   7.456
  905POPC   NC315179  23.364  30.187   9.408
  905POPC   PO415180  22.802  29.794   9.626
  905POPC   GL115181  22.973  29.879   9.227
  905POPC   GL215182  23.041  29.566   9.077
  905POPC   C1A15183  23.003  29.981   8.780
  905POPC   D2A15184  23.203  30.191   8.445
  905POPC   C3A15185  22.933  30.065   8.106
  905POPC   C4A15186  23.055  29.935   7.726
  905POPC   C1B15187  22.867  29.449   8.678
  905POPC   C2B15188  22.874  29.540   8.232
  905POPC   C3B15189  23.178  29.482   7.922
  905POPC   C4B15190  23.189  29.550   7.427
  906POPC   NC315191  42.221   9.819   9.542
  906POPC   PO415192  41.998   9.231   9.519
  906POPC   GL115193  42.042   9.525   9.148
  906POPC   GL215194  42.051   9.934   9.091
  906POPC   C1A15195  42.366   9.467   8.831
  906POPC   D2A15196  42.413   9.266   8.426
  906POPC   C3A15197  42.341   9.525   8.041
  906POPC   C4A15198  42.144   9.669   7.651
  906POPC   C1B15199  42.160   9.905   8.653
  906POPC   C2B15200  42.232  10.036   8.224
  906POPC   C3B15201  42.296  10.127   7.809
  906POPC   C4B15202  42.361  10.065   7.414
  907POPC   NC315203  23.314  26.408   9.540
  907POPC   PO415204  22.730  26.740   9.568
  907POPC   GL115205  22.906  26.879   9.224
  907POPC   GL215206  23.079  27.161   9.373
  907POPC   C1A15207  22.834  26.770   8.788
  907POPC   D2A15208  22.542  26.672   8.425
  907POPC   C3A15209  22.685  26.750   8.021
  907POPC   C4A15210  22.759  26.718   7.591
  907POPC   C1B15211  23.134  27.221   8.912
  907POPC   C2B15212  23.223  27.000   8.540
  907POPC   C3B15213  23.110  27.004   8.115
  907POPC   C4B15214  23.180  27.030   7.669
  908POPC   NC315215   5.714  25.278   9.601
  908POPC   PO415216   6.297  25.164   9.445
  908POPC   GL115217   5.976  25.060   9.166
  908POPC   GL215218   6.002  25.407   9.060
  908POPC   C1A15219   5.681  25.105   8.804
  908POPC   D2A15220   5.554  25.276   8.389
  908POPC   C3A15221   5.834  25.107   8.084
  908POPC   C4A15222   5.839  25.236   7.669
  908POPC   C1B15223   5.751  25.622   8.752
  908POPC   C2B15224   5.920  25.728   8.374
  908POPC   C3B15225   5.941  25.624   7.973
  908POPC   C4B15226   5.524  25.633   7.944
  909POPC   NC315227   1.713  29.864   9.841
  909POPC   PO415228   2.272  30.182   9.511
  909POPC   GL115229   1.960  30.150   9.179
  909POPC   GL215230   1.793  29.811   9.184
  909POPC   C1A15231   1.796  30.142   8.757
  909POPC   D2A15232   2.029  29.995   8.392
  909POPC   C3A15233   1.859  29.934   7.966
  909POPC   C4A15234   2.215  29.927   7.658
  909POPC   C1B15235   2.136  29.761   8.882
  909POPC   C2B15236   2.193  29.507   8.537
  909POPC   C3B15237   2.217  29.591   8.091
  909POPC   C4B15238   2.164  29.332   7.731
  910POPC   NC315239  39.168   6.613   9.588
  910POPC   PO415240  39.862   6.513   9.473
  910POPC   GL115241  39.552   6.739   9.165
  910POPC   GL215242  39.167   6.625   9.088
  910POPC   C1A15243  39.416   6.876   8.744
  910POPC   D2A15244  38.994   6.774   8.554
  910POPC   C3A15245  39.020   6.884   8.097
  910POPC   C4A15246  39.355   7.048   7.813
  910POPC   C1B15247  39.330   6.379   8.742
  910POPC   C2B15248  39.240   6.405   8.294
  910POPC   C3B15249  39.246   6.327   7.859
  910POPC   C4B15250  39.389   6.192   7.444
  911POPC   NC315251  11.880  31.670   9.730
  911POPC   PO415252  12.151  31.060   9.650
  911POPC   GL115253  12.040  31.350   9.281
  911POPC   GL215254  11.909  31.722   9.226
  911POPC   C1A15255  12.108  31.385   8.837
  911POPC   D2A15256  11.875  31.343   8.470
  911POPC   C3A15257  12.068  31.351   8.073
  911POPC   C4A15258  12.009  31.068   7.729
  911POPC   C1B15259  11.719  31.734   8.816
  911POPC   C2B15260  11.552  31.729   8.385
  911POPC   C3B15261  11.735  31.732   7.990
  911POPC   C4B15262  12.100  31.720   7.709
  912POPC   NC315263  38.224  20.064   9.650
  912POPC   PO415264  38.670  19.579   9.615
  912POPC   GL115265  38.631  19.860   9.256
  912POPC   GL215266  38.292  19.932   9.167
  912POPC   C1A15267  38.624  19.859   8.791
  912POPC   D2A15268  38.808  19.953   8.390
  912POPC   C3A15269  38.542  20.100   8.085
  912POPC   C4A15270  38.487  19.929   7.666
  912POPC   C1B15271  38.144  19.977   8.718
  912POPC   C2B15272  38.219  19.799   8.321
  912POPC   C3B15273  38.042  19.920   7.909
  912POPC   C4B15274  38.003  19.870   7.453
  913POPC   NC315275  27.219  30.243   9.594
  913POPC   PO415276  27.837  29.907   9.542
  913POPC   GL115277  27.712  30.052   9.128
  913POPC   GL215278  27.386  29.997   9.193
  913POPC   C1A15279  27.681  29.939   8.699
  913POPC   D2A15280  27.793  30.148   8.311
  913POPC   C3A15281  27.663  29.993   7.928
  913POPC   C4A15282  27.528  30.138   7.535
  913POPC   C1B15283  27.235  30.088   8.835
  913POPC   C2B15284  27.268  30.110   8.418
  913POPC   C3B15285  27.262  29.754   8.181
  913POPC   C4B15286  27.234  29.747   7.758
  914POPC   NC315287  41.554  18.884   9.557
  914POPC   PO415288  41.174  19.321   9.234
  914POPC   GL115289  41.480  19.063   9.061
  914POPC   GL215290  41.501  18.715   9.091
  914POPC   C1A15291  41.852  19.124   8.793
  914POPC   D2A15292  42.016  18.991   8.381
  914POPC   C3A15293  41.764  19.049   8.036
  914POPC   C4A15294  41.635  19.407   7.785
  914POPC   C1B15295  41.560  18.736   8.677
  914POPC   C2B15296  41.368  18.930   8.361
  914POPC   C3B15297  41.178  18.730   8.014
  914POPC   C4B15298  41.444  18.887   7.670
  915POPC   NC315299   1.066  37.752   9.559
  915POPC   PO415300   1.072  37.070   9.533
  915POPC   GL115301   1.055  37.359   9.235
  915POPC   GL215302   1.320  37.616   9.117
  915POPC   C1A15303   0.847  37.517   8.934
  915POPC   D2A15304   0.767  37.463   8.537
  915POPC   C3A15305   1.035  37.476   8.237
  915POPC   C4A15306   1.090  37.761   7.906
  915POPC   C1B15307   1.258  37.707   8.674
  915POPC   C2B15308   1.459  37.767   8.284
  915POPC   C3B15309   1.611  37.792   7.863
  915POPC   C4B15310   1.529  37.966   7.477
  916POPC   NC315311   0.142  26.068   9.767
  916POPC   PO415312   0.533  25.588   9.489
  916POPC   GL115313   0.438  25.874   9.187
  916POPC   GL215314   0.565  26.227   9.236
  916POPC   C1A15315   0.392  25.845   8.766
  916POPC   D2A15316   0.419  26.025   8.379
  916POPC   C3A15317   0.499  25.764   8.032
  916POPC   C4A15318   0.315  25.901   7.651
  916POPC   C1B15319   0.762  26.257   8.802
  916POPC   C2B15320   0.739  26.440   8.384
  916POPC   C3B15321   0.667  26.237   7.961
  916POPC   C4B15322   0.660  26.325   7.515
  917POPC   NC315323  26.433  34.456   9.476
  917POPC   PO415324  25.984  34.939   9.513
  917POPC   GL115325  25.855  34.694   9.164
  917POPC   GL215326  25.997  34.373   9.218
  917POPC   C1A15327  25.818  34.842   8.731
  917POPC   D2A15328  26.100  34.801   8.373
  917POPC   C3A15329  25.896  34.672   7.999
  917POPC   C4A15330  25.799  34.678   7.543
  917POPC   C1B15331  26.153  34.445   8.790
  917POPC   C2B15332  26.213  34.301   8.367
  917POPC   C3B15333  26.347  34.453   7.989
  917POPC   C4B15334  26.059  34.200   7.772
  918POPC   NC315335  10.508  30.395   9.611
  918POPC   PO415336  10.224  30.898   9.619
  918POPC   GL115337  10.419  30.724   9.209
  918POPC   GL215338  10.793  30.614   9.188
  918POPC   C1A15339  10.492  30.831   8.753
  918POPC   D2A15340  10.345  31.117   8.424
  918POPC   C3A15341  10.442  30.982   8.033
  918POPC   C4A15342  10.661  30.854   7.716
  918POPC   C1B15343  10.901  30.494   8.739
  918POPC   C2B15344  10.775  30.558   8.290
  918POPC   C3B15345  10.682  30.375   7.876
  918POPC   C4B15346  10.352  30.454   7.546
  919POPC   NC315347  14.994  11.413   9.414
  919POPC   PO415348  15.373  10.886   9.452
  919POPC   GL115349  15.163  11.046   9.082
  919POPC   GL215350  14.774  11.050   9.117
  919POPC   C1A15351  15.383  11.150   8.692
  919POPC   D2A15352  15.485  11.337   8.317
  919POPC   C3A15353  15.337  11.085   8.033
  919POPC   C4A15354  15.043  10.836   7.894
  919POPC   C1B15355  14.867  11.313   8.733
  919POPC   C2B15356  14.955  11.374   8.277
  919POPC   C3B15357  14.754  11.374   7.870
  919POPC   C4B15358  14.592  10.979   7.742
  920POPC   NC315359  12.083   3.106   9.593
  920POPC   PO415360  12.112   3.762   9.559
  920POPC   GL115361  12.122   3.600   9.167
  920POPC   GL215362  12.317   3.308   9.186
  920POPC   C1A15363  12.032   3.592   8.741
  920POPC   D2A15364  12.187   3.487   8.342
  920POPC   C3A15365  12.337   3.801   7.992
  920POPC   C4A15366  11.999   3.835   7.669
  920POPC   C1B15367  11.937   3.132   8.942
  920POPC   C2B15368  11.831   3.085   8.502
  920POPC   C3B15369  11.760   3.329   8.129
  920POPC   C4B15370  12.122   3.365   7.848
  921POPC   NC315371  22.629   8.204   9.475
  921POPC   PO415372  23.162   7.727   9.380
  921POPC   GL115373  23.198   8.179   9.151
  921POPC   GL215374  22.941   8.488   9.161
  921POPC   C1A15375  23.270   8.334   8.717
  921POPC   D2A15376  23.112   8.052   8.387
  921POPC   C3A15377  23.264   7.999   7.951
  921POPC   C4A15378  23.102   8.171   7.524
  921POPC   C1B15379  22.744   8.284   8.790
  921POPC   C2B15380  22.732   8.393   8.348
  921POPC   C3B15381  22.770   8.131   7.990
  921POPC   C4B15382  22.579   8.077   7.624
  922POPC   NC315383  31.626  23.035   9.510
  922POPC   PO415384  31.133  22.819   9.333
  922POPC   GL115385  31.428  22.814   9.052
  922POPC   GL215386  31.673  23.087   9.020
  922POPC   C1A15387  31.307  22.968   8.673
  922POPC   D2A15388  31.585  23.068   8.380
  922POPC   C3A15389  31.567  22.774   8.063
  922POPC   C4A15390  31.345  22.960   7.711
  922POPC   C1B15391  31.953  23.266   8.710
  922POPC   C2B15392  31.944  23.403   8.253
  922POPC   C3B15393  31.766  23.195   7.876
  922POPC   C4B15394  31.689  23.229   7.373
  923POPC   NC315395  18.891  21.696   9.331
  923POPC   PO415396  19.193  21.075   9.592
  923POPC   GL115397  19.131  21.203   9.187
  923POPC   GL215398  18.773  21.199   9.214
  923POPC   C1A15399  19.082  21.244   8.740
  923POPC   D2A15400  19.252  21.210   8.349
  923POPC   C3A15401  18.998  21.469   8.066
  923POPC   C4A15402  19.221  21.736   7.807
  923POPC   C1B15403  18.762  20.902   8.908
  923POPC   C2B15404  18.747  20.921   8.455
  923POPC   C3B15405  18.951  20.954   8.039
  923POPC   C4B15406  18.910  21.121   7.645
  924POPC   NC315407  26.096   3.633   9.513
  924POPC   PO415408  26.429   3.004   9.489
  924POPC   GL115409  26.309   3.297   9.167
  924POPC   GL215410  25.969   3.342   9.137
  924POPC   C1A15411  26.205   3.234   8.726
  924POPC   D2A15412  26.191   3.452   8.384
  924POPC   C3A15413  26.066   3.211   8.024
  924POPC   C4A15414  26.224   3.238   7.610
  924POPC   C1B15415  25.939   3.685   8.823
  924POPC   C2B15416  25.833   3.828   8.406
  924POPC   C3B15417  25.925   3.700   8.017
  924POPC   C4B15418  25.788   3.519   7.693
  925POPC   NC315419  10.847   2.063   9.273
  925POPC   PO415420  11.293   1.650   9.574
  925POPC   GL115421  11.347   1.920   9.191
  925POPC   GL215422  11.305   2.296   9.167
  925POPC   C1A15423  11.293   1.975   8.750
  925POPC   D2A15424  11.407   1.772   8.396
  925POPC   C3A15425  11.431   1.959   8.001
  925POPC   C4A15426  11.145   1.889   7.706
  925POPC   C1B15427  11.133   2.465   8.745
  925POPC   C2B15428  11.146   2.269   8.329
  925POPC   C3B15429  11.026   2.341   7.912
  925POPC   C4B15430  11.027   2.325   7.433
  926POPC   NC315431   4.168   9.901   9.896
  926POPC   PO415432   4.284  10.542   9.607
  926POPC   GL115433   4.382  10.709   9.219
  926POPC   GL215434   4.104  10.509   9.130
  926POPC   C1A15435   4.479  10.664   8.787
  926POPC   D2A15436   4.487  10.859   8.376
  926POPC   C3A15437   4.294  10.652   8.017
  926POPC   C4A15438   4.126  10.822   7.654
  926POPC   C1B15439   4.147  10.289   8.772
  926POPC   C2B15440   4.025  10.560   8.445
  926POPC   C3B15441   3.809  10.416   8.088
  926POPC   C4B15442   4.027  10.303   7.725
  927POPC   NC315443  13.035  29.453   9.516
  927POPC   PO415444  12.632  28.835   9.512
  927POPC   GL115445  12.670  29.026   9.143
  927POPC   GL215446  13.026  29.107   9.125
  927POPC   C1A15447  12.723  28.851   8.732
  927POPC   D2A15448  13.026  28.851   8.426
  927POPC   C3A15449  12.784  28.855   8.046
  927POPC   C4A15450  12.715  29.049   7.663
  927POPC   C1B15451  12.868  29.361   8.784
  927POPC   C2B15452  12.715  29.263   8.385
  927POPC   C3B15453  12.855  29.419   7.968
  927POPC   C4B15454  13.182  29.377   7.643
  928POPC   NC315455  42.862  30.054   9.448
  928POPC   PO415456  43.398  29.614   9.414
  928POPC   GL115457  43.094  29.700   9.121
  928POPC   GL215458  43.219  30.033   9.076
  928POPC   C1A15459  43.044  29.771   8.688
  928POPC   D2A15460  43.233  30.011   8.379
  928POPC   C3A15461  43.282  29.788   8.031
  928POPC   C4A15462  42.979  29.694   7.757
  928POPC   C1B15463  42.895  30.235   8.828
  928POPC   C2B15464  42.658  30.064   8.496
  928POPC   C3B15465  42.781  29.928   8.154
  928POPC   C4B15466  43.014  30.208   7.882
  929POPC   NC315467   8.431  44.152   9.539
  929POPC   PO415468   7.885  44.514   9.454
  929POPC   GL115469   8.080  44.736   9.084
  929POPC   GL215470   8.403  44.670   9.071
  929POPC   C1A15471   8.131  44.774   8.626
  929POPC   D2A15472   8.275  44.535   8.280
  929POPC   C3A15473   8.065  44.494   7.898
  929POPC   C4A15474   7.906  44.891   7.830
  929POPC   C1B15475   8.646  44.563   8.704
  929POPC   C2B15476   8.705  44.301   8.333
  929POPC   C3B15477   8.626  44.448   7.901
  929POPC   C4B15478   8.419  44.849   7.863
  930POPC   NC315479  26.236   5.171   9.932
  930POPC   PO415480  25.704   5.165   9.463
  930POPC   GL115481  25.825   5.042   9.074
  930POPC   GL215482  26.100   4.851   9.061
  930POPC   C1A15483  26.015   5.205   8.681
  930POPC   D2A15484  26.315   5.284   8.324
  930POPC   C3A15485  26.098   5.353   7.929
  930POPC   C4A15486  26.157   5.182   7.497
  930POPC   C1B15487  26.198   4.709   8.641
  930POPC   C2B15488  26.028   4.856   8.243
  930POPC   C3B15489  26.072   4.764   7.794
  930POPC   C4B15490  25.836   4.804   7.379
  931POPC   NC315491  43.743  22.220   9.571
  931POPC   PO415492  44.132  21.636   9.724
  931POPC   GL115493  44.232  21.776   9.243
  931POPC   GL215494  44.151  22.157   9.211
  931POPC   C1A15495  44.090  21.842   8.753
  931POPC   D2A15496  43.994  21.687   8.310
  931POPC   C3A15497  43.672  21.844   7.992
  931POPC   C4A15498  43.933  21.953   7.612
  931POPC   C1B15499  43.847  22.284   8.884
  931POPC   C2B15500  43.754  22.179   8.444
  931POPC   C3B15501  44.006  22.199   8.070
  931POPC   C4B15502  43.964  22.460   7.717
  932POPC   NC315503  39.249  43.467   9.385
  932POPC   PO415504  39.520  42.765   9.329
  932POPC   GL115505  39.338  43.047   9.059
  932POPC   GL215506  38.975  43.006   9.120
  932POPC   C1A15507  39.397  43.332   8.694
  932POPC   D2A15508  39.221  43.328   8.254
  932POPC   C3A15509  39.474  43.264   7.881
  932POPC   C4A15510  39.545  43.141   7.433
  932POPC   C1B15511  39.001  42.964   8.666
  932POPC   C2B15512  39.100  42.828   8.254
  932POPC   C3B15513  39.042  42.939   7.830
  932POPC   C4B15514  39.057  42.887   7.389
  933POPC   NC315515  43.566   5.680   9.510
  933POPC   PO415516  44.300   5.813   9.463
  933POPC   GL115517  44.066   5.846   9.067
  933POPC   GL215518  43.768   6.059   9.194
  933POPC   C1A15519  44.237   5.855   8.639
  933POPC   D2A15520  44.048   6.008   8.258
  933POPC   C3A15521  44.152   5.723   7.990
  933POPC   C4A15522  44.372   5.899   7.698
  933POPC   C1B15523  43.584   5.807   8.878
  933POPC   C2B15524  43.757   5.683   8.527
  933POPC   C3B15525  43.644   5.693   8.118
  933POPC   C4B15526  43.730   5.752   7.708
  934POPC   NC315527  42.800  23.280   9.540
  934POPC   PO415528  42.996  23.937   9.519
  934POPC   GL115529  43.036  23.609   9.201
  934POPC   GL215530  42.685  23.554   9.143
  934POPC   C1A15531  43.196  23.637   8.764
  934POPC   D2A15532  43.123  23.995   8.469
  934POPC   C3A15533  43.078  23.877   8.030
  934POPC   C4A15534  43.146  23.779   7.617
  934POPC   C1B15535  42.738  23.368   8.747
  934POPC   C2B15536  42.841  23.537   8.344
  934POPC   C3B15537  42.973  23.374   7.950
  934POPC   C4B15538  43.031  23.301   7.492
  935POPC   NC315539   7.446  39.042   9.493
  935POPC   PO415540   6.790  39.098   9.327
  935POPC   GL115541   7.196  39.081   9.052
  935POPC   GL215542   7.568  38.914   9.022
  935POPC   C1A15543   7.397  39.295   8.713
  935POPC   D2A15544   7.416  39.506   8.318
  935POPC   C3A15545   7.501  39.290   7.924
  935POPC   C4A15546   7.371  39.459   7.511
  935POPC   C1B15547   7.346  38.780   8.675
  935POPC   C2B15548   7.319  38.960   8.288
  935POPC   C3B15549   7.354  38.795   7.892
  935POPC   C4B15550   7.503  38.969   7.502
  936POPC   NC315551  22.691  40.978   9.432
  936POPC   PO415552  23.317  40.753   9.523
  936POPC   GL115553  23.070  40.770   9.138
  936POPC   GL215554  22.747  40.603   9.084
  936POPC   C1A15555  23.012  41.005   8.762
  936POPC   D2A15556  23.217  41.134   8.355
  936POPC   C3A15557  23.056  40.962   7.950
  936POPC   C4A15558  23.113  41.016   7.523
  936POPC   C1B15559  22.909  40.508   8.706
  936POPC   C2B15560  22.864  40.693   8.332
  936POPC   C3B15561  22.808  40.484   7.944
  936POPC   C4B15562  22.772  40.645   7.514
  937POPC   NC315563  23.536  42.959   9.553
  937POPC   PO415564  22.864  42.990   9.566
  937POPC   GL115565  22.765  43.117   9.112
  937POPC   GL215566  23.060  42.971   9.069
  937POPC   C1A15567  22.899  43.170   8.646
  937POPC   D2A15568  22.723  43.319   8.296
  937POPC   C3A15569  22.900  43.110   7.929
  937POPC   C4A15570  23.096  43.335   7.566
  937POPC   C1B15571  23.197  42.732   8.698
  937POPC   C2B15572  23.093  42.773   8.278
  937POPC   C3B15573  23.163  42.664   7.849
  937POPC   C4B15574  22.940  42.834   7.493
  938POPC   NC315575  30.243  10.774   9.520
  938POPC   PO415576  29.755  10.265   9.528
  938POPC   GL115577  30.020  10.407   9.182
  938POPC   GL215578  29.954  10.775   9.111
  938POPC   C1A15579  29.845  10.427   8.765
  938POPC   D2A15580  29.739  10.232   8.408
  938POPC   C3A15581  29.699  10.503   8.056
  938POPC   C4A15582  29.638  10.392   7.648
  938POPC   C1B15583  30.276  10.696   8.809
  938POPC   C2B15584  30.143  10.581   8.384
  938POPC   C3B15585  30.196  10.684   7.982
  938POPC   C4B15586  29.974  10.734   7.612
  939POPC   NC315587  25.944  17.916   9.335
  939POPC   PO415588  26.263  18.457   9.613
  939POPC   GL115589  26.065  18.425   9.216
  939POPC   GL215590  25.729  18.463   9.137
  939POPC   C1A15591  26.113  18.573   8.786
  939POPC   D2A15592  26.181  18.747   8.379
  939POPC   C3A15593  26.028  18.516   8.072
  939POPC   C4A15594  25.953  18.210   7.779
  939POPC   C1B15595  25.596  18.640   8.743
  939POPC   C2B15596  25.611  18.422   8.355
  939POPC   C3B15597  25.510  18.131   8.017
  939POPC   C4B15598  25.420  18.169   7.578
  940POPC   NC315599  35.302   0.096   9.333
  940POPC   PO415600  35.278  44.401   9.475
  940POPC   GL115601  35.179  44.518   9.097
  940POPC   GL215602  34.982  44.791   9.081
  940POPC   C1A15603  35.357  44.543   8.708
  940POPC   D2A15604  35.638  44.462   8.384
  940POPC   C3A15605  35.387  44.492   8.037
  940POPC   C4A15606  34.972  44.339   7.926
  940POPC   C1B15607  35.141  44.993   8.695
  940POPC   C2B15608  35.392  44.933   8.317
  940POPC   C3B15609  35.358  44.962   7.865
  940POPC   C4B15610  35.663  44.999   7.540
  941POPC   NC315611  12.243  10.374   9.566
  941POPC   PO415612  11.906  10.902   9.453
  941POPC   GL115613  11.921  10.481   9.190
  941POPC   GL215614  12.269  10.330   9.082
  941POPC   C1A15615  11.867  10.384   8.763
  941POPC   D2A15616  11.855  10.644   8.380
  941POPC   C3A15617  12.122  10.545   8.034
  941POPC   C4A15618  12.102  10.413   7.584
  941POPC   C1B15619  12.324  10.090   8.738
  941POPC   C2B15620  12.432  10.293   8.370
  941POPC   C3B15621  12.507  10.161   7.966
  941POPC   C4B15622  12.596  10.351   7.577
  942POPC   NC315623  34.884  14.782   9.414
  942POPC   PO415624  34.712  14.118   9.387
  942POPC   GL115625  34.493  14.362   9.068
  942POPC   GL215626  34.589  14.682   9.028
  942POPC   C1A15627  34.412  14.401   8.638
  942POPC   D2A15628  34.408  14.523   8.218
  942POPC   C3A15629  34.626  14.252   7.959
  942POPC   C4A15630  34.257  14.156   7.721
  942POPC   C1B15631  34.899  14.857   8.752
  942POPC   C2B15632  34.657  14.909   8.432
  942POPC   C3B15633  34.725  14.865   8.010
  942POPC   C4B15634  34.452  14.663   7.731
  943POPC   NC315635  21.649  14.642   9.399
  943POPC   PO415636  21.405  14.030   9.493
  943POPC   GL115637  21.656  14.187   9.114
  943POPC   GL215638  21.833  14.508   8.939
  943POPC   C1A15639  21.506  14.194   8.699
  943POPC   D2A15640  21.625  14.305   8.294
  943POPC   C3A15641  21.353  14.123   7.985
  943POPC   C4A15642  21.325  14.219   7.544
  943POPC   C1B15643  21.497  14.700   8.666
  943POPC   C2B15644  21.262  14.659   8.255
  943POPC   C3B15645  21.304  14.678   7.796
  943POPC   C4B15646  21.132  14.652   7.361
  944POPC   NC315647  24.224  10.058   9.647
  944POPC   PO415648  24.641   9.507   9.423
  944POPC   GL115649  24.502   9.744   9.064
  944POPC   GL215650  24.265   9.947   9.141
  944POPC   C1A15651  24.526  10.011   8.709
  944POPC   D2A15652  24.460   9.640   8.478
  944POPC   C3A15653  24.554   9.717   8.094
  944POPC   C4A15654  24.490   9.640   7.703
  944POPC   C1B15655  24.044   9.836   8.746
  944POPC   C2B15656  24.121  10.013   8.335
  944POPC   C3B15657  24.116   9.977   7.903
  944POPC   C4B15658  24.137   9.915   7.465
  945POPC   NC315659  17.490  36.222   9.750
  945POPC   PO415660  17.369  35.650   9.515
  945POPC   GL115661  17.313  36.120   9.271
  945POPC   GL215662  17.048  36.086   9.043
  945POPC   C1A15663  17.360  36.421   8.855
  945POPC   D2A15664  17.390  36.436   8.376
  945POPC   C3A15665  17.669  36.526   7.998
  945POPC   C4A15666  18.031  36.278   7.880
  945POPC   C1B15667  17.436  35.918   8.815
  945POPC   C2B15668  17.492  35.825   8.356
  945POPC   C3B15669  17.416  36.064   7.972
  945POPC   C4B15670  17.343  35.905   7.556
  946POPC   NC315671  44.233  19.266   9.441
  946POPC   PO415672  44.888  19.339   9.484
  946POPC   GL115673  44.642  19.145   9.181
  946POPC   GL215674  44.456  19.396   8.996
  946POPC   C1A15675  44.550  18.885   8.851
  946POPC   D2A15676  44.710  18.936   8.450
  946POPC   C3A15677  44.470  18.951   8.088
  946POPC   C4A15678  44.625  19.010   7.670
  946POPC   C1B15679  44.838  19.319   8.753
  946POPC   C2B15680  44.985  19.366   8.338
  946POPC   C3B15681  44.865  19.452   7.900
  946POPC   C4B15682  44.839  19.446   7.435
  947POPC   NC315683  17.723   1.659   9.823
  947POPC   PO415684  17.285   2.026   9.712
  947POPC   GL115685  17.532   2.060   9.268
  947POPC   GL215686  17.706   1.716   9.278
  947POPC   C1A15687  17.501   2.287   8.789
  947POPC   D2A15688  17.447   2.395   8.298
  947POPC   C3A15689  17.275   2.162   7.940
  947POPC   C4A15690  17.168   2.305   7.522
  947POPC   C1B15691  17.647   1.801   8.821
  947POPC   C2B15692  17.671   1.879   8.377
  947POPC   C3B15693  17.561   1.695   7.968
  947POPC   C4B15694  17.421   1.816   7.581
  948POPC   NC315695  43.010  43.308   9.351
  948POPC   PO415696  43.537  42.917   9.412
  948POPC   GL115697  43.218  42.924   9.066
  948POPC   GL215698  42.911  42.773   9.147
  948POPC   C1A15699  43.036  43.179   8.710
  948POPC   D2A15700  43.068  43.501   8.400
  948POPC   C3A15701  43.151  43.385   7.996
  948POPC   C4A15702  43.530  43.431   7.794
  948POPC   C1B15703  42.638  42.859   8.800
  948POPC   C2B15704  42.744  42.919   8.361
  948POPC   C3B15705  42.895  42.924   7.924
  948POPC   C4B15706  42.965  42.648   7.526
  949POPC   NC315707  29.368  44.743   9.578
  949POPC   PO415708  28.856  44.396   9.568
  949POPC   GL115709  29.022  44.593   9.225
  949POPC   GL215710  29.335  44.434   9.180
  949POPC   C1A15711  28.836  44.629   8.849
  949POPC   D2A15712  29.022  44.637   8.476
  949POPC   C3A15713  28.886  44.772   8.085
  949POPC   C4A15714  29.177  44.727   7.762
  949POPC   C1B15715  29.630  44.441   8.825
  949POPC   C2B15716  29.640  44.317   8.422
  949POPC   C3B15717  29.353  44.403   8.116
  949POPC   C4B15718  29.505  44.334   7.701
  950POPC   NC315719   3.417  18.786   9.425
  950POPC   PO415720   3.664  19.460   9.452
  950POPC   GL115721   3.584  19.185   9.133
  950POPC   GL215722   3.262  19.296   9.008
  950POPC   C1A15723   3.650  19.046   8.731
  950POPC   D2A15724   3.384  19.195   8.452
  950POPC   C3A15725   3.461  19.043   8.074
  950POPC   C4A15726   3.540  18.950   7.678
  950POPC   C1B15727   3.195  18.874   8.815
  950POPC   C2B15728   3.345  18.655   8.431
  950POPC   C3B15729   3.188  18.576   8.001
  950POPC   C4B15730   3.361  18.491   7.577
  951POPC   NC315731  43.646   4.710   9.739
  951POPC   PO415732  44.182   4.687   9.330
  951POPC   GL115733  44.021   5.026   9.068
  951POPC   GL215734  43.899   5.363   9.183
  951POPC   C1A15735  43.906   4.940   8.658
  951POPC   D2A15736  43.697   4.744   8.367
  951POPC   C3A15737  43.941   4.777   8.021
  951POPC   C4A15738  44.025   4.927   7.640
  951POPC   C1B15739  43.591   5.292   8.829
  951POPC   C2B15740  43.537   5.240   8.366
  951POPC   C3B15741  43.725   5.244   7.903
  951POPC   C4B15742  43.806   5.317   7.419
  952POPC   NC315743  11.569   9.642   9.476
  952POPC   PO415744  11.011  10.037   9.580
  952POPC   GL115745  11.284  10.020   9.253
  952POPC   GL215746  11.255   9.706   9.072
  952POPC   C1A15747  11.256  10.111   8.801
  952POPC   D2A15748  11.182   9.907   8.425
  952POPC   C3A15749  11.483   9.907   8.077
  952POPC   C4A15750  11.332  10.064   7.665
  952POPC   C1B15751  11.541   9.466   8.815
  952POPC   C2B15752  11.449   9.426   8.388
  952POPC   C3B15753  11.089   9.513   8.133
  952POPC   C4B15754  11.257   9.575   7.744
  953POPC   NC315755  42.044  40.510   9.215
  953POPC   PO415756  42.156  39.908   9.539
  953POPC   GL115757  42.405  40.139   9.191
  953POPC   GL215758  42.210  40.160   8.895
  953POPC   C1A15759  42.709  40.208   8.826
  953POPC   D2A15760  42.581  40.037   8.395
  953POPC   C3A15761  42.619  40.132   7.931
  953POPC   C4A15762  42.229  40.290   7.732
  953POPC   C1B15763  42.432  39.762   8.819
  953POPC   C2B15764  42.276  39.630   8.419
  953POPC   C3B15765  42.088  39.857   8.102
  953POPC   C4B15766  42.297  39.778   7.737
  954POPC   NC315767  37.423  23.607   9.635
  954POPC   PO415768  36.836  23.804   9.915
  954POPC   GL115769  36.955  23.827   9.388
  954POPC   GL215770  37.213  23.708   9.153
  954POPC   C1A15771  36.743  23.748   8.951
  954POPC   D2A15772  36.742  23.594   8.508
  954POPC   C3A15773  36.780  23.859   8.121
  954POPC   C4A15774  36.694  23.801   7.646
  954POPC   C1B15775  37.169  23.928   8.711
  954POPC   C2B15776  37.297  23.811   8.269
  954POPC   C3B15777  37.174  23.557   7.906
  954POPC   C4B15778  37.159  23.618   7.462
  955POPC   NC315779   0.827  11.834   9.809
  955POPC   PO415780   1.427  11.928   9.572
  955POPC   GL115781   1.270  11.812   9.214
  955POPC   GL215782   1.326  12.148   9.092
  955POPC   C1A15783   1.263  11.729   8.779
  955POPC   D2A15784   1.078  11.945   8.418
  955POPC   C3A15785   1.184  11.832   7.998
  955POPC   C4A15786   0.982  12.045   7.660
  955POPC   C1B15787   1.537  12.159   8.692
  955POPC   C2B15788   1.586  12.374   8.291
  955POPC   C3B15789   1.406  12.296   7.925
  955POPC   C4B15790   1.502  12.145   7.535
  956POPC   NC315791   3.334  24.165   9.370
  956POPC   PO415792   3.647  24.758   9.494
  956POPC   GL115793   3.558  24.588   9.126
  956POPC   GL215794   3.829  24.731   8.921
  956POPC   C1A15795   3.396  24.383   8.760
  956POPC   D2A15796   3.611  24.375   8.416
  956POPC   C3A15797   3.424  24.205   8.093
  956POPC   C4A15798   3.729  24.288   7.832
  956POPC   C1B15799   3.459  24.883   8.706
  956POPC   C2B15800   3.395  24.826   8.278
  956POPC   C3B15801   3.707  24.810   7.977
  956POPC   C4B15802   3.945  24.678   7.629
  957POPC   NC315803  25.343  20.327   9.392
  957POPC   PO415804  25.731  20.806   9.322
  957POPC   GL115805  25.596  20.519   8.974
  957POPC   GL215806  25.556  20.143   8.964
  957POPC   C1A15807  25.372  20.624   8.601
  957POPC   D2A15808  25.024  20.513   8.309
  957POPC   C3A15809  25.221  20.533   7.906
  957POPC   C4A15810  25.666  20.566   7.727
  957POPC   C1B15811  25.252  20.133   8.598
  957POPC   C2B15812  25.216  20.060   8.144
  957POPC   C3B15813  25.488  20.100   7.786
  957POPC   C4B15814  25.594  20.194   7.350
  958POPC   NC315815  11.811  38.981   9.497
  958POPC   PO415816  12.525  39.058   9.654
  958POPC   GL115817  12.241  39.156   9.255
  958POPC   GL215818  12.305  38.919   9.027
  958POPC   C1A15819  11.992  39.279   8.834
  958POPC   D2A15820  12.103  39.139   8.362
  958POPC   C3A15821  12.072  39.256   7.913
  958POPC   C4A15822  12.391  39.176   7.616
  958POPC   C1B15823  12.160  38.711   8.642
  958POPC   C2B15824  11.784  38.576   8.425
  958POPC   C3B15825  11.817  38.798   8.052
  958POPC   C4B15826  12.077  38.769   7.725
  959POPC   NC315827  16.163   9.332   9.511
  959POPC   PO415828  16.242   8.666   9.630
  959POPC   GL115829  16.149   8.873   9.215
  959POPC   GL215830  15.780   9.018   9.137
  959POPC   C1A15831  16.156   9.104   8.821
  959POPC   D2A15832  15.915   8.985   8.483
  959POPC   C3A15833  16.168   8.921   8.155
  959POPC   C4A15834  16.017   9.112   7.814
  959POPC   C1B15835  15.655   9.331   8.766
  959POPC   C2B15836  15.648   9.468   8.341
  959POPC   C3B15837  15.645   9.458   7.899
  959POPC   C4B15838  15.737   9.308   7.448
  960POPC   NC315839  40.285  25.863   9.428
  960POPC   PO415840  39.837  26.304   9.652
  960POPC   GL115841  39.807  26.332   9.217
  960POPC   GL215842  40.064  26.121   9.059
  960POPC   C1A15843  39.743  26.404   8.778
  960POPC   D2A15844  39.900  26.157   8.447
  960POPC   C3A15845  39.790  26.184   8.015
  960POPC   C4A15846  39.810  25.808   7.751
  960POPC   C1B15847  40.318  26.261   8.715
  960POPC   C2B15848  40.401  26.105   8.322
  960POPC   C3B15849  40.281  25.956   7.921
  960POPC   C4B15850  40.465  25.995   7.441
  961POPC   NC315851  25.775  39.747   9.419
  961POPC   PO415852  25.120  39.890   9.427
  961POPC   GL115853  25.401  39.896   9.093
  961POPC   GL215854  25.448  39.578   9.018
  961POPC   C1A15855  25.475  39.951   8.652
  961POPC   D2A15856  25.339  40.345   8.448
  961POPC   C3A15857  25.250  40.364   8.015
  961POPC   C4A15858  25.021  40.061   7.762
  961POPC   C1B15859  25.119  39.517   8.663
  961POPC   C2B15860  24.978  39.563   8.199
  961POPC   C3B15861  25.103  39.546   7.750
  961POPC   C4B15862  25.523  39.678   7.689
  962POPC   NC315863  44.743  23.522   9.572
  962POPC   PO415864  44.638  24.225   9.492
  962POPC   GL115865  44.669  23.924   9.205
  962POPC   GL215866  44.383  23.997   9.015
  962POPC   C1A15867  44.821  23.812   8.785
  962POPC   D2A15868  44.999  23.939   8.364
  962POPC   C3A15869  44.947  23.743   7.931
  962POPC   C4A15870  44.763  23.566   7.514
  962POPC   C1B15871  44.262  23.657   8.721
  962POPC   C2B15872  44.148  23.722   8.275
  962POPC   C3B15873  44.413  23.745   7.890
  962POPC   C4B15874  44.344  23.835   7.438
  963POPC   NC315875   2.512   6.821   9.419
  963POPC   PO415876   3.108   6.535   9.382
  963POPC   GL115877   2.799   6.539   9.077
  963POPC   GL215878   2.427   6.410   9.138
  963POPC   C1A15879   2.932   6.613   8.653
  963POPC   D2A15880   2.766   6.747   8.274
  963POPC   C3A15881   2.894   6.465   7.964
  963POPC   C4A15882   2.909   6.385   7.532
  963POPC   C1B15883   2.437   6.553   8.711
  963POPC   C2B15884   2.484   6.309   8.343
  963POPC   C3B15885   2.400   6.432   7.891
  963POPC   C4B15886   2.573   6.863   7.815
  964POPC   NC315887   7.759  13.539   9.281
  964POPC   PO415888   7.168  13.660   9.516
  964POPC   GL115889   7.296  13.467   9.050
  964POPC   GL215890   7.653  13.349   8.842
  964POPC   C1A15891   7.254  13.493   8.589
  964POPC   D2A15892   7.603  13.487   8.279
  964POPC   C3A15893   7.397  13.509   7.897
  964POPC   C4A15894   7.165  13.860   7.820
  964POPC   C1B15895   7.688  13.797   8.681
  964POPC   C2B15896   7.910  13.930   8.315
  964POPC   C3B15897   7.699  13.905   7.939
  964POPC   C4B15898   7.782  13.603   7.591
  965POPC   NC315899  22.581  27.184   9.568
  965POPC   PO415900  22.046  26.767   9.614
  965POPC   GL115901  22.322  26.867   9.253
  965POPC   GL215902  21.980  26.918   9.113
  965POPC   C1A15903  22.375  26.979   8.815
  965POPC   D2A15904  22.096  26.909   8.518
  965POPC   C3A15905  22.198  27.039   8.137
  965POPC   C4A15906  22.269  26.868   7.763
  965POPC   C1B15907  21.781  26.639   8.820
  965POPC   C2B15908  21.635  26.760   8.395
  965POPC   C3B15909  21.839  26.657   8.002
  965POPC   C4B15910  21.871  26.718   7.517
  966POPC   NC315911  30.248  18.988   9.555
  966POPC   PO415912  30.915  18.818   9.615
  966POPC   GL115913  30.785  18.826   9.173
  966POPC   GL215914  30.565  19.084   9.117
  966POPC   C1A15915  30.841  18.970   8.717
  966POPC   D2A15916  30.838  19.118   8.313
  966POPC   C3A15917  30.933  18.838   7.999
  966POPC   C4A15918  31.022  19.065   7.695
  966POPC   C1B15919  30.347  19.022   8.733
  966POPC   C2B15920  30.327  19.174   8.330
  966POPC   C3B15921  30.489  19.106   7.926
  966POPC   C4B15922  30.492  18.688   7.776
  967POPC   NC315923   7.542   9.304   9.496
  967POPC   PO415924   7.096   8.778   9.512
  967POPC   GL115925   7.283   8.870   9.098
  967POPC   GL215926   7.597   8.986   9.102
  967POPC   C1A15927   7.440   9.041   8.637
  967POPC   D2A15928   7.281   8.914   8.252
  967POPC   C3A15929   7.364   9.167   7.874
  967POPC   C4A15930   7.241   9.013   7.455
  967POPC   C1B15931   7.692   8.660   8.844
  967POPC   C2B15932   7.665   8.562   8.451
  967POPC   C3B15933   7.516   8.468   8.067
  967POPC   C4B15934   7.584   8.737   7.745
  968POPC   NC315935  38.922  24.497   9.536
  968POPC   PO415936  38.280  24.663   9.551
  968POPC   GL115937  38.512  24.555   9.177
  968POPC   GL215938  38.821  24.815   9.157
  968POPC   C1A15939  38.261  24.428   8.811
  968POPC   D2A15940  38.135  24.307   8.386
  968POPC   C3A15941  38.454  24.234   8.051
  968POPC   C4A15942  38.329  24.369   7.625
  968POPC   C1B15943  38.844  24.561   8.789
  968POPC   C2B15944  38.617  24.537   8.428
  968POPC   C3B15945  38.555  24.742   8.036
  968POPC   C4B15946  38.817  24.572   7.728
  969POPC   NC315947   4.552  27.508   9.312
  969POPC   PO415948   5.194  27.643   9.672
  969POPC   GL115949   5.230  27.615   9.198
  969POPC   GL215950   4.934  27.610   8.996
  969POPC   C1A15951   5.344  27.481   8.751
  969POPC   D2A15952   5.326  27.658   8.314
  969POPC   C3A15953   5.243  27.398   7.936
  969POPC   C4A15954   5.125  27.468   7.476
  969POPC   C1B15955   4.771  27.407   8.648
  969POPC   C2B15956   4.830  27.496   8.219
  969POPC   C3B15957   4.717  27.522   7.811
  969POPC   C4B15958   4.742  27.840   7.477
  970POPC   NC315959  23.860   1.660   9.556
  970POPC   PO415960  23.312   1.995   9.532
  970POPC   GL115961  23.524   2.104   9.164
  970POPC   GL215962  23.645   1.759   9.106
  970POPC   C1A15963  23.732   2.267   8.792
  970POPC   D2A15964  24.007   2.166   8.435
  970POPC   C3A15965  23.764   2.148   8.023
  970POPC   C4A15966  23.652   2.335   7.608
  970POPC   C1B15967  23.918   1.766   8.768
  970POPC   C2B15968  23.854   1.673   8.353
  970POPC   C3B15969  23.785   1.652   7.930
  970POPC   C4B15970  23.600   1.823   7.599
  971POPC   NC315971  35.040  38.699   9.460
  971POPC   PO415972  34.367  38.589   9.551
  971POPC   GL115973  34.382  38.363   9.186
  971POPC   GL215974  34.747  38.381   9.174
  971POPC   C1A15975  34.416  38.456   8.759
  971POPC   D2A15976  34.286  38.733   8.466
  971POPC   C3A15977  34.455  38.600   8.131
  971POPC   C4A15978  34.239  38.498   7.787
  971POPC   C1B15979  34.902  38.319   8.797
  971POPC   C2B15980  34.973  38.561   8.443
  971POPC   C3B15981  34.973  38.414   8.022
  971POPC   C4B15982  34.732  38.591   7.699
  972POPC   NC315983  11.854  37.295   9.440
  972POPC   PO415984  12.244  36.649   9.368
  972POPC   GL115985  12.138  36.975   9.076
  972POPC   GL215986  12.355  37.275   9.141
  972POPC   C1A15987  11.940  36.848   8.671
  972POPC   D2A15988  11.897  36.446   8.415
  972POPC   C3A15989  11.911  36.571   7.988
  972POPC   C4A15990  11.885  36.963   7.762
  972POPC   C1B15991  12.263  37.286   8.676
  972POPC   C2B15992  12.212  37.174   8.224
  972POPC   C3B15993  12.358  37.259   7.791
  972POPC   C4B15994  12.186  37.132   7.377
  973POPC   NC315995  39.804  35.418   9.418
  973POPC   PO415996  40.393  35.087   9.543
  973POPC   GL115997  40.196  35.222   9.154
  973POPC   GL215998  40.256  35.548   9.108
  973POPC   C1A15999  40.059  35.339   8.684
  973POPC   D2A16000  39.867  35.722   8.437
  973POPC   C3A16001  39.743  35.575   8.028
  973POPC   C4A16002  39.955  35.233   7.848
  973POPC   C1B16003  40.458  35.646   8.685
  973POPC   C2B16004  40.350  35.710   8.249
  973POPC   C3B16005  40.402  35.479   7.849
  973POPC   C4B16006  40.237  35.409   7.440
  974POPC   NC316007  27.376   8.498   9.479
  974POPC   PO416008  28.028   8.309   9.554
  974POPC   GL116009  27.734   8.255   9.170
  974POPC   GL216010  27.404   8.050   9.131
  974POPC   C1A16011  27.793   8.271   8.719
  974POPC   D2A16012  27.994   8.100   8.340
  974POPC   C3A16013  27.681   8.002   8.027
  974POPC   C4A16014  27.564   8.270   7.696
  974POPC   C1B16015  27.461   7.874   8.717
  974POPC   C2B16016  27.295   8.006   8.342
  974POPC   C3B16017  27.192   7.949   7.889
  974POPC   C4B16018  27.317   7.917   7.411
  975POPC   NC316019   5.846   7.008   9.564
  975POPC   PO416020   5.709   7.605   9.762
  975POPC   GL116021   5.773   7.410   9.271
  975POPC   GL216022   5.477   7.216   9.254
  975POPC   C1A16023   5.761   7.578   8.799
  975POPC   D2A16024   5.611   7.465   8.387
  975POPC   C3A16025   5.878   7.486   8.042
  975POPC   C4A16026   5.843   7.743   7.689
  975POPC   C1B16027   5.664   7.083   8.838
  975POPC   C2B16028   5.752   6.986   8.385
  975POPC   C3B16029   5.739   7.006   7.922
  975POPC   C4B16030   5.842   7.218   7.498
  976POPC   NC316031   1.968   7.151   9.381
  976POPC   PO416032   2.360   7.798   9.370
  976POPC   GL116033   2.144   7.563   9.094
  976POPC   GL216034   2.224   7.224   8.939
  976POPC   C1A16035   2.069   7.700   8.718
  976POPC   D2A16036   2.265   7.735   8.311
  976POPC   C3A16037   2.079   7.508   7.983
  976POPC   C4A16038   1.950   7.576   7.574
  976POPC   C1B16039   1.848   7.251   8.659
  976POPC   C2B16040   1.722   7.173   8.218
  976POPC   C3B16041   1.608   7.211   7.768
  976POPC   C4B16042   1.852   7.110   7.374
  977POPC   NC316043  40.264   6.283   9.591
  977POPC   PO416044  40.236   5.504   9.527
  977POPC   GL116045  40.280   5.867   9.272
  977POPC   GL216046  39.938   5.938   9.186
  977POPC   C1A16047  40.292   5.960   8.817
  977POPC   D2A16048  40.184   6.194   8.425
  977POPC   C3A16049  40.118   5.929   8.059
  977POPC   C4A16050  40.063   5.754   7.654
  977POPC   C1B16051  39.792   6.104   8.763
  977POPC   C2B16052  39.661   6.059   8.304
  977POPC   C3B16053  39.649   5.998   7.848
  977POPC   C4B16054  39.579   5.693   7.512
  978POPC   NC316055  24.706  36.071   9.519
  978POPC   PO416056  24.095  35.790   9.498
  978POPC   GL116057  24.389  35.987   9.124
  978POPC   GL216058  24.713  36.251   9.064
  978POPC   C1A16059  24.580  35.917   8.710
  978POPC   D2A16060  24.732  35.721   8.349
  978POPC   C3A16061  24.604  35.862   7.930
  978POPC   C4A16062  24.306  36.086   7.675
  978POPC   C1B16063  24.862  36.424   8.704
  978POPC   C2B16064  24.895  36.219   8.297
  978POPC   C3B16065  24.698  36.391   7.935
  978POPC   C4B16066  24.897  36.725   7.738
  979POPC   NC316067  44.296  29.722   9.507
  979POPC   PO416068  44.803  30.050   9.645
  979POPC   GL116069  44.774  30.055   9.172
  979POPC   GL216070  44.676  29.697   9.164
  979POPC   C1A16071  44.865  30.243   8.732
  979POPC   D2A16072  44.910  30.287   8.261
  979POPC   C3A16073  44.906  29.956   7.917
  979POPC   C4A16074   0.146  30.004   7.507
  979POPC   C1B16075  44.550  29.781   8.755
  979POPC   C2B16076  44.780  29.764   8.386
  979POPC   C3B16077  44.841  29.445   8.063
  979POPC   C4B16078  44.642  29.462   7.699
  980POPC   NC316079  42.030   8.845   9.751
  980POPC   PO416080  42.605   8.688   9.468
  980POPC   GL116081  42.482   9.004   9.208
  980POPC   GL216082  42.163   8.906   9.137
  980POPC   C1A16083  42.610   8.989   8.800
  980POPC   D2A16084  42.537   8.754   8.384
  980POPC   C3A16085  42.486   9.017   7.992
  980POPC   C4A16086  42.457   9.255   7.601
  980POPC   C1B16087  42.138   8.889   8.696
  980POPC   C2B16088  42.030   8.938   8.263
  980POPC   C3B16089  41.890   8.719   7.857
  980POPC   C4B16090  42.139   8.795   7.470
  981POPC   NC316091  20.872  27.606   9.393
  981POPC   PO416092  21.509  27.464   9.446
  981POPC   GL116093  21.302  27.525   9.098
  981POPC   GL216094  21.074  27.226   9.091
  981POPC   C1A16095  21.474  27.608   8.707
  981POPC   D2A16096  21.263  27.667   8.324
  981POPC   C3A16097  21.507  27.586   7.964
  981POPC   C4A16098  21.490  27.428   7.538
  981POPC   C1B16099  20.951  27.487   8.730
  981POPC   C2B16100  20.869  27.345   8.308
  981POPC   C3B16101  21.009  27.462   7.877
  981POPC   C4B16102  20.993  27.557   7.429
  982POPC   NC316103  32.276  41.036   9.488
  982POPC   PO416104  31.906  40.510   9.642
  982POPC   GL116105  31.973  40.699   9.235
  982POPC   GL216106  32.335  40.600   9.213
  982POPC   C1A16107  32.071  40.850   8.814
  982POPC   D2A16108  31.984  41.028   8.407
  982POPC   C3A16109  32.175  40.962   7.987
  982POPC   C4A16110  32.017  40.815   7.599
  982POPC   C1B16111  32.392  40.460   8.803
  982POPC   C2B16112  32.406  40.694   8.407
  982POPC   C3B16113  32.453  40.528   7.999
  982POPC   C4B16114  32.481  40.604   7.588
  983POPC   NC316115  11.504  26.937  10.049
  983POPC   PO416116  11.076  26.693   9.606
  983POPC   GL116117  11.340  26.830   9.278
  983POPC   GL216118  11.561  27.098   9.346
  983POPC   C1A16119  11.464  26.701   8.887
  983POPC   D2A16120  11.487  26.549   8.486
  983POPC   C3A16121  11.326  26.739   8.154
  983POPC   C4A16122  11.236  26.641   7.760
  983POPC   C1B16123  11.643  27.199   8.891
  983POPC   C2B16124  11.548  27.144   8.440
  983POPC   C3B16125  11.512  27.182   7.974
  983POPC   C4B16126  11.282  27.128   7.585
  984POPC   NC316127   5.757  29.550   9.257
  984POPC   PO416128   5.809  30.152   9.514
  984POPC   GL116129   5.924  30.011   9.097
  984POPC   GL216130   6.207  29.766   9.084
  984POPC   C1A16131   5.936  29.972   8.645
  984POPC   D2A16132   5.936  30.303   8.349
  984POPC   C3A16133   5.665  30.164   8.057
  984POPC   C4A16134   5.690  29.975   7.630
  984POPC   C1B16135   6.304  29.589   8.694
  984POPC   C2B16136   6.167  29.527   8.322
  984POPC   C3B16137   5.933  29.696   8.016
  984POPC   C4B16138   6.157  29.779   7.651
  985POPC   NC316139  35.598  37.224   9.491
  985POPC   PO416140  35.385  36.602   9.377
  985POPC   GL116141  35.159  36.796   9.054
  985POPC   GL216142  35.358  37.104   9.046
  985POPC   C1A16143  35.233  36.746   8.607
  985POPC   D2A16144  35.633  36.700   8.391
  985POPC   C3A16145  35.593  36.819   8.007
  985POPC   C4A16146  35.243  36.748   7.806
  985POPC   C1B16147  35.143  37.262   8.682
  985POPC   C2B16148  35.227  37.159   8.244
  985POPC   C3B16149  35.217  37.265   7.819
  985POPC   C4B16150  35.620  37.221   7.688
  986POPC   NC316151  39.712  25.053   9.302
  986POPC   PO416152  39.926  24.511   9.672
  986POPC   GL116153  39.992  24.569   9.203
  986POPC   GL216154  40.140  24.891   9.061
  986POPC   C1A16155  40.191  24.406   8.807
  986POPC   D2A16156  40.089  24.203   8.417
  986POPC   C3A16157  40.173  24.380   8.031
  986POPC   C4A16158  40.004  24.361   7.629
  986POPC   C1B16159  39.839  24.766   8.723
  986POPC   C2B16160  39.833  24.641   8.302
  986POPC   C3B16161  39.891  24.811   7.889
  986POPC   C4B16162  39.801  24.815   7.437
  987POPC   NC316163   3.670  15.538   9.358
  987POPC   PO416164   4.309  15.331   9.624
  987POPC   GL116165   4.187  15.105   9.264
  987POPC   GL216166   3.875  15.093   9.241
  987POPC   C1A16167   4.229  14.909   8.844
  987POPC   D2A16168   4.209  15.170   8.447
  987POPC   C3A16169   4.305  15.038   8.076
  987POPC   C4A16170   4.207  15.106   7.668
  987POPC   C1B16171   4.012  15.379   8.861
  987POPC   C2B16172   3.822  15.495   8.472
  987POPC   C3B16173   4.071  15.521   8.086
  987POPC   C4B16174   3.940  15.568   7.693
  988POPC   NC316175  21.440  39.837   9.719
  988POPC   PO416176  21.115  40.228   9.275
  988POPC   GL116177  21.377  39.891   9.055
  988POPC   GL216178  21.613  40.021   8.850
  988POPC   C1A16179  21.320  39.677   8.649
  988POPC   D2A16180  21.071  39.781   8.298
  988POPC   C3A16181  21.268  40.019   7.990
  988POPC   C4A16182  21.210  40.023   7.527
  988POPC   C1B16183  21.271  40.175   8.606
  988POPC   C2B16184  21.378  40.451   8.314
  988POPC   C3B16185  21.648  40.486   7.999
  988POPC   C4B16186  21.641  40.222   7.671
  989POPC   NC316187  41.619  23.989   9.475
  989POPC   PO416188  41.342  23.453   9.379
  989POPC   GL116189  41.434  23.796   9.034
  989POPC   GL216190  41.803  23.955   9.011
  989POPC   C1A16191  41.585  23.824   8.584
  989POPC   D2A16192  41.685  23.558   8.284
  989POPC   C3A16193  41.329  23.518   7.982
  989POPC   C4A16194  41.361  23.683   7.570
  989POPC   C1B16195  41.754  24.288   8.688
  989POPC   C2B16196  41.528  24.278   8.316
  989POPC   C3B16197  41.566  24.005   7.982
  989POPC   C4B16198  41.855  24.123   7.672
  990POPC   NC316199  36.125  17.835   9.368
  990POPC   PO416200  36.270  17.181   9.436
  990POPC   GL116201  36.374  17.435   9.109
  990POPC   GL216202  36.109  17.210   8.939
  990POPC   C1A16203  36.249  17.642   8.736
  990POPC   D2A16204  36.262  17.365   8.396
  990POPC   C3A16205  36.359  17.571   8.028
  990POPC   C4A16206  36.115  17.721   7.702
  990POPC   C1B16207  35.773  17.348   8.670
  990POPC   C2B16208  35.782  17.307   8.221
  990POPC   C3B16209  35.957  17.257   7.878
  990POPC   C4B16210  35.828  17.039   7.555
  991POPC   NC316211  35.602  14.864   9.480
  991POPC   PO416212  35.056  15.205   9.411
  991POPC   GL116213  35.181  15.367   9.030
  991POPC   GL216214  35.488  15.215   9.121
  991POPC   C1A16215  35.300  15.256   8.597
  991POPC   D2A16216  35.206  14.914   8.315
  991POPC   C3A16217  35.168  15.086   7.901
  991POPC   C4A16218  35.343  15.474   7.753
  991POPC   C1B16219  35.600  14.894   8.802
  991POPC   C2B16220  35.751  15.024   8.397
  991POPC   C3B16221  35.679  15.095   7.988
  991POPC   C4B16222  35.502  14.746   7.749
  992POPC   NC316223  35.629  43.390   9.457
  992POPC   PO416224  35.309  42.782   9.460
  992POPC   GL116225  35.328  42.973   9.097
  992POPC   GL216226  35.385  43.316   9.011
  992POPC   C1A16227  35.523  42.943   8.708
  992POPC   D2A16228  35.571  42.692   8.403
  992POPC   C3A16229  35.454  42.830   8.031
  992POPC   C4A16230  35.287  43.157   7.770
  992POPC   C1B16231  35.071  43.229   8.725
  992POPC   C2B16232  35.266  43.202   8.321
  992POPC   C3B16233  35.457  43.493   8.105
  992POPC   C4B16234  35.534  43.628   7.724
  993POPC   NC316235  35.308   9.161   9.566
  993POPC   PO416236  35.903   8.901   9.520
  993POPC   GL116237  35.601   9.015   9.121
  993POPC   GL216238  35.228   9.058   9.070
  993POPC   C1A16239  35.518   9.032   8.648
  993POPC   D2A16240  35.444   8.825   8.251
  993POPC   C3A16241  35.420   8.988   7.835
  993POPC   C4A16242  35.524   8.736   7.492
  993POPC   C1B16243  35.069   8.711   8.825
  993POPC   C2B16244  34.962   8.771   8.409
  993POPC   C3B16245  35.025   8.689   7.971
  993POPC   C4B16246  35.026   8.720   7.532
  994POPC   NC316247   1.517  37.238   9.444
  994POPC   PO416248   2.221  36.994   9.486
  994POPC   GL116249   2.069  37.046   9.042
  994POPC   GL216250   1.789  37.310   9.001
  994POPC   C1A16251   1.890  36.969   8.614
  994POPC   D2A16252   1.829  36.571   8.364
  994POPC   C3A16253   1.976  36.586   7.938
  994POPC   C4A16254   1.948  36.776   7.522
  994POPC   C1B16255   2.172  37.425   8.747
  994POPC   C2B16256   2.342  37.266   8.409
  994POPC   C3B16257   2.092  37.055   8.115
  994POPC   C4B16258   2.309  37.064   7.732
  995POPC   NC316259  19.333  38.969   9.439
  995POPC   PO416260  18.834  38.733   9.762
  995POPC   GL116261  18.949  38.710   9.254
  995POPC   GL216262  19.140  38.409   9.133
  995POPC   C1A16263  19.100  38.840   8.810
  995POPC   D2A16264  19.037  38.794   8.347
  995POPC   C3A16265  18.955  38.541   7.954
  995POPC   C4A16266  18.933  38.611   7.485
  995POPC   C1B16267  19.307  38.390   8.704
  995POPC   C2B16268  19.211  38.243   8.313
  995POPC   C3B16269  19.403  38.249   7.929
  995POPC   C4B16270  19.205  38.203   7.603
  996POPC   NC316271  11.063  40.455   9.472
  996POPC   PO416272  11.518  40.859   9.676
  996POPC   GL116273  11.564  40.780   9.233
  996POPC   GL216274  11.528  41.083   9.043
  996POPC   C1A16275  11.458  40.589   8.814
  996POPC   D2A16276  11.489  40.478   8.356
  996POPC   C3A16277  11.324  40.806   8.052
  996POPC   C4A16278  11.367  40.712   7.632
  996POPC   C1B16279  11.271  41.040   8.633
  996POPC   C2B16280  10.964  41.128   8.292
  996POPC   C3B16281  10.978  41.118   7.824
  996POPC   C4B16282  11.113  41.104   7.374
  997POPC   NC316283  10.235   5.622   9.488
  997POPC   PO416284  10.780   5.999   9.654
  997POPC   GL116285  10.638   5.857   9.229
  997POPC   GL216286  10.304   6.023   9.179
  997POPC   C1A16287  10.843   5.698   8.842
  997POPC   D2A16288  10.811   5.836   8.411
  997POPC   C3A16289  10.919   5.599   8.042
  997POPC   C4A16290  10.891   5.791   7.680
  997POPC   C1B16291  10.077   6.064   8.785
  997POPC   C2B16292  10.202   6.014   8.354
  997POPC   C3B16293  10.136   6.111   7.904
  997POPC   C4B16294  10.426   5.958   7.559
  998POPC   NC316295  14.962   4.242   9.940
  998POPC   PO416296  15.435   4.531   9.591
  998POPC   GL116297  15.260   4.482   9.173
  998POPC   GL216298  14.981   4.292   9.208
  998POPC   C1A16299  15.316   4.540   8.719
  998POPC   D2A16300  15.521   4.778   8.376
  998POPC   C3A16301  15.515   4.462   8.043
  998POPC   C4A16302  15.485   4.027   7.937
  998POPC   C1B16303  14.813   4.476   8.833
  998POPC   C2B16304  14.835   4.284   8.439
  998POPC   C3B16305  15.044   4.253   8.081
  998POPC   C4B16306  15.032   4.481   7.747
  999POPC   NC316307   2.630  43.435   9.410
  999POPC   PO416308   3.051  42.953   9.497
  999POPC   GL116309   2.780  42.972   9.166
  999POPC   GL216310   2.957  43.274   9.070
  999POPC   C1A16311   2.619  43.001   8.762
  999POPC   D2A16312   2.758  43.003   8.366
  999POPC   C3A16313   2.537  43.044   7.989
  999POPC   C4A16314   2.649  43.047   7.532
  999POPC   C1B16315   2.850  43.433   8.668
  999POPC   C2B16316   2.706  43.501   8.230
  999POPC   C3B16317   2.840  43.420   7.798
  999POPC   C4B16318   2.633  43.539   7.356
 1000POPC   NC316319  34.856   8.562   9.505
 1000POPC   PO416320  34.765   9.224   9.589
 1000POPC   GL116321  34.732   8.950   9.203
 1000POPC   GL216322  34.514   8.660   9.107
 1000POPC   C1A16323  34.693   9.067   8.790
 1000POPC   D2A16324  34.472   9.114   8.423
 1000POPC   C3A16325  34.690   9.107   8.024
 1000POPC   C4A16326  34.760   9.141   7.580
 1000POPC   C1B16327  34.542   8.581   8.646
 1000POPC   C2B16328  34.543   8.606   8.185
 1000POPC   C3B16329  34.549   8.681   7.738
 1000POPC   C4B16330  34.583   8.790   7.263
 1001POPC   NC316331   4.596  30.681   9.722
 1001POPC   PO416332   4.201  30.302   9.448
 1001POPC   GL116333   4.501  30.519   9.195
 1001POPC   GL216334   4.414  30.846   9.032
 1001POPC   C1A16335   4.676  30.517   8.777
 1001POPC   D2A16336   4.446  30.794   8.517
 1001POPC   C3A16337   4.490  30.802   8.082
 1001POPC   C4A16338   4.332  30.457   7.824
 1001POPC   C1B16339   4.122  31.119   8.794
 1001POPC   C2B16340   4.037  31.125   8.371
 1001POPC   C3B16341   3.993  30.855   8.029
 1001POPC   C4B16342   4.232  30.920   7.649
 1002POPC   NC316343   0.876  15.975   9.505
 1002POPC   PO416344   1.539  15.710   9.434
 1002POPC   GL116345   1.233  15.839   9.120
 1002POPC   GL216346   1.099  16.190   9.070
 1002POPC   C1A16347   1.201  15.856   8.649
 1002POPC   D2A16348   1.384  15.795   8.200
 1002POPC   C3A16349   1.041  15.600   7.927
 1002POPC   C4A16350   0.880  15.418   7.535
 1002POPC   C1B16351   0.967  16.427   8.713
 1002POPC   C2B16352   0.871  16.361   8.276
 1002POPC   C3B16353   1.127  16.160   7.953
 1002POPC   C4B16354   1.611  16.175   7.867
 1003POPC   NC316355  26.900  19.798   9.509
 1003POPC   PO416356  27.387  19.398   9.149
 1003POPC   GL116357  26.989  19.608   9.036
 1003POPC   GL216358  27.000  19.974   9.052
 1003POPC   C1A16359  26.595  19.568   8.746
 1003POPC   D2A16360  26.526  19.875   8.381
 1003POPC   C3A16361  26.451  19.795   7.920
 1003POPC   C4A16362  26.556  19.576   7.512
 1003POPC   C1B16363  26.974  19.897   8.634
 1003POPC   C2B16364  27.011  20.026   8.263
 1003POPC   C3B16365  26.896  20.013   7.870
 1003POPC   C4B16366  27.070  19.936   7.497
 1004POPC   NC316367  22.186  19.244   9.629
 1004POPC   PO416368  22.259  19.935   9.596
 1004POPC   GL116369  22.195  19.803   9.195
 1004POPC   GL216370  22.433  19.661   9.046
 1004POPC   C1A16371  22.149  20.008   8.807
 1004POPC   D2A16372  21.971  20.021   8.420
 1004POPC   C3A16373  22.200  19.926   8.060
 1004POPC   C4A16374  22.455  19.943   7.701
 1004POPC   C1B16375  22.305  19.555   8.611
 1004POPC   C2B16376  22.072  19.411   8.254
 1004POPC   C3B16377  21.817  19.592   7.955
 1004POPC   C4B16378  21.914  19.797   7.583
 1005POPC   NC316379   1.733  11.626   9.440
 1005POPC   PO416380   1.837  10.964   9.456
 1005POPC   GL116381   2.121  11.159   9.125
 1005POPC   GL216382   2.094  11.513   9.091
 1005POPC   C1A16383   2.170  11.240   8.656
 1005POPC   D2A16384   1.923  11.438   8.324
 1005POPC   C3A16385   1.832  11.188   7.987
 1005POPC   C4A16386   1.958  10.988   7.659
 1005POPC   C1B16387   1.842  11.752   8.780
 1005POPC   C2B16388   1.569  11.794   8.363
 1005POPC   C3B16389   1.713  11.858   7.956
 1005POPC   C4B16390   2.074  11.620   7.846
 1006POPC   NC316391  37.098  26.686   9.652
 1006POPC   PO416392  36.841  27.212   9.573
 1006POPC   GL116393  36.938  26.937   9.189
 1006POPC   GL216394  37.269  27.009   9.108
 1006POPC   C1A16395  36.844  26.801   8.701
 1006POPC   D2A16396  36.818  26.964   8.219
 1006POPC   C3A16397  36.667  26.969   7.743
 1006POPC   C4A16398  36.568  26.789   7.303
 1006POPC   C1B16399  37.353  26.842   8.682
 1006POPC   C2B16400  37.349  26.973   8.247
 1006POPC   C3B16401  37.170  26.927   7.836
 1006POPC   C4B16402  37.065  26.862   7.396
 1007POPC   NC316403  13.753  19.133   9.554
 1007POPC   PO416404  13.213  19.162   9.157
 1007POPC   GL116405  13.654  19.099   9.047
 1007POPC   GL216406  13.950  19.337   9.138
 1007POPC   C1A16407  13.700  18.869   8.668
 1007POPC   D2A16408  13.595  18.982   8.241
 1007POPC   C3A16409  13.520  18.736   7.866
 1007POPC   C4A16410  13.771  18.902   7.534
 1007POPC   C1B16411  14.048  19.228   8.743
 1007POPC   C2B16412  14.069  19.110   8.344
 1007POPC   C3B16413  14.016  19.113   7.919
 1007POPC   C4B16414  13.947  19.429   7.632
 1008POPC   NC316415  34.933  35.314   9.416
 1008POPC   PO416416  34.259  35.202   9.411
 1008POPC   GL116417  34.502  35.504   9.133
 1008POPC   GL216418  34.849  35.559   8.972
 1008POPC   C1A16419  34.451  35.432   8.693
 1008POPC   D2A16420  34.702  35.506   8.346
 1008POPC   C3A16421  34.439  35.534   7.988
 1008POPC   C4A16422  34.294  35.226   7.692
 1008POPC   C1B16423  35.046  35.215   8.766
 1008POPC   C2B16424  35.060  35.057   8.355
 1008POPC   C3B16425  34.968  35.213   7.956
 1008POPC   C4B16426  34.789  35.278   7.543
 1009POPC   NC316427  43.491   3.840   9.668
 1009POPC   PO416428  42.987   3.427   9.550
 1009POPC   GL116429  43.235   3.617   9.282
 1009POPC   GL216430  43.054   3.863   9.091
 1009POPC   C1A16431  43.497   3.647   8.970
 1009POPC   D2A16432  43.471   3.441   8.591
 1009POPC   C3A16433  43.445   3.610   8.197
 1009POPC   C4A16434  43.266   3.339   7.873
 1009POPC   C1B16435  43.017   3.552   8.807
 1009POPC   C2B16436  42.963   3.667   8.400
 1009POPC   C3B16437  42.872   3.688   7.977
 1009POPC   C4B16438  42.960   3.602   7.538
 1010POPC   NC316439   8.589   5.426   9.483
 1010POPC   PO416440   8.861   6.042   9.443
 1010POPC   GL116441   8.947   5.904   9.072
 1010POPC   GL216442   8.911   5.552   9.092
 1010POPC   C1A16443   8.733   5.842   8.703
 1010POPC   D2A16444   8.857   5.749   8.289
 1010POPC   C3A16445   8.990   6.031   7.975
 1010POPC   C4A16446   8.744   5.871   7.679
 1010POPC   C1B16447   9.223   5.569   8.789
 1010POPC   C2B16448   9.233   5.424   8.398
 1010POPC   C3B16449   9.338   5.629   8.047
 1010POPC   C4B16450   9.175   5.623   7.696
 1011POPC   NC316451   2.175  20.240   9.374
 1011POPC   PO416452   2.209  20.732   9.787
 1011POPC   GL116453   2.135  20.757   9.307
 1011POPC   GL216454   1.798  20.593   9.243
 1011POPC   C1A16455   2.119  20.624   8.837
 1011POPC   D2A16456   2.082  20.744   8.385
 1011POPC   C3A16457   2.149  20.624   7.951
 1011POPC   C4A16458   2.171  20.917   7.596
 1011POPC   C1B16459   1.720  20.295   8.875
 1011POPC   C2B16460   1.955  20.256   8.492
 1011POPC   C3B16461   1.800  20.199   8.122
 1011POPC   C4B16462   1.886  20.242   7.740
 1012POPC   NC316463  11.420  15.384   9.534
 1012POPC   PO416464  11.105  14.882   9.498
 1012POPC   GL116465  11.294  15.083   9.123
 1012POPC   GL216466  11.615  15.013   9.214
 1012POPC   C1A16467  11.279  15.287   8.675
 1012POPC   D2A16468  11.530  15.492   8.312
 1012POPC   C3A16469  11.342  15.424   7.898
 1012POPC   C4A16470  11.080  15.075   7.791
 1012POPC   C1B16471  11.744  15.199   8.826
 1012POPC   C2B16472  11.870  15.130   8.396
 1012POPC   C3B16473  11.762  15.148   7.976
 1012POPC   C4B16474  11.596  15.067   7.578
 1013POPC   NC316475  18.842  19.753   9.430
 1013POPC   PO416476  19.530  19.933   9.453
 1013POPC   GL116477  19.305  19.878   9.093
 1013POPC   GL216478  19.064  20.138   9.148
 1013POPC   C1A16479  19.365  19.789   8.660
 1013POPC   D2A16480  19.095  19.587   8.347
 1013POPC   C3A16481  19.266  19.495   7.943
 1013POPC   C4A16482  19.171  19.651   7.504
 1013POPC   C1B16483  19.194  20.271   8.738
 1013POPC   C2B16484  19.248  20.126   8.304
 1013POPC   C3B16485  19.107  19.976   7.915
 1013POPC   C4B16486  19.182  20.163   7.515
 1014POPC   NC316487   7.571  31.806   9.382
 1014POPC   PO416488   7.040  31.403   9.540
 1014POPC   GL116489   7.163  31.481   9.140
 1014POPC   GL216490   7.515  31.376   9.089
 1014POPC   C1A16491   7.284  31.710   8.760
 1014POPC   D2A16492   7.397  31.554   8.405
 1014POPC   C3A16493   7.230  31.775   8.137
 1014POPC   C4A16494   7.473  31.655   7.834
 1014POPC   C1B16495   7.275  31.195   8.751
 1014POPC   C2B16496   7.414  31.042   8.359
 1014POPC   C3B16497   7.616  31.162   7.986
 1014POPC   C4B16498   7.402  31.178   7.617
 1015POPC   NC316499   3.474  36.558   9.665
 1015POPC   PO416500   3.835  35.994   9.429
 1015POPC   GL116501   3.841  35.722   9.056
 1015POPC   GL216502   3.538  35.859   8.949
 1015POPC   C1A16503   3.812  35.700   8.578
 1015POPC   D2A16504   3.500  35.906   8.360
 1015POPC   C3A16505   3.592  36.083   7.955
 1015POPC   C4A16506   3.689  36.465   7.756
 1015POPC   C1B16507   3.347  36.256   8.708
 1015POPC   C2B16508   3.272  36.388   8.288
 1015POPC   C3B16509   3.188  36.387   7.853
 1015POPC   C4B16510   3.368  36.178   7.461
 1016POPC   NC316511  12.163  28.853   9.423
 1016POPC   PO416512  11.820  29.415   9.572
 1016POPC   GL116513  12.095  29.360   9.186
 1016POPC   GL216514  11.943  29.072   9.038
 1016POPC   C1A16515  12.348  29.216   8.797
 1016POPC   D2A16516  12.204  29.129   8.416
 1016POPC   C3A16517  12.358  29.234   8.036
 1016POPC   C4A16518  12.065  29.269   7.731
 1016POPC   C1B16519  11.761  28.985   8.658
 1016POPC   C2B16520  11.830  28.811   8.262
 1016POPC   C3B16521  11.718  28.908   7.858
 1016POPC   C4B16522  11.925  28.859   7.460
 1017POPC   NC316523  39.147  19.689   9.567
 1017POPC   PO416524  39.288  20.351   9.463
 1017POPC   GL116525  39.379  19.992   9.167
 1017POPC   GL216526  39.415  19.588   9.093
 1017POPC   C1A16527  39.120  19.870   8.824
 1017POPC   D2A16528  39.136  19.545   8.512
 1017POPC   C3A16529  39.094  19.629   8.071
 1017POPC   C4A16530  39.067  19.724   7.626
 1017POPC   C1B16531  39.612  19.693   8.675
 1017POPC   C2B16532  39.609  19.706   8.212
 1017POPC   C3B16533  39.541  19.706   7.784
 1017POPC   C4B16534  39.487  19.479   7.413
 1018POPC   NC316535  12.530  41.213   9.534
 1018POPC   PO416536  13.180  41.265   9.407
 1018POPC   GL116537  12.825  41.262   9.102
 1018POPC   GL216538  12.571  41.009   9.072
 1018POPC   C1A16539  12.896  41.243   8.669
 1018POPC   D2A16540  13.173  41.217   8.281
 1018POPC   C3A16541  12.962  41.382   7.893
 1018POPC   C4A16542  12.661  41.738   7.976
 1018POPC   C1B16543  12.337  41.187   8.737
 1018POPC   C2B16544  12.496  41.430   8.391
 1018POPC   C3B16545  12.479  41.266   7.999
 1018POPC   C4B16546  12.402  41.351   7.595
 1019POPC   NC316547   2.377  42.052   9.466
 1019POPC   PO416548   1.756  41.880   9.473
 1019POPC   GL116549   1.991  42.147   9.173
 1019POPC   GL216550   1.898  42.468   9.068
 1019POPC   C1A16551   2.218  42.136   8.796
 1019POPC   D2A16552   1.967  42.358   8.500
 1019POPC   C3A16553   1.993  42.323   8.078
 1019POPC   C4A16554   1.985  42.123   7.707
 1019POPC   C1B16555   1.778  42.751   8.731
 1019POPC   C2B16556   1.628  42.656   8.255
 1019POPC   C3B16557   1.732  42.632   7.735
 1019POPC   C4B16558   1.833  42.850   7.292
 1020POPC   NC316559  44.171  34.516   9.273
 1020POPC   PO416560  43.592  34.219   9.578
 1020POPC   GL116561  43.668  34.400   9.135
 1020POPC   GL216562  43.778  34.750   9.073
 1020POPC   C1A16563  43.862  34.436   8.697
 1020POPC   D2A16564  44.094  34.196   8.426
 1020POPC   C3A16565  44.177  34.269   8.000
 1020POPC   C4A16566  43.821  34.460   7.788
 1020POPC   C1B16567  43.582  34.915   8.733
 1020POPC   C2B16568  43.416  34.829   8.330
 1020POPC   C3B16569  43.573  34.891   7.915
 1020POPC   C4B16570  43.763  35.023   7.540
 1021POPC   NC316571  20.088  38.902   9.513
 1021POPC   PO416572  19.557  38.443   9.429
 1021POPC   GL116573  19.834  38.625   9.145
 1021POPC   GL216574  19.564  38.775   9.011
 1021POPC   C1A16575  19.924  38.455   8.733
 1021POPC   D2A16576  19.721  38.224   8.384
 1021POPC   C3A16577  19.916  38.251   7.966
 1021POPC   C4A16578  19.841  38.651   7.780
 1021POPC   C1B16579  19.596  38.816   8.579
 1021POPC   C2B16580  19.500  38.664   8.186
 1021POPC   C3B16581  19.360  38.750   7.740
 1021POPC   C4B16582  19.582  38.634   7.316
 1022POPC   NC316583  32.339  34.832   9.682
 1022POPC   PO416584  32.333  34.180   9.604
 1022POPC   GL116585  32.390  34.518   9.267
 1022POPC   GL216586  32.055  34.490   9.112
 1022POPC   C1A16587  32.504  34.592   8.818
 1022POPC   D2A16588  32.273  34.489   8.427
 1022POPC   C3A16589  32.250  34.611   8.025
 1022POPC   C4A16590  32.646  34.506   7.895
 1022POPC   C1B16591  31.840  34.508   8.684
 1022POPC   C2B16592  31.875  34.833   8.340
 1022POPC   C3B16593  31.894  35.001   7.892
 1022POPC   C4B16594  31.891  34.852   7.481
 1023POPC   NC316595  20.113  42.968   9.546
 1023POPC   PO416596  19.660  43.416   9.402
 1023POPC   GL116597  20.024  43.286   9.130
 1023POPC   GL216598  20.065  42.893   9.050
 1023POPC   C1A16599  20.081  43.256   8.699
 1023POPC   D2A16600  19.917  43.079   8.364
 1023POPC   C3A16601  19.800  43.322   8.019
 1023POPC   C4A16602  20.032  43.339   7.636
 1023POPC   C1B16603  19.675  42.844   8.789
 1023POPC   C2B16604  19.655  42.640   8.374
 1023POPC   C3B16605  19.682  42.797   7.922
 1023POPC   C4B16606  19.988  42.833   7.560
 1024POPC   NC316607  44.333  36.114   9.518
 1024POPC   PO416608  43.723  36.179   9.637
 1024POPC   GL116609  43.900  36.184   9.205
 1024POPC   GL216610  44.039  35.849   9.167
 1024POPC   C1A16611  43.974  36.341   8.768
 1024POPC   D2A16612  43.913  36.192   8.356
 1024POPC   C3A16613  43.728  36.400   8.026
 1024POPC   C4A16614  44.037  36.602   7.792
 1024POPC   C1B16615  43.805  35.864   8.774
 1024POPC   C2B16616  43.630  35.783   8.381
 1024POPC   C3B16617  43.875  35.746   8.033
 1024POPC   C4B16618  44.120  36.083   7.879
 1025POPC   NC316619  16.374  14.516   9.612
 1025POPC   PO416620  15.837  14.378   9.559
 1025POPC   GL116621  15.905  14.521   9.127
 1025POPC   GL216622  16.262  14.487   9.099
 1025POPC   C1A16623  15.756  14.508   8.673
 1025POPC   D2A16624  15.764  14.240   8.308
 1025POPC   C3A16625  15.594  14.380   7.933
 1025POPC   C4A16626  15.729  14.650   7.621
 1025POPC   C1B16627  16.292  14.547   8.647
 1025POPC   C2B16628  16.300  14.305   8.262
 1025POPC   C3B16629  16.072  14.246   7.889
 1025POPC   C4B16630  16.207  14.261   7.493
 1026POPC   NC316631  42.321  11.678   9.177
 1026POPC   PO416632  42.313  11.072   9.506
 1026POPC   GL116633  42.145  11.173   9.048
 1026POPC   GL216634  41.977  11.469   8.883
 1026POPC   C1A16635  42.269  11.120   8.595
 1026POPC   D2A16636  42.457  11.374   8.230
 1026POPC   C3A16637  42.465  11.221   7.842
 1026POPC   C4A16638  42.240  11.148   7.454
 1026POPC   C1B16639  42.136  11.623   8.535
 1026POPC   C2B16640  41.878  11.427   8.250
 1026POPC   C3B16641  41.981  11.387   7.849
 1026POPC   C4B16642  42.272  11.653   7.659
 1027POPC   NC316643  24.814   0.369   9.357
 1027POPC   PO416644  25.453   0.730   9.479
 1027POPC   GL116645  25.589   0.523   9.131
 1027POPC   GL216646  25.414   0.211   9.166
 1027POPC   C1A16647  25.676   0.296   8.729
 1027POPC   D2A16648  25.507   0.156   8.341
 1027POPC   C3A16649  25.667   0.375   7.997
 1027POPC   C4A16650  25.491   0.494   7.625
 1027POPC   C1B16651  25.151   0.264   8.761
 1027POPC   C2B16652  25.001   0.157   8.325
 1027POPC   C3B16653  24.971   0.357   7.888
 1027POPC   C4B16654  24.687   0.147   7.562
 1028POPC   NC316655  39.856  16.511   9.882
 1028POPC   PO416656  39.755  17.090   9.560
 1028POPC   GL116657  39.866  16.837   9.220
 1028POPC   GL216658  40.211  16.865   9.068
 1028POPC   C1A16659  39.779  16.769   8.792
 1028POPC   D2A16660  39.784  16.859   8.359
 1028POPC   C3A16661  39.995  16.978   7.998
 1028POPC   C4A16662  39.704  16.931   7.681
 1028POPC   C1B16663  40.249  16.575   8.665
 1028POPC   C2B16664  40.152  16.524   8.212
 1028POPC   C3B16665  40.045  16.526   7.745
 1028POPC   C4B16666  40.169  16.311   7.348
 1029POPC   NC316667   0.445  38.118   9.513
 1029POPC   PO416668   0.223  38.844   9.544
 1029POPC   GL116669   0.464  38.569   9.275
 1029POPC   GL216670   0.205  38.361   9.151
 1029POPC   C1A16671   0.605  38.417   8.861
 1029POPC   D2A16672   0.358  38.519   8.532
 1029POPC   C3A16673   0.464  38.598   8.149
 1029POPC   C4A16674   0.449  38.491   7.745
 1029POPC   C1B16675   0.112  38.142   8.785
 1029POPC   C2B16676   0.301  38.042   8.381
 1029POPC   C3B16677   0.200  38.107   7.973
 1029POPC   C4B16678  44.915  38.390   7.778
 1030POPC   NC316679  37.335  38.994   9.656
 1030POPC   PO416680  37.796  39.490   9.494
 1030POPC   GL116681  37.593  39.278   9.179
 1030POPC   GL216682  37.888  39.170   8.998
 1030POPC   C1A16683  37.462  39.053   8.800
 1030POPC   D2A16684  37.744  38.972   8.433
 1030POPC   C3A16685  37.542  38.999   8.050
 1030POPC   C4A16686  37.579  39.300   7.729
 1030POPC   C1B16687  37.952  39.618   8.848
 1030POPC   C2B16688  38.095  39.648   8.421
 1030POPC   C3B16689  37.922  39.444   8.088
 1030POPC   C4B16690  38.076  39.250   7.739
 1031POPC   NC316691  17.874  18.147   9.508
 1031POPC   PO416692  18.458  18.436   9.433
 1031POPC   GL116693  18.173  18.333   9.125
 1031POPC   GL216694  18.075  17.969   9.080
 1031POPC   C1A16695  18.108  18.324   8.707
 1031POPC   D2A16696  18.370  18.459   8.412
 1031POPC   C3A16697  18.158  18.436   8.053
 1031POPC   C4A16698  18.171  18.297   7.628
 1031POPC   C1B16699  17.825  17.899   8.714
 1031POPC   C2B16700  17.737  18.170   8.362
 1031POPC   C3B16701  17.828  18.073   7.950
 1031POPC   C4B16702  17.993  17.803   7.630
 1032POPC   NC316703  34.341   9.416   9.578
 1032POPC   PO416704  34.480  10.092   9.568
 1032POPC   GL116705  34.452   9.792   9.203
 1032POPC   GL216706  34.620   9.447   9.154
 1032POPC   C1A16707  34.672   9.788   8.786
 1032POPC   D2A16708  34.738  10.040   8.428
 1032POPC   C3A16709  34.701   9.813   8.056
 1032POPC   C4A16710  34.678  10.026   7.670
 1032POPC   C1B16711  34.278   9.438   8.867
 1032POPC   C2B16712  34.223   9.691   8.497
 1032POPC   C3B16713  34.302   9.489   8.111
 1032POPC   C4B16714  34.456   9.540   7.686
 1033POPC   NC316715  11.303   7.613   9.933
 1033POPC   PO416716  11.607   7.485   9.323
 1033POPC   GL116717  11.279   7.440   9.033
 1033POPC   GL216718  11.521   7.483   8.808
 1033POPC   C1A16719  11.151   7.174   8.670
 1033POPC   D2A16720  11.459   7.241   8.324
 1033POPC   C3A16721  11.337   7.034   7.941
 1033POPC   C4A16722  11.317   7.219   7.522
 1033POPC   C1B16723  11.112   7.726   8.679
 1033POPC   C2B16724  10.968   7.563   8.332
 1033POPC   C3B16725  11.215   7.546   7.980
 1033POPC   C4B16726  11.084   7.659   7.615
 1034POPC   NC316727  15.780   6.645   9.810
 1034POPC   PO416728  15.146   6.692   9.471
 1034POPC   GL116729  15.206   6.988   9.129
 1034POPC   GL216730  15.570   6.929   9.050
 1034POPC   C1A16731  15.222   6.986   8.672
 1034POPC   D2A16732  15.369   6.796   8.282
 1034POPC   C3A16733  15.106   6.886   7.950
 1034POPC   C4A16734  14.984   6.560   7.761
 1034POPC   C1B16735  15.480   6.551   8.731
 1034POPC   C2B16736  15.258   6.316   8.422
 1034POPC   C3B16737  15.352   6.309   8.002
 1034POPC   C4B16738  15.550   6.645   7.773
 1035POPC   NC316739  23.413  42.010   9.536
 1035POPC   PO416740  23.800  42.592   9.504
 1035POPC   GL116741  23.546  42.381   9.201
 1035POPC   GL216742  23.430  42.649   9.124
 1035POPC   C1A16743  23.420  42.245   8.770
 1035POPC   D2A16744  23.437  42.411   8.354
 1035POPC   C3A16745  23.444  42.221   7.959
 1035POPC   C4A16746  23.450  41.863   7.701
 1035POPC   C1B16747  23.767  42.606   8.803
 1035POPC   C2B16748  23.953  42.391   8.478
 1035POPC   C3B16749  23.892  42.455   8.074
 1035POPC   C4B16750  23.729  42.597   7.702
 1036POPC   NC316751  30.501  30.703   9.529
 1036POPC   PO416752  31.103  30.603   9.687
 1036POPC   GL116753  30.932  30.643   9.268
 1036POPC   GL216754  30.961  30.931   9.067
 1036POPC   C1A16755  30.832  30.441   8.901
 1036POPC   D2A16756  30.916  30.421   8.458
 1036POPC   C3A16757  30.644  30.640   8.176
 1036POPC   C4A16758  30.676  30.438   7.785
 1036POPC   C1B16759  30.854  30.884   8.644
 1036POPC   C2B16760  31.083  30.892   8.254
 1036POPC   C3B16761  31.096  30.740   7.832
 1036POPC   C4B16762  30.895  30.739   7.424
 1037POPC   NC316763   2.345  14.691   9.383
 1037POPC   PO416764   2.953  14.299   9.490
 1037POPC   GL116765   2.642  14.315   9.160
 1037POPC   GL216766   2.794  14.626   9.051
 1037POPC   C1A16767   2.599  14.320   8.705
 1037POPC   D2A16768   2.839  14.645   8.451
 1037POPC   C3A16769   3.004  14.507   8.076
 1037POPC   C4A16770   2.769  14.424   7.716
 1037POPC   C1B16771   2.486  14.809   8.773
 1037POPC   C2B16772   2.434  15.022   8.365
 1037POPC   C3B16773   2.540  14.825   7.988
 1037POPC   C4B16774   2.335  14.696   7.592
 1038POPC   NC316775  28.643   4.124   9.499
 1038POPC   PO416776  28.023   4.171   9.536
 1038POPC   GL116777  28.174   4.411   9.165
 1038POPC   GL216778  28.527   4.491   9.139
 1038POPC   C1A16779  28.186   4.532   8.696
 1038POPC   D2A16780  28.007   4.580   8.259
 1038POPC   C3A16781  28.246   4.463   7.884
 1038POPC   C4A16782  28.279   4.468   7.439
 1038POPC   C1B16783  28.500   4.147   8.833
 1038POPC   C2B16784  28.599   3.979   8.429
 1038POPC   C3B16785  28.809   4.039   8.043
 1038POPC   C4B16786  28.572   4.098   7.674
 1039POPC   NC316787  19.605  25.341   9.365
 1039POPC   PO416788  18.926  25.433   9.492
 1039POPC   GL116789  19.120  25.232   9.178
 1039POPC   GL216790  18.881  25.322   8.974
 1039POPC   C1A16791  19.361  25.074   8.829
 1039POPC   D2A16792  19.540  25.077   8.432
 1039POPC   C3A16793  19.318  25.393   8.177
 1039POPC   C4A16794  19.068  25.313   7.844
 1039POPC   C1B16795  18.861  24.925   8.758
 1039POPC   C2B16796  18.984  24.776   8.352
 1039POPC   C3B16797  18.823  24.814   7.918
 1039POPC   C4B16798  18.884  25.010   7.476
 1040POPC   NC316799  24.367   8.036   9.410
 1040POPC   PO416800  24.937   8.410   9.275
 1040POPC   GL116801  24.648   8.238   9.029
 1040POPC   GL216802  24.760   7.950   8.949
 1040POPC   C1A16803  24.296   8.312   8.784
 1040POPC   D2A16804  24.136   8.183   8.393
 1040POPC   C3A16805  24.313   8.461   8.093
 1040POPC   C4A16806  24.184   8.386   7.677
 1040POPC   C1B16807  24.646   8.001   8.528
 1040POPC   C2B16808  24.400   7.740   8.261
 1040POPC   C3B16809  24.283   7.958   7.928
 1040POPC   C4B16810  24.656   8.182   7.823
 1041POPC   NC316811  20.487   2.890   9.507
 1041POPC   PO416812  21.123   2.493   9.523
 1041POPC   GL116813  20.863   2.615   9.200
 1041POPC   GL216814  20.846   2.932   9.155
 1041POPC   C1A16815  20.561   2.510   8.889
 1041POPC   D2A16816  20.323   2.347   8.532
 1041POPC   C3A16817  20.503   2.449   8.137
 1041POPC   C4A16818  20.278   2.593   7.788
 1041POPC   C1B16819  20.910   3.025   8.790
 1041POPC   C2B16820  20.841   2.758   8.503
 1041POPC   C3B16821  20.706   2.934   8.138
 1041POPC   C4B16822  20.774   2.814   7.744
 1042POPC   NC316823   2.883  20.255   9.434
 1042POPC   PO416824   2.788  20.892   9.529
 1042POPC   GL116825   2.648  20.706   9.121
 1042POPC   GL216826   2.550  20.367   9.051
 1042POPC   C1A16827   2.588  20.721   8.667
 1042POPC   D2A16828   2.566  20.493   8.268
 1042POPC   C3A16829   2.644  20.736   7.863
 1042POPC   C4A16830   2.573  21.161   7.757
 1042POPC   C1B16831   2.789  20.228   8.690
 1042POPC   C2B16832   2.932  20.114   8.279
 1042POPC   C3B16833   2.797  20.255   7.863
 1042POPC   C4B16834   2.766  20.441   7.443
 1043POPC   NC316835  11.698  42.976   9.652
 1043POPC   PO416836  11.931  42.374   9.816
 1043POPC   GL116837  11.909  42.357   9.326
 1043POPC   GL216838  11.603  42.543   9.255
 1043POPC   C1A16839  12.051  42.241   8.848
 1043POPC   D2A16840  12.221  42.434   8.423
 1043POPC   C3A16841  12.162  42.230   7.985
 1043POPC   C4A16842  12.375  42.005   7.643
 1043POPC   C1B16843  11.556  42.378   8.827
 1043POPC   C2B16844  11.736  42.282   8.416
 1043POPC   C3B16845  11.795  42.567   8.099
 1043POPC   C4B16846  11.739  42.453   7.697
 1044POPC   NC316847  12.756  38.664   9.546
 1044POPC   PO416848  12.594  38.063   9.687
 1044POPC   GL116849  12.691  38.304   9.217
 1044POPC   GL216850  12.958  38.597   9.093
 1044POPC   C1A16851  12.777  38.188   8.800
 1044POPC   D2A16852  12.981  38.329   8.406
 1044POPC   C3A16853  12.755  38.456   8.053
 1044POPC   C4A16854  12.646  38.257   7.692
 1044POPC   C1B16855  12.671  38.680   8.779
 1044POPC   C2B16856  12.640  38.885   8.403
 1044POPC   C3B16857  12.438  38.888   8.053
 1044POPC   C4B16858  12.598  38.746   7.667
 1045POPC   NC316859  37.049  30.368   9.403
 1045POPC   PO416860  36.742  31.031   9.467
 1045POPC   GL116861  36.780  30.837   9.056
 1045POPC   GL216862  37.083  30.839   9.031
 1045POPC   C1A16863  36.802  30.533   8.659
 1045POPC   D2A16864  36.535  30.368   8.296
 1045POPC   C3A16865  36.696  30.428   7.854
 1045POPC   C4A16866  36.775  30.839   7.789
 1045POPC   C1B16867  37.249  30.768   8.658
 1045POPC   C2B16868  37.042  30.898   8.283
 1045POPC   C3B16869  37.248  30.863   7.893
 1045POPC   C4B16870  37.191  30.478   7.675
 1046POPC   NC316871  18.216   1.024   9.575
 1046POPC   PO416872  18.675   1.487   9.342
 1046POPC   GL116873  18.559   1.158   9.098
 1046POPC   GL216874  18.213   1.178   9.107
 1046POPC   C1A16875  18.465   1.289   8.667
 1046POPC   D2A16876  18.514   1.573   8.292
 1046POPC   C3A16877  18.492   1.318   7.918
 1046POPC   C4A16878  18.324   0.912   7.776
 1046POPC   C1B16879  18.028   1.479   8.873
 1046POPC   C2B16880  17.987   1.472   8.461
 1046POPC   C3B16881  18.047   1.608   8.070
 1046POPC   C4B16882  17.949   1.271   7.835
 1047POPC   NC316883  29.426  39.719   9.332
 1047POPC   PO416884  28.828  39.960   9.539
 1047POPC   GL116885  29.051  40.102   9.114
 1047POPC   GL216886  29.387  39.988   8.917
 1047POPC   C1A16887  28.943  39.915   8.678
 1047POPC   D2A16888  28.749  39.730   8.304
 1047POPC   C3A16889  28.871  39.935   7.941
 1047POPC   C4A16890  29.081  39.825   7.552
 1047POPC   C1B16891  29.256  40.324   8.685
 1047POPC   C2B16892  29.113  40.246   8.291
 1047POPC   C3B16893  29.359  40.080   7.977
 1047POPC   C4B16894  29.387  40.224   7.569
 1048POPC   NC316895  17.024  34.317   9.620
 1048POPC   PO416896  16.798  34.910   9.346
 1048POPC   GL116897  16.640  34.654   9.045
 1048POPC   GL216898  16.671  34.339   9.229
 1048POPC   C1A16899  16.656  34.632   8.602
 1048POPC   D2A16900  16.709  34.908   8.266
 1048POPC   C3A16901  16.845  34.692   7.915
 1048POPC   C4A16902  16.541  34.611   7.546
 1048POPC   C1B16903  16.466  34.187   8.844
 1048POPC   C2B16904  16.571  34.167   8.406
 1048POPC   C3B16905  16.487  34.318   7.999
 1048POPC   C4B16906  16.119  34.513   7.817
 1049POPC   NC316907   4.960  38.864   9.301
 1049POPC   PO416908   5.233  38.190   9.450
 1049POPC   GL116909   5.157  38.422   9.098
 1049POPC   GL216910   4.784  38.407   9.122
 1049POPC   C1A16911   5.325  38.458   8.678
 1049POPC   D2A16912   5.508  38.357   8.270
 1049POPC   C3A16913   5.235  38.406   7.919
 1049POPC   C4A16914   5.247  38.575   7.513
 1049POPC   C1B16915   4.792  38.518   8.679
 1049POPC   C2B16916   4.593  38.678   8.272
 1049POPC   C3B16917   4.732  38.593   7.854
 1049POPC   C4B16918   4.816  38.831   7.493
 1050POPC   NC316919  42.851  17.913   9.276
 1050POPC   PO416920  43.378  18.346   9.553
 1050POPC   GL116921  43.200  18.256   9.145
 1050POPC   GL216922  42.866  18.394   9.129
 1050POPC   C1A16923  43.191  18.039   8.726
 1050POPC   D2A16924  43.310  18.188   8.314
 1050POPC   C3A16925  43.137  17.957   7.960
 1050POPC   C4A16926  42.731  17.924   7.775
 1050POPC   C1B16927  43.020  18.510   8.714
 1050POPC   C2B16928  42.882  18.451   8.272
 1050POPC   C3B16929  43.093  18.468   7.887
 1050POPC   C4B16930  43.008  18.757   7.559
 1051POPC   NC316931  31.798  11.423   9.270
 1051POPC   PO416932  31.399  11.054   9.552
 1051POPC   GL116933  31.304  11.266   9.143
 1051POPC   GL216934  31.344  11.634   9.090
 1051POPC   C1A16935  31.443  11.321   8.707
 1051POPC   D2A16936  31.343  11.475   8.334
 1051POPC   C3A16937  31.437  11.164   8.058
 1051POPC   C4A16938  31.698  11.160   7.725
 1051POPC   C1B16939  31.368  11.886   8.722
 1051POPC   C2B16940  31.140  11.946   8.335
 1051POPC   C3B16941  31.174  11.748   7.933
 1051POPC   C4B16942  31.277  11.408   7.652
 1052POPC   NC316943  20.469   3.799   9.367
 1052POPC   PO416944  20.853   3.244   9.549
 1052POPC   GL116945  20.659   3.415   9.109
 1052POPC   GL216946  20.553   3.780   8.882
 1052POPC   C1A16947  20.517   3.336   8.694
 1052POPC   D2A16948  20.300   3.548   8.394
 1052POPC   C3A16949  20.409   3.362   8.055
 1052POPC   C4A16950  20.356   3.111   7.744
 1052POPC   C1B16951  20.120   3.889   8.738
 1052POPC   C2B16952  19.966   3.945   8.314
 1052POPC   C3B16953  20.179   3.802   7.951
 1052POPC   C4B16954  20.382   3.611   7.587
 1053POPC   NC316955   6.481  24.755   9.461
 1053POPC   PO416956   6.817  25.454   9.421
 1053POPC   GL116957   6.699  25.169   9.112
 1053POPC   GL216958   6.744  24.813   9.014
 1053POPC   C1A16959   6.774  25.227   8.691
 1053POPC   D2A16960   6.651  25.450   8.320
 1053POPC   C3A16961   6.849  25.243   7.963
 1053POPC   C4A16962   7.016  25.497   7.655
 1053POPC   C1B16963   6.334  24.982   8.789
 1053POPC   C2B16964   6.184  25.251   8.425
 1053POPC   C3B16965   6.312  25.255   7.950
 1053POPC   C4B16966   6.301  25.083   7.516
 1054POPC   NC316967  13.475   3.657   9.715
 1054POPC   PO416968  13.918   4.050   9.504
 1054POPC   GL116969  13.779   3.735   9.199
 1054POPC   GL216970  13.426   3.640   9.201
 1054POPC   C1A16971  13.732   3.519   8.788
 1054POPC   D2A16972  13.520   3.571   8.391
 1054POPC   C3A16973  13.728   3.466   7.986
 1054POPC   C4A16974  13.983   3.656   7.673
 1054POPC   C1B16975  13.210   3.496   8.831
 1054POPC   C2B16976  13.031   3.361   8.466
 1054POPC   C3B16977  13.201   3.323   8.074
 1054POPC   C4B16978  13.361   3.257   7.687
 1055POPC   NC316979  20.369   8.445   9.526
 1055POPC   PO416980  20.708   7.899   9.634
 1055POPC   GL116981  20.656   8.152   9.268
 1055POPC   GL216982  20.394   8.063   9.159
 1055POPC   C1A16983  20.577   8.416   8.857
 1055POPC   D2A16984  20.583   8.163   8.457
 1055POPC   C3A16985  20.648   8.385   8.080
 1055POPC   C4A16986  20.621   8.486   7.646
 1055POPC   C1B16987  20.289   7.755   8.895
 1055POPC   C2B16988  20.299   7.709   8.445
 1055POPC   C3B16989  20.416   7.868   8.048
 1055POPC   C4B16990  20.448   7.697   7.644
 1056POPC   NC316991  22.624  25.565   9.447
 1056POPC   PO416992  22.078  25.168   9.397
 1056POPC   GL116993  22.354  25.273   9.141
 1056POPC   GL216994  22.455  25.023   8.985
 1056POPC   C1A16995  22.244  25.507   8.821
 1056POPC   D2A16996  22.294  25.469   8.391
 1056POPC   C3A16997  21.903  25.557   8.198
 1056POPC   C4A16998  21.891  25.519   7.759
 1056POPC   C1B16999  22.095  25.020   8.715
 1056POPC   C2B17000  22.069  24.903   8.319
 1056POPC   C3B17001  22.117  25.127   7.981
 1056POPC   C4B17002  22.241  24.995   7.606
 1057POPC   NC317003  39.507  18.464   9.586
 1057POPC   PO417004  38.848  18.311   9.572
 1057POPC   GL117005  38.966  18.409   9.140
 1057POPC   GL217006  39.312  18.548   9.120
 1057POPC   C1A17007  38.928  18.193   8.736
 1057POPC   D2A17008  39.140  18.142   8.346
 1057POPC   C3A17009  39.071  17.841   8.069
 1057POPC   C4A17010  39.444  17.955   7.867
 1057POPC   C1B17011  39.350  18.493   8.664
 1057POPC   C2B17012  39.406  18.706   8.267
 1057POPC   C3B17013  39.419  18.694   7.827
 1057POPC   C4B17014  39.179  18.746   7.465
 1058POPC   NC317015  14.481  28.871   9.615
 1058POPC   PO417016  14.191  29.345   9.416
 1058POPC   GL117017  14.332  29.194   9.081
 1058POPC   GL217018  14.262  28.855   9.127
 1058POPC   C1A17019  14.585  29.035   8.752
 1058POPC   D2A17020  14.806  29.191   8.391
 1058POPC   C3A17021  14.683  28.981   8.027
 1058POPC   C4A17022  14.502  29.107   7.664
 1058POPC   C1B17023  14.069  28.947   8.734
 1058POPC   C2B17024  14.255  29.077   8.347
 1058POPC   C3B17025  14.121  28.940   7.966
 1058POPC   C4B17026  14.064  28.895   7.520
 1059POPC   NC317027   9.440  33.264   9.524
 1059POPC   PO417028  10.074  33.205   9.475
 1059POPC   GL117029   9.889  32.899   9.258
 1059POPC   GL217030   9.668  33.083   9.138
 1059POPC   C1A17031   9.921  32.808   8.812
 1059POPC   D2A17032   9.693  32.643   8.488
 1059POPC   C3A17033   9.884  32.790   8.141
 1059POPC   C4A17034   9.689  32.949   7.797
 1059POPC   C1B17035   9.785  33.355   8.841
 1059POPC   C2B17036   9.832  33.181   8.463
 1059POPC   C3B17037   9.903  33.309   8.090
 1059POPC   C4B17038   9.749  33.455   7.705
 1060POPC   NC317039   5.124  39.445   9.571
 1060POPC   PO417040   5.411  38.957   9.416
 1060POPC   GL117041   5.256  39.190   9.048
 1060POPC   GL217042   5.166  39.562   9.068
 1060POPC   C1A17043   5.166  38.975   8.656
 1060POPC   D2A17044   5.090  38.723   8.298
 1060POPC   C3A17045   5.149  38.913   7.910
 1060POPC   C4A17046   5.519  38.977   7.694
 1060POPC   C1B17047   5.136  39.497   8.631
 1060POPC   C2B17048   5.317  39.305   8.265
 1060POPC   C3B17049   5.259  39.403   7.843
 1060POPC   C4B17050   5.075  39.672   7.537
 1061POPC   NC317051   3.996  19.124   9.450
 1061POPC   PO417052   4.568  18.717   9.437
 1061POPC   GL117053   4.350  18.736   9.022
 1061POPC   GL217054   4.022  18.870   9.025
 1061POPC   C1A17055   4.174  18.696   8.584
 1061POPC   D2A17056   4.348  18.785   8.191
 1061POPC   C3A17057   4.403  19.175   8.001
 1061POPC   C4A17058   4.337  19.055   7.603
 1061POPC   C1B17059   4.128  19.199   8.707
 1061POPC   C2B17060   3.941  19.111   8.288
 1061POPC   C3B17061   3.910  19.268   7.865
 1061POPC   C4B17062   3.904  19.187   7.406
 1062POPC   NC317063  12.620  23.557   9.564
 1062POPC   PO417064  13.137  23.466   9.271
 1062POPC   GL117065  12.792  23.645   9.102
 1062POPC   GL217066  12.516  23.439   9.099
 1062POPC   C1A17067  12.836  23.817   8.731
 1062POPC   D2A17068  13.145  23.660   8.499
 1062POPC   C3A17069  13.160  23.774   8.104
 1062POPC   C4A17070  13.233  23.521   7.755
 1062POPC   C1B17071  12.698  23.309   8.731
 1062POPC   C2B17072  12.666  23.493   8.352
 1062POPC   C3B17073  12.684  23.631   7.966
 1062POPC   C4B17074  12.679  24.043   7.830
 1063POPC   NC317075  43.670  33.737   9.623
 1063POPC   PO417076  44.041  34.081   9.218
 1063POPC   GL117077  43.679  33.861   9.127
 1063POPC   GL217078  43.785  33.494   9.189
 1063POPC   C1A17079  43.554  33.977   8.727
 1063POPC   D2A17080  43.733  33.803   8.362
 1063POPC   C3A17081  43.752  33.986   7.980
 1063POPC   C4A17082  43.809  33.722   7.650
 1063POPC   C1B17083  44.002  33.574   8.789
 1063POPC   C2B17084  44.261  33.725   8.438
 1063POPC   C3B17085  44.178  33.644   8.008
 1063POPC   C4B17086  44.107  33.304   7.705
 1064POPC   NC317087  40.710  14.029   9.544
 1064POPC   PO417088  40.548  14.619   9.546
 1064POPC   GL117089  40.700  14.507   9.141
 1064POPC   GL217090  40.803  14.187   9.061
 1064POPC   C1A17091  40.805  14.606   8.747
 1064POPC   D2A17092  40.878  14.396   8.383
 1064POPC   C3A17093  40.777  14.715   8.108
 1064POPC   C4A17094  40.813  14.728   7.714
 1064POPC   C1B17095  40.516  14.161   8.775
 1064POPC   C2B17096  40.524  13.998   8.377
 1064POPC   C3B17097  40.607  14.160   7.973
 1064POPC   C4B17098  40.256  14.090   7.708
 1065POPC   NC317099  42.897  21.632   9.788
 1065POPC   PO417100  43.296  22.183   9.670
 1065POPC   GL117101  43.202  22.280   9.235
 1065POPC   GL217102  43.474  22.516   9.212
 1065POPC   C1A17103  42.875  22.257   8.889
 1065POPC   D2A17104  42.906  22.365   8.450
 1065POPC   C3A17105  42.817  22.063   8.101
 1065POPC   C4A17106  43.119  22.012   7.760
 1065POPC   C1B17107  43.356  22.461   8.765
 1065POPC   C2B17108  43.382  22.557   8.330
 1065POPC   C3B17109  43.503  22.359   7.961
 1065POPC   C4B17110  43.327  22.484   7.589
 1066POPC   NC317111  15.908  31.280   9.568
 1066POPC   PO417112  15.543  31.791   9.808
 1066POPC   GL117113  15.825  31.696   9.349
 1066POPC   GL217114  16.148  31.775   9.271
 1066POPC   C1A17115  15.840  31.405   8.931
 1066POPC   D2A17116  15.688  31.296   8.509
 1066POPC   C3A17117  15.840  31.191   8.109
 1066POPC   C4A17118  15.735  31.364   7.730
 1066POPC   C1B17119  16.226  31.696   8.814
 1066POPC   C2B17120  16.176  31.474   8.421
 1066POPC   C3B17121  16.046  31.658   8.017
 1066POPC   C4B17122  16.074  31.662   7.540
 1067POPC   NC317123  23.332  38.783   9.350
 1067POPC   PO417124  22.935  38.220   9.568
 1067POPC   GL117125  23.043  38.398   9.173
 1067POPC   GL217126  22.927  38.164   8.959
 1067POPC   C1A17127  23.216  38.534   8.763
 1067POPC   D2A17128  23.047  38.410   8.379
 1067POPC   C3A17129  23.167  38.569   7.998
 1067POPC   C4A17130  23.260  38.675   7.607
 1067POPC   C1B17131  22.694  38.527   8.755
 1067POPC   C2B17132  22.590  38.639   8.333
 1067POPC   C3B17133  22.686  38.407   7.981
 1067POPC   C4B17134  22.752  38.521   7.578
 1068POPC   NC317135  43.477   6.674   9.572
 1068POPC   PO417136  42.946   6.916   9.759
 1068POPC   GL117137  43.018   6.658   9.309
 1068POPC   GL217138  43.314   6.479   9.144
 1068POPC   C1A17139  42.975   6.662   8.808
 1068POPC   D2A17140  42.999   6.426   8.402
 1068POPC   C3A17141  43.056   6.675   8.007
 1068POPC   C4A17142  42.953   6.844   7.581
 1068POPC   C1B17143  43.457   6.490   8.744
 1068POPC   C2B17144  43.435   6.684   8.356
 1068POPC   C3B17145  43.555   6.840   7.957
 1068POPC   C4B17146  43.426   6.623   7.594
 1069POPC   NC317147   1.365  20.024   9.492
 1069POPC   PO417148   1.291  19.391   9.643
 1069POPC   GL117149   1.202  19.600   9.235
 1069POPC   GL217150   1.012  19.324   9.128
 1069POPC   C1A17151   1.329  19.907   8.863
 1069POPC   D2A17152   1.425  20.076   8.454
 1069POPC   C3A17153   1.449  19.798   8.108
 1069POPC   C4A17154   1.500  19.840   7.671
 1069POPC   C1B17155   1.038  19.491   8.752
 1069POPC   C2B17156   1.169  19.503   8.418
 1069POPC   C3B17157   0.907  19.470   8.112
 1069POPC   C4B17158   0.983  19.718   7.791
 1070POPC   NC317159   9.522  33.973   9.593
 1070POPC   PO417160  10.191  33.950   9.497
 1070POPC   GL117161   9.855  33.919   9.188
 1070POPC   GL217162   9.565  33.660   9.197
 1070POPC   C1A17163   9.800  33.982   8.763
 1070POPC   D2A17164   9.870  33.697   8.449
 1070POPC   C3A17165   9.696  33.782   8.076
 1070POPC   C4A17166   9.843  33.963   7.739
 1070POPC   C1B17167   9.373  33.699   8.797
 1070POPC   C2B17168   9.406  33.486   8.420
 1070POPC   C3B17169   9.334  33.397   7.991
 1070POPC   C4B17170   9.214  33.653   7.661
 1071POPC   NC317171  27.312   0.157   9.470
 1071POPC   PO417172  27.998   0.291   9.538
 1071POPC   GL117173  27.697   0.438   9.242
 1071POPC   GL217174  27.650   0.144   9.022
 1071POPC   C1A17175  27.663   0.626   8.842
 1071POPC   D2A17176  27.525   0.485   8.473
 1071POPC   C3A17177  27.644   0.550   8.050
 1071POPC   C4A17178  27.746   0.360   7.666
 1071POPC   C1B17179  27.312  44.984   8.724
 1071POPC   C2B17180  27.164   0.162   8.316
 1071POPC   C3B17181  27.294   0.191   7.889
 1071POPC   C4B17182  27.308   0.584   7.579
 1072POPC   NC317183  23.310   6.276   9.115
 1072POPC   PO417184  23.718   6.817   9.402
 1072POPC   GL117185  23.787   6.537   9.062
 1072POPC   GL217186  24.051   6.721   8.948
 1072POPC   C1A17187  23.623   6.617   8.641
 1072POPC   D2A17188  23.409   6.527   8.273
 1072POPC   C3A17189  23.594   6.600   7.855
 1072POPC   C4A17190  23.494   6.364   7.438
 1072POPC   C1B17191  23.876   7.050   8.645
 1072POPC   C2B17192  23.841   7.006   8.200
 1072POPC   C3B17193  24.104   6.779   7.929
 1072POPC   C4B17194  24.071   6.527   7.589
 1073POPC   NC317195  11.880  20.144   9.534
 1073POPC   PO417196  12.221  19.491   9.634
 1073POPC   GL117197  12.049  19.737   9.246
 1073POPC   GL217198  12.284  20.021   9.255
 1073POPC   C1A17199  11.796  19.955   8.880
 1073POPC   D2A17200  11.691  20.121   8.450
 1073POPC   C3A17201  11.772  19.911   8.062
 1073POPC   C4A17202  11.936  19.735   7.656
 1073POPC   C1B17203  12.299  19.991   8.840
 1073POPC   C2B17204  12.415  20.105   8.441
 1073POPC   C3B17205  12.268  19.960   8.069
 1073POPC   C4B17206  12.352  20.027   7.644
 1074POPC   NC317207  40.239  30.547   9.421
 1074POPC   PO417208  39.747  30.979   9.424
 1074POPC   GL117209  39.792  30.713   9.089
 1074POPC   GL217210  40.118  30.865   9.019
 1074POPC   C1A17211  39.801  30.751   8.640
 1074POPC   D2A17212  40.003  30.991   8.326
 1074POPC   C3A17213  39.830  30.763   7.996
 1074POPC   C4A17214  39.931  30.624   7.578
 1074POPC   C1B17215  40.442  30.737   8.719
 1074POPC   C2B17216  40.591  30.667   8.313
 1074POPC   C3B17217  40.355  30.744   7.944
 1074POPC   C4B17218  40.301  30.996   7.565
 1075POPC   NC317219  21.676  29.434   9.467
 1075POPC   PO417220  21.151  29.041   9.459
 1075POPC   GL117221  21.366  29.225   9.104
 1075POPC   GL217222  21.721  29.081   9.106
 1075POPC   C1A17223  21.398  29.283   8.655
 1075POPC   D2A17224  21.302  29.234   8.201
 1075POPC   C3A17225  21.428  28.904   7.946
 1075POPC   C4A17226  21.317  28.869   7.530
 1075POPC   C1B17227  21.862  29.422   8.814
 1075POPC   C2B17228  21.783  29.458   8.347
 1075POPC   C3B17229  21.741  29.511   7.898
 1075POPC   C4B17230  21.797  29.530   7.401
 1076POPC   NC317231  32.795  12.362   9.398
 1076POPC   PO417232  33.175  12.735   9.834
 1076POPC   GL117233  33.153  12.829   9.364
 1076POPC   GL217234  33.295  12.540   9.238
 1076POPC   C1A17235  33.144  13.069   8.936
 1076POPC   D2A17236  33.138  12.993   8.505
 1076POPC   C3A17237  33.137  13.133   8.074
 1076POPC   C4A17238  32.979  13.039   7.634
 1076POPC   C1B17239  33.121  12.576   8.826
 1076POPC   C2B17240  32.982  12.501   8.403
 1076POPC   C3B17241  32.994  12.628   7.995
 1076POPC   C4B17242  33.157  12.428   7.647
 1077POPC   NC317243  20.488  20.854   9.533
 1077POPC   PO417244  20.437  20.234   9.284
 1077POPC   GL117245  20.709  20.284   9.018
 1077POPC   GL217246  20.749  20.613   9.090
 1077POPC   C1A17247  20.679  20.369   8.605
 1077POPC   D2A17248  20.683  20.550   8.229
 1077POPC   C3A17249  20.461  20.434   7.874
 1077POPC   C4A17250  20.714  20.669   7.615
 1077POPC   C1B17251  20.475  20.795   8.804
 1077POPC   C2B17252  20.274  20.758   8.404
 1077POPC   C3B17253  20.401  20.928   7.997
 1077POPC   C4B17254  20.343  21.025   7.568
 1078POPC   NC317255  29.363  20.856   9.530
 1078POPC   PO417256  28.841  20.358   9.523
 1078POPC   GL117257  28.937  20.525   9.143
 1078POPC   GL217258  29.255  20.521   9.180
 1078POPC   C1A17259  29.057  20.464   8.694
 1078POPC   D2A17260  28.925  20.677   8.332
 1078POPC   C3A17261  29.183  20.741   7.966
 1078POPC   C4A17262  29.022  20.660   7.587
 1078POPC   C1B17263  29.471  20.707   8.840
 1078POPC   C2B17264  29.439  20.730   8.420
 1078POPC   C3B17265  29.679  20.571   8.086
 1078POPC   C4B17266  29.657  20.845   7.738
 1079POPC   NC317267  40.736  19.416   9.346
 1079POPC   PO417268  40.837  20.124   9.545
 1079POPC   GL117269  40.998  20.072   9.171
 1079POPC   GL217270  40.991  19.773   9.105
 1079POPC   C1A17271  40.759  20.072   8.784
 1079POPC   D2A17272  40.597  19.875   8.424
 1079POPC   C3A17273  40.776  20.022   8.039
 1079POPC   C4A17274  40.718  19.982   7.618
 1079POPC   C1B17275  40.902  19.569   8.722
 1079POPC   C2B17276  41.009  19.596   8.355
 1079POPC   C3B17277  40.727  19.499   8.061
 1079POPC   C4B17278  40.784  19.482   7.647
 1080POPC   NC317279  16.207  36.441   9.407
 1080POPC   PO417280  15.808  35.836   9.392
 1080POPC   GL117281  16.026  35.919   9.058
 1080POPC   GL217282  15.932  36.276   9.018
 1080POPC   C1A17283  15.945  35.908   8.642
 1080POPC   D2A17284  16.057  36.167   8.324
 1080POPC   C3A17285  15.943  35.933   7.988
 1080POPC   C4A17286  16.045  35.974   7.602
 1080POPC   C1B17287  15.892  36.568   8.672
 1080POPC   C2B17288  15.730  36.550   8.265
 1080POPC   C3B17289  16.004  36.446   7.894
 1080POPC   C4B17290  16.244  36.456   7.508
 1081POPC   NC317291   0.374  10.804   9.459
 1081POPC   PO417292   0.178  11.466   9.442
 1081POPC   GL117293   0.303  11.195   9.128
 1081POPC   GL217294   0.021  10.966   9.083
 1081POPC   C1A17295   0.587  11.191   8.764
 1081POPC   D2A17296   0.594  11.027   8.342
 1081POPC   C3A17297   0.545  11.339   7.992
 1081POPC   C4A17298   0.493  11.230   7.531
 1081POPC   C1B17299   0.110  11.047   8.678
 1081POPC   C2B17300   0.171  11.324   8.394
 1081POPC   C3B17301   0.116  11.093   8.034
 1081POPC   C4B17302   0.010  11.253   7.667
 1082POPC   NC317303  41.444  43.528   9.912
 1082POPC   PO417304  41.977  43.790   9.556
 1082POPC   GL117305  41.723  43.792   9.208
 1082POPC   GL217306  41.440  43.640   9.375
 1082POPC   C1A17307  41.692  44.040   8.823
 1082POPC   D2A17308  41.874  44.063   8.433
 1082POPC   C3A17309  41.728  44.132   8.033
 1082POPC   C4A17310  41.762  43.956   7.630
 1082POPC   C1B17311  41.324  43.656   8.915
 1082POPC   C2B17312  41.437  43.765   8.480
 1082POPC   C3B17313  41.412  43.706   8.040
 1082POPC   C4B17314  41.293  43.769   7.601
 1083POPC   NC317315  42.881   4.952   9.495
 1083POPC   PO417316  43.534   5.136   9.492
 1083POPC   GL117317  43.245   4.981   9.112
 1083POPC   GL217318  42.927   4.737   9.054
 1083POPC   C1A17319  43.268   4.874   8.666
 1083POPC   D2A17320  43.202   4.869   8.209
 1083POPC   C3A17321  43.211   5.279   7.980
 1083POPC   C4A17322  43.333   5.274   7.559
 1083POPC   C1B17323  42.814   5.126   8.835
 1083POPC   C2B17324  42.807   5.195   8.396
 1083POPC   C3B17325  42.770   5.033   7.972
 1083POPC   C4B17326  42.995   4.854   7.609
 1084POPC   NC317327  17.631  28.923   9.450
 1084POPC   PO417328  16.995  28.996   9.408
 1084POPC   GL117329  17.263  29.046   9.091
 1084POPC   GL217330  17.511  29.301   9.143
 1084POPC   C1A17331  17.263  29.195   8.691
 1084POPC   D2A17332  17.403  29.456   8.384
 1084POPC   C3A17333  17.317  29.216   8.050
 1084POPC   C4A17334  17.320  29.365   7.666
 1084POPC   C1B17335  17.766  29.367   8.779
 1084POPC   C2B17336  17.886  29.237   8.374
 1084POPC   C3B17337  17.794  29.386   7.973
 1084POPC   C4B17338  17.672  29.019   7.738
 1085POPC   NC317339  32.109  41.745   9.386
 1085POPC   PO417340  31.806  41.141   9.469
 1085POPC   GL117341  31.974  41.277   9.072
 1085POPC   GL217342  32.306  41.440   9.031
 1085POPC   C1A17343  31.966  41.514   8.668
 1085POPC   D2A17344  32.088  41.784   8.297
 1085POPC   C3A17345  32.026  41.533   7.886
 1085POPC   C4A17346  31.947  41.759   7.493
 1085POPC   C1B17347  32.412  41.221   8.684
 1085POPC   C2B17348  32.341  41.359   8.277
 1085POPC   C3B17349  32.542  41.397   7.909
 1085POPC   C4B17350  32.793  41.086   7.786
 1086POPC   NC317351  29.840  27.253   9.402
 1086POPC   PO417352  29.961  27.922   9.392
 1086POPC   GL117353  29.757  27.920   9.005
 1086POPC   GL217354  29.708  27.580   9.040
 1086POPC   C1A17355  29.825  27.740   8.578
 1086POPC   D2A17356  29.733  27.777   8.142
 1086POPC   C3A17357  30.032  27.482   7.914
 1086POPC   C4A17358  30.204  27.499   7.466
 1086POPC   C1B17359  29.529  27.284   8.770
 1086POPC   C2B17360  29.669  27.290   8.337
 1086POPC   C3B17361  29.497  27.376   7.948
 1086POPC   C4B17362  29.696  27.410   7.547
 1087POPC   NC317363  30.655  34.669   9.692
 1087POPC   PO417364  31.231  34.692   9.444
 1087POPC   GL117365  30.860  34.574   9.229
 1087POPC   GL217366  30.566  34.829   9.207
 1087POPC   C1A17367  30.757  34.559   8.810
 1087POPC   D2A17368  30.924  34.407   8.458
 1087POPC   C3A17369  30.633  34.361   8.175
 1087POPC   C4A17370  30.647  34.486   7.781
 1087POPC   C1B17371  30.475  34.995   8.782
 1087POPC   C2B17372  30.481  34.843   8.356
 1087POPC   C3B17373  30.499  34.982   7.940
 1087POPC   C4B17374  30.354  34.872   7.523
 1088POPC   NC317375  11.828  11.400   9.477
 1088POPC   PO417376  12.438  11.742   9.350
 1088POPC   GL117377  12.245  11.437   9.105
 1088POPC   GL217378  12.314  11.131   9.234
 1088POPC   C1A17379  12.101  11.267   8.697
 1088POPC   D2A17380  11.807  11.470   8.415
 1088POPC   C3A17381  11.918  11.622   8.009
 1088POPC   C4A17382  12.210  11.446   7.754
 1088POPC   C1B17383  12.301  10.815   8.888
 1088POPC   C2B17384  12.310  10.865   8.442
 1088POPC   C3B17385  12.030  11.081   8.134
 1088POPC   C4B17386  12.128  10.941   7.727
 1089POPC   NC317387   5.065  26.456   9.793
 1089POPC   PO417388   5.124  27.040   9.651
 1089POPC   GL117389   5.069  26.854   9.246
 1089POPC   GL217390   4.726  26.746   9.294
 1089POPC   C1A17391   5.198  26.976   8.814
 1089POPC   D2A17392   5.158  27.155   8.406
 1089POPC   C3A17393   5.221  26.895   8.086
 1089POPC   C4A17394   5.471  26.613   7.905
 1089POPC   C1B17395   4.689  26.864   8.858
 1089POPC   C2B17396   4.817  26.747   8.444
 1089POPC   C3B17397   4.696  26.971   8.085
 1089POPC   C4B17398   4.904  27.062   7.716
 1090POPC   NC317399   9.446   7.249   9.380
 1090POPC   PO417400  10.026   7.528   9.438
 1090POPC   GL117401   9.887   7.480   9.055
 1090POPC   GL217402   9.598   7.618   9.076
 1090POPC   C1A17403   9.709   7.303   8.687
 1090POPC   D2A17404   9.940   7.318   8.324
 1090POPC   C3A17405   9.782   7.333   7.934
 1090POPC   C4A17406  10.124   7.480   7.666
 1090POPC   C1B17407   9.425   7.771   8.741
 1090POPC   C2B17408   9.463   7.618   8.356
 1090POPC   C3B17409   9.332   7.751   7.996
 1090POPC   C4B17410   9.589   7.705   7.666
 1091POPC   NC317411  17.285  20.299   9.482
 1091POPC   PO417412  16.881  20.850   9.559
 1091POPC   GL117413  16.752  20.702   9.175
 1091POPC   GL217414  17.040  20.533   9.097
 1091POPC   C1A17415  16.643  20.765   8.750
 1091POPC   D2A17416  16.818  20.602   8.381
 1091POPC   C3A17417  16.656  20.680   7.976
 1091POPC   C4A17418  16.675  20.789   7.545
 1091POPC   C1B17419  17.194  20.732   8.740
 1091POPC   C2B17420  17.310  20.476   8.380
 1091POPC   C3B17421  17.121  20.452   7.969
 1091POPC   C4B17422  17.163  20.711   7.637
 1092POPC   NC317423  18.442  22.134   9.634
 1092POPC   PO417424  18.995  22.177   9.414
 1092POPC   GL117425  18.670  22.280   9.164
 1092POPC   GL217426  18.488  21.975   9.104
 1092POPC   C1A17427  18.682  22.492   8.763
 1092POPC   D2A17428  18.963  22.403   8.364
 1092POPC   C3A17429  18.842  22.596   7.942
 1092POPC   C4A17430  19.044  22.532   7.502
 1092POPC   C1B17431  18.732  21.978   8.721
 1092POPC   C2B17432  18.744  21.903   8.282
 1092POPC   C3B17433  18.838  22.063   7.925
 1092POPC   C4B17434  19.222  22.251   7.902
 1093POPC   NC317435   7.497  37.334   9.465
 1093POPC   PO417436   6.890  37.657   9.544
 1093POPC   GL117437   7.159  37.685   9.189
 1093POPC   GL217438   7.252  37.422   9.039
 1093POPC   C1A17439   7.238  37.845   8.741
 1093POPC   D2A17440   7.291  38.014   8.307
 1093POPC   C3A17441   7.252  37.730   7.983
 1093POPC   C4A17442   7.413  37.724   7.579
 1093POPC   C1B17443   7.590  37.451   8.754
 1093POPC   C2B17444   7.688  37.592   8.345
 1093POPC   C3B17445   7.663  37.395   7.956
 1093POPC   C4B17446   7.305  37.256   7.721
 1094POPC   NC317447  25.126   7.986   9.315
 1094POPC   PO417448  25.462   8.479   9.621
 1094POPC   GL117449  25.511   8.349   9.140
 1094POPC   GL217450  25.580   7.979   9.045
 1094POPC   C1A17451  25.498   8.279   8.661
 1094POPC   D2A17452  25.190   8.077   8.408
 1094POPC   C3A17453  25.126   8.261   8.010
 1094POPC   C4A17454  25.380   8.595   7.811
 1094POPC   C1B17455  25.572   7.756   8.638
 1094POPC   C2B17456  25.721   7.941   8.236
 1094POPC   C3B17457  25.531   8.022   7.821
 1094POPC   C4B17458  25.585   8.284   7.435
 1095POPC   NC317459  43.227   9.935   9.899
 1095POPC   PO417460  42.923   9.532   9.586
 1095POPC   GL117461  42.991   9.819   9.242
 1095POPC   GL217462  42.617   9.828   9.209
 1095POPC   C1A17463  43.218   9.802   8.823
 1095POPC   D2A17464  43.082   9.826   8.396
 1095POPC   C3A17465  43.234   9.958   7.983
 1095POPC   C4A17466  43.180   9.730   7.590
 1095POPC   C1B17467  42.698   9.903   8.805
 1095POPC   C2B17468  42.592   9.744   8.429
 1095POPC   C3B17469  42.710   9.895   8.039
 1095POPC   C4B17470  42.653   9.727   7.659
 1096POPC   NC317471  40.404  15.719   9.457
 1096POPC   PO417472  40.031  16.274   9.523
 1096POPC   GL117473  40.126  16.042   9.141
 1096POPC   GL217474  39.967  15.726   9.088
 1096POPC   C1A17475  40.195  16.020   8.698
 1096POPC   D2A17476  40.298  16.038   8.270
 1096POPC   C3A17477  40.273  15.689   7.988
 1096POPC   C4A17478  40.102  15.707   7.596
 1096POPC   C1B17479  39.712  15.834   8.728
 1096POPC   C2B17480  39.795  15.829   8.280
 1096POPC   C3B17481  39.906  16.051   7.915
 1096POPC   C4B17482  39.762  16.080   7.492
 1097POPC   NC317483  30.043   8.571   9.377
 1097POPC   PO417484  29.960   7.922   9.629
 1097POPC   GL117485  29.887   8.091   9.200
 1097POPC   GL217486  30.132   7.884   9.010
 1097POPC   C1A17487  29.971   8.293   8.762
 1097POPC   D2A17488  30.106   8.578   8.416
 1097POPC   C3A17489  29.989   8.422   8.028
 1097POPC   C4A17490  30.212   8.404   7.647
 1097POPC   C1B17491  29.676   7.811   8.839
 1097POPC   C2B17492  29.451   7.880   8.423
 1097POPC   C3B17493  29.607   7.999   8.018
 1097POPC   C4B17494  29.812   7.889   7.630
 1098POPC   NC317495  41.414  16.324   9.459
 1098POPC   PO417496  41.752  15.744   9.511
 1098POPC   GL117497  41.773  15.897   9.135
 1098POPC   GL217498  41.485  16.049   9.057
 1098POPC   C1A17499  41.706  15.709   8.752
 1098POPC   D2A17500  41.719  15.603   8.370
 1098POPC   C3A17501  41.628  15.904   8.127
 1098POPC   C4A17502  41.677  15.868   7.731
 1098POPC   C1B17503  41.338  16.344   8.744
 1098POPC   C2B17504  41.189  16.229   8.312
 1098POPC   C3B17505  41.237  16.114   7.848
 1098POPC   C4B17506  41.352  16.321   7.430
 1099POPC   NC317507   4.347  32.458   9.806
 1099POPC   PO417508   4.136  32.964   9.383
 1099POPC   GL117509   4.282  33.109   9.032
 1099POPC   GL217510   4.210  32.768   8.880
 1099POPC   C1A17511   4.161  33.186   8.604
 1099POPC   D2A17512   4.185  32.894   8.236
 1099POPC   C3A17513   4.339  33.137   7.892
 1099POPC   C4A17514   4.182  33.476   7.750
 1099POPC   C1B17515   4.395  32.531   8.557
 1099POPC   C2B17516   4.673  32.502   8.224
 1099POPC   C3B17517   4.630  32.702   7.862
 1099POPC   C4B17518   4.195  32.692   7.753
 1100POPC   NC317519   5.654   6.269   9.488
 1100POPC   PO417520   6.126   6.696   9.739
 1100POPC   GL117521   6.105   6.721   9.230
 1100POPC   GL217522   5.769   6.617   9.127
 1100POPC   C1A17523   6.074   6.797   8.739
 1100POPC   D2A17524   6.245   6.850   8.301
 1100POPC   C3A17525   6.145   6.631   7.931
 1100POPC   C4A17526   6.248   6.985   7.691
 1100POPC   C1B17527   5.861   6.346   8.755
 1100POPC   C2B17528   5.865   6.490   8.355
 1100POPC   C3B17529   5.706   6.334   7.990
 1100POPC   C4B17530   5.918   6.214   7.658
 1101POPC   NC317531  18.016   8.049   9.390
 1101POPC   PO417532  18.635   8.061   9.544
 1101POPC   GL117533  18.473   8.160   9.135
 1101POPC   GL217534  18.217   8.453   9.118
 1101POPC   C1A17535  18.275   8.103   8.740
 1101POPC   D2A17536  18.355   8.027   8.330
 1101POPC   C3A17537  18.552   8.381   8.143
 1101POPC   C4A17538  18.510   8.455   7.715
 1101POPC   C1B17539  17.930   8.494   8.750
 1101POPC   C2B17540  18.053   8.435   8.349
 1101POPC   C3B17541  18.070   8.303   7.953
 1101POPC   C4B17542  17.716   8.474   7.850
 1102POPC   NC317543   5.991  35.368   9.626
 1102POPC   PO417544   5.447  34.933   9.511
 1102POPC   GL117545   5.781  35.097   9.233
 1102POPC   GL217546   5.811  35.439   9.172
 1102POPC   C1A17547   5.928  35.096   8.790
 1102POPC   D2A17548   5.784  35.023   8.376
 1102POPC   C3A17549   6.000  35.067   7.983
 1102POPC   C4A17550   5.644  35.065   7.704
 1102POPC   C1B17551   6.128  35.538   8.880
 1102POPC   C2B17552   5.930  35.520   8.480
 1102POPC   C3B17553   5.762  35.517   8.069
 1102POPC   C4B17554   5.933  35.466   7.655
 1103POPC   NC317555  19.587  10.039   9.373
 1103POPC   PO417556  20.022   9.492   9.500
 1103POPC   GL117557  19.977   9.710   9.144
 1103POPC   GL217558  19.654   9.624   9.105
 1103POPC   C1A17559  19.939   9.848   8.727
 1103POPC   D2A17560  20.078  10.027   8.342
 1103POPC   C3A17561  19.908   9.853   7.955
 1103POPC   C4A17562  20.056  10.021   7.573
 1103POPC   C1B17563  19.490   9.584   8.696
 1103POPC   C2B17564  19.681   9.531   8.305
 1103POPC   C3B17565  19.614   9.411   7.874
 1103POPC   C4B17566  19.633   9.704   7.532
 1104POPC   NC317567  25.642  12.829   9.320
 1104POPC   PO417568  26.074  12.618   9.769
 1104POPC   GL117569  26.157  12.851   9.325
 1104POPC   GL217570  26.452  12.908   9.147
 1104POPC   C1A17571  26.051  12.958   8.849
 1104POPC   D2A17572  25.942  12.682   8.510
 1104POPC   C3A17573  25.884  12.829   8.099
 1104POPC   C4A17574  25.747  12.706   7.719
 1104POPC   C1B17575  26.513  12.834   8.686
 1104POPC   C2B17576  26.381  12.856   8.266
 1104POPC   C3B17577  26.306  12.898   7.810
 1104POPC   C4B17578  26.412  13.144   7.423
 1105POPC   NC317579  14.328   3.843   9.452
 1105POPC   PO417580  14.415   3.183   9.510
 1105POPC   GL117581  14.492   3.428   9.152
 1105POPC   GL217582  14.242   3.657   8.991
 1105POPC   C1A17583  14.705   3.564   8.773
 1105POPC   D2A17584  14.689   3.779   8.385
 1105POPC   C3A17585  14.379   3.640   8.080
 1105POPC   C4A17586  14.491   3.632   7.666
 1105POPC   C1B17587  13.990   3.945   8.711
 1105POPC   C2B17588  13.960   3.844   8.282
 1105POPC   C3B17589  14.071   4.079   7.925
 1105POPC   C4B17590  14.228   4.072   7.501
 1106POPC   NC317591  32.357  13.836   9.590
 1106POPC   PO417592  32.517  13.224   9.451
 1106POPC   GL117593  32.309  13.507   9.199
 1106POPC   GL217594  32.014  13.670   9.160
 1106POPC   C1A17595  32.441  13.807   8.887
 1106POPC   D2A17596  32.603  13.849   8.480
 1106POPC   C3A17597  32.367  13.761   8.122
 1106POPC   C4A17598  32.199  13.521   7.784
 1106POPC   C1B17599  32.100  13.360   8.774
 1106POPC   C2B17600  32.080  13.372   8.308
 1106POPC   C3B17601  31.894  13.131   7.966
 1106POPC   C4B17602  32.026  13.092   7.547
 1107POPC   NC317603  17.592  37.203   9.582
 1107POPC   PO417604  17.250  36.598   9.704
 1107POPC   GL117605  17.474  36.669   9.299
 1107POPC   GL217606  17.333  36.953   9.226
 1107POPC   C1A17607  17.652  36.851   8.858
 1107POPC   D2A17608  17.809  36.844   8.400
 1107POPC   C3A17609  17.687  37.081   8.028
 1107POPC   C4A17610  17.502  36.893   7.630
 1107POPC   C1B17611  17.152  36.887   8.812
 1107POPC   C2B17612  17.331  37.008   8.442
 1107POPC   C3B17613  17.252  36.819   8.072
 1107POPC   C4B17614  16.989  36.852   7.756
 1108POPC   NC317615  12.015  34.239   9.422
 1108POPC   PO417616  12.268  33.622   9.391
 1108POPC   GL117617  12.286  33.929   9.078
 1108POPC   GL217618  12.479  34.252   9.155
 1108POPC   C1A17619  12.019  33.853   8.717
 1108POPC   D2A17620  11.995  33.584   8.376
 1108POPC   C3A17621  12.026  33.778   8.021
 1108POPC   C4A17622  12.111  33.538   7.718
 1108POPC   C1B17623  12.256  34.327   8.748
 1108POPC   C2B17624  12.217  34.444   8.329
 1108POPC   C3B17625  12.382  34.159   8.020
 1108POPC   C4B17626  12.263  34.110   7.601
 1109POPC   NC317627   1.906   1.409   9.438
 1109POPC   PO417628   2.371   0.887   9.557
 1109POPC   GL117629   2.100   1.001   9.151
 1109POPC   GL217630   2.125   1.357   8.988
 1109POPC   C1A17631   1.759   1.084   8.791
 1109POPC   D2A17632   1.866   1.379   8.438
 1109POPC   C3A17633   1.748   1.222   8.044
 1109POPC   C4A17634   1.983   0.966   7.769
 1109POPC   C1B17635   2.415   1.346   8.658
 1109POPC   C2B17636   2.400   1.590   8.332
 1109POPC   C3B17637   2.196   1.477   7.974
 1109POPC   C4B17638   2.362   1.631   7.635
 1110POPC   NC317639  39.440  23.187   9.404
 1110POPC   PO417640  39.017  22.630   9.434
 1110POPC   GL117641  39.331  22.751   9.120
 1110POPC   GL217642  39.120  23.021   9.058
 1110POPC   C1A17643  39.325  22.775   8.656
 1110POPC   D2A17644  38.936  22.790   8.395
 1110POPC   C3A17645  38.987  22.704   7.944
 1110POPC   C4A17646  38.999  23.024   7.658
 1110POPC   C1B17647  39.375  23.262   8.767
 1110POPC   C2B17648  39.267  23.190   8.383
 1110POPC   C3B17649  39.193  23.298   8.035
 1110POPC   C4B17650  39.494  23.219   7.747
 1111POPC   NC317651  31.990  23.514   9.548
 1111POPC   PO417652  32.665  23.314   9.324
 1111POPC   GL117653  32.473  23.492   8.994
 1111POPC   GL217654  32.165  23.597   9.087
 1111POPC   C1A17655  32.353  23.556   8.591
 1111POPC   D2A17656  32.254  23.816   8.288
 1111POPC   C3A17657  32.289  23.607   7.910
 1111POPC   C4A17658  32.230  23.913   7.655
 1111POPC   C1B17659  31.926  23.800   8.772
 1111POPC   C2B17660  31.680  23.800   8.438
 1111POPC   C3B17661  31.823  23.888   8.048
 1111POPC   C4B17662  31.804  23.660   7.719
 1112POPC   NC317663   4.028   4.960   9.529
 1112POPC   PO417664   4.680   5.267   9.513
 1112POPC   GL117665   4.393   5.132   9.197
 1112POPC   GL217666   4.216   5.373   9.037
 1112POPC   C1A17667   4.100   4.919   8.891
 1112POPC   D2A17668   4.005   5.052   8.495
 1112POPC   C3A17669   4.293   4.918   8.176
 1112POPC   C4A17670   4.160   4.789   7.775
 1112POPC   C1B17671   4.466   5.235   8.683
 1112POPC   C2B17672   4.764   5.385   8.363
 1112POPC   C3B17673   4.830   5.260   7.935
 1112POPC   C4B17674   4.665   4.843   7.783
 1113POPC   NC317675   5.770  31.497   9.392
 1113POPC   PO417676   6.237  31.029   9.293
 1113POPC   GL117677   6.058  31.312   8.989
 1113POPC   GL217678   6.029  31.701   9.003
 1113POPC   C1A17679   5.900  31.384   8.590
 1113POPC   D2A17680   5.574  31.474   8.329
 1113POPC   C3A17681   5.549  31.275   7.926
 1113POPC   C4A17682   5.565  31.638   7.661
 1113POPC   C1B17683   6.304  31.718   8.664
 1113POPC   C2B17684   6.393  31.343   8.444
 1113POPC   C3B17685   6.104  31.275   8.109
 1113POPC   C4B17686   6.092  31.477   7.712
 1114POPC   NC317687  18.891   1.131   9.524
 1114POPC   PO417688  19.474   0.939   9.315
 1114POPC   GL117689  19.169   1.036   9.030
 1114POPC   GL217690  19.046   1.335   9.036
 1114POPC   C1A17691  18.899   0.960   8.700
 1114POPC   D2A17692  18.833   1.183   8.328
 1114POPC   C3A17693  19.024   1.206   7.964
 1114POPC   C4A17694  18.811   1.004   7.638
 1114POPC   C1B17695  18.917   1.558   8.659
 1114POPC   C2B17696  19.172   1.640   8.279
 1114POPC   C3B17697  19.361   1.564   7.842
 1114POPC   C4B17698  19.146   1.327   7.471
 1115POPC   NC317699  24.671  11.614   9.407
 1115POPC   PO417700  24.578  11.069   9.715
 1115POPC   GL117701  24.408  11.192   9.265
 1115POPC   GL217702  24.204  11.475   9.171
 1115POPC   C1A17703  24.237  11.027   8.878
 1115POPC   D2A17704  24.183  11.197   8.456
 1115POPC   C3A17705  24.335  11.044   8.072
 1115POPC   C4A17706  24.388  11.259   7.700
 1115POPC   C1B17707  24.486  11.473   8.793
 1115POPC   C2B17708  24.710  11.462   8.397
 1115POPC   C3B17709  24.641  11.589   7.959
 1115POPC   C4B17710  24.787  11.637   7.506
 1116POPC   NC317711  17.979   8.969   9.392
 1116POPC   PO417712  18.443   9.380   9.465
 1116POPC   GL117713  18.301   9.308   9.057
 1116POPC   GL217714  17.980   9.400   9.076
 1116POPC   C1A17715  18.179   8.976   8.760
 1116POPC   D2A17716  18.399   8.789   8.422
 1116POPC   C3A17717  18.245   8.802   8.000
 1116POPC   C4A17718  18.412   8.964   7.619
 1116POPC   C1B17719  17.955   9.432   8.670
 1116POPC   C2B17720  18.116   9.223   8.303
 1116POPC   C3B17721  18.233   9.353   7.912
 1116POPC   C4B17722  18.228   9.409   7.457
 1117POPC   NC317723  30.632  12.366   9.466
 1117POPC   PO417724  31.113  11.967   9.402
 1117POPC   GL117725  30.940  12.035   9.015
 1117POPC   GL217726  30.583  12.100   9.035
 1117POPC   C1A17727  31.031  12.321   8.688
 1117POPC   D2A17728  31.057  12.572   8.321
 1117POPC   C3A17729  31.005  12.353   8.005
 1117POPC   C4A17730  30.928  12.155   7.680
 1117POPC   C1B17731  30.467  12.303   8.681
 1117POPC   C2B17732  30.665  12.155   8.347
 1117POPC   C3B17733  30.502  12.154   7.957
 1117POPC   C4B17734  30.327  12.468   7.733
 1118POPC   NC317735   7.284   4.356   9.541
 1118POPC   PO417736   7.776   4.434   9.223
 1118POPC   GL117737   7.375   4.436   9.055
 1118POPC   GL217738   7.334   4.097   9.071
 1118POPC   C1A17739   7.273   4.348   8.651
 1118POPC   D2A17740   7.462   4.534   8.332
 1118POPC   C3A17741   7.329   4.340   8.013
 1118POPC   C4A17742   7.284   4.396   7.615
 1118POPC   C1B17743   7.677   4.048   8.734
 1118POPC   C2B17744   7.828   3.902   8.352
 1118POPC   C3B17745   7.748   4.086   7.954
 1118POPC   C4B17746   7.513   3.953   7.574
 1119POPC   NC317747  21.920  26.338   9.663
 1119POPC   PO417748  22.346  25.914   9.573
 1119POPC   GL117749  22.233  26.060   9.167
 1119POPC   GL217750  22.122  26.402   9.209
 1119POPC   C1A17751  22.339  25.990   8.720
 1119POPC   D2A17752  22.492  26.031   8.297
 1119POPC   C3A17753  22.274  25.833   7.986
 1119POPC   C4A17754  21.971  26.000   7.750
 1119POPC   C1B17755  22.279  26.480   8.831
 1119POPC   C2B17756  22.084  26.392   8.436
 1119POPC   C3B17757  22.276  26.415   8.048
 1119POPC   C4B17758  22.336  26.323   7.656
 1120POPC   NC317759  18.943  40.488   9.747
 1120POPC   PO417760  19.084  39.767   9.802
 1120POPC   GL117761  18.952  39.765   9.320
 1120POPC   GL217762  19.257  39.661   9.098
 1120POPC   C1A17763  18.801  39.766   8.871
 1120POPC   D2A17764  18.960  39.827   8.429
 1120POPC   C3A17765  18.789  40.190   8.173
 1120POPC   C4A17766  18.667  40.361   7.766
 1120POPC   C1B17767  19.230  40.086   8.863
 1120POPC   C2B17768  19.232  40.313   8.458
 1120POPC   C3B17769  19.288  40.189   8.037
 1120POPC   C4B17770  19.163  40.342   7.648
 1121POPC   NC317771  11.692  32.214   9.516
 1121POPC   PO417772  11.070  32.400   9.698
 1121POPC   GL117773  11.197  32.321   9.225
 1121POPC   GL217774  11.483  32.117   9.070
 1121POPC   C1A17775  11.100  32.287   8.758
 1121POPC   D2A17776  10.796  32.011   8.500
 1121POPC   C3A17777  10.747  31.988   8.064
 1121POPC   C4A17778  11.111  32.197   7.867
 1121POPC   C1B17779  11.586  32.197   8.618
 1121POPC   C2B17780  11.555  32.225   8.166
 1121POPC   C3B17781  11.613  32.180   7.718
 1121POPC   C4B17782  11.872  32.146   7.299
 1122POPC   NC317783  33.261  33.320   9.590
 1122POPC   PO417784  32.948  32.731   9.612
 1122POPC   GL117785  33.137  32.951   9.258
 1122POPC   GL217786  32.865  32.833   9.073
 1122POPC   C1A17787  33.126  33.224   8.866
 1122POPC   D2A17788  33.200  33.093   8.436
 1122POPC   C3A17789  33.060  33.215   8.007
 1122POPC   C4A17790  33.023  33.075   7.544
 1122POPC   C1B17791  32.572  32.863   8.765
 1122POPC   C2B17792  32.656  33.011   8.351
 1122POPC   C3B17793  32.707  32.880   7.930
 1122POPC   C4B17794  32.584  32.770   7.539
 1123POPC   NC317795   2.121   0.480   9.741
 1123POPC   PO417796   1.726   0.137   9.408
 1123POPC   GL117797   1.967   0.377   9.188
 1123POPC   GL217798   2.158   0.102   9.094
 1123POPC   C1A17799   1.953   0.490   8.759
 1123POPC   D2A17800   1.992   0.261   8.374
 1123POPC   C3A17801   1.911   0.519   8.018
 1123POPC   C4A17802   1.882   0.475   7.580
 1123POPC   C1B17803   2.374   0.194   8.741
 1123POPC   C2B17804   2.517   0.175   8.374
 1123POPC   C3B17805   2.356   0.266   8.006
 1123POPC   C4B17806   2.534   0.178   7.654
 1124POPC   NC317807  37.787  17.319   9.448
 1124POPC   PO417808  37.398  17.854   9.409
 1124POPC   GL117809  37.518  17.782   8.965
 1124POPC   GL217810  37.723  17.504   8.961
 1124POPC   C1A17811  37.865  17.979   8.662
 1124POPC   D2A17812  38.146  17.922   8.254
 1124POPC   C3A17813  37.951  17.631   7.983
 1124POPC   C4A17814  37.610  17.718   7.724
 1124POPC   C1B17815  37.843  17.344   8.568
 1124POPC   C2B17816  37.747  17.112   8.188
 1124POPC   C3B17817  37.718  17.209   7.757
 1124POPC   C4B17818  37.691  17.394   7.348
 1125POPC   NC317819  17.901  24.891   9.455
 1125POPC   PO417820  17.317  25.213   9.560
 1125POPC   GL117821  17.420  25.296   9.131
 1125POPC   GL217822  17.745  25.196   9.076
 1125POPC   C1A17823  17.182  25.273   8.749
 1125POPC   D2A17824  17.103  24.978   8.410
 1125POPC   C3A17825  17.254  25.065   7.983
 1125POPC   C4A17826  17.339  25.371   7.655
 1125POPC   C1B17827  17.672  25.417   8.704
 1125POPC   C2B17828  17.564  25.250   8.336
 1125POPC   C3B17829  17.751  25.270   7.939
 1125POPC   C4B17830  17.758  25.684   7.737
 1126POPC   NC317831  12.267  15.026   9.564
 1126POPC   PO417832  11.835  15.568   9.572
 1126POPC   GL117833  12.087  15.350   9.219
 1126POPC   GL217834  12.106  14.968   9.090
 1126POPC   C1A17835  12.211  15.369   8.797
 1126POPC   D2A17836  12.046  15.591   8.465
 1126POPC   C3A17837  12.141  15.477   8.063
 1126POPC   C4A17838  12.185  15.249   7.686
 1126POPC   C1B17839  12.038  14.760   8.676
 1126POPC   C2B17840  12.135  14.748   8.186
 1126POPC   C3B17841  11.988  14.771   7.733
 1126POPC   C4B17842  12.254  14.766   7.361
 1127POPC   NC317843  42.020  23.077   9.565
 1127POPC   PO417844  42.698  22.803   9.523
 1127POPC   GL117845  42.410  23.001   9.234
 1127POPC   GL217846  42.112  22.764   9.182
 1127POPC   C1A17847  42.335  23.039   8.798
 1127POPC   D2A17848  42.397  23.168   8.378
 1127POPC   C3A17849  42.633  22.964   8.082
 1127POPC   C4A17850  42.607  23.090   7.693
 1127POPC   C1B17851  41.918  22.741   8.803
 1127POPC   C2B17852  41.916  22.952   8.423
 1127POPC   C3B17853  42.090  22.836   8.027
 1127POPC   C4B17854  42.095  23.023   7.613
 1128POPC   NC317855   3.178  27.172   9.612
 1128POPC   PO417856   2.655  26.727   9.521
 1128POPC   GL117857   2.702  26.961   9.213
 1128POPC   GL217858   3.055  27.011   9.145
 1128POPC   C1A17859   2.664  26.864   8.808
 1128POPC   D2A17860   2.817  26.606   8.495
 1128POPC   C3A17861   2.782  26.766   8.073
 1128POPC   C4A17862   2.910  26.615   7.647
 1128POPC   C1B17863   2.954  27.279   8.815
 1128POPC   C2B17864   2.925  27.119   8.428
 1128POPC   C3B17865   3.007  27.251   8.063
 1128POPC   C4B17866   2.834  27.129   7.710
 1129POPC   NC317867  38.307   5.347   9.671
 1129POPC   PO417868  38.036   5.922   9.674
 1129POPC   GL117869  38.160   5.922   9.186
 1129POPC   GL217870  38.475   6.134   9.127
 1129POPC   C1A17871  38.314   5.857   8.727
 1129POPC   D2A17872  38.589   5.948   8.358
 1129POPC   C3A17873  38.360   5.858   7.972
 1129POPC   C4A17874  38.234   5.491   7.741
 1129POPC   C1B17875  38.650   6.330   8.725
 1129POPC   C2B17876  38.620   6.464   8.274
 1129POPC   C3B17877  38.737   6.195   7.908
 1129POPC   C4B17878  38.885   6.196   7.467
 1130POPC   NC317879   8.695  33.650  10.067
 1130POPC   PO417880   9.187  33.653   9.593
 1130POPC   GL117881   8.983  33.716   9.218
 1130POPC   GL217882   9.019  34.018   9.039
 1130POPC   C1A17883   8.859  33.576   8.815
 1130POPC   D2A17884   8.963  33.870   8.506
 1130POPC   C3A17885   8.957  33.773   8.090
 1130POPC   C4A17886   8.675  33.696   7.743
 1130POPC   C1B17887   9.326  34.210   8.777
 1130POPC   C2B17888   9.411  34.056   8.370
 1130POPC   C3B17889   9.320  34.105   7.909
 1130POPC   C4B17890   9.299  34.102   7.437
 1131POPC   NC317891  28.413  43.295   9.516
 1131POPC   PO417892  28.522  42.634   9.337
 1131POPC   GL117893  28.415  42.950   9.120
 1131POPC   GL217894  28.653  43.269   9.068
 1131POPC   C1A17895  28.362  42.860   8.691
 1131POPC   D2A17896  28.621  42.807   8.337
 1131POPC   C3A17897  28.461  43.091   8.080
 1131POPC   C4A17898  28.331  43.000   7.684
 1131POPC   C1B17899  28.222  43.322   8.862
 1131POPC   C2B17900  28.099  43.384   8.425
 1131POPC   C3B17901  28.040  43.374   7.981
 1131POPC   C4B17902  28.266  43.494   7.604
 1132POPC   NC317903  30.742  39.442   9.457
 1132POPC   PO417904  30.378  38.918   9.573
 1132POPC   GL117905  30.663  38.900   9.198
 1132POPC   GL217906  30.640  39.185   9.026
 1132POPC   C1A17907  31.005  38.873   8.855
 1132POPC   D2A17908  30.997  39.082   8.481
 1132POPC   C3A17909  30.749  38.963   8.125
 1132POPC   C4A17910  30.860  38.905   7.728
 1132POPC   C1B17911  30.751  39.483   8.731
 1132POPC   C2B17912  30.610  39.425   8.321
 1132POPC   C3B17913  30.813  39.450   7.945
 1132POPC   C4B17914  30.734  39.356   7.522
 1133POPC   NC317915   1.076  24.337   9.519
 1133POPC   PO417916   1.636  24.632   9.417
 1133POPC   GL117917   1.305  24.670   9.084
 1133POPC   GL217918   0.926  24.615   9.081
 1133POPC   C1A17919   1.281  24.411   8.686
 1133POPC   D2A17920   1.505  24.194   8.322
 1133POPC   C3A17921   1.343  24.364   7.929
 1133POPC   C4A17922   1.099  24.765   7.936
 1133POPC   C1B17923   0.848  24.174   8.887
 1133POPC   C2B17924   1.032  23.972   8.499
 1133POPC   C3B17925   0.871  24.077   8.075
 1133POPC   C4B17926   0.945  24.175   7.671
 1134POPC   NC317927  37.106  32.090   9.364
 1134POPC   PO417928  36.424  31.978   9.433
 1134POPC   GL117929  36.640  32.209   9.113
 1134POPC   GL217930  36.939  32.402   9.034
 1134POPC   C1A17931  36.754  32.132   8.681
 1134POPC   D2A17932  36.782  32.354   8.310
 1134POPC   C3A17933  36.894  32.208   7.937
 1134POPC   C4A17934  36.682  32.366   7.561
 1134POPC   C1B17935  37.277  32.166   8.732
 1134POPC   C2B17936  37.519  32.276   8.356
 1134POPC   C3B17937  37.315  32.520   8.034
 1134POPC   C4B17938  37.180  32.486   7.614
 1135POPC   NC317939  41.569   9.375   9.452
 1135POPC   PO417940  41.722   8.666   9.463
 1135POPC   GL117941  41.665   8.995   9.149
 1135POPC   GL217942  41.333   9.151   9.081
 1135POPC   C1A17943  41.712   9.150   8.744
 1135POPC   D2A17944  41.467   9.311   8.428
 1135POPC   C3A17945  41.622   9.146   8.055
 1135POPC   C4A17946  42.002   9.203   7.812
 1135POPC   C1B17947  41.300   8.815   8.806
 1135POPC   C2B17948  41.258   8.834   8.364
 1135POPC   C3B17949  41.093   9.170   8.113
 1135POPC   C4B17950  41.278   9.203   7.704
 1136POPC   NC317951  14.294  37.749   9.466
 1136POPC   PO417952  14.641  37.188   9.533
 1136POPC   GL117953  14.582  37.480   9.136
 1136POPC   GL217954  14.489  37.825   8.999
 1136POPC   C1A17955  14.803  37.571   8.720
 1136POPC   D2A17956  14.783  37.579   8.301
 1136POPC   C3A17957  14.469  37.431   8.049
 1136POPC   C4A17958  14.352  37.614   7.685
 1136POPC   C1B17959  14.579  38.035   8.609
 1136POPC   C2B17960  14.553  38.006   8.134
 1136POPC   C3B17961  14.321  38.116   7.771
 1136POPC   C4B17962  14.220  37.992   7.350
 1137POPC   NC317963  19.815  30.367   9.396
 1137POPC   PO417964  19.362  30.890   9.354
 1137POPC   GL117965  19.586  30.705   9.012
 1137POPC   GL217966  19.613  30.334   8.938
 1137POPC   C1A17967  19.659  30.696   8.578
 1137POPC   D2A17968  19.650  30.370   8.260
 1137POPC   C3A17969  19.655  30.568   7.854
 1137POPC   C4A17970  19.694  31.029   7.753
 1137POPC   C1B17971  20.026  30.359   8.715
 1137POPC   C2B17972  20.127  30.612   8.343
 1137POPC   C3B17973  20.158  30.473   7.932
 1137POPC   C4B17974  19.998  30.059   7.856
 1138POPC   NC317975  26.296  35.288   9.443
 1138POPC   PO417976  25.701  35.469   9.316
 1138POPC   GL117977  25.987  35.236   9.025
 1138POPC   GL217978  26.268  34.958   9.054
 1138POPC   C1A17979  26.112  35.270   8.580
 1138POPC   D2A17980  25.982  35.243   8.131
 1138POPC   C3A17981  26.134  35.519   7.828
 1138POPC   C4A17982  26.176  35.461   7.363
 1138POPC   C1B17983  26.555  35.062   8.738
 1138POPC   C2B17984  26.599  35.270   8.378
 1138POPC   C3B17985  26.477  35.136   8.001
 1138POPC   C4B17986  26.172  35.016   7.688
 1139POPC   NC317987  13.707  27.232   9.368
 1139POPC   PO417988  13.405  27.896   9.458
 1139POPC   GL117989  13.483  27.689   9.097
 1139POPC   GL217990  13.804  27.724   9.168
 1139POPC   C1A17991  13.680  27.543   8.708
 1139POPC   D2A17992  13.548  27.649   8.297
 1139POPC   C3A17993  13.597  27.364   7.977
 1139POPC   C4A17994  13.682  27.580   7.632
 1139POPC   C1B17995  13.969  27.979   8.842
 1139POPC   C2B17996  13.924  28.032   8.388
 1139POPC   C3B17997  13.778  27.981   7.936
 1139POPC   C4B17998  13.977  28.014   7.510
 1140POPC   NC317999  20.383  21.839   9.394
 1140POPC   PO418000  20.729  21.328   9.639
 1140POPC   GL118001  20.505  21.310   9.269
 1140POPC   GL218002  20.772  21.106   9.181
 1140POPC   C1A18003  20.442  21.307   8.820
 1140POPC   D2A18004  20.420  21.545   8.457
 1140POPC   C3A18005  20.482  21.446   8.038
 1140POPC   C4A18006  20.708  21.673   7.738
 1140POPC   C1B18007  20.927  21.073   8.810
 1140POPC   C2B18008  20.717  21.082   8.421
 1140POPC   C3B18009  20.915  21.003   8.063
 1140POPC   C4B18010  20.800  21.172   7.715
 1141POPC   NC318011   1.556  21.017   9.518
 1141POPC   PO418012   0.891  21.412   9.539
 1141POPC   GL118013   1.212  21.299   9.212
 1141POPC   GL218014   1.525  21.517   9.146
 1141POPC   C1A18015   1.331  21.216   8.779
 1141POPC   D2A18016   1.261  21.202   8.339
 1141POPC   C3A18017   1.093  21.088   7.966
 1141POPC   C4A18018   0.925  21.470   7.818
 1141POPC   C1B18019   1.738  21.555   8.719
 1141POPC   C2B18020   1.619  21.616   8.275
 1141POPC   C3B18021   1.470  21.447   7.870
 1141POPC   C4B18022   1.456  21.648   7.434
 1142POPC   NC318023   5.429   8.951   9.533
 1142POPC   PO418024   4.807   9.095   9.524
 1142POPC   GL118025   5.045   8.922   9.175
 1142POPC   GL218026   5.296   9.186   9.092
 1142POPC   C1A18027   5.054   8.763   8.746
 1142POPC   D2A18028   4.838   8.599   8.374
 1142POPC   C3A18029   4.744   8.932   8.119
 1142POPC   C4A18030   5.103   8.973   7.889
 1142POPC   C1B18031   5.527   9.009   8.760
 1142POPC   C2B18032   5.416   9.017   8.333
 1142POPC   C3B18033   5.473   9.320   8.001
 1142POPC   C4B18034   5.242   9.409   7.646
 1143POPC   NC318035   1.268  27.504   9.554
 1143POPC   PO418036   0.854  28.044   9.473
 1143POPC   GL118037   1.064  27.759   9.149
 1143POPC   GL218038   1.239  27.402   9.058
 1143POPC   C1A18039   1.265  27.818   8.764
 1143POPC   D2A18040   1.426  27.911   8.372
 1143POPC   C3A18041   1.490  27.607   8.117
 1143POPC   C4A18042   1.282  27.560   7.728
 1143POPC   C1B18043   1.104  27.356   8.596
 1143POPC   C2B18044   0.988  27.452   8.162
 1143POPC   C3B18045   0.913  27.196   7.782
 1143POPC   C4B18046   1.086  27.124   7.380
 1144POPC   NC318047  28.948  34.568   9.540
 1144POPC   PO418048  29.524  34.209   9.391
 1144POPC   GL118049  29.227  34.419   9.120
 1144POPC   GL218050  28.995  34.719   9.086
 1144POPC   C1A18051  29.305  34.524   8.713
 1144POPC   D2A18052  29.611  34.561   8.437
 1144POPC   C3A18053  29.311  34.606   8.120
 1144POPC   C4A18054  29.395  34.613   7.688
 1144POPC   C1B18055  28.806  34.489   8.802
 1144POPC   C2B18056  28.864  34.649   8.424
 1144POPC   C3B18057  28.776  34.749   8.057
 1144POPC   C4B18058  28.919  34.517   7.770
 1145POPC   NC318059   1.898  36.481   9.381
 1145POPC   PO418060   2.255  35.926   9.425
 1145POPC   GL118061   1.951  36.096   9.057
 1145POPC   GL218062   1.895  36.492   8.889
 1145POPC   C1A18063   2.051  36.091   8.619
 1145POPC   D2A18064   2.259  36.277   8.262
 1145POPC   C3A18065   2.129  36.104   7.868
 1145POPC   C4A18066   1.977  36.257   7.459
 1145POPC   C1B18067   1.560  36.239   8.710
 1145POPC   C2B18068   1.647  36.065   8.307
 1145POPC   C3B18069   1.615  36.124   7.890
 1145POPC   C4B18070   1.555  36.478   7.694
 1146POPC   NC318071   1.143  36.591   9.471
 1146POPC   PO418072   1.667  36.853   9.249
 1146POPC   GL118073   1.415  36.635   9.023
 1146POPC   GL218074   1.139  36.846   9.042
 1146POPC   C1A18075   1.392  36.734   8.604
 1146POPC   D2A18076   1.052  36.877   8.356
 1146POPC   C3A18077   1.295  36.815   7.992
 1146POPC   C4A18078   1.489  36.964   7.630
 1146POPC   C1B18079   1.231  37.192   8.784
 1146POPC   C2B18080   1.458  37.234   8.430
 1146POPC   C3B18081   1.462  37.320   8.001
 1146POPC   C4B18082   1.084  37.245   7.759
 1147POPC   NC318083  22.569  26.315   9.487
 1147POPC   PO418084  22.910  25.828   9.209
 1147POPC   GL118085  22.739  26.156   9.039
 1147POPC   GL218086  23.002  26.385   9.121
 1147POPC   C1A18087  22.763  26.275   8.649
 1147POPC   D2A18088  22.952  26.378   8.278
 1147POPC   C3A18089  22.781  26.251   7.897
 1147POPC   C4A18090  22.686  25.881   7.714
 1147POPC   C1B18091  23.242  26.463   8.720
 1147POPC   C2B18092  23.399  26.604   8.283
 1147POPC   C3B18093  23.194  26.556   7.858
 1147POPC   C4B18094  23.119  26.440   7.387
 1148POPC   NC318095   9.848   9.833   9.479
 1148POPC   PO418096   9.385   9.296   9.407
 1148POPC   GL118097   9.553   9.557   9.154
 1148POPC   GL218098   9.428   9.884   9.168
 1148POPC   C1A18099   9.800   9.566   8.821
 1148POPC   D2A18100   9.661   9.601   8.434
 1148POPC   C3A18101   9.934   9.622   8.099
 1148POPC   C4A18102   9.837   9.558   7.672
 1148POPC   C1B18103   9.589  10.036   8.741
 1148POPC   C2B18104   9.694  10.092   8.281
 1148POPC   C3B18105   9.755  10.028   7.821
 1148POPC   C4B18106   9.713  10.032   7.367
 1149POPC   NC318107  40.184  17.291   9.453
 1149POPC   PO418108  40.748  16.971   9.546
 1149POPC   GL118109  40.775  17.331   9.215
 1149POPC   GL218110  41.097  17.581   9.259
 1149POPC   C1A18111  40.679  17.282   8.773
 1149POPC   D2A18112  40.559  16.970   8.424
 1149POPC   C3A18113  40.576  17.188   8.012
 1149POPC   C4A18114  40.916  17.385   7.766
 1149POPC   C1B18115  40.923  17.800   8.922
 1149POPC   C2B18116  40.822  17.770   8.501
 1149POPC   C3B18117  40.994  17.764   8.098
 1149POPC   C4B18118  40.974  17.869   7.672
 1150POPC   NC318119  10.466  21.150   9.467
 1150POPC   PO418120  10.608  20.544   9.775
 1150POPC   GL118121  10.616  20.607   9.287
 1150POPC   GL218122  10.792  20.872   9.132
 1150POPC   C1A18123  10.387  20.755   8.869
 1150POPC   D2A18124  10.136  20.739   8.476
 1150POPC   C3A18125  10.310  20.598   8.073
 1150POPC   C4A18126  10.470  20.267   7.808
 1150POPC   C1B18127  10.849  20.534   8.736
 1150POPC   C2B18128  10.968  20.457   8.268
 1150POPC   C3B18129  10.977  20.362   7.854
 1150POPC   C4B18130  10.735  20.711   7.789
 1151POPC   NC318131   0.624  14.257   9.462
 1151POPC   PO418132   0.137  14.576   9.693
 1151POPC   GL118133   0.193  14.468   9.234
 1151POPC   GL218134   0.317  14.197   9.061
 1151POPC   C1A18135   0.180  14.583   8.771
 1151POPC   D2A18136   0.358  14.329   8.458
 1151POPC   C3A18137   0.106  14.259   8.119
 1151POPC   C4A18138   0.244  14.253   7.693
 1151POPC   C1B18139   0.710  14.181   8.822
 1151POPC   C2B18140   0.773  13.959   8.431
 1151POPC   C3B18141   0.635  14.122   8.055
 1151POPC   C4B18142   0.744  14.199   7.661
 1152POPC   NC318143  31.758  10.034   9.469
 1152POPC   PO418144  31.235   9.645   9.429
 1152POPC   GL118145  31.370   9.472   9.066
 1152POPC   GL218146  31.744   9.576   9.061
 1152POPC   C1A18147  31.182   9.379   8.691
 1152POPC   D2A18148  31.060   9.577   8.315
 1152POPC   C3A18149  31.335   9.903   8.125
 1152POPC   C4A18150  31.298   9.731   7.693
 1152POPC   C1B18151  31.541   9.795   8.723
 1152POPC   C2B18152  31.583   9.538   8.383
 1152POPC   C3B18153  31.748   9.615   7.994
 1152POPC   C4B18154  31.710   9.991   7.750
 1153POPC   NC318155  15.563   6.520   9.354
 1153POPC   PO418156  16.224   6.665   9.712
 1153POPC   GL118157  16.024   6.647   9.288
 1153POPC   GL218158  16.014   6.286   9.192
 1153POPC   C1A18159  15.973   6.673   8.822
 1153POPC   D2A18160  16.215   6.723   8.463
 1153POPC   C3A18161  15.983   6.810   8.102
 1153POPC   C4A18162  16.070   6.702   7.698
 1153POPC   C1B18163  16.064   6.184   8.739
 1153POPC   C2B18164  15.807   6.335   8.358
 1153POPC   C3B18165  15.848   6.207   7.910
 1153POPC   C4B18166  15.576   6.201   7.515
 1154POPC   NC318167  29.565  23.209   9.485
 1154POPC   PO418168  30.031  22.654   9.577
 1154POPC   GL118169  30.161  22.723   9.149
 1154POPC   GL218170  29.866  22.929   9.150
 1154POPC   C1A18171  30.206  22.905   8.737
 1154POPC   D2A18172  30.356  22.933   8.316
 1154POPC   C3A18173  30.148  22.724   7.979
 1154POPC   C4A18174  30.029  22.825   7.571
 1154POPC   C1B18175  29.718  23.068   8.746
 1154POPC   C2B18176  29.820  22.985   8.299
 1154POPC   C3B18177  29.643  22.955   7.865
 1154POPC   C4B18178  29.558  22.992   7.398
 1155POPC   NC318179  22.915  21.707   9.554
 1155POPC   PO418180  22.794  21.043   9.359
 1155POPC   GL118181  22.904  21.207   8.973
 1155POPC   GL218182  23.070  21.441   9.136
 1155POPC   C1A18183  22.767  21.586   8.689
 1155POPC   D2A18184  22.614  21.673   8.232
 1155POPC   C3A18185  22.763  21.390   7.898
 1155POPC   C4A18186  23.132  21.130   7.790
 1155POPC   C1B18187  23.266  21.540   8.749
 1155POPC   C2B18188  23.332  21.425   8.318
 1155POPC   C3B18189  23.300  21.602   7.901
 1155POPC   C4B18190  23.012  21.759   7.618
 1156POPC   NC318191  31.220  31.010   9.494
 1156POPC   PO418192  31.425  31.653   9.571
 1156POPC   GL118193  31.566  31.600   9.179
 1156POPC   GL218194  31.557  31.247   9.132
 1156POPC   C1A18195  31.472  31.711   8.784
 1156POPC   D2A18196  31.599  31.617   8.404
 1156POPC   C3A18197  31.695  31.904   8.097
 1156POPC   C4A18198  31.659  31.547   7.858
 1156POPC   C1B18199  31.242  31.265   8.823
 1156POPC   C2B18200  31.083  31.352   8.479
 1156POPC   C3B18201  31.248  31.370   8.104
 1156POPC   C4B18202  31.238  31.239   7.710
 1157POPC   NC318203  19.651   3.695   9.506
 1157POPC   PO418204  20.213   3.281   9.420
 1157POPC   GL118205  20.146   3.483   9.067
 1157POPC   GL218206  19.823   3.621   9.049
 1157POPC   C1A18207  19.992   3.287   8.702
 1157POPC   D2A18208  19.747   3.458   8.382
 1157POPC   C3A18209  19.903   3.377   8.013
 1157POPC   C4A18210  19.921   3.429   7.604
 1157POPC   C1B18211  19.567   3.789   8.725
 1157POPC   C2B18212  19.451   3.886   8.293
 1157POPC   C3B18213  19.652   3.834   7.882
 1157POPC   C4B18214  19.923   3.975   7.562
 1158POPC   NC318215  20.626  18.239   9.521
 1158POPC   PO418216  20.298  18.720   9.206
 1158POPC   GL118217  20.531  18.405   9.048
 1158POPC   GL218218  20.397  18.062   9.086
 1158POPC   C1A18219  20.800  18.404   8.705
 1158POPC   D2A18220  20.589  18.480   8.312
 1158POPC   C3A18221  20.769  18.409   7.916
 1158POPC   C4A18222  20.595  18.452   7.480
 1158POPC   C1B18223  20.367  18.120   8.642
 1158POPC   C2B18224  20.403  17.987   8.230
 1158POPC   C3B18225  20.344  18.135   7.824
 1158POPC   C4B18226  20.727  17.996   7.590
 1159POPC   NC318227   2.632  10.606   9.502
 1159POPC   PO418228   3.295  10.558   9.462
 1159POPC   GL118229   2.992  10.600   9.139
 1159POPC   GL218230   2.693  10.837   9.053
 1159POPC   C1A18231   2.895  10.460   8.737
 1159POPC   D2A18232   2.872  10.253   8.355
 1159POPC   C3A18233   2.852  10.512   7.996
 1159POPC   C4A18234   2.947  10.302   7.629
 1159POPC   C1B18235   2.446  10.731   8.689
 1159POPC   C2B18236   2.395  10.538   8.254
 1159POPC   C3B18237   2.402  10.760   7.825
 1159POPC   C4B18238   2.473  10.917   7.365
 1160POPC   NC318239   4.437  18.271   9.389
 1160POPC   PO418240   3.847  18.599   9.422
 1160POPC   GL118241   4.034  18.338   9.075
 1160POPC   GL218242   3.945  17.995   9.029
 1160POPC   C1A18243   4.396  18.260   8.754
 1160POPC   D2A18244   4.662  18.482   8.455
 1160POPC   C3A18245   4.706  18.394   8.004
 1160POPC   C4A18246   4.740  18.286   7.553
 1160POPC   C1B18247   3.910  18.215   8.602
 1160POPC   C2B18248   4.191  18.267   8.286
 1160POPC   C3B18249   4.213  18.377   7.929
 1160POPC   C4B18250   3.981  18.751   7.822
 1161POPC   NC318251  41.247   4.672   9.514
 1161POPC   PO418252  41.518   4.131   9.474
 1161POPC   GL118253  41.641   4.402   9.132
 1161POPC   GL218254  41.355   4.561   8.994
 1161POPC   C1A18255  41.808   4.390   8.702
 1161POPC   D2A18256  41.539   4.664   8.437
 1161POPC   C3A18257  41.368   4.536   8.021
 1161POPC   C4A18258  41.541   4.260   7.707
 1161POPC   C1B18259  41.335   4.240   8.656
 1161POPC   C2B18260  41.569   4.129   8.255
 1161POPC   C3B18261  41.501   3.798   7.917
 1161POPC   C4B18262  41.637   3.806   7.482
 1162POPC   NC318263   7.902  38.245   9.399
 1162POPC   PO418264   8.547  38.169   9.549
 1162POPC   GL118265   8.324  38.399   9.169
 1162POPC   GL218266   8.007  38.614   9.063
 1162POPC   C1A18267   8.161  38.267   8.745
 1162POPC   D2A18268   8.271  38.447   8.360
 1162POPC   C3A18269   8.155  38.354   7.949
 1162POPC   C4A18270   8.072  38.437   7.496
 1162POPC   C1B18271   7.863  38.672   8.622
 1162POPC   C2B18272   7.933  38.783   8.171
 1162POPC   C3B18273   7.941  38.848   7.740
 1162POPC   C4B18274   7.946  38.882   7.261
 1163POPC   NC318275  21.045  11.652   9.319
 1163POPC   PO418276  21.296  10.994   9.501
 1163POPC   GL118277  21.428  11.223   9.089
 1163POPC   GL218278  21.469  11.583   9.017
 1163POPC   C1A18279  21.730  11.194   8.719
 1163POPC   D2A18280  21.553  10.995   8.332
 1163POPC   C3A18281  21.371  11.252   8.042
 1163POPC   C4A18282  21.210  11.181   7.648
 1163POPC   C1B18283  21.271  11.396   8.633
 1163POPC   C2B18284  21.060  11.587   8.314
 1163POPC   C3B18285  21.428  11.787   8.177
 1163POPC   C4B18286  21.652  11.655   7.824
 1164POPC   NC318287  23.038  39.662   9.494
 1164POPC   PO418288  23.044  40.314   9.405
 1164POPC   GL118289  23.001  40.143   9.052
 1164POPC   GL218290  22.813  39.895   9.093
 1164POPC   C1A18291  23.108  40.037   8.655
 1164POPC   D2A18292  23.177  40.273   8.281
 1164POPC   C3A18293  23.084  40.024   7.906
 1164POPC   C4A18294  22.862  40.156   7.537
 1164POPC   C1B18295  22.815  39.633   8.732
 1164POPC   C2B18296  23.060  39.555   8.376
 1164POPC   C3B18297  22.842  39.503   7.992
 1164POPC   C4B18298  22.858  39.653   7.589
 1165POPC   NC318299   9.883  31.997   9.315
 1165POPC   PO418300   9.702  31.414   9.580
 1165POPC   GL118301   9.912  31.208   9.228
 1165POPC   GL218302   9.797  31.529   9.052
 1165POPC   C1A18303   9.946  31.119   8.762
 1165POPC   D2A18304  10.018  31.523   8.502
 1165POPC   C3A18305   9.927  31.566   8.055
 1165POPC   C4A18306   9.984  31.145   7.895
 1165POPC   C1B18307   9.532  31.410   8.702
 1165POPC   C2B18308   9.627  31.241   8.307
 1165POPC   C3B18309   9.508  31.326   7.881
 1165POPC   C4B18310   9.493  31.443   7.431
 1166POPC   NC318311  40.357  11.082   9.284
 1166POPC   PO418312  39.854  10.559   9.537
 1166POPC   GL118313  39.806  10.433   9.133
 1166POPC   GL218314  40.156  10.484   9.116
 1166POPC   C1A18315  39.971  10.285   8.710
 1166POPC   D2A18316  40.008  10.513   8.354
 1166POPC   C3A18317  39.916  10.328   7.988
 1166POPC   C4A18318  39.931  10.261   7.561
 1166POPC   C1B18319  40.298  10.697   8.778
 1166POPC   C2B18320  40.235  10.957   8.444
 1166POPC   C3B18321  40.338  10.781   8.066
 1166POPC   C4B18322  40.252  10.620   7.696
 1167POPC   NC318323  24.701   4.471   9.500
 1167POPC   PO418324  24.326   3.944   9.683
 1167POPC   GL118325  24.554   3.976   9.264
 1167POPC   GL218326  24.284   3.806   9.111
 1167POPC   C1A18327  24.636   4.268   8.875
 1167POPC   D2A18328  24.536   4.627   8.563
 1167POPC   C3A18329  24.619   4.555   8.087
 1167POPC   C4A18330  24.516   4.460   7.644
 1167POPC   C1B18331  24.175   4.066   8.729
 1167POPC   C2B18332  24.329   4.201   8.334
 1167POPC   C3B18333  24.484   4.052   7.931
 1167POPC   C4B18334  24.202   4.054   7.558
 1168POPC   NC318335  32.077  37.210   9.336
 1168POPC   PO418336  32.557  36.761   9.545
 1168POPC   GL118337  32.376  36.791   9.103
 1168POPC   GL218338  32.040  36.859   8.990
 1168POPC   C1A18339  32.462  36.910   8.656
 1168POPC   D2A18340  32.326  37.077   8.224
 1168POPC   C3A18341  32.424  36.832   7.841
 1168POPC   C4A18342  32.596  36.778   7.361
 1168POPC   C1B18343  31.967  37.068   8.609
 1168POPC   C2B18344  31.713  37.093   8.279
 1168POPC   C3B18345  31.919  37.047   7.898
 1168POPC   C4B18346  32.234  37.303   7.690
 1169POPC   NC318347  31.025  10.775   9.514
 1169POPC   PO418348  30.509  10.329   9.497
 1169POPC   GL118349  30.587  10.411   9.129
 1169POPC   GL218350  30.646  10.716   9.179
 1169POPC   C1A18351  30.717  10.327   8.733
 1169POPC   D2A18352  30.915  10.403   8.341
 1169POPC   C3A18353  30.581  10.321   8.036
 1169POPC   C4A18354  30.845  10.422   7.716
 1169POPC   C1B18355  30.806  10.825   8.822
 1169POPC   C2B18356  30.604  10.784   8.426
 1169POPC   C3B18357  30.714  10.813   8.033
 1169POPC   C4B18358  30.528  10.842   7.623
 1170POPC   NC318359   4.596  15.705   9.565
 1170POPC   PO418360   5.228  15.345   9.444
 1170POPC   GL118361   4.961  15.290   9.106
 1170POPC   GL218362   4.635  15.343   9.202
 1170POPC   C1A18363   5.051  15.132   8.709
 1170POPC   D2A18364   5.314  15.289   8.389
 1170POPC   C3A18365   5.107  15.295   8.017
 1170POPC   C4A18366   5.042  14.988   7.697
 1170POPC   C1B18367   4.561  15.284   8.773
 1170POPC   C2B18368   4.687  15.352   8.312
 1170POPC   C3B18369   4.639  15.352   7.829
 1170POPC   C4B18370   4.719  15.205   7.394
 1171POPC   NC318371   7.437  26.533   9.431
 1171POPC   PO418372   7.222  27.173   9.530
 1171POPC   GL118373   7.183  26.926   9.192
 1171POPC   GL218374   7.548  26.908   9.100
 1171POPC   C1A18375   7.148  27.002   8.767
 1171POPC   D2A18376   7.444  27.114   8.463
 1171POPC   C3A18377   7.366  26.834   8.121
 1171POPC   C4A18378   7.196  26.852   7.708
 1171POPC   C1B18379   7.649  26.674   8.733
 1171POPC   C2B18380   7.655  26.339   8.415
 1171POPC   C3B18381   7.460  26.351   7.999
 1171POPC   C4B18382   7.637  26.636   7.695
 1172POPC   NC318383   8.886  32.560   9.339
 1172POPC   PO418384   9.431  32.112   9.419
 1172POPC   GL118385   9.080  32.143   9.103
 1172POPC   GL218386   8.787  31.938   9.245
 1172POPC   C1A18387   8.942  32.405   8.710
 1172POPC   D2A18388   8.976  32.641   8.298
 1172POPC   C3A18389   8.991  32.374   7.909
 1172POPC   C4A18390   9.326  32.185   7.666
 1172POPC   C1B18391   8.759  31.811   8.816
 1172POPC   C2B18392   8.834  32.005   8.405
 1172POPC   C3B18393   8.812  31.851   8.005
 1172POPC   C4B18394   8.760  31.998   7.605
 1173POPC   NC318395  31.640  39.326   9.567
 1173POPC   PO418396  31.018  39.003   9.537
 1173POPC   GL118397  31.405  38.962   9.184
 1173POPC   GL218398  31.687  39.219   9.073
 1173POPC   C1A18399  31.537  38.909   8.715
 1173POPC   D2A18400  31.601  39.193   8.366
 1173POPC   C3A18401  31.260  39.126   8.037
 1173POPC   C4A18402  31.215  39.284   7.612
 1173POPC   C1B18403  31.303  39.368   8.794
 1173POPC   C2B18404  31.174  39.528   8.356
 1173POPC   C3B18405  31.491  39.583   8.030
 1173POPC   C4B18406  31.754  39.257   7.827
 1174POPC   NC318407   9.249   5.734   9.465
 1174POPC   PO418408   9.859   6.011   9.436
 1174POPC   GL118409   9.813   5.697   9.153
 1174POPC   GL218410   9.501   5.916   9.041
 1174POPC   C1A18411   9.774   5.632   8.732
 1174POPC   D2A18412   9.583   5.837   8.432
 1174POPC   C3A18413   9.841   5.732   8.084
 1174POPC   C4A18414  10.023   5.658   7.688
 1174POPC   C1B18415   9.242   6.164   8.727
 1174POPC   C2B18416   9.277   6.316   8.298
 1174POPC   C3B18417   9.524   6.104   7.972
 1174POPC   C4B18418   9.582   5.887   7.596
 1175POPC   NC318419  27.473  31.729   9.501
 1175POPC   PO418420  27.192  31.276   9.180
 1175POPC   GL118421  27.597  31.476   9.038
 1175POPC   GL218422  27.692  31.845   9.055
 1175POPC   C1A18423  27.875  31.460   8.670
 1175POPC   D2A18424  27.838  31.305   8.224
 1175POPC   C3A18425  27.415  31.448   8.060
 1175POPC   C4A18426  27.173  31.386   7.685
 1175POPC   C1B18427  27.240  31.872   8.881
 1175POPC   C2B18428  27.286  31.838   8.463
 1175POPC   C3B18429  27.688  31.806   8.295
 1175POPC   C4B18430  27.826  31.727   7.862
 1176POPC   NC318431   5.077   5.515   9.464
 1176POPC   PO418432   4.720   6.033   9.526
 1176POPC   GL118433   4.962   5.949   9.139
 1176POPC   GL218434   5.327   5.907   9.235
 1176POPC   C1A18435   4.997   5.978   8.666
 1176POPC   D2A18436   5.150   5.733   8.312
 1176POPC   C3A18437   5.022   5.775   7.890
 1176POPC   C4A18438   4.913   5.861   7.448
 1176POPC   C1B18439   5.380   6.215   8.910
 1176POPC   C2B18440   5.452   6.173   8.461
 1176POPC   C3B18441   5.203   6.205   8.095
 1176POPC   C4B18442   5.330   6.166   7.660
 1177POPC   NC318443   2.715  32.232   9.551
 1177POPC   PO418444   3.205  32.750   9.584
 1177POPC   GL118445   3.010  32.523   9.246
 1177POPC   GL218446   3.258  32.551   9.071
 1177POPC   C1A18447   2.742  32.343   8.887
 1177POPC   D2A18448   2.563  32.114   8.499
 1177POPC   C3A18449   2.735  32.225   8.079
 1177POPC   C4A18450   2.644  32.040   7.648
 1177POPC   C1B18451   3.181  32.495   8.648
 1177POPC   C2B18452   3.345  32.586   8.257
 1177POPC   C3B18453   3.214  32.612   7.834
 1177POPC   C4B18454   2.860  32.494   7.566
 1178POPC   NC318455  38.002  38.997   9.472
 1178POPC   PO418456  38.594  39.289   9.481
 1178POPC   GL118457  38.341  39.300   9.174
 1178POPC   GL218458  38.358  38.967   9.093
 1178POPC   C1A18459  38.357  39.345   8.745
 1178POPC   D2A18460  38.581  39.483   8.417
 1178POPC   C3A18461  38.446  39.403   8.044
 1178POPC   C4A18462  38.584  39.363   7.645
 1178POPC   C1B18463  38.208  38.848   8.681
 1178POPC   C2B18464  38.228  38.969   8.238
 1178POPC   C3B18465  38.433  38.904   7.836
 1178POPC   C4B18466  38.345  38.983   7.394
 1179POPC   NC318467  22.434  36.905   9.498
 1179POPC   PO418468  21.925  37.041   9.787
 1179POPC   GL118469  22.060  37.233   9.314
 1179POPC   GL218470  22.405  37.235   9.100
 1179POPC   C1A18471  22.010  37.174   8.808
 1179POPC   D2A18472  22.104  36.896   8.431
 1179POPC   C3A18473  22.175  37.085   8.033
 1179POPC   C4A18474  21.874  37.285   7.755
 1179POPC   C1B18475  22.502  36.925   8.744
 1179POPC   C2B18476  22.634  36.944   8.268
 1179POPC   C3B18477  22.773  36.942   7.798
 1179POPC   C4B18478  22.693  37.008   7.325
 1180POPC   NC318479  25.524  43.732   9.370
 1180POPC   PO418480  26.002  43.947   9.806
 1180POPC   GL118481  25.989  44.078   9.359
 1180POPC   GL218482  26.013  43.762   9.230
 1180POPC   C1A18483  25.954  44.110   8.868
 1180POPC   D2A18484  25.863  43.950   8.441
 1180POPC   C3A18485  25.770  44.113   8.046
 1180POPC   C4A18486  25.799  43.932   7.648
 1180POPC   C1B18487  26.307  43.715   8.927
 1180POPC   C2B18488  26.315  43.727   8.465
 1180POPC   C3B18489  26.186  43.821   8.037
 1180POPC   C4B18490  26.280  43.763   7.611
 1181POPC   NC318491  10.564   0.604   9.506
 1181POPC   PO418492  10.938   0.054   9.551
 1181POPC   GL118493  10.604   0.148   9.157
 1181POPC   GL218494  10.385   0.484   9.047
 1181POPC   C1A18495  10.506   0.145   8.679
 1181POPC   D2A18496  10.303   0.436   8.362
 1181POPC   C3A18497  10.431   0.384   7.921
 1181POPC   C4A18498  10.773   0.277   7.631
 1181POPC   C1B18499  10.686   0.626   8.707
 1181POPC   C2B18500  10.783   0.614   8.231
 1181POPC   C3B18501  10.778   0.794   7.790
 1181POPC   C4B18502  10.660   0.713   7.356
 1182POPC   NC318503  42.362  29.291   9.415
 1182POPC   PO418504  41.855  28.945   9.682
 1182POPC   GL118505  42.074  28.842   9.170
 1182POPC   GL218506  42.406  28.955   9.033
 1182POPC   C1A18507  42.055  29.006   8.696
 1182POPC   D2A18508  42.390  29.074   8.436
 1182POPC   C3A18509  42.265  28.903   8.090
 1182POPC   C4A18510  42.308  29.038   7.703
 1182POPC   C1B18511  42.626  29.326   8.810
 1182POPC   C2B18512  42.812  29.427   8.416
 1182POPC   C3B18513  42.667  29.329   8.049
 1182POPC   C4B18514  42.534  29.480   7.688
 1183POPC   NC318515   8.932  37.943   9.422
 1183POPC   PO418516   8.615  37.438   9.544
 1183POPC   GL118517   8.737  37.572   9.118
 1183POPC   GL218518   9.119  37.596   9.060
 1183POPC   C1A18519   8.798  37.593   8.665
 1183POPC   D2A18520   8.946  37.466   8.272
 1183POPC   C3A18521   8.664  37.562   7.929
 1183POPC   C4A18522   8.817  37.462   7.545
 1183POPC   C1B18523   9.261  37.766   8.639
 1183POPC   C2B18524   8.996  37.965   8.312
 1183POPC   C3B18525   9.027  37.891   7.891
 1183POPC   C4B18526   9.258  37.499   7.811
 1184POPC   NC318527  40.018  44.837   9.418
 1184POPC   PO418528  40.214  44.213   9.600
 1184POPC   GL118529  40.100  44.234   9.157
 1184POPC   GL218530  39.807  44.445   9.143
 1184POPC   C1A18531  40.171  44.472   8.758
 1184POPC   D2A18532  40.368  44.603   8.359
 1184POPC   C3A18533  40.211  44.433   7.972
 1184POPC   C4A18534  40.142  44.680   7.612
 1184POPC   C1B18535  39.656  44.388   8.723
 1184POPC   C2B18536  39.837  44.480   8.326
 1184POPC   C3B18537  39.720  44.618   7.914
 1184POPC   C4B18538  39.670  44.470   7.494
 1185POPC   NC318539   7.108  36.512   9.397
 1185POPC   PO418540   7.600  36.039   9.450
 1185POPC   GL118541   7.387  36.173   9.106
 1185POPC   GL218542   7.499  36.476   9.040
 1185POPC   C1A18543   7.131  36.171   8.737
 1185POPC   D2A18544   7.054  35.813   8.482
 1185POPC   C3A18545   7.123  35.918   8.020
 1185POPC   C4A18546   7.342  36.135   7.622
 1185POPC   C1B18547   7.648  36.255   8.676
 1185POPC   C2B18548   7.481  36.176   8.302
 1185POPC   C3B18549   7.695  36.276   7.955
 1185POPC   C4B18550   7.862  36.542   7.630
 1186POPC   NC318551  24.090  31.932   9.607
 1186POPC   PO418552  24.530  32.510   9.636
 1186POPC   GL118553  24.440  32.215   9.316
 1186POPC   GL218554  24.698  32.001   9.203
 1186POPC   C1A18555  24.421  32.264   8.875
 1186POPC   D2A18556  24.663  32.445   8.551
 1186POPC   C3A18557  24.523  32.390   8.159
 1186POPC   C4A18558  24.601  32.584   7.780
 1186POPC   C1B18559  24.694  31.804   8.836
 1186POPC   C2B18560  24.568  31.932   8.482
 1186POPC   C3B18561  24.465  31.864   8.091
 1186POPC   C4B18562  24.532  32.082   7.731
 1187POPC   NC318563  10.067  43.280   9.547
 1187POPC   PO418564  10.648  42.937   9.542
 1187POPC   GL118565  10.384  42.998   9.201
 1187POPC   GL218566  10.345  43.338   9.128
 1187POPC   C1A18567  10.242  42.859   8.797
 1187POPC   D2A18568  10.160  43.022   8.361
 1187POPC   C3A18569  10.497  43.009   8.087
 1187POPC   C4A18570  10.519  42.879   7.675
 1187POPC   C1B18571  10.199  43.382   8.731
 1187POPC   C2B18572  10.257  43.675   8.393
 1187POPC   C3B18573  10.238  43.449   8.035
 1187POPC   C4B18574  10.529  43.383   7.714
 1188POPC   NC318575  10.297  36.109   9.788
 1188POPC   PO418576  10.767  36.392   9.454
 1188POPC   GL118577  10.504  36.286   9.176
 1188POPC   GL218578  10.427  35.944   9.271
 1188POPC   C1A18579  10.545  36.417   8.759
 1188POPC   D2A18580  10.242  36.331   8.460
 1188POPC   C3A18581  10.416  36.297   8.073
 1188POPC   C4A18582  10.322  36.395   7.627
 1188POPC   C1B18583  10.519  35.926   8.815
 1188POPC   C2B18584  10.740  36.047   8.429
 1188POPC   C3B18585  10.800  35.824   8.031
 1188POPC   C4B18586  10.457  35.914   7.750
 1189POPC   NC318587  22.056  16.071   9.631
 1189POPC   PO418588  22.705  16.184   9.513
 1189POPC   GL118589  22.435  15.921   9.196
 1189POPC   GL218590  22.042  15.908   9.165
 1189POPC   C1A18591  22.322  15.821   8.753
 1189POPC   D2A18592  22.394  16.012   8.370
 1189POPC   C3A18593  22.325  15.863   7.957
 1189POPC   C4A18594  21.961  15.825   7.739
 1189POPC   C1B18595  22.125  16.258   8.918
 1189POPC   C2B18596  22.119  16.414   8.524
 1189POPC   C3B18597  22.022  16.320   8.105
 1189POPC   C4B18598  22.186  16.312   7.719
 1190POPC   NC318599  37.266  21.344   9.680
 1190POPC   PO418600  36.649  21.579   9.687
 1190POPC   GL118601  36.831  21.322   9.375
 1190POPC   GL218602  36.594  21.140   9.196
 1190POPC   C1A18603  37.050  21.397   8.969
 1190POPC   D2A18604  37.126  21.332   8.511
 1190POPC   C3A18605  37.070  21.620   8.170
 1190POPC   C4A18606  37.033  21.488   7.733
 1190POPC   C1B18607  36.520  21.455   8.915
 1190POPC   C2B18608  36.565  21.328   8.492
 1190POPC   C3B18609  36.724  21.218   8.099
 1190POPC   C4B18610  36.553  21.246   7.696
 1191POPC   NC318611   8.900  11.755   9.614
 1191POPC   PO418612   9.101  12.398   9.339
 1191POPC   GL118613   8.896  12.056   9.129
 1191POPC   GL218614   8.634  12.190   8.909
 1191POPC   C1A18615   8.945  11.877   8.704
 1191POPC   D2A18616   8.923  12.134   8.367
 1191POPC   C3A18617   8.740  12.009   8.043
 1191POPC   C4A18618   9.055  11.893   7.782
 1191POPC   C1B18619   8.911  12.486   8.732
 1191POPC   C2B18620   8.952  12.656   8.356
 1191POPC   C3B18621   8.976  12.508   7.986
 1191POPC   C4B18622   8.789  12.329   7.662
 1192POPC   NC318623  26.635   1.661   9.394
 1192POPC   PO418624  27.052   2.149   9.371
 1192POPC   GL118625  26.744   2.162   9.128
 1192POPC   GL218626  26.794   1.875   8.944
 1192POPC   C1A18627  26.813   2.383   8.759
 1192POPC   D2A18628  26.945   2.090   8.425
 1192POPC   C3A18629  26.779   1.972   8.020
 1192POPC   C4A18630  27.037   2.051   7.662
 1192POPC   C1B18631  26.473   2.035   8.693
 1192POPC   C2B18632  26.324   1.980   8.303
 1192POPC   C3B18633  26.339   1.690   7.988
 1192POPC   C4B18634  26.457   1.623   7.605
 1193POPC   NC318635  19.482  18.058   9.493
 1193POPC   PO418636  20.158  18.186   9.528
 1193POPC   GL118637  19.903  18.202   9.113
 1193POPC   GL218638  19.714  18.523   8.982
 1193POPC   C1A18639  19.586  18.076   8.817
 1193POPC   D2A18640  19.400  18.089   8.438
 1193POPC   C3A18641  19.564  18.022   8.009
 1193POPC   C4A18642  19.800  18.098   7.609
 1193POPC   C1B18643  20.022  18.487   8.654
 1193POPC   C2B18644  20.090  18.414   8.231
 1193POPC   C3B18645  20.279  18.635   7.908
 1193POPC   C4B18646  20.096  18.527   7.525
 1194POPC   NC318647  11.947   7.122   9.499
 1194POPC   PO418648  11.888   6.527   9.267
 1194POPC   GL118649  11.842   6.890   9.047
 1194POPC   GL218650  12.211   6.899   9.070
 1194POPC   C1A18651  11.820   6.947   8.606
 1194POPC   D2A18652  11.872   6.612   8.333
 1194POPC   C3A18653  11.947   6.759   7.918
 1194POPC   C4A18654  12.139   6.808   7.534
 1194POPC   C1B18655  12.346   6.751   8.667
 1194POPC   C2B18656  12.350   6.746   8.211
 1194POPC   C3B18657  12.354   6.459   7.855
 1194POPC   C4B18658  12.519   6.470   7.435
 1195POPC   NC318659  26.350  41.209   9.399
 1195POPC   PO418660  26.135  41.755   9.511
 1195POPC   GL118661  26.073  41.585   9.156
 1195POPC   GL218662  26.419  41.600   9.096
 1195POPC   C1A18663  25.967  41.735   8.762
 1195POPC   D2A18664  25.848  41.482   8.432
 1195POPC   C3A18665  25.650  41.677   8.090
 1195POPC   C4A18666  25.740  41.602   7.666
 1195POPC   C1B18667  26.484  41.826   8.770
 1195POPC   C2B18668  26.358  41.648   8.410
 1195POPC   C3B18669  26.451  41.703   8.014
 1195POPC   C4B18670  26.243  41.600   7.675
 1196POPC   NC318671   4.235  37.339   9.329
 1196POPC   PO418672   4.242  37.973   9.555
 1196POPC   GL118673   4.293  37.798   9.163
 1196POPC   GL218674   3.930  37.730   9.163
 1196POPC   C1A18675   4.582  37.633   8.830
 1196POPC   D2A18676   4.775  37.676   8.424
 1196POPC   C3A18677   4.535  37.805   8.044
 1196POPC   C4A18678   4.785  38.088   7.802
 1196POPC   C1B18679   4.046  37.566   8.758
 1196POPC   C2B18680   4.278  37.534   8.404
 1196POPC   C3B18681   4.285  37.350   8.008
 1196POPC   C4B18682   4.027  37.442   7.715
 1197POPC   NC318683   3.573   3.472   9.640
 1197POPC   PO418684   3.922   3.918   9.337
 1197POPC   GL118685   3.555   3.746   9.132
 1197POPC   GL218686   3.445   3.385   9.147
 1197POPC   C1A18687   3.591   3.649   8.689
 1197POPC   D2A18688   3.550   3.855   8.292
 1197POPC   C3A18689   3.467   3.706   7.872
 1197POPC   C4A18690   3.791   3.592   7.593
 1197POPC   C1B18691   3.368   3.175   8.749
 1197POPC   C2B18692   3.376   3.330   8.319
 1197POPC   C3B18693   3.403   3.183   7.886
 1197POPC   C4B18694   3.154   3.265   7.525
 1198POPC   NC318695  28.080  27.126   9.546
 1198POPC   PO418696  28.538  26.699   9.729
 1198POPC   GL118697  28.505  26.902   9.317
 1198POPC   GL218698  28.774  27.123   9.218
 1198POPC   C1A18699  28.253  26.805   8.943
 1198POPC   D2A18700  28.239  26.927   8.472
 1198POPC   C3A18701  28.107  26.629   8.149
 1198POPC   C4A18702  28.170  26.516   7.714
 1198POPC   C1B18703  28.653  27.053   8.781
 1198POPC   C2B18704  28.723  27.026   8.327
 1198POPC   C3B18705  28.513  26.898   7.906
 1198POPC   C4B18706  28.454  26.968   7.427
 1199POPC   NC318707  25.723  26.536   9.589
 1199POPC   PO418708  26.315  26.930   9.493
 1199POPC   GL118709  26.005  27.038   9.150
 1199POPC   GL218710  25.837  26.715   9.038
 1199POPC   C1A18711  25.911  27.069   8.689
 1199POPC   D2A18712  26.002  26.826   8.326
 1199POPC   C3A18713  25.913  26.937   7.904
 1199POPC   C4A18714  26.039  26.760   7.534
 1199POPC   C1B18715  25.585  26.659   8.627
 1199POPC   C2B18716  25.613  26.559   8.160
 1199POPC   C3B18717  25.814  26.372   7.769
 1199POPC   C4B18718  25.798  26.427   7.259
 1200POPC   NC318719  10.958  39.472   9.321
 1200POPC   PO418720  10.414  38.916   9.478
 1200POPC   GL118721  10.477  39.123   9.062
 1200POPC   GL218722  10.803  39.153   8.961
 1200POPC   C1A18723  10.333  39.005   8.590
 1200POPC   D2A18724  10.136  38.869   8.182
 1200POPC   C3A18725  10.508  38.918   7.971
 1200POPC   C4A18726  10.617  39.257   7.724
 1200POPC   C1B18727  10.621  39.437   8.640
 1200POPC   C2B18728  10.573  39.480   8.186
 1200POPC   C3B18729  10.542  39.745   7.797
 1200POPC   C4B18730  10.901  39.788   7.531
 1201POPC   NC318731  30.473  22.443   9.534
 1201POPC   PO418732  30.922  21.968   9.631
 1201POPC   GL118733  30.975  22.106   9.164
 1201POPC   GL218734  30.830  22.431   9.117
 1201POPC   C1A18735  30.973  22.025   8.680
 1201POPC   D2A18736  30.951  22.347   8.301
 1201POPC   C3A18737  30.892  22.265   7.828
 1201POPC   C4A18738  31.141  22.028   7.521
 1201POPC   C1B18739  30.540  22.149   8.907
 1201POPC   C2B18740  30.487  22.137   8.444
 1201POPC   C3B18741  30.399  22.240   7.992
 1201POPC   C4B18742  30.459  22.097   7.537
 1202POPC   NC318743   2.965  33.155   9.685
 1202POPC   PO418744   2.556  32.675   9.491
 1202POPC   GL118745   2.739  32.964   9.237
 1202POPC   GL218746   3.070  33.069   9.204
 1202POPC   C1A18747   2.818  32.868   8.820
 1202POPC   D2A18748   2.665  33.006   8.433
 1202POPC   C3A18749   2.837  32.741   8.148
 1202POPC   C4A18750   2.821  32.954   7.756
 1202POPC   C1B18751   3.059  33.376   8.844
 1202POPC   C2B18752   2.914  33.512   8.403
 1202POPC   C3B18753   2.768  33.461   7.938
 1202POPC   C4B18754   2.807  33.385   7.445
 1203POPC   NC318755  24.666  13.368   9.420
 1203POPC   PO418756  24.100  13.743   9.515
 1203POPC   GL118757  24.241  13.472   9.196
 1203POPC   GL218758  24.452  13.729   9.101
 1203POPC   C1A18759  24.169  13.424   8.776
 1203POPC   D2A18760  24.033  13.677   8.447
 1203POPC   C3A18761  24.199  13.509   8.080
 1203POPC   C4A18762  24.510  13.517   7.769
 1203POPC   C1B18763  24.594  13.667   8.662
 1203POPC   C2B18764  24.653  13.730   8.213
 1203POPC   C3B18765  24.793  13.931   7.808
 1203POPC   C4B18766  24.665  13.963   7.358
 1204POPC   NC318767  19.680  43.870   9.554
 1204POPC   PO418768  20.078  44.334   9.265
 1204POPC   GL118769  19.951  43.921   9.124
 1204POPC   GL218770  19.585  43.784   9.054
 1204POPC   C1A18771  20.005  43.753   8.737
 1204POPC   D2A18772  19.905  43.725   8.328
 1204POPC   C3A18773  19.988  44.051   8.057
 1204POPC   C4A18774  20.160  43.842   7.721
 1204POPC   C1B18775  19.595  43.462   8.709
 1204POPC   C2B18776  19.429  43.590   8.312
 1204POPC   C3B18777  19.510  43.859   7.973
 1204POPC   C4B18778  19.646  43.664   7.630
 1205POPC   NC318779   4.076  34.761   9.480
 1205POPC   PO418780   4.581  34.350   9.605
 1205POPC   GL118781   4.455  34.561   9.190
 1205POPC   GL218782   4.674  34.785   9.030
 1205POPC   C1A18783   4.071  34.554   8.874
 1205POPC   D2A18784   3.957  34.386   8.478
 1205POPC   C3A18785   4.140  34.597   8.119
 1205POPC   C4A18786   4.095  34.435   7.698
 1205POPC   C1B18787   4.536  34.572   8.643
 1205POPC   C2B18788   4.475  34.229   8.333
 1205POPC   C3B18789   4.542  34.269   7.901
 1205POPC   C4B18790   4.588  34.695   7.832
 1206POPC   NC318791   5.253  35.357   9.520
 1206POPC   PO418792   4.624  35.057   9.491
 1206POPC   GL118793   4.960  35.188   9.155
 1206POPC   GL218794   5.320  35.207   9.057
 1206POPC   C1A18795   4.945  35.463   8.776
 1206POPC   D2A18796   4.887  35.326   8.335
 1206POPC   C3A18797   4.822  35.598   7.984
 1206POPC   C4A18798   4.925  35.485   7.568
 1206POPC   C1B18799   5.503  35.454   8.777
 1206POPC   C2B18800   5.388  35.380   8.391
 1206POPC   C3B18801   5.280  35.351   7.974
 1206POPC   C4B18802   5.425  35.611   7.679
 1207POPC   NC318803  38.096  12.815   9.451
 1207POPC   PO418804  37.424  12.992   9.522
 1207POPC   GL118805  37.683  12.928   9.143
 1207POPC   GL218806  37.919  12.653   9.014
 1207POPC   C1A18807  37.817  13.051   8.730
 1207POPC   D2A18808  37.623  12.894   8.349
 1207POPC   C3A18809  37.426  13.023   7.984
 1207POPC   C4A18810  37.732  13.247   7.844
 1207POPC   C1B18811  37.649  12.519   8.738
 1207POPC   C2B18812  37.661  12.397   8.330
 1207POPC   C3B18813  37.742  12.558   7.933
 1207POPC   C4B18814  37.571  12.283   7.690
 1208POPC   NC318815   1.019  19.029   9.541
 1208POPC   PO418816   1.669  18.717   9.404
 1208POPC   GL118817   1.399  18.978   9.156
 1208POPC   GL218818   1.053  18.821   9.084
 1208POPC   C1A18819   1.284  19.043   8.712
 1208POPC   D2A18820   0.984  19.018   8.395
 1208POPC   C3A18821   1.253  19.121   8.056
 1208POPC   C4A18822   1.249  19.293   7.666
 1208POPC   C1B18823   0.675  18.734   8.849
 1208POPC   C2B18824   0.619  18.620   8.415
 1208POPC   C3B18825   0.685  18.817   8.004
 1208POPC   C4B18826   1.062  18.802   7.712
 1209POPC   NC318827  37.433  35.663   9.497
 1209POPC   PO418828  37.884  35.326   9.773
 1209POPC   GL118829  37.856  35.393   9.300
 1209POPC   GL218830  37.540  35.350   9.143
 1209POPC   C1A18831  37.906  35.410   8.824
 1209POPC   D2A18832  37.864  35.701   8.480
 1209POPC   C3A18833  38.044  35.457   8.143
 1209POPC   C4A18834  37.841  35.321   7.775
 1209POPC   C1B18835  37.450  35.213   8.755
 1209POPC   C2B18836  37.609  35.267   8.390
 1209POPC   C3B18837  37.422  35.156   8.038
 1209POPC   C4B18838  37.312  35.009   7.671
 1210POPC   NC318839  13.373   2.297   9.667
 1210POPC   PO418840  13.287   1.776   9.487
 1210POPC   GL118841  13.363   2.148   9.167
 1210POPC   GL218842  13.197   2.479   9.203
 1210POPC   C1A18843  13.531   2.249   8.728
 1210POPC   D2A18844  13.526   2.118   8.281
 1210POPC   C3A18845  13.714   2.388   7.932
 1210POPC   C4A18846  13.968   2.511   7.574
 1210POPC   C1B18847  13.033   2.352   8.791
 1210POPC   C2B18848  13.026   2.457   8.344
 1210POPC   C3B18849  13.204   2.329   7.931
 1210POPC   C4B18850  13.434   1.943   7.801
 1211POPC   NC318851  30.271  34.101   9.406
 1211POPC   PO418852  29.848  33.584   9.507
 1211POPC   GL118853  29.900  33.829   9.143
 1211POPC   GL218854  30.243  33.680   9.127
 1211POPC   C1A18855  30.072  33.973   8.731
 1211POPC   D2A18856  30.086  33.747   8.339
 1211POPC   C3A18857  30.044  33.922   7.935
 1211POPC   C4A18858  29.640  33.819   7.760
 1211POPC   C1B18859  30.094  33.460   8.781
 1211POPC   C2B18860  30.339  33.291   8.419
 1211POPC   C3B18861  30.348  33.457   8.006
 1211POPC   C4B18862  29.961  33.425   7.764
 1212POPC   NC318863  16.706  38.323   9.644
 1212POPC   PO418864  17.250  38.272   9.315
 1212POPC   GL118865  16.948  38.334   9.057
 1212POPC   GL218866  16.704  38.551   9.194
 1212POPC   C1A18867  16.906  38.209   8.654
 1212POPC   D2A18868  17.040  38.175   8.242
 1212POPC   C3A18869  16.714  38.284   8.004
 1212POPC   C4A18870  16.557  38.226   7.654
 1212POPC   C1B18871  16.651  38.653   8.772
 1212POPC   C2B18872  16.849  38.655   8.368
 1212POPC   C3B18873  16.984  38.706   7.974
 1212POPC   C4B18874  16.600  38.741   7.764
 1213POPC   NC318875  10.814  39.088   9.631
 1213POPC   PO418876  11.414  39.371   9.421
 1213POPC   GL118877  11.325  39.246   9.040
 1213POPC   GL218878  11.295  38.916   9.145
 1213POPC   C1A18879  11.169  39.286   8.634
 1213POPC   D2A18880  11.062  39.623   8.362
 1213POPC   C3A18881  11.024  39.476   7.929
 1213POPC   C4A18882  11.226  39.355   7.541
 1213POPC   C1B18883  11.637  38.924   8.804
 1213POPC   C2B18884  11.610  39.149   8.410
 1213POPC   C3B18885  11.469  39.180   7.985
 1213POPC   C4B18886  11.665  39.065   7.598
 1214POPC   NC318887  28.564  35.749   9.303
 1214POPC   PO418888  28.552  36.416   9.438
 1214POPC   GL118889  28.335  36.223   9.131
 1214POPC   GL218890  28.101  35.981   9.242
 1214POPC   C1A18891  28.484  36.105   8.748
 1214POPC   D2A18892  28.373  36.249   8.405
 1214POPC   C3A18893  28.521  35.999   8.077
 1214POPC   C4A18894  28.471  36.271   7.770
 1214POPC   C1B18895  28.017  35.924   8.806
 1214POPC   C2B18896  27.838  36.095   8.438
 1214POPC   C3B18897  28.024  36.145   8.060
 1214POPC   C4B18898  28.104  35.921   7.722
 1215POPC   NC318899  35.093  19.368   9.305
 1215POPC   PO418900  35.529  18.874   9.473
 1215POPC   GL118901  35.354  18.965   9.106
 1215POPC   GL218902  35.564  19.245   9.093
 1215POPC   C1A18903  35.281  19.018   8.667
 1215POPC   D2A18904  34.980  18.917   8.338
 1215POPC   C3A18905  35.052  18.880   7.924
 1215POPC   C4A18906  35.201  19.288   7.813
 1215POPC   C1B18907  35.817  19.039   8.793
 1215POPC   C2B18908  35.683  18.784   8.454
 1215POPC   C3B18909  35.497  19.018   8.153
 1215POPC   C4B18910  35.734  19.234   7.853
 1216POPC   NC318911  25.627  11.346   9.531
 1216POPC   PO418912  24.975  11.167   9.333
 1216POPC   GL118913  25.383  11.233   9.107
 1216POPC   GL218914  25.389  11.564   9.133
 1216POPC   C1A18915  25.481  11.096   8.725
 1216POPC   D2A18916  25.315  10.927   8.366
 1216POPC   C3A18917  25.373  11.096   8.003
 1216POPC   C4A18918  25.126  10.870   7.757
 1216POPC   C1B18919  25.138  11.525   8.768
 1216POPC   C2B18920  25.269  11.428   8.374
 1216POPC   C3B18921  25.136  11.632   8.031
 1216POPC   C4B18922  25.217  11.864   7.657
 1217POPC   NC318923   9.252  11.190   9.339
 1217POPC   PO418924   8.797  11.328   9.784
 1217POPC   GL118925   8.769  11.414   9.272
 1217POPC   GL218926   9.012  11.556   9.088
 1217POPC   C1A18927   8.718  11.195   8.830
 1217POPC   D2A18928   8.664  11.233   8.401
 1217POPC   C3A18929   8.960  11.094   8.090
 1217POPC   C4A18930   8.933  11.078   7.658
 1217POPC   C1B18931   9.149  11.417   8.668
 1217POPC   C2B18932   9.001  11.606   8.260
 1217POPC   C3B18933   8.740  11.508   7.895
 1217POPC   C4B18934   8.811  11.561   7.457
 1218POPC   NC318935  17.837  32.969   9.639
 1218POPC   PO418936  17.274  33.222   9.592
 1218POPC   GL118937  17.278  33.103   9.138
 1218POPC   GL218938  17.415  33.375   8.997
 1218POPC   C1A18939  17.195  32.939   8.679
 1218POPC   D2A18940  17.137  32.770   8.238
 1218POPC   C3A18941  17.546  32.780   8.007
 1218POPC   C4A18942  17.793  33.018   7.717
 1218POPC   C1B18943  17.285  33.459   8.599
 1218POPC   C2B18944  17.355  33.280   8.210
 1218POPC   C3B18945  17.345  33.248   7.793
 1218POPC   C4B18946  17.468  33.321   7.368
 1219POPC   NC318947  38.344  44.915   9.856
 1219POPC   PO418948  38.645  44.370   9.709
 1219POPC   GL118949  38.497  44.478   9.266
 1219POPC   GL218950  38.771  44.443   9.078
 1219POPC   C1A18951  38.374  44.491   8.784
 1219POPC   D2A18952  38.233  44.803   8.435
 1219POPC   C3A18953  38.155  44.792   7.973
 1219POPC   C4A18954  38.163   0.109   7.632
 1219POPC   C1B18955  38.767  44.787   8.727
 1219POPC   C2B18956  39.036  44.878   8.387
 1219POPC   C3B18957  38.961  44.745   7.969
 1219POPC   C4B18958  38.586  44.761   7.700
 1220POPC   NC318959  18.044  41.125   9.627
 1220POPC   PO418960  18.491  40.559   9.658
 1220POPC   GL118961  18.245  40.660   9.257
 1220POPC   GL218962  18.213  40.990   9.160
 1220POPC   C1A18963  18.327  40.614   8.812
 1220POPC   D2A18964  18.118  40.676   8.430
 1220POPC   C3A18965  18.375  40.646   8.078
 1220POPC   C4A18966  18.245  40.615   7.651
 1220POPC   C1B18967  18.243  41.139   8.702
 1220POPC   C2B18968  18.249  41.127   8.244
 1220POPC   C3B18969  18.054  41.013   7.891
 1220POPC   C4B18970  18.075  41.072   7.462
 1221POPC   NC318971   7.899  30.288   9.557
 1221POPC   PO418972   8.454  30.645   9.392
 1221POPC   GL118973   8.244  30.738   9.083
 1221POPC   GL218974   7.935  30.600   9.164
 1221POPC   C1A18975   8.323  30.813   8.691
 1221POPC   D2A18976   8.429  30.545   8.381
 1221POPC   C3A18977   8.238  30.780   8.096
 1221POPC   C4A18978   8.121  31.080   7.832
 1221POPC   C1B18979   7.972  30.433   8.747
 1221POPC   C2B18980   7.979  30.267   8.331
 1221POPC   C3B18981   8.214  30.297   7.965
 1221POPC   C4B18982   8.140  30.603   7.625
 1222POPC   NC318983  41.100  39.451   9.357
 1222POPC   PO418984  40.916  40.150   9.500
 1222POPC   GL118985  40.917  39.912   9.153
 1222POPC   GL218986  40.555  39.852   9.175
 1222POPC   C1A18987  40.999  39.829   8.712
 1222POPC   D2A18988  41.140  39.645   8.319
 1222POPC   C3A18989  41.062  39.942   8.004
 1222POPC   C4A18990  40.679  39.963   7.759
 1222POPC   C1B18991  40.586  40.118   8.812
 1222POPC   C2B18992  40.682  40.108   8.365
 1222POPC   C3B18993  40.394  40.264   8.058
 1222POPC   C4B18994  40.355  40.602   7.780
 1223POPC   NC318995  20.219  29.603   9.480
 1223POPC   PO418996  19.639  29.942   9.484
 1223POPC   GL118997  19.848  29.912   9.107
 1223POPC   GL218998  20.188  30.062   9.128
 1223POPC   C1A18999  19.726  29.903   8.667
 1223POPC   D2A19000  19.866  29.573   8.384
 1223POPC   C3A19001  19.684  29.619   7.993
 1223POPC   C4A19002  19.480  29.994   7.809
 1223POPC   C1B19003  20.210  29.754   8.775
 1223POPC   C2B19004  20.374  29.577   8.385
 1223POPC   C3B19005  20.343  29.686   7.963
 1223POPC   C4B19006  20.085  29.600   7.609
 1224POPC   NC319007  15.778  10.894   9.755
 1224POPC   PO419008  16.165  10.431   9.353
 1224POPC   GL119009  16.138  10.589   8.953
 1224POPC   GL219010  15.887  10.314   8.946
 1224POPC   C1A19011  15.811  10.660   8.604
 1224POPC   D2A19012  15.749  10.902   8.284
 1224POPC   C3A19013  16.098  10.865   8.105
 1224POPC   C4A19014  16.205  10.607   7.791
 1224POPC   C1B19015  16.124  10.255   8.575
 1224POPC   C2B19016  15.958  10.363   8.165
 1224POPC   C3B19017  16.137  10.113   7.817
 1224POPC   C4B19018  16.202  10.230   7.385
 1225POPC   NC319019  43.680  30.767   9.407
 1225POPC   PO419020  44.158  30.264   9.416
 1225POPC   GL119021  43.903  30.337   9.059
 1225POPC   GL219022  43.554  30.418   9.084
 1225POPC   C1A19023  43.958  30.615   8.707
 1225POPC   D2A19024  44.210  30.573   8.315
 1225POPC   C3A19025  44.002  30.665   7.938
 1225POPC   C4A19026  44.049  31.118   7.868
 1225POPC   C1B19027  43.496  30.268   8.718
 1225POPC   C2B19028  43.545  30.429   8.315
 1225POPC   C3B19029  43.540  30.293   7.887
 1225POPC   C4B19030  43.676  30.372   7.450
 1226POPC   NC319031  14.843   3.307   9.606
 1226POPC   PO419032  15.409   3.534   9.513
 1226POPC   GL119033  15.068   3.586   9.178
 1226POPC   GL219034  14.775   3.843   9.193
 1226POPC   C1A19035  15.232   3.491   8.750
 1226POPC   D2A19036  15.589   3.402   8.451
 1226POPC   C3A19037  15.479   3.495   8.034
 1226POPC   C4A19038  15.297   3.254   7.674
 1226POPC   C1B19039  15.025   3.970   8.798
 1226POPC   C2B19040  15.194   3.843   8.357
 1226POPC   C3B19041  15.017   3.760   7.917
 1226POPC   C4B19042  14.977   3.626   7.481
 1227POPC   NC319043  39.659  27.395   9.494
 1227POPC   PO419044  40.356  27.720   9.414
 1227POPC   GL119045  40.091  27.465   9.197
 1227POPC   GL219046  39.874  27.754   9.195
 1227POPC   C1A19047  39.824  27.375   8.841
 1227POPC   D2A19048  39.926  27.322   8.419
 1227POPC   C3A19049  40.203  27.540   8.113
 1227POPC   C4A19050  40.046  27.451   7.696
 1227POPC   C1B19051  40.105  27.780   8.781
 1227POPC   C2B19052  39.891  27.867   8.407
 1227POPC   C3B19053  39.890  27.899   7.965
 1227POPC   C4B19054  40.033  28.013   7.557
 1228POPC   NC319055  35.338  38.755  10.036
 1228POPC   PO419056  35.091  38.258   9.602
 1228POPC   GL119057  35.344  38.351   9.236
 1228POPC   GL219058  35.535  38.042   9.117
 1228POPC   C1A19059  35.302  38.656   8.875
 1228POPC   D2A19060  35.499  38.578   8.526
 1228POPC   C3A19061  35.429  38.625   8.135
 1228POPC   C4A19062  35.700  38.544   7.781
 1228POPC   C1B19063  35.365  38.138   8.771
 1228POPC   C2B19064  35.235  38.139   8.391
 1228POPC   C3B19065  35.412  38.108   8.033
 1228POPC   C4B19066  35.335  38.198   7.655
 1229POPC   NC319067  18.915   7.811   9.280
 1229POPC   PO419068  19.308   7.323   9.446
 1229POPC   GL119069  19.307   7.554   9.069
 1229POPC   GL219070  18.991   7.478   8.913
 1229POPC   C1A19071  19.391   7.544   8.636
 1229POPC   D2A19072  19.089   7.467   8.335
 1229POPC   C3A19073  19.250   7.364   7.933
 1229POPC   C4A19074  19.181   7.171   7.551
 1229POPC   C1B19075  18.686   7.734   8.659
 1229POPC   C2B19076  18.583   7.579   8.281
 1229POPC   C3B19077  18.824   7.636   7.905
 1229POPC   C4B19078  18.733   7.408   7.542
 1230POPC   NC319079  30.521  24.832   9.412
 1230POPC   PO419080  30.785  25.426   9.492
 1230POPC   GL119081  30.676  25.235   9.136
 1230POPC   GL219082  30.929  25.010   9.139
 1230POPC   C1A19083  30.548  25.175   8.714
 1230POPC   D2A19084  30.513  25.367   8.303
 1230POPC   C3A19085  30.420  25.118   7.995
 1230POPC   C4A19086  30.554  25.059   7.627
 1230POPC   C1B19087  31.028  25.307   8.780
 1230POPC   C2B19088  30.970  25.137   8.363
 1230POPC   C3B19089  30.927  25.208   7.955
 1230POPC   C4B19090  31.066  25.380   7.552
 1231POPC   NC319091  43.626  37.825   9.525
 1231POPC   PO419092  44.411  37.583   9.417
 1231POPC   GL119093  44.075  37.503   9.129
 1231POPC   GL219094  43.940  37.811   9.114
 1231POPC   C1A19095  43.903  37.459   8.706
 1231POPC   D2A19096  43.655  37.368   8.301
 1231POPC   C3A19097  43.928  37.409   7.975
 1231POPC   C4A19098  43.951  37.664   7.602
 1231POPC   C1B19099  43.746  37.944   8.744
 1231POPC   C2B19100  43.882  37.835   8.327
 1231POPC   C3B19101  43.624  37.803   7.976
 1231POPC   C4B19102  43.574  38.026   7.633
 1232POPC   NC319103   2.573  35.430   9.678
 1232POPC   PO419104   3.061  35.597   9.338
 1232POPC   GL119105   2.764  35.360   9.074
 1232POPC   GL219106   2.781  34.984   9.030
 1232POPC   C1A19107   2.846  35.260   8.629
 1232POPC   D2A19108   3.045  35.425   8.296
 1232POPC   C3A19109   2.833  35.470   7.910
 1232POPC   C4A19110   2.716  35.539   7.504
 1232POPC   C1B19111   2.383  35.063   8.791
 1232POPC   C2B19112   2.321  34.940   8.340
 1232POPC   C3B19113   2.464  35.105   7.934
 1232POPC   C4B19114   2.383  35.164   7.480
 1233POPC   NC319115  39.527  24.182   9.450
 1233POPC   PO419116  39.257  24.857   9.459
 1233POPC   GL119117  39.364  24.629   9.142
 1233POPC   GL219118  39.172  24.334   9.098
 1233POPC   C1A19119  39.329  24.739   8.728
 1233POPC   D2A19120  39.351  24.539   8.374
 1233POPC   C3A19121  39.394  24.760   8.042
 1233POPC   C4A19122  39.339  24.684   7.668
 1233POPC   C1B19123  39.525  24.272   8.794
 1233POPC   C2B19124  39.583  24.074   8.396
 1233POPC   C3B19125  39.613  24.259   7.980
 1233POPC   C4B19126  39.506  24.238   7.537
 1234POPC   NC319127  24.676  32.620  10.068
 1234POPC   PO419128  25.222  32.375   9.724
 1234POPC   GL119129  25.026  32.375   9.302
 1234POPC   GL219130  25.345  32.437   9.189
 1234POPC   C1A19131  25.021  32.204   8.852
 1234POPC   D2A19132  25.135  32.336   8.431
 1234POPC   C3A19133  24.993  32.229   7.998
 1234POPC   C4A19134  25.298  32.140   7.671
 1234POPC   C1B19135  25.471  32.690   8.864
 1234POPC   C2B19136  25.579  32.611   8.458
 1234POPC   C3B19137  25.459  32.486   8.060
 1234POPC   C4B19138  25.563  32.681   7.703
 1235POPC   NC319139  34.994  41.359   9.362
 1235POPC   PO419140  34.328  41.193   9.279
 1235POPC   GL119141  34.533  41.419   8.998
 1235POPC   GL219142  34.608  41.723   9.159
 1235POPC   C1A19143  34.522  41.441   8.563
 1235POPC   D2A19144  34.618  41.445   8.145
 1235POPC   C3A19145  34.327  41.484   7.868
 1235POPC   C4A19146  34.118  41.817   7.674
 1235POPC   C1B19147  34.815  41.807   8.773
 1235POPC   C2B19148  34.718  41.939   8.319
 1235POPC   C3B19149  34.698  41.899   7.830
 1235POPC   C4B19150  34.979  41.868   7.423
 1236POPC   NC319151   7.327  29.483   9.401
 1236POPC   PO419152   7.816  29.190   9.506
 1236POPC   GL119153   7.521  29.050   9.171
 1236POPC   GL219154   7.332  28.747   9.145
 1236POPC   C1A19155   7.258  29.122   8.774
 1236POPC   D2A19156   7.154  29.248   8.341
 1236POPC   C3A19157   7.406  29.395   7.990
 1236POPC   C4A19158   7.332  29.208   7.622
 1236POPC   C1B19159   7.600  28.713   8.769
 1236POPC   C2B19160   7.433  28.819   8.353
 1236POPC   C3B19161   7.622  28.941   7.968
 1236POPC   C4B19162   7.772  28.878   7.527
 1237POPC   NC319163  16.622  18.585   9.552
 1237POPC   PO419164  17.089  18.864   9.363
 1237POPC   GL119165  16.720  19.075   9.185
 1237POPC   GL219166  16.478  18.804   9.108
 1237POPC   C1A19167  16.829  19.298   8.787
 1237POPC   D2A19168  16.766  19.108   8.373
 1237POPC   C3A19169  16.609  19.269   8.000
 1237POPC   C4A19170  16.989  19.261   7.784
 1237POPC   C1B19171  16.803  18.782   8.776
 1237POPC   C2B19172  17.032  18.675   8.402
 1237POPC   C3B19173  16.909  18.766   7.990
 1237POPC   C4B19174  16.879  18.615   7.589
 1238POPC   NC319175  22.018  37.484   9.826
 1238POPC   PO419176  22.614  37.321   9.552
 1238POPC   GL119177  22.343  37.663   9.383
 1238POPC   GL219178  22.526  37.921   9.230
 1238POPC   C1A19179  22.156  37.681   8.935
 1238POPC   D2A19180  22.188  37.844   8.459
 1238POPC   C3A19181  22.161  37.630   8.020
 1238POPC   C4A19182  22.122  37.701   7.548
 1238POPC   C1B19183  22.614  37.832   8.777
 1238POPC   C2B19184  22.620  38.113   8.437
 1238POPC   C3B19185  22.586  37.922   8.049
 1238POPC   C4B19186  22.614  37.787   7.644
 1239POPC   NC319187  38.149  40.582   9.363
 1239POPC   PO419188  38.673  40.816   9.736
 1239POPC   GL119189  38.588  40.846   9.262
 1239POPC   GL219190  38.833  40.729   9.039
 1239POPC   C1A19191  38.370  40.982   8.860
 1239POPC   D2A19192  38.265  41.007   8.403
 1239POPC   C3A19193  38.652  40.998   8.134
 1239POPC   C4A19194  38.788  40.767   7.748
 1239POPC   C1B19195  38.807  40.382   8.741
 1239POPC   C2B19196  38.721  40.464   8.331
 1239POPC   C3B19197  38.444  40.495   8.010
 1239POPC   C4B19198  38.181  40.263   7.770
 1240POPC   NC319199  44.863  11.814   9.545
 1240POPC   PO419200  44.559  12.313   9.712
 1240POPC   GL119201  44.509  12.149   9.307
 1240POPC   GL219202  44.717  12.449   9.220
 1240POPC   C1A19203  44.695  12.044   8.891
 1240POPC   D2A19204  44.666  12.250   8.496
 1240POPC   C3A19205  44.645  12.011   8.105
 1240POPC   C4A19206  44.294  12.026   7.813
 1240POPC   C1B19207  44.848  12.635   8.815
 1240POPC   C2B19208   0.077  12.532   8.419
 1240POPC   C3B19209   0.001  12.412   7.974
 1240POPC   C4B19210  44.737  12.227   7.650
 1241POPC   NC319211  33.070  11.731   9.736
 1241POPC   PO419212  32.937  11.099   9.572
 1241POPC   GL119213  33.144  11.209   9.213
 1241POPC   GL219214  33.141  11.556   9.177
 1241POPC   C1A19215  33.286  11.098   8.790
 1241POPC   D2A19216  33.060  11.078   8.385
 1241POPC   C3A19217  33.227  11.037   7.959
 1241POPC   C4A19218  32.947  10.984   7.567
 1241POPC   C1B19219  33.149  11.590   8.683
 1241POPC   C2B19220  33.149  11.657   8.187
 1241POPC   C3B19221  33.257  11.522   7.751
 1241POPC   C4B19222  33.321  11.583   7.264
 1242POPC   NC319223  38.803  32.206   9.592
 1242POPC   PO419224  38.203  31.894   9.411
 1242POPC   GL119225  38.455  32.083   9.081
 1242POPC   GL219226  38.797  32.023   9.132
 1242POPC   C1A19227  38.439  32.293   8.668
 1242POPC   D2A19228  38.517  32.435   8.247
 1242POPC   C3A19229  38.241  32.309   7.907
 1242POPC   C4A19230  38.277  32.239   7.492
 1242POPC   C1B19231  38.935  31.875   8.759
 1242POPC   C2B19232  38.845  32.077   8.388
 1242POPC   C3B19233  38.692  32.049   7.961
 1242POPC   C4B19234  38.747  32.018   7.505
 1243POPC   NC319235  23.824  20.045   9.524
 1243POPC   PO419236  23.898  19.431   9.302
 1243POPC   GL119237  23.723  19.758   9.120
 1243POPC   GL219238  23.394  19.778   9.210
 1243POPC   C1A19239  23.702  20.012   8.788
 1243POPC   D2A19240  23.841  19.769   8.423
 1243POPC   C3A19241  23.816  20.040   8.089
 1243POPC   C4A19242  23.941  19.948   7.701
 1243POPC   C1B19243  23.325  19.562   8.800
 1243POPC   C2B19244  23.389  19.533   8.364
 1243POPC   C3B19245  23.589  19.590   7.966
 1243POPC   C4B19246  23.392  19.610   7.588
 1244POPC   NC319247  13.129  35.697   9.306
 1244POPC   PO419248  12.596  35.291   9.557
 1244POPC   GL119249  12.566  35.296   9.070
 1244POPC   GL219250  12.898  35.401   8.868
 1244POPC   C1A19251  12.478  35.367   8.602
 1244POPC   D2A19252  12.816  35.242   8.290
 1244POPC   C3A19253  12.733  35.242   7.847
 1244POPC   C4A19254  12.568  35.515   7.552
 1244POPC   C1B19255  13.265  35.191   8.645
 1244POPC   C2B19256  13.457  35.153   8.225
 1244POPC   C3B19257  13.325  35.369   7.865
 1244POPC   C4B19258  13.033  35.673   7.711
 1245POPC   NC319259  14.578  28.149   9.558
 1245POPC   PO419260  14.093  28.617   9.547
 1245POPC   GL119261  14.213  28.346   9.178
 1245POPC   GL219262  14.453  28.114   9.089
 1245POPC   C1A19263  14.409  28.505   8.786
 1245POPC   D2A19264  14.227  28.577   8.404
 1245POPC   C3A19265  14.420  28.539   8.057
 1245POPC   C4A19266  14.493  28.599   7.652
 1245POPC   C1B19267  14.457  27.987   8.712
 1245POPC   C2B19268  14.431  28.109   8.332
 1245POPC   C3B19269  14.270  28.065   7.949
 1245POPC   C4B19270  14.460  28.095   7.550
 1246POPC   NC319271  38.705   7.835   9.427
 1246POPC   PO419272  38.402   8.451   9.334
 1246POPC   GL119273  38.418   8.056   9.065
 1246POPC   GL219274  38.141   7.909   9.055
 1246POPC   C1A19275  38.565   7.976   8.633
 1246POPC   D2A19276  38.527   8.363   8.370
 1246POPC   C3A19277  38.373   8.327   7.963
 1246POPC   C4A19278  38.448   7.986   7.669
 1246POPC   C1B19279  38.094   8.157   8.664
 1246POPC   C2B19280  38.063   8.023   8.199
 1246POPC   C3B19281  37.965   8.070   7.720
 1246POPC   C4B19282  38.115   8.085   7.273
 1247POPC   NC319283  34.743   7.582   9.499
 1247POPC   PO419284  34.506   8.269   9.446
 1247POPC   GL119285  34.819   8.226   9.120
 1247POPC   GL219286  34.505   8.156   8.934
 1247POPC   C1A19287  34.931   8.228   8.683
 1247POPC   D2A19288  34.680   8.096   8.333
 1247POPC   C3A19289  34.814   8.236   7.907
 1247POPC   C4A19290  34.739   8.314   7.445
 1247POPC   C1B19291  34.204   7.902   8.730
 1247POPC   C2B19292  34.251   7.760   8.305
 1247POPC   C3B19293  34.353   8.026   7.937
 1247POPC   C4B19294  34.293   8.073   7.495
 1248POPC   NC319295  27.740   4.523   9.661
 1248POPC   PO419296  27.420   5.101   9.607
 1248POPC   GL119297  27.382   5.214   9.172
 1248POPC   GL219298  27.694   5.350   9.065
 1248POPC   C1A19299  27.343   5.046   8.727
 1248POPC   D2A19300  27.350   4.975   8.257
 1248POPC   C3A19301  27.677   4.974   7.917
 1248POPC   C4A19302  27.568   4.927   7.492
 1248POPC   C1B19303  27.386   5.557   8.784
 1248POPC   C2B19304  27.257   5.486   8.349
 1248POPC   C3B19305  27.421   5.432   7.927
 1248POPC   C4B19306  27.592   5.420   7.498
 1249POPC   NC319307  42.564  31.646   9.452
 1249POPC   PO419308  42.263  31.028   9.333
 1249POPC   GL119309  42.112  31.425   9.114
 1249POPC   GL219310  42.287  31.747   9.063
 1249POPC   C1A19311  42.146  31.485   8.658
 1249POPC   D2A19312  42.450  31.372   8.386
 1249POPC   C3A19313  42.274  31.494   8.001
 1249POPC   C4A19314  41.902  31.401   7.760
 1249POPC   C1B19315  42.671  31.664   8.780
 1249POPC   C2B19316  42.901  31.619   8.355
 1249POPC   C3B19317  42.760  31.669   7.917
 1249POPC   C4B19318  42.689  31.733   7.459
 1250POPC   NC319319  40.799  12.442   9.453
 1250POPC   PO419320  41.161  11.781   9.491
 1250POPC   GL119321  41.039  11.978   9.116
 1250POPC   GL219322  40.689  12.079   9.098
 1250POPC   C1A19323  40.969  12.060   8.677
 1250POPC   D2A19324  40.803  12.014   8.259
 1250POPC   C3A19325  41.012  11.767   7.924
 1250POPC   C4A19326  40.932  11.799   7.456
 1250POPC   C1B19327  40.578  12.391   8.783
 1250POPC   C2B19328  40.414  12.531   8.422
 1250POPC   C3B19329  40.527  12.404   8.019
 1250POPC   C4B19330  40.651  12.086   7.757
 1251POPC   NC319331  30.370  25.684   9.518
 1251POPC   PO419332  30.105  25.033   9.467
 1251POPC   GL119333  30.178  25.141   9.051
 1251POPC   GL219334  30.238  25.512   9.056
 1251POPC   C1A19335  30.133  24.902   8.632
 1251POPC   D2A19336  29.780  24.782   8.374
 1251POPC   C3A19337  29.685  24.836   7.936
 1251POPC   C4A19338  29.950  25.094   7.716
 1251POPC   C1B19339  30.116  25.453   8.632
 1251POPC   C2B19340  30.001  25.291   8.243
 1251POPC   C3B19341  30.125  25.532   7.895
 1251POPC   C4B19342  30.218  25.415   7.454
 1252POPC   NC319343  35.144  13.967   9.467
 1252POPC   PO419344  35.665  14.409   9.472
 1252POPC   GL119345  35.424  14.295   9.161
 1252POPC   GL219346  35.268  14.625   9.095
 1252POPC   C1A19347  35.424  14.156   8.761
 1252POPC   D2A19348  35.411  14.427   8.403
 1252POPC   C3A19349  35.533  14.252   7.989
 1252POPC   C4A19350  35.675  14.293   7.538
 1252POPC   C1B19351  34.969  14.366   8.838
 1252POPC   C2B19352  34.881  14.425   8.408
 1252POPC   C3B19353  35.078  14.508   8.025
 1252POPC   C4B19354  35.128  14.440   7.630
 1253POPC   NC319355  20.759  27.304   9.889
 1253POPC   PO419356  20.632  27.890   9.666
 1253POPC   GL119357  20.403  27.756   9.245
 1253POPC   GL219358  20.611  27.961   9.125
 1253POPC   C1A19359  20.441  27.548   8.809
 1253POPC   D2A19360  20.347  27.564   8.337
 1253POPC   C3A19361  20.478  27.289   8.011
 1253POPC   C4A19362  20.534  27.502   7.653
 1253POPC   C1B19363  20.649  28.034   8.737
 1253POPC   C2B19364  20.769  27.838   8.401
 1253POPC   C3B19365  20.663  27.823   8.015
 1253POPC   C4B19366  20.825  27.971   7.649
 1254POPC   NC319367  41.856  10.309   9.664
 1254POPC   PO419368  41.431  10.819   9.542
 1254POPC   GL119369  41.531  10.620   9.171
 1254POPC   GL219370  41.568  10.275   9.229
 1254POPC   C1A19371  41.397  10.611   8.759
 1254POPC   D2A19372  41.597  10.506   8.390
 1254POPC   C3A19373  41.384  10.547   8.023
 1254POPC   C4A19374  41.233  10.794   7.661
 1254POPC   C1B19375  41.682  10.167   8.799
 1254POPC   C2B19376  41.749  10.026   8.364
 1254POPC   C3B19377  41.580  10.065   7.941
 1254POPC   C4B19378  41.830  10.122   7.581
 1255POPC   NC319379   0.270  43.229   9.479
 1255POPC   PO419380   0.883  43.170   9.178
 1255POPC   GL119381   0.602  42.996   8.948
 1255POPC   GL219382   0.329  43.220   8.965
 1255POPC   C1A19383   0.569  43.052   8.517
 1255POPC   D2A19384   0.363  43.344   8.241
 1255POPC   C3A19385   0.651  43.368   7.906
 1255POPC   C4A19386   0.847  42.998   7.722
 1255POPC   C1B19387   0.063  42.980   8.675
 1255POPC   C2B19388   0.196  42.796   8.280
 1255POPC   C3B19389   0.356  42.905   7.887
 1255POPC   C4B19390   0.161  42.782   7.475
 1256POPC   NC319391  36.600  29.479   9.497
 1256POPC   PO419392  37.161  29.912   9.502
 1256POPC   GL119393  36.899  29.876   9.201
 1256POPC   GL219394  36.579  29.992   9.246
 1256POPC   C1A19395  36.966  30.056   8.814
 1256POPC   D2A19396  37.170  29.926   8.472
 1256POPC   C3A19397  37.010  30.137   8.131
 1256POPC   C4A19398  37.026  29.960   7.734
 1256POPC   C1B19399  36.546  29.768   8.829
 1256POPC   C2B19400  36.665  29.888   8.406
 1256POPC   C3B19401  36.536  29.939   7.960
 1256POPC   C4B19402  36.604  29.799   7.527
 1257POPC   NC319403   4.637  33.276   9.449
 1257POPC   PO419404   5.377  33.307   9.533
 1257POPC   GL119405   5.237  33.099   9.122
 1257POPC   GL219406   4.877  32.984   9.115
 1257POPC   C1A19407   5.119  33.159   8.667
 1257POPC   D2A19408   4.998  32.862   8.348
 1257POPC   C3A19409   5.188  32.929   7.978
 1257POPC   C4A19410   5.261  33.343   7.795
 1257POPC   C1B19411   4.657  32.949   8.723
 1257POPC   C2B19412   4.614  33.191   8.325
 1257POPC   C3B19413   4.762  33.403   7.913
 1257POPC   C4B19414   4.623  33.342   7.459
 1258POPC   NC319415  13.741  10.190   9.702
 1258POPC   PO419416  13.555  10.775   9.638
 1258POPC   GL119417  13.531  10.566   9.236
 1258POPC   GL219418  13.862  10.528   9.097
 1258POPC   C1A19419  13.405  10.499   8.800
 1258POPC   D2A19420  13.630  10.596   8.443
 1258POPC   C3A19421  13.472  10.421   8.075
 1258POPC   C4A19422  13.396  10.625   7.714
 1258POPC   C1B19423  13.910  10.257   8.720
 1258POPC   C2B19424  13.893  10.178   8.264
 1258POPC   C3B19425  13.902  10.289   7.811
 1258POPC   C4B19426  13.948  10.149   7.360
 1259POPC   NC319427  22.651  39.067   9.561
 1259POPC   PO419428  22.510  39.676   9.414
 1259POPC   GL119429  22.758  39.339   9.123
 1259POPC   GL219430  22.816  38.917   9.113
 1259POPC   C1A19431  23.116  39.201   8.784
 1259POPC   D2A19432  23.279  38.924   8.437
 1259POPC   C3A19433  23.258  39.073   8.023
 1259POPC   C4A19434  23.087  39.184   7.647
 1259POPC   C1B19435  22.648  39.042   8.726
 1259POPC   C2B19436  22.804  39.105   8.326
 1259POPC   C3B19437  22.771  38.923   7.925
 1259POPC   C4B19438  22.609  39.086   7.515
 1260POPC   NC319439   2.534  34.001   9.451
 1260POPC   PO419440   2.643  33.460   9.813
 1260POPC   GL119441   2.763  33.495   9.322
 1260POPC   GL219442   2.995  33.789   9.244
 1260POPC   C1A19443   2.643  33.675   8.874
 1260POPC   D2A19444   2.512  34.052   8.620
 1260POPC   C3A19445   2.609  33.950   8.194
 1260POPC   C4A19446   2.665  33.933   7.755
 1260POPC   C1B19447   2.980  34.068   8.860
 1260POPC   C2B19448   3.071  34.051   8.425
 1260POPC   C3B19449   3.062  34.261   8.025
 1260POPC   C4B19450   3.120  34.136   7.629
 1261POPC   NC319451  36.279  39.049   9.740
 1261POPC   PO419452  36.893  39.127   9.509
 1261POPC   GL119453  36.782  39.139   9.093
 1261POPC   GL219454  37.086  39.314   9.024
 1261POPC   C1A19455  36.731  39.193   8.658
 1261POPC   D2A19456  36.974  39.408   8.333
 1261POPC   C3A19457  36.751  39.458   7.934
 1261POPC   C4A19458  36.590  39.068   7.762
 1261POPC   C1B19459  37.390  39.586   8.783
 1261POPC   C2B19460  37.276  39.832   8.400
 1261POPC   C3B19461  37.253  39.639   7.976
 1261POPC   C4B19462  37.229  39.635   7.531
 1262POPC   NC319463  31.984  19.291   9.379
 1262POPC   PO419464  31.999  20.005   9.528
 1262POPC   GL119465  32.192  19.980   9.137
 1262POPC   GL219466  32.210  19.660   9.124
 1262POPC   C1A19467  32.345  19.884   8.707
 1262POPC   D2A19468  32.432  19.861   8.295
 1262POPC   C3A19469  32.169  20.037   7.981
 1262POPC   C4A19470  32.444  19.902   7.670
 1262POPC   C1B19471  32.100  19.396   8.737
 1262POPC   C2B19472  32.334  19.295   8.367
 1262POPC   C3B19473  32.410  19.460   7.960
 1262POPC   C4B19474  32.060  19.584   7.740
 1263POPC   NC319475  20.821  20.089   9.491
 1263POPC   PO419476  20.433  19.528   9.592
 1263POPC   GL119477  20.559  19.754   9.199
 1263POPC   GL219478  20.891  19.789   9.072
 1263POPC   C1A19479  20.490  19.888   8.732
 1263POPC   D2A19480  20.682  19.942   8.313
 1263POPC   C3A19481  20.407  19.932   7.973
 1263POPC   C4A19482  20.148  19.651   7.758
 1263POPC   C1B19483  21.027  19.991   8.728
 1263POPC   C2B19484  21.111  20.219   8.348
 1263POPC   C3B19485  20.991  20.310   7.926
 1263POPC   C4B19486  20.993  20.141   7.560
 1264POPC   NC319487  14.000  22.471   9.512
 1264POPC   PO419488  14.387  23.022   9.544
 1264POPC   GL119489  14.423  22.923   9.156
 1264POPC   GL219490  14.098  22.743   9.088
 1264POPC   C1A19491  14.594  23.130   8.816
 1264POPC   D2A19492  14.425  23.128   8.416
 1264POPC   C3A19493  14.595  23.298   8.068
 1264POPC   C4A19494  14.827  23.057   7.781
 1264POPC   C1B19495  14.370  22.647   8.737
 1264POPC   C2B19496  14.306  22.632   8.329
 1264POPC   C3B19497  14.449  22.552   7.953
 1264POPC   C4B19498  14.316  22.886   7.736
 1265POPC   NC319499  43.236  41.881   9.403
 1265POPC   PO419500  43.208  41.249   9.531
 1265POPC   GL119501  43.241  41.437   9.130
 1265POPC   GL219502  42.880  41.455   9.163
 1265POPC   C1A19503  43.099  41.723   8.780
 1265POPC   D2A19504  42.907  41.779   8.379
 1265POPC   C3A19505  43.089  41.965   7.987
 1265POPC   C4A19506  43.194  42.178   7.569
 1265POPC   C1B19507  42.909  41.243   8.764
 1265POPC   C2B19508  43.170  41.307   8.432
 1265POPC   C3B19509  43.113  41.459   8.036
 1265POPC   C4B19510  43.254  41.591   7.672
 1266POPC   NC319511  22.199  13.199   9.418
 1266POPC   PO419512  21.982  12.533   9.638
 1266POPC   GL119513  22.082  12.515   9.155
 1266POPC   GL219514  22.306  12.812   9.087
 1266POPC   C1A19515  22.284  12.467   8.717
 1266POPC   D2A19516  22.398  12.677   8.321
 1266POPC   C3A19517  22.135  12.698   7.905
 1266POPC   C4A19518  22.047  12.905   7.489
 1266POPC   C1B19519  22.180  12.996   8.692
 1266POPC   C2B19520  21.946  12.940   8.313
 1266POPC   C3B19521  21.891  13.186   7.975
 1266POPC   C4B19522  21.795  13.324   7.611
 1267POPC   NC319523  21.824  40.933   9.497
 1267POPC   PO419524  22.332  40.660   9.373
 1267POPC   GL119525  22.325  41.005   9.087
 1267POPC   GL219526  21.998  41.149   9.018
 1267POPC   C1A19527  22.512  40.923   8.699
 1267POPC   D2A19528  22.416  40.538   8.516
 1267POPC   C3A19529  22.309  40.562   8.116
 1267POPC   C4A19530  22.475  40.873   7.848
 1267POPC   C1B19531  22.000  40.800   8.746
 1267POPC   C2B19532  21.872  40.798   8.338
 1267POPC   C3B19533  21.961  40.873   7.895
 1267POPC   C4B19534  21.786  40.695   7.520
 1268POPC   NC319535  37.389  16.758   9.408
 1268POPC   PO419536  37.940  16.557   9.724
 1268POPC   GL119537  37.811  16.594   9.214
 1268POPC   GL219538  37.750  16.924   9.037
 1268POPC   C1A19539  37.731  16.456   8.769
 1268POPC   D2A19540  37.753  16.551   8.319
 1268POPC   C3A19541  37.977  16.298   8.040
 1268POPC   C4A19542  37.552  16.251   7.909
 1268POPC   C1B19543  37.512  16.913   8.641
 1268POPC   C2B19544  37.310  16.796   8.241
 1268POPC   C3B19545  37.468  16.741   7.821
 1268POPC   C4B19546  37.514  16.924   7.394
 1269POPC   NC319547  12.148  42.011   9.966
 1269POPC   PO419548  12.083  41.349   9.626
 1269POPC   GL119549  12.197  41.463   9.196
 1269POPC   GL219550  11.853  41.496   9.107
 1269POPC   C1A19551  12.202  41.687   8.779
 1269POPC   D2A19552  12.145  41.917   8.402
 1269POPC   C3A19553  12.150  41.702   7.999
 1269POPC   C4A19554  11.951  41.638   7.617
 1269POPC   C1B19555  11.800  41.372   8.683
 1269POPC   C2B19556  12.012  41.340   8.319
 1269POPC   C3B19557  11.951  41.215   7.898
 1269POPC   C4B19558  11.592  41.164   7.674
 1270POPC   NC319559  27.417  42.464   9.455
 1270POPC   PO419560  27.861  42.997   9.367
 1270POPC   GL119561  27.780  42.615   9.067
 1270POPC   GL219562  27.679  42.275   9.063
 1270POPC   C1A19563  27.705  42.526   8.619
 1270POPC   D2A19564  27.544  42.767   8.288
 1270POPC   C3A19565  27.681  42.466   7.980
 1270POPC   C4A19566  27.513  42.392   7.575
 1270POPC   C1B19567  27.306  42.269   8.805
 1270POPC   C2B19568  27.229  42.378   8.382
 1270POPC   C3B19569  27.241  42.212   7.977
 1270POPC   C4B19570  27.086  42.037   7.637
 1271POPC   NC319571   2.246  28.476   9.466
 1271POPC   PO419572   1.686  28.155   9.572
 1271POPC   GL119573   1.928  28.169   9.175
 1271POPC   GL219574   2.299  28.082   9.178
 1271POPC   C1A19575   2.026  28.434   8.815
 1271POPC   D2A19576   1.882  28.573   8.387
 1271POPC   C3A19577   2.103  28.508   8.002
 1271POPC   C4A19578   1.774  28.481   7.707
 1271POPC   C1B19579   2.481  28.208   8.806
 1271POPC   C2B19580   2.337  28.295   8.410
 1271POPC   C3B19581   2.420  28.121   8.016
 1271POPC   C4B19582   2.137  28.095   7.671
 1272POPC   NC319583  11.900   5.294   9.209
 1272POPC   PO419584  11.463   5.156   9.699
 1272POPC   GL119585  11.299   5.259   9.300
 1272POPC   GL219586  10.994   5.055   9.248
 1272POPC   C1A19587  11.274   5.268   8.854
 1272POPC   D2A19588  11.092   5.356   8.460
 1272POPC   C3A19589  11.362   5.309   8.071
 1272POPC   C4A19590  11.314   5.086   7.661
 1272POPC   C1B19591  10.960   4.800   8.877
 1272POPC   C2B19592  11.227   4.844   8.519
 1272POPC   C3B19593  11.218   4.807   8.092
 1272POPC   C4B19594  10.870   4.812   7.789
 1273POPC   NC319595  23.211  25.551   9.423
 1273POPC   PO419596  22.788  25.022   9.478
 1273POPC   GL119597  22.890  25.272   9.112
 1273POPC   GL219598  23.224  25.323   8.971
 1273POPC   C1A19599  22.735  25.389   8.704
 1273POPC   D2A19600  22.902  25.342   8.279
 1273POPC   C3A19601  22.631  25.181   7.951
 1273POPC   C4A19602  22.496  25.427   7.606
 1273POPC   C1B19603  23.191  25.663   8.663
 1273POPC   C2B19604  22.957  25.861   8.361
 1273POPC   C3B19605  23.129  25.860   7.968
 1273POPC   C4B19606  23.023  25.491   7.709
 1274POPC   NC319607  32.928  24.780   9.474
 1274POPC   PO419608  32.589  24.284   9.405
 1274POPC   GL119609  32.865  24.284   9.132
 1274POPC   GL219610  33.173  24.209   9.294
 1274POPC   C1A19611  32.765  24.362   8.736
 1274POPC   D2A19612  32.870  24.520   8.371
 1274POPC   C3A19613  33.075  24.317   8.054
 1274POPC   C4A19614  32.777  24.513   7.796
 1274POPC   C1B19615  33.271  24.292   8.804
 1274POPC   C2B19616  33.346  24.609   8.417
 1274POPC   C3B19617  33.177  24.821   8.019
 1274POPC   C4B19618  33.212  24.650   7.573
 1275POPC   NC319619  39.867  36.297   9.594
 1275POPC   PO419620  40.235  35.747   9.603
 1275POPC   GL119621  40.183  36.021   9.262
 1275POPC   GL219622  39.844  35.920   9.202
 1275POPC   C1A19623  40.121  36.011   8.793
 1275POPC   D2A19624  40.223  36.331   8.479
 1275POPC   C3A19625  40.212  36.208   8.061
 1275POPC   C4A19626  40.100  35.870   7.734
 1275POPC   C1B19627  39.706  36.279   8.905
 1275POPC   C2B19628  39.672  36.299   8.433
 1275POPC   C3B19629  39.723  36.098   8.027
 1275POPC   C4B19630  39.904  36.346   7.668
 1276POPC   NC319631  29.405  33.741   9.409
 1276POPC   PO419632  28.850  34.134   9.422
 1276POPC   GL119633  29.041  33.926   9.089
 1276POPC   GL219634  29.204  33.585   8.965
 1276POPC   C1A19635  29.090  34.052   8.702
 1276POPC   D2A19636  29.143  33.915   8.303
 1276POPC   C3A19637  29.195  34.097   7.909
 1276POPC   C4A19638  29.182  33.784   7.576
 1276POPC   C1B19639  28.796  33.575   8.794
 1276POPC   C2B19640  28.640  33.672   8.400
 1276POPC   C3B19641  28.786  33.714   7.988
 1276POPC   C4B19642  28.791  33.462   7.638
 1277POPC   NC319643   3.711   8.487   9.569
 1277POPC   PO419644   3.256   7.981   9.424
 1277POPC   GL119645   3.485   8.241   9.167
 1277POPC   GL219646   3.213   8.336   8.919
 1277POPC   C1A19647   3.712   8.335   8.821
 1277POPC   D2A19648   3.549   8.277   8.415
 1277POPC   C3A19649   3.701   8.468   8.049
 1277POPC   C4A19650   3.459   8.473   7.703
 1277POPC   C1B19651   3.381   7.913   8.762
 1277POPC   C2B19652   3.313   7.742   8.340
 1277POPC   C3B19653   3.523   7.964   7.997
 1277POPC   C4B19654   3.736   8.043   7.621
 1278POPC   NC319655  38.409  41.963   9.732
 1278POPC   PO419656  38.563  42.607   9.571
 1278POPC   GL119657  38.613  42.500   9.134
 1278POPC   GL219658  38.635  42.154   9.182
 1278POPC   C1A19659  38.347  42.497   8.756
 1278POPC   D2A19660  38.360  42.344   8.327
 1278POPC   C3A19661  38.189  42.122   7.979
 1278POPC   C4A19662  38.367  42.329   7.625
 1278POPC   C1B19663  38.527  42.025   8.743
 1278POPC   C2B19664  38.692  41.956   8.313
 1278POPC   C3B19665  38.680  41.999   7.856
 1278POPC   C4B19666  38.722  42.053   7.371
 1279POPC   NC319667  15.018  17.254   9.586
 1279POPC   PO419668  15.433  17.837   9.656
 1279POPC   GL119669  15.356  17.727   9.192
 1279POPC   GL219670  15.344  17.401   9.219
 1279POPC   C1A19671  15.178  17.687   8.727
 1279POPC   D2A19672  14.880  17.492   8.402
 1279POPC   C3A19673  14.992  17.469   7.988
 1279POPC   C4A19674  15.282  17.746   7.742
 1279POPC   C1B19675  15.302  17.228   8.882
 1279POPC   C2B19676  15.293  17.174   8.472
 1279POPC   C3B19677  15.373  17.089   8.056
 1279POPC   C4B19678  15.292  17.252   7.643
 1280POPC   NC319679  31.296  24.532  10.338
 1280POPC   PO419680  31.519  24.497   9.649
 1280POPC   GL119681  31.458  24.546   9.177
 1280POPC   GL219682  31.733  24.717   9.031
 1280POPC   C1A19683  31.235  24.445   8.816
 1280POPC   D2A19684  31.439  24.495   8.433
 1280POPC   C3A19685  31.177  24.548   8.103
 1280POPC   C4A19686  31.392  24.463   7.715
 1280POPC   C1B19687  31.752  24.298   8.832
 1280POPC   C2B19688  31.893  24.251   8.421
 1280POPC   C3B19689  31.777  24.420   8.040
 1280POPC   C4B19690  31.814  24.194   7.650
 1281POPC   NC319691  10.300  40.872   9.970
 1281POPC   PO419692  10.584  40.487   9.474
 1281POPC   GL119693  10.758  40.789   9.187
 1281POPC   GL219694  10.549  40.565   8.964
 1281POPC   C1A19695  10.732  41.014   8.781
 1281POPC   D2A19696  10.535  40.819   8.438
 1281POPC   C3A19697  10.497  41.066   8.087
 1281POPC   C4A19698  10.498  41.010   7.669
 1281POPC   C1B19699  10.926  40.513   8.787
 1281POPC   C2B19700  11.005  40.625   8.398
 1281POPC   C3B19701  10.811  40.669   7.992
 1281POPC   C4B19702  10.861  40.681   7.542
 1282POPC   NC319703  10.847  11.211   9.727
 1282POPC   PO419704  10.395  11.428   9.262
 1282POPC   GL119705  10.474  11.249   8.897
 1282POPC   GL219706  10.146  11.163   8.829
 1282POPC   C1A19707  10.542  11.190   8.483
 1282POPC   D2A19708  10.186  11.254   8.298
 1282POPC   C3A19709  10.299  11.125   7.944
 1282POPC   C4A19710  10.699  11.274   7.857
 1282POPC   C1B19711  10.141  11.612   8.657
 1282POPC   C2B19712  10.005  11.748   8.227
 1282POPC   C3B19713  10.194  11.618   7.828
 1282POPC   C4B19714  10.341  11.557   7.408
 1283POPC   NC319715  41.932  44.229   9.393
 1283POPC   PO419716  42.019  44.813   9.634
 1283POPC   GL119717  41.645  44.805   9.260
 1283POPC   GL219718  41.682  44.499   9.066
 1283POPC   C1A19719  41.340  44.726   8.818
 1283POPC   D2A19720  41.554  44.485   8.457
 1283POPC   C3A19721  41.579  44.618   7.995
 1283POPC   C4A19722  41.502  44.425   7.577
 1283POPC   C1B19723  41.837  44.845   8.796
 1283POPC   C2B19724  41.989  44.839   8.409
 1283POPC   C3B19725  41.920   0.009   8.019
 1283POPC   C4B19726  41.832  44.814   7.586
 1284POPC   NC319727  11.629   6.155   9.385
 1284POPC   PO419728  12.181   5.889   9.578
 1284POPC   GL119729  12.056   5.944   9.124
 1284POPC   GL219730  12.209   5.664   9.036
 1284POPC   C1A19731  11.930   5.884   8.644
 1284POPC   D2A19732  12.100   5.930   8.171
 1284POPC   C3A19733  11.917   6.102   7.760
 1284POPC   C4A19734  11.689   5.946   7.355
 1284POPC   C1B19735  12.240   5.466   8.645
 1284POPC   C2B19736  12.432   5.562   8.298
 1284POPC   C3B19737  12.365   5.573   7.870
 1284POPC   C4B19738  11.990   5.594   7.592
 1285POPC   NC319739  14.939   8.010   9.599
 1285POPC   PO419740  15.424   8.406   9.519
 1285POPC   GL119741  15.453   8.236   9.117
 1285POPC   GL219742  15.135   8.079   9.116
 1285POPC   C1A19743  15.336   8.281   8.685
 1285POPC   D2A19744  15.169   7.941   8.401
 1285POPC   C3A19745  15.347   7.928   7.969
 1285POPC   C4A19746  15.481   8.315   7.777
 1285POPC   C1B19747  14.850   8.179   8.763
 1285POPC   C2B19748  14.760   8.273   8.341
 1285POPC   C3B19749  14.979   8.302   7.957
 1285POPC   C4B19750  14.812   8.435   7.573
 1286POPC   NC319751   8.800  24.197   9.448
 1286POPC   PO419752   9.425  24.353   9.650
 1286POPC   GL119753   9.222  24.342   9.214
 1286POPC   GL219754   9.028  24.663   9.161
 1286POPC   C1A19755   8.975  24.238   8.803
 1286POPC   D2A19756   8.975  23.992   8.396
 1286POPC   C3A19757   9.104  24.234   8.020
 1286POPC   C4A19758   9.020  24.420   7.635
 1286POPC   C1B19759   8.801  24.747   8.748
 1286POPC   C2B19760   8.806  24.505   8.362
 1286POPC   C3B19761   8.610  24.456   7.966
 1286POPC   C4B19762   8.567  24.614   7.539
 1287POPC   NC319763  31.977  21.089   9.487
 1287POPC   PO419764  32.396  21.614   9.703
 1287POPC   GL119765  32.093  21.564   9.304
 1287POPC   GL219766  32.252  21.326   9.086
 1287POPC   C1A19767  31.860  21.599   8.902
 1287POPC   D2A19768  32.062  21.413   8.540
 1287POPC   C3A19769  31.931  21.280   8.125
 1287POPC   C4A19770  32.171  21.385   7.787
 1287POPC   C1B19771  32.496  21.213   8.716
 1287POPC   C2B19772  32.479  21.244   8.271
 1287POPC   C3B19773  32.462  20.973   7.952
 1287POPC   C4B19774  32.470  21.102   7.515
 1288POPC   NC319775  31.072  22.417   9.562
 1288POPC   PO419776  31.611  21.948   9.448
 1288POPC   GL119777  31.464  22.276   9.161
 1288POPC   GL219778  31.437  21.975   8.947
 1288POPC   C1A19779  31.339  22.414   8.723
 1288POPC   D2A19780  31.411  22.075   8.409
 1288POPC   C3A19781  31.367  22.073   7.978
 1288POPC   C4A19782  31.363  22.453   7.712
 1288POPC   C1B19783  31.823  22.078   8.702
 1288POPC   C2B19784  32.047  21.898   8.354
 1288POPC   C3B19785  31.851  21.785   7.957
 1288POPC   C4B19786  31.613  21.845   7.569
 1289POPC   NC319787  29.808  12.352   9.483
 1289POPC   PO419788  30.331  11.989   9.462
 1289POPC   GL119789  30.048  12.131   9.089
 1289POPC   GL219790  29.642  12.120   9.078
 1289POPC   C1A19791  29.971  12.158   8.647
 1289POPC   D2A19792  30.153  11.987   8.282
 1289POPC   C3A19793  29.964  12.112   7.873
 1289POPC   C4A19794  30.003  11.967   7.456
 1289POPC   C1B19795  29.523  11.934   8.701
 1289POPC   C2B19796  29.586  12.069   8.254
 1289POPC   C3B19797  29.463  12.281   7.844
 1289POPC   C4B19798  29.710  12.390   7.434
 1290POPC   NC319799  38.715  21.335   9.422
 1290POPC   PO419800  38.082  21.457   9.585
 1290POPC   GL119801  38.295  21.549   9.190
 1290POPC   GL219802  38.348  21.180   9.105
 1290POPC   C1A19803  38.503  21.610   8.772
 1290POPC   D2A19804  38.395  21.402   8.386
 1290POPC   C3A19805  38.337  21.589   7.977
 1290POPC   C4A19806  38.254  21.338   7.603
 1290POPC   C1B19807  38.642  21.108   8.773
 1290POPC   C2B19808  38.709  20.986   8.351
 1290POPC   C3B19809  38.676  21.205   7.958
 1290POPC   C4B19810  38.663  21.017   7.579
 1291POPC   NC319811  37.413  19.745   9.298
 1291POPC   PO419812  36.868  19.873   9.716
 1291POPC   GL119813  36.892  19.778   9.218
 1291POPC   GL219814  36.823  19.449   9.082
 1291POPC   C1A19815  36.784  19.816   8.711
 1291POPC   D2A19816  36.564  19.731   8.269
 1291POPC   C3A19817  36.754  19.896   7.910
 1291POPC   C4A19818  37.098  20.195   7.805
 1291POPC   C1B19819  37.200  19.449   8.776
 1291POPC   C2B19820  37.350  19.510   8.343
 1291POPC   C3B19821  37.237  19.693   7.944
 1291POPC   C4B19822  37.280  19.552   7.513
 1292POPC   NC319823  44.095  27.138   9.545
 1292POPC   PO419824  43.797  26.539   9.562
 1292POPC   GL119825  43.853  26.824   9.205
 1292POPC   GL219826  44.137  26.640   9.126
 1292POPC   C1A19827  43.990  26.995   8.780
 1292POPC   D2A19828  44.249  27.066   8.391
 1292POPC   C3A19829  44.048  26.986   8.014
 1292POPC   C4A19830  43.945  27.162   7.629
 1292POPC   C1B19831  44.059  26.489   8.751
 1292POPC   C2B19832  43.901  26.586   8.357
 1292POPC   C3B19833  44.066  26.484   7.964
 1292POPC   C4B19834  44.068  26.682   7.543
 1293POPC   NC319835  41.770  25.522   9.587
 1293POPC   PO419836  41.229  25.153   9.483
 1293POPC   GL119837  41.416  25.066   9.114
 1293POPC   GL219838  41.664  25.303   9.116
 1293POPC   C1A19839  41.365  25.256   8.706
 1293POPC   D2A19840  41.189  25.463   8.367
 1293POPC   C3A19841  41.359  25.315   7.996
 1293POPC   C4A19842  41.279  25.018   7.716
 1293POPC   C1B19843  41.893  25.201   8.712
 1293POPC   C2B19844  41.770  25.116   8.268
 1293POPC   C3B19845  41.800  25.020   7.808
 1293POPC   C4B19846  41.961  25.114   7.380
 1294POPC   NC319847  31.891  17.295   9.363
 1294POPC   PO419848  32.182  17.908   9.524
 1294POPC   GL119849  32.232  17.665   9.197
 1294POPC   GL219850  32.382  17.318   9.288
 1294POPC   C1A19851  32.246  17.792   8.765
 1294POPC   D2A19852  32.356  17.542   8.398
 1294POPC   C3A19853  32.221  17.596   7.999
 1294POPC   C4A19854  32.374  17.570   7.604
 1294POPC   C1B19855  32.328  17.287   8.854
 1294POPC   C2B19856  32.297  17.044   8.496
 1294POPC   C3B19857  32.450  17.119   8.134
 1294POPC   C4B19858  32.260  17.123   7.790
 1295POPC   NC319859  44.323  37.120   9.399
 1295POPC   PO419860   0.073  37.069   9.494
 1295POPC   GL119861  44.802  37.025   9.165
 1295POPC   GL219862  44.837  36.691   9.054
 1295POPC   C1A19863  44.625  37.165   8.762
 1295POPC   D2A19864  44.634  37.008   8.352
 1295POPC   C3A19865  44.701  37.303   8.012
 1295POPC   C4A19866  44.880  37.263   7.617
 1295POPC   C1B19867  44.894  36.438   8.688
 1295POPC   C2B19868   0.056  36.505   8.264
 1295POPC   C3B19869  44.934  36.676   7.829
 1295POPC   C4B19870  44.936  36.822   7.371
 1296POPC   NC319871  35.007   3.142   9.597
 1296POPC   PO419872  34.884   2.531   9.426
 1296POPC   GL119873  34.762   2.693   9.050
 1296POPC   GL219874  34.441   2.734   9.137
 1296POPC   C1A19875  34.790   2.902   8.627
 1296POPC   D2A19876  35.020   3.056   8.300
 1296POPC   C3A19877  34.827   2.923   7.943
 1296POPC   C4A19878  34.772   2.549   7.798
 1296POPC   C1B19879  34.397   2.606   8.695
 1296POPC   C2B19880  34.515   2.585   8.257
 1296POPC   C3B19881  34.311   2.739   7.867
 1296POPC   C4B19882  34.138   3.024   7.547
 1297POPC   NC319883  40.809  43.301   9.621
 1297POPC   PO419884  41.146  42.725   9.672
 1297POPC   GL119885  40.909  42.810   9.290
 1297POPC   GL219886  40.989  43.138   9.171
 1297POPC   C1A19887  40.628  42.896   8.915
 1297POPC   D2A19888  40.710  42.966   8.450
 1297POPC   C3A19889  40.519  43.254   8.194
 1297POPC   C4A19890  40.564  43.194   7.776
 1297POPC   C1B19891  41.106  42.947   8.753
 1297POPC   C2B19892  41.205  42.787   8.326
 1297POPC   C3B19893  41.020  42.975   7.979
 1297POPC   C4B19894  41.068  43.373   7.832
 1298POPC   NC319895  41.272  20.345   9.503
 1298POPC   PO419896  41.844  20.667   9.555
 1298POPC   GL119897  41.555  20.622   9.165
 1298POPC   GL219898  41.609  20.300   9.107
 1298POPC   C1A19899  41.333  20.785   8.777
 1298POPC   D2A19900  41.176  20.747   8.329
 1298POPC   C3A19901  41.524  20.726   7.994
 1298POPC   C4A19902  41.559  20.552   7.543
 1298POPC   C1B19903  41.248  20.282   8.802
 1298POPC   C2B19904  41.046  20.246   8.410
 1298POPC   C3B19905  41.236  20.269   8.031
 1298POPC   C4B19906  41.086  20.395   7.658
 1299POPC   NC319907  10.430   7.323   9.541
 1299POPC   PO419908  11.125   7.371   9.531
 1299POPC   GL119909  10.799   7.317   9.172
 1299POPC   GL219910  10.521   7.555   9.102
 1299POPC   C1A19911  10.613   7.079   8.813
 1299POPC   D2A19912  10.357   7.014   8.413
 1299POPC   C3A19913  10.461   7.192   7.989
 1299POPC   C4A19914  10.879   7.189   7.810
 1299POPC   C1B19915  10.288   7.463   8.720
 1299POPC   C2B19916  10.384   7.604   8.297
 1299POPC   C3B19917  10.667   7.660   7.932
 1299POPC   C4B19918  10.613   7.500   7.506
 1300POPC   NC319919   6.359  19.931   9.467
 1300POPC   PO419920   6.243  20.555   9.284
 1300POPC   GL119921   6.542  20.193   9.082
 1300POPC   GL219922   6.518  19.834   8.994
 1300POPC   C1A19923   6.747  20.096   8.649
 1300POPC   D2A19924   6.505  19.989   8.272
 1300POPC   C3A19925   6.743  19.819   7.944
 1300POPC   C4A19926   7.092  19.584   7.746
 1300POPC   C1B19927   6.224  20.109   8.724
 1300POPC   C2B19928   5.983  20.149   8.366
 1300POPC   C3B19929   6.145  20.255   7.980
 1300POPC   C4B19930   6.419  20.137   7.668
 1301POPC   NC319931   1.847  13.979   9.526
 1301POPC   PO419932   2.328  13.518   9.479
 1301POPC   GL119933   2.067  13.466   9.126
 1301POPC   GL219934   1.777  13.718   9.094
 1301POPC   C1A19935   2.151  13.576   8.719
 1301POPC   D2A19936   2.050  13.420   8.324
 1301POPC   C3A19937   2.062  13.708   8.012
 1301POPC   C4A19938   2.083  13.516   7.652
 1301POPC   C1B19939   1.648  13.517   8.708
 1301POPC   C2B19940   1.543  13.466   8.277
 1301POPC   C3B19941   1.570  13.671   7.854
 1301POPC   C4B19942   1.811  13.919   7.532
 1302POPC   NC319943  39.085  12.805   9.387
 1302POPC   PO419944  39.627  12.718   9.547
 1302POPC   GL119945  39.472  12.874   9.093
 1302POPC   GL219946  39.203  12.696   8.927
 1302POPC   C1A19947  39.568  12.839   8.631
 1302POPC   D2A19948  39.392  12.959   8.229
 1302POPC   C3A19949  39.477  13.009   7.820
 1302POPC   C4A19950  39.812  12.741   7.761
 1302POPC   C1B19951  39.051  12.922   8.603
 1302POPC   C2B19952  39.056  12.577   8.325
 1302POPC   C3B19953  39.179  12.599   7.911
 1302POPC   C4B19954  38.975  13.022   7.909
 1303POPC   NC319955  35.666   6.071   9.481
 1303POPC   PO419956  36.340   5.775   9.572
 1303POPC   GL119957  36.185   5.861   9.188
 1303POPC   GL219958  35.882   5.738   9.160
 1303POPC   C1A19959  36.158   6.046   8.790
 1303POPC   D2A19960  36.134   6.345   8.462
 1303POPC   C3A19961  36.235   6.144   8.085
 1303POPC   C4A19962  36.269   5.899   7.734
 1303POPC   C1B19963  35.918   5.587   8.750
 1303POPC   C2B19964  35.905   5.830   8.380
 1303POPC   C3B19965  35.838   5.820   7.978
 1303POPC   C4B19966  35.746   5.548   7.667
 1304POPC   NC319967  28.969  29.239   9.563
 1304POPC   PO419968  29.576  29.526   9.556
 1304POPC   GL119969  29.386  29.224   9.230
 1304POPC   GL219970  29.012  29.153   9.077
 1304POPC   C1A19971  29.430  29.044   8.838
 1304POPC   D2A19972  29.170  29.130   8.485
 1304POPC   C3A19973  29.306  29.139   8.065
 1304POPC   C4A19974  28.994  29.184   7.822
 1304POPC   C1B19975  28.814  29.438   8.793
 1304POPC   C2B19976  28.890  29.559   8.344
 1304POPC   C3B19977  28.701  29.568   7.937
 1304POPC   C4B19978  28.754  29.482   7.481
 1305POPC   NC319979  39.048  34.647   9.608
 1305POPC   PO419980  39.462  35.124   9.609
 1305POPC   GL119981  39.259  34.823   9.206
 1305POPC   GL219982  39.463  34.498   9.125
 1305POPC   C1A19983  39.123  34.696   8.789
 1305POPC   D2A19984  39.346  34.666   8.403
 1305POPC   C3A19985  39.070  34.783   8.106
 1305POPC   C4A19986  38.987  34.893   7.698
 1305POPC   C1B19987  39.422  34.262   8.733
 1305POPC   C2B19988  39.198  34.166   8.396
 1305POPC   C3B19989  39.347  34.262   7.999
 1305POPC   C4B19990  39.369  34.581   7.731
 1306POPC   NC319991  40.756  39.744   9.647
 1306POPC   PO419992  39.983  39.820   9.641
 1306POPC   GL119993  39.776  39.978   9.220
 1306POPC   GL219994  40.083  40.107   9.068
 1306POPC   C1A19995  39.644  40.153   8.809
 1306POPC   D2A19996  39.737  40.092   8.357
 1306POPC   C3A19997  39.596  40.219   7.972
 1306POPC   C4A19998  39.647  39.912   7.678
 1306POPC   C1B19999  40.138  40.221   8.629
 1306POPC   C2B20000  40.214  39.875   8.340
 1306POPC   C3B20001  40.144  39.808   7.903
 1306POPC   C4B20002  40.070  40.181   7.669
 1307POPC   NC320003  19.974  25.383   9.834
 1307POPC   PO420004  19.744  24.883   9.397
 1307POPC   GL120005  20.025  25.164   9.100
 1307POPC   GL220006  20.069  25.536   9.202
 1307POPC   C1A20007  20.131  25.269   8.640
 1307POPC   D2A20008  20.133  25.126   8.177
 1307POPC   C3A20009  19.722  25.139   7.945
 1307POPC   C4A20010  19.330  24.899   7.991
 1307POPC   C1B20011  19.791  25.601   8.827
 1307POPC   C2B20012  19.705  25.615   8.415
 1307POPC   C3B20013  19.843  25.686   8.005
 1307POPC   C4B20014  20.088  25.446   7.764
 1308POPC   NC320015   1.784  31.572   9.362
 1308POPC   PO420016   2.038  31.070   9.612
 1308POPC   GL120017   2.146  31.324   9.134
 1308POPC   GL220018   1.853  31.447   8.893
 1308POPC   C1A20019   2.259  31.264   8.702
 1308POPC   D2A20020   1.993  31.206   8.343
 1308POPC   C3A20021   2.081  31.341   7.917
 1308POPC   C4A20022   1.894  31.325   7.485
 1308POPC   C1B20023   1.744  31.839   8.689
 1308POPC   C2B20024   1.526  31.994   8.313
 1308POPC   C3B20025   1.757  31.742   8.061
 1308POPC   C4B20026   1.926  31.783   7.691
 1309POPC   NC320027  35.876   9.984   9.562
 1309POPC   PO420028  36.352   9.516   9.477
 1309POPC   GL120029  36.191   9.741   9.131
 1309POPC   GL220030  35.847   9.784   9.089
 1309POPC   C1A20031  36.198   9.952   8.734
 1309POPC   D2A20032  36.101  10.098   8.285
 1309POPC   C3A20033  36.383   9.956   7.919
 1309POPC   C4A20034  36.271   9.876   7.470
 1309POPC   C1B20035  35.895   9.492   8.727
 1309POPC   C2B20036  36.194   9.290   8.457
 1309POPC   C3B20037  36.209   9.496   8.069
 1309POPC   C4B20038  35.918   9.597   7.728
 1310POPC   NC320039  44.714  17.111   9.609
 1310POPC   PO420040   0.014  17.745   9.600
 1310POPC   GL120041  44.772  17.561   9.225
 1310POPC   GL220042  44.477  17.294   9.201
 1310POPC   C1A20043  44.527  17.675   8.855
 1310POPC   D2A20044  44.357  17.509   8.487
 1310POPC   C3A20045  44.539  17.615   8.115
 1310POPC   C4A20046  44.537  17.505   7.683
 1310POPC   C1B20047  44.635  17.168   8.799
 1310POPC   C2B20048  44.738  17.190   8.374
 1310POPC   C3B20049  44.887  17.258   7.968
 1310POPC   C4B20050  44.712  16.961   7.723
 1311POPC   NC320051  23.834  21.340   9.694
 1311POPC   PO420052  23.272  21.272   9.592
 1311POPC   GL120053  23.540  21.232   9.225
 1311POPC   GL220054  23.867  21.034   9.232
 1311POPC   C1A20055  23.702  21.291   8.802
 1311POPC   D2A20056  23.759  21.104   8.394
 1311POPC   C3A20057  23.783  21.413   8.053
 1311POPC   C4A20058  23.707  21.431   7.625
 1311POPC   C1B20059  24.106  20.988   8.808
 1311POPC   C2B20060  24.284  20.988   8.367
 1311POPC   C3B20061  24.127  21.035   7.936
 1311POPC   C4B20062  24.211  21.433   7.682
 1312POPC   NC320063  24.971  18.143   9.356
 1312POPC   PO420064  24.536  18.667   9.403
 1312POPC   GL120065  24.480  18.292   9.203
 1312POPC   GL220066  24.273  18.490   9.002
 1312POPC   C1A20067  24.513  18.084   8.792
 1312POPC   D2A20068  24.332  18.148   8.405
 1312POPC   C3A20069  24.458  18.032   7.996
 1312POPC   C4A20070  24.596  18.410   7.784
 1312POPC   C1B20071  23.989  18.343   8.752
 1312POPC   C2B20072  23.842  18.280   8.349
 1312POPC   C3B20073  24.045  18.335   7.942
 1312POPC   C4B20074  24.122  18.554   7.538
 1313POPC   NC320075  29.591  34.690   9.422
 1313POPC   PO420076  30.245  34.543   9.520
 1313POPC   GL120077  30.036  34.692   9.115
 1313POPC   GL220078  29.747  34.479   8.988
 1313POPC   C1A20079  30.144  34.570   8.672
 1313POPC   D2A20080  30.133  34.284   8.307
 1313POPC   C3A20081  30.153  34.500   7.897
 1313POPC   C4A20082  29.872  34.747   7.614
 1313POPC   C1B20083  29.595  34.112   8.751
 1313POPC   C2B20084  29.649  34.037   8.318
 1313POPC   C3B20085  29.691  34.297   7.977
 1313POPC   C4B20086  29.760  34.262   7.559
 1314POPC   NC320087  17.670  19.901   9.599
 1314POPC   PO420088  17.923  19.261   9.474
 1314POPC   GL120089  17.816  19.627   9.161
 1314POPC   GL220090  17.536  19.914   9.120
 1314POPC   C1A20091  17.823  19.790   8.733
 1314POPC   D2A20092  17.602  19.712   8.354
 1314POPC   C3A20093  17.766  19.860   7.956
 1314POPC   C4A20094  17.653  19.821   7.494
 1314POPC   C1B20095  17.317  19.616   8.832
 1314POPC   C2B20096  17.095  19.809   8.480
 1314POPC   C3B20097  17.251  19.986   8.117
 1314POPC   C4B20098  17.324  19.635   7.864
 1315POPC   NC320099  22.782  17.374   9.594
 1315POPC   PO420100  23.301  17.783   9.375
 1315POPC   GL120101  23.105  17.379   9.177
 1315POPC   GL220102  22.733  17.362   9.088
 1315POPC   C1A20103  23.123  17.257   8.744
 1315POPC   D2A20104  23.225  17.440   8.354
 1315POPC   C3A20105  22.925  17.445   8.042
 1315POPC   C4A20106  23.154  17.392   7.682
 1315POPC   C1B20107  22.393  17.226   8.816
 1315POPC   C2B20108  22.382  17.354   8.364
 1315POPC   C3B20109  22.448  17.156   7.989
 1315POPC   C4B20110  22.710  17.148   7.649
 1316POPC   NC320111  43.540  10.057   9.333
 1316POPC   PO420112  43.791   9.571   9.652
 1316POPC   GL120113  43.966   9.732   9.250
 1316POPC   GL220114  44.313   9.556   9.255
 1316POPC   C1A20115  43.780   9.685   8.801
 1316POPC   D2A20116  43.591   9.907   8.411
 1316POPC   C3A20117  43.729   9.818   7.975
 1316POPC   C4A20118  43.679   9.825   7.507
 1316POPC   C1B20119  44.286   9.787   8.852
 1316POPC   C2B20120  44.120   9.702   8.425
 1316POPC   C3B20121  44.254   9.781   8.014
 1316POPC   C4B20122  44.084   9.576   7.678
 1317POPC   NC320123   4.854  23.879   9.369
 1317POPC   PO420124   5.456  23.409   9.419
 1317POPC   GL120125   5.305  23.515   9.021
 1317POPC   GL220126   5.272  23.858   9.041
 1317POPC   C1A20127   4.960  23.639   8.711
 1317POPC   D2A20128   4.964  23.898   8.292
 1317POPC   C3A20129   5.033  23.625   7.922
 1317POPC   C4A20130   4.894  23.270   7.654
 1317POPC   C1B20131   5.302  24.073   8.663
 1317POPC   C2B20132   5.374  24.239   8.243
 1317POPC   C3B20133   5.283  24.087   7.829
 1317POPC   C4B20134   5.211  24.068   7.384
 1318POPC   NC320135  37.314  19.679   9.801
 1318POPC   PO420136  37.832  19.947   9.463
 1318POPC   GL120137  37.799  19.949   9.059
 1318POPC   GL220138  37.894  19.623   9.044
 1318POPC   C1A20139  37.614  19.964   8.676
 1318POPC   D2A20140  37.713  19.877   8.295
 1318POPC   C3A20141  37.601  20.159   8.005
 1318POPC   C4A20142  37.550  19.977   7.630
 1318POPC   C1B20143  37.779  19.474   8.654
 1318POPC   C2B20144  37.908  19.407   8.254
 1318POPC   C3B20145  37.711  19.522   7.875
 1318POPC   C4B20146  37.793  19.406   7.456
 1319POPC   NC320147  20.231  17.665   9.625
 1319POPC   PO420148  19.553  17.607   9.691
 1319POPC   GL120149  19.795  17.679   9.258
 1319POPC   GL220150  19.778  17.387   9.004
 1319POPC   C1A20151  20.008  17.794   8.827
 1319POPC   D2A20152  19.915  17.968   8.419
 1319POPC   C3A20153  19.981  17.752   8.028
 1319POPC   C4A20154  19.678  17.540   7.825
 1319POPC   C1B20155  19.738  17.142   8.636
 1319POPC   C2B20156  19.801  17.258   8.263
 1319POPC   C3B20157  19.636  17.051   7.911
 1319POPC   C4B20158  19.874  17.149   7.541
 1320POPC   NC320159  33.948   0.930   9.492
 1320POPC   PO420160  33.541   1.420   9.625
 1320POPC   GL120161  33.650   1.224   9.201
 1320POPC   GL220162  33.345   1.224   9.052
 1320POPC   C1A20163  33.942   1.130   8.810
 1320POPC   D2A20164  34.137   1.205   8.364
 1320POPC   C3A20165  33.912   1.090   7.988
 1320POPC   C4A20166  33.739   1.361   7.661
 1320POPC   C1B20167  33.486   0.867   8.808
 1320POPC   C2B20168  33.626   0.984   8.391
 1320POPC   C3B20169  33.431   0.949   7.929
 1320POPC   C4B20170  33.439   1.001   7.453
 1321POPC   NC320171   1.639  16.158   9.251
 1321POPC   PO420172   2.093  16.508   9.672
 1321POPC   GL120173   2.114  16.578   9.182
 1321POPC   GL220174   1.843  16.716   9.094
 1321POPC   C1A20175   2.023  16.432   8.718
 1321POPC   D2A20176   1.762  16.596   8.365
 1321POPC   C3A20177   1.983  16.535   7.963
 1321POPC   C4A20178   2.300  16.490   7.663
 1321POPC   C1B20179   1.834  16.975   8.734
 1321POPC   C2B20180   1.773  17.196   8.390
 1321POPC   C3B20181   1.755  16.992   8.009
 1321POPC   C4B20182   2.037  17.031   7.673
 1322POPC   NC320183  12.006  25.569   9.481
 1322POPC   PO420184  12.103  26.186   9.423
 1322POPC   GL120185  12.238  25.897   9.079
 1322POPC   GL220186  11.939  25.762   9.017
 1322POPC   C1A20187  12.314  25.643   8.670
 1322POPC   D2A20188  12.038  25.583   8.279
 1322POPC   C3A20189  12.034  25.947   8.005
 1322POPC   C4A20190  12.307  26.246   7.879
 1322POPC   C1B20191  11.778  26.164   8.836
 1322POPC   C2B20192  11.746  26.121   8.409
 1322POPC   C3B20193  11.708  26.366   8.052
 1322POPC   C4B20194  11.662  26.209   7.666
 1323POPC   NC320195  29.125  39.635   9.745
 1323POPC   PO420196  29.427  39.171   9.398
 1323POPC   GL120197  29.098  39.263   9.145
 1323POPC   GL220198  28.990  39.596   9.103
 1323POPC   C1A20199  28.939  39.093   8.781
 1323POPC   D2A20200  29.161  39.104   8.404
 1323POPC   C3A20201  28.960  38.920   8.093
 1323POPC   C4A20202  29.165  38.999   7.755
 1323POPC   C1B20203  29.258  39.512   8.725
 1323POPC   C2B20204  29.278  39.670   8.311
 1323POPC   C3B20205  29.127  39.484   7.941
 1323POPC   C4B20206  29.374  39.414   7.566
 1324POPC   NC320207  11.068  21.546   9.760
 1324POPC   PO420208  10.380  21.549   9.701
 1324POPC   GL120209  10.541  21.622   9.218
 1324POPC   GL220210  10.492  21.309   9.009
 1324POPC   C1A20211  10.602  21.704   8.738
 1324POPC   D2A20212  10.460  21.505   8.349
 1324POPC   C3A20213  10.534  21.665   7.923
 1324POPC   C4A20214  10.557  21.556   7.468
 1324POPC   C1B20215  10.696  21.136   8.668
 1324POPC   C2B20216  10.639  21.021   8.222
 1324POPC   C3B20217  10.770  21.221   7.829
 1324POPC   C4B20218  10.801  21.060   7.408
 1325POPC   NC320219   5.494  27.315   9.514
 1325POPC   PO420220   6.112  26.894   9.600
 1325POPC   GL120221   5.865  26.753   9.239
 1325POPC   GL220222   5.583  26.956   9.165
 1325POPC   C1A20223   5.803  26.609   8.812
 1325POPC   D2A20224   5.642  26.729   8.395
 1325POPC   C3A20225   5.937  26.606   8.062
 1325POPC   C4A20226   5.890  26.630   7.613
 1325POPC   C1B20227   5.710  27.111   8.767
 1325POPC   C2B20228   5.672  27.256   8.353
 1325POPC   C3B20229   5.729  27.093   7.940
 1325POPC   C4B20230   5.421  27.039   7.618
 1326POPC   NC320231  26.638  18.385   9.863
 1326POPC   PO420232  27.010  18.631   9.442
 1326POPC   GL120233  26.871  18.683   9.040
 1326POPC   GL220234  26.530  18.580   9.074
 1326POPC   C1A20235  27.041  18.639   8.618
 1326POPC   D2A20236  27.069  18.241   8.383
 1326POPC   C3A20237  26.961  18.215   7.938
 1326POPC   C4A20238  27.132  18.369   7.558
 1326POPC   C1B20239  26.603  18.368   8.698
 1326POPC   C2B20240  26.621  18.494   8.282
 1326POPC   C3B20241  26.489  18.391   7.891
 1326POPC   C4B20242  26.411  17.982   7.710
 1327POPC   NC320243  27.377  18.948   9.362
 1327POPC   PO420244  28.005  18.730   9.444
 1327POPC   GL120245  27.815  19.002   9.071
 1327POPC   GL220246  27.921  19.312   9.087
 1327POPC   C1A20247  27.647  19.163   8.621
 1327POPC   D2A20248  27.303  19.085   8.354
 1327POPC   C3A20249  27.244  19.137   7.929
 1327POPC   C4A20250  27.256  18.858   7.568
 1327POPC   C1B20251  28.136  19.217   8.675
 1327POPC   C2B20252  28.013  19.034   8.255
 1327POPC   C3B20253  27.731  18.914   7.884
 1327POPC   C4B20254  27.658  19.155   7.502
 1328POPC   NC320255   4.526   8.632   9.540
 1328POPC   PO420256   3.866   8.827   9.313
 1328POPC   GL120257   4.140   8.772   9.024
 1328POPC   GL220258   4.499   8.903   9.116
 1328POPC   C1A20259   4.179   9.070   8.713
 1328POPC   D2A20260   4.424   9.239   8.397
 1328POPC   C3A20261   4.238   9.116   8.007
 1328POPC   C4A20262   4.200   8.831   7.665
 1328POPC   C1B20263   4.546   8.618   8.782
 1328POPC   C2B20264   4.330   8.695   8.370
 1328POPC   C3B20265   4.469   8.513   7.966
 1328POPC   C4B20266   4.710   8.744   7.646
 1329POPC   NC320267  37.618  29.846   9.516
 1329POPC   PO420268  38.164  29.931   9.402
 1329POPC   GL120269  37.843  30.021   9.082
 1329POPC   GL220270  37.433  29.901   9.046
 1329POPC   C1A20271  37.804  29.797   8.723
 1329POPC   D2A20272  37.664  29.929   8.373
 1329POPC   C3A20273  37.906  29.860   8.072
 1329POPC   C4A20274  37.741  29.766   7.698
 1329POPC   C1B20275  37.453  30.263   8.762
 1329POPC   C2B20276  37.429  30.388   8.316
 1329POPC   C3B20277  37.471  30.129   7.925
 1329POPC   C4B20278  37.422  30.093   7.441
 1330POPC   NC320279   4.446   3.249   9.311
 1330POPC   PO420280   3.947   3.222   9.717
 1330POPC   GL120281   3.952   3.387   9.233
 1330POPC   GL220282   4.231   3.637   9.050
 1330POPC   C1A20283   3.988   3.331   8.751
 1330POPC   D2A20284   4.295   3.528   8.433
 1330POPC   C3A20285   4.236   3.453   7.984
 1330POPC   C4A20286   4.591   3.290   7.746
 1330POPC   C1B20287   4.058   3.904   8.690
 1330POPC   C2B20288   4.062   3.954   8.230
 1330POPC   C3B20289   4.114   3.947   7.791
 1330POPC   C4B20290   4.324   3.662   7.519
 1331POPC   NC320291   2.712  35.903   9.329
 1331POPC   PO420292   3.030  36.583   9.502
 1331POPC   GL120293   2.943  36.353   9.121
 1331POPC   GL220294   3.104  36.043   9.077
 1331POPC   C1A20295   2.800  36.238   8.703
 1331POPC   D2A20296   2.767  36.437   8.328
 1331POPC   C3A20297   2.670  36.246   7.935
 1331POPC   C4A20298   2.517  35.996   7.571
 1331POPC   C1B20299   3.085  35.810   8.657
 1331POPC   C2B20300   3.011  35.945   8.201
 1331POPC   C3B20301   3.011  35.922   7.738
 1331POPC   C4B20302   2.984  35.898   7.279
 1332POPC   NC320303  21.142  28.567   9.448
 1332POPC   PO420304  21.786  28.334   9.412
 1332POPC   GL120305  21.422  28.241   9.149
 1332POPC   GL220306  21.119  28.046   9.262
 1332POPC   C1A20307  21.261  28.507   8.808
 1332POPC   D2A20308  21.451  28.765   8.471
 1332POPC   C3A20309  21.462  28.450   8.160
 1332POPC   C4A20310  21.422  28.405   7.731
 1332POPC   C1B20311  21.139  27.993   8.802
 1332POPC   C2B20312  21.053  28.248   8.410
 1332POPC   C3B20313  21.143  28.060   8.018
 1332POPC   C4B20314  21.333  27.913   7.616
 1333POPC   NC320315  21.771  11.113   9.444
 1333POPC   PO420316  22.380  11.358   9.655
 1333POPC   GL120317  22.354  11.238   9.217
 1333POPC   GL220318  22.349  11.595   9.179
 1333POPC   C1A20319  22.268  11.031   8.781
 1333POPC   D2A20320  21.998  10.787   8.476
 1333POPC   C3A20321  22.006  10.985   8.051
 1333POPC   C4A20322  22.367  10.908   7.761
 1333POPC   C1B20323  22.155  11.544   8.808
 1333POPC   C2B20324  22.354  11.475   8.440
 1333POPC   C3B20325  22.393  11.321   8.078
 1333POPC   C4B20326  22.232  11.387   7.722
 1334POPC   NC320327   9.478  36.978   9.436
 1334POPC   PO420328   8.874  36.780   9.393
 1334POPC   GL120329   8.854  37.073   9.065
 1334POPC   GL220330   9.070  36.866   8.911
 1334POPC   C1A20331   8.708  37.096   8.618
 1334POPC   D2A20332   8.537  37.162   8.200
 1334POPC   C3A20333   8.895  37.089   7.900
 1334POPC   C4A20334   8.914  36.786   7.542
 1334POPC   C1B20335   9.220  37.212   8.661
 1334POPC   C2B20336   9.325  37.119   8.231
 1334POPC   C3B20337   9.398  36.993   7.801
 1334POPC   C4B20338   9.419  36.728   7.462
 1335POPC   NC320339  39.417  21.490   9.437
 1335POPC   PO420340  38.791  21.789   9.364
 1335POPC   GL120341  39.059  21.483   9.083
 1335POPC   GL220342  39.428  21.579   8.946
 1335POPC   C1A20343  39.075  21.336   8.700
 1335POPC   D2A20344  38.896  21.467   8.339
 1335POPC   C3A20345  39.154  21.417   7.983
 1335POPC   C4A20346  39.025  21.360   7.565
 1335POPC   C1B20347  39.598  21.223   8.763
 1335POPC   C2B20348  39.812  21.127   8.388
 1335POPC   C3B20349  39.657  20.950   8.019
 1335POPC   C4B20350  39.419  21.087   7.696
 1336POPC   NC320351  44.462  42.477   9.988
 1336POPC   PO420352  44.799  42.236   9.400
 1336POPC   GL120353  44.625  42.337   8.976
 1336POPC   GL220354  44.370  42.604   8.984
 1336POPC   C1A20355  44.694  42.194   8.568
 1336POPC   D2A20356   0.065  42.295   8.342
 1336POPC   C3A20357   0.090  42.057   7.977
 1336POPC   C4A20358  44.851  42.087   7.592
 1336POPC   C1B20359  44.159  42.561   8.623
 1336POPC   C2B20360  44.295  42.372   8.275
 1336POPC   C3B20361  44.564  42.345   7.938
 1336POPC   C4B20362  44.956  42.543   7.871
 1337POPC   NC320363  35.301   6.755   9.431
 1337POPC   PO420364  35.145   6.047   9.483
 1337POPC   GL120365  35.354   6.313   9.166
 1337POPC   GL220366  35.655   6.247   8.988
 1337POPC   C1A20367  35.435   6.665   8.814
 1337POPC   D2A20368  35.230   6.720   8.421
 1337POPC   C3A20369  35.421   6.912   8.079
 1337POPC   C4A20370  35.495   6.723   7.711
 1337POPC   C1B20371  35.185   6.249   8.722
 1337POPC   C2B20372  35.023   6.265   8.322
 1337POPC   C3B20373  35.146   6.403   7.919
 1337POPC   C4B20374  34.860   6.417   7.587
 1338POPC   NC320375  28.442  39.685   9.505
 1338POPC   PO420376  28.063  40.273   9.391
 1338POPC   GL120377  28.235  39.977   9.123
 1338POPC   GL220378  28.576  39.907   9.069
 1338POPC   C1A20379  28.172  39.811   8.729
 1338POPC   D2A20380  28.110  40.045   8.368
 1338POPC   C3A20381  28.341  39.918   8.013
 1338POPC   C4A20382  28.288  40.100   7.607
 1338POPC   C1B20383  28.522  40.191   8.715
 1338POPC   C2B20384  28.607  40.244   8.304
 1338POPC   C3B20385  28.710  40.429   7.919
 1338POPC   C4B20386  28.763  40.228   7.526
 1339POPC   NC320387  10.679  44.175   9.525
 1339POPC   PO420388  10.380  43.622   9.574
 1339POPC   GL120389  10.434  43.848   9.197
 1339POPC   GL220390  10.255  44.157   9.232
 1339POPC   C1A20391  10.592  43.699   8.788
 1339POPC   D2A20392  10.676  43.409   8.410
 1339POPC   C3A20393  10.684  43.733   8.057
 1339POPC   C4A20394  10.814  44.074   7.744
 1339POPC   C1B20395  10.476  44.209   8.813
 1339POPC   C2B20396  10.489  44.140   8.350
 1339POPC   C3B20397  10.394  44.356   7.955
 1339POPC   C4B20398  10.419  44.269   7.504
 1340POPC   NC320399  27.116  44.189   9.418
 1340POPC   PO420400  26.571  44.654   9.521
 1340POPC   GL120401  26.732  44.425   9.189
 1340POPC   GL220402  26.556  44.103   9.288
 1340POPC   C1A20403  26.965  44.476   8.781
 1340POPC   D2A20404  26.938  44.728   8.417
 1340POPC   C3A20405  27.034  44.697   7.977
 1340POPC   C4A20406  26.796  44.763   7.571
 1340POPC   C1B20407  26.567  44.133   8.812
 1340POPC   C2B20408  26.625  44.311   8.406
 1340POPC   C3B20409  26.565  44.165   7.999
 1340POPC   C4B20410  26.590  44.299   7.601
 1341POPC   NC320411  20.454   1.318   9.508
 1341POPC   PO420412  21.041   1.520   9.306
 1341POPC   GL120413  20.719   1.310   9.044
 1341POPC   GL220414  20.378   1.151   9.043
 1341POPC   C1A20415  20.554   1.322   8.609
 1341POPC   D2A20416  20.465   1.505   8.235
 1341POPC   C3A20417  20.628   1.246   7.947
 1341POPC   C4A20418  20.905   1.141   7.613
 1341POPC   C1B20419  20.232   0.863   8.730
 1341POPC   C2B20420  20.264   0.638   8.352
 1341POPC   C3B20421  20.330   0.755   7.975
 1341POPC   C4B20422  20.486   0.867   7.610
 1342POPC   NC320423  43.181  12.200   9.565
 1342POPC   PO420424  42.731  11.739   9.391
 1342POPC   GL120425  43.126  11.957   9.127
 1342POPC   GL220426  43.460  12.225   9.155
 1342POPC   C1A20427  43.143  12.284   8.782
 1342POPC   D2A20428  43.231  12.336   8.369
 1342POPC   C3A20429  43.083  12.016   8.104
 1342POPC   C4A20430  43.048  12.162   7.686
 1342POPC   C1B20431  43.525  11.935   8.814
 1342POPC   C2B20432  43.551  11.945   8.359
 1342POPC   C3B20433  43.547  12.051   7.881
 1342POPC   C4B20434  43.596  11.955   7.384
 1343POPC   NC320435   5.460   7.952   9.568
 1343POPC   PO420436   4.892   8.326   9.514
 1343POPC   GL120437   5.054   8.384   9.119
 1343POPC   GL220438   5.187   8.052   9.151
 1343POPC   C1A20439   4.976   8.222   8.707
 1343POPC   D2A20440   4.884   8.074   8.298
 1343POPC   C3A20441   4.972   8.357   7.939
 1343POPC   C4A20442   4.752   8.266   7.554
 1343POPC   C1B20443   5.432   7.970   8.799
 1343POPC   C2B20444   5.401   8.107   8.400
 1343POPC   C3B20445   5.514   7.999   8.014
 1343POPC   C4B20446   5.467   8.101   7.588
 1344POPC   NC320447  26.560   2.485   9.470
 1344POPC   PO420448  27.219   2.757   9.497
 1344POPC   GL120449  26.942   2.765   9.107
 1344POPC   GL220450  26.691   2.983   9.068
 1344POPC   C1A20451  26.977   3.000   8.659
 1344POPC   D2A20452  26.923   3.199   8.236
 1344POPC   C3A20453  26.959   2.878   7.931
 1344POPC   C4A20454  26.689   2.473   7.947
 1344POPC   C1B20455  26.485   2.802   8.744
 1344POPC   C2B20456  26.463   2.997   8.349
 1344POPC   C3B20457  26.458   2.921   7.931
 1344POPC   C4B20458  26.616   2.875   7.519
 1345POPC   NC320459  10.415  23.547   9.720
 1345POPC   PO420460  10.865  23.934   9.513
 1345POPC   GL120461  10.534  23.745   9.246
 1345POPC   GL220462  10.663  23.410   9.186
 1345POPC   C1A20463  10.321  23.614   8.834
 1345POPC   D2A20464  10.461  23.518   8.393
 1345POPC   C3A20465  10.265  23.543   7.947
 1345POPC   C4A20466  10.221  23.894   7.614
 1345POPC   C1B20467  10.841  23.689   8.841
 1345POPC   C2B20468  10.872  23.838   8.397
 1345POPC   C3B20469  10.848  23.576   8.009
 1345POPC   C4B20470  11.010  23.476   7.558
 1346POPC   NC320471   6.088  21.339   9.535
 1346POPC   PO420472   5.553  21.741   9.482
 1346POPC   GL120473   5.633  21.639   9.072
 1346POPC   GL220474   5.954  21.483   9.050
 1346POPC   C1A20475   5.768  21.752   8.643
 1346POPC   D2A20476   6.172  21.766   8.420
 1346POPC   C3A20477   6.015  21.757   8.025
 1346POPC   C4A20478   5.662  21.519   7.894
 1346POPC   C1B20479   5.665  21.238   8.746
 1346POPC   C2B20480   5.672  21.181   8.286
 1346POPC   C3B20481   6.052  21.252   8.030
 1346POPC   C4B20482   6.229  21.165   7.634
 1347POPC   NC320483  43.573  42.470   9.530
 1347POPC   PO420484  42.856  42.186   9.458
 1347POPC   GL120485  43.050  42.254   9.094
 1347POPC   GL220486  43.316  42.423   9.110
 1347POPC   C1A20487  42.972  42.462   8.710
 1347POPC   D2A20488  42.836  42.299   8.325
 1347POPC   C3A20489  43.087  42.472   8.007
 1347POPC   C4A20490  43.423  42.700   7.895
 1347POPC   C1B20491  43.402  42.139   8.761
 1347POPC   C2B20492  43.351  42.229   8.358
 1347POPC   C3B20493  43.540  42.210   7.955
 1347POPC   C4B20494  43.708  42.376   7.567
 1348POPC   NC320495   0.005   6.873   9.518
 1348POPC   PO420496  44.633   7.437   9.577
 1348POPC   GL120497  44.671   7.387   9.179
 1348POPC   GL220498  44.658   7.036   9.171
 1348POPC   C1A20499  44.736   7.528   8.770
 1348POPC   D2A20500  44.762   7.811   8.463
 1348POPC   C3A20501  44.642   7.642   8.087
 1348POPC   C4A20502  44.735   7.823   7.680
 1348POPC   C1B20503  44.931   7.067   8.833
 1348POPC   C2B20504  44.916   7.221   8.376
 1348POPC   C3B20505  44.824   7.202   7.889
 1348POPC   C4B20506   0.035   7.013   7.502
 1349POPC   NC320507  35.618  27.518   9.595
 1349POPC   PO420508  35.189  27.283   9.335
 1349POPC   GL120509  35.558  27.424   9.062
 1349POPC   GL220510  35.605  27.777   9.113
 1349POPC   C1A20511  35.556  27.435   8.585
 1349POPC   D2A20512  35.160  27.576   8.376
 1349POPC   C3A20513  35.146  27.608   7.934
 1349POPC   C4A20514  35.492  27.539   7.693
 1349POPC   C1B20515  35.574  27.928   8.661
 1349POPC   C2B20516  35.551  27.862   8.193
 1349POPC   C3B20517  35.800  27.961   7.802
 1349POPC   C4B20518  35.860  28.249   7.454
 1350POPC   NC320519  17.568  29.676   9.515
 1350POPC   PO420520  17.660  30.273   9.755
 1350POPC   GL120521  17.507  30.087   9.216
 1350POPC   GL220522  17.383  29.775   9.052
 1350POPC   C1A20523  17.741  29.933   8.782
 1350POPC   D2A20524  17.835  29.763   8.385
 1350POPC   C3A20525  17.684  29.967   8.036
 1350POPC   C4A20526  17.598  29.784   7.672
 1350POPC   C1B20527  17.226  30.019   8.738
 1350POPC   C2B20528  17.024  29.837   8.394
 1350POPC   C3B20529  17.173  29.773   7.967
 1350POPC   C4B20530  17.265  30.182   7.719
 1351POPC   NC320531  17.415  19.183   9.424
 1351POPC   PO420532  17.797  18.599   9.403
 1351POPC   GL120533  17.553  18.823   9.078
 1351POPC   GL220534  17.720  19.141   9.018
 1351POPC   C1A20535  17.287  19.031   8.737
 1351POPC   D2A20536  17.253  19.318   8.377
 1351POPC   C3A20537  17.489  19.157   8.024
 1351POPC   C4A20538  17.349  18.879   7.707
 1351POPC   C1B20539  17.752  19.271   8.598
 1351POPC   C2B20540  17.959  19.382   8.212
 1351POPC   C3B20541  17.882  19.390   7.783
 1351POPC   C4B20542  17.826  19.020   7.536
 1352POPC   NC320543  19.005   6.156   9.536
 1352POPC   PO420544  18.700   5.579   9.356
 1352POPC   GL120545  18.819   5.904   9.096
 1352POPC   GL220546  19.134   5.900   9.086
 1352POPC   C1A20547  18.815   6.028   8.670
 1352POPC   D2A20548  18.822   6.039   8.221
 1352POPC   C3A20549  18.880   5.722   7.939
 1352POPC   C4A20550  18.951   5.771   7.514
 1352POPC   C1B20551  19.342   6.071   8.710
 1352POPC   C2B20552  19.360   6.044   8.259
 1352POPC   C3B20553  19.404   5.804   7.891
 1352POPC   C4B20554  19.461   5.854   7.430
 1353POPC   NC320555  30.957  32.595   9.845
 1353POPC   PO420556  30.564  32.991   9.497
 1353POPC   GL120557  30.795  32.959   9.170
 1353POPC   GL220558  30.780  33.276   9.065
 1353POPC   C1A20559  30.685  32.865   8.768
 1353POPC   D2A20560  30.710  32.907   8.383
 1353POPC   C3A20561  30.521  32.581   8.131
 1353POPC   C4A20562  30.397  32.624   7.728
 1353POPC   C1B20563  30.796  33.405   8.635
 1353POPC   C2B20564  30.848  33.367   8.199
 1353POPC   C3B20565  30.671  33.054   7.914
 1353POPC   C4B20566  30.858  32.981   7.580
 1354POPC   NC320567  31.531   7.948   9.513
 1354POPC   PO420568  31.312   8.556   9.322
 1354POPC   GL120569  31.554   8.277   9.074
 1354POPC   GL220570  31.822   8.005   9.080
 1354POPC   C1A20571  31.454   8.375   8.666
 1354POPC   D2A20572  31.489   8.157   8.302
 1354POPC   C3A20573  31.299   8.238   7.969
 1354POPC   C4A20574  31.167   8.346   7.581
 1354POPC   C1B20575  31.923   8.165   8.684
 1354POPC   C2B20576  31.974   8.019   8.267
 1354POPC   C3B20577  31.841   8.279   7.953
 1354POPC   C4B20578  31.665   8.219   7.571
 1355POPC   NC320579   7.641   5.683   9.784
 1355POPC   PO420580   7.466   4.941   9.685
 1355POPC   GL120581   7.322   4.981   9.238
 1355POPC   GL220582   7.641   4.904   9.062
 1355POPC   C1A20583   7.360   5.326   8.880
 1355POPC   D2A20584   7.201   5.467   8.489
 1355POPC   C3A20585   7.370   5.369   8.111
 1355POPC   C4A20586   7.163   5.321   7.739
 1355POPC   C1B20587   7.321   4.843   8.747
 1355POPC   C2B20588   7.130   4.935   8.349
 1355POPC   C3B20589   7.300   4.866   7.950
 1355POPC   C4B20590   7.171   4.871   7.522
 1356POPC   NC320591   1.146   7.561   9.537
 1356POPC   PO420592   1.106   6.937   9.651
 1356POPC   GL120593   1.165   7.240   9.165
 1356POPC   GL220594   1.175   7.629   9.050
 1356POPC   C1A20595   1.305   7.281   8.713
 1356POPC   D2A20596   1.222   7.139   8.305
 1356POPC   C3A20597   1.145   7.454   8.027
 1356POPC   C4A20598   1.242   7.537   7.612
 1356POPC   C1B20599   1.545   7.771   8.787
 1356POPC   C2B20600   1.719   7.678   8.364
 1356POPC   C3B20601   1.590   7.700   7.951
 1356POPC   C4B20602   1.558   7.934   7.559
 1357POPC   NC320603  24.300  17.419   9.518
 1357POPC   PO420604  24.913  17.740   9.580
 1357POPC   GL120605  24.614  17.739   9.220
 1357POPC   GL220606  24.277  17.826   9.147
 1357POPC   C1A20607  24.469  17.468   8.873
 1357POPC   D2A20608  24.443  17.615   8.459
 1357POPC   C3A20609  24.648  17.393   8.151
 1357POPC   C4A20610  24.541  17.353   7.709
 1357POPC   C1B20611  24.067  17.828   8.723
 1357POPC   C2B20612  23.997  17.794   8.283
 1357POPC   C3B20613  24.155  17.557   7.989
 1357POPC   C4B20614  24.143  17.661   7.570
 1358POPC   NC320615  22.381  18.199   9.637
 1358POPC   PO420616  21.935  18.440   9.245
 1358POPC   GL120617  22.208  18.156   9.085
 1358POPC   GL220618  22.443  18.386   9.157
 1358POPC   C1A20619  22.160  18.171   8.629
 1358POPC   D2A20620  21.815  18.249   8.343
 1358POPC   C3A20621  21.953  18.237   7.914
 1358POPC   C4A20622  22.081  18.610   7.698
 1358POPC   C1B20623  22.475  18.572   8.754
 1358POPC   C2B20624  22.361  18.577   8.298
 1358POPC   C3B20625  22.470  18.275   7.972
 1358POPC   C4B20626  22.452  18.066   7.570
 1359POPC   NC320627   1.224  38.736   9.540
 1359POPC   PO420628   0.901  38.186   9.519
 1359POPC   GL120629   1.152  38.342   9.189
 1359POPC   GL220630   1.470  38.219   9.343
 1359POPC   C1A20631   1.094  38.411   8.718
 1359POPC   D2A20632   0.904  38.729   8.402
 1359POPC   C3A20633   0.953  38.593   7.973
 1359POPC   C4A20634   1.083  38.249   7.713
 1359POPC   C1B20635   1.518  38.148   8.908
 1359POPC   C2B20636   1.528  38.244   8.492
 1359POPC   C3B20637   1.440  38.238   8.069
 1359POPC   C4B20638   1.555  38.417   7.679
 1360POPC   NC320639  39.785   5.422   9.419
 1360POPC   PO420640  39.930   4.842   9.445
 1360POPC   GL120641  40.070   5.090   9.073
 1360POPC   GL220642  40.132   5.448   9.030
 1360POPC   C1A20643  40.125   5.153   8.606
 1360POPC   D2A20644  40.158   5.064   8.154
 1360POPC   C3A20645  39.884   5.295   7.828
 1360POPC   C4A20646  39.472   5.201   7.632
 1360POPC   C1B20647  40.494   5.495   8.744
 1360POPC   C2B20648  40.377   5.528   8.308
 1360POPC   C3B20649  40.381   5.415   7.871
 1360POPC   C4B20650  40.325   5.358   7.418
 1361POPC   NC320651  32.767  32.296   9.508
 1361POPC   PO420652  32.145  32.030   9.566
 1361POPC   GL120653  32.209  32.296   9.185
 1361POPC   GL220654  32.444  32.568   9.213
 1361POPC   C1A20655  32.140  32.471   8.770
 1361POPC   D2A20656  31.949  32.231   8.441
 1361POPC   C3A20657  32.195  32.214   8.099
 1361POPC   C4A20658  32.090  32.202   7.697
 1361POPC   C1B20659  32.627  32.350   8.848
 1361POPC   C2B20660  32.533  32.478   8.424
 1361POPC   C3B20661  32.719  32.386   8.051
 1361POPC   C4B20662  32.582  32.291   7.711
 1362POPC   NC320663   6.327  36.104   9.584
 1362POPC   PO420664   6.934  36.091   9.375
 1362POPC   GL120665   6.722  36.348   9.092
 1362POPC   GL220666   6.370  36.390   9.130
 1362POPC   C1A20667   6.594  36.341   8.666
 1362POPC   D2A20668   6.772  36.199   8.324
 1362POPC   C3A20669   6.497  36.054   8.048
 1362POPC   C4A20670   6.744  36.011   7.712
 1362POPC   C1B20671   6.414  35.960   8.945
 1362POPC   C2B20672   6.423  35.771   8.514
 1362POPC   C3B20673   6.257  35.591   8.106
 1362POPC   C4B20674   6.377  35.680   7.690
 1363POPC   NC320675  37.620  38.218   9.460
 1363POPC   PO420676  37.722  38.806   9.785
 1363POPC   GL120677  37.602  38.770   9.267
 1363POPC   GL220678  37.369  38.555   9.129
 1363POPC   C1A20679  37.733  38.629   8.807
 1363POPC   D2A20680  37.467  38.540   8.418
 1363POPC   C3A20681  37.696  38.507   8.027
 1363POPC   C4A20682  37.943  38.767   7.763
 1363POPC   C1B20683  37.475  38.184   8.801
 1363POPC   C2B20684  37.609  38.060   8.363
 1363POPC   C3B20685  37.474  38.052   7.927
 1363POPC   C4B20686  37.694  38.305   7.553
 1364POPC   NC320687  44.557   7.883   9.483
 1364POPC   PO420688  44.957   8.407   9.391
 1364POPC   GL120689  44.728   8.204   9.089
 1364POPC   GL220690  44.503   7.915   8.992
 1364POPC   C1A20691  44.654   8.302   8.691
 1364POPC   D2A20692  44.374   8.213   8.396
 1364POPC   C3A20693  44.621   8.140   8.088
 1364POPC   C4A20694  44.717   8.351   7.764
 1364POPC   C1B20695  44.262   7.753   8.649
 1364POPC   C2B20696  44.088   7.831   8.231
 1364POPC   C3B20697  44.232   7.879   7.798
 1364POPC   C4B20698  44.337   7.760   7.340
 1365POPC   NC320699  31.281  24.877   9.500
 1365POPC   PO420700  31.589  25.479   9.433
 1365POPC   GL120701  31.720  25.243   9.089
 1365POPC   GL220702  31.417  25.122   9.058
 1365POPC   C1A20703  31.732  25.259   8.633
 1365POPC   D2A20704  31.370  25.443   8.401
 1365POPC   C3A20705  31.405  25.438   7.941
 1365POPC   C4A20706  31.585  25.258   7.510
 1365POPC   C1B20707  31.353  24.928   8.674
 1365POPC   C2B20708  31.458  24.978   8.234
 1365POPC   C3B20709  31.348  24.948   7.827
 1365POPC   C4B20710  30.979  24.778   7.675
 1366POPC   NC320711   6.714  31.820   9.459
 1366POPC   PO420712   6.526  32.417   9.672
 1366POPC   GL120713   6.511  32.284   9.244
 1366POPC   GL220714   6.494  32.561   9.049
 1366POPC   C1A20715   6.629  32.078   8.871
 1366POPC   D2A20716   6.957  32.086   8.601
 1366POPC   C3A20717   6.782  32.260   8.196
 1366POPC   C4A20718   6.981  32.073   7.821
 1366POPC   C1B20719   6.297  32.413   8.667
 1366POPC   C2B20720   6.236  32.300   8.247
 1366POPC   C3B20721   6.291  32.539   7.881
 1366POPC   C4B20722   6.697  32.530   7.721
 1367POPC   NC320723  22.624  42.666   9.315
 1367POPC   PO420724  23.079  42.261   9.361
 1367POPC   GL120725  22.961  42.382   8.980
 1367POPC   GL220726  22.598  42.329   8.928
 1367POPC   C1A20727  22.946  42.324   8.526
 1367POPC   D2A20728  22.659  42.195   8.251
 1367POPC   C3A20729  22.932  42.213   7.905
 1367POPC   C4A20730  22.850  42.327   7.491
 1367POPC   C1B20731  22.686  42.708   8.683
 1367POPC   C2B20732  22.591  42.835   8.287
 1367POPC   C3B20733  22.626  42.652   7.884
 1367POPC   C4B20734  22.439  42.255   7.782
 1368POPC   NC320735  15.412  32.565   9.431
 1368POPC   PO420736  15.279  33.254   9.510
 1368POPC   GL120737  15.402  33.012   9.153
 1368POPC   GL220738  15.101  32.784   9.073
 1368POPC   C1A20739  15.459  32.882   8.721
 1368POPC   D2A20740  15.471  33.142   8.359
 1368POPC   C3A20741  15.391  32.983   7.951
 1368POPC   C4A20742  15.001  33.111   7.838
 1368POPC   C1B20743  14.795  32.829   8.700
 1368POPC   C2B20744  14.703  32.916   8.240
 1368POPC   C3B20745  14.685  32.707   7.843
 1368POPC   C4B20746  14.776  32.835   7.453
 1369POPC   NC320747   6.502  38.748   9.347
 1369POPC   PO420748   6.780  38.259   9.629
 1369POPC   GL120749   6.666  38.244   9.185
 1369POPC   GL220750   6.987  38.147   9.101
 1369POPC   C1A20751   6.424  38.331   8.786
 1369POPC   D2A20752   6.537  38.571   8.417
 1369POPC   C3A20753   6.411  38.474   7.978
 1369POPC   C4A20754   6.251  38.611   7.523
 1369POPC   C1B20755   6.966  38.389   8.741
 1369POPC   C2B20756   7.049  38.506   8.329
 1369POPC   C3B20757   6.980  38.396   7.915
 1369POPC   C4B20758   6.690  38.406   7.564
 1370POPC   NC320759  23.592  27.296   9.695
 1370POPC   PO420760  24.036  27.724   9.426
 1370POPC   GL120761  23.850  27.420   9.210
 1370POPC   GL220762  23.498  27.432   9.219
 1370POPC   C1A20763  24.000  27.455   8.792
 1370POPC   D2A20764  23.887  27.703   8.446
 1370POPC   C3A20765  24.008  27.422   8.146
 1370POPC   C4A20766  23.941  27.454   7.734
 1370POPC   C1B20767  23.505  27.617   8.824
 1370POPC   C2B20768  23.436  27.456   8.415
 1370POPC   C3B20769  23.560  27.615   8.027
 1370POPC   C4B20770  23.428  27.487   7.637
 1371POPC   NC320771  22.326   4.176   9.540
 1371POPC   PO420772  21.727   4.448   9.431
 1371POPC   GL120773  22.078   4.438   9.172
 1371POPC   GL220774  22.027   4.059   9.137
 1371POPC   C1A20775  22.432   4.620   8.904
 1371POPC   D2A20776  22.726   4.475   8.581
 1371POPC   C3A20777  22.522   4.507   8.201
 1371POPC   C4A20778  22.208   4.292   7.946
 1371POPC   C1B20779  22.200   4.200   8.753
 1371POPC   C2B20780  22.356   4.057   8.407
 1371POPC   C3B20781  22.143   3.812   8.096
 1371POPC   C4B20782  22.137   3.838   7.693
 1372POPC   NC320783  40.974  26.351   9.284
 1372POPC   PO420784  40.679  26.844   9.659
 1372POPC   GL120785  40.666  26.787   9.178
 1372POPC   GL220786  40.720  26.509   8.899
 1372POPC   C1A20787  40.847  27.004   8.804
 1372POPC   D2A20788  40.871  27.044   8.359
 1372POPC   C3A20789  40.816  26.771   8.013
 1372POPC   C4A20790  40.619  26.787   7.578
 1372POPC   C1B20791  41.164  26.581   8.728
 1372POPC   C2B20792  41.430  26.510   8.389
 1372POPC   C3B20793  41.220  26.460   8.024
 1372POPC   C4B20794  41.070  26.583   7.615
 1373POPC   NC320795   8.759  33.323   9.456
 1373POPC   PO420796   9.229  32.848   9.490
 1373POPC   GL120797   9.076  33.000   9.124
 1373POPC   GL220798   9.216  33.290   9.050
 1373POPC   C1A20799   8.905  33.026   8.695
 1373POPC   D2A20800   8.932  33.330   8.352
 1373POPC   C3A20801   8.833  33.246   7.920
 1373POPC   C4A20802   8.748  32.916   7.609
 1373POPC   C1B20803   9.408  33.018   8.715
 1373POPC   C2B20804   9.375  32.978   8.270
 1373POPC   C3B20805   9.188  32.885   7.872
 1373POPC   C4B20806   9.374  32.662   7.531
 1374POPC   NC320807  36.657  13.298   9.426
 1374POPC   PO420808  37.109  13.809   9.384
 1374POPC   GL120809  37.050  13.664   9.034
 1374POPC   GL220810  36.681  13.664   9.042
 1374POPC   C1A20811  37.034  13.679   8.621
 1374POPC   D2A20812  36.658  13.690   8.431
 1374POPC   C3A20813  36.743  13.840   8.072
 1374POPC   C4A20814  36.772  13.679   7.694
 1374POPC   C1B20815  36.423  13.375   8.789
 1374POPC   C2B20816  36.257  13.373   8.383
 1374POPC   C3B20817  36.519  13.363   8.029
 1374POPC   C4B20818  36.437  13.287   7.630
 1375POPC   NC320819  22.246  22.202   9.624
 1375POPC   PO420820  22.168  21.795   9.078
 1375POPC   GL120821  22.088  22.275   9.026
 1375POPC   GL220822  22.382  22.456   8.884
 1375POPC   C1A20823  21.945  22.477   8.636
 1375POPC   D2A20824  21.761  22.260   8.266
 1375POPC   C3A20825  21.855  22.390   7.834
 1375POPC   C4A20826  22.175  22.192   7.531
 1375POPC   C1B20827  22.363  22.169   8.566
 1375POPC   C2B20828  22.138  21.882   8.341
 1375POPC   C3B20829  22.288  21.993   7.970
 1375POPC   C4B20830  22.503  21.795   7.650
 1376POPC   NC320831  34.666   6.276   9.528
 1376POPC   PO420832  34.921   6.868   9.667
 1376POPC   GL120833  34.770   6.743   9.240
 1376POPC   GL220834  34.951   6.570   9.047
 1376POPC   C1A20835  34.474   6.658   8.887
 1376POPC   D2A20836  34.275   6.509   8.500
 1376POPC   C3A20837  34.285   6.741   8.121
 1376POPC   C4A20838  34.484   6.751   7.718
 1376POPC   C1B20839  34.923   6.940   8.783
 1376POPC   C2B20840  34.781   6.979   8.379
 1376POPC   C3B20841  34.792   6.689   8.108
 1376POPC   C4B20842  34.994   6.868   7.766
 1377POPC   NC320843  19.948  38.181   9.404
 1377POPC   PO420844  19.586  37.695   9.589
 1377POPC   GL120845  19.699  37.791   9.153
 1377POPC   GL220846  19.607  38.143   9.034
 1377POPC   C1A20847  19.807  37.819   8.683
 1377POPC   D2A20848  20.049  37.810   8.268
 1377POPC   C3A20849  19.990  37.604   7.843
 1377POPC   C4A20850  20.231  37.486   7.433
 1377POPC   C1B20851  19.306  37.901   8.868
 1377POPC   C2B20852  19.332  37.775   8.472
 1377POPC   C3B20853  19.561  37.809   8.127
 1377POPC   C4B20854  19.497  37.777   7.733
 1378POPC   NC320855  27.451  29.659   9.578
 1378POPC   PO420856  27.465  28.995   9.483
 1378POPC   GL120857  27.471  29.201   9.103
 1378POPC   GL220858  27.609  29.538   9.113
 1378POPC   C1A20859  27.465  28.991   8.723
 1378POPC   D2A20860  27.666  29.094   8.345
 1378POPC   C3A20861  27.488  28.967   7.979
 1378POPC   C4A20862  27.748  29.021   7.653
 1378POPC   C1B20863  27.785  29.430   8.724
 1378POPC   C2B20864  27.781  29.603   8.300
 1378POPC   C3B20865  27.631  29.469   7.905
 1378POPC   C4B20866  27.863  29.478   7.527
 1379POPC   NC320867  43.334   1.417   9.587
 1379POPC   PO420868  42.684   1.155   9.518
 1379POPC   GL120869  42.950   1.387   9.246
 1379POPC   GL220870  43.184   1.155   9.146
 1379POPC   C1A20871  42.980   1.490   8.808
 1379POPC   D2A20872  43.072   1.310   8.415
 1379POPC   C3A20873  43.069   1.487   8.000
 1379POPC   C4A20874  43.092   1.293   7.597
 1379POPC   C1B20875  42.959   0.898   8.848
 1379POPC   C2B20876  42.906   0.824   8.409
 1379POPC   C3B20877  43.056   0.969   8.031
 1379POPC   C4B20878  42.943   0.819   7.668
 1380POPC   NC320879   1.886  43.803   9.441
 1380POPC   PO420880   2.350  44.355   9.458
 1380POPC   GL120881   2.122  44.076   9.093
 1380POPC   GL220882   2.248  43.744   9.029
 1380POPC   C1A20883   2.020  44.002   8.631
 1380POPC   D2A20884   2.262  43.818   8.279
 1380POPC   C3A20885   2.021  43.833   7.899
 1380POPC   C4A20886   1.920  44.152   7.624
 1380POPC   C1B20887   1.866  43.545   8.817
 1380POPC   C2B20888   1.777  43.620   8.369
 1380POPC   C3B20889   2.067  43.360   8.114
 1380POPC   C4B20890   2.304  43.413   7.735
 1381POPC   NC320891  42.734  14.861   9.521
 1381POPC   PO420892  43.365  14.869   9.232
 1381POPC   GL120893  43.130  15.166   9.081
 1381POPC   GL220894  42.793  15.126   9.052
 1381POPC   C1A20895  43.173  15.345   8.692
 1381POPC   D2A20896  43.486  15.406   8.383
 1381POPC   C3A20897  43.291  15.261   8.026
 1381POPC   C4A20898  43.156  15.480   7.677
 1381POPC   C1B20899  42.677  15.147   8.592
 1381POPC   C2B20900  42.617  15.326   8.186
 1381POPC   C3B20901  42.713  15.052   7.867
 1381POPC   C4B20902  43.076  14.968   7.664
 1382POPC   NC320903   1.463   9.608   9.645
 1382POPC   PO420904   0.948   9.608   9.209
 1382POPC   GL120905   1.396   9.674   9.115
 1382POPC   GL220906   1.484  10.069   9.066
 1382POPC   C1A20907   1.539   9.356   8.786
 1382POPC   D2A20908   1.425   9.238   8.380
 1382POPC   C3A20909   1.258   9.623   8.197
 1382POPC   C4A20910   1.396   9.798   7.809
 1382POPC   C1B20911   1.339   9.916   8.651
 1382POPC   C2B20912   0.970  10.005   8.395
 1382POPC   C3B20913   0.966  10.050   7.932
 1382POPC   C4B20914   1.113  10.045   7.477
 1383POPC   NC320915   5.998   4.228   9.748
 1383POPC   PO420916   6.096   4.529   9.153
 1383POPC   GL120917   5.853   4.262   8.902
 1383POPC   GL220918   5.702   4.009   9.139
 1383POPC   C1A20919   5.584   4.405   8.584
 1383POPC   D2A20920   5.595   4.684   8.251
 1383POPC   C3A20921   5.893   4.456   7.996
 1383POPC   C4A20922   5.903   4.052   7.812
 1383POPC   C1B20923   5.650   3.835   8.740
 1383POPC   C2B20924   5.721   3.973   8.328
 1383POPC   C3B20925   5.449   4.207   8.095
 1383POPC   C4B20926   5.461   4.284   7.696
 1384POPC   NC320927  28.557  44.024   9.556
 1384POPC   PO420928  27.965  43.704   9.490
 1384POPC   GL120929  28.336  43.721   9.177
 1384POPC   GL220930  28.372  44.067   9.088
 1384POPC   C1A20931  28.237  43.787   8.705
 1384POPC   D2A20932  28.291  44.015   8.367
 1384POPC   C3A20933  28.319  43.777   8.060
 1384POPC   C4A20934  28.405  43.976   7.727
 1384POPC   C1B20935  28.684  44.001   8.744
 1384POPC   C2B20936  28.727  43.732   8.397
 1384POPC   C3B20937  28.818  43.894   8.001
 1384POPC   C4B20938  28.938  44.294   7.841
 1385POPC   NC320939  21.303   8.802   9.527
 1385POPC   PO420940  21.440   9.373   9.247
 1385POPC   GL120941  21.498   9.075   8.933
 1385POPC   GL220942  21.388   8.751   9.026
 1385POPC   C1A20943  21.292   9.006   8.558
 1385POPC   D2A20944  21.062   9.227   8.247
 1385POPC   C3A20945  21.342   9.385   7.938
 1385POPC   C4A20946  21.542   9.033   7.707
 1385POPC   C1B20947  21.094   8.564   8.727
 1385POPC   C2B20948  21.059   8.620   8.275
 1385POPC   C3B20949  21.080   8.612   7.814
 1385POPC   C4B20950  21.302   8.697   7.414
 1386POPC   NC320951   1.516  26.617   9.649
 1386POPC   PO420952   1.102  27.084   9.614
 1386POPC   GL120953   1.163  26.859   9.210
 1386POPC   GL220954   1.041  26.491   9.258
 1386POPC   C1A20955   1.392  26.964   8.817
 1386POPC   D2A20956   1.556  27.134   8.415
 1386POPC   C3A20957   1.378  27.107   8.009
 1386POPC   C4A20958   1.256  26.800   7.733
 1386POPC   C1B20959   1.252  26.457   8.875
 1386POPC   C2B20960   1.268  26.609   8.464
 1386POPC   C3B20961   1.140  26.431   8.077
 1386POPC   C4B20962   1.130  26.283   7.693
 1387POPC   NC320963  43.454  31.543   9.541
 1387POPC   PO420964  42.887  31.316   9.509
 1387POPC   GL120965  43.024  31.609   9.186
 1387POPC   GL220966  43.256  31.891   9.227
 1387POPC   C1A20967  43.194  31.542   8.781
 1387POPC   D2A20968  43.360  31.343   8.384
 1387POPC   C3A20969  43.143  31.290   7.971
 1387POPC   C4A20970  42.882  31.288   7.588
 1387POPC   C1B20971  43.351  32.039   8.814
 1387POPC   C2B20972  43.353  31.856   8.410
 1387POPC   C3B20973  43.267  31.817   8.010
 1387POPC   C4B20974  43.314  31.623   7.631
 1388POPC   NC320975  21.910   5.722   9.543
 1388POPC   PO420976  22.530   5.542   9.799
 1388POPC   GL120977  22.361   5.860   9.327
 1388POPC   GL220978  22.127   5.698   9.108
 1388POPC   C1A20979  22.314   6.045   8.819
 1388POPC   D2A20980  22.078   5.912   8.400
 1388POPC   C3A20981  22.180   6.057   7.953
 1388POPC   C4A20982  22.536   6.132   7.650
 1388POPC   C1B20983  22.209   5.524   8.733
 1388POPC   C2B20984  22.225   5.420   8.329
 1388POPC   C3B20985  22.128   5.546   7.928
 1388POPC   C4B20986  22.078   5.592   7.448
 1389POPC   NC320987  42.658  16.434   9.424
 1389POPC   PO420988  43.100  16.925   9.517
 1389POPC   GL120989  43.005  16.687   9.159
 1389POPC   GL220990  43.343  16.636   9.066
 1389POPC   C1A20991  42.979  16.375   8.827
 1389POPC   D2A20992  43.320  16.328   8.570
 1389POPC   C3A20993  43.122  16.387   8.188
 1389POPC   C4A20994  43.149  16.519   7.803
 1389POPC   C1B20995  43.209  16.828   8.684
 1389POPC   C2B20996  42.993  16.980   8.346
 1389POPC   C3B20997  43.168  17.016   7.936
 1389POPC   C4B20998  43.374  17.110   7.555
 1390POPC   NC320999  34.650  15.485   9.456
 1390POPC   PO421000  34.446  14.832   9.524
 1390POPC   GL121001  34.370  15.122   9.207
 1390POPC   GL221002  34.686  15.187   9.061
 1390POPC   C1A21003  34.277  15.241   8.780
 1390POPC   D2A21004  34.375  15.356   8.371
 1390POPC   C3A21005  34.272  15.060   8.057
 1390POPC   C4A21006  34.428  15.159   7.648
 1390POPC   C1B21007  34.799  15.360   8.675
 1390POPC   C2B21008  34.865  15.310   8.235
 1390POPC   C3B21009  34.810  15.458   7.817
 1390POPC   C4B21010  34.827  15.348   7.363
 1391POPC   NC321011  15.369  39.641   9.445
 1391POPC   PO421012  15.075  40.185   9.473
 1391POPC   GL121013  15.211  40.036   9.113
 1391POPC   GL221014  15.061  39.701   9.031
 1391POPC   C1A21015  15.100  40.201   8.720
 1391POPC   D2A21016  15.109  39.994   8.339
 1391POPC   C3A21017  14.939  40.172   7.979
 1391POPC   C4A21018  15.139  40.106   7.611
 1391POPC   C1B21019  15.416  39.761   8.723
 1391POPC   C2B21020  15.486  39.600   8.290
 1391POPC   C3B21021  15.353  39.706   7.871
 1391POPC   C4B21022  15.003  39.642   7.564
 1392POPC   NC321023  10.457  24.236   9.406
 1392POPC   PO421024  10.866  24.729   9.638
 1392POPC   GL121025  10.696  24.597   9.164
 1392POPC   GL221026  10.778  24.214   9.032
 1392POPC   C1A21027  10.485  24.663   8.732
 1392POPC   D2A21028  10.648  24.831   8.336
 1392POPC   C3A21029  10.430  24.763   7.977
 1392POPC   C4A21030  10.358  24.386   7.784
 1392POPC   C1B21031  10.402  24.155   8.753
 1392POPC   C2B21032  10.309  24.310   8.342
 1392POPC   C3B21033  10.453  23.987   8.083
 1392POPC   C4B21034  10.752  24.008   7.763
 1393POPC   NC321035  18.233   2.852   9.514
 1393POPC   PO421036  18.607   2.335   9.742
 1393POPC   GL121037  18.391   2.451   9.259
 1393POPC   GL221038  18.492   2.264   8.993
 1393POPC   C1A21039  18.176   2.676   8.825
 1393POPC   D2A21040  18.195   3.018   8.440
 1393POPC   C3A21041  18.076   2.951   8.009
 1393POPC   C4A21042  18.428   2.872   7.696
 1393POPC   C1B21043  18.457   2.344   8.546
 1393POPC   C2B21044  18.291   2.537   8.172
 1393POPC   C3B21045  18.093   2.498   7.751
 1393POPC   C4B21046  18.271   2.582   7.307
 1394POPC   NC321047  44.362  38.054   9.354
 1394POPC   PO421048  44.972  38.063   9.526
 1394POPC   GL121049  44.754  37.851   9.126
 1394POPC   GL221050  44.836  37.519   9.038
 1394POPC   C1A21051  44.399  37.714   8.787
 1394POPC   D2A21052  44.424  37.519   8.398
 1394POPC   C3A21053  44.332  37.705   8.001
 1394POPC   C4A21054  44.461  37.594   7.577
 1394POPC   C1B21055  44.889  37.702   8.662
 1394POPC   C2B21056  44.814  37.878   8.282
 1394POPC   C3B21057  44.824  37.786   7.867
 1394POPC   C4B21058  44.764  38.007   7.484
 1395POPC   NC321059  35.211  22.764   9.398
 1395POPC   PO421060  35.506  23.287   9.641
 1395POPC   GL121061  35.437  23.172   9.166
 1395POPC   GL221062  35.192  22.983   8.946
 1395POPC   C1A21063  35.647  23.181   8.769
 1395POPC   D2A21064  35.586  22.913   8.469
 1395POPC   C3A21065  35.647  23.088   8.109
 1395POPC   C4A21066  35.378  23.076   7.783
 1395POPC   C1B21067  35.210  22.610   8.666
 1395POPC   C2B21068  35.470  22.415   8.343
 1395POPC   C3B21069  35.553  22.606   7.941
 1395POPC   C4B21070  35.122  22.622   7.802
 1396POPC   NC321071  11.457  21.585   9.450
 1396POPC   PO421072  10.898  21.309   9.391
 1396POPC   GL121073  11.275  21.312   9.078
 1396POPC   GL221074  11.440  21.673   8.965
 1396POPC   C1A21075  11.293  21.327   8.631
 1396POPC   D2A21076  10.982  21.420   8.313
 1396POPC   C3A21077  11.240  21.385   7.982
 1396POPC   C4A21078  11.236  21.256   7.580
 1396POPC   C1B21079  11.129  21.809   8.646
 1396POPC   C2B21080  11.330  21.818   8.248
 1396POPC   C3B21081  11.360  21.845   7.809
 1396POPC   C4B21082  10.983  21.732   7.687
 1397POPC   NC321083  40.064   6.980   9.336
 1397POPC   PO421084  40.533   6.684   9.723
 1397POPC   GL121085  40.482   6.598   9.248
 1397POPC   GL221086  40.214   6.377   9.099
 1397POPC   C1A21087  40.433   6.729   8.812
 1397POPC   D2A21088  40.508   6.592   8.399
 1397POPC   C3A21089  40.163   6.663   8.129
 1397POPC   C4A21090  40.215   6.839   7.741
 1397POPC   C1B21091  39.925   6.601   8.803
 1397POPC   C2B21092  39.726   6.538   8.434
 1397POPC   C3B21093  39.630   6.650   8.023
 1397POPC   C4B21094  39.800   6.459   7.676
 1398POPC   NC321095  26.999  10.941   9.881
 1398POPC   PO421096  26.581  10.508   9.469
 1398POPC   GL121097  26.861  10.364   9.188
 1398POPC   GL221098  26.654  10.160   9.006
 1398POPC   C1A21099  27.025  10.556   8.831
 1398POPC   D2A21100  26.770  10.701   8.546
 1398POPC   C3A21101  26.921  10.557   8.187
 1398POPC   C4A21102  27.091  10.702   7.838
 1398POPC   C1B21103  26.387  10.137   8.655
 1398POPC   C2B21104  26.406  10.411   8.312
 1398POPC   C3B21105  26.553  10.328   7.895
 1398POPC   C4B21106  26.770  10.358   7.526
 1399POPC   NC321107  30.331  13.089   9.396
 1399POPC   PO421108  30.966  12.746   9.394
 1399POPC   GL121109  30.765  12.602   9.025
 1399POPC   GL221110  30.402  12.619   9.087
 1399POPC   C1A21111  30.692  12.753   8.604
 1399POPC   D2A21112  30.554  12.614   8.188
 1399POPC   C3A21113  30.777  12.784   7.855
 1399POPC   C4A21114  30.865  13.233   7.831
 1399POPC   C1B21115  30.255  12.930   8.780
 1399POPC   C2B21116  30.213  12.974   8.330
 1399POPC   C3B21117  30.293  12.964   7.881
 1399POPC   C4B21118  30.516  13.021   7.470
 1400POPC   NC321119  21.072   1.939   9.508
 1400POPC   PO421120  20.430   1.779   9.620
 1400POPC   GL121121  20.620   1.793   9.200
 1400POPC   GL221122  20.777   2.110   9.128
 1400POPC   C1A21123  20.759   1.774   8.745
 1400POPC   D2A21124  20.702   1.997   8.339
 1400POPC   C3A21125  20.647   1.846   7.897
 1400POPC   C4A21126  20.664   2.244   7.656
 1400POPC   C1B21127  20.992   2.238   8.733
 1400POPC   C2B21128  21.210   2.080   8.373
 1400POPC   C3B21129  21.102   2.060   7.934
 1400POPC   C4B21130  21.161   2.183   7.492
 1401POPC   NC321131  35.376  43.985   9.661
 1401POPC   PO421132  35.140  43.411   9.430
 1401POPC   GL121133  35.286  43.786   9.179
 1401POPC   GL221134  35.606  43.776   8.945
 1401POPC   C1A21135  35.187  44.060   8.837
 1401POPC   D2A21136  35.176  44.183   8.396
 1401POPC   C3A21137  35.421  43.998   8.069
 1401POPC   C4A21138  35.328  44.064   7.618
 1401POPC   C1B21139  35.382  43.637   8.600
 1401POPC   C2B21140  35.025  43.661   8.348
 1401POPC   C3B21141  34.975  43.767   7.915
 1401POPC   C4B21142  35.086  43.579   7.503
 1402POPC   NC321143   0.150   8.669   9.713
 1402POPC   PO421144   0.755   8.637   9.349
 1402POPC   GL121145   0.433   8.934   9.174
 1402POPC   GL221146   0.668   9.114   9.017
 1402POPC   C1A21147   0.273   9.123   8.744
 1402POPC   D2A21148   0.489   9.123   8.326
 1402POPC   C3A21149   0.305   9.006   7.959
 1402POPC   C4A21150   0.325   8.669   7.649
 1402POPC   C1B21151   0.652   8.769   8.694
 1402POPC   C2B21152   0.615   8.581   8.277
 1402POPC   C3B21153   0.759   8.738   7.915
 1402POPC   C4B21154   0.918   8.989   7.592
 1403POPC   NC321155   1.018  25.646   9.533
 1403POPC   PO421156   1.307  26.215   9.576
 1403POPC   GL121157   1.278  25.987   9.188
 1403POPC   GL221158   0.951  25.914   9.117
 1403POPC   C1A21159   1.324  25.963   8.739
 1403POPC   D2A21160   1.444  26.152   8.366
 1403POPC   C3A21161   1.512  26.044   7.941
 1403POPC   C4A21162   1.508  25.971   7.487
 1403POPC   C1B21163   0.879  25.724   8.727
 1403POPC   C2B21164   0.938  25.950   8.342
 1403POPC   C3B21165   1.027  25.839   7.921
 1403POPC   C4B21166   0.795  25.792   7.534
 1404POPC   NC321167  12.527  26.012   9.491
 1404POPC   PO421168  13.176  25.834   9.491
 1404POPC   GL121169  12.937  25.980   9.175
 1404POPC   GL221170  12.721  25.713   9.134
 1404POPC   C1A21171  12.923  26.158   8.772
 1404POPC   D2A21172  12.659  26.103   8.396
 1404POPC   C3A21173  12.831  26.173   7.982
 1404POPC   C4A21174  12.614  26.049   7.544
 1404POPC   C1B21175  12.863  25.622   8.749
 1404POPC   C2B21176  12.781  25.576   8.353
 1404POPC   C3B21177  12.571  25.736   8.016
 1404POPC   C4B21178  12.922  25.742   7.746
 1405POPC   NC321179  36.831  14.169   9.301
 1405POPC   PO421180  36.955  14.680   9.668
 1405POPC   GL121181  37.031  14.612   9.196
 1405POPC   GL221182  37.305  14.339   9.127
 1405POPC   C1A21183  36.899  14.625   8.751
 1405POPC   D2A21184  37.084  14.534   8.333
 1405POPC   C3A21185  36.906  14.457   7.944
 1405POPC   C4A21186  36.942  14.682   7.556
 1405POPC   C1B21187  37.212  14.186   8.699
 1405POPC   C2B21188  37.211  14.022   8.240
 1405POPC   C3B21189  37.141  14.015   7.787
 1405POPC   C4B21190  36.791  14.200   7.502
 1406POPC   NC321191  13.414   5.241   9.507
 1406POPC   PO421192  14.008   4.928   9.536
 1406POPC   GL121193  13.715   4.957   9.201
 1406POPC   GL221194  13.643   5.315   9.062
 1406POPC   C1A21195  13.701   4.915   8.765
 1406POPC   D2A21196  13.830   5.307   8.545
 1406POPC   C3A21197  14.119   5.159   8.278
 1406POPC   C4A21198  13.961   4.873   7.963
 1406POPC   C1B21199  13.340   5.273   8.725
 1406POPC   C2B21200  13.419   5.018   8.342
 1406POPC   C3B21201  13.261   5.133   7.956
 1406POPC   C4B21202  13.289   5.419   7.640
 1407POPC   NC321203  20.415  44.246   9.578
 1407POPC   PO421204  20.431  43.659   9.904
 1407POPC   GL121205  20.447  43.784   9.353
 1407POPC   GL221206  20.777  43.778   9.158
 1407POPC   C1A21207  20.437  43.973   8.859
 1407POPC   D2A21208  20.739  43.895   8.512
 1407POPC   C3A21209  20.520  43.957   8.131
 1407POPC   C4A21210  20.408  44.279   7.858
 1407POPC   C1B21211  20.533  43.497   8.823
 1407POPC   C2B21212  20.378  43.537   8.385
 1407POPC   C3B21213  20.467  43.483   7.914
 1407POPC   C4B21214  20.440  43.511   7.405
 1408POPC   NC321215  29.327  10.029   9.545
 1408POPC   PO421216  29.074  10.703   9.369
 1408POPC   GL121217  29.208  10.415   9.066
 1408POPC   GL221218  29.521  10.205   9.079
 1408POPC   C1A21219  29.367  10.584   8.667
 1408POPC   D2A21220  29.666  10.849   8.430
 1408POPC   C3A21221  29.401  10.916   8.052
 1408POPC   C4A21222  29.191  10.556   7.801
 1408POPC   C1B21223  29.298  10.082   8.695
 1408POPC   C2B21224  29.256  10.231   8.292
 1408POPC   C3B21225  29.374  10.106   7.948
 1408POPC   C4B21226  29.238  10.014   7.562
 1409POPC   NC321227  27.052  38.545   9.637
 1409POPC   PO421228  27.755  38.648   9.639
 1409POPC   GL121229  27.510  38.528   9.264
 1409POPC   GL221230  27.382  38.823   9.132
 1409POPC   C1A21231  27.599  38.524   8.777
 1409POPC   D2A21232  27.657  38.735   8.325
 1409POPC   C3A21233  27.508  38.450   7.983
 1409POPC   C4A21234  27.702  38.063   7.839
 1409POPC   C1B21235  27.193  38.855   8.734
 1409POPC   C2B21236  27.161  38.686   8.330
 1409POPC   C3B21237  27.256  38.894   7.917
 1409POPC   C4B21238  27.475  38.826   7.453
 1410POPC   NC321239  23.418  40.351   9.735
 1410POPC   PO421240  23.877  40.815   9.385
 1410POPC   GL121241  23.559  40.862   9.050
 1410POPC   GL221242  23.473  41.150   8.917
 1410POPC   C1A21243  23.422  40.719   8.631
 1410POPC   D2A21244  23.671  40.883   8.287
 1410POPC   C3A21245  23.854  40.637   7.956
 1410POPC   C4A21246  23.495  40.676   7.701
 1410POPC   C1B21247  23.902  41.058   8.732
 1410POPC   C2B21248  24.162  40.992   8.372
 1410POPC   C3B21249  24.024  41.121   7.981
 1410POPC   C4B21250  23.856  41.027   7.578
 1411POPC   NC321251  29.380  12.846   9.586
 1411POPC   PO421252  30.012  12.773   9.459
 1411POPC   GL121253  29.891  12.629   9.053
 1411POPC   GL221254  29.582  12.665   9.129
 1411POPC   C1A21255  29.888  12.645   8.609
 1411POPC   D2A21256  30.055  12.484   8.230
 1411POPC   C3A21257  29.868  12.625   7.860
 1411POPC   C4A21258  30.031  12.798   7.474
 1411POPC   C1B21259  29.513  12.953   8.779
 1411POPC   C2B21260  29.706  13.060   8.358
 1411POPC   C3B21261  29.790  13.120   7.898
 1411POPC   C4B21262  29.885  13.283   7.466
 1412POPC   NC321263  17.309  41.326   9.581
 1412POPC   PO421264  17.902  41.621   9.536
 1412POPC   GL121265  17.614  41.565   9.216
 1412POPC   GL221266  17.703  41.237   9.216
 1412POPC   C1A21267  17.506  41.787   8.827
 1412POPC   D2A21268  17.603  41.759   8.377
 1412POPC   C3A21269  17.235  41.716   8.099
 1412POPC   C4A21270  17.218  41.630   7.678
 1412POPC   C1B21271  17.496  41.251   8.817
 1412POPC   C2B21272  17.325  41.323   8.432
 1412POPC   C3B21273  17.530  41.309   8.038
 1412POPC   C4B21274  17.394  41.074   7.689
 1413POPC   NC321275   1.579   9.059   9.372
 1413POPC   PO421276   1.083   9.296   9.696
 1413POPC   GL121277   1.087   9.040   9.274
 1413POPC   GL221278   1.260   8.698   9.135
 1413POPC   C1A21279   1.105   9.050   8.794
 1413POPC   D2A21280   1.069   8.841   8.386
 1413POPC   C3A21281   0.984   9.155   8.103
 1413POPC   C4A21282   1.301   9.287   7.832
 1413POPC   C1B21283   1.545   8.801   8.742
 1413POPC   C2B21284   1.766   8.641   8.387
 1413POPC   C3B21285   1.670   8.907   8.052
 1413POPC   C4B21286   1.278   8.782   7.863
 1414POPC   NC321287  39.622  28.237   9.744
 1414POPC   PO421288  38.999  28.552   9.726
 1414POPC   GL121289  39.245  28.519   9.320
 1414POPC   GL221290  39.467  28.803   9.362
 1414POPC   C1A21291  39.213  28.299   8.877
 1414POPC   D2A21292  39.154  27.980   8.509
 1414POPC   C3A21293  39.372  27.998   8.091
 1414POPC   C4A21294  39.137  28.244   7.762
 1414POPC   C1B21295  39.434  28.794   8.904
 1414POPC   C2B21296  39.227  28.660   8.517
 1414POPC   C3B21297  39.372  28.515   8.141
 1414POPC   C4B21298  39.369  28.680   7.741
 1415POPC   NC321299  39.464  10.826   9.424
 1415POPC   PO421300  39.155  10.300   9.704
 1415POPC   GL121301  39.168  10.443   9.226
 1415POPC   GL221302  39.266  10.745   8.968
 1415POPC   C1A21303  38.980  10.328   8.809
 1415POPC   D2A21304  39.073  10.528   8.408
 1415POPC   C3A21305  38.869  10.462   8.018
 1415POPC   C4A21306  38.902  10.767   7.691
 1415POPC   C1B21307  39.475  10.410   8.734
 1415POPC   C2B21308  39.509  10.241   8.313
 1415POPC   C3B21309  39.415  10.421   7.910
 1415POPC   C4B21310  39.522  10.570   7.503
 1416POPC   NC321311  37.667  41.851   9.437
 1416POPC   PO421312  38.154  41.596   9.647
 1416POPC   GL121313  37.988  41.483   9.204
 1416POPC   GL221314  37.629  41.352   9.199
 1416POPC   C1A21315  37.925  41.240   8.789
 1416POPC   D2A21316  37.951  41.468   8.416
 1416POPC   C3A21317  37.927  41.236   8.058
 1416POPC   C4A21318  37.762  41.294   7.675
 1416POPC   C1B21319  37.600  41.637   8.819
 1416POPC   C2B21320  37.556  41.846   8.421
 1416POPC   C3B21321  37.636  41.691   8.011
 1416POPC   C4B21322  37.309  41.650   7.697
 1417POPC   NC321323   0.152  21.956   9.396
 1417POPC   PO421324   0.659  22.374   9.679
 1417POPC   GL121325   0.669  22.401   9.182
 1417POPC   GL221326   0.361  22.262   9.031
 1417POPC   C1A21327   0.752  22.266   8.712
 1417POPC   D2A21328   0.625  21.921   8.418
 1417POPC   C3A21329   0.732  21.907   7.981
 1417POPC   C4A21330   0.673  22.073   7.568
 1417POPC   C1B21331   0.103  22.006   8.716
 1417POPC   C2B21332   0.131  21.801   8.324
 1417POPC   C3B21333   0.205  21.965   7.909
 1417POPC   C4B21334   0.176  22.018   7.462
 1418POPC   NC321335   3.526   2.012   9.614
 1418POPC   PO421336   3.429   2.711   9.583
 1418POPC   GL121337   3.674   2.888   9.228
 1418POPC   GL221338   3.638   2.542   9.135
 1418POPC   C1A21339   3.784   2.851   8.770
 1418POPC   D2A21340   3.574   2.816   8.369
 1418POPC   C3A21341   3.857   2.903   8.021
 1418POPC   C4A21342   3.773   2.823   7.606
 1418POPC   C1B21343   3.385   2.492   8.759
 1418POPC   C2B21344   3.473   2.277   8.341
 1418POPC   C3B21345   3.546   2.469   7.943
 1418POPC   C4B21346   3.338   2.472   7.551
 1419POPC   NC321347  13.665   8.609   9.476
 1419POPC   PO421348  13.846   7.982   9.401
 1419POPC   GL121349  13.665   8.225   9.114
 1419POPC   GL221350  13.968   8.370   9.016
 1419POPC   C1A21351  13.504   8.284   8.708
 1419POPC   D2A21352  13.411   8.469   8.335
 1419POPC   C3A21353  13.561   8.298   7.979
 1419POPC   C4A21354  13.327   7.998   7.741
 1419POPC   C1B21355  13.914   7.972   8.749
 1419POPC   C2B21356  13.892   8.211   8.376
 1419POPC   C3B21357  14.054   8.429   8.040
 1419POPC   C4B21358  13.955   8.146   7.690
 1420POPC   NC321359  22.246   0.734   9.453
 1420POPC   PO421360  21.910   0.059   9.507
 1420POPC   GL121361  22.090   0.096   9.079
 1420POPC   GL221362  22.281   0.385   9.098
 1420POPC   C1A21363  22.092   0.282   8.628
 1420POPC   D2A21364  21.979   0.550   8.275
 1420POPC   C3A21365  21.988   0.329   7.876
 1420POPC   C4A21366  22.091  44.924   7.712
 1420POPC   C1B21367  22.427   0.666   8.778
 1420POPC   C2B21368  22.493   0.526   8.353
 1420POPC   C3B21369  22.461   0.587   7.921
 1420POPC   C4B21370  22.533   0.314   7.583
 1421POPC   NC321371  15.166  19.126   9.515
 1421POPC   PO421372  14.563  19.071   9.502
 1421POPC   GL121373  14.866  18.977   9.114
 1421POPC   GL221374  15.263  18.944   9.059
 1421POPC   C1A21375  14.973  19.235   8.764
 1421POPC   D2A21376  15.323  19.182   8.514
 1421POPC   C3A21377  15.291  19.213   8.078
 1421POPC   C4A21378  14.991  19.043   7.787
 1421POPC   C1B21379  15.505  18.744   8.749
 1421POPC   C2B21380  15.404  18.538   8.357
 1421POPC   C3B21381  15.331  18.705   7.976
 1421POPC   C4B21382  15.544  18.989   7.688
 1422POPC   NC321383  14.058  20.125   9.590
 1422POPC   PO421384  14.670  19.739   9.550
 1422POPC   GL121385  14.560  19.763   9.145
 1422POPC   GL221386  14.488  20.073   9.200
 1422POPC   C1A21387  14.277  19.700   8.808
 1422POPC   D2A21388  14.072  19.619   8.412
 1422POPC   C3A21389  14.269  19.629   8.019
 1422POPC   C4A21390  14.216  19.908   7.652
 1422POPC   C1B21391  14.411  20.213   8.819
 1422POPC   C2B21392  14.393  20.023   8.404
 1422POPC   C3B21393  14.340  20.226   8.023
 1422POPC   C4B21394  14.443  20.377   7.623
 1423POPC   NC321395  38.031  30.755   9.570
 1423POPC   PO421396  37.410  30.651   9.374
 1423POPC   GL121397  37.741  30.567   9.081
 1423POPC   GL221398  37.977  30.830   9.086
 1423POPC   C1A21399  37.768  30.666   8.634
 1423POPC   D2A21400  37.583  30.897   8.281
 1423POPC   C3A21401  37.674  30.611   7.906
 1423POPC   C4A21402  37.935  30.261   7.777
 1423POPC   C1B21403  37.990  31.103   8.785
 1423POPC   C2B21404  38.087  31.020   8.366
 1423POPC   C3B21405  37.955  31.037   7.962
 1423POPC   C4B21406  38.183  30.707   7.881
 1424POPC   NC321407  13.409  34.112   9.628
 1424POPC   PO421408  13.682  34.754   9.747
 1424POPC   GL121409  13.723  34.526   9.313
 1424POPC   GL221410  13.482  34.262   9.140
 1424POPC   C1A21411  13.740  34.593   8.863
 1424POPC   D2A21412  13.669  34.402   8.470
 1424POPC   C3A21413  13.560  34.647   8.109
 1424POPC   C4A21414  13.767  34.646   7.711
 1424POPC   C1B21415  13.198  34.168   8.760
 1424POPC   C2B21416  13.193  34.292   8.312
 1424POPC   C3B21417  13.187  34.404   7.859
 1424POPC   C4B21418  13.124  34.205   7.475
 1425POPC   NC321419  17.052  21.271   9.456
 1425POPC   PO421420  16.622  21.812   9.471
 1425POPC   GL121421  16.768  21.508   9.120
 1425POPC   GL221422  16.605  21.185   9.155
 1425POPC   C1A21423  16.887  21.212   8.735
 1425POPC   D2A21424  17.002  21.338   8.302
 1425POPC   C3A21425  16.688  21.337   8.005
 1425POPC   C4A21426  16.664  21.297   7.580
 1425POPC   C1B21427  16.343  21.175   8.740
 1425POPC   C2B21428  16.401  21.003   8.305
 1425POPC   C3B21429  16.302  21.013   7.828
 1425POPC   C4B21430  16.315  21.045   7.312
 1426POPC   NC321431   9.552  23.961   9.433
 1426POPC   PO421432   9.971  23.516   9.679
 1426POPC   GL121433   9.821  23.492   9.239
 1426POPC   GL221434   9.563  23.194   9.247
 1426POPC   C1A21435   9.827  23.776   8.828
 1426POPC   D2A21436  10.069  23.853   8.422
 1426POPC   C3A21437   9.876  23.881   8.007
 1426POPC   C4A21438   9.496  23.951   7.765
 1426POPC   C1B21439   9.568  23.321   8.822
 1426POPC   C2B21440   9.898  23.362   8.503
 1426POPC   C3B21441   9.808  23.352   8.086
 1426POPC   C4B21442   9.416  23.374   7.838
 1427POPC   NC321443  34.723  37.127   9.515
 1427POPC   PO421444  34.412  36.574   9.442
 1427POPC   GL121445  34.529  36.848   9.130
 1427POPC   GL221446  34.317  37.138   9.215
 1427POPC   C1A21447  34.749  36.911   8.737
 1427POPC   D2A21448  34.821  36.856   8.282
 1427POPC   C3A21449  34.500  36.685   7.968
 1427POPC   C4A21450  34.764  36.902   7.722
 1427POPC   C1B21451  34.244  37.088   8.794
 1427POPC   C2B21452  34.336  36.915   8.416
 1427POPC   C3B21453  34.436  37.162   8.054
 1427POPC   C4B21454  34.274  37.121   7.639
 1428POPC   NC321455  36.308  37.343   9.214
 1428POPC   PO421456  35.786  37.733   9.445
 1428POPC   GL121457  35.977  37.767   9.089
 1428POPC   GL221458  36.310  37.880   9.203
 1428POPC   C1A21459  35.995  37.549   8.697
 1428POPC   D2A21460  36.248  37.351   8.403
 1428POPC   C3A21461  36.073  37.607   8.112
 1428POPC   C4A21462  36.015  37.549   7.715
 1428POPC   C1B21463  36.286  37.986   8.764
 1428POPC   C2B21464  36.240  38.036   8.327
 1428POPC   C3B21465  36.420  38.075   7.914
 1428POPC   C4B21466  36.291  37.943   7.542
 1429POPC   NC321467  23.400   6.505   9.567
 1429POPC   PO421468  22.855   6.278   9.205
 1429POPC   GL121469  22.999   6.662   9.018
 1429POPC   GL221470  23.337   6.772   9.074
 1429POPC   C1A21471  22.955   6.769   8.578
 1429POPC   D2A21472  22.640   6.774   8.263
 1429POPC   C3A21473  22.765   6.474   7.955
 1429POPC   C4A21474  23.158   6.333   7.866
 1429POPC   C1B21475  23.347   7.032   8.755
 1429POPC   C2B21476  23.342   7.054   8.331
 1429POPC   C3B21477  23.118   6.861   7.995
 1429POPC   C4B21478  22.726   6.971   7.798
 1430POPC   NC321479  41.115  23.041   9.436
 1430POPC   PO421480  41.707  22.709   9.616
 1430POPC   GL121481  41.585  22.898   9.229
 1430POPC   GL221482  41.781  23.179   9.108
 1430POPC   C1A21483  41.411  22.832   8.819
 1430POPC   D2A21484  41.540  22.567   8.479
 1430POPC   C3A21485  41.517  22.676   8.052
 1430POPC   C4A21486  41.660  22.754   7.635
 1430POPC   C1B21487  41.539  23.327   8.750
 1430POPC   C2B21488  41.430  23.115   8.370
 1430POPC   C3B21489  41.668  23.142   7.973
 1430POPC   C4B21490  41.450  23.193   7.580
 1431POPC   NC321491  20.381  28.733   9.455
 1431POPC   PO421492  20.524  29.379   9.215
 1431POPC   GL121493  20.485  29.012   9.044
 1431POPC   GL221494  20.809  28.867   9.105
 1431POPC   C1A21495  20.535  29.010   8.646
 1431POPC   D2A21496  20.651  29.156   8.271
 1431POPC   C3A21497  20.465  28.941   7.940
 1431POPC   C4A21498  20.509  29.274   7.701
 1431POPC   C1B21499  21.021  28.938   8.699
 1431POPC   C2B21500  20.990  28.779   8.248
 1431POPC   C3B21501  20.950  29.029   7.853
 1431POPC   C4B21502  20.797  28.852   7.476
 1432POPC   NC321503  19.641   4.486   9.532
 1432POPC   PO421504  20.037   3.936   9.439
 1432POPC   GL121505  19.787   4.168   9.125
 1432POPC   GL221506  19.899   4.542   9.109
 1432POPC   C1A21507  19.744   4.260   8.676
 1432POPC   D2A21508  19.911   4.467   8.321
 1432POPC   C3A21509  19.770   4.350   7.895
 1432POPC   C4A21510  19.917   4.479   7.470
 1432POPC   C1B21511  19.566   4.699   8.853
 1432POPC   C2B21512  19.580   4.844   8.422
 1432POPC   C3B21513  19.398   4.708   8.037
 1432POPC   C4B21514  19.445   4.656   7.604
 1433POPC   NC321515  44.693  18.109   9.556
 1433POPC   PO421516  44.392  18.792   9.501
 1433POPC   GL121517  44.699  18.508   9.181
 1433POPC   GL221518  44.922  18.149   9.113
 1433POPC   C1A21519  44.811  18.469   8.737
 1433POPC   D2A21520  44.512  18.473   8.419
 1433POPC   C3A21521  44.717  18.497   8.037
 1433POPC   C4A21522  44.448  18.497   7.728
 1433POPC   C1B21523  44.931  17.961   8.722
 1433POPC   C2B21524  44.770  18.046   8.309
 1433POPC   C3B21525  44.738  18.008   7.865
 1433POPC   C4B21526  44.980  18.130   7.548
 1434POPC   NC321527   3.166  28.516   9.586
 1434POPC   PO421528   3.481  28.040   9.391
 1434POPC   GL121529   3.355  28.356   9.116
 1434POPC   GL221530   3.479  28.684   9.169
 1434POPC   C1A21531   3.509  28.316   8.710
 1434POPC   D2A21532   3.397  28.001   8.432
 1434POPC   C3A21533   3.518  28.119   8.034
 1434POPC   C4A21534   3.299  28.094   7.635
 1434POPC   C1B21535   3.239  28.750   8.771
 1434POPC   C2B21536   3.112  28.551   8.360
 1434POPC   C3B21537   3.262  28.542   7.925
 1434POPC   C4B21538   3.719  28.624   7.959
 1435POPC   NC321539   6.926   8.353   9.363
 1435POPC   PO421540   6.593   7.796   9.568
 1435POPC   GL121541   6.725   7.939   9.172
 1435POPC   GL221542   6.459   8.179   9.127
 1435POPC   C1A21543   6.772   8.018   8.737
 1435POPC   D2A21544   6.474   7.989   8.408
 1435POPC   C3A21545   6.659   7.949   8.001
 1435POPC   C4A21546   6.929   7.988   7.627
 1435POPC   C1B21547   6.386   8.405   8.737
 1435POPC   C2B21548   6.175   8.404   8.327
 1435POPC   C3B21549   6.401   8.381   7.953
 1435POPC   C4B21550   6.249   8.537   7.594
 1436POPC   NC321551  34.325  36.120   9.363
 1436POPC   PO421552  34.884  35.798   9.423
 1436POPC   GL121553  34.740  36.048   9.091
 1436POPC   GL221554  34.810  36.402   9.134
 1436POPC   C1A21555  34.606  35.925   8.692
 1436POPC   D2A21556  34.384  35.941   8.317
 1436POPC   C3A21557  34.542  36.062   7.904
 1436POPC   C4A21558  34.578  35.742   7.541
 1436POPC   C1B21559  34.532  36.439   8.788
 1436POPC   C2B21560  34.620  36.398   8.371
 1436POPC   C3B21561  34.916  36.417   8.015
 1436POPC   C4B21562  34.779  36.414   7.571
 1437POPC   NC321563  31.402   0.624   9.289
 1437POPC   PO421564  31.622  44.923   9.370
 1437POPC   GL121565  31.557   0.197   9.039
 1437POPC   GL221566  31.209   0.231   9.007
 1437POPC   C1A21567  31.687   0.283   8.611
 1437POPC   D2A21568  31.559   0.050   8.224
 1437POPC   C3A21569  31.528   0.301   7.870
 1437POPC   C4A21570  31.683   0.671   7.659
 1437POPC   C1B21571  31.195   0.109   8.594
 1437POPC   C2B21572  31.243   0.462   8.278
 1437POPC   C3B21573  31.208   0.684   7.868
 1437POPC   C4B21574  31.262   0.447   7.467
 1438POPC   NC321575  40.761  32.413   9.329
 1438POPC   PO421576  41.187  32.005   9.601
 1438POPC   GL121577  40.951  31.956   9.152
 1438POPC   GL221578  40.627  32.055   8.983
 1438POPC   C1A21579  40.997  32.299   8.760
 1438POPC   D2A21580  40.914  32.394   8.338
 1438POPC   C3A21581  41.061  32.096   8.046
 1438POPC   C4A21582  40.991  32.353   7.687
 1438POPC   C1B21583  40.542  31.778   8.634
 1438POPC   C2B21584  40.620  31.938   8.231
 1438POPC   C3B21585  40.541  32.278   7.946
 1438POPC   C4B21586  40.487  32.314   7.497
 1439POPC   NC321587   9.477  42.910   9.648
 1439POPC   PO421588   9.666  43.551   9.657
 1439POPC   GL121589   9.635  43.319   9.252
 1439POPC   GL221590   9.880  43.072   9.124
 1439POPC   C1A21591   9.706  43.491   8.818
 1439POPC   D2A21592   9.826  43.434   8.360
 1439POPC   C3A21593   9.753  43.314   7.921
 1439POPC   C4A21594  10.048  42.987   7.810
 1439POPC   C1B21595   9.764  43.003   8.691
 1439POPC   C2B21596   9.631  42.956   8.258
 1439POPC   C3B21597   9.576  42.806   7.823
 1439POPC   C4B21598   9.402  42.697   7.416
 1440POPC   NC321599  38.847  30.775   9.492
 1440POPC   PO421600  38.307  30.440   9.762
 1440POPC   GL121601  38.261  30.420   9.218
 1440POPC   GL221602  38.649  30.475   9.107
 1440POPC   C1A21603  38.292  30.612   8.742
 1440POPC   D2A21604  38.595  30.454   8.390
 1440POPC   C3A21605  38.641  30.510   7.899
 1440POPC   C4A21606  38.333  30.405   7.511
 1440POPC   C1B21607  38.785  30.809   8.788
 1440POPC   C2B21608  38.683  30.960   8.358
 1440POPC   C3B21609  38.771  31.022   7.924
 1440POPC   C4B21610  38.631  30.862   7.496
 1441POPC   NC321611  16.416  30.898   9.604
 1441POPC   PO421612  16.809  30.436   9.437
 1441POPC   GL121613  16.543  30.664   9.162
 1441POPC   GL221614  16.660  31.011   9.150
 1441POPC   C1A21615  16.363  30.625   8.775
 1441POPC   D2A21616  16.602  30.606   8.390
 1441POPC   C3A21617  16.451  30.489   7.998
 1441POPC   C4A21618  16.758  30.427   7.635
 1441POPC   C1B21619  16.777  30.968   8.719
 1441POPC   C2B21620  16.710  31.093   8.288
 1441POPC   C3B21621  16.825  30.881   7.904
 1441POPC   C4B21622  16.713  30.952   7.467
 1442POPC   NC321623   9.144   1.508   9.400
 1442POPC   PO421624   8.584   1.198   9.471
 1442POPC   GL121625   8.874   1.114   9.090
 1442POPC   GL221626   9.166   0.847   9.074
 1442POPC   C1A21627   9.014   1.430   8.765
 1442POPC   D2A21628   9.268   1.424   8.372
 1442POPC   C3A21629   9.012   1.317   8.011
 1442POPC   C4A21630   9.011   1.307   7.586
 1442POPC   C1B21631   9.104   0.968   8.618
 1442POPC   C2B21632   8.742   1.166   8.412
 1442POPC   C3B21633   8.457   1.014   8.105
 1442POPC   C4B21634   8.486   0.719   7.784
 1443POPC   NC321635  13.445  33.466   9.359
 1443POPC   PO421636  13.864  33.864   9.525
 1443POPC   GL121637  13.761  33.793   9.136
 1443POPC   GL221638  13.917  33.449   9.165
 1443POPC   C1A21639  13.661  33.929   8.732
 1443POPC   D2A21640  13.478  33.830   8.339
 1443POPC   C3A21641  13.586  34.128   8.014
 1443POPC   C4A21642  13.770  34.175   7.591
 1443POPC   C1B21643  13.757  33.385   8.750
 1443POPC   C2B21644  13.906  33.478   8.343
 1443POPC   C3B21645  13.825  33.684   7.949
 1443POPC   C4B21646  13.875  33.714   7.478
 1444POPC   NC321647  37.826  33.583   9.594
 1444POPC   PO421648  37.723  34.146   9.387
 1444POPC   GL121649  37.914  33.847   9.161
 1444POPC   GL221650  37.909  34.071   8.925
 1444POPC   C1A21651  37.783  33.600   8.810
 1444POPC   D2A21652  37.533  33.634   8.421
 1444POPC   C3A21653  37.755  33.480   8.063
 1444POPC   C4A21654  37.981  33.165   7.824
 1444POPC   C1B21655  37.481  34.012   8.782
 1444POPC   C2B21656  37.447  34.216   8.393
 1444POPC   C3B21657  37.707  34.011   8.094
 1444POPC   C4B21658  37.573  33.828   7.709
 1445POPC   NC321659  13.446   7.772   9.330
 1445POPC   PO421660  13.386   7.097   9.502
 1445POPC   GL121661  13.575   7.195   9.122
 1445POPC   GL221662  13.831   7.483   9.122
 1445POPC   C1A21663  13.348   7.060   8.758
 1445POPC   D2A21664  13.219   7.174   8.357
 1445POPC   C3A21665  13.540   7.348   8.192
 1445POPC   C4A21666  13.709   7.100   7.900
 1445POPC   C1B21667  13.631   7.512   8.711
 1445POPC   C2B21668  13.535   7.835   8.406
 1445POPC   C3B21669  13.747   7.805   8.014
 1445POPC   C4B21670  13.538   7.538   7.718
 1446POPC   NC321671  13.062  22.525   9.368
 1446POPC   PO421672  12.832  23.116   9.642
 1446POPC   GL121673  12.761  22.974   9.178
 1446POPC   GL221674  12.598  22.633   9.111
 1446POPC   C1A21675  12.946  22.781   8.762
 1446POPC   D2A21676  12.863  22.629   8.334
 1446POPC   C3A21677  12.952  22.882   7.975
 1446POPC   C4A21678  12.834  23.216   7.722
 1446POPC   C1B21679  12.454  22.871   8.723
 1446POPC   C2B21680  12.511  23.014   8.295
 1446POPC   C3B21681  12.466  22.884   7.857
 1446POPC   C4B21682  12.544  22.952   7.394
 1447POPC   NC321683  39.294  31.588   9.759
 1447POPC   PO421684  39.327  32.293   9.710
 1447POPC   GL121685  39.288  32.097   9.351
 1447POPC   GL221686  39.141  32.404   9.216
 1447POPC   C1A21687  39.356  32.075   8.912
 1447POPC   D2A21688  39.319  32.302   8.554
 1447POPC   C3A21689  39.304  32.120   8.187
 1447POPC   C4A21690  39.185  32.108   7.788
 1447POPC   C1B21691  38.904  32.426   8.836
 1447POPC   C2B21692  38.955  32.627   8.442
 1447POPC   C3B21693  38.992  32.513   8.031
 1447POPC   C4B21694  38.676  32.503   7.708
 1448POPC   NC321695  38.314  35.428   9.623
 1448POPC   PO421696  38.009  34.914   9.395
 1448POPC   GL121697  38.291  35.196   9.113
 1448POPC   GL221698  38.519  35.514   9.159
 1448POPC   C1A21699  38.415  35.296   8.692
 1448POPC   D2A21700  38.746  35.405   8.399
 1448POPC   C3A21701  38.552  35.349   7.982
 1448POPC   C4A21702  38.604  35.184   7.577
 1448POPC   C1B21703  38.248  35.757   8.885
 1448POPC   C2B21704  38.372  35.774   8.443
 1448POPC   C3B21705  38.371  35.857   8.012
 1448POPC   C4B21706  38.315  35.645   7.591
 1449POPC   NC321707  39.640   9.318   9.361
 1449POPC   PO421708  40.278   9.114   9.423
 1449POPC   GL121709  40.023   8.983   9.157
 1449POPC   GL221710  40.125   8.647   9.085
 1449POPC   C1A21711  40.105   8.999   8.746
 1449POPC   D2A21712  40.210   8.844   8.369
 1449POPC   C3A21713  39.941   8.983   8.065
 1449POPC   C4A21714  39.994   8.925   7.672
 1449POPC   C1B21715  39.706   8.697   8.885
 1449POPC   C2B21716  39.659   8.923   8.512
 1449POPC   C3B21717  39.453   8.875   8.125
 1449POPC   C4B21718  39.613   8.606   7.770
 1450POPC   NC321719  33.405  22.507   9.551
 1450POPC   PO421720  33.857  22.963   9.481
 1450POPC   GL121721  33.786  22.760   9.135
 1450POPC   GL221722  33.975  22.460   9.058
 1450POPC   C1A21723  33.918  22.855   8.731
 1450POPC   D2A21724  34.049  23.087   8.403
 1450POPC   C3A21725  33.723  23.113   8.145
 1450POPC   C4A21726  33.757  23.162   7.722
 1450POPC   C1B21727  34.079  22.357   8.654
 1450POPC   C2B21728  33.960  22.534   8.283
 1450POPC   C3B21729  34.002  22.741   7.908
 1450POPC   C4B21730  33.806  22.695   7.492
 1451POPC   NC321731   3.316  14.634   9.597
 1451POPC   PO421732   3.352  15.207   9.364
 1451POPC   GL121733   3.468  15.289   8.974
 1451POPC   GL221734   3.229  15.614   9.079
 1451POPC   C1A21735   3.729  14.954   8.773
 1451POPC   D2A21736   3.920  14.765   8.417
 1451POPC   C3A21737   3.799  15.079   8.113
 1451POPC   C4A21738   3.676  15.134   7.689
 1451POPC   C1B21739   3.121  15.512   8.709
 1451POPC   C2B21740   3.339  15.647   8.363
 1451POPC   C3B21741   3.195  15.706   7.962
 1451POPC   C4B21742   3.242  15.442   7.621
 1452POPC   NC321743  27.627   2.958   9.600
 1452POPC   PO421744  27.276   3.536   9.481
 1452POPC   GL121745  27.439   3.668   9.075
 1452POPC   GL221746  27.646   3.399   9.060
 1452POPC   C1A21747  27.581   3.796   8.639
 1452POPC   D2A21748  27.826   3.650   8.270
 1452POPC   C3A21749  27.698   3.674   7.823
 1452POPC   C4A21750  27.537   4.016   7.549
 1452POPC   C1B21751  27.424   3.301   8.671
 1452POPC   C2B21752  27.333   3.492   8.260
 1452POPC   C3B21753  27.335   3.255   7.865
 1452POPC   C4B21754  27.118   3.106   7.495
 1453POPC   NC321755  15.590   4.859   9.298
 1453POPC   PO421756  16.214   4.907   9.574
 1453POPC   GL121757  16.057   5.096   9.166
 1453POPC   GL221758  15.784   5.319   9.165
 1453POPC   C1A21759  16.222   5.219   8.718
 1453POPC   D2A21760  16.462   5.177   8.338
 1453POPC   C3A21761  16.185   5.245   8.034
 1453POPC   C4A21762  16.027   5.310   7.646
 1453POPC   C1B21763  15.721   5.126   8.746
 1453POPC   C2B21764  15.789   5.299   8.375
 1453POPC   C3B21765  15.654   5.192   7.996
 1453POPC   C4B21766  15.525   5.363   7.632
 1454POPC   NC321767   5.369  33.722   9.329
 1454POPC   PO421768   6.033  34.051   9.407
 1454POPC   GL121769   5.779  33.914   9.072
 1454POPC   GL221770   5.785  33.531   9.108
 1454POPC   C1A21771   5.711  33.775   8.650
 1454POPC   D2A21772   5.830  33.586   8.282
 1454POPC   C3A21773   6.071  33.778   7.951
 1454POPC   C4A21774   5.902  33.894   7.533
 1454POPC   C1B21775   6.141  33.577   8.821
 1454POPC   C2B21776   6.237  33.303   8.500
 1454POPC   C3B21777   6.175  33.273   8.098
 1454POPC   C4B21778   6.273  33.344   7.717
 1455POPC   NC321779  13.553  20.982   9.525
 1455POPC   PO421780  13.672  21.595   9.452
 1455POPC   GL121781  13.778  21.572   9.083
 1455POPC   GL221782  13.700  21.227   9.070
 1455POPC   C1A21783  13.791  21.535   8.667
 1455POPC   D2A21784  13.502  21.614   8.372
 1455POPC   C3A21785  13.686  21.565   7.971
 1455POPC   C4A21786  13.422  21.377   7.693
 1455POPC   C1B21787  13.531  21.094   8.657
 1455POPC   C2B21788  13.556  21.129   8.214
 1455POPC   C3B21789  13.799  21.050   7.852
 1455POPC   C4B21790  13.823  21.182   7.404
 1456POPC   NC321791  23.179  14.550   9.349
 1456POPC   PO421792  22.947  15.255   9.441
 1456POPC   GL121793  22.689  15.305   9.077
 1456POPC   GL221794  22.824  14.973   8.995
 1456POPC   C1A21795  22.684  15.272   8.600
 1456POPC   D2A21796  22.925  14.960   8.352
 1456POPC   C3A21797  22.832  14.971   7.918
 1456POPC   C4A21798  22.587  15.387   7.857
 1456POPC   C1B21799  23.130  15.333   8.805
 1456POPC   C2B21800  23.152  15.522   8.433
 1456POPC   C3B21801  23.169  15.345   8.047
 1456POPC   C4B21802  23.043  15.354   7.638
 1457POPC   NC321803  19.614   8.516   9.396
 1457POPC   PO421804  20.036   8.007   9.505
 1457POPC   GL121805  19.896   8.126   9.105
 1457POPC   GL221806  20.040   8.450   9.099
 1457POPC   C1A21807  20.137   8.181   8.694
 1457POPC   D2A21808  20.061   8.191   8.284
 1457POPC   C3A21809  20.177   8.286   7.892
 1457POPC   C4A21810  20.044   8.005   7.615
 1457POPC   C1B21811  19.720   8.445   8.742
 1457POPC   C2B21812  19.540   8.248   8.366
 1457POPC   C3B21813  19.666   8.165   7.961
 1457POPC   C4B21814  19.755   8.437   7.620
 1458POPC   NC321815   3.142   6.057   9.555
 1458POPC   PO421816   2.571   5.904   9.840
 1458POPC   GL121817   2.687   6.002   9.326
 1458POPC   GL221818   2.738   5.720   9.107
 1458POPC   C1A21819   2.737   6.113   8.818
 1458POPC   D2A21820   2.681   5.827   8.457
 1458POPC   C3A21821   2.728   5.976   8.072
 1458POPC   C4A21822   2.639   5.970   7.693
 1458POPC   C1B21823   3.011   5.592   8.778
 1458POPC   C2B21824   3.172   5.684   8.365
 1458POPC   C3B21825   3.000   5.552   7.988
 1458POPC   C4B21826   2.841   5.501   7.594
 1459POPC   NC321827  11.950  36.255   9.432
 1459POPC   PO421828  12.503  36.088   9.870
 1459POPC   GL121829  12.423  36.178   9.345
 1459POPC   GL221830  12.201  35.927   9.123
 1459POPC   C1A21831  12.367  36.280   8.834
 1459POPC   D2A21832  12.263  35.956   8.490
 1459POPC   C3A21833  12.208  36.152   8.109
 1459POPC   C4A21834  12.164  36.254   7.661
 1459POPC   C1B21835  11.876  36.094   8.788
 1459POPC   C2B21836  11.710  35.946   8.375
 1459POPC   C3B21837  11.724  36.056   7.947
 1459POPC   C4B21838  11.657  36.319   7.606
 1460POPC   NC321839  25.878   0.894   9.362
 1460POPC   PO421840  26.346   1.310   9.447
 1460POPC   GL121841  26.050   1.314   9.115
 1460POPC   GL221842  26.214   0.989   8.981
 1460POPC   C1A21843  25.877   1.247   8.685
 1460POPC   D2A21844  26.085   1.099   8.265
 1460POPC   C3A21845  25.955   1.352   7.864
 1460POPC   C4A21846  26.127   1.276   7.442
 1460POPC   C1B21847  25.887   0.754   8.728
 1460POPC   C2B21848  25.688   0.761   8.328
 1460POPC   C3B21849  25.750   0.881   7.876
 1460POPC   C4B21850  25.798   0.873   7.415
 1461POPC   NC321851  37.606  32.758   9.376
 1461POPC   PO421852  38.027  33.170   9.575
 1461POPC   GL121853  37.827  33.237   9.170
 1461POPC   GL221854  37.442  33.249   9.203
 1461POPC   C1A21855  37.688  33.121   8.726
 1461POPC   D2A21856  37.555  32.804   8.434
 1461POPC   C3A21857  37.509  32.999   8.028
 1461POPC   C4A21858  37.572  32.813   7.612
 1461POPC   C1B21859  37.245  33.420   8.810
 1461POPC   C2B21860  37.056  33.388   8.390
 1461POPC   C3B21861  37.253  33.479   7.991
 1461POPC   C4B21862  37.530  33.337   7.632
 1462POPC   NC321863  33.999  13.475   9.551
 1462POPC   PO421864  33.373  13.597   9.368
 1462POPC   GL121865  33.722  13.671   9.135
 1462POPC   GL221866  33.790  13.293   9.125
 1462POPC   C1A21867  33.903  13.812   8.738
 1462POPC   D2A21868  33.813  13.602   8.365
 1462POPC   C3A21869  33.927  13.765   7.980
 1462POPC   C4A21870  33.623  13.881   7.687
 1462POPC   C1B21871  33.545  13.358   8.740
 1462POPC   C2B21872  33.610  13.127   8.353
 1462POPC   C3B21873  33.724  13.282   7.979
 1462POPC   C4B21874  33.786  13.417   7.578
 1463POPC   NC321875  18.815  10.358   9.477
 1463POPC   PO421876  19.438  10.504   9.417
 1463POPC   GL121877  19.156  10.459   9.074
 1463POPC   GL221878  18.910  10.701   9.101
 1463POPC   C1A21879  19.206  10.472   8.622
 1463POPC   D2A21880  19.412  10.640   8.281
 1463POPC   C3A21881  19.190  10.500   7.892
 1463POPC   C4A21882  18.948  10.392   7.468
 1463POPC   C1B21883  18.730  10.640   8.717
 1463POPC   C2B21884  18.608  10.543   8.300
 1463POPC   C3B21885  18.689  10.558   7.869
 1463POPC   C4B21886  18.562  10.737   7.470
 1464POPC   NC321887  16.883  33.343   9.793
 1464POPC   PO421888  16.275  33.186   9.567
 1464POPC   GL121889  16.507  33.130   9.189
 1464POPC   GL221890  16.835  33.321   9.272
 1464POPC   C1A21891  16.438  32.932   8.760
 1464POPC   D2A21892  16.603  32.846   8.321
 1464POPC   C3A21893  16.466  32.862   7.870
 1464POPC   C4A21894  16.870  32.758   7.570
 1464POPC   C1B21895  16.835  33.276   8.819
 1464POPC   C2B21896  16.862  33.280   8.369
 1464POPC   C3B21897  16.868  33.156   7.926
 1464POPC   C4B21898  16.944  33.366   7.502
 1465POPC   NC321899  27.000   3.963   9.562
 1465POPC   PO421900  26.704   4.598   9.359
 1465POPC   GL121901  26.722   4.159   9.172
 1465POPC   GL221902  27.065   4.032   9.073
 1465POPC   C1A21903  26.644   3.960   8.774
 1465POPC   D2A21904  26.698   4.286   8.474
 1465POPC   C3A21905  26.594   4.306   8.048
 1465POPC   C4A21906  26.684   3.988   7.743
 1465POPC   C1B21907  27.138   4.371   8.782
 1465POPC   C2B21908  27.134   4.513   8.334
 1465POPC   C3B21909  27.075   4.364   7.899
 1465POPC   C4B21910  27.299   4.470   7.514
 1466POPC   NC321911  10.255  36.667   9.464
 1466POPC   PO421912  10.581  37.266   9.639
 1466POPC   GL121913  10.444  37.081   9.226
 1466POPC   GL221914  10.688  36.801   9.128
 1466POPC   C1A21915  10.279  36.828   8.840
 1466POPC   D2A21916  10.459  36.818   8.438
 1466POPC   C3A21917  10.203  36.752   8.120
 1466POPC   C4A21918  10.456  36.852   7.784
 1466POPC   C1B21919  10.657  37.153   8.778
 1466POPC   C2B21920  10.805  37.258   8.376
 1466POPC   C3B21921  10.864  37.132   7.956
 1466POPC   C4B21922  10.777  37.130   7.496
 1467POPC   NC321923   8.184   9.531   9.345
 1467POPC   PO421924   7.864   8.944   9.513
 1467POPC   GL121925   8.106   9.067   9.144
 1467POPC   GL221926   8.432   8.921   9.023
 1467POPC   C1A21927   8.016   9.066   8.733
 1467POPC   D2A21928   8.135   8.870   8.374
 1467POPC   C3A21929   7.794   8.952   8.154
 1467POPC   C4A21930   7.874   9.158   7.821
 1467POPC   C1B21931   8.570   9.134   8.628
 1467POPC   C2B21932   8.559   9.209   8.181
 1467POPC   C3B21933   8.379   8.951   7.880
 1467POPC   C4B21934   8.465   8.509   7.778
 1468POPC   NC321935  11.342  22.505   9.689
 1468POPC   PO421936  11.428  21.838   9.827
 1468POPC   GL121937  11.465  22.087   9.381
 1468POPC   GL221938  11.795  22.101   9.254
 1468POPC   C1A21939  11.315  22.183   8.927
 1468POPC   D2A21940  11.089  22.378   8.539
 1468POPC   C3A21941  11.144  22.272   8.092
 1468POPC   C4A21942  11.153  22.288   7.633
 1468POPC   C1B21943  11.804  22.141   8.803
 1468POPC   C2B21944  11.568  22.236   8.404
 1468POPC   C3B21945  11.654  22.233   7.934
 1468POPC   C4B21946  11.639  22.284   7.419
 1469POPC   NC321947   2.989  17.143   9.540
 1469POPC   PO421948   3.576  16.729   9.576
 1469POPC   GL121949   3.385  16.625   9.188
 1469POPC   GL221950   3.590  16.859   9.050
 1469POPC   C1A21951   3.434  16.432   8.748
 1469POPC   D2A21952   3.322  16.709   8.416
 1469POPC   C3A21953   3.439  16.653   8.011
 1469POPC   C4A21954   3.652  16.344   7.824
 1469POPC   C1B21955   3.613  17.061   8.643
 1469POPC   C2B21956   3.840  17.064   8.308
 1469POPC   C3B21957   3.885  17.276   7.944
 1469POPC   C4B21958   3.682  16.993   7.712
 1470POPC   NC321959  14.126  21.789   9.503
 1470POPC   PO421960  14.648  21.390   9.546
 1470POPC   GL121961  14.523  21.600   9.204
 1470POPC   GL221962  14.231  21.386   9.168
 1470POPC   C1A21963  14.453  21.612   8.764
 1470POPC   D2A21964  14.222  21.523   8.381
 1470POPC   C3A21965  14.453  21.700   8.086
 1470POPC   C4A21966  14.686  21.570   7.761
 1470POPC   C1B21967  14.121  21.146   8.780
 1470POPC   C2B21968  14.370  21.034   8.415
 1470POPC   C3B21969  14.490  21.151   8.006
 1470POPC   C4B21970  14.174  21.380   7.779
 1471POPC   NC321971  12.937  15.768   9.577
 1471POPC   PO421972  12.535  16.287   9.598
 1471POPC   GL121973  12.747  16.235   9.216
 1471POPC   GL221974  12.903  15.905   9.079
 1471POPC   C1A21975  12.641  16.251   8.790
 1471POPC   D2A21976  12.735  15.884   8.549
 1471POPC   C3A21977  12.798  15.942   8.114
 1471POPC   C4A21978  12.624  16.073   7.746
 1471POPC   C1B21979  13.181  15.543   8.933
 1471POPC   C2B21980  13.211  15.349   8.530
 1471POPC   C3B21981  12.981  15.491   8.180
 1471POPC   C4B21982  13.092  15.693   7.766
 1472POPC   NC321983  14.889  30.197   9.572
 1472POPC   PO421984  15.353  29.734   9.453
 1472POPC   GL121985  15.056  29.883   9.169
 1472POPC   GL221986  15.054  30.219   9.093
 1472POPC   C1A21987  15.013  29.780   8.748
 1472POPC   D2A21988  15.184  30.009   8.389
 1472POPC   C3A21989  15.174  29.810   7.999
 1472POPC   C4A21990  15.460  29.544   7.782
 1472POPC   C1B21991  14.839  30.259   8.681
 1472POPC   C2B21992  14.745  30.212   8.218
 1472POPC   C3B21993  14.919  30.304   7.788
 1472POPC   C4B21994  15.115  30.270   7.399
 1473POPC   NC321995  16.361  27.057   9.474
 1473POPC   PO421996  17.064  26.723   9.486
 1473POPC   GL121997  16.822  26.694   9.117
 1473POPC   GL221998  16.457  26.654   9.138
 1473POPC   C1A21999  16.715  26.990   8.819
 1473POPC   D2A22000  16.855  27.231   8.481
 1473POPC   C3A22001  16.757  27.097   8.065
 1473POPC   C4A22002  17.000  27.124   7.723
 1473POPC   C1B22003  16.224  26.804   8.775
 1473POPC   C2B22004  16.444  26.862   8.392
 1473POPC   C3B22005  16.630  26.573   8.087
 1473POPC   C4B22006  16.703  26.708   7.665
 1474POPC   NC322007  41.267  36.994   9.404
 1474POPC   PO422008  41.846  36.748   9.299
 1474POPC   GL122009  41.644  37.043   9.048
 1474POPC   GL222010  41.411  36.847   8.949
 1474POPC   C1A22011  41.650  37.110   8.582
 1474POPC   D2A22012  41.516  36.790   8.262
 1474POPC   C3A22013  41.633  36.841   7.829
 1474POPC   C4A22014  41.931  36.644   7.583
 1474POPC   C1B22015  41.176  36.927   8.613
 1474POPC   C2B22016  40.983  36.990   8.248
 1474POPC   C3B22017  41.114  36.858   7.884
 1474POPC   C4B22018  41.206  37.003   7.515
 1475POPC   NC322019   8.200  44.820   9.576
 1475POPC   PO422020   8.195   0.459   9.773
 1475POPC   GL122021   8.048   0.219   9.325
 1475POPC   GL222022   8.404   0.167   9.217
 1475POPC   C1A22023   8.063   0.222   8.836
 1475POPC   D2A22024   8.287   0.396   8.454
 1475POPC   C3A22025   8.113   0.389   8.016
 1475POPC   C4A22026   7.955   0.751   7.822
 1475POPC   C1B22027   8.573   0.099   8.791
 1475POPC   C2B22028   8.565  44.965   8.364
 1475POPC   C3B22029   8.610   0.277   8.042
 1475POPC   C4B22030   8.600   0.247   7.593
 1476POPC   NC322031  28.570   6.004   9.603
 1476POPC   PO422032  27.933   5.845   9.545
 1476POPC   GL122033  28.113   6.091   9.229
 1476POPC   GL222034  28.331   5.827   9.157
 1476POPC   C1A22035  28.083   6.079   8.773
 1476POPC   D2A22036  28.284   5.871   8.434
 1476POPC   C3A22037  28.341   6.125   8.075
 1476POPC   C4A22038  28.357   5.948   7.670
 1476POPC   C1B22039  28.588   6.104   8.890
 1476POPC   C2B22040  28.766   6.028   8.473
 1476POPC   C3B22041  28.720   5.796   8.079
 1476POPC   C4B22042  28.882   5.926   7.694
 1477POPC   NC322043  32.032  21.931   9.633
 1477POPC   PO422044  32.579  22.273   9.503
 1477POPC   GL122045  32.356  22.008   9.228
 1477POPC   GL222046  32.018  22.139   9.163
 1477POPC   C1A22047  32.310  21.829   8.817
 1477POPC   D2A22048  32.598  21.673   8.504
 1477POPC   C3A22049  32.469  21.748   8.066
 1477POPC   C4A22050  32.249  22.120   7.912
 1477POPC   C1B22051  32.238  22.367   8.821
 1477POPC   C2B22052  32.134  22.406   8.384
 1477POPC   C3B22053  31.806  22.306   8.104
 1477POPC   C4B22054  31.852  22.273   7.659
 1478POPC   NC322055  22.412  31.353   9.461
 1478POPC   PO422056  21.981  31.814   9.678
 1478POPC   GL122057  22.035  31.561   9.211
 1478POPC   GL222058  21.877  31.687   8.927
 1478POPC   C1A22059  22.275  31.362   8.795
 1478POPC   D2A22060  22.383  31.301   8.318
 1478POPC   C3A22061  22.412  31.054   7.916
 1478POPC   C4A22062  22.224  31.319   7.587
 1478POPC   C1B22063  21.793  31.213   8.838
 1478POPC   C2B22064  21.867  31.024   8.423
 1478POPC   C3B22065  21.917  31.198   7.994
 1478POPC   C4B22066  21.698  31.212   7.582
 1479POPC   NC322067   4.114  28.218   9.412
 1479POPC   PO422068   4.758  27.917   9.340
 1479POPC   GL122069   4.631  28.310   9.065
 1479POPC   GL222070   4.252  28.371   8.930
 1479POPC   C1A22071   4.644  28.435   8.620
 1479POPC   D2A22072   4.268  28.289   8.374
 1479POPC   C3A22073   4.202  28.397   7.921
 1479POPC   C4A22074   4.243  28.586   7.497
 1479POPC   C1B22075   3.970  27.999   8.723
 1479POPC   C2B22076   3.881  27.752   8.320
 1479POPC   C3B22077   3.954  27.925   7.886
 1479POPC   C4B22078   3.801  28.268   7.606
 1480POPC   NC322079   3.193  19.588   9.507
 1480POPC   PO422080   2.530  19.938   9.383
 1480POPC   GL122081   2.799  19.881   9.060
 1480POPC   GL222082   2.831  19.551   9.144
 1480POPC   C1A22083   3.013  19.682   8.692
 1480POPC   D2A22084   3.166  19.644   8.291
 1480POPC   C3A22085   2.959  19.781   7.892
 1480POPC   C4A22086   2.868  19.954   7.438
 1480POPC   C1B22087   2.526  19.561   8.779
 1480POPC   C2B22088   2.573  19.422   8.355
 1480POPC   C3B22089   2.479  19.602   8.000
 1480POPC   C4B22090   2.510  19.640   7.591
 1481POPC   NC322091  16.180  25.282   9.432
 1481POPC   PO422092  15.710  24.889   9.392
 1481POPC   GL122093  15.727  25.036   8.980
 1481POPC   GL222094  15.922  25.333   8.970
 1481POPC   C1A22095  15.733  25.074   8.538
 1481POPC   D2A22096  15.887  25.129   8.134
 1481POPC   C3A22097  16.157  25.492   8.019
 1481POPC   C4A22098  16.290  25.755   7.660
 1481POPC   C1B22099  16.202  24.988   8.786
 1481POPC   C2B22100  16.231  24.825   8.361
 1481POPC   C3B22101  16.263  24.900   7.898
 1481POPC   C4B22102  16.372  25.235   7.618
 1482POPC   NC322103  10.538  38.402   9.470
 1482POPC   PO422104  11.074  38.710   9.594
 1482POPC   GL122105  10.834  38.701   9.198
 1482POPC   GL222106  10.958  38.370   9.146
 1482POPC   C1A22107  10.464  38.625   8.887
 1482POPC   D2A22108  10.331  38.480   8.478
 1482POPC   C3A22109  10.402  38.397   8.045
 1482POPC   C4A22110  10.509  38.543   7.628
 1482POPC   C1B22111  10.883  38.440   8.691
 1482POPC   C2B22112  10.801  38.225   8.308
 1482POPC   C3B22113  10.896  38.449   7.907
 1482POPC   C4B22114  10.943  38.397   7.427
 1483POPC   NC322115   7.905  20.325   9.455
 1483POPC   PO422116   8.503  20.421   9.425
 1483POPC   GL122117   8.201  20.689   9.151
 1483POPC   GL222118   8.005  20.457   8.966
 1483POPC   C1A22119   8.019  20.934   8.774
 1483POPC   D2A22120   7.954  20.709   8.349
 1483POPC   C3A22121   8.126  20.863   7.917
 1483POPC   C4A22122   8.038  21.020   7.462
 1483POPC   C1B22123   8.380  20.549   8.693
 1483POPC   C2B22124   8.478  20.496   8.258
 1483POPC   C3B22125   8.634  20.688   7.892
 1483POPC   C4B22126   8.737  20.520   7.483
 1484POPC   NC322127  20.041  44.788   9.384
 1484POPC   PO422128  19.695  44.314   9.735
 1484POPC   GL122129  19.554  44.275   9.253
 1484POPC   GL222130  19.667  44.589   9.100
 1484POPC   C1A22131  19.629  44.212   8.764
 1484POPC   D2A22132  19.533  44.506   8.402
 1484POPC   C3A22133  19.663  44.481   7.962
 1484POPC   C4A22134  19.747  44.855   7.701
 1484POPC   C1B22135  19.916  44.744   8.727
 1484POPC   C2B22136  20.178  44.599   8.363
 1484POPC   C3B22137  20.186  44.730   7.928
 1484POPC   C4B22138  20.250  44.999   7.587
 1485POPC   NC322139  26.728  33.795   9.530
 1485POPC   PO422140  27.386  33.763   9.558
 1485POPC   GL122141  27.166  33.956   9.189
 1485POPC   GL222142  26.802  34.039   9.107
 1485POPC   C1A22143  27.126  33.787   8.785
 1485POPC   D2A22144  26.914  33.649   8.430
 1485POPC   C3A22145  27.046  33.745   8.021
 1485POPC   C4A22146  26.764  33.609   7.745
 1485POPC   C1B22147  26.516  34.068   8.789
 1485POPC   C2B22148  26.682  34.111   8.408
 1485POPC   C3B22149  26.560  33.978   8.042
 1485POPC   C4B22150  26.574  34.150   7.653
 1486POPC   NC322151  20.096   2.120   9.634
 1486POPC   PO422152  19.477   1.842   9.745
 1486POPC   GL122153  19.703   1.800   9.309
 1486POPC   GL222154  19.845   2.152   9.191
 1486POPC   C1A22155  19.822   1.774   8.850
 1486POPC   D2A22156  19.830   2.079   8.496
 1486POPC   C3A22157  19.664   1.907   8.104
 1486POPC   C4A22158  19.552   2.034   7.683
 1486POPC   C1B22159  20.244   2.054   8.963
 1486POPC   C2B22160  20.274   1.824   8.580
 1486POPC   C3B22161  20.211   1.978   8.151
 1486POPC   C4B22162  20.064   2.012   7.735
 1487POPC   NC322163  30.498  41.173   9.520
 1487POPC   PO422164  31.069  40.877   9.620
 1487POPC   GL122165  30.920  41.017   9.149
 1487POPC   GL222166  30.570  40.955   9.073
 1487POPC   C1A22167  30.834  40.803   8.671
 1487POPC   D2A22168  30.598  40.779   8.248
 1487POPC   C3A22169  30.913  40.790   7.873
 1487POPC   C4A22170  31.011  40.939   7.423
 1487POPC   C1B22171  30.499  41.173   8.712
 1487POPC   C2B22172  30.309  41.256   8.355
 1487POPC   C3B22173  30.494  41.203   7.980
 1487POPC   C4B22174  30.509  40.944   7.638
 1488POPC   NC322175  30.229  17.989   9.591
 1488POPC   PO422176  29.611  18.035   9.625
 1488POPC   GL122177  29.897  18.155   9.238
 1488POPC   GL222178  30.077  17.893   9.102
 1488POPC   C1A22179  30.071  18.335   8.832
 1488POPC   D2A22180  29.890  18.451   8.431
 1488POPC   C3A22181  30.105  18.506   8.050
 1488POPC   C4A22182  30.034  18.474   7.573
 1488POPC   C1B22183  30.058  17.845   8.655
 1488POPC   C2B22184  30.182  18.050   8.276
 1488POPC   C3B22185  30.195  18.050   7.828
 1488POPC   C4B22186  30.317  18.088   7.405
 1489POPC   NC322187  34.841  11.342   9.509
 1489POPC   PO422188  34.131  11.266   9.618
 1489POPC   GL122189  34.421  11.481   9.246
 1489POPC   GL222190  34.654  11.298   9.039
 1489POPC   C1A22191  34.390  11.611   8.766
 1489POPC   D2A22192  34.401  11.349   8.361
 1489POPC   C3A22193  34.215  11.401   7.966
 1489POPC   C4A22194  34.610  11.374   7.777
 1489POPC   C1B22195  34.788  11.090   8.627
 1489POPC   C2B22196  34.839  11.068   8.186
 1489POPC   C3B22197  34.947  10.990   7.766
 1489POPC   C4B22198  35.181  11.147   7.404
 1490POPC   NC322199  17.199  37.863   9.514
 1490POPC   PO422200  17.758  37.628   9.509
 1490POPC   GL122201  17.558  37.770   9.151
 1490POPC   GL222202  17.448  37.437   9.127
 1490POPC   C1A22203  17.321  37.763   8.746
 1490POPC   D2A22204  17.063  37.676   8.388
 1490POPC   C3A22205  17.287  37.722   7.983
 1490POPC   C4A22206  17.489  37.412   7.684
 1490POPC   C1B22207  17.686  37.367   8.762
 1490POPC   C2B22208  17.577  37.485   8.346
 1490POPC   C3B22209  17.810  37.670   8.005
 1490POPC   C4B22210  17.945  37.656   7.585
 1491POPC   NC322211  44.987  27.017   9.493
 1491POPC   PO422212  44.395  26.791   9.519
 1491POPC   GL122213  44.649  26.747   9.151
 1491POPC   GL222214  44.932  26.943   8.997
 1491POPC   C1A22215  44.468  26.795   8.762
 1491POPC   D2A22216  44.415  26.567   8.371
 1491POPC   C3A22217  44.515  26.720   7.957
 1491POPC   C4A22218  44.430  27.037   7.665
 1491POPC   C1B22219  44.929  26.788   8.584
 1491POPC   C2B22220  44.767  27.039   8.263
 1491POPC   C3B22221  44.913  27.040   7.841
 1491POPC   C4B22222  44.814  26.755   7.483
 1492POPC   NC322223  31.801  20.312   9.238
 1492POPC   PO422224  31.202  20.355   9.573
 1492POPC   GL122225  31.317  20.575   9.203
 1492POPC   GL222226  31.597  20.802   9.181
 1492POPC   C1A22227  31.212  20.480   8.797
 1492POPC   D2A22228  31.129  20.661   8.413
 1492POPC   C3A22229  31.335  20.486   8.090
 1492POPC   C4A22230  31.250  20.577   7.687
 1492POPC   C1B22231  31.726  20.746   8.741
 1492POPC   C2B22232  31.620  20.878   8.327
 1492POPC   C3B22233  31.586  20.923   7.896
 1492POPC   C4B22234  31.637  20.782   7.449
 1493POPC   NC322235  12.609  17.619   9.270
 1493POPC   PO422236  13.148  17.531   9.668
 1493POPC   GL122237  13.027  17.302   9.257
 1493POPC   GL222238  13.293  17.390   9.060
 1493POPC   C1A22239  12.918  17.174   8.811
 1493POPC   D2A22240  12.607  17.217   8.493
 1493POPC   C3A22241  12.681  17.355   8.057
 1493POPC   C4A22242  12.874  17.553   7.711
 1493POPC   C1B22243  13.143  17.570   8.595
 1493POPC   C2B22244  12.912  17.884   8.329
 1493POPC   C3B22245  13.094  17.958   7.947
 1493POPC   C4B22246  13.382  17.720   7.696
 1494POPC   NC322247  30.488   0.442   9.652
 1494POPC   PO422248  31.083   0.372   9.482
 1494POPC   GL122249  30.735   0.228   9.222
 1494POPC   GL222250  30.352   0.287   9.181
 1494POPC   C1A22251  30.717   0.308   8.797
 1494POPC   D2A22252  30.767   0.292   8.376
 1494POPC   C3A22253  30.744   0.661   8.121
 1494POPC   C4A22254  30.747   0.641   7.667
 1494POPC   C1B22255  30.243   0.114   8.773
 1494POPC   C2B22256  30.317   0.081   8.335
 1494POPC   C3B22257  30.469   0.280   7.946
 1494POPC   C4B22258  30.386   0.165   7.537
 1495POPC   NC322259  33.530  18.412   9.370
 1495POPC   PO422260  33.983  17.881   9.330
 1495POPC   GL122261  33.796  18.110   9.049
 1495POPC   GL222262  33.941  18.420   9.087
 1495POPC   C1A22263  33.633  18.164   8.681
 1495POPC   D2A22264  33.823  18.113   8.315
 1495POPC   C3A22265  33.665  18.373   8.023
 1495POPC   C4A22266  33.392  18.276   7.684
 1495POPC   C1B22267  33.870  18.644   8.756
 1495POPC   C2B22268  34.010  18.603   8.360
 1495POPC   C3B22269  34.074  18.723   7.978
 1495POPC   C4B22270  33.883  18.577   7.615
 1496POPC   NC322271   8.539  28.391   9.126
 1496POPC   PO422272   7.940  28.473   9.410
 1496POPC   GL122273   8.065  28.629   9.009
 1496POPC   GL222274   8.372  28.783   8.851
 1496POPC   C1A22275   8.029  28.395   8.636
 1496POPC   D2A22276   7.730  28.409   8.322
 1496POPC   C3A22277   7.869  28.487   7.925
 1496POPC   C4A22278   8.167  28.497   7.603
 1496POPC   C1B22279   8.487  28.560   8.444
 1496POPC   C2B22280   8.276  28.261   8.159
 1496POPC   C3B22281   8.332  28.044   7.749
 1496POPC   C4B22282   8.501  28.009   7.347
 1497POPC   NC322283  44.593   4.492   9.465
 1497POPC   PO422284   0.070   4.033   9.328
 1497POPC   GL122285  44.971   4.353   9.044
 1497POPC   GL222286  44.615   4.394   8.972
 1497POPC   C1A22287  44.995   4.488   8.619
 1497POPC   D2A22288  44.669   4.491   8.320
 1497POPC   C3A22289  44.737   4.306   7.928
 1497POPC   C4A22290  44.674   4.176   7.494
 1497POPC   C1B22291  44.317   4.625   8.713
 1497POPC   C2B22292  44.321   4.872   8.343
 1497POPC   C3B22293  44.474   4.769   7.928
 1497POPC   C4B22294  44.350   4.541   7.581
 1498POPC   NC322295  31.819  10.765   9.538
 1498POPC   PO422296  31.295  10.363   9.478
 1498POPC   GL122297  31.115  10.465   9.101
 1498POPC   GL222298  31.338  10.749   9.114
 1498POPC   C1A22299  31.240  10.268   8.721
 1498POPC   D2A22300  31.475  10.399   8.360
 1498POPC   C3A22301  31.254  10.667   8.059
 1498POPC   C4A22302  31.342  10.337   7.783
 1498POPC   C1B22303  31.302  10.799   8.690
 1498POPC   C2B22304  31.627  10.882   8.428
 1498POPC   C3B22305  31.762  10.746   8.028
 1498POPC   C4B22306  31.651  10.692   7.580
 1499POPC   NC322307   7.830  19.431   9.836
 1499POPC   PO422308   7.625  19.957   9.541
 1499POPC   GL122309   7.445  20.167   9.119
 1499POPC   GL222310   7.064  20.117   9.064
 1499POPC   C1A22311   7.370  20.193   8.639
 1499POPC   D2A22312   7.104  19.996   8.290
 1499POPC   C3A22313   7.214  20.068   7.875
 1499POPC   C4A22314   7.490  19.891   7.565
 1499POPC   C1B22315   7.164  19.749   8.758
 1499POPC   C2B22316   7.445  19.614   8.374
 1499POPC   C3B22317   7.568  19.505   7.927
 1499POPC   C4B22318   7.515  19.376   7.492
 1500POPC   NC322319   8.315  37.753   9.682
 1500POPC   PO422320   7.664  37.847   9.528
 1500POPC   GL122321   7.929  37.719   9.235
 1500POPC   GL222322   8.249  37.888   9.191
 1500POPC   C1A22323   8.081  37.444   8.933
 1500POPC   D2A22324   8.320  37.488   8.564
 1500POPC   C3A22325   8.188  37.663   8.190
 1500POPC   C4A22326   8.182  37.411   7.857
 1500POPC   C1B22327   8.559  37.987   8.885
 1500POPC   C2B22328   8.502  37.982   8.462
 1500POPC   C3B22329   8.557  38.059   8.044
 1500POPC   C4B22330   8.291  37.909   7.722
 1501POPC   NC322331  35.904  20.561   9.570
 1501POPC   PO422332  36.547  20.827   9.583
 1501POPC   GL122333  36.274  20.717   9.211
 1501POPC   GL222334  35.909  20.796   9.134
 1501POPC   C1A22335  36.425  20.579   8.795
 1501POPC   D2A22336  36.528  20.797   8.396
 1501POPC   C3A22337  36.298  20.830   8.001
 1501POPC   C4A22338  36.080  20.531   7.720
 1501POPC   C1B22339  35.921  20.563   8.777
 1501POPC   C2B22340  36.064  20.535   8.376
 1501POPC   C3B22341  35.754  20.640   8.101
 1501POPC   C4B22342  35.639  20.812   7.721
 1502POPC   NC322343  31.761   8.649   9.409
 1502POPC   PO422344  31.212   9.027   9.529
 1502POPC   GL122345  31.473   8.977   9.091
 1502POPC   GL222346  31.814   9.045   9.082
 1502POPC   C1A22347  31.577   9.067   8.617
 1502POPC   D2A22348  31.627   9.095   8.143
 1502POPC   C3A22349  31.376   9.251   7.828
 1502POPC   C4A22350  31.295   9.302   7.380
 1502POPC   C1B22351  31.905   8.706   8.748
 1502POPC   C2B22352  31.712   8.618   8.316
 1502POPC   C3B22353  31.531   8.677   7.878
 1502POPC   C4B22354  31.702   8.935   7.557
 1503POPC   NC322355  44.172  14.390   9.359
 1503POPC   PO422356  43.607  14.118   9.633
 1503POPC   GL122357  43.680  14.314   9.208
 1503POPC   GL222358  43.885  14.050   9.125
 1503POPC   C1A22359  43.850  14.597   8.837
 1503POPC   D2A22360  44.046  14.731   8.431
 1503POPC   C3A22361  43.825  14.526   8.095
 1503POPC   C4A22362  43.820  14.459   7.684
 1503POPC   C1B22363  43.818  14.113   8.711
 1503POPC   C2B22364  44.086  14.200   8.376
 1503POPC   C3B22365  44.024  14.060   7.950
 1503POPC   C4B22366  44.161  14.074   7.530
 1504POPC   NC322367  42.630  37.898   9.513
 1504POPC   PO422368  42.124  37.440   9.566
 1504POPC   GL122369  42.256  37.620   9.155
 1504POPC   GL222370  42.610  37.536   9.145
 1504POPC   C1A22371  42.132  37.893   8.759
 1504POPC   D2A22372  42.291  37.848   8.322
 1504POPC   C3A22373  42.440  37.425   8.177
 1504POPC   C4A22374  42.426  37.361   7.723
 1504POPC   C1B22375  42.587  37.635   8.712
 1504POPC   C2B22376  42.805  37.789   8.344
 1504POPC   C3B22377  42.664  37.797   7.906
 1504POPC   C4B22378  42.716  37.808   7.455
 1505POPC   NC322379   9.028  28.667   9.491
 1505POPC   PO422380   8.826  28.044   9.239
 1505POPC   GL122381   9.068  28.365   9.076
 1505POPC   GL222382   9.229  28.114   8.900
 1505POPC   C1A22383   9.164  28.611   8.699
 1505POPC   D2A22384   8.985  28.651   8.254
 1505POPC   C3A22385   9.143  28.562   7.830
 1505POPC   C4A22386   9.149  28.142   7.627
 1505POPC   C1B22387   8.887  28.206   8.597
 1505POPC   C2B22388   8.810  28.013   8.240
 1505POPC   C3B22389   8.746  28.266   7.949
 1505POPC   C4B22390   8.705  28.407   7.563
 1506POPC   NC322391  21.212   5.340   9.442
 1506POPC   PO422392  21.165   5.952   9.594
 1506POPC   GL122393  21.400   5.864   9.229
 1506POPC   GL222394  21.593   5.571   9.172
 1506POPC   C1A22395  21.238   5.776   8.828
 1506POPC   D2A22396  21.353   5.985   8.457
 1506POPC   C3A22397  21.188   5.794   8.097
 1506POPC   C4A22398  21.241   5.956   7.701
 1506POPC   C1B22399  21.730   5.703   8.781
 1506POPC   C2B22400  21.553   5.506   8.430
 1506POPC   C3B22401  21.684   5.729   8.113
 1506POPC   C4B22402  21.763   5.840   7.743
 1507POPC   NC322403  32.959   6.880   9.469
 1507POPC   PO422404  33.256   6.324   9.519
 1507POPC   GL122405  33.245   6.587   9.144
 1507POPC   GL222406  33.506   6.784   9.110
 1507POPC   C1A22407  33.066   6.657   8.716
 1507POPC   D2A22408  32.879   6.840   8.316
 1507POPC   C3A22409  32.866   6.753   7.845
 1507POPC   C4A22410  32.653   6.833   7.435
 1507POPC   C1B22411  33.473   6.942   8.737
 1507POPC   C2B22412  33.352   7.017   8.351
 1507POPC   C3B22413  33.345   6.765   8.024
 1507POPC   C4B22414  33.532   6.620   7.671
 1508POPC   NC322415  32.554  39.263   9.449
 1508POPC   PO422416  31.916  38.945   9.488
 1508POPC   GL122417  32.177  39.005   9.149
 1508POPC   GL222418  32.236  39.369   9.055
 1508POPC   C1A22419  32.057  39.007   8.739
 1508POPC   D2A22420  32.174  39.298   8.454
 1508POPC   C3A22421  32.137  39.053   8.107
 1508POPC   C4A22422  32.244  39.065   7.693
 1508POPC   C1B22423  32.553  39.558   8.769
 1508POPC   C2B22424  32.510  39.715   8.364
 1508POPC   C3B22425  32.371  39.513   7.989
 1508POPC   C4B22426  32.618  39.478   7.632
 1509POPC   NC322427  41.138  40.549   9.500
 1509POPC   PO422428  40.854  41.141   9.382
 1509POPC   GL122429  40.758  40.842   9.065
 1509POPC   GL222430  40.791  40.462   9.115
 1509POPC   C1A22431  40.637  40.667   8.680
 1509POPC   D2A22432  40.652  40.622   8.299
 1509POPC   C3A22433  40.907  40.904   8.120
 1509POPC   C4A22434  40.775  40.953   7.740
 1509POPC   C1B22435  41.024  40.346   8.696
 1509POPC   C2B22436  41.112  40.403   8.268
 1509POPC   C3B22437  40.874  40.432   7.884
 1509POPC   C4B22438  40.914  40.560   7.477
 1510POPC   NC322439  12.204  15.881   9.569
 1510POPC   PO422440  11.889  16.444   9.441
 1510POPC   GL122441  12.205  16.181   9.132
 1510POPC   GL222442  12.366  15.807   9.090
 1510POPC   C1A22443  12.196  16.063   8.660
 1510POPC   D2A22444  12.316  15.953   8.243
 1510POPC   C3A22445  12.226  16.297   8.015
 1510POPC   C4A22446  11.856  16.421   7.833
 1510POPC   C1B22447  11.900  15.765   8.934
 1510POPC   C2B22448  11.694  15.931   8.528
 1510POPC   C3B22449  11.821  15.913   8.060
 1510POPC   C4B22450  12.161  15.858   7.732
 1511POPC   NC322451   1.970  38.127   9.516
 1511POPC   PO422452   1.676  38.688   9.492
 1511POPC   GL122453   1.878  38.469   9.133
 1511POPC   GL222454   1.964  38.816   9.079
 1511POPC   C1A22455   1.993  38.226   8.717
 1511POPC   D2A22456   1.939  38.001   8.292
 1511POPC   C3A22457   1.928  38.201   7.910
 1511POPC   C4A22458   2.180  38.436   7.641
 1511POPC   C1B22459   1.794  38.672   8.682
 1511POPC   C2B22460   1.910  38.545   8.283
 1511POPC   C3B22461   1.896  38.768   7.886
 1511POPC   C4B22462   1.685  38.844   7.466
 1512POPC   NC322463   1.069   3.731   9.504
 1512POPC   PO422464   1.720   3.565   9.422
 1512POPC   GL122465   1.442   3.386   9.125
 1512POPC   GL222466   1.050   3.352   9.159
 1512POPC   C1A22467   1.612   3.203   8.730
 1512POPC   D2A22468   1.565   3.078   8.275
 1512POPC   C3A22469   1.448   3.419   7.989
 1512POPC   C4A22470   1.164   3.812   7.952
 1512POPC   C1B22471   1.101   3.222   8.776
 1512POPC   C2B22472   1.158   3.450   8.415
 1512POPC   C3B22473   0.935   3.366   8.055
 1512POPC   C4B22474   1.054   3.436   7.641
 1513POPC   NC322475  28.740  40.433   9.472
 1513POPC   PO422476  29.209  40.958   9.435
 1513POPC   GL122477  28.980  40.777   9.108
 1513POPC   GL222478  29.307  40.762   8.942
 1513POPC   C1A22479  28.847  40.634   8.682
 1513POPC   D2A22480  28.999  40.768   8.258
 1513POPC   C3A22481  29.206  40.592   7.895
 1513POPC   C4A22482  29.087  40.616   7.451
 1513POPC   C1B22483  29.460  40.977   8.557
 1513POPC   C2B22484  29.512  40.988   8.102
 1513POPC   C3B22485  29.362  41.065   7.690
 1513POPC   C4B22486  29.353  41.000   7.242
 1514POPC   NC322487  18.298  41.886   9.465
 1514POPC   PO422488  18.521  41.296   9.648
 1514POPC   GL122489  18.468  41.444   9.213
 1514POPC   GL222490  18.136  41.493   9.120
 1514POPC   C1A22491  18.466  41.616   8.761
 1514POPC   D2A22492  18.621  41.417   8.399
 1514POPC   C3A22493  18.508  41.475   7.962
 1514POPC   C4A22494  18.654  41.785   7.698
 1514POPC   C1B22495  17.929  41.523   8.743
 1514POPC   C2B22496  18.107  41.611   8.356
 1514POPC   C3B22497  18.005  41.498   7.955
 1514POPC   C4B22498  17.733  41.407   7.574
 1515POPC   NC322499  35.893  38.178   9.437
 1515POPC   PO422500  36.283  38.699   9.422
 1515POPC   GL122501  36.177  38.416   9.061
 1515POPC   GL222502  35.813  38.464   9.022
 1515POPC   C1A22503  36.296  38.468   8.600
 1515POPC   D2A22504  36.170  38.702   8.186
 1515POPC   C3A22505  36.225  38.516   7.748
 1515POPC   C4A22506  36.464  38.738   7.404
 1515POPC   C1B22507  35.851  38.229   8.673
 1515POPC   C2B22508  35.833  38.309   8.240
 1515POPC   C3B22509  35.898  38.060   7.871
 1515POPC   C4B22510  35.800  38.180   7.446
 1516POPC   NC322511   5.625  22.136   9.219
 1516POPC   PO422512   5.103  21.921   9.697
 1516POPC   GL122513   5.108  22.136   9.302
 1516POPC   GL222514   4.768  22.039   9.227
 1516POPC   C1A22515   5.103  22.175   8.812
 1516POPC   D2A22516   5.345  22.082   8.416
 1516POPC   C3A22517   5.119  22.204   8.036
 1516POPC   C4A22518   5.274  22.254   7.618
 1516POPC   C1B22519   4.739  21.786   8.830
 1516POPC   C2B22520   4.889  21.848   8.406
 1516POPC   C3B22521   4.737  21.853   7.995
 1516POPC   C4B22522   4.870  21.893   7.552
 1517POPC   NC322523  44.927  16.147   9.772
 1517POPC   PO422524  44.524  16.328   9.309
 1517POPC   GL122525  44.701  16.101   9.021
 1517POPC   GL222526  44.883  15.851   9.104
 1517POPC   C1A22527  44.548  16.027   8.636
 1517POPC   D2A22528  44.515  16.239   8.278
 1517POPC   C3A22529  44.514  16.000   7.916
 1517POPC   C4A22530  44.291  16.131   7.560
 1517POPC   C1B22531   0.050  15.775   8.691
 1517POPC   C2B22532  44.817  15.765   8.289
 1517POPC   C3B22533  44.995  15.828   7.868
 1517POPC   C4B22534   0.078  15.710   7.448
 1518POPC   NC322535  37.178  15.074   9.547
 1518POPC   PO422536  36.739  15.615   9.387
 1518POPC   GL122537  37.073  15.435   9.182
 1518POPC   GL222538  36.909  15.102   9.116
 1518POPC   C1A22539  37.208  15.337   8.787
 1518POPC   D2A22540  37.067  15.050   8.492
 1518POPC   C3A22541  36.998  15.228   8.103
 1518POPC   C4A22542  36.773  15.103   7.764
 1518POPC   C1B22543  36.653  15.311   8.800
 1518POPC   C2B22544  36.720  15.519   8.418
 1518POPC   C3B22545  36.528  15.485   8.005
 1518POPC   C4B22546  36.611  15.542   7.551
 1519POPC   NC322547  17.947  30.599   9.576
 1519POPC   PO422548  18.484  31.023   9.544
 1519POPC   GL122549  18.186  30.846   9.203
 1519POPC   GL222550  18.258  31.042   8.966
 1519POPC   C1A22551  18.078  30.582   8.794
 1519POPC   D2A22552  18.275  30.486   8.372
 1519POPC   C3A22553  18.259  30.699   7.988
 1519POPC   C4A22554  18.263  30.546   7.601
 1519POPC   C1B22555  18.548  30.771   8.756
 1519POPC   C2B22556  18.506  30.937   8.355
 1519POPC   C3B22557  18.726  30.982   7.973
 1519POPC   C4B22558  18.813  31.054   7.558
 1520POPC   NC322559  18.223  43.426   9.627
 1520POPC   PO422560  18.315  44.084   9.648
 1520POPC   GL122561  18.374  43.811   9.274
 1520POPC   GL222562  18.654  43.560   9.340
 1520POPC   C1A22563  18.268  43.926   8.826
 1520POPC   D2A22564  18.201  44.083   8.389
 1520POPC   C3A22565  18.184  43.901   7.942
 1520POPC   C4A22566  18.256  44.120   7.524
 1520POPC   C1B22567  18.651  43.608   8.880
 1520POPC   C2B22568  18.720  43.960   8.562
 1520POPC   C3B22569  18.659  43.963   8.121
 1520POPC   C4B22570  18.609  43.764   7.687
 1521POPC   NC322571   1.843   3.997   9.356
 1521POPC   PO422572   1.990   4.520   9.543
 1521POPC   GL122573   2.083   4.538   9.126
 1521POPC   GL222574   2.223   4.221   9.095
 1521POPC   C1A22575   1.945   4.588   8.703
 1521POPC   D2A22576   2.030   4.442   8.285
 1521POPC   C3A22577   1.992   4.660   7.871
 1521POPC   C4A22578   1.922   4.491   7.444
 1521POPC   C1B22579   2.043   4.067   8.669
 1521POPC   C2B22580   2.080   3.932   8.222
 1521POPC   C3B22581   2.050   4.136   7.810
 1521POPC   C4B22582   2.177   4.035   7.412
 1522POPC   NC322583  23.718  44.821   9.316
 1522POPC   PO422584  23.473   0.396   9.569
 1522POPC   GL122585  23.684   0.531   9.220
 1522POPC   GL222586  23.923   0.267   9.189
 1522POPC   C1A22587  23.691   0.762   8.846
 1522POPC   D2A22588  23.663   0.562   8.440
 1522POPC   C3A22589  23.700   0.805   8.088
 1522POPC   C4A22590  23.625   0.687   7.695
 1522POPC   C1B22591  23.985   0.331   8.768
 1522POPC   C2B22592  24.144   0.463   8.355
 1522POPC   C3B22593  23.978   0.401   7.935
 1522POPC   C4B22594  24.114   0.525   7.518
 1523POPC   NC322595  24.856  38.914   9.437
 1523POPC   PO422596  24.684  39.487   9.618
 1523POPC   GL122597  24.494  39.352   9.235
 1523POPC   GL222598  24.379  39.011   9.238
 1523POPC   C1A22599  24.530  39.324   8.789
 1523POPC   D2A22600  24.305  39.258   8.417
 1523POPC   C3A22601  24.511  39.416   8.050
 1523POPC   C4A22602  24.643  39.351   7.633
 1523POPC   C1B22603  24.197  38.888   8.842
 1523POPC   C2B22604  24.405  38.764   8.460
 1523POPC   C3B22605  24.503  38.902   8.031
 1523POPC   C4B22606  24.773  38.617   7.805
 1524POPC   NC322607   8.035  33.050   9.615
 1524POPC   PO422608   8.584  32.909   9.308
 1524POPC   GL122609   8.101  32.912   9.116
 1524POPC   GL222610   7.919  33.258   9.165
 1524POPC   C1A22611   7.908  32.735   8.704
 1524POPC   D2A22612   7.963  32.931   8.264
 1524POPC   C3A22613   8.262  32.895   7.908
 1524POPC   C4A22614   8.381  33.252   7.653
 1524POPC   C1B22615   7.837  33.247   8.724
 1524POPC   C2B22616   7.745  33.395   8.303
 1524POPC   C3B22617   7.883  33.335   7.858
 1524POPC   C4B22618   7.951  33.339   7.378
 1525POPC   NC322619  38.138  42.761   9.446
 1525POPC   PO422620  37.674  42.310   9.567
 1525POPC   GL122621  37.677  42.395   9.190
 1525POPC   GL222622  38.030  42.352   9.130
 1525POPC   C1A22623  37.620  42.198   8.815
 1525POPC   D2A22624  37.885  42.270   8.473
 1525POPC   C3A22625  37.695  42.231   8.099
 1525POPC   C4A22626  37.542  42.100   7.718
 1525POPC   C1B22627  37.877  42.667   8.818
 1525POPC   C2B22628  38.043  42.785   8.429
 1525POPC   C3B22629  38.077  42.629   8.025
 1525POPC   C4B22630  37.886  42.476   7.692
 1526POPC   NC322631  34.417  21.620   9.618
 1526POPC   PO422632  35.009  21.336   9.541
 1526POPC   GL122633  34.657  21.360   9.208
 1526POPC   GL222634  34.532  21.685   9.128
 1526POPC   C1A22635  34.486  21.310   8.759
 1526POPC   D2A22636  34.736  21.115   8.419
 1526POPC   C3A22637  34.832  21.257   7.988
 1526POPC   C4A22638  34.485  21.410   7.745
 1526POPC   C1B22639  34.871  21.656   8.799
 1526POPC   C2B22640  34.816  21.838   8.375
 1526POPC   C3B22641  34.905  21.797   7.954
 1526POPC   C4B22642  34.861  21.702   7.515
 1527POPC   NC322643  44.617   5.444   9.418
 1527POPC   PO422644  44.890   4.827   9.599
 1527POPC   GL122645  44.750   4.879   9.132
 1527POPC   GL222646  44.506   5.145   9.037
 1527POPC   C1A22647  44.723   4.921   8.655
 1527POPC   D2A22648  44.803   5.085   8.245
 1527POPC   C3A22649   0.010   4.783   7.981
 1527POPC   C4A22650  44.884   4.650   7.575
 1527POPC   C1B22651  44.193   5.364   8.745
 1527POPC   C2B22652  44.034   5.310   8.325
 1527POPC   C3B22653  44.248   5.221   7.969
 1527POPC   C4B22654  44.269   5.394   7.581
 1528POPC   NC322655   2.076  27.920   9.625
 1528POPC   PO422656   1.721  27.385   9.504
 1528POPC   GL122657   1.703  27.666   9.144
 1528POPC   GL222658   2.062  27.627   9.175
 1528POPC   C1A22659   1.736  27.578   8.666
 1528POPC   D2A22660   2.018  27.338   8.348
 1528POPC   C3A22661   1.859  27.316   7.915
 1528POPC   C4A22662   1.774  27.724   7.688
 1528POPC   C1B22663   2.208  27.761   8.791
 1528POPC   C2B22664   2.352  27.776   8.381
 1528POPC   C3B22665   2.217  27.665   7.964
 1528POPC   C4B22666   2.435  27.709   7.555
 1529POPC   NC322667  33.467  32.632   9.578
 1529POPC   PO422668  33.140  32.016   9.580
 1529POPC   GL122669  33.288  32.122   9.209
 1529POPC   GL222670  33.185  32.447   9.186
 1529POPC   C1A22671  33.097  32.136   8.799
 1529POPC   D2A22672  33.055  32.333   8.424
 1529POPC   C3A22673  33.303  32.198   8.070
 1529POPC   C4A22674  33.096  32.060   7.705
 1529POPC   C1B22675  33.241  32.668   8.770
 1529POPC   C2B22676  33.479  32.665   8.343
 1529POPC   C3B22677  33.425  32.675   7.869
 1529POPC   C4B22678  33.040  32.567   7.648
 1530POPC   NC322679  32.562  33.030   9.431
 1530POPC   PO422680  31.974  32.731   9.383
 1530POPC   GL122681  32.111  32.919   9.018
 1530POPC   GL222682  32.264  33.214   9.068
 1530POPC   C1A22683  32.152  33.099   8.584
 1530POPC   D2A22684  32.189  33.085   8.145
 1530POPC   C3A22685  32.241  32.707   8.017
 1530POPC   C4A22686  32.081  32.707   7.656
 1530POPC   C1B22687  32.592  33.383   8.761
 1530POPC   C2B22688  32.802  33.525   8.371
 1530POPC   C3B22689  32.650  33.550   7.945
 1530POPC   C4B22690  32.437  33.239   7.673
 1531POPC   NC322691  27.269  36.696   9.259
 1531POPC   PO422692  26.839  37.200   9.566
 1531POPC   GL122693  26.858  37.086   9.155
 1531POPC   GL222694  27.161  37.243   9.123
 1531POPC   C1A22695  26.658  37.016   8.733
 1531POPC   D2A22696  26.488  37.050   8.300
 1531POPC   C3A22697  26.634  36.916   7.918
 1531POPC   C4A22698  26.813  36.535   7.869
 1531POPC   C1B22699  27.171  37.110   8.718
 1531POPC   C2B22700  27.021  36.913   8.360
 1531POPC   C3B22701  27.193  36.921   7.981
 1531POPC   C4B22702  27.016  36.950   7.581
 1532POPC   NC322703   1.158  39.886   9.676
 1532POPC   PO422704   1.153  39.188   9.484
 1532POPC   GL122705   1.214  39.107   9.072
 1532POPC   GL222706   1.430  38.787   9.062
 1532POPC   C1A22707   1.014  39.219   8.661
 1532POPC   D2A22708   1.271  39.187   8.285
 1532POPC   C3A22709   0.982  39.115   7.997
 1532POPC   C4A22710   0.809  39.400   7.733
 1532POPC   C1B22711   1.340  38.845   8.655
 1532POPC   C2B22712   1.422  38.702   8.270
 1532POPC   C3B22713   1.382  38.836   7.882
 1532POPC   C4B22714   1.292  39.169   7.594
 1533POPC   NC322715  10.737  41.674   9.565
 1533POPC   PO422716  10.520  41.061   9.626
 1533POPC   GL122717  10.491  41.307   9.208
 1533POPC   GL222718  10.543  41.691   9.111
 1533POPC   C1A22719  10.308  41.358   8.789
 1533POPC   D2A22720  10.519  41.456   8.414
 1533POPC   C3A22721  10.418  41.802   8.099
 1533POPC   C4A22722  10.402  41.495   7.820
 1533POPC   C1B22723  10.819  41.679   8.792
 1533POPC   C2B22724  10.829  41.850   8.393
 1533POPC   C3B22725  10.864  41.580   8.040
 1533POPC   C4B22726  10.764  41.840   7.705
 1534POPC   NC322727  14.005   6.043   9.392
 1534POPC   PO422728  14.564   5.759   9.514
 1534POPC   GL122729  14.392   5.797   9.142
 1534POPC   GL222730  14.735   5.892   9.064
 1534POPC   C1A22731  14.152   5.926   8.761
 1534POPC   D2A22732  14.030   6.074   8.342
 1534POPC   C3A22733  14.038   5.776   8.030
 1534POPC   C4A22734  14.249   5.798   7.621
 1534POPC   C1B22735  14.556   6.242   8.898
 1534POPC   C2B22736  14.504   6.252   8.469
 1534POPC   C3B22737  14.470   6.051   8.087
 1534POPC   C4B22738  14.598   6.200   7.718
 1535POPC   NC322739   2.445  31.269   9.526
 1535POPC   PO422740   3.001  31.780   9.512
 1535POPC   GL122741   2.838  31.647   9.121
 1535POPC   GL222742   2.485  31.703   9.189
 1535POPC   C1A22743   2.716  31.582   8.676
 1535POPC   D2A22744   2.815  31.721   8.228
 1535POPC   C3A22745   2.687  31.386   7.922
 1535POPC   C4A22746   2.764  31.201   7.513
 1535POPC   C1B22747   2.254  31.780   8.800
 1535POPC   C2B22748   2.298  31.640   8.363
 1535POPC   C3B22749   2.356  31.772   7.962
 1535POPC   C4B22750   2.385  31.593   7.525
 1536POPC   NC322751  18.805  28.818   9.787
 1536POPC   PO422752  19.253  29.202   9.687
 1536POPC   GL122753  19.143  29.296   9.258
 1536POPC   GL222754  19.120  28.950   9.218
 1536POPC   C1A22755  18.960  29.386   8.805
 1536POPC   D2A22756  18.716  29.140   8.549
 1536POPC   C3A22757  18.729  29.110   8.092
 1536POPC   C4A22758  18.678  29.266   7.692
 1536POPC   C1B22759  19.267  29.005   8.843
 1536POPC   C2B22760  19.188  28.996   8.439
 1536POPC   C3B22761  19.210  29.235   8.078
 1536POPC   C4B22762  19.151  29.092   7.655
 1537POPC   NC322763   3.319  43.346   9.517
 1537POPC   PO422764   3.951  43.372   9.622
 1537POPC   GL122765   3.681  43.289   9.171
 1537POPC   GL222766   3.409  43.012   9.130
 1537POPC   C1A22767   3.367  43.390   8.784
 1537POPC   D2A22768   3.207  43.287   8.333
 1537POPC   C3A22769   3.526  43.072   8.065
 1537POPC   C4A22770   3.699  42.918   7.679
 1537POPC   C1B22771   3.141  42.917   8.753
 1537POPC   C2B22772   3.191  42.766   8.321
 1537POPC   C3B22773   3.050  42.948   7.934
 1537POPC   C4B22774   3.162  42.882   7.533
 1538POPC   NC322775  21.170   7.019   9.450
 1538POPC   PO422776  21.563   7.637   9.363
 1538POPC   GL122777  21.486   7.280   9.118
 1538POPC   GL222778  21.118   7.369   9.087
 1538POPC   C1A22779  21.343   7.075   8.760
 1538POPC   D2A22780  21.111   7.305   8.485
 1538POPC   C3A22781  21.194   7.214   8.111
 1538POPC   C4A22782  21.427   7.166   7.779
 1538POPC   C1B22783  21.251   7.677   8.788
 1538POPC   C2B22784  21.380   7.715   8.347
 1538POPC   C3B22785  21.288   7.677   7.906
 1538POPC   C4B22786  21.308   7.945   7.574
 1539POPC   NC322787   7.305   3.236   9.478
 1539POPC   PO422788   7.371   3.897   9.533
 1539POPC   GL122789   7.551   3.644   9.194
 1539POPC   GL222790   7.251   3.583   9.042
 1539POPC   C1A22791   7.655   3.548   8.745
 1539POPC   D2A22792   7.822   3.383   8.344
 1539POPC   C3A22793   7.722   3.583   7.959
 1539POPC   C4A22794   7.693   3.468   7.541
 1539POPC   C1B22795   7.219   3.827   8.639
 1539POPC   C2B22796   7.312   3.846   8.185
 1539POPC   C3B22797   7.219   3.610   7.810
 1539POPC   C4B22798   6.966   3.233   7.794
 1540POPC   NC322799  23.328   0.874   9.431
 1540POPC   PO422800  23.920   1.201   9.561
 1540POPC   GL122801  23.723   1.236   9.182
 1540POPC   GL222802  23.377   1.284   9.044
 1540POPC   C1A22803  23.965   1.253   8.836
 1540POPC   D2A22804  23.882   1.070   8.477
 1540POPC   C3A22805  23.994   1.240   8.119
 1540POPC   C4A22806  23.759   1.186   7.729
 1540POPC   C1B22807  23.501   1.395   8.630
 1540POPC   C2B22808  23.502   1.284   8.192
 1540POPC   C3B22809  23.330   1.431   7.818
 1540POPC   C4B22810  23.413   1.399   7.368
 1541POPC   NC322811  18.395  36.647   9.799
 1541POPC   PO422812  18.070  37.168   9.685
 1541POPC   GL122813  17.988  37.236   9.216
 1541POPC   GL222814  18.341  37.290   9.159
 1541POPC   C1A22815  18.108  37.042   8.771
 1541POPC   D2A22816  18.319  36.869   8.359
 1541POPC   C3A22817  18.117  36.820   7.929
 1541POPC   C4A22818  17.943  36.651   7.509
 1541POPC   C1B22819  18.584  37.215   8.744
 1541POPC   C2B22820  18.636  37.253   8.290
 1541POPC   C3B22821  18.662  37.038   7.892
 1541POPC   C4B22822  18.857  37.112   7.476
 1542POPC   NC322823  20.718  23.209   9.413
 1542POPC   PO422824  20.127  22.971   9.604
 1542POPC   GL122825  20.413  22.784   9.253
 1542POPC   GL222826  20.811  22.726   9.224
 1542POPC   C1A22827  20.473  22.682   8.821
 1542POPC   D2A22828  20.666  22.780   8.440
 1542POPC   C3A22829  20.619  22.566   8.082
 1542POPC   C4A22830  20.561  22.790   7.688
 1542POPC   C1B22831  20.901  22.997   8.845
 1542POPC   C2B22832  21.058  23.098   8.426
 1542POPC   C3B22833  20.948  22.966   7.999
 1542POPC   C4B22834  21.027  22.998   7.556
 1543POPC   NC322835   7.208  33.532   9.468
 1543POPC   PO422836   7.600  32.938   9.483
 1543POPC   GL122837   7.529  32.913   9.054
 1543POPC   GL222838   7.398  33.243   9.054
 1543POPC   C1A22839   7.437  32.952   8.608
 1543POPC   D2A22840   7.521  32.709   8.264
 1543POPC   C3A22841   7.530  32.977   7.945
 1543POPC   C4A22842   7.804  32.873   7.640
 1543POPC   C1B22843   7.193  33.536   8.793
 1543POPC   C2B22844   7.209  33.458   8.367
 1543POPC   C3B22845   7.381  33.520   7.966
 1543POPC   C4B22846   7.411  33.335   7.577
 1544POPC   NC322847  26.575  12.537   9.531
 1544POPC   PO422848  26.895  13.021   9.365
 1544POPC   GL122849  26.933  12.761   9.012
 1544POPC   GL222850  26.700  12.483   9.010
 1544POPC   C1A22851  27.014  12.951   8.617
 1544POPC   D2A22852  26.813  13.122   8.269
 1544POPC   C3A22853  26.836  12.919   7.861
 1544POPC   C4A22854  26.902  12.983   7.408
 1544POPC   C1B22855  26.849  12.470   8.585
 1544POPC   C2B22856  26.748  12.490   8.161
 1544POPC   C3B22857  27.032  12.453   7.821
 1544POPC   C4B22858  27.117  12.517   7.381
 1545POPC   NC322859  16.930  39.728   9.510
 1545POPC   PO422860  16.730  40.447   9.485
 1545POPC   GL122861  16.805  40.149   9.164
 1545POPC   GL222862  16.550  39.943   9.243
 1545POPC   C1A22863  16.956  40.028   8.753
 1545POPC   D2A22864  16.835  39.963   8.318
 1545POPC   C3A22865  17.046  40.009   7.897
 1545POPC   C4A22866  16.938  40.271   7.515
 1545POPC   C1B22867  16.440  39.988   8.817
 1545POPC   C2B22868  16.316  39.937   8.371
 1545POPC   C3B22869  16.519  40.011   7.917
 1545POPC   C4B22870  16.611  39.877   7.454
 1546POPC   NC322871   2.819  29.022   9.290
 1546POPC   PO422872   2.704  28.402   9.534
 1546POPC   GL122873   2.842  28.487   9.151
 1546POPC   GL222874   2.883  28.145   9.117
 1546POPC   C1A22875   2.747  28.638   8.741
 1546POPC   D2A22876   2.609  28.710   8.353
 1546POPC   C3A22877   2.745  28.506   7.993
 1546POPC   C4A22878   2.484  28.486   7.634
 1546POPC   C1B22879   3.015  28.188   8.745
 1546POPC   C2B22880   2.817  28.134   8.396
 1546POPC   C3B22881   3.008  28.075   8.051
 1546POPC   C4B22882   2.788  28.069   7.680
 1547POPC   NC322883  17.023  25.491   9.769
 1547POPC   PO422884  16.611  25.012   9.563
 1547POPC   GL122885  16.899  25.143   9.211
 1547POPC   GL222886  16.972  25.526   9.207
 1547POPC   C1A22887  16.787  24.964   8.821
 1547POPC   D2A22888  16.609  25.162   8.469
 1547POPC   C3A22889  16.727  25.031   8.065
 1547POPC   C4A22890  16.856  25.260   7.713
 1547POPC   C1B22891  16.821  25.659   8.752
 1547POPC   C2B22892  16.757  25.645   8.257
 1547POPC   C3B22893  16.817  25.760   7.779
 1547POPC   C4B22894  17.045  25.652   7.364
 1548POPC   NC322895  12.272  16.700   9.477
 1548POPC   PO422896  11.707  17.085   9.677
 1548POPC   GL122897  11.829  16.920   9.209
 1548POPC   GL222898  12.091  16.678   9.021
 1548POPC   C1A22899  11.804  16.919   8.715
 1548POPC   D2A22900  11.960  16.675   8.319
 1548POPC   C3A22901  11.923  16.923   7.921
 1548POPC   C4A22902  11.967  16.813   7.503
 1548POPC   C1B22903  12.331  16.783   8.634
 1548POPC   C2B22904  12.357  16.936   8.166
 1548POPC   C3B22905  12.402  16.718   7.773
 1548POPC   C4B22906  12.427  16.828   7.328
 1549POPC   NC322907  25.171  39.476   9.640
 1549POPC   PO422908  25.285  38.788   9.549
 1549POPC   GL122909  25.315  39.106   9.245
 1549POPC   GL222910  25.019  39.324   9.165
 1549POPC   C1A22911  25.460  39.111   8.831
 1549POPC   D2A22912  25.319  39.030   8.423
 1549POPC   C3A22913  25.429  39.316   8.116
 1549POPC   C4A22914  25.480  39.184   7.732
 1549POPC   C1B22915  24.947  39.029   8.803
 1549POPC   C2B22916  24.814  39.105   8.382
 1549POPC   C3B22917  24.991  39.078   7.954
 1549POPC   C4B22918  25.048  39.057   7.495
 1550POPC   NC322919  35.842  30.131   9.483
 1550POPC   PO422920  36.193  29.673   9.428
 1550POPC   GL122921  36.103  29.971   9.055
 1550POPC   GL222922  36.135  30.320   9.092
 1550POPC   C1A22923  36.195  30.092   8.613
 1550POPC   D2A22924  36.203  29.710   8.366
 1550POPC   C3A22925  36.054  29.712   7.967
 1550POPC   C4A22926  36.089  29.911   7.609
 1550POPC   C1B22927  35.763  30.303   8.819
 1550POPC   C2B22928  35.648  30.256   8.377
 1550POPC   C3B22929  35.737  30.152   7.934
 1550POPC   C4B22930  35.832  30.333   7.515
 1551POPC   NC322931  12.704  36.586   9.479
 1551POPC   PO422932  13.059  37.220   9.467
 1551POPC   GL122933  13.037  36.914   9.124
 1551POPC   GL222934  12.673  36.861   9.060
 1551POPC   C1A22935  12.998  36.904   8.658
 1551POPC   D2A22936  12.716  37.085   8.336
 1551POPC   C3A22937  12.780  36.944   7.910
 1551POPC   C4A22938  13.089  36.860   7.597
 1551POPC   C1B22939  12.457  36.793   8.697
 1551POPC   C2B22940  12.373  36.609   8.325
 1551POPC   C3B22941  12.552  36.484   7.952
 1551POPC   C4B22942  12.336  36.742   7.719
 1552POPC   NC322943  36.164  32.333   9.599
 1552POPC   PO422944  35.586  32.493   9.251
 1552POPC   GL122945  35.938  32.273   9.142
 1552POPC   GL222946  36.195  32.557   9.142
 1552POPC   C1A22947  35.873  32.044   8.750
 1552POPC   D2A22948  35.887  32.290   8.377
 1552POPC   C3A22949  35.891  32.117   7.992
 1552POPC   C4A22950  35.914  32.476   7.744
 1552POPC   C1B22951  36.291  32.327   8.773
 1552POPC   C2B22952  36.343  32.064   8.402
 1552POPC   C3B22953  36.389  32.203   7.983
 1552POPC   C4B22954  36.217  32.144   7.573
 1553POPC   NC322955   6.397  22.391   9.324
 1553POPC   PO422956   7.093  22.185   9.505
 1553POPC   GL122957   6.885  22.105   9.167
 1553POPC   GL222958   6.843  22.452   9.112
 1553POPC   C1A22959   6.808  22.075   8.729
 1553POPC   D2A22960   6.695  21.881   8.347
 1553POPC   C3A22961   6.415  22.067   8.053
 1553POPC   C4A22962   6.582  22.022   7.656
 1553POPC   C1B22963   6.806  22.615   8.719
 1553POPC   C2B22964   6.709  22.429   8.345
 1553POPC   C3B22965   6.864  22.282   7.995
 1553POPC   C4B22966   6.819  22.530   7.666
 1554POPC   NC322967   3.970  12.562   9.493
 1554POPC   PO422968   3.398  12.928   9.536
 1554POPC   GL122969   3.557  12.945   9.151
 1554POPC   GL222970   3.615  12.603   9.121
 1554POPC   C1A22971   3.329  12.896   8.773
 1554POPC   D2A22972   3.399  12.863   8.357
 1554POPC   C3A22973   3.753  12.785   8.088
 1554POPC   C4A22974   3.594  12.906   7.682
 1554POPC   C1B22975   3.548  12.418   8.733
 1554POPC   C2B22976   3.518  12.354   8.309
 1554POPC   C3B22977   3.303  12.540   7.962
 1554POPC   C4B22978   3.263  12.587   7.488
 1555POPC   NC322979  20.989  44.560   9.373
 1555POPC   PO422980  20.418  44.702   9.643
 1555POPC   GL122981  20.500  44.635   9.207
 1555POPC   GL222982  20.631  44.315   9.131
 1555POPC   C1A22983  20.478  44.833   8.803
 1555POPC   D2A22984  20.795  44.873   8.482
 1555POPC   C3A22985  20.666  44.665   8.123
 1555POPC   C4A22986  20.712  44.829   7.723
 1555POPC   C1B22987  20.832  44.406   8.738
 1555POPC   C2B22988  21.049  44.342   8.348
 1555POPC   C3B22989  20.913  44.236   7.955
 1555POPC   C4B22990  20.821  44.367   7.536
 1556POPC   NC322991  44.633  19.692   9.630
 1556POPC   PO422992   0.160  20.024   9.452
 1556POPC   GL122993  44.894  19.766   9.155
 1556POPC   GL222994  44.535  19.881   9.155
 1556POPC   C1A22995  44.819  19.816   8.697
 1556POPC   D2A22996   0.071  19.868   8.318
 1556POPC   C3A22997  44.920  19.990   7.941
 1556POPC   C4A22998  44.801  19.933   7.529
 1556POPC   C1B22999  44.400  20.084   8.758
 1556POPC   C2B23000  44.505  19.971   8.297
 1556POPC   C3B23001  44.387  19.951   7.845
 1556POPC   C4B23002  44.341  20.162   7.397
 1557POPC   NC323003  20.371   9.163   9.492
 1557POPC   PO423004  20.803   8.648   9.507
 1557POPC   GL123005  20.739   8.921   9.176
 1557POPC   GL223006  20.397   8.833   9.100
 1557POPC   C1A23007  20.673   9.073   8.742
 1557POPC   D2A23008  20.466   9.099   8.373
 1557POPC   C3A23009  20.685   8.927   8.030
 1557POPC   C4A23010  20.571   9.197   7.720
 1557POPC   C1B23011  20.167   8.762   8.707
 1557POPC   C2B23012  20.236   8.664   8.257
 1557POPC   C3B23013  20.247   8.778   7.811
 1557POPC   C4B23014  20.377   8.878   7.394
 1558POPC   NC323015  33.312  14.056   9.396
 1558POPC   PO423016  32.999  14.680   9.355
 1558POPC   GL123017  33.008  14.326   9.102
 1558POPC   GL223018  33.337  14.371   8.989
 1558POPC   C1A23019  32.913  14.152   8.741
 1558POPC   D2A23020  33.071  14.346   8.389
 1558POPC   C3A23021  32.822  14.249   8.051
 1558POPC   C4A23022  32.805  14.428   7.653
 1558POPC   C1B23023  33.425  14.013   8.733
 1558POPC   C2B23024  33.559  14.050   8.319
 1558POPC   C3B23025  33.312  14.155   7.962
 1558POPC   C4B23026  33.056  13.919   7.706
 1559POPC   NC323027  14.146  12.840   9.441
 1559POPC   PO423028  13.471  12.953   9.394
 1559POPC   GL123029  13.527  12.654   9.097
 1559POPC   GL223030  13.865  12.529   9.136
 1559POPC   C1A23031  13.535  12.816   8.702
 1559POPC   D2A23032  13.302  12.763   8.313
 1559POPC   C3A23033  13.491  12.865   7.903
 1559POPC   C4A23034  13.435  13.080   7.450
 1559POPC   C1B23035  13.981  12.582   8.708
 1559POPC   C2B23036  13.815  12.711   8.296
 1559POPC   C3B23037  13.980  12.682   7.909
 1559POPC   C4B23038  13.826  12.678   7.515
 1560POPC   NC323039  39.955  43.843   9.512
 1560POPC   PO423040  39.672  43.273   9.416
 1560POPC   GL123041  39.790  43.600   9.085
 1560POPC   GL223042  40.168  43.691   9.074
 1560POPC   C1A23043  39.882  43.935   8.759
 1560POPC   D2A23044  40.139  44.086   8.414
 1560POPC   C3A23045  39.897  44.017   8.031
 1560POPC   C4A23046  39.758  43.991   7.605
 1560POPC   C1B23047  40.099  43.457   8.702
 1560POPC   C2B23048  40.063  43.594   8.334
 1560POPC   C3B23049  40.352  43.747   8.068
 1560POPC   C4B23050  40.366  43.644   7.678
 1561POPC   NC323051  14.546  12.802   9.805
 1561POPC   PO423052  14.415  12.539   9.221
 1561POPC   GL123053  14.275  12.898   8.971
 1561POPC   GL223054  13.910  13.032   9.028
 1561POPC   C1A23055  14.487  12.881   8.614
 1561POPC   D2A23056  14.759  12.888   8.256
 1561POPC   C3A23057  14.623  12.821   7.837
 1561POPC   C4A23058  14.317  12.767   7.527
 1561POPC   C1B23059  13.998  13.078   8.589
 1561POPC   C2B23060  14.233  12.981   8.207
 1561POPC   C3B23061  14.225  13.161   7.846
 1561POPC   C4B23062  13.845  13.171   7.722
 1562POPC   NC323063  20.714  11.047   9.735
 1562POPC   PO423064  20.579  11.691   9.527
 1562POPC   GL123065  20.567  11.417   9.168
 1562POPC   GL223066  20.673  11.069   9.200
 1562POPC   C1A23067  20.788  11.404   8.760
 1562POPC   D2A23068  20.873  11.097   8.421
 1562POPC   C3A23069  20.819  11.236   8.003
 1562POPC   C4A23070  20.711  11.068   7.620
 1562POPC   C1B23071  20.493  11.003   8.777
 1562POPC   C2B23072  20.343  10.987   8.322
 1562POPC   C3B23073  20.311  10.826   7.896
 1562POPC   C4B23074  20.230  10.942   7.460
 1563POPC   NC323075  20.324   7.639   9.576
 1563POPC   PO423076  20.753   7.217   9.437
 1563POPC   GL123077  20.542   7.380   9.140
 1563POPC   GL223078  20.721   7.670   9.145
 1563POPC   C1A23079  20.364   7.270   8.748
 1563POPC   D2A23080  20.139   7.150   8.372
 1563POPC   C3A23081  20.431   6.994   8.055
 1563POPC   C4A23082  20.448   6.970   7.619
 1563POPC   C1B23083  20.751   7.624   8.686
 1563POPC   C2B23084  20.863   7.681   8.230
 1563POPC   C3B23085  20.857   7.468   7.801
 1563POPC   C4B23086  20.888   7.715   7.379
 1564POPC   NC323087   3.597   0.744   9.508
 1564POPC   PO423088   3.209   1.243   9.737
 1564POPC   GL123089   3.395   1.180   9.293
 1564POPC   GL223090   3.758   1.086   9.168
 1564POPC   C1A23091   3.461   1.370   8.866
 1564POPC   D2A23092   3.311   1.198   8.499
 1564POPC   C3A23093   3.414   1.279   8.085
 1564POPC   C4A23094   3.398   1.408   7.663
 1564POPC   C1B23095   3.820   0.986   8.737
 1564POPC   C2B23096   3.730   0.925   8.318
 1564POPC   C3B23097   3.825   0.801   7.903
 1564POPC   C4B23098   3.791   1.080   7.553
 1565POPC   NC323099  38.577  39.719   9.613
 1565POPC   PO423100  38.501  40.278   9.314
 1565POPC   GL123101  38.417  39.855   9.138
 1565POPC   GL223102  38.725  39.631   9.123
 1565POPC   C1A23103  38.445  39.867   8.723
 1565POPC   D2A23104  38.326  40.131   8.395
 1565POPC   C3A23105  38.415  39.919   8.064
 1565POPC   C4A23106  38.196  39.745   7.732
 1565POPC   C1B23107  38.921  39.679   8.756
 1565POPC   C2B23108  38.866  39.895   8.375
 1565POPC   C3B23109  38.856  39.715   7.941
 1565POPC   C4B23110  38.869  39.737   7.459
 1566POPC   NC323111  44.962  18.863   9.458
 1566POPC   PO423112   0.597  19.169   9.416
 1566POPC   GL123113   0.304  19.048   9.134
 1566POPC   GL223114   0.237  19.380   9.052
 1566POPC   C1A23115   0.150  18.869   8.753
 1566POPC   D2A23116   0.115  18.642   8.349
 1566POPC   C3A23117   0.007  18.931   8.026
 1566POPC   C4A23118   0.126  19.064   7.624
 1566POPC   C1B23119   0.576  19.249   8.761
 1566POPC   C2B23120   0.446  19.098   8.381
 1566POPC   C3B23121   0.376  19.289   8.017
 1566POPC   C4B23122   0.637  19.337   7.721
 1567POPC   NC323123  16.458   3.031   9.605
 1567POPC   PO423124  17.046   2.823   9.419
 1567POPC   GL123125  16.678   2.745   9.209
 1567POPC   GL223126  16.640   3.047   9.128
 1567POPC   C1A23127  16.511   2.705   8.777
 1567POPC   D2A23128  16.627   2.858   8.380
 1567POPC   C3A23129  16.501   2.717   7.989
 1567POPC   C4A23130  16.690   2.518   7.656
 1567POPC   C1B23131  16.520   3.227   8.745
 1567POPC   C2B23132  16.714   3.362   8.384
 1567POPC   C3B23133  16.829   3.141   8.006
 1567POPC   C4B23134  16.618   3.053   7.603
 1568POPC   NC323135  44.930  38.518   9.656
 1568POPC   PO423136  44.502  38.893   9.418
 1568POPC   GL123137  44.808  38.679   9.175
 1568POPC   GL223138  44.705  38.362   9.158
 1568POPC   C1A23139  44.909  38.608   8.750
 1568POPC   D2A23140  44.885  38.408   8.327
 1568POPC   C3A23141  44.604  38.686   8.089
 1568POPC   C4A23142  44.640  38.866   7.685
 1568POPC   C1B23143  44.608  38.177   8.738
 1568POPC   C2B23144  44.356  38.094   8.378
 1568POPC   C3B23145  44.475  38.191   7.957
 1568POPC   C4B23146  44.259  38.090   7.597
 1569POPC   NC323147  36.684  35.006   9.405
 1569POPC   PO423148  36.739  34.302   9.473
 1569POPC   GL123149  36.835  34.542   9.122
 1569POPC   GL223150  37.102  34.772   9.231
 1569POPC   C1A23151  36.739  34.602   8.681
 1569POPC   D2A23152  36.962  34.496   8.316
 1569POPC   C3A23153  36.696  34.503   7.961
 1569POPC   C4A23154  36.766  34.161   7.724
 1569POPC   C1B23155  37.021  34.979   8.855
 1569POPC   C2B23156  37.089  35.004   8.421
 1569POPC   C3B23157  36.942  34.948   8.015
 1569POPC   C4B23158  36.807  35.086   7.615
 1570POPC   NC323159  11.034  31.233   9.465
 1570POPC   PO423160  11.481  31.794   9.539
 1570POPC   GL123161  11.267  31.653   9.183
 1570POPC   GL223162  11.503  31.370   9.209
 1570POPC   C1A23163  11.191  31.788   8.736
 1570POPC   D2A23164  11.062  31.640   8.276
 1570POPC   C3A23165  11.255  31.677   7.811
 1570POPC   C4A23166  11.634  31.739   7.492
 1570POPC   C1B23167  11.397  31.335   8.793
 1570POPC   C2B23168  11.370  31.241   8.384
 1570POPC   C3B23169  11.588  31.147   8.039
 1570POPC   C4B23170  11.537  31.253   7.621
 1571POPC   NC323171  33.341  39.391   9.574
 1571POPC   PO423172  33.980  39.375   9.434
 1571POPC   GL123173  33.823  39.054   9.210
 1571POPC   GL223174  33.476  39.144   9.156
 1571POPC   C1A23175  33.987  38.966   8.812
 1571POPC   D2A23176  34.062  39.197   8.422
 1571POPC   C3A23177  34.094  38.979   8.027
 1571POPC   C4A23178  33.867  38.893   7.668
 1571POPC   C1B23179  33.597  39.320   8.787
 1571POPC   C2B23180  33.476  39.248   8.379
 1571POPC   C3B23181  33.637  39.269   7.966
 1571POPC   C4B23182  33.569  39.260   7.511
 1572POPC   NC323183  10.079  39.289   9.520
 1572POPC   PO423184   9.516  38.935   9.676
 1572POPC   GL123185   9.659  39.121   9.286
 1572POPC   GL223186   9.985  38.985   9.119
 1572POPC   C1A23187   9.560  39.079   8.875
 1572POPC   D2A23188   9.813  39.034   8.541
 1572POPC   C3A23189   9.669  39.215   8.166
 1572POPC   C4A23190   9.752  39.074   7.777
 1572POPC   C1B23191  10.087  39.362   8.830
 1572POPC   C2B23192  10.108  39.416   8.365
 1572POPC   C3B23193  10.115  39.436   7.899
 1572POPC   C4B23194   9.915  39.741   7.599
 1573POPC   NC323195   4.567  44.651   9.555
 1573POPC   PO423196   4.114  44.947   9.875
 1573POPC   GL123197   4.201  44.974   9.381
 1573POPC   GL223198   4.128  44.666   9.235
 1573POPC   C1A23199   4.264   0.008   8.873
 1573POPC   D2A23200   4.273   0.102   8.425
 1573POPC   C3A23201   4.390  44.841   8.069
 1573POPC   C4A23202   4.261  44.959   7.690
 1573POPC   C1B23203   3.957  44.599   8.800
 1573POPC   C2B23204   4.033  44.599   8.331
 1573POPC   C3B23205   3.990  44.532   7.857
 1573POPC   C4B23206   3.870  44.256   7.473
 1574POPC   NC323207  18.185  32.179   9.549
 1574POPC   PO423208  18.685  32.002   9.257
 1574POPC   GL123209  18.270  31.988   9.084
 1574POPC   GL223210  18.113  32.320   9.069
 1574POPC   C1A23211  18.022  31.894   8.739
 1574POPC   D2A23212  17.840  31.929   8.315
 1574POPC   C3A23213  18.128  32.042   7.939
 1574POPC   C4A23214  18.580  32.026   7.794
 1574POPC   C1B23215  17.906  32.414   8.689
 1574POPC   C2B23216  17.995  32.434   8.259
 1574POPC   C3B23217  18.037  32.585   7.849
 1574POPC   C4B23218  18.188  32.809   7.467
 1575POPC   NC323219  11.403   7.063   9.313
 1575POPC   PO423220  11.315   6.460   9.564
 1575POPC   GL123221  11.195   6.581   9.183
 1575POPC   GL223222  10.925   6.819   9.221
 1575POPC   C1A23223  11.395   6.622   8.782
 1575POPC   D2A23224  11.344   6.754   8.374
 1575POPC   C3A23225  11.493   6.555   8.000
 1575POPC   C4A23226  11.621   6.717   7.551
 1575POPC   C1B23227  10.862   6.637   8.786
 1575POPC   C2B23228  10.832   6.800   8.366
 1575POPC   C3B23229  10.989   6.636   7.975
 1575POPC   C4B23230  11.110   6.735   7.552
 1576POPC   NC323231  36.206   0.153   9.363
 1576POPC   PO423232  36.758  44.986   9.602
 1576POPC   GL123233  36.896   0.241   9.225
 1576POPC   GL223234  36.594   0.229   9.028
 1576POPC   C1A23235  36.979   0.451   8.794
 1576POPC   D2A23236  36.764   0.309   8.404
 1576POPC   C3A23237  36.970   0.397   7.985
 1576POPC   C4A23238  36.906   0.471   7.511
 1576POPC   C1B23239  36.494  44.941   8.692
 1576POPC   C2B23240  36.309  44.976   8.289
 1576POPC   C3B23241  36.537   0.122   7.955
 1576POPC   C4B23242  36.844  44.993   7.676
 1577POPC   NC323243  30.403   7.776   9.457
 1577POPC   PO423244  31.106   7.710   9.528
 1577POPC   GL123245  30.826   7.602   9.199
 1577POPC   GL223246  31.008   7.383   8.999
 1577POPC   C1A23247  30.536   7.546   8.818
 1577POPC   D2A23248  30.727   7.348   8.436
 1577POPC   C3A23249  30.679   7.436   7.978
 1577POPC   C4A23250  30.389   7.381   7.618
 1577POPC   C1B23251  30.990   7.751   8.719
 1577POPC   C2B23252  31.121   7.807   8.314
 1577POPC   C3B23253  30.933   7.888   7.924
 1577POPC   C4B23254  30.820   7.690   7.518
 1578POPC   NC323255  32.134  38.514   9.418
 1578POPC   PO423256  32.749  38.134   9.464
 1578POPC   GL123257  32.413  38.195   9.132
 1578POPC   GL223258  32.066  38.178   9.037
 1578POPC   C1A23259  32.413  38.446   8.726
 1578POPC   D2A23260  32.591  38.437   8.294
 1578POPC   C3A23261  32.490  38.703   7.949
 1578POPC   C4A23262  32.358  38.598   7.503
 1578POPC   C1B23263  31.884  38.493   8.764
 1578POPC   C2B23264  32.054  38.603   8.367
 1578POPC   C3B23265  32.069  38.451   7.954
 1578POPC   C4B23266  31.886  38.627   7.616
 1579POPC   NC323267  19.907  40.509   9.614
 1579POPC   PO423268  20.040  41.057   9.298
 1579POPC   GL123269  19.976  40.681   9.106
 1579POPC   GL223270  19.625  40.744   9.140
 1579POPC   C1A23271  20.022  40.602   8.663
 1579POPC   D2A23272  20.159  40.880   8.327
 1579POPC   C3A23273  20.073  40.723   7.922
 1579POPC   C4A23274  19.848  41.044   7.720
 1579POPC   C1B23275  19.519  40.648   8.724
 1579POPC   C2B23276  19.618  40.669   8.255
 1579POPC   C3B23277  19.590  40.596   7.776
 1579POPC   C4B23278  19.505  40.504   7.302
 1580POPC   NC323279  30.602  42.818   9.552
 1580POPC   PO423280  31.029  43.361   9.531
 1580POPC   GL123281  30.807  43.141   9.168
 1580POPC   GL223282  30.426  43.086   9.134
 1580POPC   C1A23283  30.731  43.212   8.712
 1580POPC   D2A23284  30.662  43.045   8.286
 1580POPC   C3A23285  30.905  43.118   7.895
 1580POPC   C4A23286  30.865  43.042   7.436
 1580POPC   C1B23287  30.243  43.384   8.825
 1580POPC   C2B23288  30.400  43.488   8.409
 1580POPC   C3B23289  30.373  43.335   7.984
 1580POPC   C4B23290  30.398  43.398   7.544
 1581POPC   NC323291  21.107  13.910   9.811
 1581POPC   PO423292  21.419  13.358   9.685
 1581POPC   GL123293  21.382  13.281   9.218
 1581POPC   GL223294  21.079  13.102   9.173
 1581POPC   C1A23295  21.638  13.400   8.795
 1581POPC   D2A23296  21.609  13.751   8.463
 1581POPC   C3A23297  21.691  13.676   8.033
 1581POPC   C4A23298  21.542  13.768   7.634
 1581POPC   C1B23299  21.187  13.199   8.717
 1581POPC   C2B23300  21.467  13.261   8.301
 1581POPC   C3B23301  21.328  13.334   7.859
 1581POPC   C4B23302  20.923  13.291   7.582
 1582POPC   NC323303   1.220  13.082   9.560
 1582POPC   PO423304   0.800  13.208   9.085
 1582POPC   GL123305   1.221  12.986   9.060
 1582POPC   GL223306   1.392  12.658   9.095
 1582POPC   C1A23307   1.496  13.028   8.721
 1582POPC   D2A23308   1.247  12.970   8.315
 1582POPC   C3A23309   1.390  12.813   7.925
 1582POPC   C4A23310   1.477  12.958   7.494
 1582POPC   C1B23311   1.293  12.585   8.667
 1582POPC   C2B23312   1.050  12.456   8.319
 1582POPC   C3B23313   0.922  12.511   7.902
 1582POPC   C4B23314   1.179  12.537   7.531
 1583POPC   NC323315  14.986  17.962   9.612
 1583POPC   PO423316  15.105  18.587   9.404
 1583POPC   GL123317  15.170  18.425   9.031
 1583POPC   GL223318  14.839  18.467   8.965
 1583POPC   C1A23319  15.160  18.192   8.656
 1583POPC   D2A23320  15.040  17.964   8.274
 1583POPC   C3A23321  15.190  18.204   7.945
 1583POPC   C4A23322  15.624  18.144   7.865
 1583POPC   C1B23323  15.006  18.731   8.661
 1583POPC   C2B23324  14.931  18.878   8.292
 1583POPC   C3B23325  14.776  18.624   7.967
 1583POPC   C4B23326  14.972  18.539   7.615
 1584POPC   NC323327  25.196  10.783   9.222
 1584POPC   PO423328  25.127  10.120   9.171
 1584POPC   GL123329  25.220  10.375   8.896
 1584POPC   GL223330  24.974  10.578   8.836
 1584POPC   C1A23331  25.463  10.529   8.606
 1584POPC   D2A23332  25.573  10.396   8.202
 1584POPC   C3A23333  25.580  10.636   7.871
 1584POPC   C4A23334  25.420  10.458   7.471
 1584POPC   C1B23335  24.859  10.374   8.520
 1584POPC   C2B23336  25.076  10.496   8.224
 1584POPC   C3B23337  25.154  10.356   7.884
 1584POPC   C4B23338  24.920  10.463   7.545
 1585POPC   NC323339  43.033   0.804   9.505
 1585POPC   PO423340  43.150   0.315   9.979
 1585POPC   GL123341  43.188   0.282   9.489
 1585POPC   GL223342  43.456   0.504   9.316
 1585POPC   C1A23343  43.017   0.317   9.045
 1585POPC   D2A23344  43.092   0.384   8.594
 1585POPC   C3A23345  42.758   0.346   8.302
 1585POPC   C4A23346  42.867   0.355   7.869
 1585POPC   C1B23347  43.399   0.666   8.885
 1585POPC   C2B23348  43.408   0.806   8.437
 1585POPC   C3B23349  43.331   0.539   8.053
 1585POPC   C4B23350  43.287   0.477   7.584
 1586POPC   NC323351   9.524  13.481   9.506
 1586POPC   PO423352  10.002  13.920   9.371
 1586POPC   GL123353   9.809  13.712   9.046
 1586POPC   GL223354   9.831  13.356   9.121
 1586POPC   C1A23355   9.891  13.680   8.594
 1586POPC   D2A23356   9.755  13.992   8.257
 1586POPC   C3A23357   9.680  13.778   7.880
 1586POPC   C4A23358   9.975  13.520   8.059
 1586POPC   C1B23359   9.477  13.407   8.803
 1586POPC   C2B23360   9.437  13.580   8.357
 1586POPC   C3B23361   9.408  13.333   7.974
 1586POPC   C4B23362   9.357  13.487   7.549
 1587POPC   NC323363  40.130  38.114   9.449
 1587POPC   PO423364  40.063  38.827   9.501
 1587POPC   GL123365  40.115  38.573   9.149
 1587POPC   GL223366  39.831  38.343   9.097
 1587POPC   C1A23367  40.087  38.552   8.709
 1587POPC   D2A23368  40.154  38.299   8.362
 1587POPC   C3A23369  40.112  38.489   7.953
 1587POPC   C4A23370  39.690  38.575   7.811
 1587POPC   C1B23371  39.649  38.233   8.717
 1587POPC   C2B23372  39.609  38.377   8.326
 1587POPC   C3B23373  39.784  38.113   8.044
 1587POPC   C4B23374  39.695  38.037   7.661
 1588POPC   NC323375  34.753  17.106   9.796
 1588POPC   PO423376  34.516  16.793   9.253
 1588POPC   GL123377  34.613  16.537   8.950
 1588POPC   GL223378  34.918  16.459   9.091
 1588POPC   C1A23379  34.615  16.589   8.499
 1588POPC   D2A23380  34.435  16.948   8.258
 1588POPC   C3A23381  34.386  16.764   7.881
 1588POPC   C4A23382  34.269  16.304   7.860
 1588POPC   C1B23383  35.052  16.734   8.723
 1588POPC   C2B23384  34.941  16.996   8.382
 1588POPC   C3B23385  35.025  16.797   7.987
 1588POPC   C4B23386  34.911  16.589   7.586
 1589POPC   NC323387  42.908  35.439   9.423
 1589POPC   PO423388  43.526  35.211   9.479
 1589POPC   GL123389  43.229  35.217   9.107
 1589POPC   GL223390  42.877  35.027   9.131
 1589POPC   C1A23391  43.008  35.464   8.765
 1589POPC   D2A23392  43.148  35.608   8.322
 1589POPC   C3A23393  42.870  35.597   7.924
 1589POPC   C4A23394  42.796  35.629   7.422
 1589POPC   C1B23395  43.055  34.942   8.727
 1589POPC   C2B23396  42.971  35.114   8.379
 1589POPC   C3B23397  43.147  35.182   8.014
 1589POPC   C4B23398  42.939  35.168   7.624
 1590POPC   NC323399  26.382   0.062   9.417
 1590POPC   PO423400  26.949   0.441   9.461
 1590POPC   GL123401  26.936   0.198   9.110
 1590POPC   GL223402  27.213   0.397   9.005
 1590POPC   C1A23403  26.762   0.135   8.708
 1590POPC   D2A23404  26.678   0.373   8.339
 1590POPC   C3A23405  26.734   0.123   7.989
 1590POPC   C4A23406  26.432   0.110   7.650
 1590POPC   C1B23407  27.050   0.583   8.661
 1590POPC   C2B23408  27.160   0.800   8.293
 1590POPC   C3B23409  27.000   0.576   7.972
 1590POPC   C4B23410  26.619   0.570   7.767
 1591POPC   NC323411  41.142  31.503   9.490
 1591POPC   PO423412  41.785  31.374   9.550
 1591POPC   GL123413  41.561  31.463   9.163
 1591POPC   GL223414  41.434  31.750   9.170
 1591POPC   C1A23415  41.539  31.391   8.712
 1591POPC   D2A23416  41.713  31.444   8.276
 1591POPC   C3A23417  41.421  31.485   7.910
 1591POPC   C4A23418  41.453  31.487   7.441
 1591POPC   C1B23419  41.819  31.795   8.883
 1591POPC   C2B23420  41.830  31.927   8.460
 1591POPC   C3B23421  41.560  31.950   8.116
 1591POPC   C4B23422  41.719  31.878   7.744
 1592POPC   NC323423  43.413   3.113   9.507
 1592POPC   PO423424  43.316   2.553   9.192
 1592POPC   GL123425  43.354   2.779   8.890
 1592POPC   GL223426  43.347   3.138   9.008
 1592POPC   C1A23427  43.351   2.736   8.463
 1592POPC   D2A23428  43.052   2.712   8.143
 1592POPC   C3A23429  43.184   2.837   7.759
 1592POPC   C4A23430  43.362   2.686   7.399
 1592POPC   C1B23431  43.012   3.063   8.713
 1592POPC   C2B23432  43.096   3.183   8.341
 1592POPC   C3B23433  42.791   3.198   8.099
 1592POPC   C4B23434  42.793   3.143   7.706
 1593POPC   NC323435   0.045  31.108   9.413
 1593POPC   PO423436  44.713  31.653   9.757
 1593POPC   GL123437  44.822  31.506   9.195
 1593POPC   GL223438  44.509  31.388   8.983
 1593POPC   C1A23439  44.802  31.711   8.746
 1593POPC   D2A23440  44.524  31.566   8.440
 1593POPC   C3A23441  44.676  31.659   8.048
 1593POPC   C4A23442  44.515  31.320   7.774
 1593POPC   C1B23443  44.811  31.182   8.737
 1593POPC   C2B23444  44.972  31.330   8.375
 1593POPC   C3B23445   0.038  31.293   7.959
 1593POPC   C4B23446   0.188  31.667   7.872
 1594POPC   NC323447   1.982  15.461   9.458
 1594POPC   PO423448   1.872  14.769   9.378
 1594POPC   GL123449   2.077  14.970   9.061
 1594POPC   GL223450   2.173  15.297   9.030
 1594POPC   C1A23451   2.018  14.924   8.657
 1594POPC   D2A23452   1.780  14.975   8.347
 1594POPC   C3A23453   2.032  15.159   8.084
 1594POPC   C4A23454   2.074  15.133   7.698
 1594POPC   C1B23455   2.177  15.428   8.635
 1594POPC   C2B23456   2.383  15.532   8.269
 1594POPC   C3B23457   2.338  15.536   7.829
 1594POPC   C4B23458   2.406  15.549   7.313
 1595POPC   NC323459  15.984   2.231   9.620
 1595POPC   PO423460  16.028   1.690   9.474
 1595POPC   GL123461  16.159   2.039   9.172
 1595POPC   GL223462  15.907   2.299   9.120
 1595POPC   C1A23463  16.239   2.164   8.740
 1595POPC   D2A23464  16.063   1.966   8.372
 1595POPC   C3A23465  16.118   2.125   7.945
 1595POPC   C4A23466  16.115   2.005   7.491
 1595POPC   C1B23467  15.724   2.210   8.710
 1595POPC   C2B23468  15.711   2.322   8.283
 1595POPC   C3B23469  15.605   2.150   7.897
 1595POPC   C4B23470  15.689   2.341   7.514
 1596POPC   NC323471  20.419  19.105   9.423
 1596POPC   PO423472  21.008  18.714   9.501
 1596POPC   GL123473  20.866  18.985   9.170
 1596POPC   GL223474  20.858  19.323   9.275
 1596POPC   C1A23475  20.712  18.914   8.760
 1596POPC   D2A23476  20.909  18.864   8.408
 1596POPC   C3A23477  20.711  18.928   8.027
 1596POPC   C4A23478  20.898  18.821   7.638
 1596POPC   C1B23479  20.627  19.398   8.871
 1596POPC   C2B23480  20.697  19.335   8.447
 1596POPC   C3B23481  20.580  19.449   8.060
 1596POPC   C4B23482  20.268  19.177   7.911
 1597POPC   NC323483  23.014   0.094   9.478
 1597POPC   PO423484  22.715   0.653   9.514
 1597POPC   GL123485  22.802   0.490   9.118
 1597POPC   GL223486  23.151   0.481   9.147
 1597POPC   C1A23487  22.917   0.498   8.669
 1597POPC   D2A23488  23.200   0.742   8.433
 1597POPC   C3A23489  23.255   0.541   8.044
 1597POPC   C4A23490  22.964   0.562   7.730
 1597POPC   C1B23491  23.413   0.305   8.840
 1597POPC   C2B23492  23.295   0.181   8.445
 1597POPC   C3B23493  23.378   0.019   8.060
 1597POPC   C4B23494  23.467   0.212   7.665
 1598POPC   NC323495  15.288   9.519   9.353
 1598POPC   PO423496  14.846  10.006   9.513
 1598POPC   GL123497  15.056   9.937   9.168
 1598POPC   GL223498  14.886   9.616   9.042
 1598POPC   C1A23499  15.246   9.864   8.796
 1598POPC   D2A23500  14.999   9.879   8.458
 1598POPC   C3A23501  15.244   9.777   8.123
 1598POPC   C4A23502  15.276   9.752   7.682
 1598POPC   C1B23503  15.038   9.384   8.684
 1598POPC   C2B23504  15.174   9.268   8.280
 1598POPC   C3B23505  14.985   9.396   7.910
 1598POPC   C4B23506  14.994   9.389   7.443
 1599POPC   NC323507   2.513  34.852   9.430
 1599POPC   PO423508   2.987  34.331   9.462
 1599POPC   GL123509   2.862  34.492   9.122
 1599POPC   GL223510   2.554  34.335   9.062
 1599POPC   C1A23511   3.059  34.605   8.734
 1599POPC   D2A23512   3.131  34.890   8.360
 1599POPC   C3A23513   2.889  34.765   7.958
 1599POPC   C4A23514   2.870  34.552   7.537
 1599POPC   C1B23515   2.552  34.585   8.725
 1599POPC   C2B23516   2.726  34.464   8.348
 1599POPC   C3B23517   2.542  34.390   7.942
 1599POPC   C4B23518   2.409  34.685   7.669
 1600POPC   NC323519   0.246   6.212   9.259
 1600POPC   PO423520  44.574   6.564   9.435
 1600POPC   GL123521  44.462   6.605   8.990
 1600POPC   GL223522  44.590   6.284   8.935
 1600POPC   C1A23523  44.660   6.737   8.570
 1600POPC   D2A23524   0.035   6.718   8.269
 1600POPC   C3A23525  44.830   6.690   7.892
 1600POPC   C4A23526  44.440   6.906   8.011
 1600POPC   C1B23527  44.336   6.342   8.564
 1600POPC   C2B23528  44.395   6.427   8.137
 1600POPC   C3B23529  44.428   6.408   7.689
 1600POPC   C4B23530  44.383   6.179   7.261
 1601POPC   NC323531  10.963  17.025   9.462
 1601POPC   PO423532  11.019  16.458   9.749
 1601POPC   GL123533  10.965  16.536   9.276
 1601POPC   GL223534  10.600  16.596   9.202
 1601POPC   C1A23535  10.896  16.644   8.799
 1601POPC   D2A23536  10.816  16.536   8.321
 1601POPC   C3A23537  10.866  16.826   7.943
 1601POPC   C4A23538  10.555  17.033   7.650
 1601POPC   C1B23539  10.417  16.459   8.764
 1601POPC   C2B23540  10.299  16.416   8.303
 1601POPC   C3B23541  10.413  16.591   7.908
 1601POPC   C4B23542  10.576  16.561   7.490
 1602POPC   NC323543  41.295  13.767   9.521
 1602POPC   PO423544  41.906  14.051   9.637
 1602POPC   GL123545  41.582  13.974   9.157
 1602POPC   GL223546  41.267  13.950   9.036
 1602POPC   C1A23547  41.681  13.921   8.666
 1602POPC   D2A23548  41.948  13.619   8.405
 1602POPC   C3A23549  41.712  13.629   8.008
 1602POPC   C4A23550  41.249  13.804   8.089
 1602POPC   C1B23551  41.367  13.556   8.822
 1602POPC   C2B23552  41.506  13.375   8.426
 1602POPC   C3B23553  41.322  13.293   8.043
 1602POPC   C4B23554  41.170  13.496   7.696
 1603POPC   NC323555  34.690  30.604   9.686
 1603POPC   PO423556  34.252  30.997   9.591
 1603POPC   GL123557  34.566  30.892   9.230
 1603POPC   GL223558  34.469  30.554   9.157
 1603POPC   C1A23559  34.804  30.726   8.824
 1603POPC   D2A23560  34.584  30.852   8.422
 1603POPC   C3A23561  34.793  30.760   8.056
 1603POPC   C4A23562  34.636  30.662   7.675
 1603POPC   C1B23563  34.407  30.434   8.678
 1603POPC   C2B23564  34.501  30.349   8.212
 1603POPC   C3B23565  34.275  30.332   7.781
 1603POPC   C4B23566  34.319  30.361   7.302
 1604POPC   NC323567   2.152   8.827   9.441
 1604POPC   PO423568   1.850   9.373   9.573
 1604POPC   GL123569   1.912   9.318   9.114
 1604POPC   GL223570   1.948   8.957   9.004
 1604POPC   C1A23571   2.120   9.351   8.756
 1604POPC   D2A23572   1.948   9.124   8.448
 1604POPC   C3A23573   2.176   9.083   8.089
 1604POPC   C4A23574   2.080   9.181   7.689
 1604POPC   C1B23575   2.171   8.630   8.769
 1604POPC   C2B23576   2.282   8.638   8.340
 1604POPC   C3B23577   2.100   8.593   7.902
 1604POPC   C4B23578   2.203   8.731   7.468
 1605POPC   NC323579  18.052  10.405   9.440
 1605POPC   PO423580  18.658  10.780   9.543
 1605POPC   GL123581  18.402  10.578   9.114
 1605POPC   GL223582  18.058  10.382   8.956
 1605POPC   C1A23583  18.229  10.753   8.683
 1605POPC   D2A23584  18.097  10.630   8.267
 1605POPC   C3A23585  18.305  10.880   7.932
 1605POPC   C4A23586  18.161  11.267   7.736
 1605POPC   C1B23587  18.368  10.250   8.691
 1605POPC   C2B23588  18.274  10.150   8.294
 1605POPC   C3B23589  18.267  10.290   7.915
 1605POPC   C4B23590  18.417  10.254   7.541
 1606POPC   NC323591  36.485  23.766   9.550
 1606POPC   PO423592  35.825  23.986   9.284
 1606POPC   GL123593  36.232  23.945   9.145
 1606POPC   GL223594  36.076  23.697   8.956
 1606POPC   C1A23595  36.377  24.027   8.726
 1606POPC   D2A23596  36.250  23.741   8.412
 1606POPC   C3A23597  36.260  23.882   7.986
 1606POPC   C4A23598  36.118  23.689   7.607
 1606POPC   C1B23599  35.744  23.661   8.655
 1606POPC   C2B23600  35.770  23.650   8.225
 1606POPC   C3B23601  35.692  23.511   7.838
 1606POPC   C4B23602  35.610  23.716   7.528
 1607POPC   NC323603   4.904  29.051   9.415
 1607POPC   PO423604   5.489  29.369   9.577
 1607POPC   GL123605   5.379  29.215   9.177
 1607POPC   GL223606   5.227  28.910   9.054
 1607POPC   C1A23607   5.211  29.341   8.798
 1607POPC   D2A23608   5.215  29.073   8.427
 1607POPC   C3A23609   5.177  29.261   8.054
 1607POPC   C4A23610   5.193  29.171   7.647
 1607POPC   C1B23611   4.864  28.912   8.754
 1607POPC   C2B23612   4.742  28.904   8.291
 1607POPC   C3B23613   4.937  28.779   7.873
 1607POPC   C4B23614   4.711  28.761   7.473
 1608POPC   NC323615  14.883   6.311   9.520
 1608POPC   PO423616  14.359   6.738   9.505
 1608POPC   GL123617  14.438   6.867   9.093
 1608POPC   GL223618  14.753   6.702   9.112
 1608POPC   C1A23619  14.399   6.703   8.682
 1608POPC   D2A23620  14.109   6.635   8.363
 1608POPC   C3A23621  14.170   6.867   7.973
 1608POPC   C4A23622  14.200   6.493   7.705
 1608POPC   C1B23623  14.953   6.558   8.778
 1608POPC   C2B23624  14.870   6.668   8.377
 1608POPC   C3B23625  14.581   6.591   8.069
 1608POPC   C4B23626  14.582   6.834   7.683
 1609POPC   NC323627  13.281  11.725   9.447
 1609POPC   PO423628  12.819  12.202   9.602
 1609POPC   GL123629  12.881  11.959   9.215
 1609POPC   GL223630  13.056  12.138   8.998
 1609POPC   C1A23631  12.788  11.764   8.788
 1609POPC   D2A23632  12.674  11.926   8.393
 1609POPC   C3A23633  12.868  12.027   8.002
 1609POPC   C4A23634  12.626  12.310   7.747
 1609POPC   C1B23635  13.289  11.892   8.735
 1609POPC   C2B23636  13.309  12.063   8.316
 1609POPC   C3B23637  13.359  11.878   7.946
 1609POPC   C4B23638  13.148  11.701   7.591
 1610POPC   NC323639   4.793  20.668   9.555
 1610POPC   PO423640   5.365  20.981   9.476
 1610POPC   GL123641   5.079  20.936   9.180
 1610POPC   GL223642   5.024  20.594   9.113
 1610POPC   C1A23643   5.234  20.913   8.780
 1610POPC   D2A23644   5.098  20.684   8.418
 1610POPC   C3A23645   5.279  20.845   8.050
 1610POPC   C4A23646   4.983  20.698   7.763
 1610POPC   C1B23647   5.334  20.416   8.819
 1610POPC   C2B23648   5.408  20.257   8.394
 1610POPC   C3B23649   5.291  20.331   7.968
 1610POPC   C4B23650   5.438  20.134   7.582
 1611POPC   NC323651  24.058  29.699   9.510
 1611POPC   PO423652  23.777  30.285   9.588
 1611POPC   GL123653  23.931  30.091   9.215
 1611POPC   GL223654  23.680  30.166   8.993
 1611POPC   C1A23655  24.002  29.813   8.840
 1611POPC   D2A23656  23.758  29.889   8.468
 1611POPC   C3A23657  23.910  29.832   8.056
 1611POPC   C4A23658  24.037  30.060   7.715
 1611POPC   C1B23659  23.467  29.801   8.879
 1611POPC   C2B23660  23.298  29.676   8.470
 1611POPC   C3B23661  23.415  29.904   8.083
 1611POPC   C4B23662  23.555  29.810   7.673
 1612POPC   NC323663   7.031  22.628   9.619
 1612POPC   PO423664   6.455  22.872   9.404
 1612POPC   GL123665   6.648  22.932   9.088
 1612POPC   GL223666   6.978  22.964   9.241
 1612POPC   C1A23667   6.516  23.052   8.695
 1612POPC   D2A23668   6.742  23.008   8.341
 1612POPC   C3A23669   6.729  23.293   8.011
 1612POPC   C4A23670   6.533  22.963   7.783
 1612POPC   C1B23671   7.053  23.076   8.827
 1612POPC   C2B23672   7.208  22.865   8.484
 1612POPC   C3B23673   7.100  22.742   8.072
 1612POPC   C4B23674   7.045  23.012   7.698
 1613POPC   NC323675  38.416  31.503   9.518
 1613POPC   PO423676  38.416  30.877   9.344
 1613POPC   GL123677  38.534  31.187   9.062
 1613POPC   GL223678  38.577  31.572   9.053
 1613POPC   C1A23679  38.433  31.279   8.659
 1613POPC   D2A23680  38.086  31.509   8.465
 1613POPC   C3A23681  38.214  31.484   8.062
 1613POPC   C4A23682  38.353  31.228   7.711
 1613POPC   C1B23683  38.470  31.775   8.659
 1613POPC   C2B23684  38.678  31.586   8.307
 1613POPC   C3B23685  38.718  31.553   7.876
 1613POPC   C4B23686  38.346  31.744   7.651
 1614POPC   NC323687  34.010  14.735   9.624
 1614POPC   PO423688  33.793  14.083   9.465
 1614POPC   GL123689  33.841  14.359   9.138
 1614POPC   GL223690  33.689  14.712   9.212
 1614POPC   C1A23691  33.890  14.342   8.682
 1614POPC   D2A23692  34.066  14.152   8.298
 1614POPC   C3A23693  33.812  14.290   7.938
 1614POPC   C4A23694  33.470  14.612   7.823
 1614POPC   C1B23695  34.080  14.770   8.954
 1614POPC   C2B23696  34.141  14.820   8.532
 1614POPC   C3B23697  33.900  14.730   8.177
 1614POPC   C4B23698  33.955  14.747   7.733
 1615POPC   NC323699  21.372  41.394   9.413
 1615POPC   PO423700  21.464  41.988   9.691
 1615POPC   GL123701  21.422  41.872   9.221
 1615POPC   GL223702  21.737  41.775   9.155
 1615POPC   C1A23703  21.394  41.636   8.803
 1615POPC   D2A23704  21.464  41.730   8.366
 1615POPC   C3A23705  21.342  41.556   7.961
 1615POPC   C4A23706  21.014  41.725   7.712
 1615POPC   C1B23707  21.932  41.632   8.814
 1615POPC   C2B23708  21.967  41.724   8.404
 1615POPC   C3B23709  21.829  41.730   8.014
 1615POPC   C4B23710  21.791  41.468   7.714
 1616POPC   NC323711  36.719  44.547   9.462
 1616POPC   PO423712  37.298  44.203   9.294
 1616POPC   GL123713  37.029  44.458   9.016
 1616POPC   GL223714  36.822  44.769   9.046
 1616POPC   C1A23715  36.795  44.524   8.618
 1616POPC   D2A23716  36.800  44.809   8.279
 1616POPC   C3A23717  36.945  44.593   7.953
 1616POPC   C4A23718  36.756  44.442   7.589
 1616POPC   C1B23719  37.046  44.954   8.729
 1616POPC   C2B23720  37.248   0.114   8.368
 1616POPC   C3B23721  37.296  44.990   7.955
 1616POPC   C4B23722  37.332   0.189   7.561
 1617POPC   NC323723   6.713  34.926   9.492
 1617POPC   PO423724   6.376  35.437   9.887
 1617POPC   GL123725   6.422  35.502   9.393
 1617POPC   GL223726   6.297  35.190   9.238
 1617POPC   C1A23727   6.658  35.515   8.980
 1617POPC   D2A23728   6.745  35.367   8.544
 1617POPC   C3A23729   6.746  35.604   8.144
 1617POPC   C4A23730   6.882  35.502   7.750
 1617POPC   C1B23731   6.437  35.069   8.834
 1617POPC   C2B23732   6.307  35.149   8.404
 1617POPC   C3B23733   6.506  35.168   7.985
 1617POPC   C4B23734   6.363  35.171   7.546
 1618POPC   NC323735   9.109  12.732   9.651
 1618POPC   PO423736   9.741  12.973   9.556
 1618POPC   GL123737   9.730  12.815   9.148
 1618POPC   GL223738   9.992  12.572   9.072
 1618POPC   C1A23739   9.825  13.004   8.775
 1618POPC   D2A23740   9.689  13.161   8.418
 1618POPC   C3A23741   9.827  13.026   8.079
 1618POPC   C4A23742   9.828  12.707   7.851
 1618POPC   C1B23743   9.736  12.526   8.673
 1618POPC   C2B23744   9.894  12.442   8.276
 1618POPC   C3B23745   9.818  12.208   7.922
 1618POPC   C4B23746   9.390  12.277   7.801
 1619POPC   NC323747  38.973  39.120   9.671
 1619POPC   PO423748  39.574  39.090   9.472
 1619POPC   GL123749  39.234  39.209   9.177
 1619POPC   GL223750  38.887  39.105   9.121
 1619POPC   C1A23751  39.181  39.242   8.723
 1619POPC   D2A23752  39.077  39.409   8.330
 1619POPC   C3A23753  39.366  39.235   8.085
 1619POPC   C4A23754  39.440  39.052   7.693
 1619POPC   C1B23755  38.719  39.003   8.706
 1619POPC   C2B23756  38.748  39.038   8.242
 1619POPC   C3B23757  38.935  39.035   7.847
 1619POPC   C4B23758  38.805  38.810   7.451
 1620POPC   NC323759   6.360   4.794   9.437
 1620POPC   PO423760   6.876   4.376   9.740
 1620POPC   GL123761   6.877   4.286   9.253
 1620POPC   GL223762   6.735   4.590   9.135
 1620POPC   C1A23763   6.784   4.151   8.790
 1620POPC   D2A23764   6.452   4.294   8.450
 1620POPC   C3A23765   6.556   4.144   8.023
 1620POPC   C4A23766   6.943   4.061   7.794
 1620POPC   C1B23767   6.857   4.642   8.713
 1620POPC   C2B23768   6.917   4.442   8.315
 1620POPC   C3B23769   6.883   4.555   7.920
 1620POPC   C4B23770   6.778   4.525   7.506
 1621POPC   NC323771  19.564  28.844   9.602
 1621POPC   PO423772  20.166  29.134   9.604
 1621POPC   GL123773  19.981  29.269   9.184
 1621POPC   GL223774  19.646  29.112   9.149
 1621POPC   C1A23775  20.085  29.250   8.739
 1621POPC   D2A23776  20.145  29.023   8.350
 1621POPC   C3A23777  20.067  29.258   8.006
 1621POPC   C4A23778  20.051  29.079   7.613
 1621POPC   C1B23779  19.726  28.904   8.704
 1621POPC   C2B23780  19.660  29.101   8.292
 1621POPC   C3B23781  19.615  29.034   7.847
 1621POPC   C4B23782  19.575  29.012   7.376
 1622POPC   NC323783  16.382  34.798   9.478
 1622POPC   PO423784  16.663  35.428   9.491
 1622POPC   GL123785  16.811  35.349   9.092
 1622POPC   GL223786  16.497  35.199   9.048
 1622POPC   C1A23787  16.889  35.138   8.704
 1622POPC   D2A23788  16.697  35.422   8.412
 1622POPC   C3A23789  16.755  35.475   7.979
 1622POPC   C4A23790  16.998  35.225   7.737
 1622POPC   C1B23791  16.382  35.065   8.652
 1622POPC   C2B23792  16.279  35.196   8.223
 1622POPC   C3B23793  16.489  35.067   7.822
 1622POPC   C4B23794  16.573  35.139   7.386
 1623POPC   NC323795  14.286  13.845   9.496
 1623POPC   PO423796  14.415  13.197   9.618
 1623POPC   GL123797  14.241  13.403   9.186
 1623POPC   GL223798  14.169  13.771   9.007
 1623POPC   C1A23799  14.388  13.374   8.746
 1623POPC   D2A23800  14.524  13.359   8.304
 1623POPC   C3A23801  14.479  13.601   7.930
 1623POPC   C4A23802  14.847  13.780   7.788
 1623POPC   C1B23803  13.941  13.581   8.643
 1623POPC   C2B23804  13.986  13.446   8.213
 1623POPC   C3B23805  13.980  13.642   7.814
 1623POPC   C4B23806  14.211  13.549   7.438
 1624POPC   NC323807  13.169  12.601   9.474
 1624POPC   PO423808  12.965  13.187   9.508
 1624POPC   GL123809  12.966  12.874   9.111
 1624POPC   GL223810  12.780  12.535   9.151
 1624POPC   C1A23811  13.102  12.579   8.759
 1624POPC   D2A23812  12.913  12.400   8.365
 1624POPC   C3A23813  13.043  12.553   7.935
 1624POPC   C4A23814  13.026  12.974   7.755
 1624POPC   C1B23815  12.609  12.697   8.737
 1624POPC   C2B23816  12.526  13.028   8.440
 1624POPC   C3B23817  12.259  12.931   8.092
 1624POPC   C4B23818  12.517  12.821   7.763
 1625POPC   NC323819  38.103  10.437   9.480
 1625POPC   PO423820  37.475  10.654   9.472
 1625POPC   GL123821  37.361  10.605   9.105
 1625POPC   GL223822  37.718  10.546   8.996
 1625POPC   C1A23823  37.303  10.302   8.821
 1625POPC   D2A23824  37.527  10.475   8.472
 1625POPC   C3A23825  37.321  10.382   8.098
 1625POPC   C4A23826  37.406  10.269   7.699
 1625POPC   C1B23827  37.975  10.725   8.659
 1625POPC   C2B23828  38.030  10.585   8.240
 1625POPC   C3B23829  37.771  10.591   7.878
 1625POPC   C4B23830  37.734  10.913   7.508
 1626POPC   NC323831  34.422  12.335   9.459
 1626POPC   PO423832  34.914  11.886   9.568
 1626POPC   GL123833  34.665  11.986   9.171
 1626POPC   GL223834  34.280  11.966   9.143
 1626POPC   C1A23835  34.787  11.992   8.737
 1626POPC   D2A23836  34.758  11.710   8.385
 1626POPC   C3A23837  34.617  11.831   7.983
 1626POPC   C4A23838  34.672  11.884   7.517
 1626POPC   C1B23839  34.332  12.240   8.768
 1626POPC   C2B23840  34.432  12.237   8.301
 1626POPC   C3B23841  34.583  12.316   7.862
 1626POPC   C4B23842  34.419  12.322   7.432
 1627POPC   NC323843   5.509  24.635   9.363
 1627POPC   PO423844   6.120  24.440   9.481
 1627POPC   GL123845   5.944  24.495   9.099
 1627POPC   GL223846   5.761  24.178   9.081
 1627POPC   C1A23847   5.935  24.661   8.685
 1627POPC   D2A23848   5.593  24.739   8.409
 1627POPC   C3A23849   5.693  24.590   8.010
 1627POPC   C4A23850   5.948  24.754   7.710
 1627POPC   C1B23851   6.042  24.145   8.711
 1627POPC   C2B23852   6.036  24.267   8.265
 1627POPC   C3B23853   6.150  24.306   7.809
 1627POPC   C4B23854   6.283  24.087   7.404
 1628POPC   NC323855  28.144  36.635   9.439
 1628POPC   PO423856  28.503  37.275   9.452
 1628POPC   GL123857  28.536  36.912   9.203
 1628POPC   GL223858  28.210  36.990   9.100
 1628POPC   C1A23859  28.542  36.686   8.800
 1628POPC   D2A23860  28.795  36.784   8.432
 1628POPC   C3A23861  28.627  36.710   8.017
 1628POPC   C4A23862  28.601  37.041   7.732
 1628POPC   C1B23863  28.057  36.986   8.742
 1628POPC   C2B23864  28.095  37.214   8.413
 1628POPC   C3B23865  28.243  37.019   8.116
 1628POPC   C4B23866  28.111  36.877   7.752
 1629POPC   NC323867  19.121  25.852   9.605
 1629POPC   PO423868  19.522  26.385   9.495
 1629POPC   GL123869  19.210  26.138   9.197
 1629POPC   GL223870  19.204  25.750   9.125
 1629POPC   C1A23871  19.004  26.162   8.806
 1629POPC   D2A23872  19.164  26.325   8.419
 1629POPC   C3A23873  19.095  26.341   7.969
 1629POPC   C4A23874  19.164  26.347   7.518
 1629POPC   C1B23875  19.262  25.583   8.735
 1629POPC   C2B23876  19.071  25.788   8.437
 1629POPC   C3B23877  18.931  25.753   8.067
 1629POPC   C4B23878  19.088  25.857   7.710
 1630POPC   NC323879   0.933  34.342   9.403
 1630POPC   PO423880   1.473  34.638   9.630
 1630POPC   GL123881   1.276  34.648   9.198
 1630POPC   GL223882   0.945  34.801   9.148
 1630POPC   C1A23883   1.114  34.477   8.788
 1630POPC   D2A23884   0.940  34.227   8.485
 1630POPC   C3A23885   1.210  34.279   8.173
 1630POPC   C4A23886   1.142  34.412   7.765
 1630POPC   C1B23887   0.911  34.927   8.723
 1630POPC   C2B23888   1.028  34.743   8.338
 1630POPC   C3B23889   1.069  34.887   7.930
 1630POPC   C4B23890   1.151  34.866   7.504
 1631POPC   NC323891  13.245  23.905   9.393
 1631POPC   PO423892  13.740  23.535   9.655
 1631POPC   GL123893  13.652  23.558   9.217
 1631POPC   GL223894  13.686  23.910   9.134
 1631POPC   C1A23895  13.673  23.495   8.761
 1631POPC   D2A23896  13.542  23.355   8.365
 1631POPC   C3A23897  13.673  23.481   7.999
 1631POPC   C4A23898  13.714  23.600   7.598
 1631POPC   C1B23899  13.459  23.968   8.756
 1631POPC   C2B23900  13.609  23.881   8.344
 1631POPC   C3B23901  13.606  23.991   7.905
 1631POPC   C4B23902  13.620  24.075   7.423
 1632POPC   NC323903   9.974  23.065   9.575
 1632POPC   PO423904   9.391  22.759   9.501
 1632POPC   GL123905   9.547  22.674   9.105
 1632POPC   GL223906   9.874  22.776   9.180
 1632POPC   C1A23907   9.455  22.827   8.696
 1632POPC   D2A23908   9.438  23.122   8.367
 1632POPC   C3A23909   9.536  22.915   7.983
 1632POPC   C4A23910   9.476  22.654   7.664
 1632POPC   C1B23911   9.942  22.941   8.799
 1632POPC   C2B23912   9.863  22.790   8.365
 1632POPC   C3B23913  10.049  22.904   7.955
 1632POPC   C4B23914   9.883  23.017   7.549
 1633POPC   NC323915  41.022  14.720   9.458
 1633POPC   PO423916  40.688  15.350   9.581
 1633POPC   GL123917  40.780  15.353   9.164
 1633POPC   GL223918  41.031  15.091   9.071
 1633POPC   C1A23919  40.801  15.438   8.708
 1633POPC   D2A23920  40.912  15.167   8.371
 1633POPC   C3A23921  40.706  15.219   7.978
 1633POPC   C4A23922  40.846  15.215   7.563
 1633POPC   C1B23923  41.236  14.880   8.706
 1633POPC   C2B23924  41.257  14.748   8.272
 1633POPC   C3B23925  41.203  15.005   7.871
 1633POPC   C4B23926  41.197  14.906   7.384
 1634POPC   NC323927   8.077  10.154   9.534
 1634POPC   PO423928   8.556   9.804   9.321
 1634POPC   GL123929   8.323   9.803   8.952
 1634POPC   GL223930   8.011   9.936   9.063
 1634POPC   C1A23931   8.223   9.528   8.636
 1634POPC   D2A23932   8.068   9.372   8.267
 1634POPC   C3A23933   8.244   9.480   7.858
 1634POPC   C4A23934   7.931   9.535   7.471
 1634POPC   C1B23935   7.912   9.935   8.662
 1634POPC   C2B23936   8.076   9.892   8.259
 1634POPC   C3B23937   8.177   9.975   7.834
 1634POPC   C4B23938   8.592  10.117   7.746
 1635POPC   NC323939   1.343  18.089   9.495
 1635POPC   PO423940   1.016  18.591   9.716
 1635POPC   GL123941   0.993  18.370   9.290
 1635POPC   GL223942   1.367  18.413   9.113
 1635POPC   C1A23943   0.953  18.286   8.875
 1635POPC   D2A23944   1.116  18.559   8.603
 1635POPC   C3A23945   1.072  18.520   8.172
 1635POPC   C4A23946   1.178  18.200   7.928
 1635POPC   C1B23947   1.463  18.111   8.761
 1635POPC   C2B23948   1.550  18.242   8.308
 1635POPC   C3B23949   1.705  18.266   7.864
 1635POPC   C4B23950   1.680  18.090   7.431
 1636POPC   NC323951  39.573   8.328   9.486
 1636POPC   PO423952  40.222   8.299   9.456
 1636POPC   GL123953  39.899   8.205   9.092
 1636POPC   GL223954  39.636   7.949   9.135
 1636POPC   C1A23955  39.982   8.351   8.644
 1636POPC   D2A23956  39.812   8.500   8.249
 1636POPC   C3A23957  40.089   8.494   7.912
 1636POPC   C4A23958  40.209   8.207   7.614
 1636POPC   C1B23959  39.789   7.879   8.699
 1636POPC   C2B23960  39.598   8.024   8.313
 1636POPC   C3B23961  39.730   8.089   7.877
 1636POPC   C4B23962  39.905   7.819   7.550
 1637POPC   NC323963   3.321  38.623   9.484
 1637POPC   PO423964   3.889  38.811   9.721
 1637POPC   GL123965   3.797  38.637   9.262
 1637POPC   GL223966   3.753  38.275   9.254
 1637POPC   C1A23967   3.464  38.577   8.870
 1637POPC   D2A23968   3.342  38.403   8.442
 1637POPC   C3A23969   3.426  38.616   8.010
 1637POPC   C4A23970   3.762  38.621   7.720
 1637POPC   C1B23971   3.894  38.340   8.807
 1637POPC   C2B23972   3.864  38.148   8.386
 1637POPC   C3B23973   3.539  38.118   8.069
 1637POPC   C4B23974   3.115  38.224   7.999
 1638POPC   NC323975  29.432  10.999   9.421
 1638POPC   PO423976  28.896  11.404   9.561
 1638POPC   GL123977  29.085  11.317   9.191
 1638POPC   GL223978  29.361  11.545   9.217
 1638POPC   C1A23979  29.020  11.242   8.763
 1638POPC   D2A23980  28.763  11.452   8.456
 1638POPC   C3A23981  28.974  11.373   8.063
 1638POPC   C4A23982  28.962  10.998   7.804
 1638POPC   C1B23983  29.523  11.421   8.820
 1638POPC   C2B23984  29.424  11.309   8.399
 1638POPC   C3B23985  29.487  11.515   8.006
 1638POPC   C4B23986  29.299  11.390   7.646
 1639POPC   NC323987  26.155   5.305   9.398
 1639POPC   PO423988  25.830   5.806   9.657
 1639POPC   GL123989  25.805   5.880   9.225
 1639POPC   GL223990  25.782   5.559   9.136
 1639POPC   C1A23991  25.956   5.915   8.805
 1639POPC   D2A23992  26.018   5.676   8.421
 1639POPC   C3A23993  25.900   5.838   8.021
 1639POPC   C4A23994  26.146   5.852   7.681
 1639POPC   C1B23995  25.623   5.534   8.733
 1639POPC   C2B23996  25.628   5.324   8.334
 1639POPC   C3B23997  25.551   5.473   7.927
 1639POPC   C4B23998  25.772   5.549   7.547
 1640POPC   NC323999  40.627  20.547   9.624
 1640POPC   PO424000  41.186  20.902   9.435
 1640POPC   GL124001  40.993  20.601   9.129
 1640POPC   GL224002  40.648  20.451   9.141
 1640POPC   C1A24003  40.816  20.607   8.688
 1640POPC   D2A24004  40.594  20.696   8.276
 1640POPC   C3A24005  40.862  20.845   7.924
 1640POPC   C4A24006  41.199  20.894   7.646
 1640POPC   C1B24007  40.364  20.372   8.824
 1640POPC   C2B24008  40.298  20.277   8.432
 1640POPC   C3B24009  40.311  20.313   8.023
 1640POPC   C4B24010  40.575  20.472   7.731
 1641POPC   NC324011   2.516  21.176   9.290
 1641POPC   PO424012   1.890  21.408   9.493
 1641POPC   GL124013   2.093  21.432   9.109
 1641POPC   GL224014   2.398  21.669   9.146
 1641POPC   C1A24015   2.049  21.144   8.751
 1641POPC   D2A24016   1.744  21.117   8.415
 1641POPC   C3A24017   1.881  21.107   7.983
 1641POPC   C4A24018   1.832  21.309   7.542
 1641POPC   C1B24019   2.256  21.717   8.718
 1641POPC   C2B24020   2.135  21.490   8.356
 1641POPC   C3B24021   2.053  21.577   7.937
 1641POPC   C4B24022   2.281  21.515   7.536
 1642POPC   NC324023  26.340  39.247   9.642
 1642POPC   PO424024  25.629  39.333   9.622
 1642POPC   GL124025  25.804  39.257   9.199
 1642POPC   GL224026  26.085  39.072   9.213
 1642POPC   C1A24027  25.933  39.330   8.761
 1642POPC   D2A24028  25.855  39.471   8.347
 1642POPC   C3A24029  25.969  39.319   7.936
 1642POPC   C4A24030  26.348  39.389   7.702
 1642POPC   C1B24031  26.182  38.888   8.810
 1642POPC   C2B24032  26.242  39.080   8.375
 1642POPC   C3B24033  26.276  38.891   7.951
 1642POPC   C4B24034  26.241  38.940   7.475
 1643POPC   NC324035  43.667  21.501   9.704
 1643POPC   PO424036  43.873  20.907   9.610
 1643POPC   GL124037  43.951  21.201   9.289
 1643POPC   GL224038  44.165  20.971   9.151
 1643POPC   C1A24039  43.878  21.366   8.873
 1643POPC   D2A24040  43.559  21.489   8.558
 1643POPC   C3A24041  43.641  21.332   8.140
 1643POPC   C4A24042  43.836  21.450   7.732
 1643POPC   C1B24043  44.232  20.926   8.742
 1643POPC   C2B24044  44.084  21.176   8.416
 1643POPC   C3B24045  44.025  21.026   8.005
 1643POPC   C4B24046  44.193  21.114   7.630
 1644POPC   NC324047  37.690  44.312   9.497
 1644POPC   PO424048  37.922  44.865   9.710
 1644POPC   GL124049  37.755  44.726   9.227
 1644POPC   GL224050  37.946  44.426   9.075
 1644POPC   C1A24051  37.481  44.636   8.804
 1644POPC   D2A24052  37.254  44.603   8.377
 1644POPC   C3A24053  37.467  44.518   7.938
 1644POPC   C4A24054  37.709  44.827   7.662
 1644POPC   C1B24055  37.916  44.458   8.629
 1644POPC   C2B24056  38.098  44.358   8.229
 1644POPC   C3B24057  37.934  44.334   7.817
 1644POPC   C4B24058  37.646  44.384   7.442
 1645POPC   NC324059  23.672  13.933   9.452
 1645POPC   PO424060  23.478  13.319   9.476
 1645POPC   GL124061  23.708  13.485   9.132
 1645POPC   GL224062  23.897  13.784   9.040
 1645POPC   C1A24063  23.664  13.397   8.729
 1645POPC   D2A24064  23.878  13.185   8.413
 1645POPC   C3A24065  23.710  13.379   8.079
 1645POPC   C4A24066  23.542  13.300   7.675
 1645POPC   C1B24067  23.709  13.964   8.750
 1645POPC   C2B24068  23.820  14.164   8.376
 1645POPC   C3B24069  23.889  13.929   8.014
 1645POPC   C4B24070  23.512  13.791   7.888
 1646POPC   NC324071  38.291  11.415   9.569
 1646POPC   PO424072  38.397  10.783   9.583
 1646POPC   GL124073  38.556  11.146   9.232
 1646POPC   GL224074  38.259  11.264   9.092
 1646POPC   C1A24075  38.638  11.372   8.798
 1646POPC   D2A24076  38.607  11.240   8.372
 1646POPC   C3A24077  38.828  11.153   8.021
 1646POPC   C4A24078  38.670  11.243   7.613
 1646POPC   C1B24079  38.103  11.237   8.699
 1646POPC   C2B24080  38.121  11.106   8.293
 1646POPC   C3B24081  38.290  11.327   7.957
 1646POPC   C4B24082  38.180  11.157   7.571
 1647POPC   NC324083  30.059  29.866   9.462
 1647POPC   PO424084  29.536  30.296   9.252
 1647POPC   GL124085  29.809  30.076   9.029
 1647POPC   GL224086  30.041  29.780   8.972
 1647POPC   C1A24087  29.666  29.878   8.668
 1647POPC   D2A24088  29.904  29.661   8.396
 1647POPC   C3A24089  29.970  29.986   8.152
 1647POPC   C4A24090  29.711  30.172   7.894
 1647POPC   C1B24091  30.181  30.076   8.645
 1647POPC   C2B24092  30.447  30.139   8.250
 1647POPC   C3B24093  30.350  30.020   7.790
 1647POPC   C4B24094  30.282  29.789   7.410
 1648POPC   NC324095  39.129   0.269   9.268
 1648POPC   PO424096  39.527  44.865   9.396
 1648POPC   GL124097  39.304  44.525   9.126
 1648POPC   GL224098  39.124  44.797   9.063
 1648POPC   C1A24099  39.130  44.410   8.691
 1648POPC   D2A24100  39.337  44.479   8.273
 1648POPC   C3A24101  39.280  44.359   7.829
 1648POPC   C4A24102  38.969  44.491   7.518
 1648POPC   C1B24103  39.428  44.842   8.741
 1648POPC   C2B24104  39.597  44.934   8.369
 1648POPC   C3B24105  39.399   0.016   8.005
 1648POPC   C4B24106  39.317  44.844   7.624
 1649POPC   NC324107  34.846   1.371   9.487
 1649POPC   PO424108  34.403   0.938   9.463
 1649POPC   GL124109  34.501   1.155   9.119
 1649POPC   GL224110  34.826   1.004   9.111
 1649POPC   C1A24111  34.449   0.987   8.708
 1649POPC   D2A24112  34.524   0.829   8.285
 1649POPC   C3A24113  34.622   1.115   7.952
 1649POPC   C4A24114  34.297   1.385   7.854
 1649POPC   C1B24115  34.860   1.294   8.771
 1649POPC   C2B24116  34.620   1.378   8.394
 1649POPC   C3B24117  34.725   1.619   8.043
 1649POPC   C4B24118  35.092   1.648   7.823
 1650POPC   NC324119   3.779  21.993   9.703
 1650POPC   PO424120   3.188  22.241   9.733
 1650POPC   GL124121   3.468  22.250   9.344
 1650POPC   GL224122   3.517  21.925   9.187
 1650POPC   C1A24123   3.390  22.334   8.871
 1650POPC   D2A24124   3.543  22.320   8.451
 1650POPC   C3A24125   3.347  22.214   8.078
 1650POPC   C4A24126   3.512  22.300   7.689
 1650POPC   C1B24127   3.617  21.879   8.727
 1650POPC   C2B24128   3.624  21.806   8.248
 1650POPC   C3B24129   3.648  21.825   7.768
 1650POPC   C4B24130   3.851  21.818   7.295
 1651POPC   NC324131  10.159  31.336   9.690
 1651POPC   PO424132  10.703  31.587   9.462
 1651POPC   GL124133  10.477  31.266   9.261
 1651POPC   GL224134  10.742  31.118   9.080
 1651POPC   C1A24135  10.366  31.399   8.851
 1651POPC   D2A24136  10.543  31.585   8.452
 1651POPC   C3A24137  10.421  31.512   8.046
 1651POPC   C4A24138  10.319  31.775   7.692
 1651POPC   C1B24139  10.878  31.377   8.752
 1651POPC   C2B24140  10.849  31.176   8.327
 1651POPC   C3B24141  10.868  31.315   7.929
 1651POPC   C4B24142  11.004  31.212   7.576
 1652POPC   NC324143   5.743  28.866   9.561
 1652POPC   PO424144   6.146  29.343   9.395
 1652POPC   GL124145   5.909  29.071   9.113
 1652POPC   GL224146   5.964  29.293   8.885
 1652POPC   C1A24147   5.615  28.985   8.726
 1652POPC   D2A24148   5.580  28.698   8.338
 1652POPC   C3A24149   5.603  28.856   7.887
 1652POPC   C4A24150   5.995  28.771   7.631
 1652POPC   C1B24151   5.718  29.490   8.604
 1652POPC   C2B24152   5.658  29.283   8.254
 1652POPC   C3B24153   6.001  29.097   8.087
 1652POPC   C4B24154   6.003  29.279   7.715
 1653POPC   NC324155  43.671   2.315   9.379
 1653POPC   PO424156  44.093   1.780   9.406
 1653POPC   GL124157  43.891   1.983   9.041
 1653POPC   GL224158  43.749   1.754   8.772
 1653POPC   C1A24159  44.007   2.179   8.662
 1653POPC   D2A24160  43.782   2.459   8.403
 1653POPC   C3A24161  43.816   2.228   8.026
 1653POPC   C4A24162  44.218   2.029   7.899
 1653POPC   C1B24163  44.161   1.564   8.633
 1653POPC   C2B24164  44.220   1.568   8.201
 1653POPC   C3B24165  43.867   1.683   7.950
 1653POPC   C4B24166  43.451   1.843   7.917
 1654POPC   NC324167  30.569  29.069   9.786
 1654POPC   PO424168  30.957  28.832   9.318
 1654POPC   GL124169  30.624  28.963   9.052
 1654POPC   GL224170  30.339  29.030   9.271
 1654POPC   C1A24171  30.616  29.051   8.594
 1654POPC   D2A24172  30.655  29.241   8.159
 1654POPC   C3A24173  30.625  29.000   7.744
 1654POPC   C4A24174  30.883  29.012   7.360
 1654POPC   C1B24175  30.345  29.376   8.924
 1654POPC   C2B24176  30.409  29.627   8.536
 1654POPC   C3B24177  30.302  29.604   8.096
 1654POPC   C4B24178  30.318  29.401   7.731
 1655POPC   NC324179  15.845  19.815   9.548
 1655POPC   PO424180  16.333  19.361   9.459
 1655POPC   GL124181  16.107  19.671   9.168
 1655POPC   GL224182  16.283  19.906   9.017
 1655POPC   C1A24183  15.807  19.928   8.876
 1655POPC   D2A24184  16.043  20.107   8.514
 1655POPC   C3A24185  15.860  20.121   8.082
 1655POPC   C4A24186  15.765  19.974   7.654
 1655POPC   C1B24187  16.160  19.595   8.677
 1655POPC   C2B24188  16.089  19.648   8.248
 1655POPC   C3B24189  16.173  19.735   7.851
 1655POPC   C4B24190  16.155  19.670   7.399
 1656POPC   NC324191  44.223  16.668   9.425
 1656POPC   PO424192  44.861  16.666   9.704
 1656POPC   GL124193  44.670  16.790   9.209
 1656POPC   GL224194  44.857  16.601   8.999
 1656POPC   C1A24195  44.432  16.696   8.766
 1656POPC   D2A24196  44.174  16.625   8.398
 1656POPC   C3A24197  44.337  16.630   7.965
 1656POPC   C4A24198  44.465  16.591   7.506
 1656POPC   C1B24199  44.965  16.788   8.622
 1656POPC   C2B24200  44.792  16.692   8.235
 1656POPC   C3B24201  44.795  16.444   7.876
 1656POPC   C4B24202  44.992  16.531   7.559
 1657POPC   NC324203  32.795  31.421   9.911
 1657POPC   PO424204  33.449  31.355   9.652
 1657POPC   GL124205  33.301  31.585   9.208
 1657POPC   GL224206  32.946  31.743   9.169
 1657POPC   C1A24207  33.223  31.643   8.739
 1657POPC   D2A24208  33.067  31.804   8.332
 1657POPC   C3A24209  33.251  31.636   7.933
 1657POPC   C4A24210  33.233  31.269   7.621
 1657POPC   C1B24211  32.713  31.804   8.757
 1657POPC   C2B24212  32.586  31.973   8.350
 1657POPC   C3B24213  32.707  31.800   7.948
 1657POPC   C4B24214  32.805  31.340   7.908
 1658POPC   NC324215  30.703  44.409   9.728
 1658POPC   PO424216  30.446  44.983   9.586
 1658POPC   GL124217  30.653  44.721   9.262
 1658POPC   GL224218  30.838  44.398   9.212
 1658POPC   C1A24219  30.691  44.789   8.836
 1658POPC   D2A24220  30.522  44.643   8.470
 1658POPC   C3A24221  30.702  44.861   8.097
 1658POPC   C4A24222  30.972   0.218   7.901
 1658POPC   C1B24223  31.011  44.389   8.780
 1658POPC   C2B24224  31.035  44.560   8.332
 1658POPC   C3B24225  30.976  44.521   7.853
 1658POPC   C4B24226  30.858  44.431   7.423
 1659POPC   NC324227  44.930  37.527   9.520
 1659POPC   PO424228   0.623  37.603   9.544
 1659POPC   GL124229   0.355  37.472   9.226
 1659POPC   GL224230   0.255  37.800   9.150
 1659POPC   C1A24231   0.323  37.370   8.814
 1659POPC   D2A24232   0.281  37.531   8.416
 1659POPC   C3A24233   0.558  37.664   8.107
 1659POPC   C4A24234   0.250  37.439   7.912
 1659POPC   C1B24235   0.531  37.872   8.807
 1659POPC   C2B24236   0.832  37.976   8.485
 1659POPC   C3B24237   0.739  38.148   8.091
 1659POPC   C4B24238   0.614  38.004   7.690
 1660POPC   NC324239  31.534  40.786   9.588
 1660POPC   PO424240  31.031  40.525   9.218
 1660POPC   GL124241  31.465  40.598   9.127
 1660POPC   GL224242  31.499  40.962   9.105
 1660POPC   C1A24243  31.611  40.635   8.727
 1660POPC   D2A24244  31.340  40.424   8.444
 1660POPC   C3A24245  31.307  40.523   8.049
 1660POPC   C4A24246  31.612  40.620   7.806
 1660POPC   C1B24247  31.565  41.136   8.701
 1660POPC   C2B24248  31.507  40.956   8.268
 1660POPC   C3B24249  31.679  41.113   7.867
 1660POPC   C4B24250  31.520  40.968   7.444
 1661POPC   NC324251  35.830  39.767   9.423
 1661POPC   PO424252  36.082  40.291   9.591
 1661POPC   GL124253  36.331  40.155   9.200
 1661POPC   GL224254  36.307  39.806   9.134
 1661POPC   C1A24255  36.341  40.115   8.726
 1661POPC   D2A24256  35.927  40.091   8.508
 1661POPC   C3A24257  35.860  40.004   8.076
 1661POPC   C4A24258  35.980  40.130   7.664
 1661POPC   C1B24259  36.410  39.626   8.736
 1661POPC   C2B24260  36.225  39.701   8.319
 1661POPC   C3B24261  36.359  39.851   7.904
 1661POPC   C4B24262  36.252  39.679   7.484
 1662POPC   NC324263  31.600  16.848   9.701
 1662POPC   PO424264  31.585  16.230   9.537
 1662POPC   GL124265  31.558  16.574   9.220
 1662POPC   GL224266  31.765  16.856   9.167
 1662POPC   C1A24267  31.617  16.630   8.751
 1662POPC   D2A24268  31.547  16.854   8.352
 1662POPC   C3A24269  31.575  16.534   8.007
 1662POPC   C4A24270  31.609  16.401   7.558
 1662POPC   C1B24271  31.845  17.095   8.738
 1662POPC   C2B24272  31.891  17.338   8.330
 1662POPC   C3B24273  31.771  17.264   7.909
 1662POPC   C4B24274  31.392  17.002   7.864
 1663POPC   NC324275  22.521  40.227   9.375
 1663POPC   PO424276  21.811  40.003   9.485
 1663POPC   GL124277  22.049  40.086   9.129
 1663POPC   GL224278  22.286  39.856   9.001
 1663POPC   C1A24279  22.045  40.258   8.715
 1663POPC   D2A24280  22.230  40.082   8.334
 1663POPC   C3A24281  22.028  40.125   7.985
 1663POPC   C4A24282  21.990  39.858   7.658
 1663POPC   C1B24283  22.567  40.090   8.713
 1663POPC   C2B24284  22.735  39.975   8.302
 1663POPC   C3B24285  22.536  39.957   7.900
 1663POPC   C4B24286  22.393  40.320   7.673
 1664POPC   NC324287  31.887  31.646   9.591
 1664POPC   PO424288  32.454  31.231   9.623
 1664POPC   GL124289  32.214  31.416   9.224
 1664POPC   GL224290  32.071  31.769   9.131
 1664POPC   C1A24291  32.317  31.451   8.750
 1664POPC   D2A24292  32.479  31.439   8.300
 1664POPC   C3A24293  32.085  31.302   8.071
 1664POPC   C4A24294  31.907  31.142   7.711
 1664POPC   C1B24295  32.222  31.955   8.758
 1664POPC   C2B24296  32.112  31.764   8.346
 1664POPC   C3B24297  32.202  31.751   7.886
 1664POPC   C4B24298  32.447  31.872   7.478
 1665POPC   NC324299  19.061  23.592   9.692
 1665POPC   PO424300  18.450  23.860   9.680
 1665POPC   GL124301  18.750  23.600   9.291
 1665POPC   GL224302  19.153  23.481   9.213
 1665POPC   C1A24303  18.854  23.604   8.823
 1665POPC   D2A24304  18.673  23.820   8.475
 1665POPC   C3A24305  18.998  23.870   8.152
 1665POPC   C4A24306  19.310  23.732   7.856
 1665POPC   C1B24307  19.250  23.266   8.810
 1665POPC   C2B24308  19.233  23.418   8.379
 1665POPC   C3B24309  19.392  23.247   7.982
 1665POPC   C4B24310  19.696  23.359   7.667
 1666POPC   NC324311   9.598  35.914   9.504
 1666POPC   PO424312  10.007  36.467   9.819
 1666POPC   GL124313   9.991  36.217   9.365
 1666POPC   GL224314   9.646  36.261   9.149
 1666POPC   C1A24315  10.046  36.118   8.892
 1666POPC   D2A24316   9.850  35.944   8.464
 1666POPC   C3A24317   9.923  36.169   8.077
 1666POPC   C4A24318   9.962  36.037   7.676
 1666POPC   C1B24319   9.458  36.026   8.811
 1666POPC   C2B24320   9.315  35.965   8.387
 1666POPC   C3B24321   9.485  35.921   7.961
 1666POPC   C4B24322   9.504  36.277   7.675
 1667POPC   NC324323  18.912  41.611   9.721
 1667POPC   PO424324  19.171  41.188   9.278
 1667POPC   GL124325  19.298  41.097   8.907
 1667POPC   GL224326  19.530  41.366   8.959
 1667POPC   C1A24327  19.075  41.353   8.615
 1667POPC   D2A24328  19.010  41.762   8.412
 1667POPC   C3A24329  19.011  41.604   8.040
 1667POPC   C4A24330  18.955  41.345   7.718
 1667POPC   C1B24331  19.409  41.738   8.745
 1667POPC   C2B24332  19.522  41.714   8.324
 1667POPC   C3B24333  19.455  41.842   7.942
 1667POPC   C4B24334  19.211  41.813   7.612
 1668POPC   NC324335   0.729  26.839   9.511
 1668POPC   PO424336   0.318  26.465   9.641
 1668POPC   GL124337   0.338  26.695   9.181
 1668POPC   GL224338   0.660  26.718   9.029
 1668POPC   C1A24339   0.374  26.999   8.749
 1668POPC   D2A24340   0.560  27.228   8.363
 1668POPC   C3A24341   0.422  27.081   7.919
 1668POPC   C4A24342   0.271  26.655   7.730
 1668POPC   C1B24343   0.890  26.882   8.683
 1668POPC   C2B24344   0.942  26.912   8.219
 1668POPC   C3B24345   0.776  26.714   7.840
 1668POPC   C4B24346   0.659  26.836   7.420
 1669POPC   NC324347  11.540  10.640   9.525
 1669POPC   PO424348  10.910  10.823   9.408
 1669POPC   GL124349  11.025  10.504   9.122
 1669POPC   GL224350  11.391  10.489   9.084
 1669POPC   C1A24351  10.933  10.473   8.691
 1669POPC   D2A24352  11.081  10.669   8.301
 1669POPC   C3A24353  11.093  10.404   7.970
 1669POPC   C4A24354  11.145  10.561   7.564
 1669POPC   C1B24355  11.419  10.634   8.693
 1669POPC   C2B24356  11.455  10.337   8.365
 1669POPC   C3B24357  11.614  10.406   7.972
 1669POPC   C4B24358  11.646  10.820   7.825
 1670POPC   NC324359  39.060  40.699   9.506
 1670POPC   PO424360  39.524  40.296   9.647
 1670POPC   GL124361  39.494  40.463   9.242
 1670POPC   GL224362  39.506  40.850   9.238
 1670POPC   C1A24363  39.304  40.568   8.864
 1670POPC   D2A24364  39.059  40.809   8.567
 1670POPC   C3A24365  39.119  40.740   8.155
 1670POPC   C4A24366  39.277  40.596   7.769
 1670POPC   C1B24367  39.477  41.039   8.806
 1670POPC   C2B24368  39.577  40.878   8.388
 1670POPC   C3B24369  39.515  41.031   7.998
 1670POPC   C4B24370  39.117  41.139   7.832
 1671POPC   NC324371   9.722  35.156   9.692
 1671POPC   PO424372  10.007  35.784   9.684
 1671POPC   GL124373   9.975  35.680   9.207
 1671POPC   GL224374   9.882  35.336   9.074
 1671POPC   C1A24375  10.107  35.628   8.755
 1671POPC   D2A24376   9.976  35.416   8.370
 1671POPC   C3A24377   9.971  35.612   7.960
 1671POPC   C4A24378  10.054  35.217   7.671
 1671POPC   C1B24379   9.605  35.529   8.731
 1671POPC   C2B24380   9.495  35.502   8.279
 1671POPC   C3B24381   9.590  35.306   7.900
 1671POPC   C4B24382   9.545  35.433   7.463
 1672POPC   NC324383   9.300  27.857   9.369
 1672POPC   PO424384   8.831  27.321   9.533
 1672POPC   GL124385   8.973  27.523   9.164
 1672POPC   GL224386   9.293  27.349   9.228
 1672POPC   C1A24387   8.966  27.717   8.714
 1672POPC   D2A24388   9.288  27.920   8.426
 1672POPC   C3A24389   9.202  27.777   7.994
 1672POPC   C4A24390   8.795  27.795   7.755
 1672POPC   C1B24391   9.396  27.465   8.805
 1672POPC   C2B24392   9.215  27.392   8.405
 1672POPC   C3B24393   9.308  27.263   8.000
 1672POPC   C4B24394   9.209  27.422   7.585
 1673POPC   NC324395  33.904  33.524   9.486
 1673POPC   PO424396  34.075  34.220   9.447
 1673POPC   GL124397  34.073  33.885   9.163
 1673POPC   GL224398  33.705  33.903   9.107
 1673POPC   C1A24399  33.967  33.620   8.788
 1673POPC   D2A24400  33.713  33.824   8.473
 1673POPC   C3A24401  33.789  33.648   8.054
 1673POPC   C4A24402  33.719  33.709   7.619
 1673POPC   C1B24403  33.472  34.169   8.821
 1673POPC   C2B24404  33.336  34.256   8.431
 1673POPC   C3B24405  33.441  34.060   8.074
 1673POPC   C4B24406  33.448  34.117   7.654
 1674POPC   NC324407   1.380   6.454   9.301
 1674POPC   PO424408   2.069   6.704   9.512
 1674POPC   GL124409   2.002   6.717   9.087
 1674POPC   GL224410   1.862   6.389   9.164
 1674POPC   C1A24411   1.965   6.756   8.626
 1674POPC   D2A24412   2.236   6.754   8.260
 1674POPC   C3A24413   2.082   6.980   7.905
 1674POPC   C4A24414   1.759   6.730   7.722
 1674POPC   C1B24415   2.028   6.281   8.807
 1674POPC   C2B24416   1.976   6.278   8.378
 1674POPC   C3B24417   1.790   6.274   7.970
 1674POPC   C4B24418   1.988   6.283   7.581
 1675POPC   NC324419  35.828  34.968   9.564
 1675POPC   PO424420  36.362  35.416   9.487
 1675POPC   GL124421  36.200  35.543   9.053
 1675POPC   GL224422  36.235  35.248   8.976
 1675POPC   C1A24423  36.143  35.516   8.580
 1675POPC   D2A24424  36.281  35.511   8.181
 1675POPC   C3A24425  36.446  35.124   8.015
 1675POPC   C4A24426  36.266  35.027   7.677
 1675POPC   C1B24427  36.554  35.165   8.705
 1675POPC   C2B24428  36.295  34.981   8.470
 1675POPC   C3B24429  35.959  35.102   8.223
 1675POPC   C4B24430  35.767  34.904   7.826
 1676POPC   NC324431  37.250  37.306   9.281
 1676POPC   PO424432  37.571  37.778   9.671
 1676POPC   GL124433  37.495  37.812   9.186
 1676POPC   GL224434  37.862  37.850   9.150
 1676POPC   C1A24435  37.548  37.664   8.710
 1676POPC   D2A24436  37.708  37.569   8.259
 1676POPC   C3A24437  37.421  37.516   7.864
 1676POPC   C4A24438  37.522  37.273   7.443
 1676POPC   C1B24439  37.972  37.945   8.730
 1676POPC   C2B24440  38.127  37.948   8.319
 1676POPC   C3B24441  37.973  38.042   7.906
 1676POPC   C4B24442  37.746  37.778   7.567
 1677POPC   NC324443  31.953  40.053   9.674
 1677POPC   PO424444  32.510  39.715   9.596
 1677POPC   GL124445  32.399  39.869   9.176
 1677POPC   GL224446  32.033  39.841   9.206
 1677POPC   C1A24447  32.227  39.938   8.738
 1677POPC   D2A24448  32.316  40.189   8.379
 1677POPC   C3A24449  32.356  40.028   8.009
 1677POPC   C4A24450  32.486  40.101   7.644
 1677POPC   C1B24451  31.921  40.247   8.989
 1677POPC   C2B24452  31.848  40.248   8.536
 1677POPC   C3B24453  31.950  40.486   8.161
 1677POPC   C4B24454  32.027  40.325   7.730
 1678POPC   NC324455  22.814  28.018   9.475
 1678POPC   PO424456  23.261  27.604   9.656
 1678POPC   GL124457  23.008  27.635   9.196
 1678POPC   GL224458  22.672  27.809   9.060
 1678POPC   C1A24459  23.014  27.685   8.721
 1678POPC   D2A24460  22.916  27.401   8.399
 1678POPC   C3A24461  23.056  27.502   8.001
 1678POPC   C4A24462  22.925  27.468   7.567
 1678POPC   C1B24463  22.635  28.052   8.707
 1678POPC   C2B24464  22.775  27.914   8.310
 1678POPC   C3B24465  22.724  27.863   7.869
 1678POPC   C4B24466  22.765  27.927   7.421
 1679POPC   NC324467  27.364  27.187   9.470
 1679POPC   PO424468  27.810  26.726   9.524
 1679POPC   GL124469  27.782  26.648   9.108
 1679POPC   GL224470  27.493  26.827   9.103
 1679POPC   C1A24471  27.801  26.784   8.667
 1679POPC   D2A24472  27.570  26.762   8.282
 1679POPC   C3A24473  27.690  26.741   7.842
 1679POPC   C4A24474  28.012  27.000   7.765
 1679POPC   C1B24475  27.273  26.842   8.735
 1679POPC   C2B24476  27.158  27.023   8.361
 1679POPC   C3B24477  27.170  26.805   7.986
 1679POPC   C4B24478  27.166  26.946   7.585
 1680POPC   NC324479  18.461  38.421   9.690
 1680POPC   PO424480  17.957  38.674   9.285
 1680POPC   GL124481  18.277  38.535   9.009
 1680POPC   GL224482  18.558  38.393   9.184
 1680POPC   C1A24483  18.279  38.535   8.550
 1680POPC   D2A24484  18.017  38.746   8.239
 1680POPC   C3A24485  17.993  38.594   7.810
 1680POPC   C4A24486  17.993  38.155   7.675
 1680POPC   C1B24487  18.758  38.455   8.794
 1680POPC   C2B24488  18.715  38.367   8.361
 1680POPC   C3B24489  18.427  38.423   8.026
 1680POPC   C4B24490  18.441  38.401   7.583
 1681POPC   NC324491  14.639  40.322   9.504
 1681POPC   PO424492  14.131  39.858   9.425
 1681POPC   GL124493  14.296  40.061   9.079
 1681POPC   GL224494  14.677  40.045   9.088
 1681POPC   C1A24495  14.205  39.823   8.686
 1681POPC   D2A24496  14.363  39.637   8.304
 1681POPC   C3A24497  14.148  39.794   7.927
 1681POPC   C4A24498  14.144  40.009   7.492
 1681POPC   C1B24499  14.704  39.889   8.676
 1681POPC   C2B24500  14.538  40.114   8.324
 1681POPC   C3B24501  14.417  40.269   7.917
 1681POPC   C4B24502  14.632  40.038   7.588
 1682POPC   NC324503  37.811  21.088   9.618
 1682POPC   PO424504  37.541  21.699   9.569
 1682POPC   GL124505  37.523  21.379   9.234
 1682POPC   GL224506  37.844  21.288   9.151
 1682POPC   C1A24507  37.555  21.492   8.781
 1682POPC   D2A24508  37.512  21.712   8.390
 1682POPC   C3A24509  37.493  21.462   7.992
 1682POPC   C4A24510  37.375  21.094   7.761
 1682POPC   C1B24511  38.021  21.268   8.741
 1682POPC   C2B24512  37.893  21.388   8.344
 1682POPC   C3B24513  37.910  21.197   7.974
 1682POPC   C4B24514  37.831  20.901   7.625
 1683POPC   NC324515   3.296   5.050   9.475
 1683POPC   PO424516   3.888   5.455   9.457
 1683POPC   GL124517   3.694   5.239   9.132
 1683POPC   GL224518   3.660   4.895   9.155
 1683POPC   C1A24519   3.367   5.190   8.818
 1683POPC   D2A24520   3.539   5.279   8.420
 1683POPC   C3A24521   3.397   5.254   8.025
 1683POPC   C4A24522   3.364   5.469   7.610
 1683POPC   C1B24523   3.621   4.759   8.728
 1683POPC   C2B24524   3.266   4.778   8.447
 1683POPC   C3B24525   3.342   4.728   8.019
 1683POPC   C4B24526   3.757   4.900   8.043
 1684POPC   NC324527  24.291  34.535   9.681
 1684POPC   PO424528  24.954  34.711   9.842
 1684POPC   GL124529  24.726  34.618   9.338
 1684POPC   GL224530  24.361  34.559   9.164
 1684POPC   C1A24531  24.718  34.591   8.822
 1684POPC   D2A24532  24.545  34.819   8.446
 1684POPC   C3A24533  24.678  34.862   8.025
 1684POPC   C4A24534  24.562  34.546   7.708
 1684POPC   C1B24535  24.207  34.878   8.812
 1684POPC   C2B24536  24.058  34.963   8.338
 1684POPC   C3B24537  24.157  34.830   7.896
 1684POPC   C4B24538  23.917  34.749   7.523
 1685POPC   NC324539   7.479   2.438   9.264
 1685POPC   PO424540   7.327   1.852   9.623
 1685POPC   GL124541   7.342   1.919   9.186
 1685POPC   GL224542   7.071   1.689   9.170
 1685POPC   C1A24543   7.439   2.036   8.711
 1685POPC   D2A24544   7.361   2.302   8.317
 1685POPC   C3A24545   7.490   2.077   7.963
 1685POPC   C4A24546   7.883   2.129   7.764
 1685POPC   C1B24547   6.958   1.969   8.854
 1685POPC   C2B24548   6.973   1.985   8.426
 1685POPC   C3B24549   6.953   1.859   7.997
 1685POPC   C4B24550   7.181   1.843   7.617
 1686POPC   NC324551  12.630  33.888   9.510
 1686POPC   PO424552  13.222  33.692   9.679
 1686POPC   GL124553  13.190  33.848   9.198
 1686POPC   GL224554  12.883  33.880   9.081
 1686POPC   C1A24555  13.190  33.642   8.754
 1686POPC   D2A24556  12.919  33.696   8.384
 1686POPC   C3A24557  13.091  33.884   7.989
 1686POPC   C4A24558  13.398  33.821   7.645
 1686POPC   C1B24559  12.677  34.002   8.752
 1686POPC   C2B24560  12.432  33.858   8.419
 1686POPC   C3B24561  12.542  33.677   8.002
 1686POPC   C4B24562  12.717  33.858   7.634
 1687POPC   NC324563  13.279  39.402   9.583
 1687POPC   PO424564  13.850  39.020   9.412
 1687POPC   GL124565  13.511  39.193   9.173
 1687POPC   GL224566  13.499  39.555   9.154
 1687POPC   C1A24567  13.424  39.186   8.757
 1687POPC   D2A24568  13.548  39.031   8.372
 1687POPC   C3A24569  13.387  39.215   7.996
 1687POPC   C4A24570  13.436  39.047   7.608
 1687POPC   C1B24571  13.697  39.617   8.763
 1687POPC   C2B24572  13.491  39.560   8.389
 1687POPC   C3B24573  13.578  39.746   8.025
 1687POPC   C4B24574  13.728  39.740   7.644
 1688POPC   NC324575  12.965  32.946   9.488
 1688POPC   PO424576  12.494  32.553   9.207
 1688POPC   GL124577  12.864  32.880   9.003
 1688POPC   GL224578  12.933  33.291   9.110
 1688POPC   C1A24579  12.979  33.144   8.620
 1688POPC   D2A24580  13.250  33.311   8.273
 1688POPC   C3A24581  13.194  33.036   7.914
 1688POPC   C4A24582  12.870  32.971   7.616
 1688POPC   C1B24583  12.646  33.485   8.805
 1688POPC   C2B24584  12.486  33.339   8.389
 1688POPC   C3B24585  12.581  33.153   7.989
 1688POPC   C4B24586  12.548  33.362   7.572
 1689POPC   NC324587   2.823  25.682   9.503
 1689POPC   PO424588   2.689  25.045   9.501
 1689POPC   GL124589   2.831  25.266   9.147
 1689POPC   GL224590   3.161  25.433   9.195
 1689POPC   C1A24591   2.698  25.225   8.694
 1689POPC   D2A24592   2.405  25.197   8.323
 1689POPC   C3A24593   2.580  25.175   7.894
 1689POPC   C4A24594   2.756  24.871   7.618
 1689POPC   C1B24595   2.934  25.664   8.847
 1689POPC   C2B24596   2.870  25.593   8.398
 1689POPC   C3B24597   2.975  25.513   7.958
 1689POPC   C4B24598   2.689  25.617   7.625
 1690POPC   NC324599   3.030  17.918   9.254
 1690POPC   PO424600   2.549  18.301   9.555
 1690POPC   GL124601   2.789  18.473   9.210
 1690POPC   GL224602   2.690  18.210   9.030
 1690POPC   C1A24603   2.694  18.683   8.814
 1690POPC   D2A24604   2.842  18.541   8.436
 1690POPC   C3A24605   2.643  18.514   8.065
 1690POPC   C4A24606   2.788  18.268   7.718
 1690POPC   C1B24607   2.437  18.250   8.694
 1690POPC   C2B24608   2.483  18.046   8.327
 1690POPC   C3B24609   2.588  17.835   7.933
 1690POPC   C4B24610   2.597  17.849   7.462
 1691POPC   NC324611   4.029  24.383   9.534
 1691POPC   PO424612   4.412  24.932   9.628
 1691POPC   GL124613   4.302  24.686   9.168
 1691POPC   GL224614   4.114  24.329   9.055
 1691POPC   C1A24615   4.318  24.550   8.666
 1691POPC   D2A24616   4.097  24.461   8.255
 1691POPC   C3A24617   4.369  24.419   7.904
 1691POPC   C4A24618   4.317  24.377   7.473
 1691POPC   C1B24619   4.073  24.104   8.659
 1691POPC   C2B24620   3.907  23.958   8.237
 1691POPC   C3B24621   4.107  23.975   7.805
 1691POPC   C4B24622   3.908  24.094   7.387
 1692POPC   NC324623  36.252  42.341   9.626
 1692POPC   PO424624  36.189  43.012   9.391
 1692POPC   GL124625  36.122  42.592   9.163
 1692POPC   GL224626  36.041  42.195   9.191
 1692POPC   C1A24627  36.229  42.450   8.766
 1692POPC   D2A24628  36.038  42.524   8.355
 1692POPC   C3A24629  36.180  42.336   8.001
 1692POPC   C4A24630  36.327  42.449   7.593
 1692POPC   C1B24631  36.119  41.919   8.828
 1692POPC   C2B24632  36.053  41.998   8.393
 1692POPC   C3B24633  35.881  41.915   7.970
 1692POPC   C4B24634  36.152  41.962   7.653
 1693POPC   NC324635  19.769  10.837   9.484
 1693POPC   PO424636  20.038  10.215   9.335
 1693POPC   GL124637  19.933  10.572   9.089
 1693POPC   GL224638  19.621  10.623   8.919
 1693POPC   C1A24639  20.097  10.697   8.721
 1693POPC   D2A24640  20.001  10.562   8.325
 1693POPC   C3A24641  20.045  10.388   7.945
 1693POPC   C4A24642  19.862  10.652   7.674
 1693POPC   C1B24643  19.685  10.287   8.636
 1693POPC   C2B24644  19.632  10.204   8.193
 1693POPC   C3B24645  19.589  10.201   7.741
 1693POPC   C4B24646  19.437  10.513   7.452
 1694POPC   NC324647  42.592   6.933   9.455
 1694POPC   PO424648  42.333   6.359   9.221
 1694POPC   GL124649  42.470   6.678   9.018
 1694POPC   GL224650  42.163   6.842   9.120
 1694POPC   C1A24651  42.502   6.588   8.591
 1694POPC   D2A24652  42.259   6.647   8.231
 1694POPC   C3A24653  42.550   6.679   7.894
 1694POPC   C4A24654  42.631   6.451   7.529
 1694POPC   C1B24655  42.121   6.954   8.700
 1694POPC   C2B24656  41.835   6.947   8.339
 1694POPC   C3B24657  42.063   7.040   7.967
 1694POPC   C4B24658  42.123   6.753   7.642
 1695POPC   NC324659  18.883  41.009   9.584
 1695POPC   PO424660  19.377  40.436   9.586
 1695POPC   GL124661  19.127  40.658   9.248
 1695POPC   GL224662  18.759  40.672   9.234
 1695POPC   C1A24663  19.016  40.642   8.799
 1695POPC   D2A24664  19.150  40.863   8.439
 1695POPC   C3A24665  19.114  40.664   8.058
 1695POPC   C4A24666  19.148  40.858   7.676
 1695POPC   C1B24667  18.672  40.998   8.921
 1695POPC   C2B24668  18.643  40.900   8.488
 1695POPC   C3B24669  18.774  41.040   8.094
 1695POPC   C4B24670  18.631  40.936   7.706
 1696POPC   NC324671   0.731  41.916   9.890
 1696POPC   PO424672   1.165  41.427   9.656
 1696POPC   GL124673   1.099  41.516   9.214
 1696POPC   GL224674   1.032  41.850   9.141
 1696POPC   C1A24675   1.435  41.548   8.894
 1696POPC   D2A24676   1.465  41.663   8.440
 1696POPC   C3A24677   1.455  41.416   8.065
 1696POPC   C4A24678   1.249  41.453   7.674
 1696POPC   C1B24679   1.163  41.952   8.760
 1696POPC   C2B24680   0.998  41.958   8.370
 1696POPC   C3B24681   1.143  41.847   7.970
 1696POPC   C4B24682   1.044  41.914   7.525
 1697POPC   NC324683  42.311  14.292   9.474
 1697POPC   PO424684  42.367  14.926   9.243
 1697POPC   GL124685  42.278  14.539   9.005
 1697POPC   GL224686  42.520  14.224   8.979
 1697POPC   C1A24687  42.374  14.481   8.579
 1697POPC   D2A24688  42.711  14.503   8.326
 1697POPC   C3A24689  42.493  14.429   7.965
 1697POPC   C4A24690  42.301  14.388   7.573
 1697POPC   C1B24691  42.322  13.967   8.601
 1697POPC   C2B24692  42.144  14.046   8.208
 1697POPC   C3B24693  42.134  13.951   7.784
 1697POPC   C4B24694  41.916  14.086   7.403
 1698POPC   NC324695   4.774  22.258   9.729
 1698POPC   PO424696   4.190  21.991   9.882
 1698POPC   GL124697   4.266  21.991   9.408
 1698POPC   GL224698   3.973  22.156   9.263
 1698POPC   C1A24699   4.347  22.089   8.943
 1698POPC   D2A24700   4.603  22.244   8.624
 1698POPC   C3A24701   4.445  22.263   8.209
 1698POPC   C4A24702   4.534  22.248   7.774
 1698POPC   C1B24703   3.901  22.307   8.843
 1698POPC   C2B24704   4.016  22.111   8.464
 1698POPC   C3B24705   3.875  22.221   8.052
 1698POPC   C4B24706   4.025  22.158   7.647
 1699POPC   NC324707  31.199  42.860   9.422
 1699POPC   PO424708  31.889  42.851   9.537
 1699POPC   GL124709  31.665  42.842   9.176
 1699POPC   GL224710  31.550  43.187   9.167
 1699POPC   C1A24711  31.571  42.875   8.747
 1699POPC   D2A24712  31.611  43.169   8.390
 1699POPC   C3A24713  31.416  42.983   7.988
 1699POPC   C4A24714  31.622  42.848   7.571
 1699POPC   C1B24715  31.242  43.288   8.802
 1699POPC   C2B24716  31.126  43.278   8.339
 1699POPC   C3B24717  31.288  43.479   7.942
 1699POPC   C4B24718  31.309  43.234   7.550
 1700POPC   NC324719  43.694   9.105   9.595
 1700POPC   PO424720  44.355   8.979   9.559
 1700POPC   GL124721  44.048   8.939   9.245
 1700POPC   GL224722  43.858   9.249   9.123
 1700POPC   C1A24723  43.984   8.873   8.814
 1700POPC   D2A24724  43.884   9.154   8.476
 1700POPC   C3A24725  43.778   8.870   8.160
 1700POPC   C4A24726  43.899   8.752   7.766
 1700POPC   C1B24727  43.477   9.266   8.806
 1700POPC   C2B24728  43.447   9.413   8.349
 1700POPC   C3B24729  43.711   9.318   7.941
 1700POPC   C4B24730  43.798   9.175   7.500
 1701POPC   NC324731  32.762  18.863   9.244
 1701POPC   PO424732  32.654  19.287   9.764
 1701POPC   GL124733  33.018  19.272   9.327
 1701POPC   GL224734  33.315  19.068   9.229
 1701POPC   C1A24735  32.993  19.260   8.807
 1701POPC   D2A24736  32.775  19.002   8.435
 1701POPC   C3A24737  32.942  19.080   7.995
 1701POPC   C4A24738  33.277  19.287   7.748
 1701POPC   C1B24739  33.392  18.826   8.841
 1701POPC   C2B24740  33.417  18.563   8.461
 1701POPC   C3B24741  33.236  18.649   8.064
 1701POPC   C4B24742  33.301  18.783   7.640
 1702POPC   NC324743   8.396   6.257   9.467
 1702POPC   PO424744   7.988   5.629   9.486
 1702POPC   GL124745   8.084   5.963   9.201
 1702POPC   GL224746   8.434   5.827   9.168
 1702POPC   C1A24747   8.281   6.189   8.815
 1702POPC   D2A24748   8.330   5.984   8.416
 1702POPC   C3A24749   8.465   6.098   8.041
 1702POPC   C4A24750   8.271   5.995   7.672
 1702POPC   C1B24751   8.206   5.671   8.806
 1702POPC   C2B24752   8.402   5.462   8.463
 1702POPC   C3B24753   8.441   5.580   8.030
 1702POPC   C4B24754   8.753   5.392   7.812
 1703POPC   NC324755  41.559  34.417   9.617
 1703POPC   PO424756  41.380  34.996   9.410
 1703POPC   GL124757  41.544  34.604   9.137
 1703POPC   GL224758  41.819  34.327   9.136
 1703POPC   C1A24759  41.724  34.659   8.723
 1703POPC   D2A24760  41.452  34.795   8.402
 1703POPC   C3A24761  41.585  34.870   7.991
 1703POPC   C4A24762  41.240  34.882   7.755
 1703POPC   C1B24763  41.771  34.154   8.728
 1703POPC   C2B24764  41.512  34.280   8.413
 1703POPC   C3B24765  41.626  34.368   8.043
 1703POPC   C4B24766  41.676  34.439   7.631
 1704POPC   NC324767   2.213  13.062   9.449
 1704POPC   PO424768   1.606  12.815   9.527
 1704POPC   GL124769   1.849  12.903   9.120
 1704POPC   GL224770   2.150  12.710   9.065
 1704POPC   C1A24771   2.000  13.074   8.713
 1704POPC   D2A24772   1.772  12.976   8.293
 1704POPC   C3A24773   1.759  13.183   7.884
 1704POPC   C4A24774   1.989  13.045   7.499
 1704POPC   C1B24775   2.391  12.697   8.687
 1704POPC   C2B24776   2.392  13.024   8.382
 1704POPC   C3B24777   2.239  13.034   7.986
 1704POPC   C4B24778   2.525  12.987   7.668
 1705POPC   NC324779  31.228  34.206   9.417
 1705POPC   PO424780  31.559  33.567   9.443
 1705POPC   GL124781  31.462  33.846   9.119
 1705POPC   GL224782  31.203  33.582   9.042
 1705POPC   C1A24783  31.747  33.988   8.777
 1705POPC   D2A24784  31.899  33.946   8.342
 1705POPC   C3A24785  31.521  34.056   8.031
 1705POPC   C4A24786  31.146  34.318   7.890
 1705POPC   C1B24787  31.532  33.508   8.749
 1705POPC   C2B24788  31.474  33.658   8.352
 1705POPC   C3B24789  31.566  33.540   7.938
 1705POPC   C4B24790  31.249  33.293   7.728
 1706POPC   NC324791  13.445  30.113   9.407
 1706POPC   PO424792  12.771  29.842   9.520
 1706POPC   GL124793  12.828  29.986   9.127
 1706POPC   GL224794  12.962  30.305   9.103
 1706POPC   C1A24795  12.875  29.884   8.715
 1706POPC   D2A24796  12.854  29.745   8.351
 1706POPC   C3A24797  12.839  29.976   8.003
 1706POPC   C4A24798  12.874  29.809   7.604
 1706POPC   C1B24799  12.616  30.319   8.786
 1706POPC   C2B24800  12.502  30.137   8.409
 1706POPC   C3B24801  12.505  30.352   8.037
 1706POPC   C4B24802  12.425  30.100   7.696
 1707POPC   NC324803  19.609  21.239   9.459
 1707POPC   PO424804  19.311  21.715   9.122
 1707POPC   GL124805  19.704  21.486   9.024
 1707POPC   GL224806  19.638  21.105   8.972
 1707POPC   C1A24807  19.950  21.523   8.664
 1707POPC   D2A24808  19.694  21.575   8.268
 1707POPC   C3A24809  19.876  21.728   7.881
 1707POPC   C4A24810  20.167  21.503   7.617
 1707POPC   C1B24811  20.006  21.029   8.727
 1707POPC   C2B24812  20.087  21.208   8.287
 1707POPC   C3B24813  19.832  21.207   7.920
 1707POPC   C4B24814  19.373  21.213   7.836
 1708POPC   NC324815  39.779  37.458   9.503
 1708POPC   PO424816  39.620  38.092   9.493
 1708POPC   GL124817  39.757  37.828   9.101
 1708POPC   GL224818  40.041  37.623   9.046
 1708POPC   C1A24819  39.873  37.791   8.616
 1708POPC   D2A24820  40.146  37.807   8.265
 1708POPC   C3A24821  39.928  37.620   8.028
 1708POPC   C4A24822  39.902  37.557   7.646
 1708POPC   C1B24823  40.365  37.673   8.695
 1708POPC   C2B24824  40.579  37.499   8.302
 1708POPC   C3B24825  40.419  37.548   7.874
 1708POPC   C4B24826  40.353  37.584   7.415
 1709POPC   NC324827  38.921  12.191   9.593
 1709POPC   PO424828  39.402  11.942   9.417
 1709POPC   GL124829  39.296  12.293   9.217
 1709POPC   GL224830  39.652  12.385   9.157
 1709POPC   C1A24831  39.053  12.207   8.838
 1709POPC   D2A24832  39.205  12.067   8.432
 1709POPC   C3A24833  38.928  12.150   8.095
 1709POPC   C4A24834  39.033  12.107   7.696
 1709POPC   C1B24835  39.536  12.338   8.736
 1709POPC   C2B24836  39.542  12.448   8.295
 1709POPC   C3B24837  39.491  12.173   7.960
 1709POPC   C4B24838  39.689  12.293   7.594
 1710POPC   NC324839  10.520   8.196  10.097
 1710POPC   PO424840  10.609   7.756   9.584
 1710POPC   GL124841  10.577   8.068   9.251
 1710POPC   GL224842  10.824   8.369   9.328
 1710POPC   C1A24843  10.448   7.979   8.811
 1710POPC   D2A24844  10.675   8.025   8.416
 1710POPC   C3A24845  10.394   8.081   8.065
 1710POPC   C4A24846  10.480   8.011   7.624
 1710POPC   C1B24847  10.853   8.302   8.881
 1710POPC   C2B24848  10.849   8.545   8.541
 1710POPC   C3B24849  10.748   8.488   8.131
 1710POPC   C4B24850  10.893   8.665   7.756
 1711POPC   NC324851  32.448  20.146   9.559
 1711POPC   PO424852  32.067  20.645   9.407
 1711POPC   GL124853  32.369  20.815   9.173
 1711POPC   GL224854  32.658  20.611   9.276
 1711POPC   C1A24855  32.261  20.782   8.762
 1711POPC   D2A24856  32.136  20.899   8.400
 1711POPC   C3A24857  32.057  20.633   8.081
 1711POPC   C4A24858  32.052  20.860   7.712
 1711POPC   C1B24859  32.463  20.360   8.940
 1711POPC   C2B24860  32.353  20.358   8.495
 1711POPC   C3B24861  32.577  20.339   8.133
 1711POPC   C4B24862  32.424  20.467   7.756
 1712POPC   NC324863  36.785  17.345   9.454
 1712POPC   PO424864  37.387  17.232   9.235
 1712POPC   GL124865  37.082  17.420   8.992
 1712POPC   GL224866  36.990  17.714   9.129
 1712POPC   C1A24867  36.738  17.355   8.702
 1712POPC   D2A24868  36.765  17.279   8.249
 1712POPC   C3A24869  36.839  17.430   7.824
 1712POPC   C4A24870  37.236  17.406   7.576
 1712POPC   C1B24871  36.739  17.859   8.819
 1712POPC   C2B24872  36.635  17.770   8.423
 1712POPC   C3B24873  36.811  17.865   8.076
 1712POPC   C4B24874  36.623  17.858   7.683
 1713POPC   NC324875   1.791  35.791   9.468
 1713POPC   PO424876   2.196  35.177   9.613
 1713POPC   GL124877   2.103  35.183   9.207
 1713POPC   GL224878   2.067  35.545   9.088
 1713POPC   C1A24879   1.826  35.128   8.861
 1713POPC   D2A24880   1.907  35.279   8.462
 1713POPC   C3A24881   1.810  35.013   8.136
 1713POPC   C4A24882   1.979  34.980   7.736
 1713POPC   C1B24883   1.693  35.692   8.818
 1713POPC   C2B24884   1.510  35.600   8.426
 1713POPC   C3B24885   1.741  35.619   8.015
 1713POPC   C4B24886   1.841  35.756   7.593
 1714POPC   NC324887  30.937  31.820   9.657
 1714POPC   PO424888  30.719  31.143   9.463
 1714POPC   GL124889  30.765  31.563   9.254
 1714POPC   GL224890  31.063  31.468   9.222
 1714POPC   C1A24891  30.955  31.777   8.847
 1714POPC   D2A24892  31.109  31.844   8.388
 1714POPC   C3A24893  30.813  31.620   8.126
 1714POPC   C4A24894  30.656  31.650   7.724
 1714POPC   C1B24895  30.707  31.330   8.823
 1714POPC   C2B24896  30.601  31.196   8.353
 1714POPC   C3B24897  30.764  31.141   7.922
 1714POPC   C4B24898  30.784  31.226   7.476
 1715POPC   NC324899  15.095   8.574   9.244
 1715POPC   PO424900  14.899   9.210   9.381
 1715POPC   GL124901  15.199   9.085   9.080
 1715POPC   GL224902  14.937   8.932   8.914
 1715POPC   C1A24903  15.446   8.857   8.758
 1715POPC   D2A24904  15.526   8.647   8.375
 1715POPC   C3A24905  15.583   8.960   8.067
 1715POPC   C4A24906  15.344   9.108   7.716
 1715POPC   C1B24907  15.003   8.680   8.544
 1715POPC   C2B24908  15.073   8.786   8.099
 1715POPC   C3B24909  14.852   8.937   7.741
 1715POPC   C4B24910  14.787   8.908   7.323
 1716POPC   NC324911  44.200   3.940   9.570
 1716POPC   PO424912  43.731   3.448   9.596
 1716POPC   GL124913  43.863   3.350   9.194
 1716POPC   GL224914  44.238   3.429   9.194
 1716POPC   C1A24915  43.932   3.505   8.789
 1716POPC   D2A24916  43.867   3.841   8.581
 1716POPC   C3A24917  44.030   3.781   8.171
 1716POPC   C4A24918  43.829   3.493   7.877
 1716POPC   C1B24919  44.271   3.156   8.801
 1716POPC   C2B24920  44.080   3.246   8.358
 1716POPC   C3B24921  44.048   3.042   7.928
 1716POPC   C4B24922  44.144   3.292   7.527
 1717POPC   NC324923  41.827  35.022   9.289
 1717POPC   PO424924  42.493  35.239   9.421
 1717POPC   GL124925  42.545  35.561   9.081
 1717POPC   GL224926  42.173  35.688   9.007
 1717POPC   C1A24927  42.536  35.590   8.644
 1717POPC   D2A24928  42.175  35.605   8.408
 1717POPC   C3A24929  42.289  35.434   8.022
 1717POPC   C4A24930  42.047  35.581   7.708
 1717POPC   C1B24931  42.191  35.270   8.813
 1717POPC   C2B24932  42.374  35.124   8.422
 1717POPC   C3B24933  42.156  34.883   8.115
 1717POPC   C4B24934  42.073  34.997   7.725
 1718POPC   NC324935   7.791  36.555   9.453
 1718POPC   PO424936   7.203  36.960   9.470
 1718POPC   GL124937   7.276  36.922   9.067
 1718POPC   GL224938   7.598  37.010   9.012
 1718POPC   C1A24939   7.234  37.089   8.643
 1718POPC   D2A24940   7.240  37.218   8.226
 1718POPC   C3A24941   7.014  36.930   7.952
 1718POPC   C4A24942   7.162  36.726   7.552
 1718POPC   C1B24943   7.775  36.744   8.708
 1718POPC   C2B24944   7.875  36.623   8.291
 1718POPC   C3B24945   7.614  36.847   7.972
 1718POPC   C4B24946   7.725  37.034   7.574
 1719POPC   NC324947  21.016  42.092   9.622
 1719POPC   PO424948  21.478  42.590   9.409
 1719POPC   GL124949  21.412  42.393   9.056
 1719POPC   GL224950  21.097  42.248   9.101
 1719POPC   C1A24951  21.283  42.546   8.685
 1719POPC   D2A24952  21.257  42.396   8.291
 1719POPC   C3A24953  21.547  42.500   7.922
 1719POPC   C4A24954  21.263  42.498   7.588
 1719POPC   C1B24955  21.127  42.047   8.674
 1719POPC   C2B24956  21.003  41.925   8.233
 1719POPC   C3B24957  21.306  42.058   7.928
 1719POPC   C4B24958  21.611  42.033   7.655
 1720POPC   NC324959  13.486  37.982   9.523
 1720POPC   PO424960  13.895  37.414   9.505
 1720POPC   GL124961  13.719  37.663   9.186
 1720POPC   GL224962  13.954  37.862   9.130
 1720POPC   C1A24963  13.656  37.720   8.727
 1720POPC   D2A24964  13.781  37.440   8.372
 1720POPC   C3A24965  13.555  37.462   7.966
 1720POPC   C4A24966  13.332  37.783   7.745
 1720POPC   C1B24967  14.119  37.539   8.832
 1720POPC   C2B24968  14.238  37.681   8.422
 1720POPC   C3B24969  14.000  37.796   8.019
 1720POPC   C4B24970  13.761  38.075   7.701
 1721POPC   NC324971  12.879  19.612   9.908
 1721POPC   PO424972  13.004  20.117   9.358
 1721POPC   GL124973  12.761  19.981   9.057
 1721POPC   GL224974  12.715  20.285   8.888
 1721POPC   C1A24975  12.721  19.746   8.686
 1721POPC   D2A24976  12.557  19.578   8.306
 1721POPC   C3A24977  12.874  19.425   7.985
 1721POPC   C4A24978  13.221  19.689   7.863
 1721POPC   C1B24979  13.127  20.118   8.707
 1721POPC   C2B24980  13.065  19.871   8.326
 1721POPC   C3B24981  12.774  19.951   8.002
 1721POPC   C4B24982  12.797  20.248   7.685
 1722POPC   NC324983  33.140  17.071   9.491
 1722POPC   PO424984  32.675  17.523   9.651
 1722POPC   GL124985  32.906  17.451   9.239
 1722POPC   GL224986  32.715  17.610   9.047
 1722POPC   C1A24987  33.162  17.298   8.839
 1722POPC   D2A24988  33.385  17.224   8.405
 1722POPC   C3A24989  33.345  17.450   7.971
 1722POPC   C4A24990  33.026  17.445   7.609
 1722POPC   C1B24991  32.768  17.607   8.681
 1722POPC   C2B24992  32.969  17.570   8.323
 1722POPC   C3B24993  32.727  17.567   7.995
 1722POPC   C4B24994  32.591  17.965   7.843
 1723POPC   NC324995  15.516  22.443   9.357
 1723POPC   PO424996  16.022  22.122   9.699
 1723POPC   GL124997  15.905  22.030   9.240
 1723POPC   GL224998  15.625  22.095   9.032
 1723POPC   C1A24999  16.057  22.123   8.774
 1723POPC   D2A25000  16.196  21.894   8.418
 1723POPC   C3A25001  16.034  21.919   7.988
 1723POPC   C4A25002  16.286  22.229   7.737
 1723POPC   C1B25003  15.684  22.458   8.728
 1723POPC   C2B25004  15.726  22.256   8.339
 1723POPC   C3B25005  15.807  22.357   7.937
 1723POPC   C4B25006  15.681  22.118   7.585
 1724POPC   NC325007  21.582   2.353   9.526
 1724POPC   PO425008  21.458   1.659   9.629
 1724POPC   GL125009  21.501   1.881   9.226
 1724POPC   GL225010  21.299   2.201   9.137
 1724POPC   C1A25011  21.339   1.795   8.807
 1724POPC   D2A25012  21.636   1.803   8.509
 1724POPC   C3A25013  21.477   1.734   8.117
 1724POPC   C4A25014  21.525   1.896   7.717
 1724POPC   C1B25015  21.560   2.240   8.803
 1724POPC   C2B25016  21.727   2.281   8.393
 1724POPC   C3B25017  21.552   2.336   8.016
 1724POPC   C4B25018  21.646   2.374   7.592
 1725POPC   NC325019  40.608  28.538   9.695
 1725POPC   PO425020  39.970  28.539   9.792
 1725POPC   GL125021  39.879  28.391   9.335
 1725POPC   GL225022  39.887  28.659   9.096
 1725POPC   C1A25023  39.836  28.202   8.920
 1725POPC   D2A25024  39.613  28.280   8.545
 1725POPC   C3A25025  39.886  28.365   8.199
 1725POPC   C4A25026  39.714  28.335   7.789
 1725POPC   C1B25027  39.956  28.667   8.663
 1725POPC   C2B25028  40.294  28.655   8.381
 1725POPC   C3B25029  40.335  28.768   7.956
 1725POPC   C4B25030  40.170  28.517   7.641
 1726POPC   NC325031  43.527  15.961   9.554
 1726POPC   PO425032  43.266  15.307   9.576
 1726POPC   GL125033  43.256  15.657   9.165
 1726POPC   GL225034  43.287  16.050   9.108
 1726POPC   C1A25035  42.963  15.792   8.819
 1726POPC   D2A25036  43.007  15.960   8.451
 1726POPC   C3A25037  43.011  15.714   8.109
 1726POPC   C4A25038  43.042  15.998   7.764
 1726POPC   C1B25039  43.471  15.854   8.705
 1726POPC   C2B25040  43.483  15.909   8.241
 1726POPC   C3B25041  43.529  16.188   7.889
 1726POPC   C4B25042  43.441  16.065   7.461
 1727POPC   NC325043   8.792  38.619   9.662
 1727POPC   PO425044   9.307  38.154   9.644
 1727POPC   GL125045   9.196  38.333   9.233
 1727POPC   GL225046   8.843  38.443   9.193
 1727POPC   C1A25047   9.082  38.235   8.791
 1727POPC   D2A25048   9.341  38.294   8.439
 1727POPC   C3A25049   9.157  38.484   8.090
 1727POPC   C4A25050   9.044  38.366   7.689
 1727POPC   C1B25051   8.630  38.478   8.781
 1727POPC   C2B25052   8.770  38.414   8.396
 1727POPC   C3B25053   8.651  38.582   8.001
 1727POPC   C4B25054   8.544  38.366   7.616
 1728POPC   NC325055  42.543  24.066   9.447
 1728POPC   PO425056  42.329  23.430   9.536
 1728POPC   GL125057  42.160  23.529   9.139
 1728POPC   GL225058  42.294  23.860   9.048
 1728POPC   C1A25059  42.110  23.510   8.682
 1728POPC   D2A25060  42.339  23.670   8.304
 1728POPC   C3A25061  42.214  23.444   7.934
 1728POPC   C4A25062  41.811  23.598   7.793
 1728POPC   C1B25063  42.184  24.041   8.645
 1728POPC   C2B25064  42.030  24.095   8.210
 1728POPC   C3B25065  42.340  24.095   7.848
 1728POPC   C4B25066  42.585  24.048   7.440
 1729POPC   NC325067  26.025   1.698   9.553
 1729POPC   PO425068  26.547   2.031   9.643
 1729POPC   GL125069  26.280   1.909   9.159
 1729POPC   GL225070  25.883   1.907   9.123
 1729POPC   C1A25071  26.145   1.671   8.760
 1729POPC   D2A25072  25.968   1.604   8.339
 1729POPC   C3A25073  25.879   1.883   7.981
 1729POPC   C4A25074  25.990   1.771   7.543
 1729POPC   C1B25075  25.970   2.155   8.757
 1729POPC   C2B25076  25.916   2.291   8.340
 1729POPC   C3B25077  26.151   2.343   7.964
 1729POPC   C4B25078  26.373   2.118   7.671
 1730POPC   NC325079  41.906  43.349   9.417
 1730POPC   PO425080  42.564  43.143   9.453
 1730POPC   GL125081  42.301  43.127   9.082
 1730POPC   GL225082  41.942  43.023   9.033
 1730POPC   C1A25083  42.362  43.311   8.666
 1730POPC   D2A25084  42.597  43.400   8.252
 1730POPC   C3A25085  42.478  43.218   7.855
 1730POPC   C4A25086  42.467  42.766   7.664
 1730POPC   C1B25087  42.104  42.857   8.668
 1730POPC   C2B25088  42.222  43.014   8.278
 1730POPC   C3B25089  41.995  43.113   7.943
 1730POPC   C4B25090  41.871  42.899   7.630
 1731POPC   NC325091  33.552  34.211   9.503
 1731POPC   PO425092  33.680  34.860   9.578
 1731POPC   GL125093  33.513  34.658   9.181
 1731POPC   GL225094  33.789  34.437   9.112
 1731POPC   C1A25095  33.652  34.670   8.703
 1731POPC   D2A25096  33.976  34.885   8.434
 1731POPC   C3A25097  34.012  34.698   8.026
 1731POPC   C4A25098  33.609  34.544   7.881
 1731POPC   C1B25099  33.976  34.220   8.755
 1731POPC   C2B25100  33.844  34.313   8.333
 1731POPC   C3B25101  33.918  34.142   7.926
 1731POPC   C4B25102  33.918  34.180   7.491
 1732POPC   NC325103   7.967  21.641   9.562
 1732POPC   PO425104   8.038  21.075   9.441
 1732POPC   GL125105   8.299  21.253   9.137
 1732POPC   GL225106   8.226  21.622   9.136
 1732POPC   C1A25107   8.513  21.036   8.806
 1732POPC   D2A25108   8.374  20.987   8.393
 1732POPC   C3A25109   8.278  21.373   8.230
 1732POPC   C4A25110   8.274  21.347   7.803
 1732POPC   C1B25111   8.031  21.516   8.762
 1732POPC   C2B25112   7.838  21.609   8.385
 1732POPC   C3B25113   7.796  21.378   8.000
 1732POPC   C4B25114   7.901  21.623   7.640
 1733POPC   NC325115  35.486  40.703   9.493
 1733POPC   PO425116  35.588  41.363   9.386
 1733POPC   GL125117  35.310  41.106   9.069
 1733POPC   GL225118  35.265  40.730   9.019
 1733POPC   C1A25119  35.096  41.053   8.665
 1733POPC   D2A25120  35.445  41.181   8.384
 1733POPC   C3A25121  35.493  40.970   7.990
 1733POPC   C4A25122  35.161  40.990   7.684
 1733POPC   C1B25123  35.491  40.407   8.842
 1733POPC   C2B25124  35.617  40.517   8.430
 1733POPC   C3B25125  35.416  40.406   8.045
 1733POPC   C4B25126  35.493  40.585   7.656
 1734POPC   NC325127   6.555  28.130   9.511
 1734POPC   PO425128   6.929  28.729   9.483
 1734POPC   GL125129   6.728  28.511   9.130
 1734POPC   GL225130   6.423  28.685   8.976
 1734POPC   C1A25131   6.697  28.310   8.702
 1734POPC   D2A25132   6.563  28.244   8.292
 1734POPC   C3A25133   6.847  28.268   7.966
 1734POPC   C4A25134   6.483  28.457   7.776
 1734POPC   C1B25135   6.790  28.813   8.718
 1734POPC   C2B25136   6.906  28.682   8.306
 1734POPC   C3B25137   7.013  28.852   7.906
 1734POPC   C4B25138   6.857  29.027   7.510
 1735POPC   NC325139   9.606  20.543   9.425
 1735POPC   PO425140   9.911  21.154   9.398
 1735POPC   GL125141   9.933  20.816   9.114
 1735POPC   GL225142  10.108  20.522   9.254
 1735POPC   C1A25143   9.677  20.714   8.767
 1735POPC   D2A25144   9.682  20.496   8.383
 1735POPC   C3A25145   9.788  20.731   8.020
 1735POPC   C4A25146   9.487  20.795   7.715
 1735POPC   C1B25147  10.065  20.354   8.836
 1735POPC   C2B25148  10.131  20.213   8.408
 1735POPC   C3B25149   9.943  20.237   8.018
 1735POPC   C4B25150   9.992  20.429   7.630
 1736POPC   NC325151  11.838  30.728   9.781
 1736POPC   PO425152  12.107  30.346   9.347
 1736POPC   GL125153  12.059  30.773   9.225
 1736POPC   GL225154  11.730  30.921   9.312
 1736POPC   C1A25155  12.237  30.847   8.824
 1736POPC   D2A25156  12.252  30.578   8.461
 1736POPC   C3A25157  12.102  30.687   8.062
 1736POPC   C4A25158  12.095  30.538   7.646
 1736POPC   C1B25159  11.754  30.994   8.857
 1736POPC   C2B25160  11.750  30.816   8.428
 1736POPC   C3B25161  11.645  30.457   8.127
 1736POPC   C4B25162  11.684  30.234   7.699
 1737POPC   NC325163  44.270  16.005   9.495
 1737POPC   PO425164  43.748  15.684   9.280
 1737POPC   GL125165  43.950  16.009   9.098
 1737POPC   GL225166  44.261  15.851   9.024
 1737POPC   C1A25167  44.074  16.256   8.750
 1737POPC   D2A25168  43.823  16.261   8.372
 1737POPC   C3A25169  44.022  16.099   8.014
 1737POPC   C4A25170  43.875  15.882   7.635
 1737POPC   C1B25171  44.099  15.730   8.651
 1737POPC   C2B25172  44.325  15.667   8.286
 1737POPC   C3B25173  44.171  15.560   7.914
 1737POPC   C4B25174  43.717  15.501   7.912
 1738POPC   NC325175  40.499  24.405   9.385
 1738POPC   PO425176  41.180  24.155   9.456
 1738POPC   GL125177  40.934  24.318   9.078
 1738POPC   GL225178  41.115  24.660   8.934
 1738POPC   C1A25179  40.658  24.154   8.701
 1738POPC   D2A25180  40.566  24.041   8.248
 1738POPC   C3A25181  40.676  24.380   7.958
 1738POPC   C4A25182  40.936  24.761   8.042
 1738POPC   C1B25183  40.749  24.663   8.712
 1738POPC   C2B25184  40.474  24.603   8.409
 1738POPC   C3B25185  40.424  24.858   8.083
 1738POPC   C4B25186  40.382  24.714   7.699
 1739POPC   NC325187  18.215  37.614   9.616
 1739POPC   PO425188  18.010  38.231   9.748
 1739POPC   GL125189  18.170  38.077   9.297
 1739POPC   GL225190  18.090  37.749   9.135
 1739POPC   C1A25191  18.321  38.063   8.815
 1739POPC   D2A25192  18.075  37.920   8.406
 1739POPC   C3A25193  18.299  37.889   8.003
 1739POPC   C4A25194  18.399  37.869   7.555
 1739POPC   C1B25195  18.187  37.545   8.738
 1739POPC   C2B25196  18.073  37.332   8.338
 1739POPC   C3B25197  18.247  37.357   7.931
 1739POPC   C4B25198  18.654  37.547   7.851
 1740POPC   NC325199   8.191   7.065   9.510
 1740POPC   PO425200   7.937   6.424   9.463
 1740POPC   GL125201   7.967   6.744   9.148
 1740POPC   GL225202   8.311   6.896   9.054
 1740POPC   C1A25203   7.988   6.633   8.718
 1740POPC   D2A25204   8.317   6.544   8.418
 1740POPC   C3A25205   8.144   6.486   8.028
 1740POPC   C4A25206   8.365   6.515   7.682
 1740POPC   C1B25207   8.101   7.137   8.728
 1740POPC   C2B25208   8.038   6.991   8.290
 1740POPC   C3B25209   8.320   6.951   7.937
 1740POPC   C4B25210   8.326   7.014   7.473
 1741POPC   NC325211   9.421  22.294   9.439
 1741POPC   PO425212  10.086  22.340   9.499
 1741POPC   GL125213   9.920  22.291   9.105
 1741POPC   GL225214   9.710  22.071   9.078
 1741POPC   C1A25215   9.759  22.405   8.705
 1741POPC   D2A25216   9.748  22.140   8.351
 1741POPC   C3A25217   9.543  22.289   8.015
 1741POPC   C4A25218   9.715  22.198   7.637
 1741POPC   C1B25219   9.635  21.812   8.729
 1741POPC   C2B25220   9.460  21.709   8.336
 1741POPC   C3B25221   9.600  21.761   7.896
 1741POPC   C4B25222   9.565  21.759   7.405
 1742POPC   NC325223  39.547  39.873   9.802
 1742POPC   PO425224  38.954  39.558   9.838
 1742POPC   GL125225  39.159  39.724   9.399
 1742POPC   GL225226  39.512  39.584   9.392
 1742POPC   C1A25227  39.161  40.065   8.984
 1742POPC   D2A25228  39.244  40.247   8.494
 1742POPC   C3A25229  39.085  40.230   8.080
 1742POPC   C4A25230  39.169  40.075   7.717
 1742POPC   C1B25231  39.440  39.637   8.962
 1742POPC   C2B25232  39.389  39.759   8.546
 1742POPC   C3B25233  39.351  39.783   8.104
 1742POPC   C4B25234  39.280  39.570   7.712
 1743POPC   NC325235  25.851  30.540   9.433
 1743POPC   PO425236  26.506  30.670   9.370
 1743POPC   GL125237  26.248  30.741   9.023
 1743POPC   GL225238  25.929  30.646   8.969
 1743POPC   C1A25239  26.179  30.708   8.563
 1743POPC   D2A25240  25.925  30.748   8.279
 1743POPC   C3A25241  26.135  30.927   7.922
 1743POPC   C4A25242  26.043  30.769   7.500
 1743POPC   C1B25243  25.743  30.306   8.746
 1743POPC   C2B25244  25.532  30.341   8.371
 1743POPC   C3B25245  25.641  30.146   8.012
 1743POPC   C4B25246  25.718  30.337   7.621
 1744POPC   NC325247  14.227  30.264   9.285
 1744POPC   PO425248  14.623  29.786   9.550
 1744POPC   GL125249  14.530  29.685   9.155
 1744POPC   GL225250  14.571  29.998   9.015
 1744POPC   C1A25251  14.525  29.544   8.724
 1744POPC   D2A25252  14.280  29.577   8.336
 1744POPC   C3A25253  14.476  29.510   7.992
 1744POPC   C4A25254  14.678  29.865   7.818
 1744POPC   C1B25255  14.264  29.985   8.659
 1744POPC   C2B25256  14.229  30.079   8.197
 1744POPC   C3B25257  14.174  29.888   7.764
 1744POPC   C4B25258  14.104  29.779   7.329
 1745POPC   NC325259   8.755  30.297   9.375
 1745POPC   PO425260   9.418  30.456   9.546
 1745POPC   GL125261   9.165  30.597   9.213
 1745POPC   GL225262   8.923  30.867   9.306
 1745POPC   C1A25263   9.113  30.418   8.823
 1745POPC   D2A25264   8.939  30.486   8.442
 1745POPC   C3A25265   9.238  30.437   8.140
 1745POPC   C4A25266   9.129  30.602   7.767
 1745POPC   C1B25267   8.813  30.851   8.872
 1745POPC   C2B25268   8.752  30.976   8.468
 1745POPC   C3B25269   8.771  30.839   8.078
 1745POPC   C4B25270   8.645  31.019   7.717
 1746POPC   NC325271   0.923  20.544   9.458
 1746POPC   PO425272   0.355  20.823   9.419
 1746POPC   GL125273   0.504  20.519   9.143
 1746POPC   GL225274   0.774  20.615   8.957
 1746POPC   C1A25275   0.341  20.312   8.767
 1746POPC   D2A25276   0.486  20.157   8.382
 1746POPC   C3A25277   0.298  20.337   8.041
 1746POPC   C4A25278   0.536  20.588   7.762
 1746POPC   C1B25279   0.387  20.815   8.747
 1746POPC   C2B25280   0.108  20.765   8.389
 1746POPC   C3B25281   0.105  20.835   7.932
 1746POPC   C4B25282   0.166  21.168   7.637
 1747POPC   NC325283  11.454  14.581   9.499
 1747POPC   PO425284  10.990  14.069   9.472
 1747POPC   GL125285  11.243  14.250   9.120
 1747POPC   GL225286  11.171  14.590   9.072
 1747POPC   C1A25287  11.212  14.320   8.658
 1747POPC   D2A25288  11.147  14.466   8.273
 1747POPC   C3A25289  11.381  14.208   8.035
 1747POPC   C4A25290  11.318  14.003   7.688
 1747POPC   C1B25291  11.435  14.790   8.722
 1747POPC   C2B25292  11.404  14.946   8.283
 1747POPC   C3B25293  11.430  14.706   7.897
 1747POPC   C4B25294  11.054  14.465   7.751
 1748POPC   NC325295  23.928  36.316   9.450
 1748POPC   PO425296  24.117  36.998   9.590
 1748POPC   GL125297  23.796  37.026   9.193
 1748POPC   GL225298  23.500  37.284   9.106
 1748POPC   C1A25299  23.788  37.083   8.738
 1748POPC   D2A25300  23.663  37.088   8.313
 1748POPC   C3A25301  23.752  36.776   8.003
 1748POPC   C4A25302  23.702  36.843   7.565
 1748POPC   C1B25303  23.267  37.196   8.666
 1748POPC   C2B25304  23.158  37.017   8.220
 1748POPC   C3B25305  23.261  36.782   7.821
 1748POPC   C4B25306  23.203  36.619   7.383
 1749POPC   NC325307  40.334  15.022   9.603
 1749POPC   PO425308  39.865  15.494   9.523
 1749POPC   GL125309  39.895  15.207   9.204
 1749POPC   GL225310  40.255  15.290   9.173
 1749POPC   C1A25311  39.971  15.140   8.752
 1749POPC   D2A25312  40.059  15.406   8.369
 1749POPC   C3A25313  39.806  15.373   7.952
 1749POPC   C4A25314  39.743  14.953   7.712
 1749POPC   C1B25315  40.496  15.063   8.858
 1749POPC   C2B25316  40.417  15.028   8.410
 1749POPC   C3B25317  40.211  15.062   8.002
 1749POPC   C4B25318  40.389  14.983   7.597
 1750POPC   NC325319  37.783   7.960   9.418
 1750POPC   PO425320  37.431   8.515   9.567
 1750POPC   GL125321  37.540   8.329   9.175
 1750POPC   GL225322  37.914   8.377   9.141
 1750POPC   C1A25323  37.457   8.054   8.819
 1750POPC   D2A25324  37.633   8.097   8.438
 1750POPC   C3A25325  37.535   8.129   8.008
 1750POPC   C4A25326  37.576   8.380   7.613
 1750POPC   C1B25327  37.739   8.531   8.756
 1750POPC   C2B25328  37.909   8.527   8.368
 1750POPC   C3B25329  37.912   8.509   7.977
 1750POPC   C4B25330  38.206   8.783   7.749
 1751POPC   NC325331  27.797  44.153   9.501
 1751POPC   PO425332  27.355  43.785   9.329
 1751POPC   GL125333  27.544  43.976   9.036
 1751POPC   GL225334  27.873  43.900   9.039
 1751POPC   C1A25335  27.607  43.764   8.643
 1751POPC   D2A25336  27.829  43.818   8.295
 1751POPC   C3A25337  27.484  43.909   8.040
 1751POPC   C4A25338  27.257  43.718   7.721
 1751POPC   C1B25339  27.920  44.181   8.668
 1751POPC   C2B25340  27.927  44.374   8.284
 1751POPC   C3B25341  27.945  44.111   7.908
 1751POPC   C4B25342  27.809  43.717   7.686
 1752POPC   NC325343  25.636  29.887   9.579
 1752POPC   PO425344  24.945  29.776   9.541
 1752POPC   GL125345  25.251  29.916   9.193
 1752POPC   GL225346  25.621  29.939   9.080
 1752POPC   C1A25347  25.234  30.130   8.779
 1752POPC   D2A25348  25.246  29.909   8.383
 1752POPC   C3A25349  25.056  30.030   7.998
 1752POPC   C4A25350  25.323  29.992   7.645
 1752POPC   C1B25351  25.404  29.630   8.805
 1752POPC   C2B25352  25.450  29.430   8.386
 1752POPC   C3B25353  25.454  29.639   7.996
 1752POPC   C4B25354  25.664  29.616   7.617
 1753POPC   NC325355   8.948   9.097   9.375
 1753POPC   PO425356   9.302   8.594   9.606
 1753POPC   GL125357   9.229   8.805   9.088
 1753POPC   GL225358   8.903   8.755   8.879
 1753POPC   C1A25359   9.076   9.191   8.758
 1753POPC   D2A25360   9.007   9.428   8.345
 1753POPC   C3A25361   9.074   9.292   7.923
 1753POPC   C4A25362   8.696   9.306   7.660
 1753POPC   C1B25363   9.194   8.726   8.572
 1753POPC   C2B25364   8.981   8.910   8.248
 1753POPC   C3B25365   8.912   8.807   7.826
 1753POPC   C4B25366   9.241   8.572   7.634
 1754POPC   NC325367   6.376  23.317   9.308
 1754POPC   PO425368   6.871  23.781   9.433
 1754POPC   GL125369   6.614  23.696   9.094
 1754POPC   GL225370   6.317  23.880   9.057
 1754POPC   C1A25371   6.724  23.551   8.686
 1754POPC   D2A25372   6.961  23.809   8.417
 1754POPC   C3A25373   6.842  23.888   8.046
 1754POPC   C4A25374   7.146  23.977   7.763
 1754POPC   C1B25375   6.198  23.621   8.716
 1754POPC   C2B25376   6.010  23.716   8.317
 1754POPC   C3B25377   6.275  23.851   7.982
 1754POPC   C4B25378   6.546  23.687   7.698
 1755POPC   NC325379   6.206   1.725   9.495
 1755POPC   PO425380   5.571   2.092   9.459
 1755POPC   GL125381   5.675   1.958   9.087
 1755POPC   GL225382   6.000   1.799   9.035
 1755POPC   C1A25383   5.585   1.945   8.694
 1755POPC   D2A25384   5.749   1.862   8.317
 1755POPC   C3A25385   5.615   2.173   8.017
 1755POPC   C4A25386   5.651   1.967   7.624
 1755POPC   C1B25387   6.054   2.095   8.693
 1755POPC   C2B25388   6.080   2.252   8.273
 1755POPC   C3B25389   6.090   1.978   7.913
 1755POPC   C4B25390   6.204   2.072   7.442
 1756POPC   NC325391   4.556  25.870   9.443
 1756POPC   PO425392   3.978  26.215   9.417
 1756POPC   GL125393   4.283  26.111   9.093
 1756POPC   GL225394   4.636  26.265   9.139
 1756POPC   C1A25395   4.258  25.770   8.812
 1756POPC   D2A25396   4.145  25.918   8.438
 1756POPC   C3A25397   4.267  25.808   8.056
 1756POPC   C4A25398   4.336  26.049   7.719
 1756POPC   C1B25399   4.568  26.374   8.721
 1756POPC   C2B25400   4.489  26.295   8.287
 1756POPC   C3B25401   4.702  26.431   7.928
 1756POPC   C4B25402   4.798  26.219   7.538
 1757POPC   NC325403  28.993   6.816   9.578
 1757POPC   PO425404  29.552   7.013   9.545
 1757POPC   GL125405  29.271   6.964   9.153
 1757POPC   GL225406  29.120   6.629   9.107
 1757POPC   C1A25407  29.308   6.865   8.683
 1757POPC   D2A25408  29.095   6.727   8.299
 1757POPC   C3A25409  29.310   6.628   7.906
 1757POPC   C4A25410  29.237   6.748   7.479
 1757POPC   C1B25411  28.832   6.636   8.741
 1757POPC   C2B25412  28.631   6.499   8.349
 1757POPC   C3B25413  28.835   6.387   7.930
 1757POPC   C4B25414  28.838   6.358   7.433
 1758POPC   NC325415  24.015  30.949   9.507
 1758POPC   PO425416  23.714  31.596   9.532
 1758POPC   GL125417  23.646  31.334   9.214
 1758POPC   GL225418  23.548  31.599   9.006
 1758POPC   C1A25419  23.563  31.039   8.901
 1758POPC   D2A25420  23.542  30.916   8.461
 1758POPC   C3A25421  23.900  30.973   8.195
 1758POPC   C4A25422  23.861  31.242   7.841
 1758POPC   C1B25423  23.813  31.443   8.650
 1758POPC   C2B25424  24.026  31.662   8.286
 1758POPC   C3B25425  23.968  31.743   7.803
 1758POPC   C4B25426  23.552  31.946   7.654
 1759POPC   NC325427  27.983  32.145   9.440
 1759POPC   PO425428  28.417  32.247   9.870
 1759POPC   GL125429  28.439  32.012   9.345
 1759POPC   GL225430  28.285  32.252   9.060
 1759POPC   C1A25431  28.715  32.035   8.934
 1759POPC   D2A25432  28.803  32.148   8.479
 1759POPC   C3A25433  28.485  32.170   8.150
 1759POPC   C4A25434  28.531  32.147   7.686
 1759POPC   C1B25435  28.013  32.108   8.736
 1759POPC   C2B25436  27.961  32.238   8.323
 1759POPC   C3B25437  28.050  32.219   7.895
 1759POPC   C4B25438  28.167  32.481   7.533
 1760POPC   NC325439  16.565  19.753   9.446
 1760POPC   PO425440  17.206  19.847   9.504
 1760POPC   GL125441  16.958  19.998   9.145
 1760POPC   GL225442  16.660  20.205   9.226
 1760POPC   C1A25443  16.712  19.791   8.807
 1760POPC   D2A25444  16.597  19.585   8.413
 1760POPC   C3A25445  16.807  19.735   8.033
 1760POPC   C4A25446  16.626  19.800   7.635
 1760POPC   C1B25447  16.545  20.277   8.795
 1760POPC   C2B25448  16.624  20.099   8.396
 1760POPC   C3B25449  16.493  20.155   7.988
 1760POPC   C4B25450  16.726  20.298   7.638
 1761POPC   NC325451  19.445  22.161   9.265
 1761POPC   PO425452  20.001  22.009   9.563
 1761POPC   GL125453  19.874  22.046   9.050
 1761POPC   GL225454  19.620  22.381   8.847
 1761POPC   C1A25455  19.745  21.970   8.622
 1761POPC   D2A25456  19.513  22.211   8.343
 1761POPC   C3A25457  19.740  22.257   7.963
 1761POPC   C4A25458  19.570  22.049   7.600
 1761POPC   C1B25459  20.029  22.431   8.683
 1761POPC   C2B25460  20.191  22.413   8.285
 1761POPC   C3B25461  20.177  22.502   7.844
 1761POPC   C4B25462  20.042  22.263   7.501
 1762POPC   NC325463   1.250   0.065   9.477
 1762POPC   PO425464   0.852   0.531   9.693
 1762POPC   GL125465   0.971   0.402   9.229
 1762POPC   GL225466   1.330   0.454   9.147
 1762POPC   C1A25467   1.008   0.283   8.775
 1762POPC   D2A25468   1.054   0.569   8.421
 1762POPC   C3A25469   1.129   0.450   7.994
 1762POPC   C4A25470   0.981   0.609   7.603
 1762POPC   C1B25471   1.451   0.642   8.753
 1762POPC   C2B25472   1.526   0.773   8.307
 1762POPC   C3B25473   1.490   0.789   7.842
 1762POPC   C4B25474   1.630   0.864   7.414
 1763POPC   NC325475  24.087   4.178   9.379
 1763POPC   PO425476  23.472   4.354   9.548
 1763POPC   GL125477  23.556   4.302   9.143
 1763POPC   GL225478  23.810   4.546   9.093
 1763POPC   C1A25479  23.652   4.155   8.736
 1763POPC   D2A25480  23.811   4.271   8.360
 1763POPC   C3A25481  23.579   4.168   8.030
 1763POPC   C4A25482  23.705   4.131   7.635
 1763POPC   C1B25483  23.983   4.644   8.682
 1763POPC   C2B25484  24.122   4.673   8.252
 1763POPC   C3B25485  24.084   4.412   7.905
 1763POPC   C4B25486  24.047   4.541   7.448
 1764POPC   NC325487  33.984  36.734   9.363
 1764POPC   PO425488  33.496  37.193   9.511
 1764POPC   GL125489  33.767  37.125   9.103
 1764POPC   GL225490  33.937  37.445   9.075
 1764POPC   C1A25491  33.828  36.813   8.690
 1764POPC   D2A25492  33.750  36.500   8.289
 1764POPC   C3A25493  33.618  36.591   7.824
 1764POPC   C4A25494  33.847  36.751   7.436
 1764POPC   C1B25495  33.888  37.421   8.676
 1764POPC   C2B25496  33.915  37.185   8.351
 1764POPC   C3B25497  33.975  36.914   8.027
 1764POPC   C4B25498  33.725  37.122   7.762
 1765POPC   NC325499   8.832   4.734   9.583
 1765POPC   PO425500   9.043   5.334   9.525
 1765POPC   GL125501   9.193   5.066   9.190
 1765POPC   GL225502   8.858   4.989   9.121
 1765POPC   C1A25503   9.380   5.077   8.750
 1765POPC   D2A25504   9.300   4.888   8.324
 1765POPC   C3A25505   9.203   5.156   7.949
 1765POPC   C4A25506   9.130   5.160   7.487
 1765POPC   C1B25507   8.861   5.182   8.704
 1765POPC   C2B25508   8.789   5.118   8.258
 1765POPC   C3B25509   8.780   4.893   7.830
 1765POPC   C4B25510   8.573   5.087   7.456
 1766POPC   NC325511  22.280   9.140   9.517
 1766POPC   PO425512  21.651   9.120   9.747
 1766POPC   GL125513  21.822   9.053   9.324
 1766POPC   GL225514  21.859   8.742   9.239
 1766POPC   C1A25515  22.073   9.052   8.909
 1766POPC   D2A25516  22.154   9.144   8.488
 1766POPC   C3A25517  22.272   8.977   8.136
 1766POPC   C4A25518  22.276   8.993   7.704
 1766POPC   C1B25519  21.832   8.591   8.795
 1766POPC   C2B25520  21.782   8.785   8.368
 1766POPC   C3B25521  21.893   8.719   7.918
 1766POPC   C4B25522  21.831   8.664   7.467
 1767POPC   NC325523   4.335  36.950   9.698
 1767POPC   PO425524   3.798  37.184   9.324
 1767POPC   GL125525   4.133  36.844   9.204
 1767POPC   GL225526   4.463  36.936   9.132
 1767POPC   C1A25527   4.214  36.633   8.805
 1767POPC   D2A25528   4.273  36.803   8.391
 1767POPC   C3A25529   4.086  36.637   8.055
 1767POPC   C4A25530   3.939  36.941   7.764
 1767POPC   C1B25531   4.404  37.150   8.729
 1767POPC   C2B25532   4.664  37.173   8.333
 1767POPC   C3B25533   4.696  37.096   7.885
 1767POPC   C4B25534   4.452  36.774   7.747
 1768POPC   NC325535  28.158  38.394   9.728
 1768POPC   PO425536  28.547  38.886   9.551
 1768POPC   GL125537  28.332  38.633   9.221
 1768POPC   GL225538  28.016  38.400   9.233
 1768POPC   C1A25539  28.567  38.391   8.884
 1768POPC   D2A25540  28.550  38.239   8.451
 1768POPC   C3A25541  28.564  38.552   8.113
 1768POPC   C4A25542  28.481  38.351   7.749
 1768POPC   C1B25543  28.066  38.265   8.792
 1768POPC   C2B25544  28.107  38.488   8.379
 1768POPC   C3B25545  28.025  38.502   7.931
 1768POPC   C4B25546  27.816  38.454   7.532
 1769POPC   NC325547  37.825  23.416   9.192
 1769POPC   PO425548  37.566  24.010   9.451
 1769POPC   GL125549  37.659  23.911   9.030
 1769POPC   GL225550  37.976  24.042   9.074
 1769POPC   C1A25551  37.587  23.632   8.651
 1769POPC   D2A25552  37.834  23.472   8.318
 1769POPC   C3A25553  37.704  23.573   7.914
 1769POPC   C4A25554  37.545  23.887   7.692
 1769POPC   C1B25555  38.079  23.830   8.693
 1769POPC   C2B25556  38.225  23.817   8.276
 1769POPC   C3B25557  38.040  23.955   7.890
 1769POPC   C4B25558  38.014  23.989   7.435
 1770POPC   NC325559  39.990  14.164   9.503
 1770POPC   PO425560  39.823  14.848   9.566
 1770POPC   GL125561  39.862  14.588   9.186
 1770POPC   GL225562  40.197  14.422   9.134
 1770POPC   C1A25563  39.750  14.632   8.755
 1770POPC   D2A25564  39.939  14.784   8.378
 1770POPC   C3A25565  39.760  14.589   8.051
 1770POPC   C4A25566  39.896  14.446   7.642
 1770POPC   C1B25567  40.267  14.631   8.775
 1770POPC   C2B25568  40.395  14.526   8.383
 1770POPC   C3B25569  40.310  14.572   7.924
 1770POPC   C4B25570  40.429  14.496   7.469
 1771POPC   NC325571   5.307   1.707   9.413
 1771POPC   PO425572   4.896   2.174   9.517
 1771POPC   GL125573   4.974   1.985   9.132
 1771POPC   GL225574   4.716   2.123   8.964
 1771POPC   C1A25575   5.114   1.787   8.750
 1771POPC   D2A25576   5.227   1.977   8.336
 1771POPC   C3A25577   5.361   1.708   8.006
 1771POPC   C4A25578   5.126   1.635   7.650
 1771POPC   C1B25579   4.726   2.398   8.652
 1771POPC   C2B25580   4.834   2.299   8.257
 1771POPC   C3B25581   4.614   2.248   7.892
 1771POPC   C4B25582   4.730   1.978   7.519
 1772POPC   NC325583  33.868  41.241   9.411
 1772POPC   PO425584  34.058  41.797   9.687
 1772POPC   GL125585  34.081  41.664   9.208
 1772POPC   GL225586  33.728  41.651   9.128
 1772POPC   C1A25587  34.012  41.435   8.746
 1772POPC   D2A25588  34.092  41.280   8.301
 1772POPC   C3A25589  33.824  41.396   7.952
 1772POPC   C4A25590  33.639  41.165   7.589
 1772POPC   C1B25591  33.512  41.601   8.748
 1772POPC   C2B25592  33.669  41.680   8.361
 1772POPC   C3B25593  33.441  41.718   7.993
 1772POPC   C4B25594  33.632  41.685   7.569
 1773POPC   NC325595  31.401  36.439   9.521
 1773POPC   PO425596  32.012  36.078   9.645
 1773POPC   GL125597  31.723  36.121   9.282
 1773POPC   GL225598  31.427  36.054   9.182
 1773POPC   C1A25599  31.719  36.133   8.776
 1773POPC   D2A25600  31.636  36.288   8.351
 1773POPC   C3A25601  31.698  36.051   7.971
 1773POPC   C4A25602  31.577  36.151   7.564
 1773POPC   C1B25603  31.235  36.273   8.824
 1773POPC   C2B25604  31.056  36.323   8.418
 1773POPC   C3B25605  31.227  36.331   7.987
 1773POPC   C4B25606  31.087  36.021   7.680
 1774POPC   NC325607   7.261  34.209   9.554
 1774POPC   PO425608   7.708  33.735   9.572
 1774POPC   GL125609   7.611  33.693   9.167
 1774POPC   GL225610   7.353  33.903   9.139
 1774POPC   C1A25611   7.665  33.734   8.741
 1774POPC   D2A25612   7.525  33.877   8.353
 1774POPC   C3A25613   7.809  33.847   8.027
 1774POPC   C4A25614   7.683  33.760   7.620
 1774POPC   C1B25615   7.207  34.049   8.741
 1774POPC   C2B25616   6.989  33.932   8.359
 1774POPC   C3B25617   7.118  33.954   7.931
 1774POPC   C4B25618   7.206  33.847   7.477
 1775POPC   NC325619  16.861  27.801   9.917
 1775POPC   PO425620  16.475  27.503   9.517
 1775POPC   GL125621  16.811  27.627   9.291
 1775POPC   GL225622  16.631  27.891   9.163
 1775POPC   C1A25623  17.039  27.504   8.902
 1775POPC   D2A25624  17.075  27.712   8.486
 1775POPC   C3A25625  16.836  27.613   8.116
 1775POPC   C4A25626  16.826  27.619   7.689
 1775POPC   C1B25627  16.621  27.768   8.734
 1775POPC   C2B25628  16.628  28.018   8.356
 1775POPC   C3B25629  16.355  27.897   8.022
 1775POPC   C4B25630  16.390  27.878   7.553
 1776POPC   NC325631  34.564  16.388   9.483
 1776POPC   PO425632  34.939  15.836   9.459
 1776POPC   GL125633  34.764  15.739   9.053
 1776POPC   GL225634  34.596  16.041   9.096
 1776POPC   C1A25635  34.461  15.738   8.719
 1776POPC   D2A25636  34.688  15.767   8.348
 1776POPC   C3A25637  34.475  15.852   8.005
 1776POPC   C4A25638  34.398  15.709   7.612
 1776POPC   C1B25639  34.827  16.131   8.725
 1776POPC   C2B25640  35.001  16.153   8.346
 1776POPC   C3B25641  34.786  16.320   8.009
 1776POPC   C4B25642  34.687  16.132   7.615
 1777POPC   NC325643  11.198  38.258   9.627
 1777POPC   PO425644  11.781  38.328   9.806
 1777POPC   GL125645  11.532  38.483   9.335
 1777POPC   GL225646  11.435  38.143   9.180
 1777POPC   C1A25647  11.364  38.516   8.852
 1777POPC   D2A25648  11.277  38.739   8.438
 1777POPC   C3A25649  11.378  38.567   7.995
 1777POPC   C4A25650  11.363  38.667   7.534
 1777POPC   C1B25651  11.188  38.056   8.789
 1777POPC   C2B25652  11.313  38.217   8.376
 1777POPC   C3B25653  11.172  38.049   7.968
 1777POPC   C4B25654  11.352  38.169   7.614
 1778POPC   NC325655  42.990   8.416   9.382
 1778POPC   PO425656  43.279   7.811   9.462
 1778POPC   GL125657  43.158   7.941   9.084
 1778POPC   GL225658  43.362   8.208   9.100
 1778POPC   C1A25659  42.924   7.948   8.693
 1778POPC   D2A25660  43.053   8.087   8.282
 1778POPC   C3A25661  42.851   8.265   7.923
 1778POPC   C4A25662  43.225   8.142   7.748
 1778POPC   C1B25663  43.218   8.377   8.710
 1778POPC   C2B25664  43.454   8.424   8.342
 1778POPC   C3B25665  43.443   8.555   7.935
 1778POPC   C4B25666  43.088   8.695   7.731
 1779POPC   NC325667  36.201  22.845   9.516
 1779POPC   PO425668  35.628  22.704   9.193
 1779POPC   GL125669  36.000  22.885   9.015
 1779POPC   GL225670  36.021  23.200   9.158
 1779POPC   C1A25671  36.310  22.801   8.667
 1779POPC   D2A25672  36.498  23.068   8.322
 1779POPC   C3A25673  36.465  22.953   7.885
 1779POPC   C4A25674  36.391  22.682   7.540
 1779POPC   C1B25675  36.250  23.283   8.778
 1779POPC   C2B25676  36.032  23.257   8.422
 1779POPC   C3B25677  36.116  23.299   7.998
 1779POPC   C4B25678  35.961  22.974   7.722
 1780POPC   NC325679   3.653  33.104   9.487
 1780POPC   PO425680   3.900  32.476   9.655
 1780POPC   GL125681   3.755  32.637   9.203
 1780POPC   GL225682   3.771  32.969   9.025
 1780POPC   C1A25683   3.695  32.560   8.746
 1780POPC   D2A25684   3.716  32.932   8.480
 1780POPC   C3A25685   3.630  32.951   8.072
 1780POPC   C4A25686   3.831  33.102   7.758
 1780POPC   C1B25687   3.379  32.970   8.843
 1780POPC   C2B25688   3.176  33.015   8.480
 1780POPC   C3B25689   3.148  33.148   8.090
 1780POPC   C4B25690   3.310  33.101   7.690
 1781POPC   NC325691  42.265  13.530   9.466
 1781POPC   PO425692  42.054  14.088   9.146
 1781POPC   GL125693  42.114  13.694   9.003
 1781POPC   GL225694  42.493  13.720   9.049
 1781POPC   C1A25695  42.292  13.389   8.734
 1781POPC   D2A25696  42.472  13.526   8.368
 1781POPC   C3A25697  42.249  13.465   7.989
 1781POPC   C4A25698  42.522  13.557   7.648
 1781POPC   C1B25699  42.803  13.811   8.743
 1781POPC   C2B25700  42.778  13.998   8.389
 1781POPC   C3B25701  42.598  13.898   8.034
 1781POPC   C4B25702  42.663  14.051   7.666
 1782POPC   NC325703   7.889   3.999   9.367
 1782POPC   PO425704   8.254   3.431   9.580
 1782POPC   GL125705   8.117   3.557   9.174
 1782POPC   GL225706   8.424   3.768   9.146
 1782POPC   C1A25707   8.145   3.684   8.724
 1782POPC   D2A25708   8.318   3.607   8.324
 1782POPC   C3A25709   8.204   3.846   7.973
 1782POPC   C4A25710   8.008   3.861   7.575
 1782POPC   C1B25711   8.529   3.350   8.929
 1782POPC   C2B25712   8.711   3.305   8.488
 1782POPC   C3B25713   8.639   3.318   8.049
 1782POPC   C4B25714   8.561   3.090   7.661
 1783POPC   NC325715  11.157   3.869   9.494
 1783POPC   PO425716  11.172   3.228   9.500
 1783POPC   GL125717  11.327   3.476   9.149
 1783POPC   GL225718  11.596   3.741   9.218
 1783POPC   C1A25719  11.506   3.413   8.737
 1783POPC   D2A25720  11.299   3.579   8.353
 1783POPC   C3A25721  11.290   3.344   7.945
 1783POPC   C4A25722  11.405   3.531   7.537
 1783POPC   C1B25723  11.591   3.905   8.787
 1783POPC   C2B25724  11.761   3.800   8.365
 1783POPC   C3B25725  11.582   3.799   7.966
 1783POPC   C4B25726  11.161   3.914   7.894
 1784POPC   NC325727  42.522  19.187   9.468
 1784POPC   PO425728  42.007  18.868   9.552
 1784POPC   GL125729  42.154  18.866   9.121
 1784POPC   GL225730  42.464  18.714   9.074
 1784POPC   C1A25731  42.357  19.100   8.749
 1784POPC   D2A25732  42.502  19.257   8.329
 1784POPC   C3A25733  42.261  19.193   7.936
 1784POPC   C4A25734  42.104  19.459   7.591
 1784POPC   C1B25735  42.541  18.620   8.670
 1784POPC   C2B25736  42.468  18.751   8.277
 1784POPC   C3B25737  42.696  18.912   7.952
 1784POPC   C4B25738  42.545  18.995   7.544
 1785POPC   NC325739  13.241  26.357   9.501
 1785POPC   PO425740  13.914  26.050   9.485
 1785POPC   GL125741  13.728  26.211   9.150
 1785POPC   GL225742  13.437  26.066   9.119
 1785POPC   C1A25743  13.804  26.034   8.740
 1785POPC   D2A25744  13.684  25.815   8.351
 1785POPC   C3A25745  13.859  25.995   7.954
 1785POPC   C4A25746  13.899  25.832   7.518
 1785POPC   C1B25747  13.334  25.821   8.762
 1785POPC   C2B25748  13.166  25.911   8.355
 1785POPC   C3B25749  13.329  25.980   7.942
 1785POPC   C4B25750  13.139  26.164   7.555
 1786POPC   NC325751  21.720  15.545   9.536
 1786POPC   PO425752  21.406  15.027   9.418
 1786POPC   GL125753  21.705  15.191   9.117
 1786POPC   GL225754  21.702  15.552   9.027
 1786POPC   C1A25755  21.708  15.163   8.667
 1786POPC   D2A25756  21.357  15.150   8.370
 1786POPC   C3A25757  21.501  15.142   7.943
 1786POPC   C4A25758  21.840  14.989   7.703
 1786POPC   C1B25759  21.462  15.605   8.655
 1786POPC   C2B25760  21.546  15.595   8.214
 1786POPC   C3B25761  21.270  15.600   7.876
 1786POPC   C4B25762  21.015  15.229   7.726
 1787POPC   NC325763   5.833  11.625   9.691
 1787POPC   PO425764   6.043  12.232   9.574
 1787POPC   GL125765   6.048  12.101   9.195
 1787POPC   GL225766   5.751  11.949   9.183
 1787POPC   C1A25767   6.035  12.060   8.758
 1787POPC   D2A25768   5.811  12.328   8.441
 1787POPC   C3A25769   5.953  12.310   8.015
 1787POPC   C4A25770   6.084  12.118   7.610
 1787POPC   C1B25771   5.502  12.051   8.823
 1787POPC   C2B25772   5.376  12.061   8.392
 1787POPC   C3B25773   5.549  11.998   7.974
 1787POPC   C4B25774   5.534  12.142   7.554
 1788POPC   NC325775   6.792  13.966   9.461
 1788POPC   PO425776   6.277  14.395   9.462
 1788POPC   GL125777   6.439  14.241   9.075
 1788POPC   GL225778   6.370  13.884   9.050
 1788POPC   C1A25779   6.364  14.486   8.675
 1788POPC   D2A25780   6.160  14.783   8.358
 1788POPC   C3A25781   6.394  14.822   7.961
 1788POPC   C4A25782   6.722  14.523   7.794
 1788POPC   C1B25783   6.451  13.975   8.624
 1788POPC   C2B25784   6.594  14.204   8.224
 1788POPC   C3B25785   6.684  14.016   7.775
 1788POPC   C4B25786   6.525  14.119   7.330
 1789POPC   NC325787  32.059  13.037   9.441
 1789POPC   PO425788  32.368  12.454   9.595
 1789POPC   GL125789  32.205  12.640   9.164
 1789POPC   GL225790  32.353  12.975   9.027
 1789POPC   C1A25791  31.972  12.735   8.775
 1789POPC   D2A25792  32.188  12.903   8.451
 1789POPC   C3A25793  32.153  12.701   8.065
 1789POPC   C4A25794  32.143  12.600   7.641
 1789POPC   C1B25795  32.664  12.823   8.738
 1789POPC   C2B25796  32.680  12.929   8.308
 1789POPC   C3B25797  32.448  13.111   8.001
 1789POPC   C4B25798  32.573  12.786   7.754
 1790POPC   NC325799  42.406  42.000   9.435
 1790POPC   PO425800  42.358  41.319   9.484
 1790POPC   GL125801  42.401  41.599   9.102
 1790POPC   GL225802  42.230  41.920   8.958
 1790POPC   C1A25803  42.506  41.540   8.663
 1790POPC   D2A25804  42.643  41.318   8.268
 1790POPC   C3A25805  42.621  41.499   7.823
 1790POPC   C4A25806  42.794  41.834   7.552
 1790POPC   C1B25807  41.998  41.513   8.825
 1790POPC   C2B25808  41.988  41.431   8.412
 1790POPC   C3B25809  42.111  41.730   8.115
 1790POPC   C4B25810  42.066  41.666   7.709
 1791POPC   NC325811  42.399   1.555   9.520
 1791POPC   PO425812  42.513   2.199   9.351
 1791POPC   GL125813  42.415   1.993   8.997
 1791POPC   GL225814  42.581   1.690   9.047
 1791POPC   C1A25815  42.508   2.153   8.576
 1791POPC   D2A25816  42.730   2.322   8.225
 1791POPC   C3A25817  42.472   2.167   7.879
 1791POPC   C4A25818  42.013   2.123   8.011
 1791POPC   C1B25819  42.424   1.642   8.616
 1791POPC   C2B25820  42.411   1.710   8.156
 1791POPC   C3B25821  42.595   1.676   7.749
 1791POPC   C4B25822  42.604   1.907   7.336
 1792POPC   NC325823  43.644  18.520   9.232
 1792POPC   PO425824  44.101  18.092   9.547
 1792POPC   GL125825  43.974  18.144   9.140
 1792POPC   GL225826  44.174  18.460   9.159
 1792POPC   C1A25827  43.719  18.058   8.753
 1792POPC   D2A25828  43.787  18.001   8.317
 1792POPC   C3A25829  43.716  18.356   8.051
 1792POPC   C4A25830  43.600  18.604   7.720
 1792POPC   C1B25831  44.409  18.185   8.879
 1792POPC   C2B25832  44.276  18.006   8.493
 1792POPC   C3B25833  44.254  18.122   8.062
 1792POPC   C4B25834  44.282  17.953   7.644
 1793POPC   NC325835  38.774  18.763   9.498
 1793POPC   PO425836  39.425  18.929   9.551
 1793POPC   GL125837  39.207  19.046   9.203
 1793POPC   GL225838  39.504  19.091   9.031
 1793POPC   C1A25839  39.065  18.888   8.795
 1793POPC   D2A25840  38.923  19.088   8.408
 1793POPC   C3A25841  39.007  18.951   7.997
 1793POPC   C4A25842  39.138  19.216   7.684
 1793POPC   C1B25843  39.475  19.131   8.602
 1793POPC   C2B25844  39.406  19.226   8.181
 1793POPC   C3B25845  39.647  19.203   7.831
 1793POPC   C4B25846  39.620  18.998   7.439
 1794POPC   NC325847   1.953  20.351   9.897
 1794POPC   PO425848   1.389  20.545   9.554
 1794POPC   GL125849   1.311  20.437   9.150
 1794POPC   GL225850   1.255  20.792   9.097
 1794POPC   C1A25851   1.194  20.414   8.743
 1794POPC   D2A25852   1.037  20.448   8.340
 1794POPC   C3A25853   1.287  20.283   7.992
 1794POPC   C4A25854   1.083  20.581   7.732
 1794POPC   C1B25855   1.595  20.776   8.791
 1794POPC   C2B25856   1.567  20.588   8.384
 1794POPC   C3B25857   1.630  20.653   7.943
 1794POPC   C4B25858   1.502  20.939   7.673
 1795POPC   NC325859  37.186  40.479   9.286
 1795POPC   PO425860  36.761  41.004   9.426
 1795POPC   GL125861  36.874  40.792   9.045
 1795POPC   GL225862  36.729  40.456   9.075
 1795POPC   C1A25863  37.047  40.702   8.634
 1795POPC   D2A25864  36.777  40.759   8.256
 1795POPC   C3A25865  36.988  40.967   7.946
 1795POPC   C4A25866  36.943  40.829   7.510
 1795POPC   C1B25867  36.542  40.574   8.682
 1795POPC   C2B25868  36.496  40.294   8.267
 1795POPC   C3B25869  36.496  40.444   7.854
 1795POPC   C4B25870  36.498  40.643   7.429
 1796POPC   NC325871  37.689  14.316   9.793
 1796POPC   PO425872  37.474  14.769   9.352
 1796POPC   GL125873  37.834  14.540   9.202
 1796POPC   GL225874  37.809  14.213   9.285
 1796POPC   C1A25875  37.756  14.396   8.782
 1796POPC   D2A25876  37.517  14.697   8.533
 1796POPC   C3A25877  37.578  14.660   8.087
 1796POPC   C4A25878  37.988  14.547   7.895
 1796POPC   C1B25879  37.611  13.930   8.984
 1796POPC   C2B25880  37.594  13.889   8.551
 1796POPC   C3B25881  37.748  14.130   8.187
 1796POPC   C4B25882  37.621  14.211   7.770
 1797POPC   NC325883  22.525  30.427   9.596
 1797POPC   PO425884  22.115  30.914   9.387
 1797POPC   GL125885  22.250  30.609   9.103
 1797POPC   GL225886  22.584  30.574   9.104
 1797POPC   C1A25887  22.070  30.609   8.693
 1797POPC   D2A25888  22.308  30.779   8.354
 1797POPC   C3A25889  22.017  30.700   8.028
 1797POPC   C4A25890  22.029  30.843   7.608
 1797POPC   C1B25891  22.450  30.288   8.751
 1797POPC   C2B25892  22.290  30.280   8.321
 1797POPC   C3B25893  22.457  30.481   7.937
 1797POPC   C4B25894  22.417  30.538   7.511
 1798POPC   NC325895  43.443  14.590   9.579
 1798POPC   PO425896  42.842  14.402   9.614
 1798POPC   GL125897  42.880  14.556   9.148
 1798POPC   GL225898  43.186  14.432   9.083
 1798POPC   C1A25899  42.982  14.767   8.720
 1798POPC   D2A25900  43.035  14.893   8.264
 1798POPC   C3A25901  43.320  14.641   7.955
 1798POPC   C4A25902  43.385  14.605   7.480
 1798POPC   C1B25903  43.114  14.285   8.666
 1798POPC   C2B25904  43.468  14.304   8.367
 1798POPC   C3B25905  43.467  14.138   7.964
 1798POPC   C4B25906  43.018  14.216   7.999
 1799POPC   NC325907  12.461  28.441   9.721
 1799POPC   PO425908  11.878  28.491   9.514
 1799POPC   GL125909  12.214  28.335   9.232
 1799POPC   GL225910  12.471  28.546   9.128
 1799POPC   C1A25911  12.117  28.187   8.805
 1799POPC   D2A25912  11.830  28.321   8.463
 1799POPC   C3A25913  11.988  28.347   8.057
 1799POPC   C4A25914  12.054  28.080   7.707
 1799POPC   C1B25915  12.231  28.698   8.756
 1799POPC   C2B25916  12.352  28.657   8.315
 1799POPC   C3B25917  12.227  28.778   7.886
 1799POPC   C4B25918  12.390  28.689   7.468
 1800POPC   NC325919  32.766  34.005   9.514
 1800POPC   PO425920  33.464  33.736   9.529
 1800POPC   GL125921  33.216  33.690   9.156
 1800POPC   GL225922  33.119  34.015   9.136
 1800POPC   C1A25923  33.177  33.752   8.676
 1800POPC   D2A25924  33.318  33.576   8.262
 1800POPC   C3A25925  33.158  33.694   7.837
 1800POPC   C4A25926  33.185  33.801   7.393
 1800POPC   C1B25927  32.811  34.143   8.823
 1800POPC   C2B25928  32.830  34.343   8.431
 1800POPC   C3B25929  32.933  34.113   8.067
 1800POPC   C4B25930  32.822  34.064   7.637
 1801POPC   NC325931  40.995  26.475   9.777
 1801POPC   PO425932  40.512  26.260   9.341
 1801POPC   GL125933  40.673  25.964   9.073
 1801POPC   GL225934  40.957  25.740   9.168
 1801POPC   C1A25935  40.811  26.048   8.688
 1801POPC   D2A25936  40.883  26.338   8.380
 1801POPC   C3A25937  40.753  26.235   7.974
 1801POPC   C4A25938  40.918  26.114   7.600
 1801POPC   C1B25939  41.242  25.763   8.809
 1801POPC   C2B25940  41.241  25.973   8.407
 1801POPC   C3B25941  41.186  25.860   7.988
 1801POPC   C4B25942  41.172  25.680   7.575
 1802POPC   NC325943  19.603  23.103   9.571
 1802POPC   PO425944  19.787  22.491   9.291
 1802POPC   GL125945  19.878  22.873   9.170
 1802POPC   GL225946  19.549  22.972   9.092
 1802POPC   C1A25947  20.130  23.078   8.868
 1802POPC   D2A25948  20.162  22.897   8.457
 1802POPC   C3A25949  20.330  23.024   8.074
 1802POPC   C4A25950  20.143  23.073   7.656
 1802POPC   C1B25951  19.677  22.875   8.694
 1802POPC   C2B25952  19.725  22.669   8.329
 1802POPC   C3B25953  19.822  22.858   7.979
 1802POPC   C4B25954  19.756  22.659   7.606
 1803POPC   NC325955  10.326  34.393   9.461
 1803POPC   PO425956  10.869  34.846   9.462
 1803POPC   GL125957  10.621  34.687   9.127
 1803POPC   GL225958  10.579  34.338   9.035
 1803POPC   C1A25959  10.455  34.714   8.707
 1803POPC   D2A25960  10.227  34.646   8.346
 1803POPC   C3A25961  10.515  34.899   8.122
 1803POPC   C4A25962  10.538  34.995   7.720
 1803POPC   C1B25963  10.256  34.237   8.723
 1803POPC   C2B25964  10.287  33.982   8.355
 1803POPC   C3B25965  10.336  34.138   7.954
 1803POPC   C4B25966  10.523  34.479   7.754
 1804POPC   NC325967   6.180   3.314   9.531
 1804POPC   PO425968   5.775   3.808   9.608
 1804POPC   GL125969   5.833   3.520   9.179
 1804POPC   GL225970   5.684   3.194   9.120
 1804POPC   C1A25971   5.935   3.415   8.696
 1804POPC   D2A25972   5.905   3.197   8.259
 1804POPC   C3A25973   5.984   3.367   7.820
 1804POPC   C4A25974   5.830   3.653   7.486
 1804POPC   C1B25975   5.620   3.010   8.689
 1804POPC   C2B25976   5.397   3.024   8.270
 1804POPC   C3B25977   5.479   3.220   7.821
 1804POPC   C4B25978   5.523   3.239   7.320
 1805POPC   NC325979   2.500  21.085   9.839
 1805POPC   PO425980   2.810  21.511   9.453
 1805POPC   GL125981   2.891  21.455   9.062
 1805POPC   GL225982   3.003  21.112   9.101
 1805POPC   C1A25983   2.773  21.607   8.669
 1805POPC   D2A25984   2.703  21.405   8.285
 1805POPC   C3A25985   2.584  21.632   7.940
 1805POPC   C4A25986   2.914  21.530   7.696
 1805POPC   C1B25987   2.944  21.114   8.672
 1805POPC   C2B25988   2.892  20.903   8.295
 1805POPC   C3B25989   3.039  21.062   7.931
 1805POPC   C4B25990   3.015  21.100   7.483
 1806POPC   NC325991  34.428   0.455   9.572
 1806POPC   PO425992  35.073   0.304   9.667
 1806POPC   GL125993  34.794   0.245   9.237
 1806POPC   GL225994  34.419   0.260   9.096
 1806POPC   C1A25995  34.792   0.349   8.770
 1806POPC   D2A25996  34.727   0.185   8.336
 1806POPC   C3A25997  34.715   0.438   7.975
 1806POPC   C4A25998  35.017   0.348   7.688
 1806POPC   C1B25999  34.295   0.253   8.677
 1806POPC   C2B26000  34.270   0.394   8.249
 1806POPC   C3B26001  34.210   0.473   7.852
 1806POPC   C4B26002  34.263   0.859   7.718
 1807POPC   NC326003   1.960   7.996   9.433
 1807POPC   PO426004   1.733   8.619   9.353
 1807POPC   GL126005   1.852   8.320   9.035
 1807POPC   GL226006   2.184   8.156   9.024
 1807POPC   C1A26007   1.894   8.164   8.618
 1807POPC   D2A26008   2.056   8.199   8.240
 1807POPC   C3A26009   1.953   8.037   7.859
 1807POPC   C4A26010   1.903   8.295   7.487
 1807POPC   C1B26011   2.406   8.076   8.683
 1807POPC   C2B26012   2.566   8.171   8.312
 1807POPC   C3B26013   2.441   8.030   7.924
 1807POPC   C4B26014   2.318   7.926   7.486
 1808POPC   NC326015  19.915  18.592   9.425
 1808POPC   PO426016  19.802  19.240   9.571
 1808POPC   GL126017  19.926  19.097   9.173
 1808POPC   GL226018  19.601  19.022   9.094
 1808POPC   C1A26019  20.163  19.200   8.774
 1808POPC   D2A26020  20.303  18.942   8.412
 1808POPC   C3A26021  19.918  18.903   8.182
 1808POPC   C4A26022  19.863  18.924   7.752
 1808POPC   C1B26023  19.742  18.922   8.680
 1808POPC   C2B26024  19.583  18.576   8.398
 1808POPC   C3B26025  19.640  18.510   7.959
 1808POPC   C4B26026  19.572  18.575   7.531
 1809POPC   NC326027  43.487  38.585   9.632
 1809POPC   PO426028  43.962  38.130   9.528
 1809POPC   GL126029  43.829  38.314   9.160
 1809POPC   GL226030  43.744  38.653   9.189
 1809POPC   C1A26031  43.965  38.406   8.745
 1809POPC   D2A26032  43.725  38.340   8.376
 1809POPC   C3A26033  43.907  38.245   7.966
 1809POPC   C4A26034  43.741  38.482   7.588
 1809POPC   C1B26035  43.759  38.885   8.805
 1809POPC   C2B26036  43.817  39.005   8.372
 1809POPC   C3B26037  43.855  38.761   8.005
 1809POPC   C4B26038  44.210  38.604   7.730
 1810POPC   NC326039  22.660  16.631   9.647
 1810POPC   PO426040  22.072  16.824   9.687
 1810POPC   GL126041  22.236  16.569   9.335
 1810POPC   GL226042  21.907  16.592   9.217
 1810POPC   C1A26043  22.395  16.687   8.907
 1810POPC   D2A26044  22.363  16.861   8.465
 1810POPC   C3A26045  22.401  16.663   8.063
 1810POPC   C4A26046  22.344  16.788   7.627
 1810POPC   C1B26047  21.930  16.883   8.837
 1810POPC   C2B26048  21.871  16.836   8.382
 1810POPC   C3B26049  21.934  16.810   7.971
 1810POPC   C4B26050  21.849  16.936   7.594
 1811POPC   NC326051  15.326  33.709   9.411
 1811POPC   PO426052  14.710  33.554   9.300
 1811POPC   GL126053  14.995  33.788   9.023
 1811POPC   GL226054  15.257  33.534   8.938
 1811POPC   C1A26055  14.903  33.800   8.587
 1811POPC   D2A26056  14.833  33.448   8.296
 1811POPC   C3A26057  15.208  33.507   8.080
 1811POPC   C4A26058  15.245  33.844   7.790
 1811POPC   C1B26059  15.651  33.363   8.795
 1811POPC   C2B26060  15.873  33.467   8.414
 1811POPC   C3B26061  15.792  33.304   8.002
 1811POPC   C4B26062  15.474  33.397   7.660
 1812POPC   NC326063   9.383  41.124   9.662
 1812POPC   PO426064   9.482  41.837   9.557
 1812POPC   GL126065   9.706  41.698   9.177
 1812POPC   GL226066  10.057  41.616   9.249
 1812POPC   C1A26067   9.779  41.464   8.799
 1812POPC   D2A26068   9.660  41.366   8.375
 1812POPC   C3A26069   9.461  41.588   8.047
 1812POPC   C4A26070   9.499  41.341   7.697
 1812POPC   C1B26071  10.134  41.846   8.865
 1812POPC   C2B26072  10.064  41.708   8.447
 1812POPC   C3B26073   9.954  41.607   8.016
 1812POPC   C4B26074   9.908  41.898   7.685
 1813POPC   NC326075  36.552  36.972   9.652
 1813POPC   PO426076  37.169  36.734   9.451
 1813POPC   GL126077  36.949  36.927   9.080
 1813POPC   GL226078  36.589  36.910   9.119
 1813POPC   C1A26079  37.114  36.975   8.648
 1813POPC   D2A26080  37.321  37.204   8.288
 1813POPC   C3A26081  37.168  37.054   7.911
 1813POPC   C4A26082  36.840  36.797   7.764
 1813POPC   C1B26083  36.580  36.749   8.696
 1813POPC   C2B26084  36.772  36.806   8.289
 1813POPC   C3B26085  36.619  37.139   8.046
 1813POPC   C4B26086  36.396  37.099   7.636
 1814POPC   NC326087  41.882   6.235   9.366
 1814POPC   PO426088  41.703   5.618   9.458
 1814POPC   GL126089  41.516   5.884   9.155
 1814POPC   GL226090  41.192   5.670   9.158
 1814POPC   C1A26091  41.634   6.046   8.714
 1814POPC   D2A26092  41.808   6.051   8.280
 1814POPC   C3A26093  41.622   5.953   7.886
 1814POPC   C4A26094  41.632   5.624   7.585
 1814POPC   C1B26095  41.495   5.534   8.801
 1814POPC   C2B26096  41.474   5.601   8.375
 1814POPC   C3B26097  41.384   5.455   7.980
 1814POPC   C4B26098  41.171   5.430   7.601
 1815POPC   NC326099  42.964   2.268   9.214
 1815POPC   PO426100  43.429   1.798   9.343
 1815POPC   GL126101  43.289   1.882   8.967
 1815POPC   GL226102  43.436   2.174   8.886
 1815POPC   C1A26103  43.286   1.787   8.526
 1815POPC   D2A26104  42.885   1.825   8.349
 1815POPC   C3A26105  42.953   1.985   7.944
 1815POPC   C4A26106  43.053   1.817   7.582
 1815POPC   C1B26107  43.131   2.275   8.578
 1815POPC   C2B26108  43.308   2.264   8.202
 1815POPC   C3B26109  43.335   2.341   7.793
 1815POPC   C4B26110  43.382   2.182   7.401
 1816POPC   NC326111   3.152  30.448   9.404
 1816POPC   PO426112   2.689  30.880   9.531
 1816POPC   GL126113   2.757  30.830   9.101
 1816POPC   GL226114   2.635  31.168   9.048
 1816POPC   C1A26115   3.067  30.739   8.744
 1816POPC   D2A26116   3.046  30.793   8.264
 1816POPC   C3A26117   2.944  30.409   7.994
 1816POPC   C4A26118   2.617  30.263   7.714
 1816POPC   C1B26119   2.689  31.042   8.626
 1816POPC   C2B26120   2.472  31.048   8.246
 1816POPC   C3B26121   2.632  30.842   7.906
 1816POPC   C4B26122   3.032  30.817   7.722
 1817POPC   NC326123   9.605  24.773   9.587
 1817POPC   PO426124  10.003  24.226   9.363
 1817POPC   GL126125   9.739  24.285   9.038
 1817POPC   GL226126   9.614  24.618   9.058
 1817POPC   C1A26127   9.846  24.299   8.600
 1817POPC   D2A26128   9.593  24.247   8.227
 1817POPC   C3A26129   9.702  24.429   7.826
 1817POPC   C4A26130   9.503  24.341   7.423
 1817POPC   C1B26131   9.935  24.791   8.762
 1817POPC   C2B26132   9.994  24.739   8.288
 1817POPC   C3B26133   9.948  24.901   7.847
 1817POPC   C4B26134  10.225  24.839   7.490
 1818POPC   NC326135  41.968   4.153   9.445
 1818POPC   PO426136  42.597   4.561   9.463
 1818POPC   GL126137  42.464   4.352   9.106
 1818POPC   GL226138  42.143   4.486   9.100
 1818POPC   C1A26139  42.336   4.254   8.671
 1818POPC   D2A26140  42.256   4.287   8.237
 1818POPC   C3A26141  42.475   4.033   7.916
 1818POPC   C4A26142  42.822   4.084   7.648
 1818POPC   C1B26143  42.002   4.829   8.853
 1818POPC   C2B26144  42.048   4.744   8.426
 1818POPC   C3B26145  41.873   4.561   8.056
 1818POPC   C4B26146  42.060   4.298   7.767
 1819POPC   NC326147  44.493  33.169   9.651
 1819POPC   PO426148  44.436  32.569   9.469
 1819POPC   GL126149  44.585  32.960   9.199
 1819POPC   GL226150  44.827  33.252   9.175
 1819POPC   C1A26151  44.667  32.937   8.766
 1819POPC   D2A26152  44.554  32.616   8.493
 1819POPC   C3A26153  44.636  32.725   8.087
 1819POPC   C4A26154  44.428  32.924   7.757
 1819POPC   C1B26155   0.063  33.255   8.775
 1819POPC   C2B26156  44.978  33.069   8.346
 1819POPC   C3B26157   0.111  33.266   7.952
 1819POPC   C4B26158   0.020  33.364   7.461
 1820POPC   NC326159  23.021   4.267   9.592
 1820POPC   PO426160  22.470   4.629   9.579
 1820POPC   GL126161  22.699   4.365   9.222
 1820POPC   GL226162  23.055   4.523   9.150
 1820POPC   C1A26163  22.671   4.038   8.869
 1820POPC   D2A26164  22.871   3.956   8.439
 1820POPC   C3A26165  22.664   4.025   8.002
 1820POPC   C4A26166  22.689   4.410   7.743
 1820POPC   C1B26167  23.142   4.238   8.822
 1820POPC   C2B26168  23.241   4.322   8.398
 1820POPC   C3B26169  23.147   4.479   7.999
 1820POPC   C4B26170  23.174   4.315   7.594
 1821POPC   NC326171  41.107  33.925   9.771
 1821POPC   PO426172  40.706  33.455   9.523
 1821POPC   GL126173  40.827  33.789   9.197
 1821POPC   GL226174  41.123  33.709   9.001
 1821POPC   C1A26175  40.781  34.070   8.825
 1821POPC   D2A26176  40.686  33.983   8.376
 1821POPC   C3A26177  40.792  34.121   7.953
 1821POPC   C4A26178  41.043  33.921   7.610
 1821POPC   C1B26179  40.876  33.577   8.691
 1821POPC   C2B26180  40.958  33.521   8.284
 1821POPC   C3B26181  40.770  33.598   7.918
 1821POPC   C4B26182  40.588  33.297   7.661
 1822POPC   NC326183  15.111  37.392   9.578
 1822POPC   PO426184  14.723  37.968   9.418
 1822POPC   GL126185  15.062  37.686   9.154
 1822POPC   GL226186  15.057  37.313   9.088
 1822POPC   C1A26187  15.323  37.585   8.750
 1822POPC   D2A26188  15.448  37.753   8.332
 1822POPC   C3A26189  15.171  37.707   7.978
 1822POPC   C4A26190  15.357  37.448   7.683
 1822POPC   C1B26191  15.088  37.130   8.686
 1822POPC   C2B26192  15.187  37.287   8.291
 1822POPC   C3B26193  14.963  37.176   7.921
 1822POPC   C4B26194  14.899  37.258   7.482
 1823POPC   NC326195  17.191  40.448   9.333
 1823POPC   PO426196  16.950  41.011   9.503
 1823POPC   GL126197  16.924  40.796   9.053
 1823POPC   GL226198  16.582  40.850   8.851
 1823POPC   C1A26199  17.062  40.919   8.657
 1823POPC   D2A26200  16.763  40.841   8.340
 1823POPC   C3A26201  16.843  40.592   7.996
 1823POPC   C4A26202  16.755  40.749   7.603
 1823POPC   C1B26203  16.679  40.460   8.703
 1823POPC   C2B26204  16.500  40.387   8.307
 1823POPC   C3B26205  16.338  40.500   7.896
 1823POPC   C4B26206  16.433  40.375   7.472
 1824POPC   NC326207  17.824  42.759   9.582
 1824POPC   PO426208  18.473  43.044   9.617
 1824POPC   GL126209  18.164  42.991   9.273
 1824POPC   GL226210  18.109  43.325   9.145
 1824POPC   C1A26211  18.226  42.974   8.801
 1824POPC   D2A26212  18.344  43.062   8.371
 1824POPC   C3A26213  18.136  43.175   8.074
 1824POPC   C4A26214  18.059  42.895   7.771
 1824POPC   C1B26215  18.130  43.450   8.707
 1824POPC   C2B26216  18.407  43.588   8.407
 1824POPC   C3B26217  18.565  43.437   8.051
 1824POPC   C4B26218  18.412  43.264   7.649
 1825POPC   NC326219  20.375  10.524   9.368
 1825POPC   PO426220  20.820  10.613   9.816
 1825POPC   GL126221  20.873  10.602   9.289
 1825POPC   GL226222  20.641  10.390   8.987
 1825POPC   C1A26223  20.928  10.748   8.838
 1825POPC   D2A26224  20.596  10.573   8.521
 1825POPC   C3A26225  20.686  10.548   8.105
 1825POPC   C4A26226  20.680  10.556   7.656
 1825POPC   C1B26227  20.441  10.071   8.736
 1825POPC   C2B26228  20.587  10.059   8.323
 1825POPC   C3B26229  20.478  10.130   7.904
 1825POPC   C4B26230  20.747  10.023   7.624
 1826POPC   NC326231  36.614  27.613   9.617
 1826POPC   PO426232  36.001  27.686   9.758
 1826POPC   GL126233  36.059  27.587   9.292
 1826POPC   GL226234  36.393  27.680   9.151
 1826POPC   C1A26235  35.999  27.619   8.815
 1826POPC   D2A26236  36.046  27.763   8.374
 1826POPC   C3A26237  35.879  27.516   8.028
 1826POPC   C4A26238  35.963  27.440   7.554
 1826POPC   C1B26239  36.555  27.574   8.725
 1826POPC   C2B26240  36.536  27.539   8.262
 1826POPC   C3B26241  36.332  27.737   7.907
 1826POPC   C4B26242  36.219  27.884   7.494
 1827POPC   NC326243  25.552  35.033   9.372
 1827POPC   PO426244  25.071  35.580   9.435
 1827POPC   GL126245  25.251  35.360   9.099
 1827POPC   GL226246  25.370  35.621   8.950
 1827POPC   C1A26247  25.317  35.172   8.692
 1827POPC   D2A26248  25.511  35.193   8.298
 1827POPC   C3A26249  25.275  35.307   7.961
 1827POPC   C4A26250  25.041  35.084   7.667
 1827POPC   C1B26251  25.675  35.526   8.656
 1827POPC   C2B26252  25.734  35.700   8.251
 1827POPC   C3B26253  25.610  35.653   7.833
 1827POPC   C4B26254  25.728  35.286   7.597
 1828POPC   NC326255  32.466  43.793   9.481
 1828POPC   PO426256  33.099  43.946   9.485
 1828POPC   GL126257  33.188  43.817   9.096
 1828POPC   GL226258  32.824  43.725   9.080
 1828POPC   C1A26259  33.277  44.018   8.718
 1828POPC   D2A26260  33.174  43.829   8.310
 1828POPC   C3A26261  33.151  44.035   7.908
 1828POPC   C4A26262  33.098  44.005   7.448
 1828POPC   C1B26263  32.756  43.973   8.689
 1828POPC   C2B26264  32.708  43.996   8.221
 1828POPC   C3B26265  32.843  43.647   7.949
 1828POPC   C4B26266  32.867  43.453   7.510
 1829POPC   NC326267  32.415  36.338   9.359
 1829POPC   PO426268  32.979  36.198   9.679
 1829POPC   GL126269  32.932  36.266   9.265
 1829POPC   GL226270  32.943  35.928   9.182
 1829POPC   C1A26271  33.108  36.299   8.843
 1829POPC   D2A26272  32.923  36.372   8.442
 1829POPC   C3A26273  33.183  36.458   8.093
 1829POPC   C4A26274  33.214  36.241   7.698
 1829POPC   C1B26275  32.733  35.929   8.802
 1829POPC   C2B26276  32.941  35.836   8.435
 1829POPC   C3B26277  33.052  35.877   8.023
 1829POPC   C4B26278  32.718  36.029   7.726
 1830POPC   NC326279   8.479  36.998   9.466
 1830POPC   PO426280   7.827  37.013   9.454
 1830POPC   GL126281   8.102  36.820   9.102
 1830POPC   GL226282   8.471  36.718   9.058
 1830POPC   C1A26283   8.216  36.986   8.685
 1830POPC   D2A26284   8.012  37.131   8.285
 1830POPC   C3A26285   8.149  36.905   7.894
 1830POPC   C4A26286   8.471  37.085   7.595
 1830POPC   C1B26287   8.608  36.596   8.701
 1830POPC   C2B26288   8.432  36.690   8.324
 1830POPC   C3B26289   8.608  36.678   7.943
 1830POPC   C4B26290   8.440  36.594   7.533
 1831POPC   NC326291   0.406  14.876   9.438
 1831POPC   PO426292   0.657  15.557   9.478
 1831POPC   GL126293   0.429  15.534   9.038
 1831POPC   GL226294   0.064  15.371   9.031
 1831POPC   C1A26295   0.512  15.560   8.599
 1831POPC   D2A26296   0.257  15.552   8.245
 1831POPC   C3A26297   0.224  15.168   8.030
 1831POPC   C4A26298   0.619  15.057   7.820
 1831POPC   C1B26299   0.144  15.170   8.611
 1831POPC   C2B26300   0.458  14.860   8.400
 1831POPC   C3B26301   0.477  14.617   8.019
 1831POPC   C4B26302   0.199  14.765   7.681
 1832POPC   NC326303   6.573  26.768   9.581
 1832POPC   PO426304   7.019  26.417   9.242
 1832POPC   GL126305   6.704  26.713   9.084
 1832POPC   GL226306   6.366  26.587   9.165
 1832POPC   C1A26307   6.628  26.778   8.637
 1832POPC   D2A26308   6.882  26.899   8.315
 1832POPC   C3A26309   6.867  26.605   8.015
 1832POPC   C4A26310   6.705  26.821   7.683
 1832POPC   C1B26311   6.229  26.903   8.922
 1832POPC   C2B26312   6.113  26.913   8.519
 1832POPC   C3B26313   6.296  26.946   8.184
 1832POPC   C4B26314   6.232  26.938   7.792
 1833POPC   NC326315  21.603   9.580   9.626
 1833POPC   PO426316  22.289   9.768   9.600
 1833POPC   GL126317  22.284   9.563   9.202
 1833POPC   GL226318  21.930   9.529   9.151
 1833POPC   C1A26319  22.279   9.556   8.749
 1833POPC   D2A26320  22.103   9.632   8.311
 1833POPC   C3A26321  22.153   9.965   7.978
 1833POPC   C4A26322  21.877  10.152   7.660
 1833POPC   C1B26323  21.794   9.438   8.722
 1833POPC   C2B26324  21.664   9.303   8.337
 1833POPC   C3B26325  21.891   9.265   7.991
 1833POPC   C4B26326  22.237   9.491   7.818
 1834POPC   NC326327  16.509  30.045   9.428
 1834POPC   PO426328  17.106  29.689   9.444
 1834POPC   GL126329  16.940  30.008   9.159
 1834POPC   GL226330  16.682  29.795   8.977
 1834POPC   C1A26331  16.765  30.265   8.788
 1834POPC   D2A26332  16.554  30.098   8.415
 1834POPC   C3A26333  16.748  30.067   8.008
 1834POPC   C4A26334  16.815  29.892   7.594
 1834POPC   C1B26335  16.351  29.688   8.640
 1834POPC   C2B26336  16.304  29.515   8.207
 1834POPC   C3B26337  16.411  29.643   7.788
 1834POPC   C4B26338  16.392  29.734   7.312
 1835POPC   NC326339  35.783  32.862   9.424
 1835POPC   PO426340  36.450  32.971   9.547
 1835POPC   GL126341  36.201  33.080   9.170
 1835POPC   GL226342  35.953  33.354   9.224
 1835POPC   C1A26343  36.270  32.913   8.738
 1835POPC   D2A26344  36.316  32.606   8.361
 1835POPC   C3A26345  36.334  32.717   7.943
 1835POPC   C4A26346  36.095  32.933   7.639
 1835POPC   C1B26347  35.776  33.554   8.842
 1835POPC   C2B26348  35.534  33.362   8.483
 1835POPC   C3B26349  35.688  33.309   8.087
 1835POPC   C4B26350  35.872  33.391   7.693
 1836POPC   NC326351  38.967  25.262   9.449
 1836POPC   PO426352  39.643  25.409   9.595
 1836POPC   GL126353  39.394  25.430   9.171
 1836POPC   GL226354  39.241  25.132   9.052
 1836POPC   C1A26355  39.425  25.404   8.696
 1836POPC   D2A26356  39.541  25.105   8.400
 1836POPC   C3A26357  39.388  25.279   8.018
 1836POPC   C4A26358  39.372  25.191   7.581
 1836POPC   C1B26359  38.958  25.077   8.740
 1836POPC   C2B26360  38.976  24.883   8.325
 1836POPC   C3B26361  38.972  25.035   7.888
 1836POPC   C4B26362  38.893  25.399   7.597
 1837POPC   NC326363  32.551   8.569   9.455
 1837POPC   PO426364  31.949   8.216   9.511
 1837POPC   GL126365  32.145   8.407   9.158
 1837POPC   GL226366  32.359   8.126   9.154
 1837POPC   C1A26367  32.361   8.455   8.763
 1837POPC   D2A26368  32.202   8.476   8.346
 1837POPC   C3A26369  32.342   8.357   7.929
 1837POPC   C4A26370  32.104   8.477   7.503
 1837POPC   C1B26371  32.375   7.948   8.761
 1837POPC   C2B26372  32.462   8.017   8.351
 1837POPC   C3B26373  32.382   7.853   7.955
 1837POPC   C4B26374  32.107   7.968   7.669
 1838POPC   NC326375  41.687  32.613   9.331
 1838POPC   PO426376  41.465  33.185   9.644
 1838POPC   GL126377  41.430  33.032   9.203
 1838POPC   GL226378  41.560  33.351   9.129
 1838POPC   C1A26379  41.386  32.713   8.786
 1838POPC   D2A26380  41.652  32.754   8.422
 1838POPC   C3A26381  41.530  32.947   8.061
 1838POPC   C4A26382  41.313  32.819   7.638
 1838POPC   C1B26383  41.625  33.157   8.752
 1838POPC   C2B26384  41.423  33.327   8.420
 1838POPC   C3B26385  41.559  33.484   8.056
 1838POPC   C4B26386  41.679  33.211   7.679
 1839POPC   NC326387  21.617  43.859   9.476
 1839POPC   PO426388  20.950  44.110   9.501
 1839POPC   GL126389  21.246  44.100   9.150
 1839POPC   GL226390  21.424  43.757   9.037
 1839POPC   C1A26391  21.188  44.027   8.717
 1839POPC   D2A26392  21.311  43.697   8.451
 1839POPC   C3A26393  21.114  43.770   8.053
 1839POPC   C4A26394  21.155  43.921   7.629
 1839POPC   C1B26395  21.711  43.944   8.726
 1839POPC   C2B26396  21.570  44.148   8.362
 1839POPC   C3B26397  21.600  44.026   7.926
 1839POPC   C4B26398  21.601  44.073   7.471
 1840POPC   NC326399  41.420  22.355   9.517
 1840POPC   PO426400  42.005  22.291   9.353
 1840POPC   GL126401  41.735  22.091   9.128
 1840POPC   GL226402  41.613  22.405   9.028
 1840POPC   C1A26403  41.865  22.010   8.710
 1840POPC   D2A26404  42.012  22.346   8.444
 1840POPC   C3A26405  41.843  22.276   8.047
 1840POPC   C4A26406  41.676  21.867   7.882
 1840POPC   C1B26407  41.370  22.151   8.740
 1840POPC   C2B26408  41.429  22.084   8.303
 1840POPC   C3B26409  41.203  22.055   7.922
 1840POPC   C4B26410  41.461  22.303   7.703
 1841POPC   NC326411   5.110  32.094   9.570
 1841POPC   PO426412   4.670  32.632   9.511
 1841POPC   GL126413   5.090  32.558   9.276
 1841POPC   GL226414   5.147  32.265   9.099
 1841POPC   C1A26415   5.159  32.671   8.809
 1841POPC   D2A26416   5.261  32.441   8.393
 1841POPC   C3A26417   5.124  32.421   7.959
 1841POPC   C4A26418   4.937  32.434   7.559
 1841POPC   C1B26419   5.331  32.052   8.758
 1841POPC   C2B26420   5.433  31.973   8.326
 1841POPC   C3B26421   5.576  32.095   7.902
 1841POPC   C4B26422   5.552  32.084   7.416
 1842POPC   NC326423  35.170  34.346   9.541
 1842POPC   PO426424  35.770  34.527   9.373
 1842POPC   GL126425  35.411  34.548   9.092
 1842POPC   GL226426  35.033  34.507   9.087
 1842POPC   C1A26427  35.303  34.741   8.703
 1842POPC   D2A26428  35.549  34.752   8.326
 1842POPC   C3A26429  35.275  34.739   8.003
 1842POPC   C4A26430  35.436  34.563   7.678
 1842POPC   C1B26431  35.134  34.238   8.770
 1842POPC   C2B26432  35.258  34.324   8.380
 1842POPC   C3B26433  35.271  34.158   8.011
 1842POPC   C4B26434  35.017  34.301   7.724
 1843POPC   NC326435   2.412  26.312   9.561
 1843POPC   PO426436   3.046  26.085   9.496
 1843POPC   GL126437   2.766  26.167   9.177
 1843POPC   GL226438   2.547  26.461   9.099
 1843POPC   C1A26439   2.693  26.125   8.742
 1843POPC   D2A26440   2.865  26.111   8.344
 1843POPC   C3A26441   2.625  25.898   8.064
 1843POPC   C4A26442   2.888  26.066   7.758
 1843POPC   C1B26443   2.282  26.444   8.732
 1843POPC   C2B26444   2.403  26.345   8.322
 1843POPC   C3B26445   2.512  26.369   7.903
 1843POPC   C4B26446   2.506  26.404   7.428
 1844POPC   NC326447  41.566  42.034   9.511
 1844POPC   PO426448  41.499  41.313   9.533
 1844POPC   GL126449  41.575  41.557   9.168
 1844POPC   GL226450  41.891  41.725   9.278
 1844POPC   C1A26451  41.390  41.578   8.713
 1844POPC   D2A26452  41.448  41.324   8.335
 1844POPC   C3A26453  41.220  41.281   7.933
 1844POPC   C4A26454  41.434  41.411   7.514
 1844POPC   C1B26455  41.729  41.930   8.867
 1844POPC   C2B26456  41.687  41.855   8.409
 1844POPC   C3B26457  41.618  41.678   7.984
 1844POPC   C4B26458  41.613  41.875   7.552
 1845POPC   NC326459  10.367  21.989   9.545
 1845POPC   PO426460  10.996  22.301   9.468
 1845POPC   GL126461  10.722  22.209   9.093
 1845POPC   GL226462  10.377  22.091   9.060
 1845POPC   C1A26463  10.637  22.190   8.636
 1845POPC   D2A26464  10.788  21.943   8.273
 1845POPC   C3A26465  10.686  22.146   7.858
 1845POPC   C4A26466  10.668  22.441   7.498
 1845POPC   C1B26467  10.135  22.038   8.699
 1845POPC   C2B26468  10.263  21.994   8.281
 1845POPC   C3B26469  10.143  22.007   7.861
 1845POPC   C4B26470  10.362  22.040   7.462
 1846POPC   NC326471  41.952  41.122   9.590
 1846POPC   PO426472  42.426  40.631   9.446
 1846POPC   GL126473  42.472  40.698   9.027
 1846POPC   GL226474  42.559  41.044   9.060
 1846POPC   C1A26475  42.397  40.574   8.610
 1846POPC   D2A26476  42.399  40.501   8.179
 1846POPC   C3A26477  42.406  40.792   7.835
 1846POPC   C4A26478  42.179  40.713   7.442
 1846POPC   C1B26479  42.277  41.077   8.734
 1846POPC   C2B26480  42.220  40.974   8.313
 1846POPC   C3B26481  42.207  41.237   7.980
 1846POPC   C4B26482  42.119  41.187   7.574
 1847POPC   NC326483  29.807  22.263   9.700
 1847POPC   PO426484  30.360  21.926   9.550
 1847POPC   GL126485  30.117  22.224   9.238
 1847POPC   GL226486  29.768  22.391   9.208
 1847POPC   C1A26487  30.092  22.329   8.779
 1847POPC   D2A26488  30.035  21.923   8.536
 1847POPC   C3A26489  29.994  21.916   8.086
 1847POPC   C4A26490  29.957  22.001   7.639
 1847POPC   C1B26491  29.623  22.163   8.823
 1847POPC   C2B26492  29.700  22.270   8.375
 1847POPC   C3B26493  29.634  22.304   7.929
 1847POPC   C4B26494  29.624  22.514   7.556
 1848POPC   NC326495  44.936   2.607   9.547
 1848POPC   PO426496  44.590   3.192   9.579
 1848POPC   GL126497  44.785   2.984   9.155
 1848POPC   GL226498  44.940   2.628   9.050
 1848POPC   C1A26499  44.653   2.841   8.690
 1848POPC   D2A26500  44.745   2.688   8.278
 1848POPC   C3A26501  44.571   2.955   7.984
 1848POPC   C4A26502  44.398   2.866   7.598
 1848POPC   C1B26503   0.144   2.944   8.761
 1848POPC   C2B26504   0.096   3.079   8.324
 1848POPC   C3B26505   0.063   2.898   7.893
 1848POPC   C4B26506  44.790   2.549   7.740
 1849POPC   NC326507  16.865  38.958   9.495
 1849POPC   PO426508  16.515  39.483   9.508
 1849POPC   GL126509  16.780  39.334   9.144
 1849POPC   GL226510  16.937  39.602   9.027
 1849POPC   C1A26511  16.865  39.125   8.707
 1849POPC   D2A26512  17.133  39.092   8.325
 1849POPC   C3A26513  16.845  39.187   7.974
 1849POPC   C4A26514  16.898  39.541   7.720
 1849POPC   C1B26515  16.685  39.585   8.653
 1849POPC   C2B26516  16.564  39.518   8.218
 1849POPC   C3B26517  16.370  39.534   7.797
 1849POPC   C4B26518  16.268  39.487   7.365
 1850POPC   NC326519   1.598  23.465   9.327
 1850POPC   PO426520   2.185  23.903   9.440
 1850POPC   GL126521   1.870  23.864   9.105
 1850POPC   GL226522   1.944  23.558   8.970
 1850POPC   C1A26523   1.810  23.944   8.662
 1850POPC   D2A26524   1.748  23.716   8.273
 1850POPC   C3A26525   1.779  23.961   7.914
 1850POPC   C4A26526   2.143  24.124   7.778
 1850POPC   C1B26527   2.167  23.539   8.583
 1850POPC   C2B26528   2.319  23.746   8.205
 1850POPC   C3B26529   2.154  23.574   7.842
 1850POPC   C4B26530   2.135  23.302   7.441
 1851POPC   NC326531  28.444   8.521   9.571
 1851POPC   PO426532  28.467   7.991   9.156
 1851POPC   GL126533  28.316   8.374   9.099
 1851POPC   GL226534  28.655   8.499   9.115
 1851POPC   C1A26535  28.280   8.426   8.676
 1851POPC   D2A26536  28.541   8.123   8.440
 1851POPC   C3A26537  28.405   8.047   8.038
 1851POPC   C4A26538  28.070   8.222   7.811
 1851POPC   C1B26539  28.862   8.644   8.766
 1851POPC   C2B26540  28.668   8.613   8.421
 1851POPC   C3B26541  28.352   8.538   8.164
 1851POPC   C4B26542  28.511   8.477   7.774
 1852POPC   NC326543   3.733   9.235   9.461
 1852POPC   PO426544   3.234   8.808   9.567
 1852POPC   GL126545   3.388   8.764   9.156
 1852POPC   GL226546   3.363   9.106   9.089
 1852POPC   C1A26547   3.597   8.822   8.730
 1852POPC   D2A26548   3.827   8.900   8.359
 1852POPC   C3A26549   3.579   8.969   8.010
 1852POPC   C4A26550   3.690   8.916   7.630
 1852POPC   C1B26551   3.683   9.325   8.808
 1852POPC   C2B26552   3.864   9.416   8.389
 1852POPC   C3B26553   3.793   9.420   7.936
 1852POPC   C4B26554   3.999   9.304   7.560
 1853POPC   NC326555   4.522  17.286   9.541
 1853POPC   PO426556   4.202  17.861   9.459
 1853POPC   GL126557   4.097  17.492   9.209
 1853POPC   GL226558   4.408  17.501   9.090
 1853POPC   C1A26559   4.066  17.291   8.770
 1853POPC   D2A26560   4.072  17.517   8.358
 1853POPC   C3A26561   4.371  17.431   8.022
 1853POPC   C4A26562   4.334  17.544   7.595
 1853POPC   C1B26563   4.303  17.756   8.746
 1853POPC   C2B26564   4.458  17.855   8.335
 1853POPC   C3B26565   4.606  17.887   7.914
 1853POPC   C4B26566   4.804  17.749   7.538
 1854POPC   NC326567  24.072  12.280   9.401
 1854POPC   PO426568  24.794  12.117   9.521
 1854POPC   GL126569  24.624  12.166   9.118
 1854POPC   GL226570  24.340  11.959   9.128
 1854POPC   C1A26571  24.592  11.974   8.684
 1854POPC   D2A26572  24.774  11.969   8.293
 1854POPC   C3A26573  24.473  12.059   7.981
 1854POPC   C4A26574  24.574  12.229   7.594
 1854POPC   C1B26575  24.107  11.818   8.768
 1854POPC   C2B26576  24.227  11.715   8.341
 1854POPC   C3B26577  24.098  11.710   7.907
 1854POPC   C4B26578  24.312  11.784   7.527
 1855POPC   NC326579  20.951  29.468   9.369
 1855POPC   PO426580  20.532  29.965   9.559
 1855POPC   GL126581  20.670  29.861   9.140
 1855POPC   GL226582  20.809  30.141   9.056
 1855POPC   C1A26583  20.757  29.703   8.700
 1855POPC   D2A26584  20.819  29.891   8.286
 1855POPC   C3A26585  20.851  29.563   7.976
 1855POPC   C4A26586  20.702  29.706   7.564
 1855POPC   C1B26587  20.519  30.143   8.698
 1855POPC   C2B26588  20.340  30.116   8.282
 1855POPC   C3B26589  20.546  30.137   7.853
 1855POPC   C4B26590  20.335  30.036   7.446
 1856POPC   NC326591  26.910   3.192   9.479
 1856POPC   PO426592  26.562   3.785   9.503
 1856POPC   GL126593  26.768   3.564   9.128
 1856POPC   GL226594  27.061   3.342   9.029
 1856POPC   C1A26595  26.665   3.419   8.693
 1856POPC   D2A26596  26.729   3.690   8.325
 1856POPC   C3A26597  26.486   3.562   7.982
 1856POPC   C4A26598  26.726   3.333   7.714
 1856POPC   C1B26599  27.085   3.681   8.715
 1856POPC   C2B26600  27.153   4.000   8.427
 1856POPC   C3B26601  27.366   3.980   8.057
 1856POPC   C4B26602  27.141   3.714   7.759
 1857POPC   NC326603  42.744  40.290   9.531
 1857POPC   PO426604  43.149  39.789   9.531
 1857POPC   GL126605  43.024  39.943   9.155
 1857POPC   GL226606  43.178  40.250   9.064
 1857POPC   C1A26607  43.212  39.844   8.756
 1857POPC   D2A26608  43.097  39.975   8.381
 1857POPC   C3A26609  42.850  39.704   8.102
 1857POPC   C4A26610  42.797  39.651   7.648
 1857POPC   C1B26611  43.338  40.380   8.655
 1857POPC   C2B26612  43.330  40.410   8.185
 1857POPC   C3B26613  43.136  40.112   7.903
 1857POPC   C4B26614  43.306  39.687   7.834
 1858POPC   NC326615  44.549  21.845   9.781
 1858POPC   PO426616  44.854  22.400   9.597
 1858POPC   GL126617  44.657  22.098   9.305
 1858POPC   GL226618  44.857  22.252   9.093
 1858POPC   C1A26619  44.582  21.931   8.845
 1858POPC   D2A26620  44.689  22.048   8.410
 1858POPC   C3A26621  44.437  21.917   8.083
 1858POPC   C4A26622  44.389  22.144   7.698
 1858POPC   C1B26623  44.841  22.448   8.709
 1858POPC   C2B26624  44.866  22.666   8.358
 1858POPC   C3B26625  44.982  22.428   8.041
 1858POPC   C4B26626  44.861  22.323   7.678
 1859POPC   NC326627  31.282   7.300   9.465
 1859POPC   PO426628  31.815   7.584   9.531
 1859POPC   GL126629  31.601   7.555   9.145
 1859POPC   GL226630  31.338   7.774   9.084
 1859POPC   C1A26631  31.472   7.364   8.773
 1859POPC   D2A26632  31.223   7.321   8.429
 1859POPC   C3A26633  31.245   7.445   7.987
 1859POPC   C4A26634  31.558   7.239   7.798
 1859POPC   C1B26635  31.495   7.861   8.703
 1859POPC   C2B26636  31.623   7.650   8.316
 1859POPC   C3B26637  31.618   7.807   7.905
 1859POPC   C4B26638  31.305   7.859   7.598
 1860POPC   NC326639  30.736  38.840   9.864
 1860POPC   PO426640  30.753  38.281   9.480
 1860POPC   GL126641  30.804  38.413   9.069
 1860POPC   GL226642  31.023  38.135   9.019
 1860POPC   C1A26643  30.570  38.644   8.748
 1860POPC   D2A26644  30.450  38.617   8.351
 1860POPC   C3A26645  30.668  38.400   8.020
 1860POPC   C4A26646  30.384  38.648   7.787
 1860POPC   C1B26647  30.870  38.263   8.597
 1860POPC   C2B26648  30.999  38.588   8.371
 1860POPC   C3B26649  31.175  38.594   7.977
 1860POPC   C4B26650  31.207  38.378   7.579
 1861POPC   NC326651  18.612  28.105   9.481
 1861POPC   PO426652  19.140  28.579   9.553
 1861POPC   GL126653  18.943  28.408   9.213
 1861POPC   GL226654  19.242  28.480   8.999
 1861POPC   C1A26655  18.786  28.180   8.835
 1861POPC   D2A26656  19.050  28.228   8.459
 1861POPC   C3A26657  18.885  28.263   8.018
 1861POPC   C4A26658  19.152  28.249   7.623
 1861POPC   C1B26659  18.891  28.678   8.778
 1861POPC   C2B26660  18.795  28.667   8.365
 1861POPC   C3B26661  19.063  28.729   8.011
 1861POPC   C4B26662  18.826  28.686   7.660
 1862POPC   NC326663  27.815  33.595   9.564
 1862POPC   PO426664  27.880  34.320   9.577
 1862POPC   GL126665  27.720  34.037   9.207
 1862POPC   GL226666  27.608  33.676   9.103
 1862POPC   C1A26667  27.539  34.102   8.799
 1862POPC   D2A26668  27.397  33.965   8.386
 1862POPC   C3A26669  27.679  34.040   8.053
 1862POPC   C4A26670  27.434  34.057   7.724
 1862POPC   C1B26671  27.632  33.594   8.671
 1862POPC   C2B26672  27.890  33.663   8.328
 1862POPC   C3B26673  27.913  33.469   7.927
 1862POPC   C4B26674  27.493  33.560   7.773
 1863POPC   NC326675  22.506  22.067   9.199
 1863POPC   PO426676  22.966  22.223   9.619
 1863POPC   GL126677  22.983  22.274   9.178
 1863POPC   GL226678  22.974  21.931   9.059
 1863POPC   C1A26679  22.852  22.314   8.743
 1863POPC   D2A26680  22.856  22.048   8.452
 1863POPC   C3A26681  22.662  22.267   8.160
 1863POPC   C4A26682  22.645  22.327   7.737
 1863POPC   C1B26683  23.288  22.057   8.754
 1863POPC   C2B26684  23.335  21.959   8.315
 1863POPC   C3B26685  23.112  22.117   7.950
 1863POPC   C4B26686  23.189  22.250   7.518
 1864POPC   NC326687  11.658  39.810   9.427
 1864POPC   PO426688  10.968  39.940   9.413
 1864POPC   GL126689  11.259  39.810   9.105
 1864POPC   GL226690  11.386  40.144   9.110
 1864POPC   C1A26691  11.493  39.686   8.742
 1864POPC   D2A26692  11.562  39.945   8.367
 1864POPC   C3A26693  11.419  39.785   7.989
 1864POPC   C4A26694  11.685  39.573   7.708
 1864POPC   C1B26695  11.252  40.138   8.709
 1864POPC   C2B26696  11.082  40.131   8.323
 1864POPC   C3B26697  11.182  40.313   7.949
 1864POPC   C4B26698  11.141  40.248   7.524
 1865POPC   NC326699  38.568  30.159   9.513
 1865POPC   PO426700  38.804  29.505   9.493
 1865POPC   GL126701  38.566  29.797   9.145
 1865POPC   GL226702  38.272  29.672   8.982
 1865POPC   C1A26703  38.429  30.123   8.815
 1865POPC   D2A26704  38.122  30.191   8.455
 1865POPC   C3A26705  38.358  30.101   8.058
 1865POPC   C4A26706  38.662  30.039   7.697
 1865POPC   C1B26707  38.294  29.710   8.560
 1865POPC   C2B26708  38.512  29.510   8.275
 1865POPC   C3B26709  38.522  29.607   7.888
 1865POPC   C4B26710  38.225  29.846   7.635
 1866POPC   NC326711  25.142  41.300   9.534
 1866POPC   PO426712  25.313  41.977   9.469
 1866POPC   GL126713  25.389  41.660   9.182
 1866POPC   GL226714  25.048  41.550   9.087
 1866POPC   C1A26715  25.441  41.633   8.735
 1866POPC   D2A26716  25.127  41.756   8.423
 1866POPC   C3A26717  25.158  41.868   7.994
 1866POPC   C4A26718  25.243  41.708   7.591
 1866POPC   C1B26719  25.058  41.292   8.677
 1866POPC   C2B26720  25.372  41.314   8.325
 1866POPC   C3B26721  25.402  41.268   7.885
 1866POPC   C4B26722  25.233  40.945   7.631
 1867POPC   NC326723   4.804  19.962   9.575
 1867POPC   PO426724   4.292  19.490   9.512
 1867POPC   GL126725   4.333  19.798   9.165
 1867POPC   GL226726   4.016  19.612   9.043
 1867POPC   C1A26727   4.421  20.028   8.752
 1867POPC   D2A26728   4.468  19.983   8.280
 1867POPC   C3A26729   4.654  19.758   7.898
 1867POPC   C4A26730   4.686  19.769   7.424
 1867POPC   C1B26731   4.016  19.748   8.627
 1867POPC   C2B26732   4.178  19.565   8.284
 1867POPC   C3B26733   4.137  19.744   7.915
 1867POPC   C4B26734   4.248  19.543   7.541
 1868POPC   NC326735   1.278  28.209   9.380
 1868POPC   PO426736   0.942  28.816   9.473
 1868POPC   GL126737   1.198  28.726   9.099
 1868POPC   GL226738   1.519  28.543   9.091
 1868POPC   C1A26739   1.225  28.587   8.672
 1868POPC   D2A26740   1.411  28.418   8.293
 1868POPC   C3A26741   1.085  28.467   8.015
 1868POPC   C4A26742   0.839  28.509   7.696
 1868POPC   C1B26743   1.578  28.218   8.775
 1868POPC   C2B26744   1.896  28.051   8.494
 1868POPC   C3B26745   1.818  28.076   8.070
 1868POPC   C4B26746   1.413  28.089   7.839
 1869POPC   NC326747  10.541  29.608   9.384
 1869POPC   PO426748  10.769  30.085   9.827
 1869POPC   GL126749  10.689  30.102   9.272
 1869POPC   GL226750  10.698  29.855   8.989
 1869POPC   C1A26751  10.463  30.288   8.900
 1869POPC   D2A26752  10.297  30.010   8.584
 1869POPC   C3A26753  10.260  30.081   8.132
 1869POPC   C4A26754  10.393  29.966   7.731
 1869POPC   C1B26755  10.616  29.479   8.760
 1869POPC   C2B26756  10.784  29.421   8.388
 1869POPC   C3B26757  10.617  29.533   7.990
 1869POPC   C4B26758  10.669  29.496   7.559
 1870POPC   NC326759  37.033  24.274   9.604
 1870POPC   PO426760  37.022  24.833   9.264
 1870POPC   GL126761  36.922  24.428   9.134
 1870POPC   GL226762  37.226  24.238   9.118
 1870POPC   C1A26763  36.763  24.354   8.759
 1870POPC   D2A26764  36.796  24.747   8.477
 1870POPC   C3A26765  36.782  24.672   8.034
 1870POPC   C4A26766  36.698  24.281   7.835
 1870POPC   C1B26767  37.243  24.462   8.691
 1870POPC   C2B26768  37.042  24.303   8.326
 1870POPC   C3B26769  37.180  24.192   7.949
 1870POPC   C4B26770  37.108  24.123   7.545
 1871POPC   NC326771  22.771  13.515   9.567
 1871POPC   PO426772  22.989  14.150   9.529
 1871POPC   GL126773  22.969  13.798   9.177
 1871POPC   GL226774  23.057  13.394   9.179
 1871POPC   C1A26775  23.251  13.715   8.810
 1871POPC   D2A26776  23.368  13.881   8.379
 1871POPC   C3A26777  23.020  13.896   8.083
 1871POPC   C4A26778  22.709  13.568   7.939
 1871POPC   C1B26779  23.016  13.231   8.776
 1871POPC   C2B26780  23.010  13.478   8.400
 1871POPC   C3B26781  23.179  13.371   8.024
 1871POPC   C4B26782  23.045  13.061   7.729
 1872POPC   NC326783  43.900  35.508   9.534
 1872POPC   PO426784  44.057  34.909   9.472
 1872POPC   GL126785  43.912  35.232   9.115
 1872POPC   GL226786  43.647  35.516   9.095
 1872POPC   C1A26787  44.006  35.398   8.725
 1872POPC   D2A26788  44.131  35.278   8.329
 1872POPC   C3A26789  44.018  35.231   7.951
 1872POPC   C4A26790  44.089  35.460   7.624
 1872POPC   C1B26791  43.497  35.407   8.692
 1872POPC   C2B26792  43.615  35.288   8.273
 1872POPC   C3B26793  43.561  35.410   7.836
 1872POPC   C4B26794  43.265  35.567   7.591
 1873POPC   NC326795  27.917  10.543   9.553
 1873POPC   PO426796  27.303  10.657   9.671
 1873POPC   GL126797  27.399  10.551   9.218
 1873POPC   GL226798  27.741  10.662   9.086
 1873POPC   C1A26799  27.481  10.256   8.853
 1873POPC   D2A26800  27.505  10.046   8.456
 1873POPC   C3A26801  27.427  10.387   8.165
 1873POPC   C4A26802  27.655  10.470   7.815
 1873POPC   C1B26803  27.483  10.746   8.723
 1873POPC   C2B26804  27.469  10.922   8.335
 1873POPC   C3B26805  27.710  10.931   7.976
 1873POPC   C4B26806  27.493  10.852   7.553
 1874POPC   NC326807   9.856   2.810   9.807
 1874POPC   PO426808   9.338   2.969   9.430
 1874POPC   GL126809   9.739   2.810   9.282
 1874POPC   GL226810   9.920   3.131   9.352
 1874POPC   C1A26811   9.916   2.541   8.942
 1874POPC   D2A26812   9.998   2.334   8.522
 1874POPC   C3A26813   9.940   2.600   8.145
 1874POPC   C4A26814   9.756   2.557   7.724
 1874POPC   C1B26815   9.948   3.065   8.857
 1874POPC   C2B26816   9.712   3.020   8.441
 1874POPC   C3B26817   9.522   2.890   8.033
 1874POPC   C4B26818   9.472   2.959   7.586
 1875POPC   NC326819  36.677  19.027   9.390
 1875POPC   PO426820  37.175  19.372   9.467
 1875POPC   GL126821  37.141  19.043   9.153
 1875POPC   GL226822  37.260  18.720   9.046
 1875POPC   C1A26823  36.904  19.028   8.792
 1875POPC   D2A26824  36.769  19.327   8.521
 1875POPC   C3A26825  36.614  19.235   8.122
 1875POPC   C4A26826  36.866  19.353   7.767
 1875POPC   C1B26827  37.109  18.595   8.654
 1875POPC   C2B26828  36.882  18.807   8.345
 1875POPC   C3B26829  37.054  18.988   8.060
 1875POPC   C4B26830  37.055  18.763   7.721
 1876POPC   NC326831   4.922  34.698   9.511
 1876POPC   PO426832   5.302  34.188   9.409
 1876POPC   GL126833   5.023  34.409   9.114
 1876POPC   GL226834   5.213  34.716   9.081
 1876POPC   C1A26835   5.051  34.473   8.673
 1876POPC   D2A26836   5.341  34.619   8.352
 1876POPC   C3A26837   5.246  34.401   7.963
 1876POPC   C4A26838   5.173  34.541   7.539
 1876POPC   C1B26839   5.039  34.963   8.700
 1876POPC   C2B26840   4.880  34.805   8.301
 1876POPC   C3B26841   5.049  34.903   7.894
 1876POPC   C4B26842   4.865  34.978   7.487
 1877POPC   NC326843  36.524  16.541   9.863
 1877POPC   PO426844  37.025  16.955   9.638
 1877POPC   GL126845  36.960  16.942   9.181
 1877POPC   GL226846  36.962  16.598   9.146
 1877POPC   C1A26847  37.002  16.869   8.720
 1877POPC   D2A26848  36.886  16.560   8.422
 1877POPC   C3A26849  36.822  16.753   8.070
 1877POPC   C4A26850  37.032  16.975   7.776
 1877POPC   C1B26851  36.621  16.438   8.843
 1877POPC   C2B26852  36.434  16.335   8.404
 1877POPC   C3B26853  36.481  16.405   7.928
 1877POPC   C4B26854  36.599  16.737   7.600
 1878POPC   NC326855  42.625  25.334   9.463
 1878POPC   PO426856  42.040  25.141   9.623
 1878POPC   GL126857  42.152  25.278   9.241
 1878POPC   GL226858  42.057  24.948   9.125
 1878POPC   C1A26859  42.269  25.538   8.876
 1878POPC   D2A26860  42.544  25.442   8.513
 1878POPC   C3A26861  42.380  25.523   8.128
 1878POPC   C4A26862  42.094  25.441   7.795
 1878POPC   C1B26863  42.434  25.034   8.885
 1878POPC   C2B26864  42.531  24.912   8.482
 1878POPC   C3B26865  42.266  24.976   8.139
 1878POPC   C4B26866  42.318  24.980   7.714
 1879POPC   NC326867  18.619  42.588   9.529
 1879POPC   PO426868  18.042  42.278   9.441
 1879POPC   GL126869  18.347  42.263   9.108
 1879POPC   GL226870  18.440  42.593   9.048
 1879POPC   C1A26871  18.457  42.137   8.667
 1879POPC   D2A26872  18.530  41.904   8.258
 1879POPC   C3A26873  18.217  41.981   7.946
 1879POPC   C4A26874  18.085  42.393   7.818
 1879POPC   C1B26875  18.091  42.506   8.723
 1879POPC   C2B26876  18.079  42.629   8.282
 1879POPC   C3B26877  18.460  42.668   8.039
 1879POPC   C4B26878  18.737  42.502   7.711
 1880POPC   NC326879  15.801  34.276   9.715
 1880POPC   PO426880  15.800  33.698   9.453
 1880POPC   GL126881  15.759  33.775   9.033
 1880POPC   GL226882  15.512  34.003   9.011
 1880POPC   C1A26883  16.083  33.856   8.685
 1880POPC   D2A26884  16.310  33.763   8.296
 1880POPC   C3A26885  16.164  33.901   7.926
 1880POPC   C4A26886  15.922  33.662   7.679
 1880POPC   C1B26887  15.254  34.162   8.704
 1880POPC   C2B26888  15.390  33.841   8.433
 1880POPC   C3B26889  15.654  33.805   8.100
 1880POPC   C4B26890  15.715  34.105   7.805
 1881POPC   NC326891  35.133  36.216   9.476
 1881POPC   PO426892  35.732  36.069   9.550
 1881POPC   GL126893  35.513  36.179   9.138
 1881POPC   GL226894  35.238  36.022   9.032
 1881POPC   C1A26895  35.526  36.340   8.743
 1881POPC   D2A26896  35.406  36.066   8.393
 1881POPC   C3A26897  35.426  36.254   8.016
 1881POPC   C4A26898  35.181  36.130   7.688
 1881POPC   C1B26899  35.020  36.223   8.681
 1881POPC   C2B26900  34.910  35.989   8.280
 1881POPC   C3B26901  34.922  35.726   7.905
 1881POPC   C4B26902  35.114  35.669   7.480
 1882POPC   NC326903  24.118  16.564   9.477
 1882POPC   PO426904  24.623  17.070   9.536
 1882POPC   GL126905  24.440  16.836   9.209
 1882POPC   GL226906  24.553  16.492   9.216
 1882POPC   C1A26907  24.497  16.827   8.776
 1882POPC   D2A26908  24.296  17.132   8.511
 1882POPC   C3A26909  24.277  17.058   8.075
 1882POPC   C4A26910  24.302  16.909   7.689
 1882POPC   C1B26911  24.683  16.336   8.817
 1882POPC   C2B26912  24.766  16.419   8.378
 1882POPC   C3B26913  24.468  16.549   8.036
 1882POPC   C4B26914  24.576  16.490   7.627
 1883POPC   NC326915  30.858   8.663   9.377
 1883POPC   PO426916  30.363   8.241   9.342
 1883POPC   GL126917  30.641   8.062   9.086
 1883POPC   GL226918  30.990   8.127   9.209
 1883POPC   C1A26919  30.544   8.041   8.669
 1883POPC   D2A26920  30.599   7.832   8.312
 1883POPC   C3A26921  30.458   8.063   7.954
 1883POPC   C4A26922  30.686   8.177   7.555
 1883POPC   C1B26923  30.970   8.306   8.786
 1883POPC   C2B26924  30.931   8.263   8.351
 1883POPC   C3B26925  30.822   8.435   7.964
 1883POPC   C4B26926  30.686   8.675   7.573
 1884POPC   NC326927  43.567  16.931   9.438
 1884POPC   PO426928  43.886  16.307   9.540
 1884POPC   GL126929  43.834  16.523   9.123
 1884POPC   GL226930  43.950  16.862   9.047
 1884POPC   C1A26931  43.706  16.647   8.683
 1884POPC   D2A26932  43.521  16.698   8.276
 1884POPC   C3A26933  43.819  16.632   7.997
 1884POPC   C4A26934  43.961  16.495   7.641
 1884POPC   C1B26935  44.122  17.112   8.724
 1884POPC   C2B26936  44.123  17.110   8.269
 1884POPC   C3B26937  44.235  17.124   7.850
 1884POPC   C4B26938  44.327  17.081   7.399
 1885POPC   NC326939  17.284  30.408   9.525
 1885POPC   PO426940  17.638  30.976   9.579
 1885POPC   GL126941  17.470  30.800   9.237
 1885POPC   GL226942  17.687  30.582   9.153
 1885POPC   C1A26943  17.198  30.723   8.895
 1885POPC   D2A26944  17.352  30.830   8.480
 1885POPC   C3A26945  17.305  30.622   8.061
 1885POPC   C4A26946  17.556  30.798   7.723
 1885POPC   C1B26947  17.583  30.419   8.787
 1885POPC   C2B26948  17.782  30.317   8.428
 1885POPC   C3B26949  17.815  30.474   8.040
 1885POPC   C4B26950  17.800  30.320   7.645
 1886POPC   NC326951  11.981  27.599   9.472
 1886POPC   PO426952  12.476  27.113   9.468
 1886POPC   GL126953  12.231  27.295   9.136
 1886POPC   GL226954  12.247  27.138   8.844
 1886POPC   C1A26955  12.193  27.650   8.825
 1886POPC   D2A26956  12.025  27.824   8.437
 1886POPC   C3A26957  12.092  27.627   8.051
 1886POPC   C4A26958  11.838  27.600   7.713
 1886POPC   C1B26959  12.070  27.277   8.467
 1886POPC   C2B26960  12.402  27.200   8.197
 1886POPC   C3B26961  12.476  27.351   7.803
 1886POPC   C4B26962  12.208  27.388   7.439
 1887POPC   NC326963  33.009   7.683   9.527
 1887POPC   PO426964  33.402   7.039   9.521
 1887POPC   GL126965  33.228   7.225   9.151
 1887POPC   GL226966  33.230   7.581   9.104
 1887POPC   C1A26967  33.031   7.215   8.740
 1887POPC   D2A26968  32.828   7.347   8.350
 1887POPC   C3A26969  33.045   7.219   7.971
 1887POPC   C4A26970  33.419   7.193   7.736
 1887POPC   C1B26971  32.950   7.728   8.794
 1887POPC   C2B26972  32.925   7.844   8.367
 1887POPC   C3B26973  32.861   7.686   7.950
 1887POPC   C4B26974  33.093   7.597   7.574
 1888POPC   NC326975  10.799   3.015   9.339
 1888POPC   PO426976  10.288   2.914   9.721
 1888POPC   GL126977  10.311   2.821   9.244
 1888POPC   GL226978  10.379   3.171   9.124
 1888POPC   C1A26979  10.393   2.791   8.775
 1888POPC   D2A26980  10.758   2.839   8.454
 1888POPC   C3A26981  10.659   2.734   7.991
 1888POPC   C4A26982  10.261   2.712   7.723
 1888POPC   C1B26983  10.627   3.254   8.735
 1888POPC   C2B26984  10.307   3.164   8.409
 1888POPC   C3B26985  10.214   3.176   7.974
 1888POPC   C4B26986  10.572   3.152   7.696
 1889POPC   NC326987   8.677  25.186   9.528
 1889POPC   PO426988   9.312  25.130   9.460
 1889POPC   GL126989   8.999  25.192   9.126
 1889POPC   GL226990   8.776  25.513   9.112
 1889POPC   C1A26991   8.960  25.247   8.702
 1889POPC   D2A26992   8.990  25.528   8.354
 1889POPC   C3A26993   8.851  25.285   8.022
 1889POPC   C4A26994   8.890  24.867   7.902
 1889POPC   C1B26995   8.520  25.480   8.720
 1889POPC   C2B26996   8.455  25.562   8.265
 1889POPC   C3B26997   8.495  25.571   7.802
 1889POPC   C4B26998   8.884  25.455   7.531
 1890POPC   NC326999  42.591  26.324   9.437
 1890POPC   PO427000  42.036  25.897   9.500
 1890POPC   GL127001  42.002  26.101   9.108
 1890POPC   GL227002  42.236  26.347   9.089
 1890POPC   C1A27003  42.048  26.130   8.700
 1890POPC   D2A27004  42.145  25.835   8.453
 1890POPC   C3A27005  42.190  26.061   8.096
 1890POPC   C4A27006  42.408  25.885   7.756
 1890POPC   C1B27007  42.545  26.116   8.775
 1890POPC   C2B27008  42.633  25.985   8.325
 1890POPC   C3B27009  42.775  26.190   7.934
 1890POPC   C4B27010  42.694  26.219   7.469
 1891POPC   NC327011  42.425  22.433   9.419
 1891POPC   PO427012  42.488  21.830   9.624
 1891POPC   GL127013  42.321  21.888   9.201
 1891POPC   GL227014  42.296  22.193   8.967
 1891POPC   C1A27015  42.313  21.723   8.787
 1891POPC   D2A27016  42.486  22.025   8.503
 1891POPC   C3A27017  42.294  22.032   8.120
 1891POPC   C4A27018  42.141  21.983   7.728
 1891POPC   C1B27019  42.434  22.523   8.705
 1891POPC   C2B27020  42.467  22.519   8.259
 1891POPC   C3B27021  42.440  22.442   7.841
 1891POPC   C4B27022  42.074  22.484   7.642
 1892POPC   NC327023  36.144  12.301   9.448
 1892POPC   PO427024  35.774  11.906   9.751
 1892POPC   GL127025  35.905  11.972   9.165
 1892POPC   GL227026  36.255  12.079   8.981
 1892POPC   C1A27027  35.865  12.144   8.678
 1892POPC   D2A27028  36.176  12.409   8.408
 1892POPC   C3A27029  36.187  12.432   7.939
 1892POPC   C4A27030  36.112  12.207   7.530
 1892POPC   C1B27031  36.276  11.796   8.686
 1892POPC   C2B27032  36.114  11.840   8.292
 1892POPC   C3B27033  36.329  11.946   7.918
 1892POPC   C4B27034  36.400  11.803   7.479
 1893POPC   NC327035   6.421  12.430   9.761
 1893POPC   PO427036   6.540  11.853   9.413
 1893POPC   GL127037   6.531  12.036   9.035
 1893POPC   GL227038   6.464  12.398   9.097
 1893POPC   C1A27039   6.560  12.080   8.639
 1893POPC   D2A27040   6.309  12.183   8.339
 1893POPC   C3A27041   6.451  12.066   7.985
 1893POPC   C4A27042   6.543  11.868   7.626
 1893POPC   C1B27043   6.799  12.494   8.811
 1893POPC   C2B27044   7.029  12.296   8.482
 1893POPC   C3B27045   7.007  12.455   8.065
 1893POPC   C4B27046   6.783  12.334   7.679
 1894POPC   NC327047  24.004  25.837   9.631
 1894POPC   PO427048  23.344  25.952   9.623
 1894POPC   GL127049  23.507  26.022   9.224
 1894POPC   GL227050  23.651  25.691   9.207
 1894POPC   C1A27051  23.646  26.132   8.794
 1894POPC   D2A27052  23.405  26.087   8.386
 1894POPC   C3A27053  23.560  26.172   7.954
 1894POPC   C4A27054  23.577  26.427   7.570
 1894POPC   C1B27055  23.703  25.636   8.759
 1894POPC   C2B27056  23.870  25.856   8.381
 1894POPC   C3B27057  23.882  25.760   7.945
 1894POPC   C4B27058  23.528  25.549   7.806
 1895POPC   NC327059  18.891  17.395   9.560
 1895POPC   PO427060  18.199  17.420   9.616
 1895POPC   GL127061  18.326  17.538   9.172
 1895POPC   GL227062  18.606  17.799   9.157
 1895POPC   C1A27063  18.249  17.565   8.698
 1895POPC   D2A27064  18.438  17.505   8.249
 1895POPC   C3A27065  18.192  17.366   7.850
 1895POPC   C4A27066  18.184  16.984   7.558
 1895POPC   C1B27067  18.504  18.010   8.756
 1895POPC   C2B27068  18.235  17.969   8.359
 1895POPC   C3B27069  18.374  17.962   7.935
 1895POPC   C4B27070  18.481  17.908   7.452
 1896POPC   NC327071  14.447  36.083   9.557
 1896POPC   PO427072  13.976  35.665   9.457
 1896POPC   GL127073  14.027  36.072   9.216
 1896POPC   GL227074  14.317  36.211   9.069
 1896POPC   C1A27075  14.027  35.960   8.763
 1896POPC   D2A27076  14.132  36.087   8.378
 1896POPC   C3A27077  14.243  35.841   8.034
 1896POPC   C4A27078  14.161  36.082   7.669
 1896POPC   C1B27079  14.528  36.212   8.666
 1896POPC   C2B27080  14.659  36.023   8.285
 1896POPC   C3B27081  14.637  36.153   7.861
 1896POPC   C4B27082  14.612  36.168   7.426
 1897POPC   NC327083  42.261  44.471   9.853
 1897POPC   PO427084  42.839  44.731   9.574
 1897POPC   GL127085  42.564  44.631   9.176
 1897POPC   GL227086  42.184  44.650   9.171
 1897POPC   C1A27087  42.536  44.686   8.727
 1897POPC   D2A27088  42.496  44.896   8.323
 1897POPC   C3A27089  42.668  44.842   7.887
 1897POPC   C4A27090  42.355  44.743   7.523
 1897POPC   C1B27091  42.095  44.409   8.782
 1897POPC   C2B27092  42.272  44.401   8.390
 1897POPC   C3B27093  42.185  44.571   8.003
 1897POPC   C4B27094  42.073  44.349   7.671
 1898POPC   NC327095  15.485  25.286   9.338
 1898POPC   PO427096  14.822  25.500   9.431
 1898POPC   GL127097  15.026  25.164   9.155
 1898POPC   GL227098  15.103  25.477   8.974
 1898POPC   C1A27099  15.244  25.056   8.749
 1898POPC   D2A27100  15.292  25.259   8.354
 1898POPC   C3A27101  15.407  25.077   8.005
 1898POPC   C4A27102  15.067  25.118   7.788
 1898POPC   C1B27103  15.495  25.522   8.741
 1898POPC   C2B27104  15.700  25.575   8.335
 1898POPC   C3B27105  15.653  25.521   7.913
 1898POPC   C4B27106  15.424  25.364   7.561
 1899POPC   NC327107  36.292   6.878   9.482
 1899POPC   PO427108  35.708   6.536   9.426
 1899POPC   GL127109  35.878   6.797   9.150
 1899POPC   GL227110  36.153   6.552   9.086
 1899POPC   C1A27111  36.078   6.991   8.814
 1899POPC   D2A27112  36.170   6.877   8.411
 1899POPC   C3A27113  35.977   6.924   8.005
 1899POPC   C4A27114  35.967   6.518   7.795
 1899POPC   C1B27115  36.508   6.438   8.827
 1899POPC   C2B27116  36.601   6.596   8.441
 1899POPC   C3B27117  36.435   6.615   8.041
 1899POPC   C4B27118  36.594   6.333   7.732
 1900POPC   NC327119  28.396  34.216   9.467
 1900POPC   PO427120  28.265  33.479   9.506
 1900POPC   GL127121  28.170  33.742   9.182
 1900POPC   GL227122  28.527  33.792   9.170
 1900POPC   C1A27123  28.043  33.915   8.782
 1900POPC   D2A27124  28.203  34.071   8.379
 1900POPC   C3A27125  28.281  33.805   8.014
 1900POPC   C4A27126  28.359  33.707   7.574
 1900POPC   C1B27127  28.563  34.026   8.796
 1900POPC   C2B27128  28.700  34.175   8.403
 1900POPC   C3B27129  28.593  34.214   8.007
 1900POPC   C4B27130  28.730  34.068   7.613
 1901POPC   NC327131  34.253  14.035   9.365
 1901POPC   PO427132  34.481  13.429   9.507
 1901POPC   GL127133  34.552  13.673   9.162
 1901POPC   GL227134  34.223  13.594   9.068
 1901POPC   C1A27135  34.477  13.897   8.749
 1901POPC   D2A27136  34.304  13.703   8.390
 1901POPC   C3A27137  34.481  13.761   7.988
 1901POPC   C4A27138  34.721  13.897   7.579
 1901POPC   C1B27139  34.090  13.312   8.719
 1901POPC   C2B27140  34.173  13.199   8.297
 1901POPC   C3B27141  34.241  13.318   7.887
 1901POPC   C4B27142  34.235  13.661   7.573
 1902POPC   NC327143  15.422  35.185   9.542
 1902POPC   PO427144  14.976  35.668   9.478
 1902POPC   GL127145  15.160  35.433   9.140
 1902POPC   GL227146  15.531  35.474   9.128
 1902POPC   C1A27147  15.000  35.340   8.719
 1902POPC   D2A27148  14.871  35.023   8.400
 1902POPC   C3A27149  14.797  35.103   7.954
 1902POPC   C4A27150  15.004  35.275   7.590
 1902POPC   C1B27151  15.441  35.665   8.724
 1902POPC   C2B27152  15.200  35.651   8.336
 1902POPC   C3B27153  15.296  35.536   7.924
 1902POPC   C4B27154  15.476  35.150   7.812
 1903POPC   NC327155   5.378  15.797   9.340
 1903POPC   PO427156   4.859  16.157   9.503
 1903POPC   GL127157   4.894  15.816   9.155
 1903POPC   GL227158   5.067  16.034   8.935
 1903POPC   C1A27159   4.922  15.623   8.703
 1903POPC   D2A27160   5.057  15.762   8.287
 1903POPC   C3A27161   4.959  15.775   7.857
 1903POPC   C4A27162   5.234  15.911   7.502
 1903POPC   C1B27163   4.733  16.079   8.573
 1903POPC   C2B27164   4.764  16.222   8.115
 1903POPC   C3B27165   4.929  16.265   7.694
 1903POPC   C4B27166   5.325  16.411   7.489
 1904POPC   NC327167  15.760  10.678   9.279
 1904POPC   PO427168  16.201  11.084   9.641
 1904POPC   GL127169  16.020  11.096   9.183
 1904POPC   GL227170  15.669  11.243   9.116
 1904POPC   C1A27171  15.933  11.132   8.707
 1904POPC   D2A27172  16.047  11.334   8.314
 1904POPC   C3A27173  15.807  11.256   7.918
 1904POPC   C4A27174  15.753  10.866   7.709
 1904POPC   C1B27175  15.712  11.584   8.709
 1904POPC   C2B27176  15.767  11.742   8.223
 1904POPC   C3B27177  16.117  11.647   7.880
 1904POPC   C4B27178  16.345  11.535   7.474
 1905POPC   NC327179  28.859  42.400   9.552
 1905POPC   PO427180  29.436  42.800   9.474
 1905POPC   GL127181  29.316  42.452   9.195
 1905POPC   GL227182  29.413  42.086   9.123
 1905POPC   C1A27183  29.103  42.386   8.813
 1905POPC   D2A27184  29.127  42.605   8.429
 1905POPC   C3A27185  28.987  42.471   8.029
 1905POPC   C4A27186  28.700  42.687   7.824
 1905POPC   C1B27187  29.193  41.885   8.743
 1905POPC   C2B27188  29.150  42.090   8.349
 1905POPC   C3B27189  29.469  42.371   8.141
 1905POPC   C4B27190  29.409  42.474   7.708
 1906POPC   NC327191  33.645   1.854   9.726
 1906POPC   PO427192  34.050   2.247   9.535
 1906POPC   GL127193  34.176   1.993   9.159
 1906POPC   GL227194  34.153   2.306   9.020
 1906POPC   C1A27195  34.142   1.653   8.808
 1906POPC   D2A27196  33.792   1.544   8.532
 1906POPC   C3A27197  33.868   1.593   8.093
 1906POPC   C4A27198  33.841   1.932   7.797
 1906POPC   C1B27199  33.854   2.072   8.769
 1906POPC   C2B27200  33.846   2.045   8.338
 1906POPC   C3B27201  33.752   2.371   8.054
 1906POPC   C4B27202  33.912   2.446   7.676
 1907POPC   NC327203  17.217  40.435   9.899
 1907POPC   PO427204  17.586  40.939   9.642
 1907POPC   GL127205  17.715  40.722   9.266
 1907POPC   GL227206  17.421  40.839   9.108
 1907POPC   C1A27207  17.850  40.849   8.840
 1907POPC   D2A27208  17.782  41.072   8.435
 1907POPC   C3A27209  17.646  40.786   8.097
 1907POPC   C4A27210  17.745  40.681   7.657
 1907POPC   C1B27211  17.436  40.572   8.745
 1907POPC   C2B27212  17.142  40.426   8.463
 1907POPC   C3B27213  17.310  40.395   8.089
 1907POPC   C4B27214  17.253  40.603   7.706
 1908POPC   NC327215  10.264   1.253   9.549
 1908POPC   PO427216   9.561   1.434   9.580
 1908POPC   GL127217   9.584   1.181   9.218
 1908POPC   GL227218   9.932   1.225   9.175
 1908POPC   C1A27219   9.572   1.161   8.768
 1908POPC   D2A27220   9.665   0.927   8.401
 1908POPC   C3A27221   9.436   1.004   8.040
 1908POPC   C4A27222   9.484   1.385   7.789
 1908POPC   C1B27223  10.024   1.443   8.830
 1908POPC   C2B27224  10.067   1.252   8.432
 1908POPC   C3B27225   9.934   1.198   8.008
 1908POPC   C4B27226  10.255   1.370   7.785
 1909POPC   NC327227  13.077   3.035   9.509
 1909POPC   PO427228  12.453   2.822   9.572
 1909POPC   GL127229  12.739   2.758   9.185
 1909POPC   GL227230  12.670   2.412   9.149
 1909POPC   C1A27231  12.890   2.848   8.724
 1909POPC   D2A27232  12.843   2.937   8.260
 1909POPC   C3A27233  12.858   2.698   7.860
 1909POPC   C4A27234  13.073   2.877   7.464
 1909POPC   C1B27235  12.520   2.494   8.718
 1909POPC   C2B27236  12.531   2.501   8.243
 1909POPC   C3B27237  12.364   2.463   7.781
 1909POPC   C4B27238  12.451   2.578   7.312
 1910POPC   NC327239  42.692  30.894   9.492
 1910POPC   PO427240  43.221  30.374   9.466
 1910POPC   GL127241  43.042  30.627   9.163
 1910POPC   GL227242  43.139  30.987   9.189
 1910POPC   C1A27243  43.129  30.681   8.735
 1910POPC   D2A27244  42.992  30.471   8.376
 1910POPC   C3A27245  43.179  30.676   8.063
 1910POPC   C4A27246  42.983  30.817   7.784
 1910POPC   C1B27247  42.873  31.133   8.827
 1910POPC   C2B27248  42.910  31.085   8.374
 1910POPC   C3B27249  42.633  31.108   8.002
 1910POPC   C4B27250  42.511  30.893   7.634
 1911POPC   NC327251  19.685  17.215   9.954
 1911POPC   PO427252  20.029  17.072   9.372
 1911POPC   GL127253  20.021  16.934   9.008
 1911POPC   GL227254  19.669  16.873   9.057
 1911POPC   C1A27255  20.096  16.742   8.631
 1911POPC   D2A27256  19.884  16.755   8.246
 1911POPC   C3A27257  20.033  16.751   7.815
 1911POPC   C4A27258  19.983  16.692   7.359
 1911POPC   C1B27259  19.604  16.647   8.699
 1911POPC   C2B27260  19.543  16.382   8.348
 1911POPC   C3B27261  19.600  16.473   7.900
 1911POPC   C4B27262  19.818  16.258   7.544
 1912POPC   NC327263   8.707  36.356   9.403
 1912POPC   PO427264   9.136  35.900   9.426
 1912POPC   GL127265   8.960  36.106   9.058
 1912POPC   GL227266   8.628  35.897   9.111
 1912POPC   C1A27267   9.071  36.372   8.685
 1912POPC   D2A27268   8.998  36.717   8.365
 1912POPC   C3A27269   9.118  36.552   7.959
 1912POPC   C4A27270   8.846  36.280   7.713
 1912POPC   C1B27271   8.615  36.070   8.690
 1912POPC   C2B27272   8.810  36.096   8.254
 1912POPC   C3B27273   8.731  35.818   7.876
 1912POPC   C4B27274   8.713  35.790   7.411
 1913POPC   NC327275  33.604  24.052   9.582
 1913POPC   PO427276  33.378  24.656   9.514
 1913POPC   GL127277  33.617  24.425   9.164
 1913POPC   GL227278  33.926  24.231   9.164
 1913POPC   C1A27279  33.736  24.535   8.729
 1913POPC   D2A27280  33.798  24.449   8.277
 1913POPC   C3A27281  33.581  24.539   7.931
 1913POPC   C4A27282  33.630  24.920   7.675
 1913POPC   C1B27283  34.129  24.228   8.749
 1913POPC   C2B27284  34.073  24.049   8.296
 1913POPC   C3B27285  34.100  24.280   7.869
 1913POPC   C4B27286  33.874  24.495   7.520
 1914POPC   NC327287  43.383  26.721   9.436
 1914POPC   PO427288  42.816  26.581   9.749
 1914POPC   GL127289  42.977  26.991   9.293
 1914POPC   GL227290  43.310  26.987   9.025
 1914POPC   C1A27291  42.860  26.933   8.802
 1914POPC   D2A27292  42.889  26.529   8.579
 1914POPC   C3A27293  43.039  26.592   8.161
 1914POPC   C4A27294  43.103  26.958   7.879
 1914POPC   C1B27295  43.561  26.636   8.807
 1914POPC   C2B27296  43.485  26.304   8.489
 1914POPC   C3B27297  43.490  26.371   8.035
 1914POPC   C4B27298  43.595  26.753   7.761
 1915POPC   NC327299  16.198  27.884   9.533
 1915POPC   PO427300  15.851  27.212   9.504
 1915POPC   GL127301  15.853  27.609   9.256
 1915POPC   GL227302  16.198  27.613   9.094
 1915POPC   C1A27303  15.825  27.853   8.858
 1915POPC   D2A27304  16.096  27.751   8.514
 1915POPC   C3A27305  15.916  27.575   8.159
 1915POPC   C4A27306  15.992  27.661   7.759
 1915POPC   C1B27307  16.316  27.329   8.764
 1915POPC   C2B27308  16.401  27.391   8.338
 1915POPC   C3B27309  16.369  27.398   7.935
 1915POPC   C4B27310  16.506  27.268   7.589
 1916POPC   NC327311  14.277   7.820   9.421
 1916POPC   PO427312  14.719   8.391   9.446
 1916POPC   GL127313  14.494   8.189   9.122
 1916POPC   GL227314  14.683   7.861   9.136
 1916POPC   C1A27315  14.350   8.201   8.677
 1916POPC   D2A27316  14.333   7.980   8.278
 1916POPC   C3A27317  14.479   8.194   7.907
 1916POPC   C4A27318  14.403   8.157   7.470
 1916POPC   C1B27319  14.560   7.732   8.753
 1916POPC   C2B27320  14.612   7.562   8.365
 1916POPC   C3B27321  14.833   7.781   8.048
 1916POPC   C4B27322  14.825   7.915   7.631
 1917POPC   NC327323  38.555  34.254   9.376
 1917POPC   PO427324  38.267  33.690   9.572
 1917POPC   GL127325  38.353  33.587   9.103
 1917POPC   GL227326  38.416  33.952   8.975
 1917POPC   C1A27327  38.603  33.542   8.684
 1917POPC   D2A27328  38.690  33.954   8.451
 1917POPC   C3A27329  38.488  34.043   8.050
 1917POPC   C4A27330  38.590  33.779   7.679
 1917POPC   C1B27331  38.197  33.849   8.603
 1917POPC   C2B27332  38.126  33.479   8.420
 1917POPC   C3B27333  38.247  33.576   8.012
 1917POPC   C4B27334  38.082  33.878   7.753
 1918POPC   NC327335  43.600  34.732   9.545
 1918POPC   PO427336  42.972  34.571   9.535
 1918POPC   GL127337  43.000  34.523   9.140
 1918POPC   GL227338  43.275  34.707   9.116
 1918POPC   C1A27339  42.845  34.496   8.772
 1918POPC   D2A27340  43.021  34.523   8.354
 1918POPC   C3A27341  42.829  34.336   8.018
 1918POPC   C4A27342  42.981  34.299   7.576
 1918POPC   C1B27343  43.355  34.452   8.737
 1918POPC   C2B27344  43.555  34.330   8.322
 1918POPC   C3B27345  43.348  34.368   7.954
 1918POPC   C4B27346  43.097  34.722   7.827
 1919POPC   NC327347  30.080  39.920   9.661
 1919POPC   PO427348  29.528  40.165   9.369
 1919POPC   GL127349  29.870  39.939   9.179
 1919POPC   GL227350  30.202  40.090   9.198
 1919POPC   C1A27351  29.874  39.809   8.767
 1919POPC   D2A27352  29.751  40.036   8.389
 1919POPC   C3A27353  29.763  39.747   8.059
 1919POPC   C4A27354  29.672  39.812   7.657
 1919POPC   C1B27355  30.459  40.322   8.935
 1919POPC   C2B27356  30.508  40.336   8.507
 1919POPC   C3B27357  30.181  40.365   8.188
 1919POPC   C4B27358  30.095  40.099   7.823
 1920POPC   NC327359  44.478  22.682   9.532
 1920POPC   PO427360  44.947  23.076   9.648
 1920POPC   GL127361  44.694  23.070   9.241
 1920POPC   GL227362  44.747  22.746   9.108
 1920POPC   C1A27363  44.451  23.024   8.807
 1920POPC   D2A27364  44.377  22.847   8.407
 1920POPC   C3A27365  44.512  23.163   8.132
 1920POPC   C4A27366  44.878  23.206   7.875
 1920POPC   C1B27367  44.376  22.509   8.908
 1920POPC   C2B27368  44.264  22.332   8.509
 1920POPC   C3B27369  44.451  22.449   8.098
 1920POPC   C4B27370  44.629  22.758   7.812
 1921POPC   NC327371  36.966   8.581   9.496
 1921POPC   PO427372  36.639   7.962   9.408
 1921POPC   GL127373  36.747   8.103   9.048
 1921POPC   GL227374  37.042   8.269   9.086
 1921POPC   C1A27375  36.925   7.973   8.676
 1921POPC   D2A27376  37.131   8.095   8.340
 1921POPC   C3A27377  36.852   8.067   7.993
 1921POPC   C4A27378  36.752   8.147   7.578
 1921POPC   C1B27379  37.235   8.501   8.727
 1921POPC   C2B27380  37.394   8.541   8.296
 1921POPC   C3B27381  37.167   8.479   7.891
 1921POPC   C4B27382  37.113   8.463   7.433
 1922POPC   NC327383  10.200  13.017   9.607
 1922POPC   PO427384  10.652  12.560   9.596
 1922POPC   GL127385  10.559  12.854   9.229
 1922POPC   GL227386  10.242  13.032   9.123
 1922POPC   C1A27387  10.495  12.644   8.828
 1922POPC   D2A27388  10.811  12.553   8.495
 1922POPC   C3A27389  10.803  12.763   8.106
 1922POPC   C4A27390  10.582  12.815   7.705
 1922POPC   C1B27391  10.323  13.129   8.745
 1922POPC   C2B27392  10.185  12.821   8.465
 1922POPC   C3B27393  10.275  12.752   8.092
 1922POPC   C4B27394  10.291  13.154   7.928
 1923POPC   NC327395  41.656  32.046   9.580
 1923POPC   PO427396  41.233  32.610   9.427
 1923POPC   GL127397  41.342  32.260   9.147
 1923POPC   GL227398  41.649  32.194   9.092
 1923POPC   C1A27399  41.372  31.984   8.729
 1923POPC   D2A27400  41.419  32.307   8.444
 1923POPC   C3A27401  41.368  32.480   8.058
 1923POPC   C4A27402  41.503  32.346   7.681
 1923POPC   C1B27403  41.824  32.362   8.742
 1923POPC   C2B27404  42.055  32.426   8.388
 1923POPC   C3B27405  41.896  32.485   8.000
 1923POPC   C4B27406  42.011  32.288   7.636
 1924POPC   NC327407   7.207  38.072   9.563
 1924POPC   PO427408   7.666  38.632   9.450
 1924POPC   GL127409   7.470  38.404   9.108
 1924POPC   GL227410   7.514  38.053   9.105
 1924POPC   C1A27411   7.495  38.301   8.667
 1924POPC   D2A27412   7.545  38.491   8.274
 1924POPC   C3A27413   7.675  38.410   7.881
 1924POPC   C4A27414   7.415  38.211   7.705
 1924POPC   C1B27415   7.802  37.912   8.769
 1924POPC   C2B27416   7.878  38.079   8.337
 1924POPC   C3B27417   7.796  37.905   7.921
 1924POPC   C4B27418   7.834  38.007   7.483
 1925POPC   NC327419  31.551  37.815   9.448
 1925POPC   PO427420  31.652  37.215   9.159
 1925POPC   GL127421  31.543  37.539   8.941
 1925POPC   GL227422  31.231  37.644   8.963
 1925POPC   C1A27423  31.559  37.521   8.541
 1925POPC   D2A27424  31.514  37.718   8.196
 1925POPC   C3A27425  31.572  37.461   7.872
 1925POPC   C4A27426  31.604  37.663   7.469
 1925POPC   C1B27427  31.278  37.958   8.599
 1925POPC   C2B27428  31.186  38.123   8.183
 1925POPC   C3B27429  31.273  37.915   7.782
 1925POPC   C4B27430  31.099  37.607   7.553
 1926POPC   NC327431  15.006  25.898   9.587
 1926POPC   PO427432  15.263  26.493   9.465
 1926POPC   GL127433  15.078  26.205   9.179
 1926POPC   GL227434  15.321  25.910   9.183
 1926POPC   C1A27435  14.836  26.333   8.780
 1926POPC   D2A27436  14.698  26.403   8.332
 1926POPC   C3A27437  14.983  26.170   8.071
 1926POPC   C4A27438  14.854  25.912   7.730
 1926POPC   C1B27439  15.254  25.996   8.745
 1926POPC   C2B27440  15.190  25.765   8.367
 1926POPC   C3B27441  15.168  25.603   7.956
 1926POPC   C4B27442  15.339  25.860   7.597
 1927POPC   NC327443  41.166  17.107   9.439
 1927POPC   PO427444  41.572  17.671   9.466
 1927POPC   GL127445  41.621  17.505   9.085
 1927POPC   GL227446  41.546  17.162   9.083
 1927POPC   C1A27447  41.804  17.422   8.690
 1927POPC   D2A27448  41.812  17.204   8.299
 1927POPC   C3A27449  41.867  17.462   7.923
 1927POPC   C4A27450  41.777  17.632   7.490
 1927POPC   C1B27451  41.201  17.328   8.816
 1927POPC   C2B27452  41.042  17.302   8.398
 1927POPC   C3B27453  41.271  17.157   8.066
 1927POPC   C4B27454  41.433  17.301   7.702
 1928POPC   NC327455  23.943   0.465   9.661
 1928POPC   PO427456  24.571   0.763   9.438
 1928POPC   GL127457  24.342   0.562   9.162
 1928POPC   GL227458  24.092   0.838   9.190
 1928POPC   C1A27459  24.497   0.371   8.755
 1928POPC   D2A27460  24.666   0.531   8.358
 1928POPC   C3A27461  24.483   0.426   7.972
 1928POPC   C4A27462  24.585   0.634   7.599
 1928POPC   C1B27463  24.216   0.798   8.741
 1928POPC   C2B27464  24.352   0.938   8.324
 1928POPC   C3B27465  24.213   0.869   7.881
 1928POPC   C4B27466  24.124   1.022   7.433
 1929POPC   NC327467  21.789  43.125   9.464
 1929POPC   PO427468  21.313  43.519   9.652
 1929POPC   GL127469  21.369  43.293   9.222
 1929POPC   GL227470  21.300  42.961   9.119
 1929POPC   C1A27471  21.490  43.261   8.763
 1929POPC   D2A27472  21.354  43.107   8.380
 1929POPC   C3A27473  21.490  43.397   8.065
 1929POPC   C4A27474  21.511  43.580   7.687
 1929POPC   C1B27475  21.013  42.978   8.790
 1929POPC   C2B27476  20.928  42.798   8.390
 1929POPC   C3B27477  21.147  42.804   8.008
 1929POPC   C4B27478  21.026  42.956   7.647
 1930POPC   NC327479  13.636  36.248   9.607
 1930POPC   PO427480  13.334  35.691   9.712
 1930POPC   GL127481  13.557  35.910   9.247
 1930POPC   GL227482  13.572  36.318   9.130
 1930POPC   C1A27483  13.513  35.965   8.783
 1930POPC   D2A27484  13.692  35.821   8.397
 1930POPC   C3A27485  13.754  36.058   8.014
 1930POPC   C4A27486  13.409  36.039   7.716
 1930POPC   C1B27487  13.847  36.431   8.812
 1930POPC   C2B27488  13.664  36.393   8.408
 1930POPC   C3B27489  13.587  36.543   7.988
 1930POPC   C4B27490  13.886  36.505   7.665
 1931POPC   NC327491  30.374  38.518   9.350
 1931POPC   PO427492  29.763  38.419   9.466
 1931POPC   GL127493  29.934  38.654   9.114
 1931POPC   GL227494  29.754  38.483   8.866
 1931POPC   C1A27495  30.073  38.839   8.715
 1931POPC   D2A27496  29.934  38.642   8.326
 1931POPC   C3A27497  29.922  38.853   7.910
 1931POPC   C4A27498  30.033  38.862   7.455
 1931POPC   C1B27499  30.173  38.283   8.761
 1931POPC   C2B27500  30.413  38.112   8.421
 1931POPC   C3B27501  30.158  38.265   8.070
 1931POPC   C4B27502  29.793  38.199   7.803
 1932POPC   NC327503  33.228   1.087   9.521
 1932POPC   PO427504  32.598   1.319   9.501
 1932POPC   GL127505  32.840   1.105   9.166
 1932POPC   GL227506  32.837   1.419   9.010
 1932POPC   C1A27507  33.023   1.053   8.718
 1932POPC   D2A27508  32.839   1.005   8.310
 1932POPC   C3A27509  32.990   1.188   7.960
 1932POPC   C4A27510  32.940   0.996   7.566
 1932POPC   C1B27511  32.591   1.284   8.650
 1932POPC   C2B27512  32.562   1.434   8.217
 1932POPC   C3B27513  32.542   1.303   7.771
 1932POPC   C4B27514  32.745   1.419   7.352
 1933POPC   NC327515   2.467  11.537   9.482
 1933POPC   PO427516   2.833  11.025   9.516
 1933POPC   GL127517   2.936  11.287   9.187
 1933POPC   GL227518   2.617  11.353   9.041
 1933POPC   C1A27519   3.085  11.492   8.815
 1933POPC   D2A27520   2.861  11.657   8.475
 1933POPC   C3A27521   2.905  11.361   8.137
 1933POPC   C4A27522   2.933  11.471   7.712
 1933POPC   C1B27523   2.695  11.200   8.654
 1933POPC   C2B27524   2.542  11.035   8.304
 1933POPC   C3B27525   2.320  11.212   8.071
 1933POPC   C4B27526   2.442  11.292   7.708
 1934POPC   NC327527   3.015  37.783   9.747
 1934POPC   PO427528   2.411  37.992   9.450
 1934POPC   GL127529   2.605  37.707   9.167
 1934POPC   GL227530   2.945  37.752   9.183
 1934POPC   C1A27531   2.675  37.493   8.784
 1934POPC   D2A27532   2.827  37.552   8.376
 1934POPC   C3A27533   2.684  37.338   8.006
 1934POPC   C4A27534   3.067  37.232   7.803
 1934POPC   C1B27535   2.843  38.003   8.761
 1934POPC   C2B27536   2.766  38.063   8.324
 1934POPC   C3B27537   2.794  37.840   7.899
 1934POPC   C4B27538   2.682  37.804   7.427
 1935POPC   NC327539  42.459  44.985   9.515
 1935POPC   PO427540  42.132   0.515   9.468
 1935POPC   GL127541  42.364   0.364   9.155
 1935POPC   GL227542  42.626   0.647   9.190
 1935POPC   C1A27543  42.280   0.140   8.764
 1935POPC   D2A27544  42.198   0.323   8.363
 1935POPC   C3A27545  42.374   0.246   7.970
 1935POPC   C4A27546  42.154   0.209   7.612
 1935POPC   C1B27547  42.521   0.628   8.747
 1935POPC   C2B27548  42.402   0.787   8.377
 1935POPC   C3B27549  42.561   0.749   8.016
 1935POPC   C4B27550  42.471   0.630   7.633
 1936POPC   NC327551  39.413  14.900   9.318
 1936POPC   PO427552  39.054  14.265   9.419
 1936POPC   GL127553  39.246  14.439   9.124
 1936POPC   GL227554  39.023  14.701   9.033
 1936POPC   C1A27555  39.469  14.194   8.841
 1936POPC   D2A27556  39.581  14.236   8.434
 1936POPC   C3A27557  39.288  14.360   8.154
 1936POPC   C4A27558  39.399  14.384   7.755
 1936POPC   C1B27559  39.125  14.531   8.641
 1936POPC   C2B27560  38.819  14.479   8.343
 1936POPC   C3B27561  38.808  14.581   7.942
 1936POPC   C4B27562  38.989  14.613   7.562
 1937POPC   NC327563  25.782  42.057   9.448
 1937POPC   PO427564  26.353  42.446   9.437
 1937POPC   GL127565  26.013  42.406   9.143
 1937POPC   GL227566  26.161  42.087   9.091
 1937POPC   C1A27567  25.896  42.318   8.684
 1937POPC   D2A27568  26.052  42.512   8.260
 1937POPC   C3A27569  25.806  42.486   7.888
 1937POPC   C4A27570  25.709  42.457   7.446
 1937POPC   C1B27571  26.386  42.345   8.794
 1937POPC   C2B27572  26.377  42.158   8.388
 1937POPC   C3B27573  26.051  42.013   8.113
 1937POPC   C4B27574  26.137  42.118   7.703
 1938POPC   NC327575   9.566  40.251   9.696
 1938POPC   PO427576   9.693  39.631   9.602
 1938POPC   GL127577   9.827  39.953   9.306
 1938POPC   GL227578  10.063  39.718   9.193
 1938POPC   C1A27579   9.814  40.064   8.850
 1938POPC   D2A27580   9.942  40.194   8.437
 1938POPC   C3A27581   9.668  40.323   8.105
 1938POPC   C4A27582   9.689  40.426   7.681
 1938POPC   C1B27583   9.660  39.582   8.962
 1938POPC   C2B27584   9.655  39.589   8.520
 1938POPC   C3B27585   9.743  39.758   8.098
 1938POPC   C4B27586   9.485  39.952   7.758
 1939POPC   NC327587  25.088  17.222   9.506
 1939POPC   PO427588  25.562  17.743   9.511
 1939POPC   GL127589  25.327  17.796   9.103
 1939POPC   GL227590  25.079  17.570   9.122
 1939POPC   C1A27591  25.307  17.516   8.671
 1939POPC   D2A27592  25.170  17.501   8.216
 1939POPC   C3A27593  25.511  17.322   7.928
 1939POPC   C4A27594  25.752  16.996   7.678
 1939POPC   C1B27595  24.884  17.761   8.757
 1939POPC   C2B27596  24.834  17.886   8.322
 1939POPC   C3B27597  24.854  17.738   7.864
 1939POPC   C4B27598  25.241  17.704   7.692
 1940POPC   NC327599  16.262  40.496   9.610
 1940POPC   PO427600  15.773  40.000   9.514
 1940POPC   GL127601  16.026  39.998   9.164
 1940POPC   GL227602  15.840  40.294   9.096
 1940POPC   C1A27603  15.936  39.909   8.734
 1940POPC   D2A27604  15.759  40.016   8.352
 1940POPC   C3A27605  15.996  40.034   7.979
 1940POPC   C4A27606  16.137  39.968   7.571
 1940POPC   C1B27607  15.605  40.316   8.738
 1940POPC   C2B27608  15.405  40.440   8.347
 1940POPC   C3B27609  15.453  40.196   7.987
 1940POPC   C4B27610  15.636  40.048   7.586
 1941POPC   NC327611   4.826  24.865   9.401
 1941POPC   PO427612   5.241  24.235   9.384
 1941POPC   GL127613   5.079  24.523   9.094
 1941POPC   GL227614   4.727  24.433   9.016
 1941POPC   C1A27615   5.104  24.536   8.664
 1941POPC   D2A27616   4.757  24.418   8.427
 1941POPC   C3A27617   4.895  24.376   8.041
 1941POPC   C4A27618   5.220  24.589   7.806
 1941POPC   C1B27619   4.715  24.845   8.778
 1941POPC   C2B27620   4.609  24.967   8.366
 1941POPC   C3B27621   4.755  24.920   7.922
 1941POPC   C4B27622   4.753  24.588   7.605
 1942POPC   NC327623  39.771  22.342   9.460
 1942POPC   PO427624  40.242  21.919   9.576
 1942POPC   GL127625  40.280  22.221   9.205
 1942POPC   GL227626  40.023  22.472   9.024
 1942POPC   C1A27627  40.263  22.090   8.769
 1942POPC   D2A27628  40.146  22.011   8.343
 1942POPC   C3A27629  40.247  22.295   8.014
 1942POPC   C4A27630  40.194  22.315   7.585
 1942POPC   C1B27631  39.739  22.444   8.641
 1942POPC   C2B27632  39.754  22.354   8.180
 1942POPC   C3B27633  39.722  22.279   7.748
 1942POPC   C4B27634  39.759  22.485   7.319
 1943POPC   NC327635  13.431  38.715   9.370
 1943POPC   PO427636  13.884  38.238   9.499
 1943POPC   GL127637  13.771  38.392   9.133
 1943POPC   GL227638  13.541  38.138   9.041
 1943POPC   C1A27639  13.730  38.677   8.777
 1943POPC   D2A27640  13.591  38.517   8.382
 1943POPC   C3A27641  13.584  38.693   7.970
 1943POPC   C4A27642  13.348  38.300   7.928
 1943POPC   C1B27643  13.297  38.357   8.800
 1943POPC   C2B27644  13.188  38.737   8.617
 1943POPC   C3B27645  13.127  38.787   8.177
 1943POPC   C4B27646  13.092  38.681   7.715
 1944POPC   NC327647  10.867  22.716   9.318
 1944POPC   PO427648  10.439  23.126   9.563
 1944POPC   GL127649  10.366  22.962   9.182
 1944POPC   GL227650  10.378  22.607   9.179
 1944POPC   C1A27651  10.490  23.081   8.787
 1944POPC   D2A27652  10.294  23.028   8.426
 1944POPC   C3A27653  10.508  23.103   8.104
 1944POPC   C4A27654  10.610  23.220   7.747
 1944POPC   C1B27655  10.264  22.547   8.761
 1944POPC   C2B27656  10.399  22.529   8.337
 1944POPC   C3B27657  10.480  22.624   7.928
 1944POPC   C4B27658  10.149  22.475   7.653
 1945POPC   NC327659   2.598  18.763   9.571
 1945POPC   PO427660   3.106  19.127   9.472
 1945POPC   GL127661   2.820  19.033   9.152
 1945POPC   GL227662   2.482  19.174   9.139
 1945POPC   C1A27663   2.827  19.176   8.717
 1945POPC   D2A27664   2.943  19.019   8.322
 1945POPC   C3A27665   3.013  19.269   7.986
 1945POPC   C4A27666   3.037  18.976   7.668
 1945POPC   C1B27667   2.320  19.092   8.738
 1945POPC   C2B27668   2.459  18.892   8.362
 1945POPC   C3B27669   2.567  19.045   7.942
 1945POPC   C4B27670   2.587  19.150   7.476
 1946POPC   NC327671   4.936   2.618   9.598
 1946POPC   PO427672   5.445   3.010   9.545
 1946POPC   GL127673   5.340   2.779   9.138
 1946POPC   GL227674   5.243   2.421   9.192
 1946POPC   C1A27675   5.149   2.816   8.715
 1946POPC   D2A27676   4.898   2.814   8.329
 1946POPC   C3A27677   5.006   2.967   7.920
 1946POPC   C4A27678   5.263   2.841   7.560
 1946POPC   C1B27679   5.217   2.303   8.760
 1946POPC   C2B27680   5.326   2.503   8.344
 1946POPC   C3B27681   5.192   2.488   7.945
 1946POPC   C4B27682   5.108   2.103   7.837
 1947POPC   NC327683  19.998  26.307   9.452
 1947POPC   PO427684  19.723  25.709   9.625
 1947POPC   GL127685  19.679  25.923   9.233
 1947POPC   GL227686  19.966  26.024   9.051
 1947POPC   C1A27687  19.516  26.039   8.812
 1947POPC   D2A27688  19.644  26.138   8.429
 1947POPC   C3A27689  19.425  25.955   8.114
 1947POPC   C4A27690  19.545  26.071   7.739
 1947POPC   C1B27691  19.969  26.358   8.761
 1947POPC   C2B27692  20.031  26.529   8.351
 1947POPC   C3B27693  19.935  26.265   8.016
 1947POPC   C4B27694  20.028  26.240   7.627
 1948POPC   NC327695  11.418  28.423   9.540
 1948POPC   PO427696  10.739  28.185   9.521
 1948POPC   GL127697  11.040  28.294   9.205
 1948POPC   GL227698  11.230  28.014   9.216
 1948POPC   C1A27699  11.104  28.557   8.816
 1948POPC   D2A27700  11.072  28.430   8.366
 1948POPC   C3A27701  11.459  28.483   8.098
 1948POPC   C4A27702  11.668  28.449   7.674
 1948POPC   C1B27703  11.043  28.027   8.776
 1948POPC   C2B27704  10.867  27.939   8.381
 1948POPC   C3B27705  11.075  28.002   8.000
 1948POPC   C4B27706  11.173  28.318   7.711
 1949POPC   NC327707   9.566   0.539   9.488
 1949POPC   PO427708  10.161   0.805   9.439
 1949POPC   GL127709   9.879   0.721   9.113
 1949POPC   GL227710   9.879   0.357   9.135
 1949POPC   C1A27711   9.572   0.613   8.798
 1949POPC   D2A27712   9.790   0.416   8.454
 1949POPC   C3A27713   9.888   0.625   8.053
 1949POPC   C4A27714  10.001   0.447   7.668
 1949POPC   C1B27715   9.987   0.043   8.857
 1949POPC   C2B27716  10.091  44.939   8.457
 1949POPC   C3B27717   9.993   0.109   8.078
 1949POPC   C4B27718   9.758  44.996   7.762
 1950POPC   NC327719  15.835  38.853   9.357
 1950POPC   PO427720  16.302  38.507   9.533
 1950POPC   GL127721  16.136  38.455   9.143
 1950POPC   GL227722  15.844  38.276   9.055
 1950POPC   C1A27723  16.130  38.605   8.717
 1950POPC   D2A27724  16.376  38.452   8.356
 1950POPC   C3A27725  16.202  38.481   7.923
 1950POPC   C4A27726  16.229  38.536   7.426
 1950POPC   C1B27727  15.522  38.533   8.829
 1950POPC   C2B27728  15.377  38.574   8.406
 1950POPC   C3B27729  15.700  38.660   8.068
 1950POPC   C4B27730  15.760  38.398   7.696
 1951POPC   NC327731  30.625  24.173   9.905
 1951POPC   PO427732  30.973  24.541   9.448
 1951POPC   GL127733  30.689  24.276   9.266
 1951POPC   GL227734  30.708  24.549   9.025
 1951POPC   C1A27735  30.821  24.096   8.864
 1951POPC   D2A27736  30.792  24.316   8.467
 1951POPC   C3A27737  30.832  24.129   8.081
 1951POPC   C4A27738  30.941  24.257   7.706
 1951POPC   C1B27739  30.845  24.769   8.703
 1951POPC   C2B27740  30.575  24.799   8.375
 1951POPC   C3B27741  30.667  24.619   8.038
 1951POPC   C4B27742  30.520  24.535   7.670
 1952POPC   NC327743  26.745  42.723   9.468
 1952POPC   PO427744  27.063  42.119   9.445
 1952POPC   GL127745  26.838  42.308   9.110
 1952POPC   GL227746  27.056  42.585   9.103
 1952POPC   C1A27747  26.833  42.193   8.651
 1952POPC   D2A27748  26.843  42.018   8.234
 1952POPC   C3A27749  26.649  42.161   7.884
 1952POPC   C4A27750  26.472  42.511   7.720
 1952POPC   C1B27751  26.835  42.703   8.751
 1952POPC   C2B27752  26.992  42.841   8.346
 1952POPC   C3B27753  26.927  42.621   7.988
 1952POPC   C4B27754  27.001  42.538   7.584
 1953POPC   NC327755  17.128  21.976   9.412
 1953POPC   PO427756  17.499  21.342   9.567
 1953POPC   GL127757  17.517  21.624   9.227
 1953POPC   GL227758  17.300  21.377   9.030
 1953POPC   C1A27759  17.582  21.714   8.786
 1953POPC   D2A27760  17.457  21.357   8.525
 1953POPC   C3A27761  17.479  21.449   8.077
 1953POPC   C4A27762  17.637  21.327   7.678
 1953POPC   C1B27763  17.083  21.666   8.734
 1953POPC   C2B27764  17.232  21.838   8.339
 1953POPC   C3B27765  17.066  21.736   7.915
 1953POPC   C4B27766  17.327  21.711   7.546
 1954POPC   NC327767  24.216  28.684   9.576
 1954POPC   PO427768  24.636  28.170   9.581
 1954POPC   GL127769  24.551  28.225   9.148
 1954POPC   GL227770  24.508  28.597   9.116
 1954POPC   C1A27771  24.630  28.266   8.699
 1954POPC   D2A27772  24.361  28.224   8.340
 1954POPC   C3A27773  24.596  28.153   7.987
 1954POPC   C4A27774  24.377  28.241   7.632
 1954POPC   C1B27775  24.311  28.657   8.703
 1954POPC   C2B27776  24.578  28.677   8.332
 1954POPC   C3B27777  24.504  28.647   7.891
 1954POPC   C4B27778  24.626  28.672   7.459
 1955POPC   NC327779  40.191  33.164   9.481
 1955POPC   PO427780  39.731  32.692   9.450
 1955POPC   GL127781  39.791  33.038   9.177
 1955POPC   GL227782  40.112  33.160   8.982
 1955POPC   C1A27783  39.674  33.060   8.768
 1955POPC   D2A27784  39.949  32.926   8.467
 1955POPC   C3A27785  39.833  32.886   8.048
 1955POPC   C4A27786  40.106  32.996   7.708
 1955POPC   C1B27787  39.961  33.456   8.658
 1955POPC   C2B27788  39.648  33.358   8.320
 1955POPC   C3B27789  39.780  33.375   7.876
 1955POPC   C4B27790  39.676  33.295   7.443
 1956POPC   NC327791   1.237  17.210   9.430
 1956POPC   PO427792   0.903  17.879   9.525
 1956POPC   GL127793   1.005  17.636   9.177
 1956POPC   GL227794   1.379  17.626   9.139
 1956POPC   C1A27795   1.069  17.761   8.757
 1956POPC   D2A27796   1.209  17.860   8.385
 1956POPC   C3A27797   1.073  17.719   8.024
 1956POPC   C4A27798   1.451  17.776   7.785
 1956POPC   C1B27799   1.316  17.300   8.802
 1956POPC   C2B27800   1.099  17.340   8.429
 1956POPC   C3B27801   1.362  17.322   8.092
 1956POPC   C4B27802   1.430  17.258   7.673
 1957POPC   NC327803   6.811   2.836   9.677
 1957POPC   PO427804   7.504   2.831   9.514
 1957POPC   GL127805   7.432   2.932   9.098
 1957POPC   GL227806   7.736   3.164   9.157
 1957POPC   C1A27807   7.387   2.715   8.691
 1957POPC   D2A27808   7.579   2.794   8.296
 1957POPC   C3A27809   7.297   2.753   7.955
 1957POPC   C4A27810   7.597   2.538   7.745
 1957POPC   C1B27811   7.746   3.055   8.734
 1957POPC   C2B27812   7.350   3.197   8.532
 1957POPC   C3B27813   7.358   3.241   8.122
 1957POPC   C4B27814   7.684   3.075   7.858
 1958POPC   NC327815  39.460  31.328   9.352
 1958POPC   PO427816  38.871  31.688   9.583
 1958POPC   GL127817  39.113  31.638   9.190
 1958POPC   GL227818  39.024  31.321   9.100
 1958POPC   C1A27819  39.370  31.585   8.776
 1958POPC   D2A27820  39.190  31.662   8.367
 1958POPC   C3A27821  39.363  31.654   7.960
 1958POPC   C4A27822  39.128  31.650   7.551
 1958POPC   C1B27823  38.944  31.310   8.670
 1958POPC   C2B27824  39.153  31.149   8.289
 1958POPC   C3B27825  39.326  31.154   7.870
 1958POPC   C4B27826  39.055  31.162   7.518
 1959POPC   NC327827  37.786  36.674   9.352
 1959POPC   PO427828  37.704  37.369   9.279
 1959POPC   GL127829  37.749  37.071   9.021
 1959POPC   GL227830  37.457  36.894   9.034
 1959POPC   C1A27831  37.727  37.129   8.596
 1959POPC   D2A27832  38.043  37.144   8.290
 1959POPC   C3A27833  37.942  36.811   7.999
 1959POPC   C4A27834  37.603  36.835   7.715
 1959POPC   C1B27835  37.526  36.643   8.668
 1959POPC   C2B27836  37.442  36.684   8.221
 1959POPC   C3B27837  37.235  36.495   7.866
 1959POPC   C4B27838  37.399  36.426   7.451
 1960POPC   NC327839  14.572  41.104   9.584
 1960POPC   PO427840  14.157  40.575   9.545
 1960POPC   GL127841  14.389  40.591   9.166
 1960POPC   GL227842  14.264  40.918   9.148
 1960POPC   C1A27843  14.492  40.405   8.760
 1960POPC   D2A27844  14.303  40.570   8.394
 1960POPC   C3A27845  14.509  40.783   8.068
 1960POPC   C4A27846  14.511  40.825   7.664
 1960POPC   C1B27847  14.478  40.916   8.768
 1960POPC   C2B27848  14.612  41.134   8.412
 1960POPC   C3B27849  14.898  41.196   8.096
 1960POPC   C4B27850  14.942  41.101   7.671
 1961POPC   NC327851  37.993  28.712   9.458
 1961POPC   PO427852  37.802  29.393   9.510
 1961POPC   GL127853  37.764  29.070   9.200
 1961POPC   GL227854  37.472  28.989   9.085
 1961POPC   C1A27855  37.859  28.831   8.814
 1961POPC   D2A27856  37.687  29.014   8.463
 1961POPC   C3A27857  37.902  29.001   8.077
 1961POPC   C4A27858  37.710  29.098   7.676
 1961POPC   C1B27859  37.496  29.371   8.881
 1961POPC   C2B27860  37.430  29.479   8.474
 1961POPC   C3B27861  37.520  29.404   8.052
 1961POPC   C4B27862  37.336  29.489   7.670
 1962POPC   NC327863  44.281  33.866   9.533
 1962POPC   PO427864  44.960  33.842   9.531
 1962POPC   GL127865  44.665  33.744   9.194
 1962POPC   GL227866  44.362  33.479   9.216
 1962POPC   C1A27867  44.644  33.936   8.778
 1962POPC   D2A27868  44.601  34.138   8.378
 1962POPC   C3A27869  44.657  33.875   8.034
 1962POPC   C4A27870   0.029  33.742   7.809
 1962POPC   C1B27871  44.522  33.435   8.810
 1962POPC   C2B27872  44.720  33.501   8.445
 1962POPC   C3B27873  44.582  33.293   8.097
 1962POPC   C4B27874  44.593  33.455   7.725
 1963POPC   NC327875   9.909  42.015   9.536
 1963POPC   PO427876   9.898  42.746   9.546
 1963POPC   GL127877   9.924  42.541   9.126
 1963POPC   GL227878   9.796  42.197   9.078
 1963POPC   C1A27879   9.763  42.488   8.653
 1963POPC   D2A27880   9.946  42.558   8.240
 1963POPC   C3A27881   9.909  42.411   7.801
 1963POPC   C4A27882   9.912  42.645   7.414
 1963POPC   C1B27883   9.675  41.973   8.684
 1963POPC   C2B27884   9.737  42.060   8.238
 1963POPC   C3B27885   9.473  42.128   7.889
 1963POPC   C4B27886   9.403  41.822   7.603
 1964POPC   NC327887  13.813  28.169   9.488
 1964POPC   PO427888  13.421  28.781   9.299
 1964POPC   GL127889  13.736  28.539   9.145
 1964POPC   GL227890  13.554  28.220   9.065
 1964POPC   C1A27891  13.868  28.474   8.750
 1964POPC   D2A27892  13.728  28.722   8.396
 1964POPC   C3A27893  13.834  28.458   8.097
 1964POPC   C4A27894  14.018  28.449   7.747
 1964POPC   C1B27895  13.489  28.023   8.678
 1964POPC   C2B27896  13.425  28.179   8.288
 1964POPC   C3B27897  13.314  28.544   8.114
 1964POPC   C4B27898  13.327  28.426   7.734
 1965POPC   NC327899   3.567  25.963   9.558
 1965POPC   PO427900   3.492  26.635   9.583
 1965POPC   GL127901   3.512  26.270   9.187
 1965POPC   GL227902   3.316  25.941   9.111
 1965POPC   C1A27903   3.747  25.999   8.848
 1965POPC   D2A27904   3.678  26.125   8.442
 1965POPC   C3A27905   3.783  25.943   8.072
 1965POPC   C4A27906   3.871  25.705   7.709
 1965POPC   C1B27907   3.235  26.046   8.687
 1965POPC   C2B27908   3.313  25.815   8.275
 1965POPC   C3B27909   3.364  25.824   7.817
 1965POPC   C4B27910   3.142  25.752   7.444
 1966POPC   NC327911  29.683  18.476   9.584
 1966POPC   PO427912  29.797  19.155   9.532
 1966POPC   GL127913  30.032  19.156   9.132
 1966POPC   GL227914  30.140  18.767   9.116
 1966POPC   C1A27915  29.963  19.338   8.721
 1966POPC   D2A27916  29.971  19.541   8.318
 1966POPC   C3A27917  30.002  19.307   7.948
 1966POPC   C4A27918  30.038  18.928   7.793
 1966POPC   C1B27919  29.864  18.840   8.760
 1966POPC   C2B27920  29.852  18.971   8.312
 1966POPC   C3B27921  29.558  18.952   7.946
 1966POPC   C4B27922  29.431  18.890   7.491
 1967POPC   NC327923  44.319  40.717   9.535
 1967POPC   PO427924  44.937  41.199   9.437
 1967POPC   GL127925  44.746  41.003   9.059
 1967POPC   GL227926  44.591  40.663   9.091
 1967POPC   C1A27927  44.879  40.783   8.697
 1967POPC   D2A27928  44.660  40.772   8.312
 1967POPC   C3A27929  44.886  40.717   7.931
 1967POPC   C4A27930  44.759  40.672   7.496
 1967POPC   C1B27931  44.526  40.426   8.694
 1967POPC   C2B27932  44.566  40.254   8.291
 1967POPC   C3B27933  44.457  40.470   7.937
 1967POPC   C4B27934  44.355  40.351   7.549
 1968POPC   NC327935  36.028   5.443   9.614
 1968POPC   PO427936  35.956   4.856   9.654
 1968POPC   GL127937  35.901   4.993   9.226
 1968POPC   GL227938  36.107   5.283   9.146
 1968POPC   C1A27939  35.882   5.062   8.752
 1968POPC   D2A27940  35.733   5.136   8.329
 1968POPC   C3A27941  35.836   4.847   8.006
 1968POPC   C4A27942  36.035   4.847   7.637
 1968POPC   C1B27943  36.397   5.511   8.876
 1968POPC   C2B27944  36.373   5.655   8.437
 1968POPC   C3B27945  36.164   5.452   8.064
 1968POPC   C4B27946  36.184   5.327   7.619
 1969POPC   NC327947  36.142  18.324   9.722
 1969POPC   PO427948  36.585  17.835   9.454
 1969POPC   GL127949  36.441  18.189   9.195
 1969POPC   GL227950  36.100  18.347   9.201
 1969POPC   C1A27951  36.350  18.177   8.772
 1969POPC   D2A27952  36.198  18.036   8.405
 1969POPC   C3A27953  36.404  18.162   8.056
 1969POPC   C4A27954  36.274  18.200   7.638
 1969POPC   C1B27955  35.853  18.191   8.866
 1969POPC   C2B27956  35.729  18.280   8.450
 1969POPC   C3B27957  35.898  18.284   8.021
 1969POPC   C4B27958  35.865  18.465   7.587
 1970POPC   NC327959  41.759  40.152   9.632
 1970POPC   PO427960  41.259  39.686   9.727
 1970POPC   GL127961  41.421  39.884   9.316
 1970POPC   GL227962  41.794  39.934   9.176
 1970POPC   C1A27963  41.403  40.111   8.921
 1970POPC   D2A27964  41.460  40.006   8.464
 1970POPC   C3A27965  41.541  40.233   8.059
 1970POPC   C4A27966  41.311  40.252   7.682
 1970POPC   C1B27967  41.911  39.737   8.785
 1970POPC   C2B27968  41.723  39.558   8.407
 1970POPC   C3B27969  41.576  39.700   8.004
 1970POPC   C4B27970  41.795  39.955   7.680
 1971POPC   NC327971  24.532   5.185   9.487
 1971POPC   PO427972  24.285   4.595   9.345
 1971POPC   GL127973  24.507   4.899   9.034
 1971POPC   GL227974  24.732   5.246   9.043
 1971POPC   C1A27975  24.265   5.099   8.691
 1971POPC   D2A27976  24.261   5.458   8.359
 1971POPC   C3A27977  24.173   5.288   7.935
 1971POPC   C4A27978  24.293   4.892   7.789
 1971POPC   C1B27979  24.693   5.341   8.617
 1971POPC   C2B27980  24.597   5.078   8.256
 1971POPC   C3B27981  24.660   5.303   7.890
 1971POPC   C4B27982  24.614   5.280   7.458
 1972POPC   NC327983  25.059   8.739   9.573
 1972POPC   PO427984  25.521   9.213   9.316
 1972POPC   GL127985  25.318   8.854   9.129
 1972POPC   GL227986  24.994   8.967   9.041
 1972POPC   C1A27987  25.186   8.654   8.724
 1972POPC   D2A27988  25.288   8.629   8.319
 1972POPC   C3A27989  25.196   9.013   8.114
 1972POPC   C4A27990  25.064   9.009   7.700
 1972POPC   C1B27991  25.264   9.179   8.705
 1972POPC   C2B27992  25.287   9.472   8.356
 1972POPC   C3B27993  25.065   9.527   7.989
 1972POPC   C4B27994  25.355   9.424   7.705
 1973POPC   NC327995  42.571  34.771   9.498
 1973POPC   PO427996  41.942  34.635   9.506
 1973POPC   GL127997  42.208  34.693   9.148
 1973POPC   GL227998  42.471  34.412   9.134
 1973POPC   C1A27999  42.487  34.840   8.823
 1973POPC   D2A28000  42.528  34.638   8.401
 1973POPC   C3A28001  42.668  34.862   8.058
 1973POPC   C4A28002  42.584  34.790   7.652
 1973POPC   C1B28003  42.227  34.388   8.745
 1973POPC   C2B28004  42.096  34.350   8.324
 1973POPC   C3B28005  42.331  34.426   7.945
 1973POPC   C4B28006  42.170  34.453   7.539
 1974POPC   NC328007  42.810  20.017   9.489
 1974POPC   PO428008  43.214  19.557   9.640
 1974POPC   GL128009  43.088  19.701   9.200
 1974POPC   GL228010  43.217  20.048   9.171
 1974POPC   C1A28011  42.774  19.813   8.836
 1974POPC   D2A28012  42.517  19.749   8.474
 1974POPC   C3A28013  42.825  19.759   8.146
 1974POPC   C4A28014  42.983  19.739   7.756
 1974POPC   C1B28015  43.187  20.092   8.749
 1974POPC   C2B28016  43.351  19.801   8.428
 1974POPC   C3B28017  43.403  19.596   8.027
 1974POPC   C4B28018  43.491  19.934   7.790
 1975POPC   NC328019  29.538  21.176   9.926
 1975POPC   PO428020  28.937  20.974   9.645
 1975POPC   GL128021  29.074  21.016   9.158
 1975POPC   GL228022  29.429  21.125   9.096
 1975POPC   C1A28023  29.046  21.023   8.695
 1975POPC   D2A28024  28.943  21.423   8.441
 1975POPC   C3A28025  29.111  21.605   8.028
 1975POPC   C4A28026  29.509  21.800   7.918
 1975POPC   C1B28027  29.511  21.191   8.652
 1975POPC   C2B28028  29.327  21.180   8.212
 1975POPC   C3B28029  29.408  21.294   7.751
 1975POPC   C4B28030  29.381  21.062   7.365
 1976POPC   NC328031  24.061   3.072   9.493
 1976POPC   PO428032  23.712   2.575   9.440
 1976POPC   GL128033  23.616   2.869   9.135
 1976POPC   GL228034  23.956   2.875   9.053
 1976POPC   C1A28035  23.608   2.776   8.698
 1976POPC   D2A28036  23.681   2.543   8.339
 1976POPC   C3A28037  23.629   2.743   7.950
 1976POPC   C4A28038  23.592   2.846   7.504
 1976POPC   C1B28039  24.059   3.058   8.731
 1976POPC   C2B28040  23.872   3.056   8.350
 1976POPC   C3B28041  24.044   3.020   7.956
 1976POPC   C4B28042  23.884   3.250   7.652
 1977POPC   NC328043  42.463  12.502   9.611
 1977POPC   PO428044  42.101  13.084   9.475
 1977POPC   GL128045  42.158  12.723   9.217
 1977POPC   GL228046  42.520  12.723   9.153
 1977POPC   C1A28047  42.175  12.773   8.755
 1977POPC   D2A28048  42.288  13.017   8.378
 1977POPC   C3A28049  42.269  12.853   7.964
 1977POPC   C4A28050  42.386  13.081   7.611
 1977POPC   C1B28051  42.702  12.537   8.794
 1977POPC   C2B28052  42.722  12.316   8.392
 1977POPC   C3B28053  42.583  12.422   7.998
 1977POPC   C4B28054  42.662  12.491   7.566
 1978POPC   NC328055  23.653   4.813   9.529
 1978POPC   PO428056  24.066   5.382   9.503
 1978POPC   GL128057  23.758   5.161   9.159
 1978POPC   GL228058  23.441   4.922   9.087
 1978POPC   C1A28059  23.726   5.106   8.714
 1978POPC   D2A28060  23.902   5.119   8.328
 1978POPC   C3A28061  23.686   5.134   7.970
 1978POPC   C4A28062  23.279   4.988   7.928
 1978POPC   C1B28063  23.439   4.667   8.726
 1978POPC   C2B28064  23.568   4.721   8.289
 1978POPC   C3B28065  23.640   4.638   7.843
 1978POPC   C4B28066  23.557   4.569   7.423
 1979POPC   NC328067  22.798   5.659   9.447
 1979POPC   PO428068  23.369   5.931   9.419
 1979POPC   GL128069  23.195   5.760   9.044
 1979POPC   GL228070  22.802   5.807   8.969
 1979POPC   C1A28071  23.159   5.831   8.598
 1979POPC   D2A28072  22.922   6.188   8.394
 1979POPC   C3A28073  22.695   5.959   8.099
 1979POPC   C4A28074  22.990   5.853   7.786
 1979POPC   C1B28075  22.743   5.448   8.687
 1979POPC   C2B28076  22.914   5.328   8.311
 1979POPC   C3B28077  22.630   5.402   8.022
 1979POPC   C4B28078  22.551   5.639   7.665
 1980POPC   NC328079   0.281  44.852   9.354
 1980POPC   PO428080   0.707  44.526   9.731
 1980POPC   GL128081   0.626  44.454   9.266
 1980POPC   GL228082   0.251  44.370   9.171
 1980POPC   C1A28083   0.717  44.420   8.813
 1980POPC   D2A28084   0.780  44.697   8.451
 1980POPC   C3A28085   0.672  44.533   8.041
 1980POPC   C4A28086   0.678  44.130   7.805
 1980POPC   C1B28087   0.228  44.593   8.772
 1980POPC   C2B28088   0.265  44.815   8.425
 1980POPC   C3B28089   0.051  44.752   8.089
 1980POPC   C4B28090   0.307  44.767   7.761
 1981POPC   NC328091  41.047  41.543   9.544
 1981POPC   PO428092  40.397  41.722   9.559
 1981POPC   GL128093  40.630  41.586   9.170
 1981POPC   GL228094  40.983  41.536   9.039
 1981POPC   C1A28095  40.642  41.402   8.745
 1981POPC   D2A28096  40.905  41.435   8.359
 1981POPC   C3A28097  40.697  41.416   7.971
 1981POPC   C4A28098  40.410  41.285   7.613
 1981POPC   C1B28099  40.943  41.857   8.675
 1981POPC   C2B28100  41.183  41.873   8.274
 1981POPC   C3B28101  41.155  41.777   7.810
 1981POPC   C4B28102  41.111  41.814   7.354
 1982POPC   NC328103  42.578  21.446   9.374
 1982POPC   PO428104  43.236  21.320   9.687
 1982POPC   GL128105  43.097  21.312   9.284
 1982POPC   GL228106  43.442  21.211   9.216
 1982POPC   C1A28107  43.036  21.574   8.891
 1982POPC   D2A28108  43.190  21.915   8.593
 1982POPC   C3A28109  43.213  21.714   8.190
 1982POPC   C4A28110  42.871  21.571   7.923
 1982POPC   C1B28111  43.262  21.110   8.842
 1982POPC   C2B28112  43.320  21.034   8.431
 1982POPC   C3B28113  43.166  21.136   8.022
 1982POPC   C4B28114  43.320  21.443   7.760
 1983POPC   NC328115  10.862  32.026   9.517
 1983POPC   PO428116  10.790  32.670   9.237
 1983POPC   GL128117  10.551  32.250   9.153
 1983POPC   GL228118  10.771  32.020   9.013
 1983POPC   C1A28119  10.341  31.959   8.775
 1983POPC   D2A28120  10.220  31.951   8.302
 1983POPC   C3A28121  10.257  32.228   7.939
 1983POPC   C4A28122  10.142  32.210   7.477
 1983POPC   C1B28123  10.590  32.412   8.689
 1983POPC   C2B28124  10.888  32.568   8.384
 1983POPC   C3B28125  10.916  32.678   7.954
 1983POPC   C4B28126  10.697  32.900   7.634
 1984POPC   NC328127  42.328  35.741   9.507
 1984POPC   PO428128  42.230  36.435   9.572
 1984POPC   GL128129  42.274  36.163   9.217
 1984POPC   GL228130  42.308  36.503   9.036
 1984POPC   C1A28131  42.484  36.069   8.811
 1984POPC   D2A28132  42.405  36.310   8.401
 1984POPC   C3A28133  42.292  35.999   8.083
 1984POPC   C4A28134  42.466  35.823   7.731
 1984POPC   C1B28135  42.000  36.243   8.813
 1984POPC   C2B28136  41.936  36.147   8.430
 1984POPC   C3B28137  41.924  36.398   8.064
 1984POPC   C4B28138  41.969  36.138   7.706
 1985POPC   NC328139  29.006  36.427   9.507
 1985POPC   PO428140  28.986  35.712   9.481
 1985POPC   GL128141  29.159  36.000   9.202
 1985POPC   GL228142  28.860  36.153   9.090
 1985POPC   C1A28143  29.313  35.927   8.786
 1985POPC   D2A28144  29.338  36.084   8.350
 1985POPC   C3A28145  29.102  35.939   8.039
 1985POPC   C4A28146  29.201  35.920   7.637
 1985POPC   C1B28147  28.962  36.317   8.673
 1985POPC   C2B28148  28.863  36.315   8.260
 1985POPC   C3B28149  28.966  36.378   7.831
 1985POPC   C4B28150  28.941  36.706   7.544
 1986POPC   NC328151  39.976  40.299   9.545
 1986POPC   PO428152  40.016  40.867   9.415
 1986POPC   GL128153  39.963  40.606   9.123
 1986POPC   GL228154  40.286  40.580   9.023
 1986POPC   C1A28155  39.854  40.648   8.741
 1986POPC   D2A28156  40.150  40.704   8.426
 1986POPC   C3A28157  39.960  40.550   8.103
 1986POPC   C4A28158  39.791  40.624   7.715
 1986POPC   C1B28159  40.292  41.013   8.819
 1986POPC   C2B28160  40.496  41.094   8.405
 1986POPC   C3B28161  40.375  41.020   8.057
 1986POPC   C4B28162  40.010  41.036   7.892
 1987POPC   NC328163   4.722  25.195   9.858
 1987POPC   PO428164   5.307  25.053   9.477
 1987POPC   GL128165   5.081  25.205   9.105
 1987POPC   GL228166   4.930  25.551   9.146
 1987POPC   C1A28167   5.180  25.042   8.688
 1987POPC   D2A28168   5.120  24.862   8.266
 1987POPC   C3A28169   5.364  25.051   7.927
 1987POPC   C4A28170   5.358  25.341   7.587
 1987POPC   C1B28171   5.125  25.559   8.720
 1987POPC   C2B28172   4.965  25.370   8.368
 1987POPC   C3B28173   5.040  25.427   7.998
 1987POPC   C4B28174   4.824  25.403   7.659
 1988POPC   NC328175  36.587  33.437   9.575
 1988POPC   PO428176  36.028  33.870   9.547
 1988POPC   GL128177  36.101  33.859   9.126
 1988POPC   GL228178  36.429  33.762   9.166
 1988POPC   C1A28179  36.102  33.914   8.668
 1988POPC   D2A28180  35.818  33.765   8.362
 1988POPC   C3A28181  36.082  33.693   8.047
 1988POPC   C4A28182  36.035  33.887   7.663
 1988POPC   C1B28183  36.288  33.461   8.841
 1988POPC   C2B28184  36.065  33.309   8.474
 1988POPC   C3B28185  36.181  33.197   8.069
 1988POPC   C4B28186  36.379  33.373   7.718
 1989POPC   NC328187  12.736  11.762   9.688
 1989POPC   PO428188  13.119  11.249   9.635
 1989POPC   GL128189  13.109  11.274   9.199
 1989POPC   GL228190  12.801  11.426   9.196
 1989POPC   C1A28191  13.127  11.382   8.774
 1989POPC   D2A28192  13.148  11.571   8.371
 1989POPC   C3A28193  12.839  11.529   8.107
 1989POPC   C4A28194  12.701  11.541   7.746
 1989POPC   C1B28195  12.626  11.259   8.813
 1989POPC   C2B28196  12.758  11.141   8.418
 1989POPC   C3B28197  12.534  11.116   8.036
 1989POPC   C4B28198  12.591  11.076   7.619
 1990POPC   NC328199  11.342  29.419   9.491
 1990POPC   PO428200  11.077  28.745   9.563
 1990POPC   GL128201  11.067  29.029   9.193
 1990POPC   GL228202  11.427  29.051   9.119
 1990POPC   C1A28203  11.122  29.315   8.798
 1990POPC   D2A28204  11.407  29.320   8.416
 1990POPC   C3A28205  11.165  29.305   8.036
 1990POPC   C4A28206  11.188  28.864   7.861
 1990POPC   C1B28207  11.610  29.423   8.906
 1990POPC   C2B28208  11.894  29.511   8.617
 1990POPC   C3B28209  11.934  29.536   8.194
 1990POPC   C4B28210  11.631  29.403   7.918
 1991POPC   NC328211   2.611  39.212   9.549
 1991POPC   PO428212   3.037  39.755   9.869
 1991POPC   GL128213   2.882  39.595   9.364
 1991POPC   GL228214   2.523  39.629   9.188
 1991POPC   C1A28215   2.805  39.281   8.953
 1991POPC   D2A28216   2.727  39.021   8.581
 1991POPC   C3A28217   2.812  39.190   8.186
 1991POPC   C4A28218   2.783  39.307   7.757
 1991POPC   C1B28219   2.261  39.678   8.781
 1991POPC   C2B28220   2.279  39.378   8.452
 1991POPC   C3B28221   2.451  39.533   8.083
 1991POPC   C4B28222   2.315  39.635   7.703
 1992POPC   NC328223  12.298   6.309   9.397
 1992POPC   PO428224  12.463   7.003   9.507
 1992POPC   GL128225  12.695   6.721   9.178
 1992POPC   GL228226  12.574   6.425   8.987
 1992POPC   C1A28227  12.883   6.783   8.770
 1992POPC   D2A28228  12.777   6.942   8.375
 1992POPC   C3A28229  12.812   6.634   8.010
 1992POPC   C4A28230  12.979   6.657   7.560
 1992POPC   C1B28231  12.937   6.271   8.751
 1992POPC   C2B28232  13.107   6.143   8.379
 1992POPC   C3B28233  13.156   6.266   7.984
 1992POPC   C4B28234  12.960   6.170   7.618
 1993POPC   NC328235  11.015  43.192   9.599
 1993POPC   PO428236  11.609  43.441   9.607
 1993POPC   GL128237  11.389  43.146   9.220
 1993POPC   GL228238  11.025  42.978   9.152
 1993POPC   C1A28239  11.360  42.977   8.761
 1993POPC   D2A28240  11.628  42.992   8.357
 1993POPC   C3A28241  11.457  42.984   7.920
 1993POPC   C4A28242  11.397  43.279   7.529
 1993POPC   C1B28243  10.749  42.971   8.824
 1993POPC   C2B28244  10.866  42.875   8.428
 1993POPC   C3B28245  10.948  42.767   8.026
 1993POPC   C4B28246  10.973  43.074   7.711
 1994POPC   NC328247  42.010  38.641   9.417
 1994POPC   PO428248  41.482  38.204   9.508
 1994POPC   GL128249  41.444  38.338   9.082
 1994POPC   GL228250  41.531  38.682   9.142
 1994POPC   C1A28251  41.696  38.307   8.703
 1994POPC   D2A28252  42.001  38.274   8.346
 1994POPC   C3A28253  41.752  38.284   7.978
 1994POPC   C4A28254  41.297  38.237   7.878
 1994POPC   C1B28255  41.388  38.743   8.720
 1994POPC   C2B28256  41.411  38.563   8.296
 1994POPC   C3B28257  41.476  38.708   7.878
 1994POPC   C4B28258  41.188  38.756   7.614
 1995POPC   NC328259  35.873  34.843   9.042
 1995POPC   PO428260  35.405  35.134   9.419
 1995POPC   GL128261  35.326  35.514   9.156
 1995POPC   GL228262  35.613  35.688   9.187
 1995POPC   C1A28263  35.297  35.660   8.711
 1995POPC   D2A28264  35.202  35.578   8.305
 1995POPC   C3A28265  35.418  35.670   7.900
 1995POPC   C4A28266  35.365  35.252   7.627
 1995POPC   C1B28267  35.728  35.415   8.861
 1995POPC   C2B28268  35.520  35.210   8.545
 1995POPC   C3B28269  35.492  35.220   8.110
 1995POPC   C4B28270  35.848  35.404   7.833
 1996POPC   NC328271  15.406  31.939   9.394
 1996POPC   PO428272  15.760  32.400   9.707
 1996POPC   GL128273  15.788  32.205   9.195
 1996POPC   GL228274  15.783  31.944   8.922
 1996POPC   C1A28275  15.693  32.390   8.720
 1996POPC   D2A28276  15.864  32.177   8.364
 1996POPC   C3A28277  15.684  32.254   7.990
 1996POPC   C4A28278  15.614  31.876   7.784
 1996POPC   C1B28279  16.164  32.220   8.805
 1996POPC   C2B28280  16.187  32.550   8.498
 1996POPC   C3B28281  16.216  32.444   8.049
 1996POPC   C4B28282  16.124  32.103   7.783
 1997POPC   NC328283  40.928   6.504   9.497
 1997POPC   PO428284  40.574   7.099   9.389
 1997POPC   GL128285  40.853   6.946   9.064
 1997POPC   GL228286  41.062   6.675   9.048
 1997POPC   C1A28287  40.883   6.853   8.618
 1997POPC   D2A28288  40.807   7.047   8.259
 1997POPC   C3A28289  40.701   6.793   7.943
 1997POPC   C4A28290  40.589   6.366   7.938
 1997POPC   C1B28291  41.155   6.425   8.674
 1997POPC   C2B28292  41.020   6.495   8.236
 1997POPC   C3B28293  41.097   6.373   7.789
 1997POPC   C4B28294  41.253   6.371   7.309
 1998POPC   NC328295   2.542  12.214   9.434
 1998POPC   PO428296   2.901  11.718   9.453
 1998POPC   GL128297   2.818  11.834   9.076
 1998POPC   GL228298   2.487  11.858   9.085
 1998POPC   C1A28299   2.754  12.111   8.738
 1998POPC   D2A28300   2.617  12.110   8.338
 1998POPC   C3A28301   2.986  12.133   8.079
 1998POPC   C4A28302   2.878  12.409   7.735
 1998POPC   C1B28303   2.396  11.705   8.727
 1998POPC   C2B28304   2.361  11.656   8.340
 1998POPC   C3B28305   2.556  11.698   8.005
 1998POPC   C4B28306   2.583  12.019   7.802
 1999POPC   NC328307  17.183  22.433   9.853
 1999POPC   PO428308  17.587  22.074   9.504
 1999POPC   GL128309  17.516  22.148   9.077
 1999POPC   GL228310  17.685  22.432   8.940
 1999POPC   C1A28311  17.188  22.143   8.782
 1999POPC   D2A28312  17.013  22.317   8.432
 1999POPC   C3A28313  17.333  22.332   8.138
 1999POPC   C4A28314  17.300  22.177   7.759
 1999POPC   C1B28315  17.619  22.308   8.569
 1999POPC   C2B28316  17.859  22.173   8.257
 1999POPC   C3B28317  17.818  22.283   7.854
 1999POPC   C4B28318  17.726  21.837   7.815
 2000POPC   NC328319  14.155  31.624   9.647
 2000POPC   PO428320  14.745  31.288   9.481
 2000POPC   GL128321  14.377  31.321   9.188
 2000POPC   GL228322  14.083  31.579   9.159
 2000POPC   C1A28323  14.431  31.462   8.761
 2000POPC   D2A28324  14.370  31.715   8.390
 2000POPC   C3A28325  14.203  31.574   7.970
 2000POPC   C4A28326  14.373  31.705   7.563
 2000POPC   C1B28327  13.946  31.586   8.763
 2000POPC   C2B28328  14.083  31.292   8.403
 2000POPC   C3B28329  13.873  31.169   8.012
 2000POPC   C4B28330  14.042  31.211   7.578
 2001POPC   NC328331  21.258  19.256   9.608
 2001POPC   PO428332  21.792  18.998   9.295
 2001POPC   GL128333  21.389  19.065   9.138
 2001POPC   GL228334  21.345  19.405   9.137
 2001POPC   C1A28335  21.230  18.797   8.799
 2001POPC   D2A28336  21.477  18.705   8.433
 2001POPC   C3A28337  21.252  18.851   8.050
 2001POPC   C4A28338  21.382  18.950   7.678
 2001POPC   C1B28339  21.108  19.295   8.790
 2001POPC   C2B28340  21.326  19.190   8.434
 2001POPC   C3B28341  21.375  19.354   8.031
 2001POPC   C4B28342  21.012  19.313   7.810
 2002POPC   NC328343  15.006  10.457   9.556
 2002POPC   PO428344  15.711  10.449   9.675
 2002POPC   GL128345  15.444  10.292   9.237
 2002POPC   GL228346  15.177  10.534   9.099
 2002POPC   C1A28347  15.433  10.337   8.734
 2002POPC   D2A28348  15.311  10.680   8.432
 2002POPC   C3A28349  15.468  10.563   8.023
 2002POPC   C4A28350  15.266  10.245   7.819
 2002POPC   C1B28351  14.921  10.284   8.805
 2002POPC   C2B28352  14.754  10.346   8.371
 2002POPC   C3B28353  14.781  10.393   7.913
 2002POPC   C4B28354  14.838  10.567   7.499
 2003POPC   NC328355  42.601  26.964   9.614
 2003POPC   PO428356  42.016  26.668   9.413
 2003POPC   GL128357  42.282  26.984   9.213
 2003POPC   GL228358  42.538  26.756   9.137
 2003POPC   C1A28359  42.395  27.170   8.815
 2003POPC   D2A28360  42.152  27.008   8.463
 2003POPC   C3A28361  42.330  27.039   8.063
 2003POPC   C4A28362  42.085  27.276   7.784
 2003POPC   C1B28363  42.397  26.623   8.700
 2003POPC   C2B28364  42.489  26.530   8.234
 2003POPC   C3B28365  42.657  26.690   7.830
 2003POPC   C4B28366  42.748  26.735   7.393
 2004POPC   NC328367   2.560  23.551   9.525
 2004POPC   PO428368   3.172  23.750   9.481
 2004POPC   GL128369   2.973  23.717   9.104
 2004POPC   GL228370   2.731  23.413   9.086
 2004POPC   C1A28371   2.935  24.072   8.789
 2004POPC   D2A28372   3.024  24.325   8.406
 2004POPC   C3A28373   2.898  24.061   8.049
 2004POPC   C4A28374   2.573  23.882   7.734
 2004POPC   C1B28375   2.644  23.642   8.730
 2004POPC   C2B28376   2.873  23.540   8.401
 2004POPC   C3B28377   2.811  23.541   8.016
 2004POPC   C4B28378   2.591  23.360   7.715
 2005POPC   NC328379  27.283  30.900   9.404
 2005POPC   PO428380  27.621  30.419   9.465
 2005POPC   GL128381  27.442  30.512   9.085
 2005POPC   GL228382  27.481  30.878   8.936
 2005POPC   C1A28383  27.599  30.457   8.677
 2005POPC   D2A28384  27.534  30.702   8.323
 2005POPC   C3A28385  27.470  30.478   7.956
 2005POPC   C4A28386  27.428  30.653   7.559
 2005POPC   C1B28387  27.874  30.923   8.662
 2005POPC   C2B28388  28.073  30.718   8.307
 2005POPC   C3B28389  27.910  30.798   7.914
 2005POPC   C4B28390  27.611  31.095   7.754
 2006POPC   NC328391  27.690  26.275   9.544
 2006POPC   PO428392  27.064  26.286   9.472
 2006POPC   GL128393  27.388  26.313   9.128
 2006POPC   GL228394  27.716  26.099   9.079
 2006POPC   C1A28395  27.513  26.377   8.709
 2006POPC   D2A28396  27.756  26.319   8.361
 2006POPC   C3A28397  27.493  26.295   7.979
 2006POPC   C4A28398  27.207  26.440   7.632
 2006POPC   C1B28399  27.794  25.917   8.665
 2006POPC   C2B28400  27.605  25.851   8.235
 2006POPC   C3B28401  27.653  25.847   7.775
 2006POPC   C4B28402  27.683  25.854   7.305
 2007POPC   NC328403  10.879   6.443   9.698
 2007POPC   PO428404  10.372   6.788   9.498
 2007POPC   GL128405  10.444   6.579   9.108
 2007POPC   GL228406  10.709   6.355   9.206
 2007POPC   C1A28407  10.274   6.550   8.679
 2007POPC   D2A28408  10.202   6.504   8.234
 2007POPC   C3A28409  10.490   6.683   7.974
 2007POPC   C4A28410  10.597   6.849   7.566
 2007POPC   C1B28411  10.599   6.168   8.797
 2007POPC   C2B28412  10.642   6.319   8.387
 2007POPC   C3B28413  10.644   6.178   7.978
 2007POPC   C4B28414  10.828   6.309   7.582
 2008POPC   NC328415  44.240  26.356   9.562
 2008POPC   PO428416  43.765  25.895   9.427
 2008POPC   GL128417  43.870  26.192   9.153
 2008POPC   GL228418  44.186  26.106   9.109
 2008POPC   C1A28419  43.868  26.035   8.721
 2008POPC   D2A28420  44.135  26.111   8.385
 2008POPC   C3A28421  43.884  26.012   8.039
 2008POPC   C4A28422  43.782  26.217   7.659
 2008POPC   C1B28423  44.316  25.776   8.800
 2008POPC   C2B28424  44.515  25.759   8.398
 2008POPC   C3B28425  44.301  25.717   8.019
 2008POPC   C4B28426  44.176  25.896   7.612
 2009POPC   NC328427  42.006  33.948   9.472
 2009POPC   PO428428  42.651  33.939   9.391
 2009POPC   GL128429  42.539  33.924   8.969
 2009POPC   GL228430  42.183  33.951   8.992
 2009POPC   C1A28431  42.673  33.649   8.636
 2009POPC   D2A28432  42.439  33.447   8.328
 2009POPC   C3A28433  42.532  33.479   7.891
 2009POPC   C4A28434  42.661  33.477   7.472
 2009POPC   C1B28435  42.178  33.871   8.554
 2009POPC   C2B28436  41.831  33.897   8.254
 2009POPC   C3B28437  41.993  34.054   7.888
 2009POPC   C4B28438  42.327  33.943   7.649
 2010POPC   NC328439   6.193  30.618   9.501
 2010POPC   PO428440   5.552  30.992   9.453
 2010POPC   GL128441   5.768  30.852   9.101
 2010POPC   GL228442   5.652  30.472   8.945
 2010POPC   C1A28443   5.607  30.945   8.707
 2010POPC   D2A28444   5.517  30.630   8.429
 2010POPC   C3A28445   5.732  30.702   8.061
 2010POPC   C4A28446   5.704  30.819   7.640
 2010POPC   C1B28447   6.020  30.609   8.746
 2010POPC   C2B28448   6.162  30.828   8.384
 2010POPC   C3B28449   6.248  30.605   7.994
 2010POPC   C4B28450   5.966  30.373   7.731
 2011POPC   NC328451  11.644  17.544   9.523
 2011POPC   PO428452  12.247  17.887   9.420
 2011POPC   GL128453  12.099  17.634   9.115
 2011POPC   GL228454  12.159  17.303   9.308
 2011POPC   C1A28455  12.170  17.750   8.646
 2011POPC   D2A28456  12.161  18.049   8.251
 2011POPC   C3A28457  11.932  17.864   7.900
 2011POPC   C4A28458  11.833  17.490   7.632
 2011POPC   C1B28459  12.219  17.214   8.866
 2011POPC   C2B28460  12.078  17.256   8.448
 2011POPC   C3B28461  12.148  17.403   8.051
 2011POPC   C4B28462  12.309  17.221   7.695
 2012POPC   NC328463   3.385  14.023   9.382
 2012POPC   PO428464   3.768  14.637   9.595
 2012POPC   GL128465   3.591  14.665   9.169
 2012POPC   GL228466   3.283  14.467   9.119
 2012POPC   C1A28467   3.733  14.435   8.809
 2012POPC   D2A28468   3.913  14.141   8.538
 2012POPC   C3A28469   3.862  14.330   8.153
 2012POPC   C4A28470   3.981  14.682   7.867
 2012POPC   C1B28471   3.228  14.394   8.699
 2012POPC   C2B28472   3.432  14.615   8.362
 2012POPC   C3B28473   3.472  14.681   7.915
 2012POPC   C4B28474   3.246  14.523   7.548
 2013POPC   NC328475   9.870  36.885   9.968
 2013POPC   PO428476   9.824  36.696   9.319
 2013POPC   GL128477   9.597  36.936   8.959
 2013POPC   GL228478   9.559  37.318   9.062
 2013POPC   C1A28479   9.460  36.747   8.611
 2013POPC   D2A28480   9.598  36.402   8.423
 2013POPC   C3A28481   9.632  36.600   8.057
 2013POPC   C4A28482   9.888  36.665   7.739
 2013POPC   C1B28483   9.993  37.225   8.927
 2013POPC   C2B28484   9.934  36.995   8.514
 2013POPC   C3B28485   9.819  37.093   8.105
 2013POPC   C4B28486  10.017  37.155   7.735
 2014POPC   NC328487   0.448  19.628   9.442
 2014POPC   PO428488   0.924  20.110   9.337
 2014POPC   GL128489   0.556  20.009   9.116
 2014POPC   GL228490   0.714  19.718   9.036
 2014POPC   C1A28491   0.324  19.802   8.762
 2014POPC   D2A28492   0.537  19.626   8.418
 2014POPC   C3A28493   0.480  19.789   8.003
 2014POPC   C4A28494   0.248  19.691   7.627
 2014POPC   C1B28495   0.854  19.977   8.689
 2014POPC   C2B28496   0.954  19.951   8.268
 2014POPC   C3B28497   0.798  20.183   7.939
 2014POPC   C4B28498   0.549  20.109   7.604
 2015POPC   NC328499   5.946  37.004   9.582
 2015POPC   PO428500   5.343  36.609   9.481
 2015POPC   GL128501   5.700  36.803   9.174
 2015POPC   GL228502   5.977  37.088   9.096
 2015POPC   C1A28503   5.698  36.939   8.705
 2015POPC   D2A28504   5.710  37.183   8.302
 2015POPC   C3A28505   5.632  36.965   7.889
 2015POPC   C4A28506   5.663  37.224   7.494
 2015POPC   C1B28507   6.122  37.349   8.747
 2015POPC   C2B28508   6.246  37.317   8.300
 2015POPC   C3B28509   6.080  37.201   7.888
 2015POPC   C4B28510   6.158  37.231   7.437
 2016POPC   NC328511   0.321  21.273   9.508
 2016POPC   PO428512   0.494  21.776   9.148
 2016POPC   GL128513   0.364  21.371   9.014
 2016POPC   GL228514   0.655  21.132   9.101
 2016POPC   C1A28515   0.399  21.296   8.598
 2016POPC   D2A28516   0.680  21.389   8.291
 2016POPC   C3A28517   0.411  21.504   8.009
 2016POPC   C4A28518   0.455  21.614   7.620
 2016POPC   C1B28519   0.847  21.045   8.677
 2016POPC   C2B28520   0.653  20.877   8.279
 2016POPC   C3B28521   0.600  21.065   7.869
 2016POPC   C4B28522   0.786  20.957   7.487
 2017POPC   NC328523  14.293  25.759   9.409
 2017POPC   PO428524  14.707  26.258   9.627
 2017POPC   GL128525  14.553  26.219   9.192
 2017POPC   GL228526  14.243  26.323   9.198
 2017POPC   C1A28527  14.343  26.179   8.739
 2017POPC   D2A28528  14.189  25.931   8.399
 2017POPC   C3A28529  14.495  25.949   8.087
 2017POPC   C4A28530  14.349  25.972   7.671
 2017POPC   C1B28531  14.004  26.550   8.897
 2017POPC   C2B28532  13.959  26.447   8.477
 2017POPC   C3B28533  14.189  26.359   8.105
 2017POPC   C4B28534  14.095  26.443   7.690
 2018POPC   NC328535  25.879  31.564   9.536
 2018POPC   PO428536  26.004  30.938   9.635
 2018POPC   GL128537  26.031  31.161   9.229
 2018POPC   GL228538  25.713  31.333   9.118
 2018POPC   C1A28539  26.177  31.495   8.894
 2018POPC   D2A28540  26.041  31.793   8.542
 2018POPC   C3A28541  26.088  31.669   8.101
 2018POPC   C4A28542  25.835  31.673   7.696
 2018POPC   C1B28543  25.879  31.102   8.750
 2018POPC   C2B28544  26.075  31.226   8.386
 2018POPC   C3B28545  25.794  31.261   8.038
 2018POPC   C4B28546  25.757  31.182   7.603
 2019POPC   NC328547  17.671  31.434   9.594
 2019POPC   PO428548  17.184  31.866   9.553
 2019POPC   GL128549  17.427  31.638   9.203
 2019POPC   GL228550  17.316  31.291   9.261
 2019POPC   C1A28551  17.626  31.564   8.803
 2019POPC   D2A28552  17.637  31.310   8.448
 2019POPC   C3A28553  17.685  31.503   8.082
 2019POPC   C4A28554  17.628  31.385   7.689
 2019POPC   C1B28555  17.235  31.234   8.845
 2019POPC   C2B28556  17.134  31.301   8.441
 2019POPC   C3B28557  17.311  31.136   8.060
 2019POPC   C4B28558  17.173  31.164   7.646
 2020POPC   NC328559  28.433  18.843   9.556
 2020POPC   PO428560  28.152  19.474   9.526
 2020POPC   GL128561  28.498  19.296   9.260
 2020POPC   GL228562  28.339  19.030   9.112
 2020POPC   C1A28563  28.616  19.269   8.781
 2020POPC   D2A28564  28.615  19.028   8.378
 2020POPC   C3A28565  28.454  19.093   7.963
 2020POPC   C4A28566  28.102  19.247   7.787
 2020POPC   C1B28567  28.384  18.763   8.770
 2020POPC   C2B28568  28.256  18.595   8.361
 2020POPC   C3B28569  28.201  18.660   7.908
 2020POPC   C4B28570  28.543  18.688   7.593
 2021POPC   NC328571  18.395  19.373   9.485
 2021POPC   PO428572  18.087  19.975   9.429
 2021POPC   GL128573  18.341  19.765   9.147
 2021POPC   GL228574  18.559  20.028   9.100
 2021POPC   C1A28575  18.327  19.674   8.710
 2021POPC   D2A28576  18.142  19.830   8.337
 2021POPC   C3A28577  18.274  19.719   7.919
 2021POPC   C4A28578  18.219  19.820   7.475
 2021POPC   C1B28579  18.794  19.921   8.710
 2021POPC   C2B28580  18.667  19.896   8.273
 2021POPC   C3B28581  18.625  20.130   7.900
 2021POPC   C4B28582  18.705  19.996   7.497
 2022POPC   NC328583  20.816  12.043   9.716
 2022POPC   PO428584  21.179  12.491   9.545
 2022POPC   GL128585  20.850  12.349   9.224
 2022POPC   GL228586  20.703  12.013   9.166
 2022POPC   C1A28587  20.834  12.250   8.742
 2022POPC   D2A28588  20.713  11.962   8.397
 2022POPC   C3A28589  20.528  12.152   7.997
 2022POPC   C4A28590  20.630  11.980   7.587
 2022POPC   C1B28591  20.454  11.788   8.829
 2022POPC   C2B28592  20.417  11.521   8.434
 2022POPC   C3B28593  20.493  11.635   8.012
 2022POPC   C4B28594  20.467  11.512   7.603
 2023POPC   NC328595  39.316  16.830   9.637
 2023POPC   PO428596  38.645  16.721   9.590
 2023POPC   GL128597  38.997  16.802   9.231
 2023POPC   GL228598  39.376  16.632   9.187
 2023POPC   C1A28599  39.253  16.929   8.822
 2023POPC   D2A28600  39.366  16.618   8.505
 2023POPC   C3A28601  39.310  16.798   8.070
 2023POPC   C4A28602  38.957  16.589   7.855
 2023POPC   C1B28603  39.605  16.310   8.934
 2023POPC   C2B28604  39.787  16.306   8.506
 2023POPC   C3B28605  39.665  16.448   8.091
 2023POPC   C4B28606  39.425  16.396   7.723
 2024POPC   NC328607  15.732   3.883   9.461
 2024POPC   PO428608  16.152   3.383   9.499
 2024POPC   GL128609  15.977   3.554   9.133
 2024POPC   GL228610  16.115   3.857   9.121
 2024POPC   C1A28611  16.055   3.446   8.688
 2024POPC   D2A28612  16.158   3.062   8.426
 2024POPC   C3A28613  16.178   3.118   7.973
 2024POPC   C4A28614  15.930   3.372   7.704
 2024POPC   C1B28615  15.906   3.937   8.764
 2024POPC   C2B28616  15.722   3.897   8.380
 2024POPC   C3B28617  15.919   3.775   8.019
 2024POPC   C4B28618  16.164   3.859   7.689
 2025POPC   NC328619   6.937   7.398   9.402
 2025POPC   PO428620   7.706   7.253   9.471
 2025POPC   GL128621   7.539   7.545   9.160
 2025POPC   GL228622   7.306   7.319   9.037
 2025POPC   C1A28623   7.502   7.707   8.737
 2025POPC   D2A28624   7.471   7.458   8.352
 2025POPC   C3A28625   7.551   7.627   7.941
 2025POPC   C4A28626   7.622   7.534   7.503
 2025POPC   C1B28627   7.037   7.395   8.695
 2025POPC   C2B28628   6.951   7.501   8.269
 2025POPC   C3B28629   7.184   7.284   7.937
 2025POPC   C4B28630   7.170   7.291   7.470
 2026POPC   NC328631  21.672  38.870   9.611
 2026POPC   PO428632  21.525  39.506   9.420
 2026POPC   GL128633  21.476  39.377   9.037
 2026POPC   GL228634  21.791  39.554   8.962
 2026POPC   C1A28635  21.326  39.182   8.647
 2026POPC   D2A28636  21.508  39.015   8.260
 2026POPC   C3A28637  21.356  39.161   7.820
 2026POPC   C4A28638  21.597  39.091   7.397
 2026POPC   C1B28639  21.966  39.759   8.626
 2026POPC   C2B28640  21.675  39.923   8.329
 2026POPC   C3B28641  21.515  39.594   8.053
 2026POPC   C4B28642  21.514  39.598   7.585
 2027POPC   NC328643   5.507  19.736   9.663
 2027POPC   PO428644   5.162  20.312   9.527
 2027POPC   GL128645   5.126  20.078   9.174
 2027POPC   GL228646   4.779  20.121   9.106
 2027POPC   C1A28647   5.174  19.915   8.760
 2027POPC   D2A28648   4.961  19.720   8.420
 2027POPC   C3A28649   5.150  19.844   8.047
 2027POPC   C4A28650   5.161  19.679   7.642
 2027POPC   C1B28651   4.839  20.316   8.737
 2027POPC   C2B28652   4.912  20.217   8.355
 2027POPC   C3B28653   4.759  20.293   7.993
 2027POPC   C4B28654   4.910  20.150   7.654
 2028POPC   NC328655  21.659  13.645   9.422
 2028POPC   PO428656  22.341  13.680   9.471
 2028POPC   GL128657  22.474  13.626   9.084
 2028POPC   GL228658  22.554  13.282   9.026
 2028POPC   C1A28659  22.137  13.586   8.795
 2028POPC   D2A28660  22.009  13.441   8.406
 2028POPC   C3A28661  22.205  13.612   8.035
 2028POPC   C4A28662  22.044  13.767   7.656
 2028POPC   C1B28663  22.539  13.352   8.572
 2028POPC   C2B28664  22.397  13.171   8.186
 2028POPC   C3B28665  22.353  13.223   7.741
 2028POPC   C4B28666  22.236  13.370   7.326
 2029POPC   NC328667   0.868   1.008   9.626
 2029POPC   PO428668   1.461   1.283   9.438
 2029POPC   GL128669   1.191   1.049   9.139
 2029POPC   GL228670   1.123   1.384   9.040
 2029POPC   C1A28671   1.110   1.031   8.668
 2029POPC   D2A28672   1.350   1.275   8.356
 2029POPC   C3A28673   1.229   1.321   7.909
 2029POPC   C4A28674   1.198   1.083   7.531
 2029POPC   C1B28675   1.044   1.551   8.662
 2029POPC   C2B28676   0.854   1.438   8.276
 2029POPC   C3B28677   0.816   1.699   7.942
 2029POPC   C4B28678   1.053   1.748   7.599
 2030POPC   NC328679  16.422   6.931   9.367
 2030POPC   PO428680  16.696   7.518   9.681
 2030POPC   GL128681  16.720   7.361   9.261
 2030POPC   GL228682  16.425   7.483   9.173
 2030POPC   C1A28683  16.832   7.302   8.809
 2030POPC   D2A28684  17.107   7.255   8.450
 2030POPC   C3A28685  16.890   7.301   8.044
 2030POPC   C4A28686  16.684   7.425   7.648
 2030POPC   C1B28687  16.483   7.691   8.784
 2030POPC   C2B28688  16.651   7.611   8.395
 2030POPC   C3B28689  16.608   7.801   7.993
 2030POPC   C4B28690  16.254   7.765   7.705
 2031POPC   NC328691   2.474  16.331   9.464
 2031POPC   PO428692   2.985  15.941   9.458
 2031POPC   GL128693   2.687  15.976   9.159
 2031POPC   GL228694   2.626  15.609   9.142
 2031POPC   C1A28695   2.545  16.254   8.805
 2031POPC   D2A28696   2.744  16.236   8.404
 2031POPC   C3A28697   2.627  16.396   8.040
 2031POPC   C4A28698   2.697  16.196   7.643
 2031POPC   C1B28699   2.643  15.760   8.715
 2031POPC   C2B28700   2.839  15.734   8.355
 2031POPC   C3B28701   2.703  15.861   8.005
 2031POPC   C4B28702   2.795  15.694   7.607
 2032POPC   NC328703  31.214  21.711   9.383
 2032POPC   PO428704  31.525  21.150   9.546
 2032POPC   GL128705  31.494  21.328   9.158
 2032POPC   GL228706  31.166  21.200   9.161
 2032POPC   C1A28707  31.383  21.511   8.744
 2032POPC   D2A28708  31.602  21.603   8.375
 2032POPC   C3A28709  31.454  21.439   7.970
 2032POPC   C4A28710  31.695  21.336   7.601
 2032POPC   C1B28711  31.289  21.009   8.788
 2032POPC   C2B28712  31.205  21.170   8.368
 2032POPC   C3B28713  31.076  21.001   7.986
 2032POPC   C4B28714  31.224  21.126   7.596
 2033POPC   NC328715  33.828  15.716   9.568
 2033POPC   PO428716  33.678  15.060   9.643
 2033POPC   GL128717  33.661  15.268   9.232
 2033POPC   GL228718  33.972  15.453   9.147
 2033POPC   C1A28719  33.742  15.155   8.795
 2033POPC   D2A28720  33.893  15.235   8.384
 2033POPC   C3A28721  33.591  15.160   8.094
 2033POPC   C4A28722  33.555  15.105   7.686
 2033POPC   C1B28723  33.950  15.632   8.732
 2033POPC   C2B28724  34.026  15.762   8.321
 2033POPC   C3B28725  34.077  15.515   7.969
 2033POPC   C4B28726  33.972  15.414   7.578
 2034POPC   NC328727   1.146  29.724   9.431
 2034POPC   PO428728   1.598  30.170   9.533
 2034POPC   GL128729   1.375  30.090   9.161
 2034POPC   GL228730   1.009  30.096   9.116
 2034POPC   C1A28731   1.361  29.864   8.752
 2034POPC   D2A28732   1.476  30.054   8.339
 2034POPC   C3A28733   1.352  29.794   7.978
 2034POPC   C4A28734   1.341  29.941   7.558
 2034POPC   C1B28735   0.831  30.113   8.703
 2034POPC   C2B28736   0.975  29.957   8.294
 2034POPC   C3B28737   1.094  30.236   7.928
 2034POPC   C4B28738   1.001  30.300   7.463
 2035POPC   NC328739  27.985  37.317   9.438
 2035POPC   PO428740  28.145  37.970   9.535
 2035POPC   GL128741  28.247  37.701   9.179
 2035POPC   GL228742  28.048  37.477   8.956
 2035POPC   C1A28743  28.415  37.857   8.801
 2035POPC   D2A28744  28.314  37.702   8.418
 2035POPC   C3A28745  28.214  37.941   8.046
 2035POPC   C4A28746  28.433  37.850   7.679
 2035POPC   C1B28747  28.450  37.330   8.787
 2035POPC   C2B28748  28.636  37.287   8.372
 2035POPC   C3B28749  28.475  37.458   7.999
 2035POPC   C4B28750  28.081  37.412   7.831
 2036POPC   NC328751  15.742  23.097   9.433
 2036POPC   PO428752  16.030  22.549   9.384
 2036POPC   GL128753  16.030  22.822   9.059
 2036POPC   GL228754  16.051  23.175   9.056
 2036POPC   C1A28755  16.152  22.833   8.661
 2036POPC   D2A28756  15.917  22.726   8.317
 2036POPC   C3A28757  16.198  22.691   7.982
 2036POPC   C4A28758  16.415  22.758   7.617
 2036POPC   C1B28759  15.738  23.178   8.743
 2036POPC   C2B28760  15.666  23.198   8.306
 2036POPC   C3B28761  15.802  23.016   7.916
 2036POPC   C4B28762  16.127  23.233   7.696
 2037POPC   NC328763   0.559  28.507   9.517
 2037POPC   PO428764  44.967  28.179   9.434
 2037POPC   GL128765   0.231  28.360   9.091
 2037POPC   GL228766   0.546  28.193   9.100
 2037POPC   C1A28767   0.479  28.422   8.664
 2037POPC   D2A28768   0.539  28.308   8.219
 2037POPC   C3A28769   0.349  28.559   7.877
 2037POPC   C4A28770   0.107  28.720   7.519
 2037POPC   C1B28771   0.910  28.213   8.842
 2037POPC   C2B28772   0.985  28.143   8.430
 2037POPC   C3B28773   0.921  27.981   8.022
 2037POPC   C4B28774   0.552  28.088   7.756
 2038POPC   NC328775  40.798  42.368   9.556
 2038POPC   PO428776  41.205  41.886   9.280
 2038POPC   GL128777  40.847  42.104   9.122
 2038POPC   GL228778  40.465  42.091   9.191
 2038POPC   C1A28779  40.903  42.474   8.881
 2038POPC   D2A28780  40.952  42.369   8.458
 2038POPC   C3A28781  40.684  42.065   8.265
 2038POPC   C4A28782  40.718  42.021   7.838
 2038POPC   C1B28783  40.488  42.222   8.751
 2038POPC   C2B28784  40.470  42.525   8.424
 2038POPC   C3B28785  40.718  42.574   8.035
 2038POPC   C4B28786  40.586  42.721   7.594
 2039POPC   NC328787  28.555  20.724   9.618
 2039POPC   PO428788  27.964  20.776   9.761
 2039POPC   GL128789  28.117  20.664   9.275
 2039POPC   GL228790  28.422  20.433   9.223
 2039POPC   C1A28791  28.165  20.487   8.789
 2039POPC   D2A28792  28.402  20.383   8.374
 2039POPC   C3A28793  28.179  20.364   7.982
 2039POPC   C4A28794  28.126  20.751   7.771
 2039POPC   C1B28795  28.623  20.244   8.834
 2039POPC   C2B28796  28.818  20.090   8.403
 2039POPC   C3B28797  28.793  20.330   7.984
 2039POPC   C4B28798  28.538  20.424   7.605
 2040POPC   NC328799  10.090  10.680   9.535
 2040POPC   PO428800   9.523  10.199   9.564
 2040POPC   GL128801   9.454  10.403   9.119
 2040POPC   GL228802   9.312  10.735   9.074
 2040POPC   C1A28803   9.677  10.548   8.715
 2040POPC   D2A28804  10.048  10.466   8.421
 2040POPC   C3A28805   9.898  10.478   7.985
 2040POPC   C4A28806   9.637  10.479   7.591
 2040POPC   C1B28807   9.171  10.888   8.694
 2040POPC   C2B28808   9.322  10.804   8.280
 2040POPC   C3B28809   9.472  10.916   7.869
 2040POPC   C4B28810   9.906  10.891   7.693
 2041POPC   NC328811  22.863  37.728   9.553
 2041POPC   PO428812  23.488  37.662   9.471
 2041POPC   GL128813  23.186  37.735   9.137
 2041POPC   GL228814  22.860  37.529   9.106
 2041POPC   C1A28815  23.116  37.729   8.693
 2041POPC   D2A28816  23.063  37.913   8.305
 2041POPC   C3A28817  23.067  37.686   7.943
 2041POPC   C4A28818  23.351  37.695   7.601
 2041POPC   C1B28819  22.778  37.343   8.745
 2041POPC   C2B28820  22.871  37.425   8.346
 2041POPC   C3B28821  22.632  37.404   8.003
 2041POPC   C4B28822  22.425  37.308   7.655
 2042POPC   NC328823  37.999  22.823   9.524
 2042POPC   PO428824  37.444  23.213   9.384
 2042POPC   GL128825  37.644  22.973   9.028
 2042POPC   GL228826  37.873  22.672   9.056
 2042POPC   C1A28827  37.578  23.104   8.592
 2042POPC   D2A28828  37.469  23.152   8.140
 2042POPC   C3A28829  37.846  23.092   7.928
 2042POPC   C4A28830  37.926  23.026   7.541
 2042POPC   C1B28831  37.630  22.588   8.688
 2042POPC   C2B28832  37.725  22.728   8.282
 2042POPC   C3B28833  37.627  22.627   7.888
 2042POPC   C4B28834  37.783  22.254   7.768
 2043POPC   NC328835   9.783   7.907   9.485
 2043POPC   PO428836   9.902   8.519   9.493
 2043POPC   GL128837   9.574   8.433   9.156
 2043POPC   GL228838   9.465   8.103   9.130
 2043POPC   C1A28839   9.500   8.335   8.689
 2043POPC   D2A28840   9.789   8.223   8.348
 2043POPC   C3A28841   9.596   8.202   7.938
 2043POPC   C4A28842   9.675   8.334   7.500
 2043POPC   C1B28843   9.866   8.036   8.869
 2043POPC   C2B28844   9.937   7.777   8.535
 2043POPC   C3B28845   9.930   7.795   8.080
 2043POPC   C4B28846   9.996   7.993   7.685
 2044POPC   NC328847  37.596  35.026   9.566
 2044POPC   PO428848  37.542  34.387   9.807
 2044POPC   GL128849  37.562  34.587   9.283
 2044POPC   GL228850  37.626  34.871   9.080
 2044POPC   C1A28851  37.658  34.488   8.795
 2044POPC   D2A28852  37.540  34.767   8.469
 2044POPC   C3A28853  37.396  34.635   8.064
 2044POPC   C4A28854  37.559  34.362   7.767
 2044POPC   C1B28855  37.992  34.898   8.768
 2044POPC   C2B28856  38.192  34.911   8.387
 2044POPC   C3B28857  37.879  34.927   8.112
 2044POPC   C4B28858  37.766  34.822   7.740
 2045POPC   NC328859  41.155  19.604   9.597
 2045POPC   PO428860  41.597  20.007   9.567
 2045POPC   GL128861  41.482  19.807   9.207
 2045POPC   GL228862  41.683  19.526   9.110
 2045POPC   C1A28863  41.600  19.905   8.791
 2045POPC   D2A28864  41.428  19.912   8.408
 2045POPC   C3A28865  41.734  19.868   8.083
 2045POPC   C4A28866  41.610  20.073   7.739
 2045POPC   C1B28867  41.461  19.429   8.679
 2045POPC   C2B28868  41.479  19.433   8.257
 2045POPC   C3B28869  41.254  19.724   7.944
 2045POPC   C4B28870  41.248  19.669   7.532
 2046POPC   NC328871  15.847   4.680   9.782
 2046POPC   PO428872  16.166   4.176   9.513
 2046POPC   GL128873  16.060   4.515   9.232
 2046POPC   GL228874  15.772   4.355   9.110
 2046POPC   C1A28875  16.205   4.729   8.844
 2046POPC   D2A28876  16.053   4.848   8.416
 2046POPC   C3A28877  16.119   4.736   7.994
 2046POPC   C4A28878  15.786   4.774   7.760
 2046POPC   C1B28879  15.830   4.431   8.652
 2046POPC   C2B28880  16.036   4.299   8.265
 2046POPC   C3B28881  15.941   4.283   7.811
 2046POPC   C4B28882  15.775   4.091   7.409
 2047POPC   NC328883  27.766  11.349   9.386
 2047POPC   PO428884  27.108  11.246   9.511
 2047POPC   GL128885  27.330  11.435   9.157
 2047POPC   GL228886  27.400  11.084   9.099
 2047POPC   C1A28887  27.300  11.673   8.771
 2047POPC   D2A28888  27.299  11.509   8.362
 2047POPC   C3A28889  27.672  11.424   8.218
 2047POPC   C4A28890  27.718  11.404   7.808
 2047POPC   C1B28891  27.614  11.235   8.730
 2047POPC   C2B28892  27.951  11.067   8.467
 2047POPC   C3B28893  28.131  11.236   8.095
 2047POPC   C4B28894  28.086  11.099   7.658
 2048POPC   NC328895   8.541  20.889   9.470
 2048POPC   PO428896   9.280  20.872   9.442
 2048POPC   GL128897   8.946  21.009   9.175
 2048POPC   GL228898   8.760  20.683   9.063
 2048POPC   C1A28899   9.013  20.985   8.753
 2048POPC   D2A28900   8.855  20.820   8.381
 2048POPC   C3A28901   9.116  20.878   8.056
 2048POPC   C4A28902   9.018  20.986   7.644
 2048POPC   C1B28903   8.914  20.436   8.701
 2048POPC   C2B28904   8.995  20.344   8.240
 2048POPC   C3B28905   8.765  20.195   7.878
 2048POPC   C4B28906   8.834  20.015   7.446
 2049POPC   NC328907  43.675   4.724   9.239
 2049POPC   PO428908  43.788   4.197   9.646
 2049POPC   GL128909  43.939   4.251   9.209
 2049POPC   GL228910  43.937   3.886   9.128
 2049POPC   C1A28911  43.838   4.377   8.731
 2049POPC   D2A28912  43.734   4.226   8.296
 2049POPC   C3A28913  43.546   4.449   7.977
 2049POPC   C4A28914  43.839   4.445   7.636
 2049POPC   C1B28915  44.234   4.087   8.846
 2049POPC   C2B28916  44.234   4.212   8.440
 2049POPC   C3B28917  44.209   4.330   8.046
 2049POPC   C4B28918  44.225   4.045   7.738
 2050POPC   NC328919   3.086  26.558   9.397
 2050POPC   PO428920   3.538  27.109   9.333
 2050POPC   GL128921   3.759  26.924   9.005
 2050POPC   GL228922   3.462  26.721   9.005
 2050POPC   C1A28923   3.747  26.726   8.579
 2050POPC   D2A28924   3.344  26.498   8.462
 2050POPC   C3A28925   3.445  26.416   8.033
 2050POPC   C4A28926   3.747  26.720   7.859
 2050POPC   C1B28927   3.347  26.995   8.691
 2050POPC   C2B28928   3.389  26.950   8.253
 2050POPC   C3B28929   3.283  26.906   7.839
 2050POPC   C4B28930   3.368  27.236   7.562
 2051POPC   NC328931  27.119  43.418   9.496
 2051POPC   PO428932  26.461  43.105   9.522
 2051POPC   GL128933  26.596  43.045   9.101
 2051POPC   GL228934  26.930  43.116   9.110
 2051POPC   C1A28935  26.444  43.240   8.735
 2051POPC   D2A28936  26.565  43.290   8.329
 2051POPC   C3A28937  26.523  42.933   8.065
 2051POPC   C4A28938  26.629  42.977   7.630
 2051POPC   C1B28939  26.953  43.193   8.702
 2051POPC   C2B28940  27.073  43.387   8.325
 2051POPC   C3B28941  26.976  43.196   7.962
 2051POPC   C4B28942  27.061  43.269   7.564
 2052POPC   NC328943  14.838  26.636   9.367
 2052POPC   PO428944  14.222  26.997   9.458
 2052POPC   GL128945  14.436  26.802   9.106
 2052POPC   GL228946  14.750  26.983   9.032
 2052POPC   C1A28947  14.453  26.702   8.670
 2052POPC   D2A28948  14.225  26.829   8.284
 2052POPC   C3A28949  14.492  26.758   7.930
 2052POPC   C4A28950  14.614  26.379   7.789
 2052POPC   C1B28951  14.695  27.248   8.732
 2052POPC   C2B28952  14.623  27.108   8.365
 2052POPC   C3B28953  14.414  27.249   8.029
 2052POPC   C4B28954  14.473  27.173   7.601
 2053POPC   NC328955  12.089  29.754   9.824
 2053POPC   PO428956  11.676  30.287   9.743
 2053POPC   GL128957  11.861  29.914   9.363
 2053POPC   GL228958  12.255  29.841   9.338
 2053POPC   C1A28959  12.054  29.924   8.872
 2053POPC   D2A28960  11.880  30.131   8.483
 2053POPC   C3A28961  12.043  30.109   8.062
 2053POPC   C4A28962  11.957  29.789   7.737
 2053POPC   C1B28963  12.472  29.673   8.954
 2053POPC   C2B28964  12.373  29.642   8.504
 2053POPC   C3B28965  12.398  29.737   8.069
 2053POPC   C4B28966  12.449  29.571   7.658
 2054POPC   NC328967  31.331  18.847   9.807
 2054POPC   PO428968  31.307  18.179   9.705
 2054POPC   GL128969  31.383  18.260   9.270
 2054POPC   GL228970  31.217  18.558   9.275
 2054POPC   C1A28971  31.568  18.483   8.890
 2054POPC   D2A28972  31.437  18.316   8.490
 2054POPC   C3A28973  31.648  18.302   8.074
 2054POPC   C4A28974  31.549  18.105   7.674
 2054POPC   C1B28975  31.067  18.539   8.831
 2054POPC   C2B28976  31.000  18.567   8.412
 2054POPC   C3B28977  31.129  18.339   8.022
 2054POPC   C4B28978  31.112  18.330   7.556
 2055POPC   NC328979  41.317   8.419   9.365
 2055POPC   PO428980  41.828   8.076   9.418
 2055POPC   GL128981  41.667   8.211   9.039
 2055POPC   GL228982  41.759   8.532   8.979
 2055POPC   C1A28983  41.677   8.139   8.604
 2055POPC   D2A28984  41.982   7.943   8.368
 2055POPC   C3A28985  41.867   8.072   7.955
 2055POPC   C4A28986  41.480   8.213   7.759
 2055POPC   C1B28987  41.711   8.651   8.558
 2055POPC   C2B28988  41.575   8.473   8.192
 2055POPC   C3B28989  41.364   8.709   7.878
 2055POPC   C4B28990  41.422   8.643   7.462
 2056POPC   NC328991  39.268  29.679   9.461
 2056POPC   PO428992  39.062  30.337   9.482
 2056POPC   GL128993  39.040  30.022   9.101
 2056POPC   GL228994  39.011  29.621   9.042
 2056POPC   C1A28995  39.312  29.862   8.737
 2056POPC   D2A28996  39.527  29.828   8.355
 2056POPC   C3A28997  39.407  29.840   7.932
 2056POPC   C4A28998  39.127  30.162   7.756
 2056POPC   C1B28999  38.800  29.745   8.701
 2056POPC   C2B29000  39.014  29.495   8.449
 2056POPC   C3B29001  38.983  29.445   8.059
 2056POPC   C4B29002  39.014  29.636   7.672
 2057POPC   NC329003  20.995  25.107   9.474
 2057POPC   PO429004  20.307  25.230   9.552
 2057POPC   GL129005  20.541  25.117   9.193
 2057POPC   GL229006  20.518  25.391   8.997
 2057POPC   C1A29007  20.526  24.967   8.743
 2057POPC   D2A29008  20.674  25.053   8.362
 2057POPC   C3A29009  20.616  24.858   7.930
 2057POPC   C4A29010  20.348  25.037   7.587
 2057POPC   C1B29011  20.649  25.532   8.610
 2057POPC   C2B29012  20.424  25.532   8.294
 2057POPC   C3B29013  20.543  25.362   7.969
 2057POPC   C4B29014  20.564  25.546   7.622
 2058POPC   NC329015   7.197  24.133   9.459
 2058POPC   PO429016   7.602  23.584   9.546
 2058POPC   GL129017   7.496  23.806   9.175
 2058POPC   GL229018   7.581  24.157   9.118
 2058POPC   C1A29019   7.270  23.715   8.803
 2058POPC   D2A29020   7.247  23.386   8.467
 2058POPC   C3A29021   7.220  23.527   8.045
 2058POPC   C4A29022   7.486  23.539   7.685
 2058POPC   C1B29023   7.703  23.998   8.713
 2058POPC   C2B29024   7.512  23.916   8.275
 2058POPC   C3B29025   7.658  23.999   7.824
 2058POPC   C4B29026   7.660  24.133   7.343
 2059POPC   NC329027  42.073  16.080   9.516
 2059POPC   PO429028  42.789  15.979   9.429
 2059POPC   GL129029  42.612  16.084   9.052
 2059POPC   GL229030  42.306  16.236   9.079
 2059POPC   C1A29031  42.556  16.140   8.629
 2059POPC   D2A29032  42.540  15.798   8.375
 2059POPC   C3A29033  42.556  15.914   7.967
 2059POPC   C4A29034  42.669  15.660   7.655
 2059POPC   C1B29035  42.172  15.893   8.834
 2059POPC   C2B29036  42.069  15.973   8.410
 2059POPC   C3B29037  42.077  16.090   7.970
 2059POPC   C4B29038  42.180  15.833   7.602
 2060POPC   NC329039  13.711  35.252   9.562
 2060POPC   PO429040  13.059  35.236   9.301
 2060POPC   GL129041  13.461  35.339   9.114
 2060POPC   GL229042  13.688  35.046   9.091
 2060POPC   C1A29043  13.781  35.497   8.825
 2060POPC   D2A29044  14.107  35.518   8.501
 2060POPC   C3A29045  13.903  35.463   8.112
 2060POPC   C4A29046  13.853  35.675   7.692
 2060POPC   C1B29047  14.016  35.004   8.766
 2060POPC   C2B29048  13.866  34.929   8.424
 2060POPC   C3B29049  13.981  34.943   8.043
 2060POPC   C4B29050  13.781  35.168   7.733
 2061POPC   NC329051   2.989  15.476   9.510
 2061POPC   PO429052   2.367  15.158   9.531
 2061POPC   GL129053   2.608  15.094   9.168
 2061POPC   GL229054   2.939  15.125   9.114
 2061POPC   C1A29055   2.663  15.270   8.738
 2061POPC   D2A29056   2.910  15.183   8.379
 2061POPC   C3A29057   2.792  15.339   7.992
 2061POPC   C4A29058   2.598  15.169   7.621
 2061POPC   C1B29059   3.170  14.923   8.773
 2061POPC   C2B29060   3.408  15.137   8.447
 2061POPC   C3B29061   3.295  15.169   8.040
 2061POPC   C4B29062   3.020  14.929   7.774
 2062POPC   NC329063   0.718  23.410   9.415
 2062POPC   PO429064   0.142  23.728   9.438
 2062POPC   GL129065   0.438  23.886   9.170
 2062POPC   GL229066   0.481  23.589   9.007
 2062POPC   C1A29067   0.313  24.011   8.774
 2062POPC   D2A29068   0.535  24.113   8.439
 2062POPC   C3A29069   0.328  24.098   8.018
 2062POPC   C4A29070   0.519  23.856   7.768
 2062POPC   C1B29071   0.653  23.636   8.617
 2062POPC   C2B29072   0.436  23.644   8.262
 2062POPC   C3B29073   0.373  23.345   7.993
 2062POPC   C4B29074   0.257  23.451   7.648
 2063POPC   NC329075   7.480  28.368   9.463
 2063POPC   PO429076   6.909  28.024   9.244
 2063POPC   GL129077   7.244  28.257   9.029
 2063POPC   GL229078   7.646  28.182   9.043
 2063POPC   C1A29079   7.215  28.405   8.633
 2063POPC   D2A29080   7.198  28.096   8.328
 2063POPC   C3A29081   7.398  28.217   7.976
 2063POPC   C4A29082   7.399  28.561   7.705
 2063POPC   C1B29083   7.609  28.043   8.657
 2063POPC   C2B29084   7.924  27.914   8.373
 2063POPC   C3B29085   7.898  27.893   7.951
 2063POPC   C4B29086   7.741  28.123   7.600
 2064POPC   NC329087  12.826  35.679   9.748
 2064POPC   PO429088  13.148  36.225   9.422
 2064POPC   GL129089  12.872  36.102   9.150
 2064POPC   GL229090  12.652  35.753   9.265
 2064POPC   C1A29091  12.860  36.325   8.767
 2064POPC   D2A29092  12.685  36.209   8.378
 2064POPC   C3A29093  12.991  36.114   8.075
 2064POPC   C4A29094  13.013  36.387   7.736
 2064POPC   C1B29095  12.618  35.821   8.831
 2064POPC   C2B29096  12.829  35.729   8.460
 2064POPC   C3B29097  12.647  35.715   8.064
 2064POPC   C4B29098  12.632  36.016   7.728
 2065POPC   NC329099  31.937  44.545   9.355
 2065POPC   PO429100  32.373   0.035   9.350
 2065POPC   GL129101  32.227  44.838   9.034
 2065POPC   GL229102  32.382  44.506   9.092
 2065POPC   C1A29103  32.446  44.839   8.668
 2065POPC   D2A29104  32.396   0.152   8.399
 2065POPC   C3A29105  32.472   0.001   8.020
 2065POPC   C4A29106  32.333  44.687   7.746
 2065POPC   C1B29107  32.132  44.447   8.711
 2065POPC   C2B29108  32.295  44.468   8.278
 2065POPC   C3B29109  32.382  44.227   7.905
 2065POPC   C4B29110  32.277  44.253   7.421
 2066POPC   NC329111   5.230  21.412   9.594
 2066POPC   PO429112   4.546  21.094   9.620
 2066POPC   GL129113   4.799  21.366   9.294
 2066POPC   GL229114   5.086  21.629   9.174
 2066POPC   C1A29115   4.853  21.286   8.855
 2066POPC   D2A29116   4.987  21.192   8.451
 2066POPC   C3A29117   4.835  21.381   8.136
 2066POPC   C4A29118   5.015  21.247   7.785
 2066POPC   C1B29119   5.245  21.646   8.738
 2066POPC   C2B29120   5.319  21.577   8.292
 2066POPC   C3B29121   5.211  21.715   7.870
 2066POPC   C4B29122   5.247  21.522   7.435
 2067POPC   NC329123  24.918  19.811   9.478
 2067POPC   PO429124  24.253  20.030   9.690
 2067POPC   GL129125  24.243  19.813   9.311
 2067POPC   GL229126  24.546  19.903   9.154
 2067POPC   C1A29127  24.163  19.853   8.847
 2067POPC   D2A29128  24.145  20.162   8.502
 2067POPC   C3A29129  24.316  20.032   8.102
 2067POPC   C4A29130  24.399  19.737   7.808
 2067POPC   C1B29131  24.594  20.102   8.742
 2067POPC   C2B29132  24.755  20.043   8.365
 2067POPC   C3B29133  24.772  20.216   7.942
 2067POPC   C4B29134  25.017  20.183   7.589
 2068POPC   NC329135  15.399  27.330   9.450
 2068POPC   PO429136  14.921  27.811   9.556
 2068POPC   GL129137  14.798  27.723   9.149
 2068POPC   GL229138  15.001  27.428   9.107
 2068POPC   C1A29139  14.903  27.739   8.718
 2068POPC   D2A29140  14.922  27.964   8.320
 2068POPC   C3A29141  15.139  27.725   8.009
 2068POPC   C4A29142  15.529  27.804   7.836
 2068POPC   C1B29143  15.372  27.540   8.834
 2068POPC   C2B29144  15.628  27.317   8.529
 2068POPC   C3B29145  15.459  27.103   8.166
 2068POPC   C4B29146  15.428  27.294   7.788
 2069POPC   NC329147  24.768  29.471   9.852
 2069POPC   PO429148  24.464  29.980   9.484
 2069POPC   GL129149  24.441  29.950   9.107
 2069POPC   GL229150  24.755  29.854   9.068
 2069POPC   C1A29151  24.465  30.033   8.692
 2069POPC   D2A29152  24.203  30.120   8.414
 2069POPC   C3A29153  24.394  30.013   8.063
 2069POPC   C4A29154  24.544  29.925   7.682
 2069POPC   C1B29155  24.904  29.710   8.713
 2069POPC   C2B29156  24.727  29.744   8.331
 2069POPC   C3B29157  24.813  29.573   7.953
 2069POPC   C4B29158  24.977  29.635   7.575
 2070POPC   NC329159  23.321  15.540   9.371
 2070POPC   PO429160  23.930  15.359   9.595
 2070POPC   GL129161  23.925  15.193   9.170
 2070POPC   GL229162  23.551  15.185   9.090
 2070POPC   C1A29163  23.931  15.381   8.772
 2070POPC   D2A29164  23.662  15.545   8.461
 2070POPC   C3A29165  23.695  15.317   8.078
 2070POPC   C4A29166  23.919  15.285   7.680
 2070POPC   C1B29167  23.307  14.878   8.815
 2070POPC   C2B29168  23.416  15.045   8.437
 2070POPC   C3B29169  23.350  14.866   8.065
 2070POPC   C4B29170  23.441  15.021   7.671
 2071POPC   NC329171  28.198  41.890   9.611
 2071POPC   PO429172  28.291  41.246   9.409
 2071POPC   GL129173  28.447  41.384   9.059
 2071POPC   GL229174  28.283  41.688   9.137
 2071POPC   C1A29175  28.350  41.423   8.629
 2071POPC   D2A29176  28.189  41.168   8.295
 2071POPC   C3A29177  28.381  41.375   7.959
 2071POPC   C4A29178  28.557  41.739   7.782
 2071POPC   C1B29179  28.134  41.886   8.811
 2071POPC   C2B29180  28.336  41.924   8.458
 2071POPC   C3B29181  28.173  41.891   8.079
 2071POPC   C4B29182  28.003  42.132   7.732
 2072POPC   NC329183  30.319  21.468   9.373
 2072POPC   PO429184  29.729  21.152   9.509
 2072POPC   GL129185  29.972  21.170   9.138
 2072POPC   GL229186  30.316  20.981   9.191
 2072POPC   C1A29187  29.929  21.469   8.789
 2072POPC   D2A29188  29.725  21.542   8.365
 2072POPC   C3A29189  29.800  21.222   8.075
 2072POPC   C4A29190  29.884  21.501   7.764
 2072POPC   C1B29191  30.324  21.124   8.751
 2072POPC   C2B29192  30.202  21.329   8.389
 2072POPC   C3B29193  30.283  21.289   7.994
 2072POPC   C4B29194  30.154  21.100   7.628
 2073POPC   NC329195  22.510  14.968   9.436
 2073POPC   PO429196  22.196  15.622   9.568
 2073POPC   GL129197  22.190  15.411   9.148
 2073POPC   GL229198  22.190  15.042   9.063
 2073POPC   C1A29199  22.177  15.350   8.684
 2073POPC   D2A29200  22.324  15.500   8.311
 2073POPC   C3A29201  22.059  15.385   7.973
 2073POPC   C4A29202  22.183  15.397   7.537
 2073POPC   C1B29203  22.393  14.860   8.710
 2073POPC   C2B29204  22.403  14.980   8.269
 2073POPC   C3B29205  22.331  14.960   7.836
 2073POPC   C4B29206  22.540  15.046   7.448
 2074POPC   NC329207  30.261  23.069   9.499
 2074POPC   PO429208  30.769  22.809   9.668
 2074POPC   GL129209  30.664  22.920   9.192
 2074POPC   GL229210  30.944  23.166   9.030
 2074POPC   C1A29211  30.781  22.783   8.734
 2074POPC   D2A29212  30.892  22.998   8.326
 2074POPC   C3A29213  30.716  22.765   7.961
 2074POPC   C4A29214  30.496  22.585   7.613
 2074POPC   C1B29215  30.584  23.253   8.805
 2074POPC   C2B29216  30.548  23.388   8.409
 2074POPC   C3B29217  30.574  23.272   7.983
 2074POPC   C4B29218  30.901  23.213   7.723
 2075POPC   NC329219  21.006  42.678   9.426
 2075POPC   PO429220  20.582  42.238   9.681
 2075POPC   GL129221  20.604  42.300   9.231
 2075POPC   GL229222  20.706  42.603   9.031
 2075POPC   C1A29223  20.645  42.119   8.819
 2075POPC   D2A29224  20.489  42.021   8.411
 2075POPC   C3A29225  20.563  42.181   8.034
 2075POPC   C4A29226  20.864  42.236   7.734
 2075POPC   C1B29227  20.347  42.530   8.771
 2075POPC   C2B29228  20.419  42.594   8.327
 2075POPC   C3B29229  20.637  42.667   7.919
 2075POPC   C4B29230  20.378  42.438   7.588
 2076POPC   NC329231  24.452   3.508   9.605
 2076POPC   PO429232  25.079   3.323   9.467
 2076POPC   GL129233  24.707   3.422   9.162
 2076POPC   GL229234  24.347   3.301   9.126
 2076POPC   C1A29235  24.634   3.715   8.788
 2076POPC   D2A29236  24.423   3.693   8.377
 2076POPC   C3A29237  24.732   3.598   8.056
 2076POPC   C4A29238  24.769   3.503   7.597
 2076POPC   C1B29239  24.535   3.233   8.714
 2076POPC   C2B29240  24.402   3.146   8.316
 2076POPC   C3B29241  24.532   3.155   7.908
 2076POPC   C4B29242  24.375   3.203   7.512
 2077POPC   NC329243   9.924  21.474   9.713
 2077POPC   PO429244   9.452  21.787   9.415
 2077POPC   GL129245   9.741  21.567   9.155
 2077POPC   GL229246  10.046  21.707   9.243
 2077POPC   C1A29247   9.647  21.298   8.771
 2077POPC   D2A29248   9.761  21.083   8.403
 2077POPC   C3A29249   9.592  21.231   8.028
 2077POPC   C4A29250   9.714  21.321   7.649
 2077POPC   C1B29251  10.101  21.547   8.802
 2077POPC   C2B29252   9.948  21.585   8.378
 2077POPC   C3B29253  10.058  21.506   7.957
 2077POPC   C4B29254  10.058  21.642   7.494
 2078POPC   NC329255  37.571  43.209   9.796
 2078POPC   PO429256  38.179  43.165   9.689
 2078POPC   GL129257  37.967  43.191   9.265
 2078POPC   GL229258  37.685  42.953   9.233
 2078POPC   C1A29259  38.045  43.155   8.820
 2078POPC   D2A29260  38.158  43.328   8.390
 2078POPC   C3A29261  37.988  43.126   8.049
 2078POPC   C4A29262  37.716  42.991   7.719
 2078POPC   C1B29263  37.380  42.740   8.936
 2078POPC   C2B29264  37.442  42.577   8.509
 2078POPC   C3B29265  37.573  42.719   8.124
 2078POPC   C4B29266  37.380  42.583   7.746
 2079POPC   NC329267  33.350  44.346   9.453
 2079POPC   PO429268  33.140  44.937   9.713
 2079POPC   GL129269  32.980  44.716   9.308
 2079POPC   GL229270  32.765  44.881   9.079
 2079POPC   C1A29271  32.997  44.475   8.885
 2079POPC   D2A29272  33.074  44.653   8.470
 2079POPC   C3A29273  32.899  44.461   8.072
 2079POPC   C4A29274  33.210  44.498   7.717
 2079POPC   C1B29275  32.882   0.095   8.707
 2079POPC   C2B29276  32.877   0.261   8.292
 2079POPC   C3B29277  33.009  44.953   8.048
 2079POPC   C4B29278  32.815  44.817   7.683
 2080POPC   NC329279  14.884  21.855   9.513
 2080POPC   PO429280  14.392  22.280   9.344
 2080POPC   GL129281  14.360  22.057   9.062
 2080POPC   GL229282  14.061  21.996   9.048
 2080POPC   C1A29283  14.538  22.152   8.706
 2080POPC   D2A29284  14.732  22.339   8.415
 2080POPC   C3A29285  14.765  22.117   8.080
 2080POPC   C4A29286  14.506  22.079   7.729
 2080POPC   C1B29287  14.089  21.940   8.645
 2080POPC   C2B29288  14.241  22.134   8.302
 2080POPC   C3B29289  14.051  22.228   7.976
 2080POPC   C4B29290  14.053  21.862   7.779
 2081POPC   NC329291  41.768  27.060   9.360
 2081POPC   PO429292  41.354  26.555   9.482
 2081POPC   GL129293  41.538  26.621   9.106
 2081POPC   GL229294  41.340  26.937   9.056
 2081POPC   C1A29295  41.851  26.610   8.768
 2081POPC   D2A29296  41.993  26.528   8.353
 2081POPC   C3A29297  41.847  26.833   8.042
 2081POPC   C4A29298  41.524  26.771   7.751
 2081POPC   C1B29299  41.494  26.968   8.616
 2081POPC   C2B29300  41.332  26.969   8.164
 2081POPC   C3B29301  41.116  27.085   7.730
 2081POPC   C4B29302  41.318  27.251   7.355
 2082POPC   NC329303  35.801  40.317   9.955
 2082POPC   PO429304  35.350  39.916   9.580
 2082POPC   GL129305  35.315  40.049   9.207
 2082POPC   GL229306  35.084  40.304   9.248
 2082POPC   C1A29307  35.402  39.863   8.831
 2082POPC   D2A29308  35.411  40.049   8.444
 2082POPC   C3A29309  35.348  39.853   8.075
 2082POPC   C4A29310  35.489  40.025   7.703
 2082POPC   C1B29311  34.984  40.173   8.792
 2082POPC   C2B29312  34.900  39.960   8.366
 2082POPC   C3B29313  34.931  40.118   7.931
 2082POPC   C4B29314  34.916  40.562   7.832
 2083POPC   NC329315   2.801   7.776   9.481
 2083POPC   PO429316   2.417   7.256   9.430
 2083POPC   GL129317   2.711   7.198   9.109
 2083POPC   GL229318   2.684   7.535   9.063
 2083POPC   C1A29319   2.646   7.059   8.676
 2083POPC   D2A29320   2.379   7.230   8.327
 2083POPC   C3A29321   2.589   7.363   7.928
 2083POPC   C4A29322   2.848   7.273   7.521
 2083POPC   C1B29323   2.552   7.558   8.700
 2083POPC   C2B29324   2.795   7.560   8.369
 2083POPC   C3B29325   2.870   7.821   8.076
 2083POPC   C4B29326   2.757   7.753   7.649
 2084POPC   NC329327  14.643  20.935   9.566
 2084POPC   PO429328  14.481  20.312   9.644
 2084POPC   GL129329  14.399  20.565   9.277
 2084POPC   GL229330  14.767  20.523   9.240
 2084POPC   C1A29331  14.454  20.742   8.844
 2084POPC   D2A29332  14.344  20.533   8.423
 2084POPC   C3A29333  14.181  20.722   8.017
 2084POPC   C4A29334  14.147  20.790   7.566
 2084POPC   C1B29335  14.900  20.504   8.826
 2084POPC   C2B29336  14.813  20.762   8.445
 2084POPC   C3B29337  14.690  20.649   8.025
 2084POPC   C4B29338  14.882  20.637   7.615
 2085POPC   NC329339  43.101  34.128   9.446
 2085POPC   PO429340  43.290  33.489   9.511
 2085POPC   GL129341  43.285  33.491   9.071
 2085POPC   GL229342  42.994  33.675   9.079
 2085POPC   C1A29343  43.237  33.603   8.614
 2085POPC   D2A29344  43.205  33.958   8.297
 2085POPC   C3A29345  43.304  33.755   7.909
 2085POPC   C4A29346  43.035  33.413   7.810
 2085POPC   C1B29347  43.008  34.028   8.781
 2085POPC   C2B29348  42.641  34.140   8.492
 2085POPC   C3B29349  42.497  33.948   8.133
 2085POPC   C4B29350  42.820  33.875   7.797
 2086POPC   NC329351  39.460  26.579   9.517
 2086POPC   PO429352  39.172  27.213   9.555
 2086POPC   GL129353  39.172  26.921   9.227
 2086POPC   GL229354  39.008  26.613   9.289
 2086POPC   C1A29355  39.319  26.736   8.833
 2086POPC   D2A29356  39.487  26.768   8.406
 2086POPC   C3A29357  39.248  26.903   8.056
 2086POPC   C4A29358  39.165  27.223   7.753
 2086POPC   C1B29359  38.881  26.459   8.875
 2086POPC   C2B29360  38.852  26.386   8.424
 2086POPC   C3B29361  38.821  26.612   8.022
 2086POPC   C4B29362  39.059  26.733   7.606
 2087POPC   NC329363   4.206  31.670   9.525
 2087POPC   PO429364   4.587  31.074   9.488
 2087POPC   GL129365   4.414  31.334   9.162
 2087POPC   GL229366   4.488  31.677   9.108
 2087POPC   C1A29367   4.602  31.284   8.740
 2087POPC   D2A29368   4.525  31.244   8.317
 2087POPC   C3A29369   4.368  31.333   7.928
 2087POPC   C4A29370   4.691  31.629   7.822
 2087POPC   C1B29371   4.233  31.627   8.741
 2087POPC   C2B29372   4.153  31.617   8.321
 2087POPC   C3B29373   4.200  31.815   7.957
 2087POPC   C4B29374   3.944  31.664   7.672
 2088POPC   NC329375  11.913   5.273   9.760
 2088POPC   PO429376  12.358   5.217   9.242
 2088POPC   GL129377  12.210   4.954   8.958
 2088POPC   GL229378  12.497   4.790   8.884
 2088POPC   C1A29379  11.949   5.017   8.596
 2088POPC   D2A29380  11.720   5.409   8.473
 2088POPC   C3A29381  11.916   5.424   8.086
 2088POPC   C4A29382  11.810   5.114   7.772
 2088POPC   C1B29383  12.488   5.028   8.546
 2088POPC   C2B29384  12.345   5.054   8.185
 2088POPC   C3B29385  12.446   4.818   7.856
 2088POPC   C4B29386  12.292   5.128   7.629
 2089POPC   NC329387  33.471   0.176   9.489
 2089POPC   PO429388  33.983   0.525   9.694
 2089POPC   GL129389  33.821   0.476   9.252
 2089POPC   GL229390  33.838   0.114   9.079
 2089POPC   C1A29391  33.907   0.569   8.827
 2089POPC   D2A29392  33.831   0.321   8.464
 2089POPC   C3A29393  33.771   0.581   8.116
 2089POPC   C4A29394  33.776   0.678   7.683
 2089POPC   C1B29395  33.662  44.887   8.686
 2089POPC   C2B29396  33.711  44.838   8.255
 2089POPC   C3B29397  33.844   0.106   7.932
 2089POPC   C4B29398  33.745   0.210   7.491
 2090POPC   NC329399  28.973  11.844   9.693
 2090POPC   PO429400  29.325  12.381   9.502
 2090POPC   GL129401  29.127  12.014   9.226
 2090POPC   GL229402  28.792  12.079   9.105
 2090POPC   C1A29403  29.045  11.747   8.828
 2090POPC   D2A29404  29.185  11.753   8.379
 2090POPC   C3A29405  29.077  11.870   7.958
 2090POPC   C4A29406  29.020  12.078   7.595
 2090POPC   C1B29407  28.946  12.223   8.674
 2090POPC   C2B29408  29.096  12.306   8.244
 2090POPC   C3B29409  28.952  12.513   7.852
 2090POPC   C4B29410  28.683  12.439   7.456
 2091POPC   NC329411   9.318  39.346   9.631
 2091POPC   PO429412   8.692  39.075   9.677
 2091POPC   GL129413   8.897  38.998   9.285
 2091POPC   GL229414   9.225  38.840   9.262
 2091POPC   C1A29415   9.087  39.264   8.948
 2091POPC   D2A29416   9.256  39.256   8.513
 2091POPC   C3A29417   9.250  39.522   8.158
 2091POPC   C4A29418   9.360  39.416   7.750
 2091POPC   C1B29419   9.038  38.768   8.844
 2091POPC   C2B29420   8.884  38.899   8.453
 2091POPC   C3B29421   9.044  39.018   8.067
 2091POPC   C4B29422   9.268  38.883   7.739
 2092POPC   NC329423  44.792  14.270   9.500
 2092POPC   PO429424  44.954  14.914   9.301
 2092POPC   GL129425  44.612  14.617   9.148
 2092POPC   GL229426  44.786  14.328   8.979
 2092POPC   C1A29427  44.378  14.485   8.738
 2092POPC   D2A29428  44.581  14.381   8.341
 2092POPC   C3A29429  44.323  14.518   8.019
 2092POPC   C4A29430  44.304  14.583   7.600
 2092POPC   C1B29431  44.899  14.080   8.626
 2092POPC   C2B29432  44.783  13.865   8.250
 2092POPC   C3B29433  44.540  14.046   7.939
 2092POPC   C4B29434  44.761  14.415   7.784
 2093POPC   NC329435  20.996  26.101   9.369
 2093POPC   PO429436  21.516  26.464   9.480
 2093POPC   GL129437  21.689  26.117   9.249
 2093POPC   GL229438  21.413  25.896   9.132
 2093POPC   C1A29439  21.829  26.117   8.833
 2093POPC   D2A29440  21.540  26.263   8.519
 2093POPC   C3A29441  21.685  26.184   8.122
 2093POPC   C4A29442  21.607  26.325   7.696
 2093POPC   C1B29443  21.261  25.732   8.726
 2093POPC   C2B29444  21.310  25.832   8.280
 2093POPC   C3B29445  21.238  26.044   7.885
 2093POPC   C4B29446  21.095  26.379   7.647
 2094POPC   NC329447  25.249  40.344   9.338
 2094POPC   PO429448  25.517  40.990   9.554
 2094POPC   GL129449  25.327  40.853   9.207
 2094POPC   GL229450  25.370  41.156   9.064
 2094POPC   C1A29451  25.148  40.766   8.798
 2094POPC   D2A29452  25.248  40.840   8.396
 2094POPC   C3A29453  24.985  40.822   8.057
 2094POPC   C4A29454  24.832  40.586   7.728
 2094POPC   C1B29455  25.629  41.101   8.724
 2094POPC   C2B29456  25.769  40.934   8.347
 2094POPC   C3B29457  25.565  40.793   7.997
 2094POPC   C4B29458  25.706  40.729   7.614
 2095POPC   NC329459  11.111   1.275   9.772
 2095POPC   PO429460  11.414   1.403   9.119
 2095POPC   GL129461  11.153   1.054   8.971
 2095POPC   GL229462  10.856   1.152   8.832
 2095POPC   C1A29463  11.124   0.859   8.545
 2095POPC   D2A29464  11.099   1.034   8.143
 2095POPC   C3A29465  11.506   1.184   7.974
 2095POPC   C4A29466  11.552   1.018   7.547
 2095POPC   C1B29467  11.000   1.415   8.498
 2095POPC   C2B29468  11.103   1.543   8.074
 2095POPC   C3B29469  11.136   1.326   7.673
 2095POPC   C4B29470  11.038   1.066   7.332
 2096POPC   NC329471   7.806  23.161   9.545
 2096POPC   PO429472   8.108  23.631   9.266
 2096POPC   GL129473   8.124  23.172   9.120
 2096POPC   GL229474   8.425  22.955   9.055
 2096POPC   C1A29475   8.075  22.963   8.706
 2096POPC   D2A29476   8.335  23.050   8.353
 2096POPC   C3A29477   8.120  22.996   7.966
 2096POPC   C4A29478   7.906  23.361   7.885
 2096POPC   C1B29479   8.525  22.689   8.723
 2096POPC   C2B29480   8.649  22.579   8.304
 2096POPC   C3B29481   8.650  22.888   7.992
 2096POPC   C4B29482   8.498  23.033   7.590
 2097POPC   NC329483  10.988  35.998   9.337
 2097POPC   PO429484  11.495  36.304   9.537
 2097POPC   GL129485  11.358  36.238   9.076
 2097POPC   GL229486  10.992  36.208   8.895
 2097POPC   C1A29487  11.377  35.888   8.787
 2097POPC   D2A29488  11.172  35.785   8.428
 2097POPC   C3A29489  11.220  36.107   8.133
 2097POPC   C4A29490  11.258  36.029   7.707
 2097POPC   C1B29491  11.076  36.444   8.532
 2097POPC   C2B29492  10.868  36.545   8.152
 2097POPC   C3B29493  10.826  36.284   7.783
 2097POPC   C4B29494  10.802  36.077   7.400
 2098POPC   NC329495  36.472  40.524   9.539
 2098POPC   PO429496  35.862  40.750   9.782
 2098POPC   GL129497  35.978  40.682   9.297
 2098POPC   GL229498  35.767  40.877   9.098
 2098POPC   C1A29499  36.005  40.462   8.876
 2098POPC   D2A29500  36.117  40.560   8.415
 2098POPC   C3A29501  35.926  40.522   7.991
 2098POPC   C4A29502  35.994  40.627   7.522
 2098POPC   C1B29503  36.045  40.945   8.745
 2098POPC   C2B29504  35.904  40.996   8.306
 2098POPC   C3B29505  36.049  41.010   7.906
 2098POPC   C4B29506  36.493  40.966   7.820
 2099POPC   NC329507  13.349  13.429   9.446
 2099POPC   PO429508  13.836  13.874   9.420
 2099POPC   GL129509  13.732  13.548   9.137
 2099POPC   GL229510  13.459  13.746   9.042
 2099POPC   C1A29511  13.544  13.306   8.808
 2099POPC   D2A29512  13.549  13.210   8.384
 2099POPC   C3A29513  13.474  13.557   8.178
 2099POPC   C4A29514  13.472  13.532   7.781
 2099POPC   C1B29515  13.676  13.991   8.736
 2099POPC   C2B29516  13.827  13.944   8.263
 2099POPC   C3B29517  13.926  14.139   7.855
 2099POPC   C4B29518  13.890  13.960   7.411
 2100POPC   NC329519  12.856  24.559   9.415
 2100POPC   PO429520  12.835  23.958   9.610
 2100POPC   GL129521  12.830  24.138   9.149
 2100POPC   GL229522  12.566  24.386   9.049
 2100POPC   C1A29523  13.037  24.299   8.751
 2100POPC   D2A29524  12.935  24.604   8.427
 2100POPC   C3A29525  13.029  24.484   7.997
 2100POPC   C4A29526  13.047  24.831   7.764
 2100POPC   C1B29527  12.531  24.222   8.670
 2100POPC   C2B29528  12.768  24.147   8.314
 2100POPC   C3B29529  12.524  24.464   8.047
 2100POPC   C4B29530  12.294  24.410   7.659
 2101POPC   NC329531   8.796   9.819   9.736
 2101POPC   PO429532   8.494   9.196   9.455
 2101POPC   GL129533   8.668   9.387   9.061
 2101POPC   GL229534   8.997   9.571   9.139
 2101POPC   C1A29535   8.727   9.651   8.692
 2101POPC   D2A29536   8.562   9.719   8.268
 2101POPC   C3A29537   8.887   9.765   7.955
 2101POPC   C4A29538   8.884   9.770   7.510
 2101POPC   C1B29539   9.244   9.658   8.754
 2101POPC   C2B29540   9.227   9.883   8.373
 2101POPC   C3B29541   9.403   9.706   8.012
 2101POPC   C4B29542   9.339   9.610   7.607
 2102POPC   NC329543  43.290  36.255   9.799
 2102POPC   PO429544  42.781  35.879   9.486
 2102POPC   GL129545  43.080  35.842   9.131
 2102POPC   GL229546  43.413  35.979   9.248
 2102POPC   C1A29547  43.030  35.990   8.690
 2102POPC   D2A29548  42.744  35.930   8.338
 2102POPC   C3A29549  42.806  36.107   7.944
 2102POPC   C4A29550  43.063  36.027   7.599
 2102POPC   C1B29551  43.480  36.234   8.880
 2102POPC   C2B29552  43.410  36.268   8.461
 2102POPC   C3B29553  43.299  36.075   8.087
 2102POPC   C4B29554  43.559  35.991   7.732
 2103POPC   NC329555  32.089  35.601   9.456
 2103POPC   PO429556  31.975  35.092   9.806
 2103POPC   GL129557  32.071  35.043   9.299
 2103POPC   GL229558  32.191  35.335   9.067
 2103POPC   C1A29559  32.050  34.928   8.853
 2103POPC   D2A29560  32.320  35.036   8.562
 2103POPC   C3A29561  32.198  35.236   8.221
 2103POPC   C4A29562  32.289  35.352   7.813
 2103POPC   C1B29563  32.018  35.483   8.650
 2103POPC   C2B29564  31.988  35.697   8.211
 2103POPC   C3B29565  31.815  35.556   7.775
 2103POPC   C4B29566  31.868  35.771   7.334
 2104POPC   NC329567  38.288  29.486   9.444
 2104POPC   PO429568  38.491  28.857   9.478
 2104POPC   GL129569  38.595  29.167   9.167
 2104POPC   GL229570  38.251  29.095   9.073
 2104POPC   C1A29571  38.549  29.298   8.738
 2104POPC   D2A29572  38.276  29.068   8.448
 2104POPC   C3A29573  38.435  29.065   8.037
 2104POPC   C4A29574  38.695  29.177   7.696
 2104POPC   C1B29575  37.990  29.320   8.780
 2104POPC   C2B29576  37.937  29.442   8.343
 2104POPC   C3B29577  38.067  29.417   7.891
 2104POPC   C4B29578  38.195  29.074   7.594
 2105POPC   NC329579  29.165  43.330   9.345
 2105POPC   PO429580  28.723  43.150   9.835
 2105POPC   GL129581  28.929  42.903   9.332
 2105POPC   GL229582  29.259  42.955   9.046
 2105POPC   C1A29583  28.851  42.845   8.823
 2105POPC   D2A29584  29.086  43.100   8.507
 2105POPC   C3A29585  29.064  42.977   8.063
 2105POPC   C4A29586  28.828  43.207   7.760
 2105POPC   C1B29587  29.498  42.735   8.766
 2105POPC   C2B29588  29.598  42.842   8.363
 2105POPC   C3B29589  29.546  43.162   8.076
 2105POPC   C4B29590  29.550  43.009   7.679
 2106POPC   NC329591  28.759  41.165   9.445
 2106POPC   PO429592  29.062  41.793   9.381
 2106POPC   GL129593  29.151  41.364   9.118
 2106POPC   GL229594  29.530  41.207   9.106
 2106POPC   C1A29595  28.993  41.152   8.723
 2106POPC   D2A29596  28.733  41.199   8.315
 2106POPC   C3A29597  28.943  41.470   7.979
 2106POPC   C4A29598  29.019  41.943   7.867
 2106POPC   C1B29599  29.486  41.466   8.745
 2106POPC   C2B29600  29.286  41.477   8.362
 2106POPC   C3B29601  29.472  41.495   7.949
 2106POPC   C4B29602  29.366  41.534   7.520
 2107POPC   NC329603   0.890  40.253   9.378
 2107POPC   PO429604   1.594  39.935   9.503
 2107POPC   GL129605   1.292  39.968   9.191
 2107POPC   GL229606   1.074  39.653   9.211
 2107POPC   C1A29607   1.263  40.138   8.794
 2107POPC   D2A29608   1.497  40.148   8.429
 2107POPC   C3A29609   1.267  40.093   8.052
 2107POPC   C4A29610   1.385  40.010   7.632
 2107POPC   C1B29611   1.318  39.593   8.823
 2107POPC   C2B29612   1.263  39.686   8.365
 2107POPC   C3B29613   1.262  39.585   7.890
 2107POPC   C4B29614   1.092  39.651   7.413
 2108POPC   NC329615  28.769   1.469   9.606
 2108POPC   PO429616  29.315   1.001   9.573
 2108POPC   GL129617  29.155   0.947   9.136
 2108POPC   GL229618  28.782   0.918   9.095
 2108POPC   C1A29619  29.062   0.922   8.679
 2108POPC   D2A29620  28.930   1.014   8.249
 2108POPC   C3A29621  29.118   1.342   8.052
 2108POPC   C4A29622  29.128   1.224   7.653
 2108POPC   C1B29623  28.661   1.287   8.777
 2108POPC   C2B29624  28.611   1.464   8.327
 2108POPC   C3B29625  28.638   1.298   7.878
 2108POPC   C4B29626  28.696   1.339   7.423
 2109POPC   NC329627   3.412  21.104   9.430
 2109POPC   PO429628   3.882  21.649   9.421
 2109POPC   GL129629   3.757  21.475   9.019
 2109POPC   GL229630   3.401  21.439   9.002
 2109POPC   C1A29631   3.687  21.393   8.573
 2109POPC   D2A29632   3.256  21.440   8.394
 2109POPC   C3A29633   3.372  21.434   7.968
 2109POPC   C4A29634   3.807  21.333   7.920
 2109POPC   C1B29635   3.445  21.011   8.801
 2109POPC   C2B29636   3.381  20.950   8.392
 2109POPC   C3B29637   3.521  20.925   8.015
 2109POPC   C4B29638   3.487  21.037   7.618
 2110POPC   NC329639  11.005  33.796   9.602
 2110POPC   PO429640  11.507  34.213   9.512
 2110POPC   GL129641  11.234  34.022   9.164
 2110POPC   GL229642  11.207  33.647   9.169
 2110POPC   C1A29643  11.245  34.051   8.712
 2110POPC   D2A29644  11.475  33.822   8.370
 2110POPC   C3A29645  11.432  33.995   7.973
 2110POPC   C4A29646  11.344  34.025   7.548
 2110POPC   C1B29647  11.298  33.538   8.772
 2110POPC   C2B29648  11.080  33.473   8.412
 2110POPC   C3B29649  11.135  33.575   8.012
 2110POPC   C4B29650  10.999  33.661   7.623
 2111POPC   NC329651  37.414  29.140   9.576
 2111POPC   PO429652  36.753  29.004   9.597
 2111POPC   GL129653  37.014  28.988   9.294
 2111POPC   GL229654  37.093  29.360   9.253
 2111POPC   C1A29655  37.024  29.002   8.850
 2111POPC   D2A29656  37.186  28.995   8.445
 2111POPC   C3A29657  36.994  28.847   8.075
 2111POPC   C4A29658  37.216  29.006   7.760
 2111POPC   C1B29659  37.025  29.539   8.857
 2111POPC   C2B29660  36.913  29.447   8.472
 2111POPC   C3B29661  37.004  29.579   8.074
 2111POPC   C4B29662  36.841  29.377   7.697
 2112POPC   NC329663  12.688  31.164   9.485
 2112POPC   PO429664  13.051  31.772   9.484
 2112POPC   GL129665  12.908  31.525   9.123
 2112POPC   GL229666  12.540  31.530   9.119
 2112POPC   C1A29667  12.848  31.635   8.690
 2112POPC   D2A29668  12.461  31.622   8.446
 2112POPC   C3A29669  12.554  31.539   8.016
 2112POPC   C4A29670  12.863  31.299   7.757
 2112POPC   C1B29671  12.589  31.219   8.782
 2112POPC   C2B29672  12.373  31.103   8.402
 2112POPC   C3B29673  12.468  31.035   7.978
 2112POPC   C4B29674  12.581  30.726   7.699
 2113POPC   NC329675  32.664  23.827   9.325
 2113POPC   PO429676  33.264  23.668   9.617
 2113POPC   GL129677  33.111  23.546   9.222
 2113POPC   GL229678  33.058  23.814   9.003
 2113POPC   C1A29679  33.091  23.356   8.806
 2113POPC   D2A29680  33.311  23.453   8.428
 2113POPC   C3A29681  33.096  23.728   8.119
 2113POPC   C4A29682  33.200  23.937   7.744
 2113POPC   C1B29683  32.781  23.825   8.688
 2113POPC   C2B29684  32.720  24.036   8.346
 2113POPC   C3B29685  32.607  24.069   7.980
 2113POPC   C4B29686  32.727  23.842   7.685
 2114POPC   NC329687  24.362  23.448   9.513
 2114POPC   PO429688  24.739  23.144   9.282
 2114POPC   GL129689  24.506  23.523   9.028
 2114POPC   GL229690  24.284  23.811   9.148
 2114POPC   C1A29691  24.246  23.628   8.650
 2114POPC   D2A29692  24.327  23.440   8.249
 2114POPC   C3A29693  24.099  23.467   7.872
 2114POPC   C4A29694  24.269  23.422   7.447
 2114POPC   C1B29695  24.555  24.009   8.801
 2114POPC   C2B29696  24.627  23.878   8.349
 2114POPC   C3B29697  24.499  23.783   7.909
 2114POPC   C4B29698  24.528  24.076   7.519
 2115POPC   NC329699  38.723   9.569   9.507
 2115POPC   PO429700  38.213   9.988   9.583
 2115POPC   GL129701  38.398   9.807   9.165
 2115POPC   GL229702  38.717   9.562   9.018
 2115POPC   C1A29703  38.197   9.966   8.806
 2115POPC   D2A29704  37.981   9.810   8.473
 2115POPC   C3A29705  38.201   9.786   8.095
 2115POPC   C4A29706  38.323   9.744   7.687
 2115POPC   C1B29707  38.630   9.740   8.657
 2115POPC   C2B29708  38.555   9.506   8.340
 2115POPC   C3B29709  38.742   9.581   7.971
 2115POPC   C4B29710  38.734   9.995   7.862
 2116POPC   NC329711  10.294   4.080   9.544
 2116POPC   PO429712  10.726   4.589   9.655
 2116POPC   GL129713  10.500   4.495   9.250
 2116POPC   GL229714  10.571   4.161   9.143
 2116POPC   C1A29715  10.482   4.539   8.785
 2116POPC   D2A29716  10.339   4.696   8.377
 2116POPC   C3A29717  10.498   4.524   7.992
 2116POPC   C4A29718  10.359   4.384   7.592
 2116POPC   C1B29719  10.508   3.986   8.763
 2116POPC   C2B29720  10.441   4.178   8.367
 2116POPC   C3B29721  10.593   4.010   7.987
 2116POPC   C4B29722  10.542   3.905   7.574
 2117POPC   NC329723  33.343  35.991   9.498
 2117POPC   PO429724  33.901  36.284   9.312
 2117POPC   GL129725  33.762  35.908   9.162
 2117POPC   GL229726  34.008  35.653   9.244
 2117POPC   C1A29727  33.508  35.853   8.779
 2117POPC   D2A29728  33.378  36.115   8.427
 2117POPC   C3A29729  33.556  36.090   8.028
 2117POPC   C4A29730  33.574  35.839   7.674
 2117POPC   C1B29731  34.096  35.812   8.792
 2117POPC   C2B29732  33.886  35.936   8.393
 2117POPC   C3B29733  34.031  35.955   7.934
 2117POPC   C4B29734  34.098  36.402   7.842
 2118POPC   NC329735   3.510   6.779   9.443
 2118POPC   PO429736   3.512   6.230   9.749
 2118POPC   GL129737   3.536   6.329   9.206
 2118POPC   GL229738   3.682   6.079   8.995
 2118POPC   C1A29739   3.425   6.694   8.809
 2118POPC   D2A29740   3.625   6.967   8.442
 2118POPC   C3A29741   3.521   6.872   7.990
 2118POPC   C4A29742   3.379   6.470   7.805
 2118POPC   C1B29743   3.762   6.356   8.697
 2118POPC   C2B29744   3.560   6.444   8.324
 2118POPC   C3B29745   3.787   6.244   8.008
 2118POPC   C4B29746   3.832   6.394   7.594
 2119POPC   NC329747  28.718   7.771   9.471
 2119POPC   PO429748  29.360   7.852   9.584
 2119POPC   GL129749  29.318   7.604   9.201
 2119POPC   GL229750  29.022   7.400   9.248
 2119POPC   C1A29751  29.137   7.681   8.778
 2119POPC   D2A29752  28.934   7.792   8.355
 2119POPC   C3A29753  29.053   7.652   7.926
 2119POPC   C4A29754  28.991   7.699   7.467
 2119POPC   C1B29755  28.974   7.208   8.829
 2119POPC   C2B29756  29.119   7.276   8.404
 2119POPC   C3B29757  29.137   7.124   7.978
 2119POPC   C4B29758  29.183   7.244   7.569
 2120POPC   NC329759  23.528   3.885   9.513
 2120POPC   PO429760  24.023   3.525   9.449
 2120POPC   GL129761  23.790   3.394   9.150
 2120POPC   GL229762  23.768   3.755   9.065
 2120POPC   C1A29763  23.594   3.284   8.781
 2120POPC   D2A29764  23.343   3.298   8.432
 2120POPC   C3A29765  23.507   3.247   8.035
 2120POPC   C4A29766  23.616   3.642   7.879
 2120POPC   C1B29767  24.028   3.574   8.737
 2120POPC   C2B29768  23.877   3.757   8.383
 2120POPC   C3B29769  24.020   3.899   8.025
 2120POPC   C4B29770  24.261   3.597   7.812
 2121POPC   NC329771  39.601  15.206   9.763
 2121POPC   PO429772  39.203  15.734   9.677
 2121POPC   GL129773  39.356  15.448   9.329
 2121POPC   GL229774  39.053  15.391   9.112
 2121POPC   C1A29775  39.501  15.394   8.874
 2121POPC   D2A29776  39.556  15.266   8.425
 2121POPC   C3A29777  39.279  15.384   8.070
 2121POPC   C4A29778  39.375  15.290   7.641
 2121POPC   C1B29779  38.957  15.122   8.732
 2121POPC   C2B29780  39.135  14.931   8.343
 2121POPC   C3B29781  39.263  14.861   7.934
 2121POPC   C4B29782  38.914  15.075   7.766
 2122POPC   NC329783   2.332   9.700   9.478
 2122POPC   PO429784   1.700   9.988   9.533
 2122POPC   GL129785   1.888   9.802   9.235
 2122POPC   GL229786   2.052  10.071   9.145
 2122POPC   C1A29787   1.818   9.778   8.793
 2122POPC   D2A29788   1.988   9.680   8.394
 2122POPC   C3A29789   1.788   9.493   8.040
 2122POPC   C4A29790   1.897   9.824   7.740
 2122POPC   C1B29791   2.323   9.848   8.825
 2122POPC   C2B29792   2.452   9.956   8.401
 2122POPC   C3B29793   2.562  10.070   7.977
 2122POPC   C4B29794   2.374   9.919   7.614
 2123POPC   NC329795  34.823  22.390   9.373
 2123POPC   PO429796  34.263  22.049   9.460
 2123POPC   GL129797  34.427  22.184   9.060
 2123POPC   GL229798  34.788  22.112   8.975
 2123POPC   C1A29799  34.420  21.964   8.674
 2123POPC   D2A29800  34.394  22.171   8.271
 2123POPC   C3A29801  34.417  21.911   7.921
 2123POPC   C4A29802  34.450  22.002   7.499
 2123POPC   C1B29803  34.747  22.364   8.618
 2123POPC   C2B29804  34.898  22.340   8.202
 2123POPC   C3B29805  34.670  22.371   7.814
 2123POPC   C4B29806  34.718  22.502   7.315
 2124POPC   NC329807  43.501  40.133   9.474
 2124POPC   PO429808  43.942  39.607   9.414
 2124POPC   GL129809  43.845  39.933   9.079
 2124POPC   GL229810  43.707  40.283   9.031
 2124POPC   C1A29811  43.715  39.968   8.628
 2124POPC   D2A29812  43.583  39.963   8.186
 2124POPC   C3A29813  43.851  39.829   7.840
 2124POPC   C4A29814  44.020  39.977   7.437
 2124POPC   C1B29815  43.999  40.450   8.723
 2124POPC   C2B29816  44.149  40.575   8.329
 2124POPC   C3B29817  43.967  40.367   7.944
 2124POPC   C4B29818  43.591  40.273   7.760
 2125POPC   NC329819   7.586   6.162   9.318
 2125POPC   PO429820   7.305   5.542   9.514
 2125POPC   GL129821   7.285   5.768   9.165
 2125POPC   GL229822   7.644   5.700   9.081
 2125POPC   C1A29823   7.274   5.966   8.766
 2125POPC   D2A29824   7.468   5.920   8.367
 2125POPC   C3A29825   7.425   6.047   7.953
 2125POPC   C4A29826   7.522   5.703   7.691
 2125POPC   C1B29827   7.806   6.001   8.755
 2125POPC   C2B29828   7.876   6.240   8.402
 2125POPC   C3B29829   7.925   6.018   8.037
 2125POPC   C4B29830   7.803   6.158   7.631
 2126POPC   NC329831  30.883  20.004   9.487
 2126POPC   PO429832  30.469  19.404   9.479
 2126POPC   GL129833  30.698  19.636   9.158
 2126POPC   GL229834  31.033  19.559   9.061
 2126POPC   C1A29835  30.792  19.929   8.782
 2126POPC   D2A29836  30.953  20.155   8.396
 2126POPC   C3A29837  30.714  20.005   8.045
 2126POPC   C4A29838  30.759  19.921   7.645
 2126POPC   C1B29839  31.016  19.453   8.672
 2126POPC   C2B29840  30.990  19.644   8.284
 2126POPC   C3B29841  30.816  19.492   7.897
 2126POPC   C4B29842  30.827  19.477   7.407
 2127POPC   NC329843  13.805  24.869   9.473
 2127POPC   PO429844  13.305  24.379   9.341
 2127POPC   GL129845  13.673  24.431   9.070
 2127POPC   GL229846  13.876  24.719   9.000
 2127POPC   C1A29847  13.694  24.398   8.632
 2127POPC   D2A29848  13.382  24.337   8.332
 2127POPC   C3A29849  13.540  24.510   7.943
 2127POPC   C4A29850  13.899  24.370   7.748
 2127POPC   C1B29851  13.826  24.908   8.602
 2127POPC   C2B29852  13.930  24.830   8.129
 2127POPC   C3B29853  13.846  24.859   7.653
 2127POPC   C4B29854  13.798  25.025   7.135
 2128POPC   NC329855  23.537  10.472   9.597
 2128POPC   PO429856  24.179  10.390   9.340
 2128POPC   GL129857  23.958  10.679   9.107
 2128POPC   GL229858  23.589  10.690   9.139
 2128POPC   C1A29859  23.766  10.848   8.697
 2128POPC   D2A29860  23.493  10.635   8.370
 2128POPC   C3A29861  23.680  10.738   7.979
 2128POPC   C4A29862  24.130  10.567   7.933
 2128POPC   C1B29863  23.682  10.338   8.846
 2128POPC   C2B29864  23.625  10.136   8.443
 2128POPC   C3B29865  23.672  10.233   8.034
 2128POPC   C4B29866  23.398  10.393   7.703
 2129POPC   NC329867  10.830  11.286   9.244
 2129POPC   PO429868  11.368  11.310   9.618
 2129POPC   GL129869  11.350  11.321   9.176
 2129POPC   GL229870  11.258  10.985   9.077
 2129POPC   C1A29871  11.410  11.304   8.711
 2129POPC   D2A29872  11.518  11.030   8.345
 2129POPC   C3A29873  11.512  11.304   7.996
 2129POPC   C4A29874  11.142  11.533   7.869
 2129POPC   C1B29875  10.996  10.995   8.686
 2129POPC   C2B29876  11.023  11.172   8.251
 2129POPC   C3B29877  11.139  11.003   7.826
 2129POPC   C4B29878  10.952  11.034   7.405
 2130POPC   NC329879  41.001  36.742   9.826
 2130POPC   PO429880  40.850  37.163   9.316
 2130POPC   GL129881  40.895  37.008   9.004
 2130POPC   GL229882  40.943  36.680   9.070
 2130POPC   C1A29883  40.685  37.104   8.642
 2130POPC   D2A29884  40.457  36.915   8.313
 2130POPC   C3A29885  40.606  37.061   7.900
 2130POPC   C4A29886  40.620  36.822   7.506
 2130POPC   C1B29887  40.814  36.570   8.667
 2130POPC   C2B29888  41.026  36.480   8.289
 2130POPC   C3B29889  40.886  36.418   7.863
 2130POPC   C4B29890  41.023  36.540   7.432
 2131POPC   NC329891  26.993  35.467   9.728
 2131POPC   PO429892  26.622  34.952   9.457
 2131POPC   GL129893  26.722  35.271   9.162
 2131POPC   GL229894  27.055  35.318   9.118
 2131POPC   C1A29895  26.728  35.569   8.799
 2131POPC   D2A29896  26.991  35.620   8.405
 2131POPC   C3A29897  26.770  35.587   7.987
 2131POPC   C4A29898  26.611  35.434   7.606
 2131POPC   C1B29899  27.034  34.912   8.857
 2131POPC   C2B29900  27.011  34.905   8.458
 2131POPC   C3B29901  27.031  35.171   8.111
 2131POPC   C4B29902  27.035  35.166   7.669
 2132POPC   NC329903  37.408   8.954   9.918
 2132POPC   PO429904  37.931   9.241   9.529
 2132POPC   GL129905  37.826   9.129   9.136
 2132POPC   GL229906  37.662   8.829   9.198
 2132POPC   C1A29907  37.956   8.994   8.756
 2132POPC   D2A29908  37.678   8.979   8.438
 2132POPC   C3A29909  37.850   9.013   8.053
 2132POPC   C4A29910  37.717   8.859   7.684
 2132POPC   C1B29911  37.384   8.979   8.876
 2132POPC   C2B29912  37.156   8.968   8.477
 2132POPC   C3B29913  37.332   8.989   8.041
 2132POPC   C4B29914  37.237   8.907   7.614
 2133POPC   NC329915  14.641   8.834   9.563
 2133POPC   PO429916  14.203   9.241   9.548
 2133POPC   GL129917  14.414   9.080   9.177
 2133POPC   GL229918  14.312   8.715   9.203
 2133POPC   C1A29919  14.533   9.198   8.766
 2133POPC   D2A29920  14.702   9.061   8.372
 2133POPC   C3A29921  14.515   9.243   8.004
 2133POPC   C4A29922  14.402   9.159   7.574
 2133POPC   C1B29923  14.525   8.658   8.826
 2133POPC   C2B29924  14.368   8.652   8.422
 2133POPC   C3B29925  14.529   8.688   8.038
 2133POPC   C4B29926  14.372   8.651   7.635
 2134POPC   NC329927  12.190  32.713   9.505
 2134POPC   PO429928  12.106  32.059   9.640
 2134POPC   GL129929  12.112  32.211   9.215
 2134POPC   GL229930  11.883  32.475   9.140
 2134POPC   C1A29931  12.077  32.155   8.770
 2134POPC   D2A29932  12.026  31.910   8.396
 2134POPC   C3A29933  12.049  32.161   8.020
 2134POPC   C4A29934  12.220  32.215   7.638
 2134POPC   C1B29935  11.795  32.644   8.763
 2134POPC   C2B29936  11.960  32.518   8.388
 2134POPC   C3B29937  11.847  32.687   8.018
 2134POPC   C4B29938  11.866  32.595   7.628
 2135POPC   NC329939  40.251  29.804   9.596
 2135POPC   PO429940  39.874  30.275   9.499
 2135POPC   GL129941  39.994  29.978   9.190
 2135POPC   GL229942  40.291  30.115   9.179
 2135POPC   C1A29943  40.189  29.813   8.793
 2135POPC   D2A29944  40.010  29.987   8.424
 2135POPC   C3A29945  39.953  29.798   8.034
 2135POPC   C4A29946  40.319  29.769   7.789
 2135POPC   C1B29947  40.106  30.343   8.809
 2135POPC   C2B29948  40.133  30.476   8.365
 2135POPC   C3B29949  40.058  30.297   7.970
 2135POPC   C4B29950  40.225  30.208   7.561
 2136POPC   NC329951  44.386  31.474   9.461
 2136POPC   PO429952  43.763  31.214   9.434
 2136POPC   GL129953  43.741  31.607   9.141
 2136POPC   GL229954  44.038  31.759   9.210
 2136POPC   C1A29955  43.709  31.632   8.705
 2136POPC   D2A29956  43.875  31.373   8.362
 2136POPC   C3A29957  43.669  31.464   7.972
 2136POPC   C4A29958  43.685  31.273   7.559
 2136POPC   C1B29959  44.208  31.754   8.804
 2136POPC   C2B29960  44.081  31.839   8.397
 2136POPC   C3B29961  44.172  31.636   8.035
 2136POPC   C4B29962  44.069  31.589   7.649
 2137POPC   NC329963  19.147   5.443   9.348
 2137POPC   PO429964  19.278   4.790   9.564
 2137POPC   GL129965  19.282   5.008   9.142
 2137POPC   GL229966  18.881   5.127   9.052
 2137POPC   C1A29967  19.231   5.116   8.685
 2137POPC   D2A29968  18.805   5.095   8.497
 2137POPC   C3A29969  18.700   5.255   8.099
 2137POPC   C4A29970  18.795   5.041   7.758
 2137POPC   C1B29971  18.928   5.524   8.757
 2137POPC   C2B29972  19.106   5.568   8.382
 2137POPC   C3B29973  19.231   5.227   8.130
 2137POPC   C4B29974  19.170   5.354   7.721
 2138POPC   NC329975  12.011  18.284   9.506
 2138POPC   PO429976  12.671  18.550   9.507
 2138POPC   GL129977  12.410  18.386   9.153
 2138POPC   GL229978  12.114  18.604   9.105
 2138POPC   C1A29979  12.255  18.313   8.708
 2138POPC   D2A29980  12.179  18.635   8.374
 2138POPC   C3A29981  12.222  18.492   7.960
 2138POPC   C4A29982  12.165  18.228   7.597
 2138POPC   C1B29983  11.810  18.599   8.738
 2138POPC   C2B29984  11.705  18.417   8.306
 2138POPC   C3B29985  11.748  18.347   7.851
 2138POPC   C4B29986  11.725  18.463   7.424
 2139POPC   NC329987  38.508  43.935   9.759
 2139POPC   PO429988  37.872  43.876   9.548
 2139POPC   GL129989  37.746  43.926   9.145
 2139POPC   GL229990  37.691  43.587   9.109
 2139POPC   C1A29991  37.641  44.063   8.746
 2139POPC   D2A29992  37.581  44.225   8.339
 2139POPC   C3A29993  37.626  43.973   8.006
 2139POPC   C4A29994  37.547  43.922   7.590
 2139POPC   C1B29995  37.804  43.578   8.706
 2139POPC   C2B29996  37.669  43.519   8.263
 2139POPC   C3B29997  37.696  43.487   7.809
 2139POPC   C4B29998  38.096  43.373   7.629
 2140POPC   NC329999  37.943  34.500   9.599
 2140POPC   PO430000  38.592  34.633   9.641
 2140POPC   GL130001  38.433  34.708   9.193
 2140POPC   GL230002  38.129  34.496   9.118
 2140POPC   C1A30003  38.564  34.769   8.758
 2140POPC   D2A30004  38.749  34.489   8.412
 2140POPC   C3A30005  38.582  34.576   7.980
 2140POPC   C4A30006  38.281  34.875   7.813
 2140POPC   C1B30007  38.184  34.418   8.678
 2140POPC   C2B30008  37.923  34.445   8.312
 2140POPC   C3B30009  38.045  34.407   7.891
 2140POPC   C4B30010  38.338  34.290   7.603
 2141POPC   NC330011   7.121  30.246   9.476
 2141POPC   PO430012   7.670  29.842   9.391
 2141POPC   GL130013   7.296  29.916   9.115
 2141POPC   GL230014   7.328  30.273   9.010
 2141POPC   C1A30015   7.187  29.670   8.747
 2141POPC   D2A30016   7.329  29.720   8.365
 2141POPC   C3A30017   7.161  29.843   7.993
 2141POPC   C4A30018   7.348  29.753   7.606
 2141POPC   C1B30019   7.538  30.093   8.656
 2141POPC   C2B30020   7.475  30.188   8.203
 2141POPC   C3B30021   7.302  30.320   7.814
 2141POPC   C4B30022   7.426  30.273   7.373
 2142POPC   NC330023  44.156  24.126   9.454
 2142POPC   PO430024  44.482  24.538   9.914
 2142POPC   GL130025  44.554  24.685   9.344
 2142POPC   GL230026  44.335  24.499   9.177
 2142POPC   C1A30027  44.764  24.457   8.915
 2142POPC   D2A30028  44.596  24.220   8.552
 2142POPC   C3A30029  44.713  24.319   8.105
 2142POPC   C4A30030  44.694  24.157   7.671
 2142POPC   C1B30031  44.238  24.538   8.779
 2142POPC   C2B30032  44.232  24.788   8.432
 2142POPC   C3B30033  44.142  24.687   8.032
 2142POPC   C4B30034  44.423  24.622   7.678
 2143POPC   NC330035  14.000  29.742   9.521
 2143POPC   PO430036  13.799  30.220   9.130
 2143POPC   GL130037  13.628  29.838   9.021
 2143POPC   GL230038  13.278  29.779   9.056
 2143POPC   C1A30039  13.548  29.688   8.623
 2143POPC   D2A30040  13.811  29.776   8.278
 2143POPC   C3A30041  13.711  30.007   7.907
 2143POPC   C4A30042  13.653  29.678   7.567
 2143POPC   C1B30043  13.300  30.134   8.732
 2143POPC   C2B30044  13.295  30.006   8.308
 2143POPC   C3B30045  13.285  29.753   7.958
 2143POPC   C4B30046  13.303  30.037   7.582
 2144POPC   NC330047  32.893  23.361   9.714
 2144POPC   PO430048  32.996  22.704   9.607
 2144POPC   GL130049  33.264  22.908   9.266
 2144POPC   GL230050  32.979  22.902   9.075
 2144POPC   C1A30051  33.424  22.972   8.818
 2144POPC   D2A30052  33.299  22.905   8.362
 2144POPC   C3A30053  33.229  23.202   7.996
 2144POPC   C4A30054  33.064  23.437   7.668
 2144POPC   C1B30055  33.009  22.583   8.754
 2144POPC   C2B30056  33.070  22.447   8.341
 2144POPC   C3B30057  32.968  22.693   7.986
 2144POPC   C4B30058  32.960  22.923   7.618
 2145POPC   NC330059  17.144   7.385   9.838
 2145POPC   PO430060  17.690   7.732   9.552
 2145POPC   GL130061  17.494   7.383   9.273
 2145POPC   GL230062  17.210   7.512   9.102
 2145POPC   C1A30063  17.356   7.067   8.885
 2145POPC   D2A30064  17.552   6.945   8.481
 2145POPC   C3A30065  17.380   7.030   8.064
 2145POPC   C4A30066  17.563   7.032   7.683
 2145POPC   C1B30067  17.565   7.516   8.782
 2145POPC   C2B30068  17.640   7.434   8.365
 2145POPC   C3B30069  17.578   7.487   7.921
 2145POPC   C4B30070  17.191   7.546   7.712
 2146POPC   NC330071  24.063  38.565   9.715
 2146POPC   PO430072  24.667  38.491   9.541
 2146POPC   GL130073  24.347  38.483   9.231
 2146POPC   GL230074  24.604  38.292   9.087
 2146POPC   C1A30075  24.210  38.366   8.800
 2146POPC   D2A30076  24.062  38.386   8.385
 2146POPC   C3A30077  24.337  38.428   8.061
 2146POPC   C4A30078  24.236  38.616   7.690
 2146POPC   C1B30079  24.742  38.509   8.777
 2146POPC   C2B30080  24.691  38.271   8.407
 2146POPC   C3B30081  24.655  38.013   8.038
 2146POPC   C4B30082  24.675  38.125   7.609
 2147POPC   NC330083  14.672  12.017   9.317
 2147POPC   PO430084  14.255  12.423   9.719
 2147POPC   GL130085  14.166  12.126   9.213
 2147POPC   GL230086  14.256  11.813   9.059
 2147POPC   C1A30087  14.311  12.184   8.706
 2147POPC   D2A30088  14.305  12.477   8.334
 2147POPC   C3A30089  14.421  12.345   7.942
 2147POPC   C4A30090  14.101  12.261   7.669
 2147POPC   C1B30091  14.544  11.724   8.691
 2147POPC   C2B30092  14.659  11.812   8.240
 2147POPC   C3B30093  14.449  11.826   7.819
 2147POPC   C4B30094  14.616  11.825   7.370
 2148POPC   NC330095  26.717  26.579   9.489
 2148POPC   PO430096  26.898  27.264   9.389
 2148POPC   GL130097  26.883  26.932   9.096
 2148POPC   GL230098  26.523  26.784   9.066
 2148POPC   C1A30099  26.760  26.941   8.662
 2148POPC   D2A30100  26.400  27.103   8.507
 2148POPC   C3A30101  26.410  27.023   8.060
 2148POPC   C4A30102  26.706  26.760   7.835
 2148POPC   C1B30103  26.277  26.659   8.737
 2148POPC   C2B30104  26.462  26.591   8.340
 2148POPC   C3B30105  26.265  26.533   7.952
 2148POPC   C4B30106  26.434  26.441   7.542
 2149POPC   NC330107   6.496  32.830   9.489
 2149POPC   PO430108   6.748  33.458   9.532
 2149POPC   GL130109   6.899  33.197   9.196
 2149POPC   GL230110   6.586  33.146   9.086
 2149POPC   C1A30111   6.969  33.085   8.745
 2149POPC   D2A30112   6.763  33.201   8.345
 2149POPC   C3A30113   7.026  33.142   7.968
 2149POPC   C4A30114   6.895  33.025   7.547
 2149POPC   C1B30115   6.492  32.927   8.713
 2149POPC   C2B30116   6.510  32.750   8.313
 2149POPC   C3B30117   6.547  32.971   7.929
 2149POPC   C4B30118   6.419  32.896   7.497
 2150POPC   NC330119  41.438  28.008   9.520
 2150POPC   PO430120  41.841  27.515   9.415
 2150POPC   GL130121  41.626  27.736   9.089
 2150POPC   GL230122  41.291  27.639   9.211
 2150POPC   C1A30123  41.633  27.668   8.619
 2150POPC   D2A30124  41.742  27.321   8.279
 2150POPC   C3A30125  41.585  27.313   7.836
 2150POPC   C4A30126  41.736  27.496   7.426
 2150POPC   C1B30127  41.118  27.469   8.854
 2150POPC   C2B30128  41.235  27.375   8.472
 2150POPC   C3B30129  41.119  27.432   8.093
 2150POPC   C4B30130  41.193  27.628   7.746
 2151POPC   NC330131  14.884   4.672   9.513
 2151POPC   PO430132  15.352   5.253   9.440
 2151POPC   GL130133  15.153   5.188   9.076
 2151POPC   GL230134  15.048   5.487   8.941
 2151POPC   C1A30135  15.037   4.983   8.693
 2151POPC   D2A30136  14.979   4.760   8.295
 2151POPC   C3A30137  15.239   4.889   7.961
 2151POPC   C4A30138  15.268   4.943   7.550
 2151POPC   C1B30139  15.368   5.489   8.659
 2151POPC   C2B30140  15.252   5.276   8.307
 2151POPC   C3B30141  14.956   5.311   7.975
 2151POPC   C4B30142  15.032   5.454   7.567
 2152POPC   NC330143  30.226  33.308   9.509
 2152POPC   PO430144  29.999  32.711   9.428
 2152POPC   GL130145  29.928  33.038   9.157
 2152POPC   GL230146  29.621  33.235   9.225
 2152POPC   C1A30147  30.184  32.974   8.806
 2152POPC   D2A30148  30.166  32.757   8.430
 2152POPC   C3A30149  30.177  32.978   8.034
 2152POPC   C4A30150  30.023  32.944   7.595
 2152POPC   C1B30151  29.597  33.260   8.811
 2152POPC   C2B30152  29.805  33.128   8.451
 2152POPC   C3B30153  29.674  33.059   8.042
 2152POPC   C4B30154  29.515  33.117   7.664
 2153POPC   NC330155  25.752  18.734   9.556
 2153POPC   PO430156  26.236  19.159   9.490
 2153POPC   GL130157  26.107  18.938   9.165
 2153POPC   GL230158  25.793  19.077   9.164
 2153POPC   C1A30159  26.152  19.083   8.745
 2153POPC   D2A30160  26.387  19.236   8.359
 2153POPC   C3A30161  26.412  18.936   7.964
 2153POPC   C4A30162  26.375  19.072   7.535
 2153POPC   C1B30163  25.665  19.175   8.755
 2153POPC   C2B30164  25.708  19.321   8.319
 2153POPC   C3B30165  25.720  19.041   7.994
 2153POPC   C4B30166  25.944  18.829   7.700
 2154POPC   NC330167  15.142  23.503   9.468
 2154POPC   PO430168  15.214  24.145   9.597
 2154POPC   GL130169  15.144  23.933   9.169
 2154POPC   GL230170  15.411  23.720   9.028
 2154POPC   C1A30171  14.943  23.700   8.791
 2154POPC   D2A30172  14.964  23.784   8.323
 2154POPC   C3A30173  15.047  23.558   7.904
 2154POPC   C4A30174  15.058  23.762   7.490
 2154POPC   C1B30175  15.404  23.575   8.596
 2154POPC   C2B30176  15.469  23.674   8.174
 2154POPC   C3B30177  15.609  23.472   7.820
 2154POPC   C4B30178  15.489  23.467   7.404
 2155POPC   NC330179  25.542  30.942   9.691
 2155POPC   PO430180  25.412  30.333   9.449
 2155POPC   GL130181  25.233  30.733   9.286
 2155POPC   GL230182  25.519  30.874   9.163
 2155POPC   C1A30183  25.017  30.845   8.883
 2155POPC   D2A30184  25.072  30.615   8.480
 2155POPC   C3A30185  25.038  30.762   8.056
 2155POPC   C4A30186  25.244  30.467   7.790
 2155POPC   C1B30187  25.504  30.753   8.714
 2155POPC   C2B30188  25.461  30.948   8.303
 2155POPC   C3B30189  25.621  30.781   7.889
 2155POPC   C4B30190  25.517  30.765   7.451
 2156POPC   NC330191  29.680   7.526   9.592
 2156POPC   PO430192  30.222   7.274   9.440
 2156POPC   GL130193  29.940   7.434   9.155
 2156POPC   GL230194  29.739   7.172   9.109
 2156POPC   C1A30195  30.019   7.428   8.715
 2156POPC   D2A30196  30.241   7.461   8.313
 2156POPC   C3A30197  29.977   7.558   7.976
 2156POPC   C4A30198  29.540   7.489   7.862
 2156POPC   C1B30199  29.500   7.328   8.803
 2156POPC   C2B30200  29.623   7.385   8.388
 2156POPC   C3B30201  29.622   7.054   8.128
 2156POPC   C4B30202  29.620   6.977   7.695
 2157POPC   NC330203  36.245  34.268   9.465
 2157POPC   PO430204  36.229  34.913   9.328
 2157POPC   GL130205  36.332  34.620   9.000
 2157POPC   GL230206  36.084  34.354   8.993
 2157POPC   C1A30207  36.256  34.474   8.540
 2157POPC   D2A30208  36.049  34.613   8.188
 2157POPC   C3A30209  36.153  34.568   7.799
 2157POPC   C4A30210  35.889  34.563   7.431
 2157POPC   C1B30211  36.502  34.160   8.851
 2157POPC   C2B30212  36.573  34.093   8.392
 2157POPC   C3B30213  36.332  34.137   7.990
 2157POPC   C4B30214  36.336  34.241   7.486
 2158POPC   NC330215  14.541  14.696   9.276
 2158POPC   PO430216  14.333  15.255   9.650
 2158POPC   GL130217  14.220  15.267   9.196
 2158POPC   GL230218  14.477  15.379   8.961
 2158POPC   C1A30219  14.068  15.148   8.755
 2158POPC   D2A30220  14.170  15.175   8.289
 2158POPC   C3A30221  14.262  14.934   7.915
 2158POPC   C4A30222  14.507  15.091   7.541
 2158POPC   C1B30223  14.591  15.140   8.563
 2158POPC   C2B30224  14.657  15.198   8.095
 2158POPC   C3B30225  14.942  15.220   7.756
 2158POPC   C4B30226  14.972  15.190   7.288
 2159POPC   NC330227  41.389   5.297   9.433
 2159POPC   PO430228  41.720   4.733   9.544
 2159POPC   GL130229  41.648   4.926   9.204
 2159POPC   GL230230  41.877   5.188   9.216
 2159POPC   C1A30231  41.498   5.026   8.810
 2159POPC   D2A30232  41.733   5.159   8.470
 2159POPC   C3A30233  41.606   5.011   8.067
 2159POPC   C4A30234  41.206   4.976   7.817
 2159POPC   C1B30235  42.001   5.484   8.889
 2159POPC   C2B30236  41.979   5.603   8.463
 2159POPC   C3B30237  41.885   5.540   8.040
 2159POPC   C4B30238  41.929   5.205   7.729
 2160POPC   NC330239  44.045  18.533   9.680
 2160POPC   PO430240  43.668  18.972   9.352
 2160POPC   GL130241  44.045  18.971   9.074
 2160POPC   GL230242  43.893  18.765   8.868
 2160POPC   C1A30243  44.176  19.145   8.635
 2160POPC   D2A30244  44.452  19.424   8.362
 2160POPC   C3A30245  44.342  19.421   7.888
 2160POPC   C4A30246  44.205  19.221   7.476
 2160POPC   C1B30247  43.832  18.545   8.516
 2160POPC   C2B30248  43.870  18.828   8.159
 2160POPC   C3B30249  44.064  18.835   7.767
 2160POPC   C4B30250  43.875  18.865   7.366
 2161POPC   NC330251   5.402  25.676   9.304
 2161POPC   PO430252   4.947  26.057   9.607
 2161POPC   GL130253   5.136  26.305   9.271
 2161POPC   GL230254   5.133  26.022   9.037
 2161POPC   C1A30255   5.073  26.472   8.839
 2161POPC   D2A30256   4.974  26.221   8.461
 2161POPC   C3A30257   5.187  25.905   8.240
 2161POPC   C4A30258   5.161  26.210   7.913
 2161POPC   C1B30259   4.755  25.897   8.800
 2161POPC   C2B30260   4.666  25.796   8.375
 2161POPC   C3B30261   4.767  25.859   7.928
 2161POPC   C4B30262   5.132  25.797   7.640
 2162POPC   NC330263  42.839  17.320   9.591
 2162POPC   PO430264  43.297  17.774   9.343
 2162POPC   GL130265  43.026  17.448   9.160
 2162POPC   GL230266  43.167  17.161   9.063
 2162POPC   C1A30267  42.737  17.376   8.822
 2162POPC   D2A30268  42.720  17.605   8.451
 2162POPC   C3A30269  42.973  17.455   8.141
 2162POPC   C4A30270  43.031  17.487   7.730
 2162POPC   C1B30271  43.272  17.508   8.738
 2162POPC   C2B30272  43.367  17.694   8.372
 2162POPC   C3B30273  43.488  17.580   7.974
 2162POPC   C4B30274  43.449  17.633   7.518
 2163POPC   NC330275   1.084  22.650   9.594
 2163POPC   PO430276   1.162  23.314   9.336
 2163POPC   GL130277   1.372  23.004   9.154
 2163POPC   GL230278   1.089  22.787   9.109
 2163POPC   C1A30279   1.401  22.909   8.712
 2163POPC   D2A30280   1.234  22.700   8.346
 2163POPC   C3A30281   1.287  22.900   7.957
 2163POPC   C4A30282   1.310  23.350   7.814
 2163POPC   C1B30283   0.868  22.766   8.734
 2163POPC   C2B30284   0.726  22.685   8.335
 2163POPC   C3B30285   0.755  22.802   7.868
 2163POPC   C4B30286   0.702  22.711   7.388
 2164POPC   NC330287   8.290  13.064   9.586
 2164POPC   PO430288   8.041  12.493   9.486
 2164POPC   GL130289   7.915  12.657   9.108
 2164POPC   GL230290   8.247  12.688   9.044
 2164POPC   C1A30291   7.852  12.828   8.718
 2164POPC   D2A30292   8.003  12.587   8.387
 2164POPC   C3A30293   8.027  12.766   7.988
 2164POPC   C4A30294   7.942  12.901   7.571
 2164POPC   C1B30295   8.440  12.648   8.682
 2164POPC   C2B30296   8.468  12.795   8.278
 2164POPC   C3B30297   8.509  12.712   7.865
 2164POPC   C4B30298   8.292  12.451   7.553
 2165POPC   NC330299  17.746  17.392   9.601
 2165POPC   PO430300  17.090  17.224   9.577
 2165POPC   GL130301  17.350  17.450   9.204
 2165POPC   GL230302  17.734  17.544   9.096
 2165POPC   C1A30303  17.311  17.559   8.762
 2165POPC   D2A30304  17.434  17.731   8.346
 2165POPC   C3A30305  17.713  17.573   8.021
 2165POPC   C4A30306  17.699  17.232   7.711
 2165POPC   C1B30307  17.759  17.388   8.625
 2165POPC   C2B30308  17.463  17.208   8.293
 2165POPC   C3B30309  17.297  16.945   7.925
 2165POPC   C4B30310  17.475  16.792   7.515
 2166POPC   NC330311   3.468  32.366   9.527
 2166POPC   PO430312   3.953  31.986   9.285
 2166POPC   GL130313   3.589  32.155   9.062
 2166POPC   GL230314   3.226  32.035   9.111
 2166POPC   C1A30315   3.559  32.031   8.639
 2166POPC   D2A30316   3.785  31.986   8.243
 2166POPC   C3A30317   3.614  32.264   7.940
 2166POPC   C4A30318   3.696  32.610   7.671
 2166POPC   C1B30319   3.055  31.978   8.675
 2166POPC   C2B30320   3.208  32.098   8.252
 2166POPC   C3B30321   3.141  32.092   7.804
 2166POPC   C4B30322   3.020  31.675   7.642
 2167POPC   NC330323   1.161  15.430   9.522
 2167POPC   PO430324   1.578  14.989   9.807
 2167POPC   GL130325   1.453  15.066   9.343
 2167POPC   GL230326   1.652  15.236   9.176
 2167POPC   C1A30327   1.243  15.105   8.903
 2167POPC   D2A30328   1.247  14.837   8.516
 2167POPC   C3A30329   0.974  14.954   8.197
 2167POPC   C4A30330   1.122  15.071   7.815
 2167POPC   C1B30331   1.693  15.290   8.763
 2167POPC   C2B30332   1.427  15.336   8.421
 2167POPC   C3B30333   1.532  15.314   7.992
 2167POPC   C4B30334   1.565  15.158   7.579
 2168POPC   NC330335   7.233  35.748   9.354
 2168POPC   PO430336   7.152  35.116   9.343
 2168POPC   GL130337   7.422  35.360   9.057
 2168POPC   GL230338   7.689  35.648   9.127
 2168POPC   C1A30339   7.257  35.350   8.654
 2168POPC   D2A30340   7.141  35.303   8.241
 2168POPC   C3A30341   7.433  35.261   7.953
 2168POPC   C4A30342   7.345  35.376   7.543
 2168POPC   C1B30343   7.540  35.767   8.725
 2168POPC   C2B30344   7.490  35.675   8.283
 2168POPC   C3B30345   7.571  35.759   7.885
 2168POPC   C4B30346   7.819  35.526   7.720
 2169POPC   NC330347   0.486   7.587   9.705
 2169POPC   PO430348   0.444   7.021   9.487
 2169POPC   GL130349   0.401   7.320   9.180
 2169POPC   GL230350   0.714   7.449   9.255
 2169POPC   C1A30351   0.259   7.475   8.782
 2169POPC   D2A30352   0.303   7.723   8.423
 2169POPC   C3A30353   0.147   7.549   8.066
 2169POPC   C4A30354   0.139   7.520   7.637
 2169POPC   C1B30355   0.781   7.389   8.814
 2169POPC   C2B30356   0.813   7.593   8.425
 2169POPC   C3B30357   0.645   7.570   8.015
 2169POPC   C4B30358   0.596   7.324   7.662
 2170POPC   NC330359  18.923  30.807   9.498
 2170POPC   PO430360  18.955  30.142   9.517
 2170POPC   GL130361  19.148  30.433   9.149
 2170POPC   GL230362  19.031  30.756   8.995
 2170POPC   C1A30363  19.205  30.438   8.656
 2170POPC   D2A30364  18.917  30.654   8.363
 2170POPC   C3A30365  18.680  30.442   8.018
 2170POPC   C4A30366  18.776  30.541   7.597
 2170POPC   C1B30367  19.221  30.971   8.649
 2170POPC   C2B30368  19.348  30.877   8.206
 2170POPC   C3B30369  19.199  30.812   7.800
 2170POPC   C4B30370  19.288  31.047   7.428
 2171POPC   NC330371  26.098  28.932   9.376
 2171POPC   PO430372  25.885  29.473   9.644
 2171POPC   GL130373  25.975  29.391   9.169
 2171POPC   GL230374  26.177  29.118   8.942
 2171POPC   C1A30375  25.802  29.342   8.743
 2171POPC   D2A30376  26.065  29.317   8.404
 2171POPC   C3A30377  25.866  29.321   8.006
 2171POPC   C4A30378  26.132  29.461   7.683
 2171POPC   C1B30379  26.470  28.943   8.685
 2171POPC   C2B30380  26.308  28.866   8.320
 2171POPC   C3B30381  26.054  28.856   8.019
 2171POPC   C4B30382  26.227  28.955   7.654
 2172POPC   NC330383  43.965  29.133   9.559
 2172POPC   PO430384  43.423  28.733   9.500
 2172POPC   GL130385  43.626  28.989   9.163
 2172POPC   GL230386  44.007  28.993   9.060
 2172POPC   C1A30387  43.648  29.189   8.749
 2172POPC   D2A30388  43.817  29.275   8.352
 2172POPC   C3A30389  43.670  29.091   7.998
 2172POPC   C4A30390  43.804  29.061   7.602
 2172POPC   C1B30391  44.140  29.370   8.755
 2172POPC   C2B30392  44.205  29.633   8.379
 2172POPC   C3B30393  44.222  29.401   8.002
 2172POPC   C4B30394  44.092  29.483   7.571
 2173POPC   NC330395  17.271  33.645   9.408
 2173POPC   PO430396  17.485  34.204   9.538
 2173POPC   GL130397  17.358  34.085   9.132
 2173POPC   GL230398  17.609  33.850   9.067
 2173POPC   C1A30399  17.382  33.987   8.647
 2173POPC   D2A30400  17.433  33.824   8.238
 2173POPC   C3A30401  17.464  34.023   7.846
 2173POPC   C4A30402  17.282  33.730   7.593
 2173POPC   C1B30403  17.759  33.644   8.662
 2173POPC   C2B30404  17.838  33.523   8.213
 2173POPC   C3B30405  17.763  33.536   7.772
 2173POPC   C4B30406  17.977  33.380   7.403
 2174POPC   NC330407  42.206  36.994   9.461
 2174POPC   PO430408  42.844  36.811   9.274
 2174POPC   GL130409  42.516  37.038   9.032
 2174POPC   GL230410  42.146  37.000   8.964
 2174POPC   C1A30411  42.465  37.113   8.598
 2174POPC   D2A30412  42.560  36.817   8.309
 2174POPC   C3A30413  42.730  37.029   7.972
 2174POPC   C4A30414  42.641  36.908   7.528
 2174POPC   C1B30415  42.020  36.741   8.615
 2174POPC   C2B30416  42.026  36.955   8.228
 2174POPC   C3B30417  42.268  36.843   7.885
 2174POPC   C4B30418  42.402  36.423   7.795
 2175POPC   NC330419   4.005  10.083   9.414
 2175POPC   PO430420   4.590   9.922   9.683
 2175POPC   GL130421   4.485   9.892   9.264
 2175POPC   GL230422   4.521  10.219   9.209
 2175POPC   C1A30423   4.451   9.733   8.830
 2175POPC   D2A30424   4.688   9.726   8.430
 2175POPC   C3A30425   4.463   9.605   8.043
 2175POPC   C4A30426   4.151   9.757   7.765
 2175POPC   C1B30427   4.685  10.188   8.787
 2175POPC   C2B30428   4.539  10.324   8.381
 2175POPC   C3B30429   4.456  10.142   7.981
 2175POPC   C4B30430   4.539  10.319   7.577
 2176POPC   NC330431   7.603   8.552   9.504
 2176POPC   PO430432   7.238   7.999   9.320
 2176POPC   GL130433   7.367   8.344   9.076
 2176POPC   GL230434   7.679   8.187   9.136
 2176POPC   C1A30435   7.195   8.562   8.688
 2176POPC   D2A30436   7.021   8.431   8.264
 2176POPC   C3A30437   7.218   8.050   8.055
 2176POPC   C4A30438   7.494   8.060   7.683
 2176POPC   C1B30439   7.823   8.170   8.759
 2176POPC   C2B30440   7.654   8.051   8.380
 2176POPC   C3B30441   7.859   8.022   8.042
 2176POPC   C4B30442   8.019   7.761   7.726
 2177POPC   NC330443  23.741  39.499   9.563
 2177POPC   PO430444  23.117  39.196   9.444
 2177POPC   GL130445  23.510  39.225   9.162
 2177POPC   GL230446  23.880  39.152   9.206
 2177POPC   C1A30447  23.658  39.030   8.767
 2177POPC   D2A30448  23.896  38.909   8.396
 2177POPC   C3A30449  23.810  39.029   7.974
 2177POPC   C4A30450  24.167  39.147   7.703
 2177POPC   C1B30451  24.024  39.392   8.857
 2177POPC   C2B30452  23.978  39.659   8.497
 2177POPC   C3B30453  23.997  39.492   8.088
 2177POPC   C4B30454  23.820  39.542   7.698
 2178POPC   NC330455   1.472  14.606   9.551
 2178POPC   PO430456   0.831  14.668   9.385
 2178POPC   GL130457   1.109  14.375   9.164
 2178POPC   GL230458   1.300  14.648   9.079
 2178POPC   C1A30459   1.181  14.342   8.696
 2178POPC   D2A30460   0.862  14.473   8.389
 2178POPC   C3A30461   1.025  14.482   7.989
 2178POPC   C4A30462   1.296  14.229   7.750
 2178POPC   C1B30463   1.618  14.637   8.793
 2178POPC   C2B30464   1.637  14.482   8.377
 2178POPC   C3B30465   1.488  14.722   8.008
 2178POPC   C4B30466   1.361  14.688   7.577
 2179POPC   NC330467  23.169  16.322   9.469
 2179POPC   PO430468  22.999  16.947   9.628
 2179POPC   GL130469  22.822  16.864   9.195
 2179POPC   GL230470  23.033  16.621   9.081
 2179POPC   C1A30471  22.825  16.851   8.700
 2179POPC   D2A30472  22.838  16.972   8.267
 2179POPC   C3A30473  22.883  16.728   7.883
 2179POPC   C4A30474  23.148  16.880   7.554
 2179POPC   C1B30475  23.137  16.408   8.680
 2179POPC   C2B30476  23.133  16.434   8.233
 2179POPC   C3B30477  23.131  16.273   7.814
 2179POPC   C4B30478  23.267  15.992   7.493
 2180POPC   NC330479  33.272   8.404   9.484
 2180POPC   PO430480  32.702   8.046   9.522
 2180POPC   GL130481  32.901   8.133   9.142
 2180POPC   GL230482  32.937   8.509   9.100
 2180POPC   C1A30483  32.806   8.217   8.703
 2180POPC   D2A30484  32.720   8.454   8.333
 2180POPC   C3A30485  32.812   8.189   7.995
 2180POPC   C4A30486  33.060   8.092   7.662
 2180POPC   C1B30487  33.259   8.422   8.785
 2180POPC   C2B30488  33.238   8.244   8.385
 2180POPC   C3B30489  33.308   8.367   8.013
 2180POPC   C4B30490  33.488   8.480   7.671
 2181POPC   NC330491  43.210  13.878   9.617
 2181POPC   PO430492  42.732  13.529   9.456
 2181POPC   GL130493  43.028  13.670   9.174
 2181POPC   GL230494  42.940  14.012   9.202
 2181POPC   C1A30495  43.175  13.460   8.786
 2181POPC   D2A30496  42.926  13.305   8.462
 2181POPC   C3A30497  43.123  13.180   8.085
 2181POPC   C4A30498  43.208  13.291   7.666
 2181POPC   C1B30499  43.369  13.966   8.977
 2181POPC   C2B30500  43.371  13.854   8.569
 2181POPC   C3B30501  43.165  13.703   8.230
 2181POPC   C4B30502  43.039  13.730   7.815
 2182POPC   NC330503  35.889  24.422   9.410
 2182POPC   PO430504  36.582  24.225   9.471
 2182POPC   GL130505  36.348  24.464   9.113
 2182POPC   GL230506  36.017  24.348   8.941
 2182POPC   C1A30507  36.331  24.581   8.649
 2182POPC   D2A30508  36.479  24.329   8.306
 2182POPC   C3A30509  36.266  24.487   7.962
 2182POPC   C4A30510  35.894  24.671   7.873
 2182POPC   C1B30511  35.893  24.138   8.561
 2182POPC   C2B30512  35.869  24.202   8.124
 2182POPC   C3B30513  35.740  24.181   7.690
 2182POPC   C4B30514  35.860  24.035   7.232
 2183POPC   NC330515   8.630  13.588   9.535
 2183POPC   PO430516   9.237  13.835   9.582
 2183POPC   GL130517   9.229  13.695   9.147
 2183POPC   GL230518   8.991  13.401   9.130
 2183POPC   C1A30519   9.090  13.732   8.722
 2183POPC   D2A30520   8.934  13.648   8.324
 2183POPC   C3A30521   9.124  13.769   7.924
 2183POPC   C4A30522   8.913  14.067   7.661
 2183POPC   C1B30523   8.663  13.456   8.780
 2183POPC   C2B30524   8.609  13.275   8.334
 2183POPC   C3B30525   8.666  13.493   7.925
 2183POPC   C4B30526   8.719  13.308   7.518
 2184POPC   NC330527  17.229  43.022   9.595
 2184POPC   PO430528  17.804  43.229   9.603
 2184POPC   GL130529  17.644  43.053   9.219
 2184POPC   GL230530  17.320  43.061   9.090
 2184POPC   C1A30531  17.733  42.840   8.858
 2184POPC   D2A30532  17.824  43.041   8.465
 2184POPC   C3A30533  17.652  43.054   8.024
 2184POPC   C4A30534  17.825  43.406   7.728
 2184POPC   C1B30535  17.304  43.015   8.642
 2184POPC   C2B30536  17.197  43.008   8.219
 2184POPC   C3B30537  17.133  43.147   7.793
 2184POPC   C4B30538  17.172  43.405   7.413
 2185POPC   NC330539  34.575   4.847   9.731
 2185POPC   PO430540  34.527   4.202   9.746
 2185POPC   GL130541  34.704   4.257   9.309
 2185POPC   GL230542  34.552   4.557   9.166
 2185POPC   C1A30543  34.728   4.192   8.818
 2185POPC   D2A30544  34.443   4.213   8.422
 2185POPC   C3A30545  34.481   4.237   7.948
 2185POPC   C4A30546  34.528   4.285   7.470
 2185POPC   C1B30547  34.547   4.658   8.682
 2185POPC   C2B30548  34.651   4.657   8.223
 2185POPC   C3B30549  34.660   4.685   7.757
 2185POPC   C4B30550  34.701   4.941   7.371
 2186POPC   NC330551  25.908  19.509   9.497
 2186POPC   PO430552  26.453  19.897   9.396
 2186POPC   GL130553  26.104  19.826   9.087
 2186POPC   GL230554  26.163  19.466   9.065
 2186POPC   C1A30555  25.953  20.049   8.669
 2186POPC   D2A30556  26.127  20.209   8.280
 2186POPC   C3A30557  25.990  20.066   7.886
 2186POPC   C4A30558  26.090  19.784   7.542
 2186POPC   C1B30559  26.014  19.556   8.662
 2186POPC   C2B30560  26.098  19.647   8.250
 2186POPC   C3B30561  26.154  19.382   7.908
 2186POPC   C4B30562  25.921  19.306   7.569
 2187POPC   NC330563  32.820  21.706   9.424
 2187POPC   PO430564  33.105  21.172   9.797
 2187POPC   GL130565  33.035  21.232   9.310
 2187POPC   GL230566  33.323  21.342   9.153
 2187POPC   C1A30567  32.946  21.397   8.829
 2187POPC   D2A30568  33.007  21.249   8.375
 2187POPC   C3A30569  32.852  21.300   7.918
 2187POPC   C4A30570  32.978  21.184   7.494
 2187POPC   C1B30571  33.403  21.613   8.763
 2187POPC   C2B30572  33.510  21.720   8.352
 2187POPC   C3B30573  33.255  21.582   8.028
 2187POPC   C4B30574  33.179  21.637   7.582
 2188POPC   NC330575  38.262  16.499   9.396
 2188POPC   PO430576  38.313  15.818   9.507
 2188POPC   GL130577  38.533  15.995   9.158
 2188POPC   GL230578  38.697  16.328   9.219
 2188POPC   C1A30579  38.531  15.821   8.729
 2188POPC   D2A30580  38.333  16.035   8.376
 2188POPC   C3A30581  38.289  15.832   8.010
 2188POPC   C4A30582  38.562  15.814   7.713
 2188POPC   C1B30583  38.559  16.327   8.764
 2188POPC   C2B30584  38.544  16.503   8.324
 2188POPC   C3B30585  38.516  16.288   7.915
 2188POPC   C4B30586  38.360  16.359   7.479
 2189POPC   NC330587  25.417   5.569   9.520
 2189POPC   PO430588  25.367   6.229   9.498
 2189POPC   GL130589  25.295   5.934   9.175
 2189POPC   GL230590  25.014   5.702   9.191
 2189POPC   C1A30591  25.301   5.961   8.759
 2189POPC   D2A30592  25.599   5.975   8.427
 2189POPC   C3A30593  25.399   5.981   8.030
 2189POPC   C4A30594  25.333   5.832   7.615
 2189POPC   C1B30595  25.133   5.478   8.817
 2189POPC   C2B30596  25.206   5.623   8.396
 2189POPC   C3B30597  25.063   5.578   8.002
 2189POPC   C4B30598  25.084   5.395   7.610
 2190POPC   NC330599   4.474  35.507   9.544
 2190POPC   PO430600   3.876  35.128   9.687
 2190POPC   GL130601   4.120  35.293   9.233
 2190POPC   GL230602   4.470  35.268   9.080
 2190POPC   C1A30603   4.237  35.561   8.796
 2190POPC   D2A30604   4.506  35.658   8.446
 2190POPC   C3A30605   4.303  35.579   8.045
 2190POPC   C4A30606   4.116  35.499   7.627
 2190POPC   C1B30607   4.521  35.126   8.648
 2190POPC   C2B30608   4.471  35.066   8.189
 2190POPC   C3B30609   4.526  35.213   7.771
 2190POPC   C4B30610   4.471  35.287   7.308
 2191POPC   NC330611  18.916   8.440   9.582
 2191POPC   PO430612  19.357   8.098   9.289
 2191POPC   GL130613  18.983   8.267   9.072
 2191POPC   GL230614  19.122   8.007   8.831
 2191POPC   C1A30615  18.742   8.268   8.637
 2191POPC   D2A30616  18.894   8.006   8.276
 2191POPC   C3A30617  18.923   8.166   7.849
 2191POPC   C4A30618  18.946   8.430   7.456
 2191POPC   C1B30619  19.208   8.463   8.677
 2191POPC   C2B30620  19.069   8.506   8.256
 2191POPC   C3B30621  19.290   8.523   7.855
 2191POPC   C4B30622  19.349   8.161   7.562
 2192POPC   NC330623  21.293   1.187   9.486
 2192POPC   PO430624  21.797   0.777   9.303
 2192POPC   GL130625  21.427   0.905   9.084
 2192POPC   GL230626  21.439   1.310   9.011
 2192POPC   C1A30627  21.363   0.947   8.665
 2192POPC   D2A30628  21.524   1.311   8.429
 2192POPC   C3A30629  21.598   1.254   7.995
 2192POPC   C4A30630  21.313   0.979   7.845
 2192POPC   C1B30631  21.084   1.365   8.695
 2192POPC   C2B30632  20.996   1.568   8.326
 2192POPC   C3B30633  21.076   1.511   7.910
 2192POPC   C4B30634  21.345   1.433   7.564
 2193POPC   NC330635  41.065   9.740   9.673
 2193POPC   PO430636  41.733   9.866   9.569
 2193POPC   GL130637  41.565   9.777   9.150
 2193POPC   GL230638  41.223   9.720   9.196
 2193POPC   C1A30639  41.726   9.657   8.754
 2193POPC   D2A30640  41.959   9.486   8.413
 2193POPC   C3A30641  41.814   9.627   8.031
 2193POPC   C4A30642  41.641   9.569   7.593
 2193POPC   C1B30643  41.227   9.580   8.805
 2193POPC   C2B30644  41.315   9.808   8.441
 2193POPC   C3B30645  41.297   9.634   8.037
 2193POPC   C4B30646  41.156   9.751   7.651
 2194POPC   NC330647   3.841  18.139   9.520
 2194POPC   PO430648   3.175  18.278   9.505
 2194POPC   GL130649   3.487  18.254   9.179
 2194POPC   GL230650   3.571  18.554   8.970
 2194POPC   C1A30651   3.498  18.026   8.802
 2194POPC   D2A30652   3.420  18.086   8.377
 2194POPC   C3A30653   3.689  18.341   8.103
 2194POPC   C4A30654   3.811  18.250   7.676
 2194POPC   C1B30655   3.143  18.385   8.830
 2194POPC   C2B30656   2.948  18.074   8.596
 2194POPC   C3B30657   2.968  18.110   8.157
 2194POPC   C4B30658   3.314  18.068   7.842
 2195POPC   NC330659  19.688  37.249   9.659
 2195POPC   PO430660  19.706  36.706   9.514
 2195POPC   GL130661  19.685  37.042   9.160
 2195POPC   GL230662  19.418  37.323   9.230
 2195POPC   C1A30663  19.863  37.028   8.705
 2195POPC   D2A30664  19.659  36.900   8.295
 2195POPC   C3A30665  19.860  36.837   7.881
 2195POPC   C4A30666  19.796  36.722   7.429
 2195POPC   C1B30667  19.520  37.412   8.806
 2195POPC   C2B30668  19.691  37.404   8.396
 2195POPC   C3B30669  19.605  37.301   7.970
 2195POPC   C4B30670  19.760  37.226   7.562
 2196POPC   NC330671   6.365  25.614   9.409
 2196POPC   PO430672   6.537  26.297   9.566
 2196POPC   GL130673   6.521  26.050   9.173
 2196POPC   GL230674   6.646  26.238   8.914
 2196POPC   C1A30675   6.711  25.763   8.805
 2196POPC   D2A30676   6.898  26.039   8.468
 2196POPC   C3A30677   6.706  26.073   8.049
 2196POPC   C4A30678   6.518  25.751   7.775
 2196POPC   C1B30679   6.291  26.397   8.695
 2196POPC   C2B30680   6.372  26.462   8.292
 2196POPC   C3B30681   6.394  26.453   7.858
 2196POPC   C4B30682   6.738  26.312   7.594
 2197POPC   NC330683  32.054  25.466   9.432
 2197POPC   PO430684  32.413  24.914   9.485
 2197POPC   GL130685  32.198  25.008   9.066
 2197POPC   GL230686  32.193  25.380   8.953
 2197POPC   C1A30687  32.312  25.050   8.604
 2197POPC   D2A30688  32.145  25.285   8.290
 2197POPC   C3A30689  32.345  25.226   7.908
 2197POPC   C4A30690  32.389  24.849   7.696
 2197POPC   C1B30691  32.024  25.682   8.646
 2197POPC   C2B30692  31.799  25.645   8.243
 2197POPC   C3B30693  31.914  25.478   7.839
 2197POPC   C4B30694  32.279  25.614   7.580
 2198POPC   NC330695   9.111   6.439   9.406
 2198POPC   PO430696   8.645   6.910   9.491
 2198POPC   GL130697   8.797   6.751   9.150
 2198POPC   GL230698   9.064   6.946   9.125
 2198POPC   C1A30699   8.701   6.516   8.787
 2198POPC   D2A30700   8.777   6.282   8.411
 2198POPC   C3A30701   8.763   6.503   8.007
 2198POPC   C4A30702   8.811   6.351   7.565
 2198POPC   C1B30703   9.196   6.731   8.768
 2198POPC   C2B30704   9.347   6.872   8.387
 2198POPC   C3B30705   9.207   6.753   7.992
 2198POPC   C4B30706   9.276   6.450   7.713
 2199POPC   NC330707  35.129   5.548   9.455
 2199POPC   PO430708  34.643   5.700   9.884
 2199POPC   GL130709  34.697   5.797   9.345
 2199POPC   GL230710  34.864   6.060   9.086
 2199POPC   C1A30711  34.564   5.729   8.872
 2199POPC   D2A30712  34.566   5.578   8.421
 2199POPC   C3A30713  34.520   5.693   7.963
 2199POPC   C4A30714  34.759   5.518   7.597
 2199POPC   C1B30715  34.674   6.215   8.711
 2199POPC   C2B30716  34.546   6.102   8.293
 2199POPC   C3B30717  34.488   6.234   7.874
 2199POPC   C4B30718  34.570   5.996   7.448
 2200POPC   NC330719  32.271   1.017   9.588
 2200POPC   PO430720  31.828   0.745   9.221
 2200POPC   GL130721  32.127   0.943   8.954
 2200POPC   GL230722  32.331   1.204   9.080
 2200POPC   C1A30723  32.132   1.128   8.548
 2200POPC   D2A30724  32.304   1.007   8.167
 2200POPC   C3A30725  32.068   1.004   7.775
 2200POPC   C4A30726  31.906   0.985   7.336
 2200POPC   C1B30727  32.199   1.570   8.803
 2200POPC   C2B30728  32.107   1.628   8.350
 2200POPC   C3B30729  32.094   1.512   7.895
 2200POPC   C4B30730  32.176   1.455   7.430
 2201POPC   NC330731  11.411  12.025   9.586
 2201POPC   PO430732  10.854  11.688   9.520
 2201POPC   GL130733  11.174  11.817   9.171
 2201POPC   GL230734  11.388  12.148   9.100
 2201POPC   C1A30735  11.123  11.948   8.730
 2201POPC   D2A30736  11.250  12.252   8.414
 2201POPC   C3A30737  11.241  11.998   8.054
 2201POPC   C4A30738  11.100  11.997   7.641
 2201POPC   C1B30739  11.647  12.054   8.760
 2201POPC   C2B30740  11.674  11.959   8.346
 2201POPC   C3B30741  11.738  12.105   7.942
 2201POPC   C4B30742  11.562  11.780   7.653
 2202POPC   NC330743  16.543   5.319   9.546
 2202POPC   PO430744  16.959   4.783   9.453
 2202POPC   GL130745  16.896   4.954   9.057
 2202POPC   GL230746  16.561   5.067   9.098
 2202POPC   C1A30747  16.691   4.821   8.657
 2202POPC   D2A30748  16.528   4.635   8.278
 2202POPC   C3A30749  16.615   4.867   7.898
 2202POPC   C4A30750  16.974   5.086   7.785
 2202POPC   C1B30751  16.725   5.334   8.763
 2202POPC   C2B30752  16.959   5.328   8.379
 2202POPC   C3B30753  16.826   5.495   8.034
 2202POPC   C4B30754  16.538   5.408   7.702
 2203POPC   NC330755   5.361  13.305   9.495
 2203POPC   PO430756   5.158  12.625   9.515
 2203POPC   GL130757   5.091  12.794   9.101
 2203POPC   GL230758   4.947  12.494   9.031
 2203POPC   C1A30759   4.960  12.863   8.628
 2203POPC   D2A30760   4.971  13.274   8.371
 2203POPC   C3A30761   5.122  13.164   7.931
 2203POPC   C4A30762   5.027  12.820   7.657
 2203POPC   C1B30763   5.319  12.518   8.730
 2203POPC   C2B30764   5.414  12.615   8.303
 2203POPC   C3B30765   5.409  12.532   7.864
 2203POPC   C4B30766   5.397  12.623   7.379
 2204POPC   NC330767  44.887  35.656   9.471
 2204POPC   PO430768  44.693  36.379   9.444
 2204POPC   GL130769  44.941  36.102   9.194
 2204POPC   GL230770  44.661  35.898   9.088
 2204POPC   C1A30771   0.080  35.965   8.763
 2204POPC   D2A30772  44.749  35.863   8.434
 2204POPC   C3A30773  44.816  35.898   7.968
 2204POPC   C4A30774  44.674  36.250   7.707
 2204POPC   C1B30775  44.346  35.960   8.786
 2204POPC   C2B30776  44.205  35.777   8.421
 2204POPC   C3B30777  44.374  35.640   8.030
 2204POPC   C4B30778  44.444  35.818   7.589
 2205POPC   NC330779  23.938  13.206   9.502
 2205POPC   PO430780  23.627  12.568   9.362
 2205POPC   GL130781  23.703  12.940   9.094
 2205POPC   GL230782  24.026  13.028   9.044
 2205POPC   C1A30783  23.553  12.882   8.690
 2205POPC   D2A30784  23.700  12.684   8.319
 2205POPC   C3A30785  23.477  12.920   8.004
 2205POPC   C4A30786  23.431  12.823   7.532
 2205POPC   C1B30787  24.060  12.755   8.726
 2205POPC   C2B30788  24.203  12.807   8.334
 2205POPC   C3B30789  23.991  12.984   7.928
 2205POPC   C4B30790  23.891  12.968   7.459
 2206POPC   NC330791  36.120  14.563   9.560
 2206POPC   PO430792  36.343  14.052   9.279
 2206POPC   GL130793  35.986  14.220   9.016
 2206POPC   GL230794  35.930  14.563   9.040
 2206POPC   C1A30795  35.878  14.294   8.590
 2206POPC   D2A30796  35.895  14.556   8.229
 2206POPC   C3A30797  36.045  14.258   7.940
 2206POPC   C4A30798  36.465  14.191   7.876
 2206POPC   C1B30799  36.331  14.514   8.723
 2206POPC   C2B30800  36.546  14.654   8.293
 2206POPC   C3B30801  36.445  14.692   7.823
 2206POPC   C4B30802  35.999  14.719   7.748
 2207POPC   NC330803   1.884  42.804   9.476
 2207POPC   PO430804   2.175  43.433   9.428
 2207POPC   GL130805   2.290  43.224   9.058
 2207POPC   GL230806   2.226  42.888   9.096
 2207POPC   C1A30807   2.121  43.130   8.617
 2207POPC   D2A30808   1.675  43.136   8.441
 2207POPC   C3A30809   1.620  43.106   8.013
 2207POPC   C4A30810   1.865  43.176   7.664
 2207POPC   C1B30811   2.282  42.639   8.759
 2207POPC   C2B30812   2.329  42.707   8.356
 2207POPC   C3B30813   2.073  42.844   8.050
 2207POPC   C4B30814   2.213  42.798   7.634
 2208POPC   NC330815  24.592  37.063   9.480
 2208POPC   PO430816  24.396  36.405   9.433
 2208POPC   GL130817  24.500  36.727   9.094
 2208POPC   GL230818  24.288  37.019   9.053
 2208POPC   C1A30819  24.511  36.837   8.638
 2208POPC   D2A30820  24.393  36.581   8.290
 2208POPC   C3A30821  24.368  36.773   7.876
 2208POPC   C4A30822  24.563  37.149   7.774
 2208POPC   C1B30823  24.242  37.282   8.667
 2208POPC   C2B30824  24.169  37.080   8.266
 2208POPC   C3B30825  24.033  37.167   7.859
 2208POPC   C4B30826  24.195  37.020   7.430
 2209POPC   NC330827  28.492  11.609   9.492
 2209POPC   PO430828  28.152  11.091   9.370
 2209POPC   GL130829  28.233  11.433   9.069
 2209POPC   GL230830  28.612  11.482   9.012
 2209POPC   C1A30831  28.261  11.446   8.616
 2209POPC   D2A30832  28.154  11.730   8.310
 2209POPC   C3A30833  28.365  11.724   7.992
 2209POPC   C4A30834  28.162  11.611   7.671
 2209POPC   C1B30835  28.531  11.051   8.814
 2209POPC   C2B30836  28.403  10.772   8.465
 2209POPC   C3B30837  28.499  10.884   8.035
 2209POPC   C4B30838  28.542  11.288   7.799
 2210POPC   NC330839  43.504  33.086   9.523
 2210POPC   PO430840  44.069  33.452   9.657
 2210POPC   GL130841  44.056  33.074   9.323
 2210POPC   GL230842  43.739  32.959   9.105
 2210POPC   C1A30843  44.171  33.070   8.866
 2210POPC   D2A30844  44.182  33.224   8.429
 2210POPC   C3A30845  44.021  32.978   8.089
 2210POPC   C4A30846  43.766  32.908   7.707
 2210POPC   C1B30847  43.449  33.075   8.779
 2210POPC   C2B30848  43.634  33.300   8.439
 2210POPC   C3B30849  43.686  33.383   8.002
 2210POPC   C4B30850  43.477  33.357   7.583
 2211POPC   NC330851   8.474  41.337   9.555
 2211POPC   PO430852   8.565  41.951   9.511
 2211POPC   GL130853   8.350  41.705   9.189
 2211POPC   GL230854   7.991  41.736   9.169
 2211POPC   C1A30855   8.325  41.515   8.776
 2211POPC   D2A30856   8.287  41.393   8.329
 2211POPC   C3A30857   8.575  41.550   8.015
 2211POPC   C4A30858   8.567  41.449   7.575
 2211POPC   C1B30859   8.083  41.971   8.769
 2211POPC   C2B30860   8.203  41.902   8.319
 2211POPC   C3B30861   8.122  41.762   7.892
 2211POPC   C4B30862   8.072  42.023   7.520
 2212POPC   NC330863  26.270   4.476   9.373
 2212POPC   PO430864  25.817   3.997   9.425
 2212POPC   GL130865  25.922   4.227   9.085
 2212POPC   GL230866  25.753   4.510   9.207
 2212POPC   C1A30867  26.159   4.167   8.715
 2212POPC   D2A30868  26.304   3.971   8.334
 2212POPC   C3A30869  26.096   4.166   7.999
 2212POPC   C4A30870  26.264   4.287   7.644
 2212POPC   C1B30871  25.725   4.605   8.785
 2212POPC   C2B30872  25.830   4.402   8.395
 2212POPC   C3B30873  25.690   4.472   7.997
 2212POPC   C4B30874  25.768   4.368   7.596
 2213POPC   NC330875   6.315  10.729   9.469
 2213POPC   PO430876   6.950  10.325   9.445
 2213POPC   GL130877   6.941  10.565   9.100
 2213POPC   GL230878   6.669  10.775   9.121
 2213POPC   C1A30879   6.753  10.489   8.712
 2213POPC   D2A30880   6.482  10.338   8.425
 2213POPC   C3A30881   6.784  10.380   8.126
 2213POPC   C4A30882   6.987  10.639   7.811
 2213POPC   C1B30883   6.332  10.825   8.784
 2213POPC   C2B30884   6.120  10.797   8.372
 2213POPC   C3B30885   6.256  10.562   8.004
 2213POPC   C4B30886   6.546  10.389   7.691
 2214POPC   NC330887  10.043  43.904   9.711
 2214POPC   PO430888   9.541  44.280   9.681
 2214POPC   GL130889   9.738  44.086   9.272
 2214POPC   GL230890   9.934  43.734   9.247
 2214POPC   C1A30891   9.560  44.168   8.829
 2214POPC   D2A30892   9.557  44.386   8.410
 2214POPC   C3A30893   9.512  44.092   8.066
 2214POPC   C4A30894   9.749  43.842   7.774
 2214POPC   C1B30895  10.051  43.871   8.845
 2214POPC   C2B30896   9.838  43.949   8.473
 2214POPC   C3B30897  10.026  44.055   8.122
 2214POPC   C4B30898  10.270  43.889   7.796
 2215POPC   NC330899  35.371  21.538   9.335
 2215POPC   PO430900  35.784  21.081   9.616
 2215POPC   GL130901  35.464  21.035   9.216
 2215POPC   GL230902  35.628  21.248   8.994
 2215POPC   C1A30903  35.152  21.166   8.823
 2215POPC   D2A30904  35.139  21.426   8.412
 2215POPC   C3A30905  35.348  21.255   8.064
 2215POPC   C4A30906  35.254  21.175   7.655
 2215POPC   C1B30907  35.514  21.580   8.712
 2215POPC   C2B30908  35.699  21.517   8.351
 2215POPC   C3B30909  35.695  21.643   7.980
 2215POPC   C4B30910  35.334  21.682   7.726
 2216POPC   NC330911  14.744  36.702   9.474
 2216POPC   PO430912  15.319  37.012   9.417
 2216POPC   GL130913  15.141  36.790   9.071
 2216POPC   GL230914  14.785  36.883   9.017
 2216POPC   C1A30915  15.340  36.658   8.667
 2216POPC   D2A30916  15.160  36.779   8.282
 2216POPC   C3A30917  15.388  36.729   7.911
 2216POPC   C4A30918  15.312  36.957   7.552
 2216POPC   C1B30919  14.838  36.614   8.672
 2216POPC   C2B30920  14.693  36.530   8.266
 2216POPC   C3B30921  14.883  36.637   7.862
 2216POPC   C4B30922  14.887  36.720   7.409
 2217POPC   NC330923  21.570  40.314   9.242
 2217POPC   PO430924  21.359  40.894   9.471
 2217POPC   GL130925  21.252  40.677   9.062
 2217POPC   GL230926  21.539  40.564   8.811
 2217POPC   C1A30927  21.116  40.790   8.652
 2217POPC   D2A30928  21.331  40.951   8.315
 2217POPC   C3A30929  21.096  40.803   7.977
 2217POPC   C4A30930  21.192  40.457   7.789
 2217POPC   C1B30931  21.534  41.025   8.832
 2217POPC   C2B30932  21.668  41.286   8.561
 2217POPC   C3B30933  21.717  41.263   8.170
 2217POPC   C4B30934  21.500  41.064   7.840
 2218POPC   NC330935  25.794  12.852  10.069
 2218POPC   PO430936  25.298  12.661   9.583
 2218POPC   GL130937  25.254  12.506   9.158
 2218POPC   GL230938  25.216  12.829   9.019
 2218POPC   C1A30939  25.459  12.508   8.710
 2218POPC   D2A30940  25.429  12.799   8.354
 2218POPC   C3A30941  25.269  12.727   7.930
 2218POPC   C4A30942  25.188  12.627   7.483
 2218POPC   C1B30943  24.963  12.748   8.650
 2218POPC   C2B30944  24.879  12.893   8.248
 2218POPC   C3B30945  24.976  13.175   7.910
 2218POPC   C4B30946  25.243  13.131   7.560
 2219POPC   NC330947  35.419   0.526   9.855
 2219POPC   PO430948  35.746   0.240   9.367
 2219POPC   GL130949  35.479   0.447   9.013
 2219POPC   GL230950  35.136   0.590   9.057
 2219POPC   C1A30951  35.311   0.457   8.581
 2219POPC   D2A30952  35.198   0.379   8.159
 2219POPC   C3A30953  35.509   0.434   7.800
 2219POPC   C4A30954  35.399   0.417   7.345
 2219POPC   C1B30955  34.945   0.808   8.642
 2219POPC   C2B30956  35.018   0.865   8.182
 2219POPC   C3B30957  35.216   0.836   7.769
 2219POPC   C4B30958  35.261   0.910   7.310
 2220POPC   NC330959  38.149  27.729   9.365
 2220POPC   PO430960  38.519  27.318   9.799
 2220POPC   GL130961  38.549  27.347   9.280
 2220POPC   GL230962  38.879  27.379   9.157
 2220POPC   C1A30963  38.433  27.348   8.835
 2220POPC   D2A30964  38.173  27.450   8.454
 2220POPC   C3A30965  38.362  27.586   8.068
 2220POPC   C4A30966  38.561  27.848   7.763
 2220POPC   C1B30967  38.889  27.572   8.734
 2220POPC   C2B30968  38.678  27.363   8.400
 2220POPC   C3B30969  38.757  27.130   8.061
 2220POPC   C4B30970  38.646  27.349   7.706
 2221POPC   NC330971   9.019  41.925   9.556
 2221POPC   PO430972   8.917  41.238   9.620
 2221POPC   GL130973   8.811  41.440   9.171
 2221POPC   GL230974   8.850  41.786   9.091
 2221POPC   C1A30975   8.828  41.450   8.675
 2221POPC   D2A30976   9.109  41.334   8.307
 2221POPC   C3A30977   9.015  41.353   7.841
 2221POPC   C4A30978   9.040  41.525   7.414
 2221POPC   C1B30979   9.188  41.810   8.776
 2221POPC   C2B30980   9.195  41.911   8.319
 2221POPC   C3B30981   8.993  41.877   7.886
 2221POPC   C4B30982   9.001  42.077   7.435
 2222POPC   NC330983  38.566  17.169   9.409
 2222POPC   PO430984  38.129  17.618   9.623
 2222POPC   GL130985  38.191  17.468   9.154
 2222POPC   GL230986  38.174  17.213   8.946
 2222POPC   C1A30987  38.269  17.630   8.679
 2222POPC   D2A30988  38.659  17.687   8.418
 2222POPC   C3A30989  38.614  17.584   7.976
 2222POPC   C4A30990  38.336  17.713   7.635
 2222POPC   C1B30991  38.435  17.150   8.603
 2222POPC   C2B30992  38.257  17.326   8.251
 2222POPC   C3B30993  38.230  17.224   7.827
 2222POPC   C4B30994  38.577  17.241   7.575
 2223POPC   NC330995  36.462  10.780   9.413
 2223POPC   PO430996  35.885  11.066   9.292
 2223POPC   GL130997  36.060  10.643   9.116
 2223POPC   GL230998  36.077  10.265   9.182
 2223POPC   C1A30999  36.377  10.454   8.809
 2223POPC   D2A31000  36.605  10.542   8.415
 2223POPC   C3A31001  36.434  10.465   7.981
 2223POPC   C4A31002  36.181  10.706   7.693
 2223POPC   C1B31003  35.872  10.333   8.767
 2223POPC   C2B31004  35.658  10.416   8.385
 2223POPC   C3B31005  35.782  10.504   7.977
 2223POPC   C4B31006  36.002  10.225   7.743
 2224POPC   NC331007   1.879  34.824   9.706
 2224POPC   PO431008   2.230  34.368   9.444
 2224POPC   GL131009   2.130  34.660   9.131
 2224POPC   GL231010   1.799  34.724   9.209
 2224POPC   C1A31011   2.047  34.678   8.694
 2224POPC   D2A31012   2.214  34.426   8.373
 2224POPC   C3A31013   2.066  34.565   8.025
 2224POPC   C4A31014   1.998  34.378   7.629
 2224POPC   C1B31015   1.613  34.498   8.866
 2224POPC   C2B31016   1.544  34.613   8.435
 2224POPC   C3B31017   1.567  34.579   7.983
 2224POPC   C4B31018   1.566  34.145   7.781
 2225POPC   NC331019  44.888  32.516   9.500
 2225POPC   PO431020  44.573  31.903   9.337
 2225POPC   GL131021  44.843  32.181   9.106
 2225POPC   GL231022  44.689  32.494   9.025
 2225POPC   C1A31023  44.967  32.216   8.710
 2225POPC   D2A31024  44.993  32.403   8.329
 2225POPC   C3A31025  44.820  32.191   7.991
 2225POPC   C4A31026  44.691  32.431   7.673
 2225POPC   C1B31027  44.424  32.223   8.789
 2225POPC   C2B31028  44.538  32.079   8.415
 2225POPC   C3B31029  44.308  32.142   8.052
 2225POPC   C4B31030  44.443  31.987   7.684
 2226POPC   NC331031  34.138  22.574   9.518
 2226POPC   PO431032  34.733  22.840   9.391
 2226POPC   GL131033  34.452  22.695   9.113
 2226POPC   GL231034  34.247  22.969   9.146
 2226POPC   C1A31035  34.407  22.744   8.682
 2226POPC   D2A31036  34.453  22.685   8.256
 2226POPC   C3A31037  34.782  22.890   8.061
 2226POPC   C4A31038  34.648  22.863   7.666
 2226POPC   C1B31039  34.343  23.241   8.802
 2226POPC   C2B31040  34.554  23.185   8.411
 2226POPC   C3B31041  34.349  23.172   7.979
 2226POPC   C4B31042  34.449  23.410   7.593
 2227POPC   NC331043  32.517  17.056   9.715
 2227POPC   PO431044  33.054  16.617   9.629
 2227POPC   GL131045  32.968  16.676   9.210
 2227POPC   GL231046  32.732  16.941   9.243
 2227POPC   C1A31047  33.074  16.601   8.794
 2227POPC   D2A31048  33.024  16.676   8.358
 2227POPC   C3A31049  32.905  16.403   8.005
 2227POPC   C4A31050  33.013  16.341   7.538
 2227POPC   C1B31051  32.670  16.918   8.831
 2227POPC   C2B31052  32.819  17.122   8.488
 2227POPC   C3B31053  32.975  17.100   8.061
 2227POPC   C4B31054  32.726  16.935   7.748
 2228POPC   NC331055   3.571  37.542   9.516
 2228POPC   PO431056   3.246  38.131   9.518
 2228POPC   GL131057   3.431  37.875   9.157
 2228POPC   GL231058   3.419  37.469   9.056
 2228POPC   C1A31059   3.634  37.891   8.773
 2228POPC   D2A31060   3.651  37.599   8.442
 2228POPC   C3A31061   3.888  37.721   8.109
 2228POPC   C4A31062   3.653  37.757   7.744
 2228POPC   C1B31063   3.191  37.638   8.751
 2228POPC   C2B31064   3.232  37.887   8.408
 2228POPC   C3B31065   3.250  37.673   8.028
 2228POPC   C4B31066   3.155  37.665   7.569
 2229POPC   NC331067   8.453  27.025   9.485
 2229POPC   PO431068   7.854  26.762   9.488
 2229POPC   GL131069   8.057  26.723   9.121
 2229POPC   GL231070   8.417  26.693   9.068
 2229POPC   C1A31071   8.119  26.906   8.719
 2229POPC   D2A31072   8.503  26.925   8.514
 2229POPC   C3A31073   8.418  27.029   8.095
 2229POPC   C4A31074   8.119  26.897   7.779
 2229POPC   C1B31075   8.588  26.394   8.739
 2229POPC   C2B31076   8.710  26.474   8.321
 2229POPC   C3B31077   8.513  26.463   7.907
 2229POPC   C4B31078   8.749  26.524   7.531
 2230POPC   NC331079   0.221  30.102   9.489
 2230POPC   PO431080   0.691  29.678   9.373
 2230POPC   GL131081   0.493  29.971   9.077
 2230POPC   GL231082   0.564  30.328   9.218
 2230POPC   C1A31083   0.198  29.854   8.723
 2230POPC   D2A31084   0.258  29.631   8.304
 2230POPC   C3A31085   0.406  29.782   7.895
 2230POPC   C4A31086   0.821  29.869   7.739
 2230POPC   C1B31087   0.368  30.405   8.833
 2230POPC   C2B31088   0.373  30.255   8.452
 2230POPC   C3B31089   0.587  30.222   8.117
 2230POPC   C4B31090   0.550  30.295   7.726
 2231POPC   NC331091  11.733  24.134   9.224
 2231POPC   PO431092  12.299  24.368   9.488
 2231POPC   GL131093  12.067  24.488   9.082
 2231POPC   GL231094  12.036  24.205   8.835
 2231POPC   C1A31095  11.943  24.730   8.700
 2231POPC   D2A31096  12.170  24.787   8.284
 2231POPC   C3A31097  11.996  24.797   7.856
 2231POPC   C4A31098  11.953  24.698   7.393
 2231POPC   C1B31099  11.640  24.313   8.592
 2231POPC   C2B31100  11.715  24.546   8.234
 2231POPC   C3B31101  11.972  24.237   8.013
 2231POPC   C4B31102  11.759  23.972   7.701
 2232POPC   NC331103   0.651  25.038   9.522
 2232POPC   PO431104   0.063  25.198   9.627
 2232POPC   GL131105   0.297  25.205   9.196
 2232POPC   GL231106   0.634  25.379   9.056
 2232POPC   C1A31107   0.221  25.353   8.776
 2232POPC   D2A31108   0.491  25.411   8.426
 2232POPC   C3A31109   0.222  25.335   8.064
 2232POPC   C4A31110   0.077  25.442   7.649
 2232POPC   C1B31111   0.604  24.970   8.863
 2232POPC   C2B31112   0.775  24.827   8.469
 2232POPC   C3B31113   0.648  25.018   8.063
 2232POPC   C4B31114   0.610  25.352   7.733
 2233POPC   NC331115  36.287  21.266   9.632
 2233POPC   PO431116  35.741  21.768   9.493
 2233POPC   GL131117  36.019  21.606   9.179
 2233POPC   GL231118  36.097  21.256   9.180
 2233POPC   C1A31119  36.022  21.503   8.747
 2233POPC   D2A31120  36.191  21.664   8.408
 2233POPC   C3A31121  36.239  21.449   8.052
 2233POPC   C4A31122  36.123  21.661   7.712
 2233POPC   C1B31123  36.229  21.041   8.804
 2233POPC   C2B31124  36.068  21.086   8.403
 2233POPC   C3B31125  35.853  21.143   8.024
 2233POPC   C4B31126  36.045  21.111   7.630
 2234POPC   NC331127  10.928  27.552   9.510
 2234POPC   PO431128  11.535  27.580   9.556
 2234POPC   GL131129  11.322  27.523   9.129
 2234POPC   GL231130  11.098  27.274   9.116
 2234POPC   C1A31131  11.346  27.579   8.653
 2234POPC   D2A31132  11.577  27.624   8.231
 2234POPC   C3A31133  11.601  27.997   7.958
 2234POPC   C4A31134  11.580  27.988   7.489
 2234POPC   C1B31135  11.126  27.075   8.730
 2234POPC   C2B31136  11.047  27.137   8.298
 2234POPC   C3B31137  11.038  27.425   7.978
 2234POPC   C4B31138  11.332  27.615   7.743
 2235POPC   NC331139  32.969  22.257   9.754
 2235POPC   PO431140  33.303  21.781   9.378
 2235POPC   GL131141  33.112  22.039   9.125
 2235POPC   GL231142  32.979  22.360   9.221
 2235POPC   C1A31143  33.196  22.099   8.701
 2235POPC   D2A31144  33.030  21.920   8.346
 2235POPC   C3A31145  33.167  22.087   7.959
 2235POPC   C4A31146  32.918  22.082   7.617
 2235POPC   C1B31147  32.709  22.166   8.868
 2235POPC   C2B31148  32.588  22.182   8.453
 2235POPC   C3B31149  32.695  22.267   8.049
 2235POPC   C4B31150  32.536  22.549   7.734
 2236POPC   NC331151  44.321  21.143   9.626
 2236POPC   PO431152  44.911  21.597   9.608
 2236POPC   GL131153  44.803  21.589   9.178
 2236POPC   GL231154  44.605  21.282   9.210
 2236POPC   C1A31155  44.927  21.518   8.735
 2236POPC   D2A31156  44.966  21.272   8.320
 2236POPC   C3A31157  44.900  21.502   7.971
 2236POPC   C4A31158  44.773  21.800   7.702
 2236POPC   C1B31159  44.397  21.424   8.858
 2236POPC   C2B31160  44.495  21.521   8.439
 2236POPC   C3B31161  44.391  21.394   8.031
 2236POPC   C4B31162  44.309  21.621   7.660
 2237POPC   NC331163  13.033  15.030   9.575
 2237POPC   PO431164  12.536  15.518   9.556
 2237POPC   GL131165  12.837  15.362   9.263
 2237POPC   GL231166  12.592  15.134   9.160
 2237POPC   C1A31167  13.018  15.046   8.917
 2237POPC   D2A31168  12.832  15.004   8.505
 2237POPC   C3A31169  13.105  14.988   8.148
 2237POPC   C4A31170  13.043  15.184   7.760
 2237POPC   C1B31171  12.702  15.438   8.798
 2237POPC   C2B31172  12.532  15.423   8.400
 2237POPC   C3B31173  12.582  15.192   8.033
 2237POPC   C4B31174  12.618  15.525   7.766
 2238POPC   NC331175  27.687   3.829   9.487
 2238POPC   PO431176  27.342   4.285   9.693
 2238POPC   GL131177  27.414   4.432   9.252
 2238POPC   GL231178  27.574   4.158   9.116
 2238POPC   C1A31179  27.625   4.550   8.817
 2238POPC   D2A31180  27.597   4.287   8.436
 2238POPC   C3A31181  27.550   4.487   8.013
 2238POPC   C4A31182  27.795   4.497   7.629
 2238POPC   C1B31183  27.932   4.104   8.847
 2238POPC   C2B31184  28.084   4.091   8.434
 2238POPC   C3B31185  27.891   4.109   8.035
 2238POPC   C4B31186  28.049   4.053   7.652
 2239POPC   NC331187   6.082   6.261   9.887
 2239POPC   PO431188   5.690   5.805   9.610
 2239POPC   GL131189   5.907   5.699   9.193
 2239POPC   GL231190   5.836   6.008   9.113
 2239POPC   C1A31191   6.077   5.820   8.736
 2239POPC   D2A31192   5.937   5.990   8.335
 2239POPC   C3A31193   6.050   5.723   7.979
 2239POPC   C4A31194   6.223   5.811   7.591
 2239POPC   C1B31195   5.572   5.751   8.798
 2239POPC   C2B31196   5.630   5.588   8.375
 2239POPC   C3B31197   5.550   5.822   7.992
 2239POPC   C4B31198   5.704   5.755   7.583
 2240POPC   NC331199  40.670  21.906   9.420
 2240POPC   PO431200  40.947  22.547   9.497
 2240POPC   GL131201  40.802  22.350   9.179
 2240POPC   GL231202  41.106  22.463   9.032
 2240POPC   C1A31203  40.774  22.116   8.812
 2240POPC   D2A31204  40.952  22.097   8.446
 2240POPC   C3A31205  40.746  22.169   8.086
 2240POPC   C4A31206  40.672  22.178   7.682
 2240POPC   C1B31207  40.978  22.593   8.659
 2240POPC   C2B31208  41.075  22.534   8.238
 2240POPC   C3B31209  41.034  22.553   7.809
 2240POPC   C4B31210  41.099  22.818   7.435
 2241POPC   NC331211  17.269   2.450   9.536
 2241POPC   PO431212  17.768   2.868   9.540
 2241POPC   GL131213  17.483   2.951   9.160
 2241POPC   GL231214  17.160   3.153   9.086
 2241POPC   C1A31215  17.530   2.837   8.750
 2241POPC   D2A31216  17.689   3.052   8.411
 2241POPC   C3A31217  17.525   2.904   8.051
 2241POPC   C4A31218  17.545   2.579   7.788
 2241POPC   C1B31219  16.989   3.018   8.734
 2241POPC   C2B31220  17.134   2.772   8.424
 2241POPC   C3B31221  17.049   2.641   8.029
 2241POPC   C4B31222  17.095   2.840   7.669
 2242POPC   NC331223  17.710  39.493   9.531
 2242POPC   PO431224  17.310  40.083   9.603
 2242POPC   GL131225  17.288  39.955   9.182
 2242POPC   GL231226  17.465  39.668   9.125
 2242POPC   C1A31227  17.457  40.060   8.781
 2242POPC   D2A31228  17.340  39.957   8.393
 2242POPC   C3A31229  17.598  39.951   8.058
 2242POPC   C4A31230  17.513  40.157   7.696
 2242POPC   C1B31231  17.821  39.720   8.823
 2242POPC   C2B31232  17.953  39.811   8.417
 2242POPC   C3B31233  17.982  39.609   8.029
 2242POPC   C4B31234  17.910  39.769   7.654
 2243POPC   NC331235  32.679  12.249   9.904
 2243POPC   PO431236  33.210  12.089   9.481
 2243POPC   GL131237  33.200  12.057   9.086
 2243POPC   GL231238  32.842  11.957   9.056
 2243POPC   C1A31239  33.144  12.095   8.686
 2243POPC   D2A31240  32.837  11.994   8.401
 2243POPC   C3A31241  32.925  12.102   7.996
 2243POPC   C4A31242  33.046  11.936   7.561
 2243POPC   C1B31243  32.674  12.295   8.775
 2243POPC   C2B31244  32.475  12.456   8.402
 2243POPC   C3B31245  32.432  12.278   8.001
 2243POPC   C4B31246  32.633  12.275   7.631
 2244POPC   NC331247   9.822  28.298   9.655
 2244POPC   PO431248   9.202  28.247   9.595
 2244POPC   GL131249   9.565  28.307   9.223
 2244POPC   GL231250   9.805  28.605   9.219
 2244POPC   C1A31251   9.695  28.238   8.754
 2244POPC   D2A31252   9.785  28.080   8.301
 2244POPC   C3A31253   9.538  28.230   7.930
 2244POPC   C4A31254   9.588  28.333   7.438
 2244POPC   C1B31255  10.093  28.563   8.850
 2244POPC   C2B31256  10.075  28.631   8.421
 2244POPC   C3B31257   9.986  28.465   8.041
 2244POPC   C4B31258   9.933  28.624   7.653
 2245POPC   NC331259  33.895  38.542   9.542
 2245POPC   PO431260  33.326  38.847   9.561
 2245POPC   GL131261  33.527  38.633   9.181
 2245POPC   GL231262  33.787  38.391   9.087
 2245POPC   C1A31263  33.511  38.754   8.744
 2245POPC   D2A31264  33.740  38.803   8.368
 2245POPC   C3A31265  33.534  38.691   8.007
 2245POPC   C4A31266  33.758  38.400   7.749
 2245POPC   C1B31267  33.919  38.445   8.690
 2245POPC   C2B31268  34.127  38.236   8.336
 2245POPC   C3B31269  34.048  38.031   7.936
 2245POPC   C4B31270  34.097  38.098   7.494
 2246POPC   NC331271  41.785   0.211   9.554
 2246POPC   PO431272  41.157   0.294   9.473
 2246POPC   GL131273  41.477   0.447   9.180
 2246POPC   GL231274  41.816   0.278   9.061
 2246POPC   C1A31275  41.433   0.436   8.747
 2246POPC   D2A31276  41.698   0.263   8.469
 2246POPC   C3A31277  41.590   0.429   8.096
 2246POPC   C4A31278  41.583   0.239   7.726
 2246POPC   C1B31279  41.981   0.573   8.777
 2246POPC   C2B31280  41.905   0.750   8.364
 2246POPC   C3B31281  42.042   0.622   7.959
 2246POPC   C4B31282  41.877   0.626   7.573
 2247POPC   NC331283   4.762  10.557   9.548
 2247POPC   PO431284   5.453  10.491   9.506
 2247POPC   GL131285   5.280  10.595   9.094
 2247POPC   GL231286   4.925  10.539   9.073
 2247POPC   C1A31287   5.307  10.454   8.663
 2247POPC   D2A31288   5.440  10.380   8.235
 2247POPC   C3A31289   5.289  10.664   7.887
 2247POPC   C4A31290   4.999  10.622   7.509
 2247POPC   C1B31291   4.947  10.806   8.722
 2247POPC   C2B31292   4.983  10.666   8.304
 2247POPC   C3B31293   4.781  10.781   7.936
 2247POPC   C4B31294   4.513  11.112   7.842
 2248POPC   NC331295   0.108  34.249   9.357
 2248POPC   PO431296   0.622  34.717   9.553
 2248POPC   GL131297   0.458  34.589   9.186
 2248POPC   GL231298   0.137  34.764   9.167
 2248POPC   C1A31299   0.581  34.467   8.784
 2248POPC   D2A31300   0.511  34.633   8.376
 2248POPC   C3A31301   0.713  34.459   8.040
 2248POPC   C4A31302   0.709  34.609   7.624
 2248POPC   C1B31303   0.072  34.565   8.761
 2248POPC   C2B31304   0.043  34.407   8.334
 2248POPC   C3B31305   0.209  34.579   7.936
 2248POPC   C4B31306   0.285  34.366   7.506
 2249POPC   NC331307   9.953  11.555   9.360
 2249POPC   PO431308   9.625  10.907   9.444
 2249POPC   GL131309   9.674  11.124   9.052
 2249POPC   GL231310   9.714  11.459   8.937
 2249POPC   C1A31311   9.659  11.055   8.618
 2249POPC   D2A31312   9.825  10.926   8.235
 2249POPC   C3A31313   9.815  11.301   7.956
 2249POPC   C4A31314   9.633  11.282   7.550
 2249POPC   C1B31315   9.625  11.566   8.534
 2249POPC   C2B31316   9.410  11.314   8.234
 2249POPC   C3B31317   9.257  11.434   7.827
 2249POPC   C4B31318   9.324  11.655   7.401
 2250POPC   NC331319  23.454   9.487   9.446
 2250POPC   PO431320  23.762  10.060   9.683
 2250POPC   GL131321  23.744   9.976   9.243
 2250POPC   GL231322  23.879   9.629   9.212
 2250POPC   C1A31323  23.544   9.841   8.849
 2250POPC   D2A31324  23.633   9.623   8.449
 2250POPC   C3A31325  23.458   9.758   8.076
 2250POPC   C4A31326  23.656   9.857   7.688
 2250POPC   C1B31327  23.794   9.377   8.862
 2250POPC   C2B31328  24.047   9.280   8.511
 2250POPC   C3B31329  24.066   9.515   8.140
 2250POPC   C4B31330  24.016   9.472   7.708
 2251POPC   NC331331  39.935  28.938   9.525
 2251POPC   PO431332  40.429  29.390   9.535
 2251POPC   GL131333  40.029  29.446   9.265
 2251POPC   GL231334  39.914  29.165   9.061
 2251POPC   C1A31335  39.744  29.617   8.917
 2251POPC   D2A31336  39.859  29.490   8.502
 2251POPC   C3A31337  39.650  29.391   8.105
 2251POPC   C4A31338  39.934  29.317   7.780
 2251POPC   C1B31339  40.183  29.146   8.685
 2251POPC   C2B31340  40.067  29.090   8.255
 2251POPC   C3B31341  39.802  28.845   8.003
 2251POPC   C4B31342  39.801  28.855   7.574
 2252POPC   NC331343   8.408   2.175   9.393
 2252POPC   PO431344   9.132   1.992   9.472
 2252POPC   GL131345   9.075   2.120   9.111
 2252POPC   GL231346   8.807   2.338   9.117
 2252POPC   C1A31347   9.082   1.928   8.749
 2252POPC   D2A31348   8.932   1.838   8.358
 2252POPC   C3A31349   9.162   1.811   7.969
 2252POPC   C4A31350   8.796   1.769   7.679
 2252POPC   C1B31351   9.003   2.443   8.725
 2252POPC   C2B31352   8.881   2.367   8.333
 2252POPC   C3B31353   8.845   2.211   7.948
 2252POPC   C4B31354   9.081   2.179   7.584
 2253POPC   NC331355   6.112  13.339   9.482
 2253POPC   PO431356   5.579  13.770   9.472
 2253POPC   GL131357   5.824  13.637   9.112
 2253POPC   GL231358   5.862  13.258   9.038
 2253POPC   C1A31359   5.668  13.534   8.675
 2253POPC   D2A31360   5.412  13.722   8.412
 2253POPC   C3A31361   5.708  13.910   8.161
 2253POPC   C4A31362   5.770  13.831   7.762
 2253POPC   C1B31363   6.175  13.492   8.783
 2253POPC   C2B31364   6.080  13.660   8.408
 2253POPC   C3B31365   6.076  13.476   8.017
 2253POPC   C4B31366   5.920  13.358   7.654
 2254POPC   NC331367  24.835  31.214   9.539
 2254POPC   PO431368  24.543  31.801   9.642
 2254POPC   GL131369  24.458  31.543   9.241
 2254POPC   GL231370  24.609  31.224   9.105
 2254POPC   C1A31371  24.306  31.491   8.794
 2254POPC   D2A31372  24.516  31.427   8.400
 2254POPC   C3A31373  24.321  31.344   8.031
 2254POPC   C4A31374  24.465  31.540   7.697
 2254POPC   C1B31375  24.857  31.314   8.753
 2254POPC   C2B31376  25.050  31.289   8.353
 2254POPC   C3B31377  24.819  31.236   7.996
 2254POPC   C4B31378  24.909  31.310   7.594
 2255POPC   NC331379  12.542   3.878   9.453
 2255POPC   PO431380  13.079   3.509   9.558
 2255POPC   GL131381  12.888   3.616   9.196
 2255POPC   GL231382  13.004   3.973   9.215
 2255POPC   C1A31383  12.652   3.492   8.826
 2255POPC   D2A31384  12.632   3.684   8.429
 2255POPC   C3A31385  12.629   3.387   8.097
 2255POPC   C4A31386  12.820   3.188   7.769
 2255POPC   C1B31387  12.920   3.939   8.792
 2255POPC   C2B31388  13.108   3.870   8.416
 2255POPC   C3B31389  12.958   3.786   8.020
 2255POPC   C4B31390  13.170   3.813   7.636
 2256POPC   NC331391   9.553   4.054   9.673
 2256POPC   PO431392   9.998   4.522   9.527
 2256POPC   GL131393   9.923   4.263   9.178
 2256POPC   GL231394   9.553   4.253   9.213
 2256POPC   C1A31395  10.064   4.211   8.736
 2256POPC   D2A31396   9.907   4.055   8.327
 2256POPC   C3A31397  10.059   4.211   7.954
 2256POPC   C4A31398  10.024   4.012   7.533
 2256POPC   C1B31399   9.549   4.224   8.795
 2256POPC   C2B31400   9.511   4.402   8.399
 2256POPC   C3B31401   9.561   4.361   8.005
 2256POPC   C4B31402   9.285   4.177   7.746
 2257POPC   NC331403  16.617  37.353   9.419
 2257POPC   PO431404  16.456  37.922   9.610
 2257POPC   GL131405  16.703  37.906   9.218
 2257POPC   GL231406  16.976  37.669   9.117
 2257POPC   C1A31407  16.644  37.772   8.766
 2257POPC   D2A31408  16.567  37.947   8.365
 2257POPC   C3A31409  16.735  37.769   7.988
 2257POPC   C4A31410  16.533  37.730   7.586
 2257POPC   C1B31411  16.950  37.346   8.798
 2257POPC   C2B31412  16.847  37.149   8.390
 2257POPC   C3B31413  17.059  37.283   8.015
 2257POPC   C4B31414  16.989  37.520   7.625
 2258POPC   NC331415  42.213  28.635   9.596
 2258POPC   PO431416  42.647  28.103   9.480
 2258POPC   GL131417  42.477  28.120   9.073
 2258POPC   GL231418  42.219  28.338   9.153
 2258POPC   C1A31419  42.597  28.206   8.632
 2258POPC   D2A31420  42.579  28.555   8.339
 2258POPC   C3A31421  42.461  28.467   7.918
 2258POPC   C4A31422  42.421  28.051   7.864
 2258POPC   C1B31423  42.253  28.540   8.772
 2258POPC   C2B31424  42.071  28.485   8.374
 2258POPC   C3B31425  41.979  28.291   7.984
 2258POPC   C4B31426  41.997  28.635   7.708
 2259POPC   NC331427  44.594  15.060   9.544
 2259POPC   PO431428  44.703  15.736   9.616
 2259POPC   GL131429  44.569  15.479   9.214
 2259POPC   GL231430  44.564  15.134   9.044
 2259POPC   C1A31431  44.612  15.529   8.739
 2259POPC   D2A31432  44.663  15.254   8.344
 2259POPC   C3A31433  44.693  15.413   7.904
 2259POPC   C4A31434  44.803  15.301   7.438
 2259POPC   C1B31435  44.719  14.864   8.694
 2259POPC   C2B31436  44.945  14.763   8.308
 2259POPC   C3B31437  44.760  14.906   7.926
 2259POPC   C4B31438  44.720  14.821   7.488
 2260POPC   NC331439  10.696  10.362   9.509
 2260POPC   PO431440  10.448  10.931   9.717
 2260POPC   GL131441  10.453  10.819   9.201
 2260POPC   GL231442  10.457  10.439   9.082
 2260POPC   C1A31443  10.497  10.754   8.715
 2260POPC   D2A31444  10.587  10.526   8.315
 2260POPC   C3A31445  10.694  10.749   7.941
 2260POPC   C4A31446  10.331  10.637   7.753
 2260POPC   C1B31447  10.515  10.163   8.695
 2260POPC   C2B31448  10.681  10.010   8.280
 2260POPC   C3B31449  10.623  10.221   7.854
 2260POPC   C4B31450  10.872  10.162   7.483
 2261POPC   NC331451  38.959  13.176   9.805
 2261POPC   PO431452  38.638  12.575   9.539
 2261POPC   GL131453  38.503  12.743   9.156
 2261POPC   GL231454  38.750  12.935   9.023
 2261POPC   C1A31455  38.302  12.838   8.771
 2261POPC   D2A31456  38.070  12.661   8.465
 2261POPC   C3A31457  38.102  12.894   8.074
 2261POPC   C4A31458  38.476  13.103   7.936
 2261POPC   C1B31459  38.713  12.569   8.718
 2261POPC   C2B31460  38.561  12.708   8.295
 2261POPC   C3B31461  38.678  12.590   7.875
 2261POPC   C4B31462  38.712  12.436   7.435
 2262POPC   NC331463  18.245  25.830   9.438
 2262POPC   PO431464  18.803  26.187   9.512
 2262POPC   GL131465  18.576  26.103   9.136
 2262POPC   GL231466  18.688  25.763   9.192
 2262POPC   C1A31467  18.177  26.104   8.843
 2262POPC   D2A31468  17.932  26.301   8.477
 2262POPC   C3A31469  17.981  26.075   8.096
 2262POPC   C4A31470  18.159  26.019   7.700
 2262POPC   C1B31471  18.691  25.745   8.773
 2262POPC   C2B31472  18.512  25.725   8.376
 2262POPC   C3B31473  18.511  26.043   8.073
 2262POPC   C4B31474  18.685  26.193   7.688
 2263POPC   NC331475  22.567  22.990   9.439
 2263POPC   PO431476  22.034  22.613   9.638
 2263POPC   GL131477  22.147  22.784   9.189
 2263POPC   GL231478  21.793  22.699   9.103
 2263POPC   C1A31479  22.405  22.957   8.805
 2263POPC   D2A31480  22.643  22.721   8.486
 2263POPC   C3A31481  22.449  22.755   8.093
 2263POPC   C4A31482  22.258  22.652   7.710
 2263POPC   C1B31483  21.911  22.977   8.787
 2263POPC   C2B31484  21.927  23.069   8.380
 2263POPC   C3B31485  21.926  22.860   8.032
 2263POPC   C4B31486  21.899  23.004   7.630
 2264POPC   NC331487  17.341   4.018   9.505
 2264POPC   PO431488  17.700   4.542   9.449
 2264POPC   GL131489  17.865   4.304   9.124
 2264POPC   GL231490  17.675   4.053   9.125
 2264POPC   C1A31491  17.718   4.338   8.709
 2264POPC   D2A31492  17.527   4.573   8.399
 2264POPC   C3A31493  17.467   4.389   8.016
 2264POPC   C4A31494  17.779   4.450   7.720
 2264POPC   C1B31495  17.305   4.046   8.830
 2264POPC   C2B31496  17.394   4.053   8.393
 2264POPC   C3B31497  17.434   3.887   7.960
 2264POPC   C4B31498  17.165   3.949   7.619
 2265POPC   NC331499   7.441  32.507   9.439
 2265POPC   PO431500   7.139  31.945   9.326
 2265POPC   GL131501   7.320  32.197   9.044
 2265POPC   GL231502   7.022  32.423   9.077
 2265POPC   C1A31503   7.362  32.435   8.672
 2265POPC   D2A31504   7.277  32.270   8.257
 2265POPC   C3A31505   7.497  32.230   7.896
 2265POPC   C4A31506   7.838  31.991   7.790
 2265POPC   C1B31507   6.854  32.571   8.681
 2265POPC   C2B31508   7.018  32.740   8.306
 2265POPC   C3B31509   7.161  32.632   7.886
 2265POPC   C4B31510   7.133  32.424   7.490
 2266POPC   NC331511  33.430  21.527   9.748
 2266POPC   PO431512  34.042  21.370   9.509
 2266POPC   GL131513  33.838  21.269   9.137
 2266POPC   GL231514  33.651  20.962   9.199
 2266POPC   C1A31515  33.888  21.448   8.725
 2266POPC   D2A31516  34.066  21.339   8.350
 2266POPC   C3A31517  33.886  21.489   7.998
 2266POPC   C4A31518  34.055  21.669   7.620
 2266POPC   C1B31519  33.513  21.100   8.755
 2266POPC   C2B31520  33.531  21.219   8.294
 2266POPC   C3B31521  33.495  21.187   7.821
 2266POPC   C4B31522  33.488  21.152   7.379
 2267POPC   NC331523  29.729  37.223   9.481
 2267POPC   PO431524  30.239  36.694   9.500
 2267POPC   GL131525  30.086  36.622   9.093
 2267POPC   GL231526  29.715  36.742   9.052
 2267POPC   C1A31527  30.038  36.507   8.695
 2267POPC   D2A31528  29.727  36.790   8.471
 2267POPC   C3A31529  29.738  36.891   8.047
 2267POPC   C4A31530  30.022  36.902   7.684
 2267POPC   C1B31531  29.891  37.124   8.815
 2267POPC   C2B31532  29.894  37.288   8.359
 2267POPC   C3B31533  30.103  37.324   7.938
 2267POPC   C4B31534  30.087  37.405   7.459
 2268POPC   NC331535   9.643  37.878   9.841
 2268POPC   PO431536   9.715  37.245   9.731
 2268POPC   GL131537   9.826  37.610   9.417
 2268POPC   GL231538   9.522  37.811   9.324
 2268POPC   C1A31539   9.883  37.712   8.952
 2268POPC   D2A31540   9.709  37.469   8.572
 2268POPC   C3A31541   9.921  37.595   8.197
 2268POPC   C4A31542   9.863  37.693   7.777
 2268POPC   C1B31543   9.539  38.070   8.953
 2268POPC   C2B31544   9.711  37.978   8.529
 2268POPC   C3B31545   9.500  37.904   8.116
 2268POPC   C4B31546   9.454  37.986   7.653
 2269POPC   NC331547  15.864  26.206   9.646
 2269POPC   PO431548  15.817  25.599   9.404
 2269POPC   GL131549  15.829  25.972   9.132
 2269POPC   GL231550  16.132  26.191   9.180
 2269POPC   C1A31551  15.780  25.941   8.683
 2269POPC   D2A31552  16.066  25.952   8.331
 2269POPC   C3A31553  15.886  25.971   7.925
 2269POPC   C4A31554  15.764  26.187   7.539
 2269POPC   C1B31555  16.131  26.299   8.752
 2269POPC   C2B31556  16.134  26.471   8.332
 2269POPC   C3B31557  16.150  26.406   7.887
 2269POPC   C4B31558  16.180  26.457   7.443
 2270POPC   NC331559   0.053  20.475   9.376
 2270POPC   PO431560  44.451  20.717   9.494
 2270POPC   GL131561  44.663  20.770   9.132
 2270POPC   GL231562  44.996  20.952   9.079
 2270POPC   C1A31563  44.634  20.550   8.772
 2270POPC   D2A31564  44.860  20.307   8.496
 2270POPC   C3A31565  44.772  20.464   8.113
 2270POPC   C4A31566  44.650  20.386   7.728
 2270POPC   C1B31567  44.736  21.046   8.712
 2270POPC   C2B31568  44.545  20.901   8.323
 2270POPC   C3B31569  44.589  20.916   7.883
 2270POPC   C4B31570  44.678  21.263   7.591
 2271POPC   NC331571  14.617  35.405   9.355
 2271POPC   PO431572  14.090  35.036   9.404
 2271POPC   GL131573  14.193  35.337   9.083
 2271POPC   GL231574  14.314  35.678   9.061
 2271POPC   C1A31575  14.471  35.246   8.724
 2271POPC   D2A31576  14.372  35.103   8.309
 2271POPC   C3A31577  14.329  35.305   7.882
 2271POPC   C4A31578  14.529  35.229   7.465
 2271POPC   C1B31579  14.629  35.724   8.741
 2271POPC   C2B31580  14.691  35.516   8.341
 2271POPC   C3B31581  14.746  35.623   7.939
 2271POPC   C4B31582  14.489  35.705   7.584
 2272POPC   NC331583  12.823  21.442   9.668
 2272POPC   PO431584  13.211  21.086   9.223
 2272POPC   GL131585  12.786  21.301   9.151
 2272POPC   GL231586  12.722  21.651   9.205
 2272POPC   C1A31587  12.663  21.144   8.750
 2272POPC   D2A31588  13.049  21.205   8.480
 2272POPC   C3A31589  12.975  21.217   8.044
 2272POPC   C4A31590  12.555  21.140   7.866
 2272POPC   C1B31591  12.720  21.664   8.746
 2272POPC   C2B31592  12.588  21.477   8.319
 2272POPC   C3B31593  12.624  21.654   7.896
 2272POPC   C4B31594  12.547  22.044   7.686
 2273POPC   NC331595  33.054  38.835   9.195
 2273POPC   PO431596  32.960  39.480   9.333
 2273POPC   GL131597  32.808  39.212   9.008
 2273POPC   GL231598  33.099  39.110   8.776
 2273POPC   C1A31599  32.582  39.019   8.685
 2273POPC   D2A31600  32.689  39.257   8.345
 2273POPC   C3A31601  32.783  39.122   7.970
 2273POPC   C4A31602  33.197  39.049   7.794
 2273POPC   C1B31603  33.113  39.558   8.728
 2273POPC   C2B31604  33.036  39.752   8.392
 2273POPC   C3B31605  33.122  39.484   8.087
 2273POPC   C4B31606  33.181  39.537   7.679
 2274POPC   NC331607  23.297  12.911   9.385
 2274POPC   PO431608  22.654  13.074   9.487
 2274POPC   GL131609  22.816  12.835   9.151
 2274POPC   GL231610  22.978  12.536   9.274
 2274POPC   C1A31611  22.695  12.816   8.714
 2274POPC   D2A31612  22.856  12.967   8.294
 2274POPC   C3A31613  22.643  12.815   7.902
 2274POPC   C4A31614  22.799  12.585   7.584
 2274POPC   C1B31615  23.132  12.557   8.818
 2274POPC   C2B31616  23.194  12.559   8.344
 2274POPC   C3B31617  23.218  12.517   7.866
 2274POPC   C4B31618  23.231  12.371   7.405
 2275POPC   NC331619   4.806  27.378   9.743
 2275POPC   PO431620   4.214  27.750   9.525
 2275POPC   GL131621   4.122  27.650   9.105
 2275POPC   GL231622   4.346  27.886   9.041
 2275POPC   C1A31623   4.238  27.537   8.680
 2275POPC   D2A31624   4.366  27.308   8.336
 2275POPC   C3A31625   4.196  27.487   7.977
 2275POPC   C4A31626   4.279  27.599   7.528
 2275POPC   C1B31627   4.581  27.918   8.697
 2275POPC   C2B31628   4.454  27.822   8.297
 2275POPC   C3B31629   4.450  27.938   7.903
 2275POPC   C4B31630   4.273  28.090   7.511
 2276POPC   NC331631   2.273  25.294   9.491
 2276POPC   PO431632   1.637  25.578   9.340
 2276POPC   GL131633   2.007  25.471   9.070
 2276POPC   GL231634   2.308  25.217   9.006
 2276POPC   C1A31635   1.935  25.264   8.676
 2276POPC   D2A31636   1.712  25.219   8.327
 2276POPC   C3A31637   1.989  25.294   7.994
 2276POPC   C4A31638   2.207  25.468   7.637
 2276POPC   C1B31639   2.253  24.867   8.700
 2276POPC   C2B31640   2.046  24.804   8.305
 2276POPC   C3B31641   2.190  24.836   7.863
 2276POPC   C4B31642   1.961  25.032   7.543
 2277POPC   NC331643  31.599   9.313   9.484
 2277POPC   PO431644  32.202   8.909   9.447
 2277POPC   GL131645  32.319   8.954   9.053
 2277POPC   GL231646  32.234   9.332   9.058
 2277POPC   C1A31647  32.391   8.927   8.598
 2277POPC   D2A31648  32.078   8.979   8.306
 2277POPC   C3A31649  32.049   8.757   7.937
 2277POPC   C4A31650  32.437   8.807   7.701
 2277POPC   C1B31651  32.053   9.320   8.691
 2277POPC   C2B31652  32.361   9.397   8.376
 2277POPC   C3B31653  32.417   9.355   7.971
 2277POPC   C4B31654  32.044   9.234   7.836
 2278POPC   NC331655  44.952  39.942   9.531
 2278POPC   PO431656   0.695  39.835   9.528
 2278POPC   GL131657   0.571  39.830   9.113
 2278POPC   GL231658   0.224  39.967   9.068
 2278POPC   C1A31659   0.626  40.109   8.754
 2278POPC   D2A31660   0.559  40.416   8.421
 2278POPC   C3A31661   0.786  40.277   8.048
 2278POPC   C4A31662   0.872  39.947   7.751
 2278POPC   C1B31663   0.118  40.335   8.802
 2278POPC   C2B31664   0.047  40.431   8.348
 2278POPC   C3B31665   0.290  40.412   7.950
 2278POPC   C4B31666   0.360  39.994   7.779
 2279POPC   NC331667   7.966  25.548   9.576
 2279POPC   PO431668   8.341  24.999   9.766
 2279POPC   GL131669   8.233  25.191   9.321
 2279POPC   GL231670   8.478  25.083   9.072
 2279POPC   C1A31671   8.065  25.392   8.937
 2279POPC   D2A31672   8.004  25.527   8.500
 2279POPC   C3A31673   7.989  25.486   8.043
 2279POPC   C4A31674   7.828  25.173   7.764
 2279POPC   C1B31675   8.326  25.008   8.667
 2279POPC   C2B31676   8.396  24.813   8.289
 2279POPC   C3B31677   8.348  25.104   7.989
 2279POPC   C4B31678   8.502  25.116   7.605
 2280POPC   NC331679  37.032   7.730   9.328
 2280POPC   PO431680  36.557   7.250   9.380
 2280POPC   GL131681  36.820   7.313   9.077
 2280POPC   GL231682  37.125   7.234   9.230
 2280POPC   C1A31683  36.808   7.458   8.670
 2280POPC   D2A31684  36.805   7.626   8.264
 2280POPC   C3A31685  37.198   7.697   8.035
 2280POPC   C4A31686  37.036   7.552   7.683
 2280POPC   C1B31687  37.242   7.170   8.809
 2280POPC   C2B31688  37.261   7.373   8.414
 2280POPC   C3B31689  37.131   7.193   8.025
 2280POPC   C4B31690  37.221   7.095   7.588
 2281POPC   NC331691   4.701  37.996   9.476
 2281POPC   PO431692   4.657  37.318   9.517
 2281POPC   GL131693   4.935  37.459   9.184
 2281POPC   GL231694   5.221  37.695   9.249
 2281POPC   C1A31695   5.136  37.460   8.785
 2281POPC   D2A31696   5.320  37.522   8.398
 2281POPC   C3A31697   5.062  37.407   8.105
 2281POPC   C4A31698   4.880  37.576   7.760
 2281POPC   C1B31699   5.313  37.946   8.847
 2281POPC   C2B31700   5.170  38.014   8.426
 2281POPC   C3B31701   5.213  37.899   7.994
 2281POPC   C4B31702   5.221  38.061   7.531
 2282POPC   NC331703  22.044  39.590   9.414
 2282POPC   PO431704  22.212  38.909   9.618
 2282POPC   GL131705  22.254  39.139   9.229
 2282POPC   GL231706  21.900  39.125   9.220
 2282POPC   C1A31707  22.250  39.352   8.826
 2282POPC   D2A31708  22.434  39.475   8.426
 2282POPC   C3A31709  22.379  39.245   8.030
 2282POPC   C4A31710  22.364  39.500   7.661
 2282POPC   C1B31711  21.799  39.068   8.800
 2282POPC   C2B31712  21.900  39.305   8.425
 2282POPC   C3B31713  22.030  39.605   8.119
 2282POPC   C4B31714  21.888  39.337   7.804
 2283POPC   NC331715  31.681  14.848   9.377
 2283POPC   PO431716  31.270  15.409   9.576
 2283POPC   GL131717  31.390  15.228   9.182
 2283POPC   GL231718  31.706  15.374   9.200
 2283POPC   C1A31719  31.407  15.147   8.726
 2283POPC   D2A31720  31.398  15.413   8.342
 2283POPC   C3A31721  31.312  15.296   7.930
 2283POPC   C4A31722  31.105  14.972   7.777
 2283POPC   C1B31723  31.738  15.541   8.778
 2283POPC   C2B31724  31.888  15.499   8.356
 2283POPC   C3B31725  31.812  15.455   7.924
 2283POPC   C4B31726  31.765  15.053   7.746
 2284POPC   NC331727  10.146   8.903   9.549
 2284POPC   PO431728  10.760   8.727   9.768
 2284POPC   GL131729  10.735   8.913   9.295
 2284POPC   GL231730  10.413   9.061   9.152
 2284POPC   C1A31731  10.755   8.993   8.803
 2284POPC   D2A31732  10.471   8.878   8.446
 2284POPC   C3A31733  10.498   8.950   7.991
 2284POPC   C4A31734  10.127   9.152   7.815
 2284POPC   C1B31735  10.429   8.619   8.936
 2284POPC   C2B31736  10.326   8.393   8.531
 2284POPC   C3B31737  10.168   8.547   8.135
 2284POPC   C4B31738  10.388   8.495   7.754
 2285POPC   NC331739  38.593  28.415   9.529
 2285POPC   PO431740  38.610  27.820   9.324
 2285POPC   GL131741  38.520  28.164   9.085
 2285POPC   GL231742  38.198  28.092   8.957
 2285POPC   C1A31743  38.706  28.206   8.686
 2285POPC   D2A31744  38.605  27.893   8.389
 2285POPC   C3A31745  38.317  28.115   8.125
 2285POPC   C4A31746  38.644  28.341   7.909
 2285POPC   C1B31747  38.298  28.528   8.773
 2285POPC   C2B31748  38.433  28.598   8.334
 2285POPC   C3B31749  38.223  28.620   7.929
 2285POPC   C4B31750  38.465  28.666   7.547
 2286POPC   NC331751   8.267   2.965   9.504
 2286POPC   PO431752   7.953   2.381   9.369
 2286POPC   GL131753   8.222   2.592   9.081
 2286POPC   GL231754   8.187   2.970   9.008
 2286POPC   C1A31755   8.191   2.624   8.643
 2286POPC   D2A31756   8.380   2.528   8.284
 2286POPC   C3A31757   8.066   2.567   7.992
 2286POPC   C4A31758   8.098   2.850   7.706
 2286POPC   C1B31759   8.225   3.143   8.585
 2286POPC   C2B31760   8.199   3.082   8.154
 2286POPC   C3B31761   8.148   3.356   7.788
 2286POPC   C4B31762   8.091   3.205   7.342
 2287POPC   NC331763  35.737  44.364   9.260
 2287POPC   PO431764  36.316  44.711   9.282
 2287POPC   GL131765  36.265  44.483   8.950
 2287POPC   GL231766  36.543  44.303   9.029
 2287POPC   C1A31767  36.169  44.531   8.511
 2287POPC   D2A31768  36.048  44.333   8.118
 2287POPC   C3A31769  35.859  44.668   7.888
 2287POPC   C4A31770  35.845   0.106   8.019
 2287POPC   C1B31771  36.465  44.143   8.630
 2287POPC   C2B31772  36.553  44.327   8.211
 2287POPC   C3B31773  36.416  44.629   7.916
 2287POPC   C4B31774  36.228  44.522   7.540
 2288POPC   NC331775  42.745  10.660   9.406
 2288POPC   PO431776  43.272  10.306   9.615
 2288POPC   GL131777  43.150  10.310   9.129
 2288POPC   GL231778  42.820  10.389   8.994
 2288POPC   C1A31779  43.160  10.298   8.646
 2288POPC   D2A31780  43.016  10.582   8.326
 2288POPC   C3A31781  43.157  10.479   7.937
 2288POPC   C4A31782  43.424  10.823   7.915
 2288POPC   C1B31783  42.654  10.739   8.691
 2288POPC   C2B31784  42.591  10.876   8.262
 2288POPC   C3B31785  42.835  10.884   7.863
 2288POPC   C4B31786  42.713  11.023   7.434
 2289POPC   NC331787  14.442  10.101   9.705
 2289POPC   PO431788  14.554  10.742   9.600
 2289POPC   GL131789  14.635  10.543   9.208
 2289POPC   GL231790  14.327  10.359   9.264
 2289POPC   C1A31791  14.584  10.671   8.769
 2289POPC   D2A31792  14.252  10.563   8.479
 2289POPC   C3A31793  14.399  10.692   8.107
 2289POPC   C4A31794  14.328  10.551   7.676
 2289POPC   C1B31795  14.409  10.203   8.861
 2289POPC   C2B31796  14.355  10.043   8.445
 2289POPC   C3B31797  14.346  10.184   8.048
 2289POPC   C4B31798  14.359  10.044   7.643
 2290POPC   NC331799  22.231  44.634   9.627
 2290POPC   PO431800  21.782  44.266   9.289
 2290POPC   GL131801  21.934  44.564   9.061
 2290POPC   GL231802  22.273  44.608   9.092
 2290POPC   C1A31803  22.013  44.468   8.651
 2290POPC   D2A31804  22.358  44.488   8.363
 2290POPC   C3A31805  22.207  44.471   7.959
 2290POPC   C4A31806  22.278  44.465   7.512
 2290POPC   C1B31807  22.383  44.866   8.705
 2290POPC   C2B31808  22.364   0.001   8.238
 2290POPC   C3B31809  22.566  44.820   7.848
 2290POPC   C4B31810  22.524  44.865   7.372
 2291POPC   NC331811   8.076  29.564   9.415
 2291POPC   PO431812   8.376  30.110   9.600
 2291POPC   GL131813   8.288  30.212   9.138
 2291POPC   GL231814   7.995  30.052   9.076
 2291POPC   C1A31815   8.322  30.063   8.673
 2291POPC   D2A31816   8.308  29.681   8.378
 2291POPC   C3A31817   8.255  29.783   7.938
 2291POPC   C4A31818   8.503  30.030   7.642
 2291POPC   C1B31819   7.922  29.731   8.754
 2291POPC   C2B31820   7.821  29.783   8.330
 2291POPC   C3B31821   7.737  29.859   7.917
 2291POPC   C4B31822   7.785  30.239   7.720
 2292POPC   NC331823   1.796  40.356   9.634
 2292POPC   PO431824   2.039  40.980   9.463
 2292POPC   GL131825   1.868  40.881   9.095
 2292POPC   GL231826   1.622  40.653   9.201
 2292POPC   C1A31827   2.097  40.849   8.714
 2292POPC   D2A31828   2.267  41.058   8.359
 2292POPC   C3A31829   2.018  40.918   8.015
 2292POPC   C4A31830   2.139  40.541   7.834
 2292POPC   C1B31831   1.695  40.515   8.758
 2292POPC   C2B31832   1.843  40.516   8.332
 2292POPC   C3B31833   1.729  40.277   7.977
 2292POPC   C4B31834   1.664  40.438   7.565
 2293POPC   NC331835   0.831  13.569   9.373
 2293POPC   PO431836   1.402  13.894   9.494
 2293POPC   GL131837   1.260  13.868   9.070
 2293POPC   GL231838   1.257  13.505   9.043
 2293POPC   C1A31839   1.250  13.849   8.614
 2293POPC   D2A31840   1.232  14.031   8.213
 2293POPC   C3A31841   1.050  13.802   7.834
 2293POPC   C4A31842   1.318  13.838   7.439
 2293POPC   C1B31843   1.143  13.372   8.611
 2293POPC   C2B31844   1.031  13.506   8.253
 2293POPC   C3B31845   1.216  13.309   7.924
 2293POPC   C4B31846   1.184  13.373   7.548
 2294POPC   NC331847  44.586  43.696   9.312
 2294POPC   PO431848  44.914  44.253   9.609
 2294POPC   GL131849  44.742  44.162   9.185
 2294POPC   GL231850  44.342  44.165   9.166
 2294POPC   C1A31851  44.854  43.924   8.771
 2294POPC   D2A31852   0.098  43.809   8.410
 2294POPC   C3A31853  44.861  43.924   8.088
 2294POPC   C4A31854  44.752  44.013   7.705
 2294POPC   C1B31855  44.289  43.995   8.774
 2294POPC   C2B31856  44.456  44.012   8.397
 2294POPC   C3B31857  44.322  44.037   8.004
 2294POPC   C4B31858  44.314  43.767   7.697
 2295POPC   NC331859  16.113  10.019   9.582
 2295POPC   PO431860  15.756   9.499   9.365
 2295POPC   GL131861  15.712   9.837   9.101
 2295POPC   GL231862  16.074   9.869   9.065
 2295POPC   C1A31863  15.732   9.910   8.655
 2295POPC   D2A31864  15.957   9.872   8.279
 2295POPC   C3A31865  15.684   9.964   7.951
 2295POPC   C4A31866  15.786   9.815   7.554
 2295POPC   C1B31867  16.127   9.596   8.706
 2295POPC   C2B31868  16.171   9.413   8.291
 2295POPC   C3B31869  16.142   9.592   7.872
 2295POPC   C4B31870  16.314   9.422   7.475
 2296POPC   NC331871  40.324  21.140   9.200
 2296POPC   PO431872  40.167  20.581   9.556
 2296POPC   GL131873  40.136  20.669   9.138
 2296POPC   GL231874  39.847  20.544   9.012
 2296POPC   C1A31875  40.140  20.801   8.675
 2296POPC   D2A31876  39.992  20.658   8.289
 2296POPC   C3A31877  40.175  20.828   7.945
 2296POPC   C4A31878  40.060  20.581   7.629
 2296POPC   C1B31879  39.628  20.725   8.652
 2296POPC   C2B31880  39.425  20.567   8.287
 2296POPC   C3B31881  39.646  20.467   7.919
 2296POPC   C4B31882  39.540  20.212   7.587
 2297POPC   NC331883   2.444   0.543   9.268
 2297POPC   PO431884   3.114   0.677   9.495
 2297POPC   GL131885   2.984   0.518   9.100
 2297POPC   GL231886   2.798   0.220   9.128
 2297POPC   C1A31887   2.829   0.464   8.679
 2297POPC   D2A31888   2.964   0.376   8.257
 2297POPC   C3A31889   2.730   0.606   7.958
 2297POPC   C4A31890   2.888   0.796   7.587
 2297POPC   C1B31891   2.962  44.985   8.787
 2297POPC   C2B31892   3.190  44.927   8.407
 2297POPC   C3B31893   3.059  44.955   7.983
 2297POPC   C4B31894   3.018   0.291   7.706
 2298POPC   NC331895   4.852  33.965   9.610
 2298POPC   PO431896   4.954  33.515   9.200
 2298POPC   GL131897   4.913  33.912   9.102
 2298POPC   GL231898   5.236  33.991   8.919
 2298POPC   C1A31899   4.749  34.079   8.742
 2298POPC   D2A31900   5.025  34.100   8.335
 2298POPC   C3A31901   4.956  33.929   7.909
 2298POPC   C4A31902   5.021  33.678   7.518
 2298POPC   C1B31903   5.488  34.214   8.626
 2298POPC   C2B31904   5.632  34.096   8.198
 2298POPC   C3B31905   5.486  33.874   7.840
 2298POPC   C4B31906   5.395  34.053   7.450
 2299POPC   NC331907  17.354   8.079   9.560
 2299POPC   PO431908  17.778   8.549   9.377
 2299POPC   GL131909  17.563   8.293   9.122
 2299POPC   GL231910  17.539   7.932   9.105
 2299POPC   C1A31911  17.378   8.300   8.740
 2299POPC   D2A31912  17.534   8.444   8.361
 2299POPC   C3A31913  17.328   8.220   8.068
 2299POPC   C4A31914  17.286   8.314   7.640
 2299POPC   C1B31915  17.783   7.987   8.731
 2299POPC   C2B31916  17.796   7.986   8.278
 2299POPC   C3B31917  17.702   7.965   7.827
 2299POPC   C4B31918  17.866   7.784   7.471
 2300POPC   NC331919   4.468   2.252   9.382
 2300POPC   PO431920   3.971   1.871   9.576
 2300POPC   GL131921   4.217   1.865   9.179
 2300POPC   GL231922   4.545   1.743   9.286
 2300POPC   C1A31923   4.246   1.965   8.748
 2300POPC   D2A31924   4.344   2.133   8.358
 2300POPC   C3A31925   4.184   1.944   7.991
 2300POPC   C4A31926   4.220   2.003   7.551
 2300POPC   C1B31927   4.633   1.640   8.855
 2300POPC   C2B31928   4.727   1.794   8.420
 2300POPC   C3B31929   4.671   1.747   7.975
 2300POPC   C4B31930   4.354   1.542   7.715
 2301POPC   NC331931  34.811  25.159   9.477
 2301POPC   PO431932  34.178  25.343   9.458
 2301POPC   GL131933  34.426  25.286   9.085
 2301POPC   GL231934  34.698  25.497   9.087
 2301POPC   C1A31935  34.455  25.138   8.644
 2301POPC   D2A31936  34.626  24.917   8.277
 2301POPC   C3A31937  34.530  25.101   7.902
 2301POPC   C4A31938  34.332  25.509   7.808
 2301POPC   C1B31939  34.806  25.504   8.639
 2301POPC   C2B31940  34.896  25.351   8.195
 2301POPC   C3B31941  34.857  25.537   7.774
 2301POPC   C4B31942  35.053  25.507   7.350
 2302POPC   NC331943   6.791   5.696   9.466
 2302POPC   PO431944   6.324   6.245   9.499
 2302POPC   GL131945   6.389   5.962   9.157
 2302POPC   GL231946   6.455   5.590   9.101
 2302POPC   C1A31947   6.546   6.028   8.759
 2302POPC   D2A31948   6.425   5.854   8.355
 2302POPC   C3A31949   6.357   6.136   8.010
 2302POPC   C4A31950   6.670   5.996   7.744
 2302POPC   C1B31951   6.864   5.658   8.832
 2302POPC   C2B31952   6.929   5.885   8.401
 2302POPC   C3B31953   7.032   5.748   7.974
 2302POPC   C4B31954   7.033   5.733   7.481
 2303POPC   NC331955  35.345  17.870   9.540
 2303POPC   PO431956  35.419  17.205   9.371
 2303POPC   GL131957  35.353  17.553   9.112
 2303POPC   GL231958  35.665  17.761   9.139
 2303POPC   C1A31959  35.229  17.424   8.714
 2303POPC   D2A31960  35.341  17.516   8.338
 2303POPC   C3A31961  35.189  17.292   8.037
 2303POPC   C4A31962  35.458  17.291   7.763
 2303POPC   C1B31963  35.585  17.813   8.699
 2303POPC   C2B31964  35.773  17.797   8.303
 2303POPC   C3B31965  35.642  17.740   7.898
 2303POPC   C4B31966  35.527  17.699   7.450
 2304POPC   NC331967   6.798   9.127   9.653
 2304POPC   PO431968   6.486   8.657   9.364
 2304POPC   GL131969   6.698   8.800   9.083
 2304POPC   GL231970   6.824   9.128   9.151
 2304POPC   C1A31971   6.475   8.918   8.708
 2304POPC   D2A31972   6.580   8.717   8.332
 2304POPC   C3A31973   6.373   8.888   7.997
 2304POPC   C4A31974   6.443   9.164   7.705
 2304POPC   C1B31975   6.959   9.052   8.749
 2304POPC   C2B31976   6.808   9.170   8.394
 2304POPC   C3B31977   6.859   9.083   8.004
 2304POPC   C4B31978   6.922   9.344   7.683
 2305POPC   NC331979   8.526   0.735   9.542
 2305POPC   PO431980   9.130   0.422   9.438
 2305POPC   GL131981   8.910   0.349   9.105
 2305POPC   GL231982   8.683   0.599   9.091
 2305POPC   C1A31983   9.037   0.478   8.717
 2305POPC   D2A31984   9.290   0.580   8.353
 2305POPC   C3A31985   9.455   0.300   8.079
 2305POPC   C4A31986   9.512   0.465   7.718
 2305POPC   C1B31987   8.613   0.776   8.732
 2305POPC   C2B31988   8.737   0.661   8.349
 2305POPC   C3B31989   8.948   0.783   8.015
 2305POPC   C4B31990   9.030   0.415   7.795
 2306POPC   NC331991   4.153  36.352   9.470
 2306POPC   PO431992   4.684  35.910   9.626
 2306POPC   GL131993   4.444  35.992   9.222
 2306POPC   GL231994   4.543  36.341   9.105
 2306POPC   C1A31995   4.280  36.063   8.782
 2306POPC   D2A31996   4.311  36.282   8.387
 2306POPC   C3A31997   4.134  36.066   8.013
 2306POPC   C4A31998   4.379  35.920   7.610
 2306POPC   C1B31999   4.723  36.506   8.708
 2306POPC   C2B32000   4.708  36.599   8.240
 2306POPC   C3B32001   4.583  36.320   7.898
 2306POPC   C4B32002   4.604  36.381   7.426
 2307POPC   NC332003  19.373  27.433   9.374
 2307POPC   PO432004  18.823  27.688   9.470
 2307POPC   GL132005  18.864  27.579   9.100
 2307POPC   GL232006  19.149  27.824   9.060
 2307POPC   C1A32007  18.703  27.310   8.763
 2307POPC   D2A32008  18.823  27.308   8.319
 2307POPC   C3A32009  18.889  27.281   7.849
 2307POPC   C4A32010  19.278  27.359   7.615
 2307POPC   C1B32011  18.977  27.735   8.642
 2307POPC   C2B32012  18.833  27.819   8.249
 2307POPC   C3B32013  19.031  27.786   7.839
 2307POPC   C4B32014  18.998  27.812   7.382
 2308POPC   NC332015   6.080  26.405   9.551
 2308POPC   PO432016   5.851  25.711   9.442
 2308POPC   GL132017   5.712  26.068   9.192
 2308POPC   GL232018   6.009  26.220   9.083
 2308POPC   C1A32019   5.595  26.137   8.764
 2308POPC   D2A32020   5.867  26.243   8.420
 2308POPC   C3A32021   5.662  26.139   8.011
 2308POPC   C4A32022   5.510  26.246   7.549
 2308POPC   C1B32023   6.180  25.902   8.818
 2308POPC   C2B32024   6.384  25.930   8.428
 2308POPC   C3B32025   6.183  26.051   8.055
 2308POPC   C4B32026   6.006  26.072   7.651
 2309POPC   NC332027  24.487  27.722   9.567
 2309POPC   PO432028  24.050  27.195   9.667
 2309POPC   GL132029  24.372  27.368   9.228
 2309POPC   GL232030  24.416  27.713   9.083
 2309POPC   C1A32031  24.520  27.360   8.745
 2309POPC   D2A32032  24.851  27.438   8.391
 2309POPC   C3A32033  24.736  27.628   7.973
 2309POPC   C4A32034  24.444  27.385   7.757
 2309POPC   C1B32035  24.309  27.865   8.714
 2309POPC   C2B32036  24.386  27.718   8.315
 2309POPC   C3B32037  24.199  27.846   7.910
 2309POPC   C4B32038  24.264  27.751   7.447
 2310POPC   NC332039   2.110  17.599   9.404
 2310POPC   PO432040   1.715  17.034   9.457
 2310POPC   GL132041   1.800  17.307   9.110
 2310POPC   GL232042   2.138  17.172   9.097
 2310POPC   C1A32043   1.726  17.601   8.733
 2310POPC   D2A32044   1.683  17.725   8.283
 2310POPC   C3A32045   1.829  17.485   7.948
 2310POPC   C4A32046   1.851  17.492   7.506
 2310POPC   C1B32047   2.198  17.380   8.710
 2310POPC   C2B32048   2.205  17.603   8.313
 2310POPC   C3B32049   2.316  17.405   7.921
 2310POPC   C4B32050   2.345  17.429   7.509
 2311POPC   NC332051  44.479  27.805   9.145
 2311POPC   PO432052  44.953  27.612   9.514
 2311POPC   GL132053  44.899  27.488   9.087
 2311POPC   GL232054  44.597  27.273   9.170
 2311POPC   C1A32055  44.858  27.754   8.661
 2311POPC   D2A32056  44.557  28.026   8.483
 2311POPC   C3A32057  44.577  27.988   8.046
 2311POPC   C4A32058  44.273  27.921   7.751
 2311POPC   C1B32059  44.608  27.287   8.711
 2311POPC   C2B32060  44.533  27.511   8.316
 2311POPC   C3B32061  44.623  27.479   7.878
 2311POPC   C4B32062  44.786  27.346   7.455
 2312POPC   NC332063  13.395  17.824   9.395
 2312POPC   PO432064  13.830  17.311   9.424
 2312POPC   GL132065  13.937  17.487   9.049
 2312POPC   GL232066  13.665  17.717   8.974
 2312POPC   C1A32067  14.093  17.434   8.626
 2312POPC   D2A32068  14.000  17.142   8.311
 2312POPC   C3A32069  14.040  17.304   7.955
 2312POPC   C4A32070  13.735  17.383   7.714
 2312POPC   C1B32071  13.604  17.385   8.670
 2312POPC   C2B32072  13.575  17.413   8.252
 2312POPC   C3B32073  13.207  17.466   8.096
 2312POPC   C4B32074  13.197  17.166   7.840
 2313POPC   NC332075  39.816  13.160   9.525
 2313POPC   PO432076  40.236  13.758   9.415
 2313POPC   GL132077  40.024  13.607   9.115
 2313POPC   GL232078  39.925  13.961   9.023
 2313POPC   C1A32079  40.093  13.588   8.699
 2313POPC   D2A32080  39.938  13.760   8.362
 2313POPC   C3A32081  40.202  13.737   8.056
 2313POPC   C4A32082  40.109  13.597   7.693
 2313POPC   C1B32083  40.032  14.189   8.656
 2313POPC   C2B32084  40.059  14.216   8.211
 2313POPC   C3B32085  39.757  14.072   7.976
 2313POPC   C4B32086  39.764  13.941   7.596
 2314POPC   NC332087  41.629  11.964   9.488
 2314POPC   PO432088  41.267  12.583   9.525
 2314POPC   GL132089  41.432  12.343   9.174
 2314POPC   GL232090  41.806  12.348   9.155
 2314POPC   C1A32091  41.499  12.322   8.717
 2314POPC   D2A32092  41.326  12.168   8.334
 2314POPC   C3A32093  41.563  12.212   7.962
 2314POPC   C4A32094  41.355  12.021   7.637
 2314POPC   C1B32095  41.856  11.990   8.850
 2314POPC   C2B32096  41.769  11.941   8.409
 2314POPC   C3B32097  41.976  11.872   8.042
 2314POPC   C4B32098  41.834  11.882   7.635
 2315POPC   NC332099  31.741  33.136   9.406
 2315POPC   PO432100  31.156  32.934   9.611
 2315POPC   GL132101  31.293  33.030   9.184
 2315POPC   GL232102  31.505  32.748   9.154
 2315POPC   C1A32103  31.184  33.115   8.764
 2315POPC   D2A32104  31.314  32.844   8.431
 2315POPC   C3A32105  31.159  32.906   8.044
 2315POPC   C4A32106  31.335  32.794   7.626
 2315POPC   C1B32107  31.676  33.005   8.776
 2315POPC   C2B32108  31.687  33.187   8.358
 2315POPC   C3B32109  31.669  33.022   7.953
 2315POPC   C4B32110  31.939  33.187   7.702
 2316POPC   NC332111   9.596  12.291   9.279
 2316POPC   PO432112   9.449  11.614   9.351
 2316POPC   GL132113   9.418  11.885   8.998
 2316POPC   GL232114   9.761  11.976   8.851
 2316POPC   C1A32115   9.328  12.209   8.703
 2316POPC   D2A32116   9.424  12.236   8.306
 2316POPC   C3A32117   9.467  11.839   8.111
 2316POPC   C4A32118   9.693  11.748   7.750
 2316POPC   C1B32119  10.131  12.225   8.706
 2316POPC   C2B32120  10.371  12.322   8.373
 2316POPC   C3B32121  10.320  12.105   8.037
 2316POPC   C4B32122  10.334  12.369   7.748
 2317POPC   NC332123  43.945  11.629   9.601
 2317POPC   PO432124  43.548  11.180   9.507
 2317POPC   GL132125  43.698  11.500   9.153
 2317POPC   GL232126  44.065  11.501   9.129
 2317POPC   C1A32127  43.768  11.512   8.690
 2317POPC   D2A32128  43.811  11.163   8.409
 2317POPC   C3A32129  43.888  11.257   8.005
 2317POPC   C4A32130  43.668  11.197   7.663
 2317POPC   C1B32131  44.291  11.465   8.748
 2317POPC   C2B32132  44.264  11.437   8.320
 2317POPC   C3B32133  44.334  11.516   7.893
 2317POPC   C4B32134  44.146  11.281   7.549
 2318POPC   NC332135   1.624  39.136   9.411
 2318POPC   PO432136   2.191  39.398   9.476
 2318POPC   GL132137   1.988  39.373   9.096
 2318POPC   GL232138   2.283  39.207   8.970
 2318POPC   C1A32139   1.733  39.178   8.768
 2318POPC   D2A32140   1.824  39.057   8.337
 2318POPC   C3A32141   1.675  39.228   7.947
 2318POPC   C4A32142   1.958  39.241   7.590
 2318POPC   C1B32143   2.255  38.877   8.676
 2318POPC   C2B32144   2.331  38.850   8.263
 2318POPC   C3B32145   2.343  39.060   7.892
 2318POPC   C4B32146   2.543  38.822   7.592
 2319POPC   NC332147  42.306  39.450   9.504
 2319POPC   PO432148  42.706  38.909   9.702
 2319POPC   GL132149  42.529  38.942   9.263
 2319POPC   GL232150  42.537  39.291   9.102
 2319POPC   C1A32151  42.551  38.912   8.787
 2319POPC   D2A32152  42.578  39.201   8.409
 2319POPC   C3A32153  42.422  39.081   7.982
 2319POPC   C4A32154  42.414  39.304   7.566
 2319POPC   C1B32155  42.208  39.294   8.796
 2319POPC   C2B32156  42.071  39.173   8.386
 2319POPC   C3B32157  41.976  39.347   8.016
 2319POPC   C4B32158  41.916  39.471   7.630
 2320POPC   NC332159  28.981   0.664   9.627
 2320POPC   PO432160  29.473   0.176   9.464
 2320POPC   GL132161  29.077   0.119   9.225
 2320POPC   GL232162  29.002   0.453   9.144
 2320POPC   C1A32163  28.907   0.125   8.774
 2320POPC   D2A32164  29.150   0.167   8.393
 2320POPC   C3A32165  29.120   0.464   8.070
 2320POPC   C4A32166  29.067   0.223   7.707
 2320POPC   C1B32167  29.310   0.457   8.783
 2320POPC   C2B32168  29.532   0.567   8.400
 2320POPC   C3B32169  29.614   0.448   7.970
 2320POPC   C4B32170  29.455   0.508   7.577
 2321POPC   NC332171   5.102   7.043   9.619
 2321POPC   PO432172   4.725   7.543   9.600
 2321POPC   GL132173   5.005   7.512   9.273
 2321POPC   GL232174   4.901   7.176   9.188
 2321POPC   C1A32175   4.986   7.691   8.866
 2321POPC   D2A32176   5.154   7.638   8.472
 2321POPC   C3A32177   4.954   7.612   8.096
 2321POPC   C4A32178   5.042   7.884   7.775
 2321POPC   C1B32179   5.180   7.233   8.850
 2321POPC   C2B32180   5.248   7.097   8.464
 2321POPC   C3B32181   5.220   7.161   8.052
 2321POPC   C4B32182   5.402   7.526   7.855
 2322POPC   NC332183  31.987  16.300   9.329
 2322POPC   PO432184  32.070  16.916   9.584
 2322POPC   GL132185  32.267  16.762   9.216
 2322POPC   GL232186  32.489  16.452   9.252
 2322POPC   C1A32187  32.158  16.670   8.804
 2322POPC   D2A32188  32.000  16.563   8.400
 2322POPC   C3A32189  31.989  16.853   8.119
 2322POPC   C4A32190  31.879  16.807   7.712
 2322POPC   C1B32191  32.604  16.415   8.820
 2322POPC   C2B32192  32.525  16.585   8.414
 2322POPC   C3B32193  32.417  16.627   7.988
 2322POPC   C4B32194  32.335  16.672   7.543
 2323POPC   NC332195  42.267  24.735   9.546
 2323POPC   PO432196  42.772  24.440   9.344
 2323POPC   GL132197  42.491  24.576   9.085
 2323POPC   GL232198  42.197  24.383   9.059
 2323POPC   C1A32199  42.542  24.423   8.677
 2323POPC   D2A32200  42.404  24.449   8.277
 2323POPC   C3A32201  42.652  24.632   7.961
 2323POPC   C4A32202  42.494  24.517   7.584
 2323POPC   C1B32203  42.100  24.668   8.708
 2323POPC   C2B32204  41.916  24.623   8.313
 2323POPC   C3B32205  42.060  24.551   7.896
 2323POPC   C4B32206  42.018  24.633   7.454
 2324POPC   NC332207  12.519   5.600   9.454
 2324POPC   PO432208  12.832   6.220   9.394
 2324POPC   GL132209  13.075   5.939   9.116
 2324POPC   GL232210  12.928   5.632   9.158
 2324POPC   C1A32211  13.159   5.766   8.728
 2324POPC   D2A32212  12.909   5.691   8.385
 2324POPC   C3A32213  13.079   5.750   7.982
 2324POPC   C4A32214  12.843   5.685   7.626
 2324POPC   C1B32215  12.642   5.837   8.823
 2324POPC   C2B32216  12.560   6.090   8.449
 2324POPC   C3B32217  12.653   6.040   8.025
 2324POPC   C4B32218  12.440   6.008   7.638
 2325POPC   NC332219  12.975  26.979   9.453
 2325POPC   PO432220  12.728  26.433   9.498
 2325POPC   GL132221  12.652  26.700   9.116
 2325POPC   GL232222  12.715  27.057   9.030
 2325POPC   C1A32223  12.855  26.698   8.703
 2325POPC   D2A32224  13.042  26.485   8.379
 2325POPC   C3A32225  12.838  26.684   8.063
 2325POPC   C4A32226  12.738  26.561   7.674
 2325POPC   C1B32227  12.736  27.254   8.627
 2325POPC   C2B32228  13.093  27.125   8.385
 2325POPC   C3B32229  13.222  27.005   7.970
 2325POPC   C4B32230  12.890  27.063   7.696
 2326POPC   NC332231  44.619  27.916   9.641
 2326POPC   PO432232  44.265  28.532   9.596
 2326POPC   GL132233  44.472  28.330   9.241
 2326POPC   GL232234  44.251  28.507   9.042
 2326POPC   C1A32235  44.741  28.384   8.848
 2326POPC   D2A32236   0.018  28.277   8.494
 2326POPC   C3A32237  44.873  28.451   8.105
 2326POPC   C4A32238  44.795  28.326   7.691
 2326POPC   C1B32239  44.287  28.472   8.603
 2326POPC   C2B32240  44.196  28.304   8.218
 2326POPC   C3B32241  44.316  28.418   7.839
 2326POPC   C4B32242  44.132  28.607   7.531
 2327POPC   NC332243  42.303  11.517   9.670
 2327POPC   PO432244  42.081  12.167   9.561
 2327POPC   GL132245  42.352  12.189   9.227
 2327POPC   GL232246  42.718  12.248   9.228
 2327POPC   C1A32247  42.273  12.283   8.844
 2327POPC   D2A32248  42.250  12.123   8.441
 2327POPC   C3A32249  42.070  12.373   8.108
 2327POPC   C4A32250  42.217  12.194   7.728
 2327POPC   C1B32251  42.718  12.011   8.800
 2327POPC   C2B32252  42.686  11.799   8.392
 2327POPC   C3B32253  42.606  11.901   7.943
 2327POPC   C4B32254  42.606  12.000   7.464
 2328POPC   NC332255  22.396   2.532   9.257
 2328POPC   PO432256  21.954   2.084   9.483
 2328POPC   GL132257  22.088   1.950   9.132
 2328POPC   GL232258  22.462   2.003   9.175
 2328POPC   C1A32259  22.060   2.122   8.747
 2328POPC   D2A32260  22.178   2.510   8.525
 2328POPC   C3A32261  22.177   2.329   8.125
 2328POPC   C4A32262  21.926   1.943   8.049
 2328POPC   C1B32263  22.436   1.767   8.789
 2328POPC   C2B32264  22.344   1.896   8.388
 2328POPC   C3B32265  22.407   1.788   7.990
 2328POPC   C4B32266  22.243   2.063   7.671
 2329POPC   NC332267  31.785  32.325   9.490
 2329POPC   PO432268  31.172  32.222   9.692
 2329POPC   GL132269  31.309  32.069   9.223
 2329POPC   GL232270  31.671  32.119   9.045
 2329POPC   C1A32271  31.268  32.165   8.745
 2329POPC   D2A32272  31.443  32.290   8.334
 2329POPC   C3A32273  31.246  32.141   7.980
 2329POPC   C4A32274  31.186  31.762   7.775
 2329POPC   C1B32275  31.642  32.506   8.745
 2329POPC   C2B32276  31.789  32.679   8.311
 2329POPC   C3B32277  31.679  32.471   7.875
 2329POPC   C4B32278  31.766  32.439   7.382
 2330POPC   NC332279  11.170   8.729   9.556
 2330POPC   PO432280  11.157   9.398   9.442
 2330POPC   GL132281  11.213   9.109   9.076
 2330POPC   GL232282  11.151   8.733   9.048
 2330POPC   C1A32283  11.215   9.026   8.617
 2330POPC   D2A32284  10.943   8.984   8.260
 2330POPC   C3A32285  11.186   9.072   7.931
 2330POPC   C4A32286  11.627   9.137   7.968
 2330POPC   C1B32287  11.592   8.788   8.881
 2330POPC   C2B32288  11.614   8.774   8.422
 2330POPC   C3B32289  11.363   8.610   8.088
 2330POPC   C4B32290  11.404   8.731   7.652
 2331POPC   NC332291  37.237  34.158   9.525
 2331POPC   PO432292  37.059  33.423   9.578
 2331POPC   GL132293  36.910  33.573   9.163
 2331POPC   GL232294  36.925  33.959   9.137
 2331POPC   C1A32295  36.744  33.699   8.731
 2331POPC   D2A32296  36.509  33.569   8.356
 2331POPC   C3A32297  36.687  33.722   7.966
 2331POPC   C4A32298  37.016  33.714   7.623
 2331POPC   C1B32299  36.996  34.142   8.718
 2331POPC   C2B32300  37.047  33.907   8.326
 2331POPC   C3B32301  37.198  34.068   7.946
 2331POPC   C4B32302  37.249  34.133   7.444
 2332POPC   NC332303  18.244   5.452   9.335
 2332POPC   PO432304  18.624   5.930   9.731
 2332POPC   GL132305  18.350   5.944   9.261
 2332POPC   GL232306  17.998   5.887   9.195
 2332POPC   C1A32307  18.339   5.811   8.791
 2332POPC   D2A32308  18.550   5.630   8.432
 2332POPC   C3A32309  18.384   5.806   8.075
 2332POPC   C4A32310  18.430   5.704   7.657
 2332POPC   C1B32311  17.899   6.117   8.791
 2332POPC   C2B32312  17.991   6.054   8.331
 2332POPC   C3B32313  17.949   5.992   7.849
 2332POPC   C4B32314  18.035   5.981   7.378
 2333POPC   NC332315   4.800   6.423   9.780
 2333POPC   PO432316   5.446   6.720   9.565
 2333POPC   GL132317   5.272   6.758   9.150
 2333POPC   GL232318   4.945   6.635   9.230
 2333POPC   C1A32319   5.405   6.670   8.690
 2333POPC   D2A32320   5.401   6.674   8.215
 2333POPC   C3A32321   5.136   6.651   7.863
 2333POPC   C4A32322   4.841   6.334   7.684
 2333POPC   C1B32323   4.892   6.820   8.805
 2333POPC   C2B32324   4.863   6.747   8.359
 2333POPC   C3B32325   4.644   6.716   7.968
 2333POPC   C4B32326   4.860   7.037   7.679
 2334POPC   NC332327  33.546  11.782   9.388
 2334POPC   PO432328  33.986  12.255   9.618
 2334POPC   GL132329  33.722  12.226   9.234
 2334POPC   GL232330  33.794  11.907   8.973
 2334POPC   C1A32331  33.583  12.343   8.846
 2334POPC   D2A32332  33.898  12.368   8.529
 2334POPC   C3A32333  33.870  12.199   8.119
 2334POPC   C4A32334  34.070  12.397   7.785
 2334POPC   C1B32335  33.607  11.932   8.539
 2334POPC   C2B32336  33.370  12.144   8.254
 2334POPC   C3B32337  33.411  12.049   7.886
 2334POPC   C4B32338  33.691  11.991   7.650
 2335POPC   NC332339   4.285  29.429   9.600
 2335POPC   PO432340   4.194  28.741   9.391
 2335POPC   GL132341   4.476  28.849   9.087
 2335POPC   GL232342   4.522  29.225   9.101
 2335POPC   C1A32343   4.357  28.888   8.654
 2335POPC   D2A32344   4.172  28.788   8.248
 2335POPC   C3A32345   4.409  28.894   7.880
 2335POPC   C4A32346   4.708  29.230   7.809
 2335POPC   C1B32347   4.530  29.565   8.758
 2335POPC   C2B32348   4.158  29.703   8.501
 2335POPC   C3B32349   4.129  29.568   8.077
 2335POPC   C4B32350   4.221  29.371   7.709
 2336POPC   NC332351  34.133  42.866   9.487
 2336POPC   PO432352  33.485  43.115   9.609
 2336POPC   GL132353  33.740  43.258   9.280
 2336POPC   GL232354  33.824  42.955   9.089
 2336POPC   C1A32355  33.642  43.358   8.831
 2336POPC   D2A32356  33.768  43.013   8.536
 2336POPC   C3A32357  33.804  43.107   8.116
 2336POPC   C4A32358  33.605  43.043   7.739
 2336POPC   C1B32359  34.129  43.163   8.855
 2336POPC   C2B32360  34.205  43.279   8.414
 2336POPC   C3B32361  34.322  43.140   8.025
 2336POPC   C4B32362  34.065  43.254   7.707
 2337POPC   NC332363  22.936   1.725   9.503
 2337POPC   PO432364  22.745   2.324   9.490
 2337POPC   GL132365  22.985   2.108   9.140
 2337POPC   GL232366  23.143   1.774   9.057
 2337POPC   C1A32367  22.874   2.028   8.707
 2337POPC   D2A32368  22.848   1.860   8.295
 2337POPC   C3A32369  22.743   2.182   7.982
 2337POPC   C4A32370  22.935   2.319   7.581
 2337POPC   C1B32371  23.378   1.890   8.676
 2337POPC   C2B32372  23.366   1.795   8.218
 2337POPC   C3B32373  23.149   1.905   7.828
 2337POPC   C4B32374  23.167   1.901   7.356
 2338POPC   NC332375  14.754  34.517   9.333
 2338POPC   PO432376  15.426  34.240   9.431
 2338POPC   GL132377  15.206  34.502   9.109
 2338POPC   GL232378  15.265  34.873   9.169
 2338POPC   C1A32379  15.064  34.682   8.730
 2338POPC   D2A32380  14.891  34.508   8.368
 2338POPC   C3A32381  15.181  34.238   8.155
 2338POPC   C4A32382  15.283  34.336   7.714
 2338POPC   C1B32383  15.429  35.082   8.799
 2338POPC   C2B32384  15.402  35.061   8.335
 2338POPC   C3B32385  15.188  34.777   8.009
 2338POPC   C4B32386  15.170  34.806   7.535
 2339POPC   NC332387  26.467  27.276   9.197
 2339POPC   PO432388  26.321  27.829   9.551
 2339POPC   GL132389  26.632  27.774   9.156
 2339POPC   GL232390  26.962  27.661   9.062
 2339POPC   C1A32391  26.589  27.632   8.690
 2339POPC   D2A32392  26.506  27.517   8.250
 2339POPC   C3A32393  26.638  27.769   7.929
 2339POPC   C4A32394  27.056  27.876   7.865
 2339POPC   C1B32395  27.054  27.483   8.607
 2339POPC   C2B32396  27.018  27.463   8.157
 2339POPC   C3B32397  26.776  27.285   7.810
 2339POPC   C4B32398  26.852  27.284   7.342
 2340POPC   NC332399  23.467  38.117   9.554
 2340POPC   PO432400  23.727  38.832   9.567
 2340POPC   GL132401  23.830  38.616   9.181
 2340POPC   GL232402  23.569  38.366   9.142
 2340POPC   C1A32403  23.739  38.542   8.725
 2340POPC   D2A32404  23.555  38.494   8.320
 2340POPC   C3A32405  23.785  38.484   7.917
 2340POPC   C4A32406  23.779  38.764   7.532
 2340POPC   C1B32407  23.481  38.085   8.790
 2340POPC   C2B32408  23.586  37.983   8.351
 2340POPC   C3B32409  23.425  38.090   7.963
 2340POPC   C4B32410  23.488  38.224   7.544
 2341POPC   NC332411  28.832  35.299   9.654
 2341POPC   PO432412  28.192  35.483   9.449
 2341POPC   GL132413  28.372  35.302   9.109
 2341POPC   GL232414  28.682  35.114   9.192
 2341POPC   C1A32415  28.335  35.451   8.705
 2341POPC   D2A32416  28.209  35.724   8.369
 2341POPC   C3A32417  28.294  35.523   7.983
 2341POPC   C4A32418  28.017  35.309   7.738
 2341POPC   C1B32419  28.841  35.393   8.833
 2341POPC   C2B32420  28.736  35.695   8.482
 2341POPC   C3B32421  28.795  35.544   8.070
 2341POPC   C4B32422  28.695  35.215   7.805
 2342POPC   NC332423  44.102  24.771   9.556
 2342POPC   PO432424  43.652  24.219   9.468
 2342POPC   GL132425  43.820  24.362   9.119
 2342POPC   GL232426  43.837  24.639   9.088
 2342POPC   C1A32427  43.578  24.397   8.721
 2342POPC   D2A32428  43.608  24.120   8.361
 2342POPC   C3A32429  43.715  24.359   8.014
 2342POPC   C4A32430  43.479  24.381   7.665
 2342POPC   C1B32431  43.821  24.911   8.716
 2342POPC   C2B32432  43.820  25.087   8.297
 2342POPC   C3B32433  43.680  24.875   7.891
 2342POPC   C4B32434  43.927  24.621   7.564
 2343POPC   NC332435  27.400  34.229   9.559
 2343POPC   PO432436  27.538  34.931   9.599
 2343POPC   GL132437  27.490  34.920   9.132
 2343POPC   GL232438  27.699  34.614   9.134
 2343POPC   C1A32439  27.786  34.976   8.749
 2343POPC   D2A32440  27.988  34.889   8.358
 2343POPC   C3A32441  27.817  34.850   7.911
 2343POPC   C4A32442  27.855  34.924   7.455
 2343POPC   C1B32443  27.452  34.611   8.722
 2343POPC   C2B32444  27.602  34.489   8.332
 2343POPC   C3B32445  27.450  34.511   7.925
 2343POPC   C4B32446  27.762  34.410   7.572
 2344POPC   NC332447  36.318   9.080   9.646
 2344POPC   PO432448  36.974   8.969   9.747
 2344POPC   GL132449  36.806   9.046   9.291
 2344POPC   GL232450  36.810   8.743   9.046
 2344POPC   C1A32451  36.901   9.230   8.868
 2344POPC   D2A32452  36.713   9.295   8.448
 2344POPC   C3A32453  36.828   9.058   8.086
 2344POPC   C4A32454  37.042   9.331   7.765
 2344POPC   C1B32455  36.739   8.471   8.684
 2344POPC   C2B32456  36.864   8.523   8.294
 2344POPC   C3B32457  36.647   8.528   7.913
 2344POPC   C4B32458  36.753   8.816   7.616
 2345POPC   NC332459  14.065   2.891   9.460
 2345POPC   PO432460  13.450   2.755   9.600
 2345POPC   GL132461  13.481   2.913   9.184
 2345POPC   GL232462  13.705   3.200   9.204
 2345POPC   C1A32463  13.383   2.750   8.761
 2345POPC   D2A32464  13.492   2.626   8.342
 2345POPC   C3A32465  13.359   2.823   7.965
 2345POPC   C4A32466  13.551   2.794   7.547
 2345POPC   C1B32467  13.815   3.018   8.785
 2345POPC   C2B32468  13.708   3.081   8.335
 2345POPC   C3B32469  13.860   2.969   7.909
 2345POPC   C4B32470  13.843   3.195   7.515
 2346POPC   NC332471  26.383   8.417   9.568
 2346POPC   PO432472  27.037   8.176   9.509
 2346POPC   GL132473  26.817   8.312   9.186
 2346POPC   GL232474  27.088   8.426   9.057
 2346POPC   C1A32475  26.646   8.449   8.792
 2346POPC   D2A32476  26.412   8.356   8.414
 2346POPC   C3A32477  26.669   8.376   8.058
 2346POPC   C4A32478  26.576   8.313   7.648
 2346POPC   C1B32479  27.278   8.372   8.729
 2346POPC   C2B32480  27.036   8.453   8.421
 2346POPC   C3B32481  27.220   8.428   8.065
 2346POPC   C4B32482  27.066   8.406   7.686
 2347POPC   NC332483  20.184  24.726   9.402
 2347POPC   PO432484  20.855  24.595   9.414
 2347POPC   GL132485  20.576  24.614   9.085
 2347POPC   GL232486  20.773  24.378   8.903
 2347POPC   C1A32487  20.293  24.509   8.747
 2347POPC   D2A32488  20.491  24.560   8.341
 2347POPC   C3A32489  20.264  24.481   7.938
 2347POPC   C4A32490  20.329  24.522   7.484
 2347POPC   C1B32491  20.985  24.734   8.747
 2347POPC   C2B32492  21.118  24.722   8.340
 2347POPC   C3B32493  20.927  24.415   8.082
 2347POPC   C4B32494  20.753  24.298   7.686
 2348POPC   NC332495  13.533  31.913   9.517
 2348POPC   PO432496  13.827  31.220   9.431
 2348POPC   GL132497  13.603  31.238   9.034
 2348POPC   GL232498  13.412  31.487   9.207
 2348POPC   C1A32499  13.599  31.282   8.551
 2348POPC   D2A32500  13.771  31.681   8.299
 2348POPC   C3A32501  13.613  31.651   7.912
 2348POPC   C4A32502  13.367  31.263   7.845
 2348POPC   C1B32503  13.358  31.655   8.805
 2348POPC   C2B32504  13.251  31.627   8.367
 2348POPC   C3B32505  13.049  31.742   7.994
 2348POPC   C4B32506  13.213  31.688   7.590
 2349POPC   NC332507   3.983  16.495   9.575
 2349POPC   PO432508   3.974  15.836   9.562
 2349POPC   GL132509   4.185  15.656   9.248
 2349POPC   GL232510   3.987  15.869   9.044
 2349POPC   C1A32511   4.455  15.758   8.904
 2349POPC   D2A32512   4.293  15.717   8.515
 2349POPC   C3A32513   4.509  15.796   8.152
 2349POPC   C4A32514   4.403  15.806   7.733
 2349POPC   C1B32515   4.185  16.190   8.775
 2349POPC   C2B32516   4.291  16.267   8.350
 2349POPC   C3B32517   4.135  16.184   7.945
 2349POPC   C4B32518   4.062  16.422   7.562
 2350POPC   NC332519  16.879   9.822   9.679
 2350POPC   PO432520  16.282   9.644   9.836
 2350POPC   GL132521  16.468   9.709   9.348
 2350POPC   GL232522  16.523  10.045   9.263
 2350POPC   C1A32523  16.611   9.619   8.878
 2350POPC   D2A32524  16.550   9.757   8.419
 2350POPC   C3A32525  16.640   9.559   7.998
 2350POPC   C4A32526  16.536   9.833   7.644
 2350POPC   C1B32527  16.577  10.119   8.810
 2350POPC   C2B32528  16.821  10.216   8.409
 2350POPC   C3B32529  16.935   9.977   8.051
 2350POPC   C4B32530  17.030   9.933   7.606
 2351POPC   NC332531  17.297   3.201   9.563
 2351POPC   PO432532  17.720   3.760   9.538
 2351POPC   GL132533  17.676   3.548   9.153
 2351POPC   GL232534  17.340   3.629   9.132
 2351POPC   C1A32535  17.725   3.769   8.717
 2351POPC   D2A32536  17.607   3.594   8.339
 2351POPC   C3A32537  17.810   3.391   8.049
 2351POPC   C4A32538  17.727   3.559   7.685
 2351POPC   C1B32539  17.422   3.358   8.741
 2351POPC   C2B32540  17.219   3.272   8.339
 2351POPC   C3B32541  17.316   3.343   7.915
 2351POPC   C4B32542  17.488   3.127   7.563
 2352POPC   NC332543  26.252  29.634   9.873
 2352POPC   PO432544  26.085  30.179   9.620
 2352POPC   GL132545  26.116  29.886   9.295
 2352POPC   GL232546  26.111  30.192   9.115
 2352POPC   C1A32547  26.056  29.773   8.841
 2352POPC   D2A32548  25.789  29.825   8.475
 2352POPC   C3A32549  26.064  29.777   8.122
 2352POPC   C4A32550  26.045  29.955   7.735
 2352POPC   C1B32551  26.245  30.232   8.723
 2352POPC   C2B32552  26.067  30.258   8.304
 2352POPC   C3B32553  26.131  30.431   7.877
 2352POPC   C4B32554  26.192  30.298   7.391
 2353POPC   NC332555   2.087   3.308   9.286
 2353POPC   PO432556   1.845   2.715   9.546
 2353POPC   GL132557   1.948   2.594   9.134
 2353POPC   GL232558   1.653   2.391   9.082
 2353POPC   C1A32559   2.118   2.737   8.732
 2353POPC   D2A32560   2.085   3.042   8.411
 2353POPC   C3A32561   2.016   2.862   8.005
 2353POPC   C4A32562   1.770   3.096   7.736
 2353POPC   C1B32563   1.675   2.128   8.742
 2353POPC   C2B32564   1.699   2.277   8.325
 2353POPC   C3B32565   1.510   2.604   8.065
 2353POPC   C4B32566   1.521   2.683   7.613
 2354POPC   NC332567   3.226  10.090   9.351
 2354POPC   PO432568   2.816   9.709   9.684
 2354POPC   GL132569   2.789   9.746   9.216
 2354POPC   GL232570   2.833   9.372   9.190
 2354POPC   C1A32571   2.850   9.909   8.759
 2354POPC   D2A32572   2.912   9.665   8.334
 2354POPC   C3A32573   2.997   9.820   7.892
 2354POPC   C4A32574   2.832   9.838   7.464
 2354POPC   C1B32575   2.654   9.443   8.782
 2354POPC   C2B32576   2.444   9.431   8.386
 2354POPC   C3B32577   2.322   9.581   8.003
 2354POPC   C4B32578   2.533   9.446   7.654
 2355POPC   NC332579  43.771   1.521   9.214
 2355POPC   PO432580  43.505   0.981   9.532
 2355POPC   GL132581  43.885   0.984   9.269
 2355POPC   GL232582  43.662   1.060   9.022
 2355POPC   C1A32583  44.107   1.073   8.831
 2355POPC   D2A32584  43.875   1.026   8.472
 2355POPC   C3A32585  43.976   1.141   8.052
 2355POPC   C4A32586  43.849   0.935   7.684
 2355POPC   C1B32587  43.481   1.290   8.693
 2355POPC   C2B32588  43.552   1.411   8.257
 2355POPC   C3B32589  43.540   1.317   7.808
 2355POPC   C4B32590  43.573   1.180   7.338
 2356POPC   NC332591  39.180   9.193   9.809
 2356POPC   PO432592  39.355   8.730   9.453
 2356POPC   GL132593  39.212   8.767   9.036
 2356POPC   GL232594  39.080   9.115   9.130
 2356POPC   C1A32595  38.995   8.874   8.653
 2356POPC   D2A32596  38.975   9.244   8.393
 2356POPC   C3A32597  39.021   9.143   7.962
 2356POPC   C4A32598  39.115   8.757   7.762
 2356POPC   C1B32599  39.343   9.224   8.779
 2356POPC   C2B32600  39.465   9.366   8.358
 2356POPC   C3B32601  39.439   9.439   7.936
 2356POPC   C4B32602  39.528   9.089   7.677
 2357POPC   NC332603   9.867  26.367   9.291
 2357POPC   PO432604   9.572  26.983   9.523
 2357POPC   GL132605   9.708  27.082   9.060
 2357POPC   GL232606   9.905  26.793   8.872
 2357POPC   C1A32607   9.627  27.068   8.573
 2357POPC   D2A32608   9.879  26.718   8.358
 2357POPC   C3A32609   9.877  26.729   7.904
 2357POPC   C4A32610   9.594  27.040   7.639
 2357POPC   C1B32611   9.475  26.657   8.834
 2357POPC   C2B32612   9.338  26.590   8.416
 2357POPC   C3B32613   9.396  26.762   8.043
 2357POPC   C4B32614   9.458  26.549   7.664
 2358POPC   NC332615  30.621  21.707   9.868
 2358POPC   PO432616  30.725  21.225   9.450
 2358POPC   GL132617  30.693  21.334   9.033
 2358POPC   GL232618  30.716  21.677   9.100
 2358POPC   C1A32619  30.892  21.471   8.640
 2358POPC   D2A32620  31.095  21.687   8.278
 2358POPC   C3A32621  30.960  21.562   7.853
 2358POPC   C4A32622  30.650  21.306   7.651
 2358POPC   C1B32623  30.440  21.668   8.719
 2358POPC   C2B32624  30.568  21.659   8.269
 2358POPC   C3B32625  30.432  21.735   7.861
 2358POPC   C4B32626  30.266  21.595   7.460
 2359POPC   NC332627  12.995  28.608   9.284
 2359POPC   PO432628  12.637  28.097   9.474
 2359POPC   GL132629  12.754  28.123   9.053
 2359POPC   GL232630  13.080  28.019   8.987
 2359POPC   C1A32631  12.584  28.311   8.678
 2359POPC   D2A32632  12.396  28.143   8.293
 2359POPC   C3A32633  12.495  28.357   7.897
 2359POPC   C4A32634  12.840  28.527   7.638
 2359POPC   C1B32635  13.088  28.355   8.659
 2359POPC   C2B32636  12.863  28.378   8.261
 2359POPC   C3B32637  12.942  28.109   7.925
 2359POPC   C4B32638  13.299  27.885   7.816
 2360POPC   NC332639  19.951  19.714   9.567
 2360POPC   PO432640  19.934  20.339   9.832
 2360POPC   GL132641  19.949  20.167   9.293
 2360POPC   GL232642  20.075  19.871   9.097
 2360POPC   C1A32643  19.722  20.126   8.856
 2360POPC   D2A32644  19.928  19.874   8.534
 2360POPC   C3A32645  19.857  19.951   8.086
 2360POPC   C4A32646  19.590  19.854   7.738
 2360POPC   C1B32647  19.763  19.551   8.924
 2360POPC   C2B32648  19.696  19.404   8.497
 2360POPC   C3B32649  19.779  19.391   8.046
 2360POPC   C4B32650  19.628  19.359   7.630
 2361POPC   NC332651  26.733  31.077   9.334
 2361POPC   PO432652  26.747  31.608   9.618
 2361POPC   GL132653  26.745  31.522   9.098
 2361POPC   GL232654  26.601  31.194   8.869
 2361POPC   C1A32655  26.884  31.536   8.634
 2361POPC   D2A32656  26.562  31.464   8.307
 2361POPC   C3A32657  26.595  31.634   7.879
 2361POPC   C4A32658  26.687  31.437   7.455
 2361POPC   C1B32659  26.993  31.039   8.614
 2361POPC   C2B32660  27.083  31.043   8.172
 2361POPC   C3B32661  26.765  31.147   7.883
 2361POPC   C4B32662  26.494  30.981   7.562
 2362POPC   NC332663  26.100  37.980   9.442
 2362POPC   PO432664  25.938  37.299   9.500
 2362POPC   GL132665  25.906  37.573   9.166
 2362POPC   GL232666  26.262  37.536   9.165
 2362POPC   C1A32667  26.026  37.854   8.808
 2362POPC   D2A32668  26.334  38.039   8.524
 2362POPC   C3A32669  26.137  37.971   8.149
 2362POPC   C4A32670  26.029  37.787   7.782
 2362POPC   C1B32671  26.270  37.384   8.737
 2362POPC   C2B32672  26.379  37.538   8.312
 2362POPC   C3B32673  26.306  37.353   7.883
 2362POPC   C4B32674  25.882  37.298   7.684
 2363POPC   NC332675  25.008   7.270   9.472
 2363POPC   PO432676  25.506   7.693   9.441
 2363POPC   GL132677  25.282   7.533   9.108
 2363POPC   GL232678  24.978   7.501   9.024
 2363POPC   C1A32679  25.398   7.281   8.781
 2363POPC   D2A32680  25.306   7.213   8.378
 2363POPC   C3A32681  25.380   7.559   8.158
 2363POPC   C4A32682  25.352   7.530   7.749
 2363POPC   C1B32683  24.920   7.133   8.783
 2363POPC   C2B32684  24.774   7.146   8.375
 2363POPC   C3B32685  24.949   7.252   7.993
 2363POPC   C4B32686  24.867   7.036   7.631
 2364POPC   NC332687   2.973   2.642   9.470
 2364POPC   PO432688   2.475   3.113   9.471
 2364POPC   GL132689   2.395   2.947   9.097
 2364POPC   GL232690   2.507   2.600   9.154
 2364POPC   C1A32691   2.483   3.175   8.709
 2364POPC   D2A32692   2.880   3.258   8.498
 2364POPC   C3A32693   2.902   3.077   8.084
 2364POPC   C4A32694   2.669   3.298   7.780
 2364POPC   C1B32695   2.784   2.777   8.822
 2364POPC   C2B32696   2.573   2.733   8.442
 2364POPC   C3B32697   2.627   2.580   8.045
 2364POPC   C4B32698   2.482   2.831   7.710
 2365POPC   NC332699  43.645  36.587   9.455
 2365POPC   PO432700  43.828  37.147   9.408
 2365POPC   GL132701  43.633  36.982   9.098
 2365POPC   GL232702  43.881  36.743   9.041
 2365POPC   C1A32703  43.611  37.026   8.686
 2365POPC   D2A32704  43.787  36.727   8.429
 2365POPC   C3A32705  43.746  36.933   8.036
 2365POPC   C4A32706  43.633  36.854   7.629
 2365POPC   C1B32707  44.124  37.001   8.780
 2365POPC   C2B32708  44.113  37.122   8.372
 2365POPC   C3B32709  44.267  37.019   7.988
 2365POPC   C4B32710  44.176  37.170   7.611
 2366POPC   NC332711  40.567   9.459   9.389
 2366POPC   PO432712  40.757  10.081   9.603
 2366POPC   GL132713  40.733   9.912   9.207
 2366POPC   GL232714  40.380   9.933   9.164
 2366POPC   C1A32715  40.745   9.759   8.794
 2366POPC   D2A32716  40.888   9.560   8.419
 2366POPC   C3A32717  40.756   9.656   8.014
 2366POPC   C4A32718  40.814   9.358   7.691
 2366POPC   C1B32719  40.492  10.206   8.829
 2366POPC   C2B32720  40.655  10.128   8.440
 2366POPC   C3B32721  40.571  10.293   8.052
 2366POPC   C4B32722  40.716  10.061   7.704
 2367POPC   NC332723  36.611  43.066   9.554
 2367POPC   PO432724  37.268  43.217   9.457
 2367POPC   GL132725  36.932  43.050   9.104
 2367POPC   GL232726  36.555  42.916   9.050
 2367POPC   C1A32727  36.905  42.800   8.691
 2367POPC   D2A32728  36.946  42.621   8.275
 2367POPC   C3A32729  37.122  42.954   7.997
 2367POPC   C4A32730  37.193  43.345   7.739
 2367POPC   C1B32731  36.565  43.233   8.695
 2367POPC   C2B32732  36.702  43.257   8.236
 2367POPC   C3B32733  36.696  43.153   7.788
 2367POPC   C4B32734  36.554  42.882   7.414
 2368POPC   NC332735  12.487  19.091   9.614
 2368POPC   PO432736  11.849  18.795   9.554
 2368POPC   GL132737  11.827  19.012   9.160
 2368POPC   GL232738  12.121  19.215   9.213
 2368POPC   C1A32739  12.081  19.021   8.751
 2368POPC   D2A32740  12.358  19.121   8.395
 2368POPC   C3A32741  12.204  19.015   7.981
 2368POPC   C4A32742  11.808  18.852   7.881
 2368POPC   C1B32743  12.295  19.475   8.861
 2368POPC   C2B32744  12.074  19.676   8.496
 2368POPC   C3B32745  12.063  19.488   8.093
 2368POPC   C4B32746  12.401  19.535   7.821
 2369POPC   NC332747  27.041  37.643   9.487
 2369POPC   PO432748  26.532  38.100   9.338
 2369POPC   GL132749  26.727  37.724   9.093
 2369POPC   GL232750  27.077  37.729   8.997
 2369POPC   C1A32751  26.761  37.527   8.670
 2369POPC   D2A32752  26.869  37.760   8.306
 2369POPC   C3A32753  26.600  37.782   7.922
 2369POPC   C4A32754  26.471  37.947   7.515
 2369POPC   C1B32755  27.275  37.620   8.641
 2369POPC   C2B32756  27.270  37.389   8.268
 2369POPC   C3B32757  26.892  37.332   8.042
 2369POPC   C4B32758  26.773  37.401   7.634
 2370POPC   NC332759  25.857   6.271   9.545
 2370POPC   PO432760  26.141   6.922   9.482
 2370POPC   GL132761  26.233   6.739   9.092
 2370POPC   GL232762  26.030   6.473   9.116
 2370POPC   C1A32763  26.300   6.829   8.664
 2370POPC   D2A32764  26.163   6.708   8.259
 2370POPC   C3A32765  26.219   6.997   7.911
 2370POPC   C4A32766  26.184   6.924   7.446
 2370POPC   C1B32767  26.177   6.351   8.727
 2370POPC   C2B32768  26.105   6.187   8.333
 2370POPC   C3B32769  26.176   6.295   7.936
 2370POPC   C4B32770  26.048   6.411   7.555
 2371POPC   NC332771  17.296  18.446   9.353
 2371POPC   PO432772  17.544  17.817   9.530
 2371POPC   GL132773  17.516  18.013   9.129
 2371POPC   GL232774  17.676  18.318   8.999
 2371POPC   C1A32775  17.340  18.064   8.725
 2371POPC   D2A32776  17.213  18.193   8.318
 2371POPC   C3A32777  17.328  18.004   7.926
 2371POPC   C4A32778  17.290  18.371   7.760
 2371POPC   C1B32779  17.493  18.550   8.630
 2371POPC   C2B32780  17.496  18.617   8.153
 2371POPC   C3B32781  17.753  18.562   7.753
 2371POPC   C4B32782  17.876  18.580   7.292
 2372POPC   NC332783  18.997   0.158   9.318
 2372POPC   PO432784  18.661   0.672   9.557
 2372POPC   GL132785  18.852   0.635   9.133
 2372POPC   GL232786  19.230   0.540   9.101
 2372POPC   C1A32787  18.882   0.441   8.705
 2372POPC   D2A32788  18.820   0.592   8.288
 2372POPC   C3A32789  19.071   0.348   8.007
 2372POPC   C4A32790  19.022   0.112   7.620
 2372POPC   C1B32791  19.345   0.642   8.683
 2372POPC   C2B32792  19.277   0.902   8.322
 2372POPC   C3B32793  19.314   0.786   7.887
 2372POPC   C4B32794  19.114   0.608   7.531
 2373POPC   NC332795   1.655  25.095   9.320
 2373POPC   PO432796   1.064  25.198   9.614
 2373POPC   GL132797   1.075  25.146   9.176
 2373POPC   GL232798   1.206  25.465   9.092
 2373POPC   C1A32799   1.007  25.219   8.713
 2373POPC   D2A32800   1.201  25.128   8.340
 2373POPC   C3A32801   1.050  25.327   8.007
 2373POPC   C4A32802   1.212  25.196   7.642
 2373POPC   C1B32803   1.451  25.472   8.708
 2373POPC   C2B32804   1.357  25.637   8.313
 2373POPC   C3B32805   1.518  25.522   7.939
 2373POPC   C4B32806   1.689  25.470   7.564
 2374POPC   NC332807  31.320  12.373   9.331
 2374POPC   PO432808  31.668  11.808   9.487
 2374POPC   GL132809  31.671  12.040   9.133
 2374POPC   GL232810  31.941  11.870   9.045
 2374POPC   C1A32811  31.668  12.299   8.777
 2374POPC   D2A32812  31.476  12.323   8.396
 2374POPC   C3A32813  31.463  12.148   7.999
 2374POPC   C4A32814  31.397  12.307   7.618
 2374POPC   C1B32815  31.895  11.851   8.648
 2374POPC   C2B32816  31.703  11.840   8.312
 2374POPC   C3B32817  31.671  11.633   7.952
 2374POPC   C4B32818  31.681  11.865   7.609
 2375POPC   NC332819  22.628  11.771   9.565
 2375POPC   PO432820  23.124  11.330   9.517
 2375POPC   GL132821  22.859  11.426   9.210
 2375POPC   GL232822  22.952  11.072   9.106
 2375POPC   C1A32823  22.665  11.358   8.827
 2375POPC   D2A32824  22.723  11.098   8.503
 2375POPC   C3A32825  22.874  11.342   8.176
 2375POPC   C4A32826  22.827  11.145   7.820
 2375POPC   C1B32827  23.233  10.888   8.784
 2375POPC   C2B32828  23.223  11.052   8.380
 2375POPC   C3B32829  23.338  11.176   7.970
 2375POPC   C4B32830  23.271  10.889   7.635
 2376POPC   NC332831   1.066  34.835   9.641
 2376POPC   PO432832   1.010  35.519   9.536
 2376POPC   GL132833   0.938  35.506   9.118
 2376POPC   GL232834   0.623  35.637   9.035
 2376POPC   C1A32835   1.213  35.367   8.778
 2376POPC   D2A32836   1.394  35.100   8.467
 2376POPC   C3A32837   1.370  35.279   8.048
 2376POPC   C4A32838   1.527  35.223   7.638
 2376POPC   C1B32839   0.711  35.389   8.681
 2376POPC   C2B32840   0.920  35.251   8.295
 2376POPC   C3B32841   0.905  35.441   7.882
 2376POPC   C4B32842   0.800  35.880   7.801
 2377POPC   NC332843  22.117  28.720   9.428
 2377POPC   PO432844  22.763  28.507   9.508
 2377POPC   GL132845  22.475  28.308   9.181
 2377POPC   GL232846  22.373  28.596   9.009
 2377POPC   C1A32847  22.132  28.164   8.868
 2377POPC   D2A32848  21.832  28.429   8.567
 2377POPC   C3A32849  21.967  28.520   8.118
 2377POPC   C4A32850  21.911  28.260   7.732
 2377POPC   C1B32851  22.326  28.518   8.578
 2377POPC   C2B32852  22.359  28.206   8.271
 2377POPC   C3B32853  22.426  28.372   7.871
 2377POPC   C4B32854  22.343  28.818   7.906
 2378POPC   NC332855  32.245   7.785   9.548
 2378POPC   PO432856  32.770   7.295   9.471
 2378POPC   GL132857  32.584   7.618   9.161
 2378POPC   GL232858  32.184   7.620   9.094
 2378POPC   C1A32859  32.496   7.469   8.720
 2378POPC   D2A32860  32.262   7.537   8.331
 2378POPC   C3A32861  32.468   7.336   7.975
 2378POPC   C4A32862  32.668   7.332   7.586
 2378POPC   C1B32863  31.944   7.615   8.735
 2378POPC   C2B32864  31.869   7.234   8.484
 2378POPC   C3B32865  31.982   7.161   8.073
 2378POPC   C4B32866  32.006   7.493   7.793
 2379POPC   NC332867  18.169   3.833   9.506
 2379POPC   PO432868  18.588   3.276   9.432
 2379POPC   GL132869  18.198   3.397   9.177
 2379POPC   GL232870  18.128   3.760   9.021
 2379POPC   C1A32871  17.988   3.341   8.769
 2379POPC   D2A32872  18.138   3.619   8.417
 2379POPC   C3A32873  18.315   3.426   8.025
 2379POPC   C4A32874  18.145   3.279   7.637
 2379POPC   C1B32875  18.513   3.756   8.816
 2379POPC   C2B32876  18.628   3.893   8.422
 2379POPC   C3B32877  18.778   3.865   8.013
 2379POPC   C4B32878  18.573   3.706   7.678
 2380POPC   NC332879  26.523  31.999   9.660
 2380POPC   PO432880  26.800  32.633   9.440
 2380POPC   GL132881  26.740  32.326   9.128
 2380POPC   GL232882  26.887  32.008   9.245
 2380POPC   C1A32883  26.957  32.323   8.705
 2380POPC   D2A32884  26.888  32.581   8.379
 2380POPC   C3A32885  26.933  32.334   8.006
 2380POPC   C4A32886  26.624  32.266   7.734
 2380POPC   C1B32887  26.653  31.938   8.822
 2380POPC   C2B32888  26.794  31.965   8.359
 2380POPC   C3B32889  27.067  31.839   7.997
 2380POPC   C4B32890  26.963  31.847   7.562
 2381POPC   NC332891  15.857   8.398   9.692
 2381POPC   PO432892  16.051   7.727   9.513
 2381POPC   GL132893  15.953   8.012   9.178
 2381POPC   GL232894  15.933   8.380   9.200
 2381POPC   C1A32895  15.808   8.081   8.759
 2381POPC   D2A32896  15.660   8.127   8.333
 2381POPC   C3A32897  15.895   8.005   8.008
 2381POPC   C4A32898  15.966   8.215   7.653
 2381POPC   C1B32899  15.892   8.591   8.834
 2381POPC   C2B32900  16.026   8.474   8.445
 2381POPC   C3B32901  15.901   8.523   8.039
 2381POPC   C4B32902  16.204   8.652   7.716
 2382POPC   NC332903  38.071  21.926   9.568
 2382POPC   PO432904  38.554  22.400   9.628
 2382POPC   GL132905  38.362  22.419   9.128
 2382POPC   GL232906  38.288  22.071   9.112
 2382POPC   C1A32907  38.540  22.160   8.698
 2382POPC   D2A32908  38.518  21.949   8.322
 2382POPC   C3A32909  38.697  22.277   8.068
 2382POPC   C4A32910  38.751  22.238   7.639
 2382POPC   C1B32911  38.062  22.300   8.712
 2382POPC   C2B32912  38.117  22.350   8.232
 2382POPC   C3B32913  38.272  22.118   7.840
 2382POPC   C4B32914  38.295  22.189   7.369
 2383POPC   NC332915   1.727  26.046   9.445
 2383POPC   PO432916   2.366  25.770   9.510
 2383POPC   GL132917   2.299  25.958   9.099
 2383POPC   GL232918   2.073  26.230   9.126
 2383POPC   C1A32919   2.234  25.871   8.641
 2383POPC   D2A32920   1.876  25.711   8.356
 2383POPC   C3A32921   1.966  25.814   7.907
 2383POPC   C4A32922   2.328  25.978   7.643
 2383POPC   C1B32923   1.826  26.158   8.718
 2383POPC   C2B32924   1.928  26.211   8.250
 2383POPC   C3B32925   1.951  26.321   7.795
 2383POPC   C4B32926   2.019  26.344   7.326
 2384POPC   NC332927  34.870  13.244   9.353
 2384POPC   PO432928  35.462  13.607   9.440
 2384POPC   GL132929  35.404  13.744   9.078
 2384POPC   GL232930  35.062  13.639   9.083
 2384POPC   C1A32931  35.490  13.639   8.685
 2384POPC   D2A32932  35.341  13.871   8.330
 2384POPC   C3A32933  35.493  13.658   8.004
 2384POPC   C4A32934  35.776  13.841   7.745
 2384POPC   C1B32935  34.992  13.853   8.732
 2384POPC   C2B32936  34.825  13.900   8.333
 2384POPC   C3B32937  34.973  13.657   7.975
 2384POPC   C4B32938  35.170  13.446   7.626
 2385POPC   NC332939  30.934  43.825   9.429
 2385POPC   PO432940  31.444  43.633   9.850
 2385POPC   GL132941  31.499  43.662   9.373
 2385POPC   GL232942  31.378  43.956   9.232
 2385POPC   C1A32943  31.613  43.628   8.887
 2385POPC   D2A32944  31.476  43.663   8.411
 2385POPC   C3A32945  31.545  43.932   7.979
 2385POPC   C4A32946  31.620  44.017   7.476
 2385POPC   C1B32947  31.197  43.909   8.815
 2385POPC   C2B32948  31.263  44.116   8.425
 2385POPC   C3B32949  31.054  44.074   8.069
 2385POPC   C4B32950  31.135  44.005   7.661
 2386POPC   NC332951  43.796  23.214   9.477
 2386POPC   PO432952  44.028  22.578   9.534
 2386POPC   GL132953  43.955  22.738   9.141
 2386POPC   GL232954  44.170  22.999   9.210
 2386POPC   C1A32955  43.962  22.738   8.681
 2386POPC   D2A32956  43.901  22.662   8.239
 2386POPC   C3A32957  44.131  22.893   7.920
 2386POPC   C4A32958  44.256  22.847   7.458
 2386POPC   C1B32959  43.965  23.217   8.849
 2386POPC   C2B32960  44.022  23.217   8.403
 2386POPC   C3B32961  43.883  23.347   8.002
 2386POPC   C4B32962  43.460  23.339   7.814
 2387POPC   NC332963  11.788  23.143   9.343
 2387POPC   PO432964  11.196  22.988   9.522
 2387POPC   GL132965  11.347  22.903   9.143
 2387POPC   GL232966  11.560  22.593   9.206
 2387POPC   C1A32967  11.120  22.995   8.747
 2387POPC   D2A32968  10.839  22.844   8.411
 2387POPC   C3A32969  11.011  23.037   8.033
 2387POPC   C4A32970  11.350  23.162   7.748
 2387POPC   C1B32971  11.483  22.621   8.751
 2387POPC   C2B32972  11.378  22.780   8.337
 2387POPC   C3B32973  11.391  22.679   7.904
 2387POPC   C4B32974  11.416  22.731   7.466
 2388POPC   NC332975  19.371  19.050   9.561
 2388POPC   PO432976  18.813  19.336   9.684
 2388POPC   GL132977  19.180  19.390   9.272
 2388POPC   GL232978  19.087  19.012   9.146
 2388POPC   C1A32979  19.260  19.321   8.798
 2388POPC   D2A32980  18.894  19.129   8.540
 2388POPC   C3A32981  18.898  19.178   8.075
 2388POPC   C4A32982  18.763  19.575   7.841
 2388POPC   C1B32983  19.253  18.813   8.755
 2388POPC   C2B32984  19.367  19.046   8.347
 2388POPC   C3B32985  19.384  18.973   7.928
 2388POPC   C4B32986  19.030  18.747   7.794
 2389POPC   NC332987  24.003  18.370   9.465
 2389POPC   PO432988  23.371  18.721   9.391
 2389POPC   GL132989  23.413  18.494   9.045
 2389POPC   GL232990  23.655  18.238   9.119
 2389POPC   C1A32991  23.466  18.506   8.643
 2389POPC   D2A32992  23.322  18.346   8.312
 2389POPC   C3A32993  23.332  18.533   7.946
 2389POPC   C4A32994  23.634  18.551   7.702
 2389POPC   C1B32995  23.594  18.031   8.743
 2389POPC   C2B32996  23.510  17.880   8.351
 2389POPC   C3B32997  23.594  18.057   7.952
 2389POPC   C4B32998  23.351  18.098   7.585
 2390POPC   NC332999  27.143  32.892   9.644
 2390POPC   PO433000  26.576  33.309   9.529
 2390POPC   GL133001  26.859  33.135   9.222
 2390POPC   GL233002  27.128  33.412   9.154
 2390POPC   C1A33003  26.820  32.982   8.773
 2390POPC   D2A33004  26.863  33.124   8.315
 2390POPC   C3A33005  26.809  32.834   7.953
 2390POPC   C4A33006  26.772  32.780   7.511
 2390POPC   C1B33007  27.228  33.283   8.697
 2390POPC   C2B33008  27.313  33.377   8.247
 2390POPC   C3B33009  27.111  33.233   7.822
 2390POPC   C4B33010  27.100  33.482   7.407
 2391POPC   NC333011  33.849  16.365   9.362
 2391POPC   PO433012  34.257  15.806   9.403
 2391POPC   GL133013  34.076  15.997   9.063
 2391POPC   GL233014  33.737  15.927   9.111
 2391POPC   C1A33015  33.870  16.151   8.671
 2391POPC   D2A33016  33.580  16.091   8.327
 2391POPC   C3A33017  33.670  16.202   7.907
 2391POPC   C4A33018  33.925  15.931   7.681
 2391POPC   C1B33019  33.460  15.736   8.850
 2391POPC   C2B33020  33.528  15.571   8.437
 2391POPC   C3B33021  33.595  15.672   8.012
 2391POPC   C4B33022  33.510  15.619   7.584
 2392POPC   NC333023  13.961  12.021   9.664
 2392POPC   PO433024  13.337  12.177   9.406
 2392POPC   GL133025  13.567  12.118   9.100
 2392POPC   GL233026  13.741  11.842   9.198
 2392POPC   C1A33027  13.562  12.310   8.694
 2392POPC   D2A33028  13.805  12.216   8.322
 2392POPC   C3A33029  13.598  12.337   7.916
 2392POPC   C4A33030  13.591  12.128   7.508
 2392POPC   C1B33031  13.890  11.923   8.759
 2392POPC   C2B33032  14.133  11.821   8.351
 2392POPC   C3B33033  13.908  11.879   7.944
 2392POPC   C4B33034  13.668  11.648   7.629
 2393POPC   NC333035  35.101  42.344   9.495
 2393POPC   PO433036  35.783  42.307   9.652
 2393POPC   GL133037  35.586  42.437   9.220
 2393POPC   GL233038  35.506  42.153   9.167
 2393POPC   C1A33039  35.280  42.449   8.845
 2393POPC   D2A33040  35.192  42.097   8.571
 2393POPC   C3A33041  35.081  42.307   8.222
 2393POPC   C4A33042  35.205  42.406   7.828
 2393POPC   C1B33043  35.742  42.300   8.745
 2393POPC   C2B33044  35.604  42.219   8.278
 2393POPC   C3B33045  35.697  42.388   7.881
 2393POPC   C4B33046  35.835  42.328   7.459
 2394POPC   NC333047  25.506  44.580   9.442
 2394POPC   PO433048  24.862  44.666   9.425
 2394POPC   GL133049  25.151  44.568   9.056
 2394POPC   GL233050  24.955  44.352   8.810
 2394POPC   C1A33051  25.258  44.747   8.633
 2394POPC   D2A33052  24.952  44.636   8.317
 2394POPC   C3A33053  24.946  44.842   7.930
 2394POPC   C4A33054  25.344   0.022   7.805
 2394POPC   C1B33055  25.411  44.254   8.708
 2394POPC   C2B33056  25.622  44.436   8.402
 2394POPC   C3B33057  25.457  44.616   8.078
 2394POPC   C4B33058  25.208  44.443   7.756
 2395POPC   NC333059  27.455   2.359   9.375
 2395POPC   PO433060  28.007   2.692   9.594
 2395POPC   GL133061  27.741   2.742   9.142
 2395POPC   GL233062  27.421   2.937   9.070
 2395POPC   C1A33063  27.704   2.839   8.661
 2395POPC   D2A33064  27.401   2.935   8.303
 2395POPC   C3A33065  27.563   2.791   7.899
 2395POPC   C4A33066  27.588   2.929   7.451
 2395POPC   C1B33067  27.276   2.596   8.762
 2395POPC   C2B33068  27.041   2.585   8.356
 2395POPC   C3B33069  27.191   2.426   7.984
 2395POPC   C4B33070  27.226   2.579   7.589
 2396POPC   NC333071  35.818  11.545   9.442
 2396POPC   PO433072  36.402  11.914   9.408
 2396POPC   GL133073  36.307  11.537   9.175
 2396POPC   GL233074  35.987  11.491   8.972
 2396POPC   C1A33075  36.440  11.319   8.787
 2396POPC   D2A33076  36.102  11.352   8.475
 2396POPC   C3A33077  36.162  11.233   8.063
 2396POPC   C4A33078  35.833  11.016   7.871
 2396POPC   C1B33079  35.697  11.635   8.647
 2396POPC   C2B33080  35.644  11.595   8.202
 2396POPC   C3B33081  35.925  11.637   7.850
 2396POPC   C4B33082  35.893  11.683   7.422
 2397POPC   NC333083   5.473  29.821   9.683
 2397POPC   PO433084   4.813  29.512   9.487
 2397POPC   GL133085   5.102  29.739   9.187
 2397POPC   GL233086   5.322  30.072   9.228
 2397POPC   C1A33087   4.949  29.890   8.770
 2397POPC   D2A33088   4.815  29.894   8.343
 2397POPC   C3A33089   4.921  29.713   7.976
 2397POPC   C4A33090   5.155  29.910   7.649
 2397POPC   C1B33091   5.447  29.887   8.818
 2397POPC   C2B33092   5.280  29.663   8.421
 2397POPC   C3B33093   5.425  29.719   8.037
 2397POPC   C4B33094   5.555  29.502   7.682
 2398POPC   NC333095  42.366  38.835  10.004
 2398POPC   PO433096  42.394  38.333   9.526
 2398POPC   GL133097  42.479  38.421   9.115
 2398POPC   GL233098  42.505  38.071   9.048
 2398POPC   C1A33099  42.224  38.516   8.745
 2398POPC   D2A33100  42.350  38.716   8.340
 2398POPC   C3A33101  42.351  38.547   7.894
 2398POPC   C4A33102  42.312  38.147   7.654
 2398POPC   C1B33103  42.575  38.164   8.629
 2398POPC   C2B33104  42.673  38.295   8.223
 2398POPC   C3B33105  42.782  38.272   7.794
 2398POPC   C4B33106  42.738  38.336   7.363
 2399POPC   NC333107  38.438  18.259   9.780
 2399POPC   PO433108  38.293  17.946   9.224
 2399POPC   GL133109  38.470  18.221   9.009
 2399POPC   GL233110  38.465  18.542   9.145
 2399POPC   C1A33111  38.430  18.134   8.609
 2399POPC   D2A33112  38.628  18.206   8.270
 2399POPC   C3A33113  38.484  18.191   7.894
 2399POPC   C4A33114  38.760  17.983   7.669
 2399POPC   C1B33115  38.616  18.605   8.708
 2399POPC   C2B33116  38.923  18.592   8.380
 2399POPC   C3B33117  38.967  18.432   7.935
 2399POPC   C4B33118  38.760  18.468   7.509
 2400POPC   NC333119  28.665  33.257   9.376
 2400POPC   PO433120  28.466  32.548   9.432
 2400POPC   GL133121  28.428  32.851   9.097
 2400POPC   GL233122  28.212  33.168   9.103
 2400POPC   C1A33123  28.409  32.948   8.662
 2400POPC   D2A33124  28.164  32.837   8.333
 2400POPC   C3A33125  28.287  32.704   7.974
 2400POPC   C4A33126  28.598  32.735   7.717
 2400POPC   C1B33127  28.124  33.395   8.722
 2400POPC   C2B33128  28.277  33.333   8.312
 2400POPC   C3B33129  28.599  33.177   8.071
 2400POPC   C4B33130  28.372  33.195   7.697
 2401POPC   NC333131  10.274  40.823   9.322
 2401POPC   PO433132   9.653  40.709   9.675
 2401POPC   GL133133   9.738  40.521   9.226
 2401POPC   GL233134  10.065  40.403   9.127
 2401POPC   C1A33135   9.633  40.579   8.748
 2401POPC   D2A33136   9.459  40.887   8.405
 2401POPC   C3A33137   9.524  40.846   7.952
 2401POPC   C4A33138   9.729  40.927   7.564
 2401POPC   C1B33139  10.133  40.609   8.694
 2401POPC   C2B33140  10.044  41.019   8.449
 2401POPC   C3B33141   9.998  41.067   7.989
 2401POPC   C4B33142  10.135  40.668   7.744
 2402POPC   NC333143  25.896  28.071   9.442
 2402POPC   PO433144  26.031  28.628   9.704
 2402POPC   GL133145  26.089  28.479   9.193
 2402POPC   GL233146  25.815  28.369   9.027
 2402POPC   C1A33147  26.170  28.545   8.725
 2402POPC   D2A33148  26.457  28.404   8.377
 2402POPC   C3A33149  26.292  28.413   7.956
 2402POPC   C4A33150  25.926  28.509   7.654
 2402POPC   C1B33151  25.864  28.136   8.667
 2402POPC   C2B33152  25.890  28.293   8.250
 2402POPC   C3B33153  25.696  28.097   7.887
 2402POPC   C4B33154  25.731  28.062   7.451
 2403POPC   NC333155  31.973  14.624   9.885
 2403POPC   PO433156  31.488  14.440   9.464
 2403POPC   GL133157  31.684  14.394   9.088
 2403POPC   GL233158  31.698  14.047   8.985
 2403POPC   C1A33159  31.812  14.703   8.749
 2403POPC   D2A33160  31.759  15.011   8.388
 2403POPC   C3A33161  31.468  14.854   8.127
 2403POPC   C4A33162  31.451  14.612   7.762
 2403POPC   C1B33163  31.503  14.284   8.639
 2403POPC   C2B33164  31.520  14.338   8.208
 2403POPC   C3B33165  31.314  14.098   7.903
 2403POPC   C4B33166  31.104  14.259   7.562
 2404POPC   NC333167  17.039  28.078   9.429
 2404POPC   PO433168  17.548  28.478   9.529
 2404POPC   GL133169  17.308  28.513   9.179
 2404POPC   GL233170  17.366  28.187   9.052
 2404POPC   C1A33171  17.354  28.660   8.765
 2404POPC   D2A33172  17.546  28.860   8.399
 2404POPC   C3A33173  17.398  28.703   8.028
 2404POPC   C4A33174  17.454  28.351   7.792
 2404POPC   C1B33175  17.638  28.229   8.708
 2404POPC   C2B33176  17.584  28.311   8.296
 2404POPC   C3B33177  17.841  28.080   8.026
 2404POPC   C4B33178  17.681  27.892   7.685
 2405POPC   NC333179  22.685  15.659   9.577
 2405POPC   PO433180  23.286  15.910   9.635
 2405POPC   GL133181  22.974  15.854   9.228
 2405POPC   GL233182  22.948  16.127   9.066
 2405POPC   C1A33183  22.816  15.733   8.814
 2405POPC   D2A33184  22.898  15.981   8.462
 2405POPC   C3A33185  22.805  15.754   8.131
 2405POPC   C4A33186  22.826  15.842   7.714
 2405POPC   C1B33187  22.634  16.248   8.816
 2405POPC   C2B33188  22.657  16.440   8.433
 2405POPC   C3B33189  22.673  16.248   8.017
 2405POPC   C4B33190  22.663  16.339   7.577
 2406POPC   NC333191   3.673  44.877   9.944
 2406POPC   PO433192   3.171  44.657   9.626
 2406POPC   GL133193   3.402  44.809   9.272
 2406POPC   GL233194   3.697  44.912   9.427
 2406POPC   C1A33195   3.415  44.748   8.834
 2406POPC   D2A33196   3.544  44.531   8.471
 2406POPC   C3A33197   3.518  44.708   8.076
 2406POPC   C4A33198   3.472  44.484   7.703
 2406POPC   C1B33199   3.791   0.057   9.004
 2406POPC   C2B33200   3.774  44.991   8.533
 2406POPC   C3B33201   3.906   0.036   8.076
 2406POPC   C4B33202   3.739  44.928   7.663
 2407POPC   NC333203  18.664  22.719   9.438
 2407POPC   PO433204  19.142  23.138   9.648
 2407POPC   GL133205  19.051  22.979   9.224
 2407POPC   GL233206  19.161  22.628   9.220
 2407POPC   C1A33207  18.795  23.024   8.835
 2407POPC   D2A33208  18.727  22.856   8.403
 2407POPC   C3A33209  18.890  23.130   8.123
 2407POPC   C4A33210  18.910  23.089   7.731
 2407POPC   C1B33211  19.189  22.692   8.780
 2407POPC   C2B33212  19.250  22.864   8.371
 2407POPC   C3B33213  19.327  22.746   7.937
 2407POPC   C4B33214  19.364  22.949   7.532
 2408POPC   NC333215  14.967  38.361   9.425
 2408POPC   PO433216  15.607  38.433   9.476
 2408POPC   GL133217  15.341  38.149   9.140
 2408POPC   GL233218  14.942  38.143   8.984
 2408POPC   C1A33219  15.331  38.091   8.688
 2408POPC   D2A33220  15.024  38.033   8.367
 2408POPC   C3A33221  15.134  38.259   8.010
 2408POPC   C4A33222  15.214  38.688   7.921
 2408POPC   C1B33223  14.915  38.438   8.669
 2408POPC   C2B33224  14.626  38.489   8.324
 2408POPC   C3B33225  14.683  38.458   7.882
 2408POPC   C4B33226  14.887  38.650   7.542
 2409POPC   NC333227   3.696   5.902   9.478
 2409POPC   PO433228   3.052   5.585   9.472
 2409POPC   GL133229   3.352   5.650   9.181
 2409POPC   GL233230   3.199   5.949   9.078
 2409POPC   C1A33231   3.522   5.668   8.772
 2409POPC   D2A33232   3.604   5.940   8.437
 2409POPC   C3A33233   3.594   5.733   8.043
 2409POPC   C4A33234   3.605   5.940   7.632
 2409POPC   C1B33235   3.253   6.201   8.748
 2409POPC   C2B33236   3.091   6.201   8.358
 2409POPC   C3B33237   3.205   6.032   7.954
 2409POPC   C4B33238   3.115   5.920   7.526
 2410POPC   NC333239  28.270   6.934   9.417
 2410POPC   PO433240  28.735   6.437   9.566
 2410POPC   GL133241  28.595   6.603   9.187
 2410POPC   GL233242  28.717   6.953   9.175
 2410POPC   C1A33243  28.317   6.538   8.821
 2410POPC   D2A33244  28.179   6.771   8.463
 2410POPC   C3A33245  28.229   6.617   8.055
 2410POPC   C4A33246  28.413   6.479   7.679
 2410POPC   C1B33247  28.495   7.028   8.799
 2410POPC   C2B33248  28.667   7.028   8.397
 2410POPC   C3B33249  28.657   6.876   7.988
 2410POPC   C4B33250  28.300   6.976   7.700
 2411POPC   NC333251  31.302  41.263   9.478
 2411POPC   PO433252  31.636  41.900   9.362
 2411POPC   GL133253  31.419  41.718   9.005
 2411POPC   GL233254  31.233  41.417   9.021
 2411POPC   C1A33255  31.434  41.609   8.593
 2411POPC   D2A33256  31.668  41.451   8.265
 2411POPC   C3A33257  31.510  41.615   7.904
 2411POPC   C4A33258  31.540  41.460   7.507
 2411POPC   C1B33259  31.005  41.315   8.679
 2411POPC   C2B33260  31.153  41.332   8.250
 2411POPC   C3B33261  31.177  41.235   7.824
 2411POPC   C4B33262  30.824  41.362   7.629
 2412POPC   NC333263  15.507  12.152   9.850
 2412POPC   PO433264  15.098  11.855   9.478
 2412POPC   GL133265  14.978  11.750   9.031
 2412POPC   GL233266  15.265  11.548   9.003
 2412POPC   C1A33267  14.931  12.063   8.679
 2412POPC   D2A33268  15.294  12.249   8.446
 2412POPC   C3A33269  15.205  12.272   7.994
 2412POPC   C4A33270  14.905  12.026   7.749
 2412POPC   C1B33271  15.227  11.672   8.596
 2412POPC   C2B33272  15.229  11.802   8.203
 2412POPC   C3B33273  15.231  11.582   7.860
 2412POPC   C4B33274  15.063  11.588   7.460
 2413POPC   NC333275  26.541  41.982   9.440
 2413POPC   PO433276  26.796  41.332   9.420
 2413POPC   GL133277  26.917  41.437   9.068
 2413POPC   GL233278  26.892  41.791   9.089
 2413POPC   C1A33279  26.716  41.379   8.687
 2413POPC   D2A33280  26.875  41.530   8.299
 2413POPC   C3A33281  26.794  41.353   7.884
 2413POPC   C4A33282  26.446  41.109   7.806
 2413POPC   C1B33283  27.099  41.767   8.719
 2413POPC   C2B33284  27.299  41.867   8.369
 2413POPC   C3B33285  27.242  41.656   7.981
 2413POPC   C4B33286  27.263  41.225   8.042
 2414POPC   NC333287  27.926  34.728   9.802
 2414POPC   PO433288  28.502  34.666   9.585
 2414POPC   GL133289  28.469  34.621   9.152
 2414POPC   GL233290  28.199  34.825   9.061
 2414POPC   C1A33291  28.295  34.455   8.740
 2414POPC   D2A33292  28.370  34.568   8.320
 2414POPC   C3A33293  28.071  34.412   8.018
 2414POPC   C4A33294  28.216  34.188   7.655
 2414POPC   C1B33295  28.525  34.943   8.731
 2414POPC   C2B33296  28.498  35.133   8.319
 2414POPC   C3B33297  28.307  34.952   7.970
 2414POPC   C4B33298  28.427  34.625   7.718
 2415POPC   NC333299  40.469  22.663   9.496
 2415POPC   PO433300  40.677  23.302   9.473
 2415POPC   GL133301  40.764  23.225   9.086
 2415POPC   GL233302  40.750  22.866   9.092
 2415POPC   C1A33303  41.022  23.167   8.737
 2415POPC   D2A33304  40.909  23.004   8.352
 2415POPC   C3A33305  41.122  23.032   7.969
 2415POPC   C4A33306  40.774  23.141   7.760
 2415POPC   C1B33307  40.491  22.576   8.850
 2415POPC   C2B33308  40.529  22.418   8.457
 2415POPC   C3B33309  40.590  22.675   8.085
 2415POPC   C4B33310  40.571  22.678   7.654
 2416POPC   NC333311   2.154  32.567   9.303
 2416POPC   PO433312   2.035  31.946   9.434
 2416POPC   GL133313   1.902  32.127   9.077
 2416POPC   GL233314   1.723  32.435   9.084
 2416POPC   C1A33315   2.087  32.269   8.702
 2416POPC   D2A33316   2.055  32.083   8.305
 2416POPC   C3A33317   2.255  32.267   7.976
 2416POPC   C4A33318   2.328  32.468   7.613
 2416POPC   C1B33319   1.565  32.314   8.721
 2416POPC   C2B33320   1.752  32.487   8.381
 2416POPC   C3B33321   1.885  32.612   8.005
 2416POPC   C4B33322   1.825  32.289   7.717
 2417POPC   NC333323   7.411  34.769   9.447
 2417POPC   PO433324   7.743  34.276   9.529
 2417POPC   GL133325   7.658  34.326   9.130
 2417POPC   GL233326   7.334  34.415   9.077
 2417POPC   C1A33327   7.696  34.296   8.692
 2417POPC   D2A33328   7.393  34.371   8.374
 2417POPC   C3A33329   7.547  34.291   7.964
 2417POPC   C4A33330   7.278  34.360   7.638
 2417POPC   C1B33331   7.458  34.755   8.797
 2417POPC   C2B33332   7.375  34.876   8.402
 2417POPC   C3B33333   7.307  34.764   8.002
 2417POPC   C4B33334   6.973  35.009   7.863
 2418POPC   NC333335   9.352   3.432   9.440
 2418POPC   PO433336   9.943   3.731   9.662
 2418POPC   GL133337   9.731   3.753   9.215
 2418POPC   GL233338   9.631   3.419   9.031
 2418POPC   C1A33339   9.799   3.782   8.735
 2418POPC   D2A33340   9.890   3.494   8.395
 2418POPC   C3A33341   9.705   3.369   8.009
 2418POPC   C4A33342   9.740   3.612   7.648
 2418POPC   C1B33343   9.328   3.733   8.862
 2418POPC   C2B33344   9.331   3.911   8.450
 2418POPC   C3B33345   9.494   3.831   8.044
 2418POPC   C4B33346   9.255   3.686   7.638
 2419POPC   NC333347   4.580   1.401   9.674
 2419POPC   PO433348   4.093   0.880   9.515
 2419POPC   GL133349   4.373   1.167   9.282
 2419POPC   GL233350   4.186   1.374   9.241
 2419POPC   C1A33351   4.508   1.159   8.862
 2419POPC   D2A33352   4.264   1.108   8.494
 2419POPC   C3A33353   4.432   1.206   8.109
 2419POPC   C4A33354   4.289   1.028   7.750
 2419POPC   C1B33355   4.070   1.456   8.829
 2419POPC   C2B33356   3.817   1.412   8.436
 2419POPC   C3B33357   3.917   1.353   7.982
 2419POPC   C4B33358   3.863   1.595   7.582
 2420POPC   NC333359  38.023  37.393   9.605
 2420POPC   PO433360  38.668  37.728   9.536
 2420POPC   GL133361  38.448  37.599   9.161
 2420POPC   GL233362  38.401  37.937   9.036
 2420POPC   C1A33363  38.346  37.547   8.695
 2420POPC   D2A33364  38.495  37.583   8.251
 2420POPC   C3A33365  38.142  37.561   7.967
 2420POPC   C4A33366  37.849  37.289   7.830
 2420POPC   C1B33367  38.634  37.982   8.628
 2420POPC   C2B33368  38.589  38.121   8.203
 2420POPC   C3B33369  38.463  37.925   7.839
 2420POPC   C4B33370  38.600  37.514   7.716
 2421POPC   NC333371  37.537   5.554   9.387
 2421POPC   PO433372  37.971   5.131   9.467
 2421POPC   GL133373  37.906   5.292   9.064
 2421POPC   GL233374  37.938   4.956   8.939
 2421POPC   C1A33375  37.815   5.331   8.599
 2421POPC   D2A33376  37.646   5.132   8.201
 2421POPC   C3A33377  37.722   5.356   7.782
 2421POPC   C4A33378  37.459   5.546   7.427
 2421POPC   C1B33379  38.014   4.871   8.504
 2421POPC   C2B33380  37.869   4.629   8.186
 2421POPC   C3B33381  37.809   4.810   7.794
 2421POPC   C4B33382  38.108   5.038   7.541
 2422POPC   NC333383  29.589   8.244   9.605
 2422POPC   PO433384  28.838   8.258   9.597
 2422POPC   GL133385  29.003   8.088   9.195
 2422POPC   GL233386  29.351   8.122   9.144
 2422POPC   C1A33387  28.955   8.147   8.752
 2422POPC   D2A33388  29.090   8.327   8.369
 2422POPC   C3A33389  28.928   8.170   7.985
 2422POPC   C4A33390  29.246   8.088   7.655
 2422POPC   C1B33391  29.449   8.278   8.742
 2422POPC   C2B33392  29.595   8.488   8.404
 2422POPC   C3B33393  29.447   8.489   7.988
 2422POPC   C4B33394  29.675   8.381   7.622
 2423POPC   NC333395  34.263  19.006   9.550
 2423POPC   PO433396  34.864  18.946   9.380
 2423POPC   GL133397  34.564  19.050   9.109
 2423POPC   GL233398  34.309  18.785   9.096
 2423POPC   C1A33399  34.682  19.102   8.703
 2423POPC   D2A33400  34.459  19.060   8.312
 2423POPC   C3A33401  34.698  19.251   8.038
 2423POPC   C4A33402  34.688  19.154   7.621
 2423POPC   C1B33403  34.391  18.684   8.690
 2423POPC   C2B33404  34.598  18.587   8.304
 2423POPC   C3B33405  34.577  18.693   7.873
 2423POPC   C4B33406  34.639  18.620   7.429
 2424POPC   NC333407  30.532  37.159   9.463
 2424POPC   PO433408  30.987  36.661   9.460
 2424POPC   GL133409  30.746  36.759   9.133
 2424POPC   GL233410  30.808  37.127   9.025
 2424POPC   C1A33411  30.846  36.724   8.705
 2424POPC   D2A33412  30.756  36.999   8.396
 2424POPC   C3A33413  30.921  36.779   8.093
 2424POPC   C4A33414  31.004  36.821   7.714
 2424POPC   C1B33415  30.398  36.982   8.807
 2424POPC   C2B33416  30.234  36.858   8.390
 2424POPC   C3B33417  30.405  36.722   8.015
 2424POPC   C4B33418  30.533  37.024   7.720
 2425POPC   NC333419  38.755  23.682   9.431
 2425POPC   PO433420  38.196  23.235   9.409
 2425POPC   GL133421  38.325  23.628   9.140
 2425POPC   GL233422  38.487  23.993   9.084
 2425POPC   C1A33423  38.534  23.587   8.758
 2425POPC   D2A33424  38.295  23.315   8.493
 2425POPC   C3A33425  38.269  23.369   8.060
 2425POPC   C4A33426  38.174  23.480   7.672
 2425POPC   C1B33427  38.543  24.067   8.609
 2425POPC   C2B33428  38.747  23.842   8.283
 2425POPC   C3B33429  38.724  23.603   7.925
 2425POPC   C4B33430  38.486  23.868   7.687
 2426POPC   NC333431   6.907   0.282   9.380
 2426POPC   PO433432   6.945   0.957   9.396
 2426POPC   GL133433   6.751   0.735   9.052
 2426POPC   GL233434   6.446   0.852   8.980
 2426POPC   C1A33435   6.665   0.492   8.650
 2426POPC   D2A33436   6.762   0.118   8.357
 2426POPC   C3A33437   6.660   0.058   7.902
 2426POPC   C4A33438   6.593   0.244   7.507
 2426POPC   C1B33439   6.230   0.790   8.631
 2426POPC   C2B33440   6.297   0.564   8.259
 2426POPC   C3B33441   6.575   0.589   7.915
 2426POPC   C4B33442   6.477   0.736   7.511
 2427POPC   NC333443  44.321  42.236   9.360
 2427POPC   PO433444  43.668  41.994   9.528
 2427POPC   GL133445  43.738  42.132   9.147
 2427POPC   GL233446  43.900  42.427   9.145
 2427POPC   C1A33447  43.924  42.095   8.760
 2427POPC   D2A33448  43.847  42.133   8.359
 2427POPC   C3A33449  44.137  41.937   8.091
 2427POPC   C4A33450  44.128  42.085   7.737
 2427POPC   C1B33451  43.677  42.565   8.790
 2427POPC   C2B33452  43.697  42.659   8.364
 2427POPC   C3B33453  43.908  42.546   8.009
 2427POPC   C4B33454  44.184  42.642   7.729
 2428POPC   NC333455   6.167  11.618   9.238
 2428POPC   PO433456   5.679  11.207   9.585
 2428POPC   GL133457   5.718  11.325   9.159
 2428POPC   GL233458   5.464  11.534   9.105
 2428POPC   C1A33459   5.866  11.128   8.739
 2428POPC   D2A33460   5.854  11.295   8.304
 2428POPC   C3A33461   6.152  11.198   7.977
 2428POPC   C4A33462   5.970  11.145   7.573
 2428POPC   C1B33463   5.705  11.607   8.720
 2428POPC   C2B33464   5.848  11.820   8.356
 2428POPC   C3B33465   6.048  11.745   7.987
 2428POPC   C4B33466   5.980  11.635   7.587
 2429POPC   NC333467  11.797  21.135   9.429
 2429POPC   PO433468  12.369  21.507   9.560
 2429POPC   GL133469  12.234  21.288   9.092
 2429POPC   GL233470  11.819  21.260   8.895
 2429POPC   C1A33471  12.248  21.446   8.704
 2429POPC   D2A33472  11.987  21.584   8.388
 2429POPC   C3A33473  12.122  21.417   7.997
 2429POPC   C4A33474  12.205  21.598   7.589
 2429POPC   C1B33475  11.655  20.954   8.669
 2429POPC   C2B33476  11.572  20.975   8.272
 2429POPC   C3B33477  11.620  21.049   7.864
 2429POPC   C4B33478  11.708  21.465   7.662
 2430POPC   NC333479   9.515   1.874   9.712
 2430POPC   PO433480   9.884   2.376   9.669
 2430POPC   GL133481   9.650   2.198   9.290
 2430POPC   GL233482   9.795   1.833   9.280
 2430POPC   C1A33483   9.479   2.262   8.838
 2430POPC   D2A33484   9.412   2.061   8.400
 2430POPC   C3A33485   9.729   2.118   8.075
 2430POPC   C4A33486   9.568   2.088   7.652
 2430POPC   C1B33487   9.874   1.960   8.872
 2430POPC   C2B33488   9.827   1.781   8.498
 2430POPC   C3B33489  10.026   1.689   8.166
 2430POPC   C4B33490   9.884   1.704   7.763
 2431POPC   NC333491  43.530  40.907   9.496
 2431POPC   PO433492  43.957  40.375   9.467
 2431POPC   GL133493  43.957  40.734   9.156
 2431POPC   GL233494  44.218  41.004   9.127
 2431POPC   C1A33495  43.847  40.946   8.763
 2431POPC   D2A33496  43.757  41.196   8.398
 2431POPC   C3A33497  43.823  40.891   8.079
 2431POPC   C4A33498  43.643  40.765   7.683
 2431POPC   C1B33499  44.361  40.931   8.722
 2431POPC   C2B33500  44.299  41.134   8.365
 2431POPC   C3B33501  44.370  41.019   7.948
 2431POPC   C4B33502  44.146  40.787   7.686
 2432POPC   NC333503  37.821   9.671   9.692
 2432POPC   PO433504  37.215   9.932   9.627
 2432POPC   GL133505  37.538   9.835   9.271
 2432POPC   GL233506  37.886   9.642   9.181
 2432POPC   C1A33507  37.685   9.988   8.875
 2432POPC   D2A33508  37.494   9.972   8.477
 2432POPC   C3A33509  37.753  10.116   8.132
 2432POPC   C4A33510  37.875  10.017   7.735
 2432POPC   C1B33511  37.674   9.472   8.773
 2432POPC   C2B33512  37.594   9.485   8.317
 2432POPC   C3B33513  37.786   9.504   7.904
 2432POPC   C4B33514  37.536   9.308   7.560
 2433POPC   NC333515  27.747  39.954   9.311
 2433POPC   PO433516  27.394  40.532   9.458
 2433POPC   GL133517  27.385  40.235   9.075
 2433POPC   GL233518  27.125  40.002   9.181
 2433POPC   C1A33519  27.680  40.124   8.677
 2433POPC   D2A33520  27.585  40.213   8.218
 2433POPC   C3A33521  27.863  40.057   7.882
 2433POPC   C4A33522  27.819  39.993   7.416
 2433POPC   C1B33523  27.282  39.818   8.790
 2433POPC   C2B33524  27.447  39.720   8.369
 2433POPC   C3B33525  27.503  39.724   7.929
 2433POPC   C4B33526  27.376  39.765   7.507
 2434POPC   NC333527  36.695   6.071   9.537
 2434POPC   PO433528  37.343   5.928   9.551
 2434POPC   GL133529  37.042   5.936   9.190
 2434POPC   GL233530  36.948   6.291   9.093
 2434POPC   C1A33531  36.680   5.934   8.856
 2434POPC   D2A33532  36.631   6.101   8.424
 2434POPC   C3A33533  36.723   5.907   8.004
 2434POPC   C4A33534  36.640   5.553   7.698
 2434POPC   C1B33535  37.158   6.067   8.705
 2434POPC   C2B33536  37.459   5.947   8.317
 2434POPC   C3B33537  37.430   5.815   7.879
 2434POPC   C4B33538  37.064   5.846   7.589
 2435POPC   NC333539   5.515  22.137   9.722
 2435POPC   PO433540   6.074  22.058   9.303
 2435POPC   GL133541   6.039  22.125   8.894
 2435POPC   GL233542   5.976  22.453   8.977
 2435POPC   C1A33543   5.812  22.283   8.536
 2435POPC   D2A33544   5.947  22.287   8.138
 2435POPC   C3A33545   5.615  22.050   7.941
 2435POPC   C4A33546   5.609  21.860   7.537
 2435POPC   C1B33547   6.276  22.539   8.618
 2435POPC   C2B33548   6.306  22.704   8.178
 2435POPC   C3B33549   6.273  22.506   7.763
 2435POPC   C4B33550   6.041  22.134   7.646
 2436POPC   NC333551  26.270  43.562   9.647
 2436POPC   PO433552  26.890  43.821   9.594
 2436POPC   GL133553  26.874  43.701   9.128
 2436POPC   GL233554  27.182  43.561   8.938
 2436POPC   C1A33555  26.754  43.650   8.696
 2436POPC   D2A33556  26.794  43.819   8.309
 2436POPC   C3A33557  26.675  43.618   7.950
 2436POPC   C4A33558  26.783  43.838   7.634
 2436POPC   C1B33559  27.130  43.989   8.714
 2436POPC   C2B33560  27.120  44.213   8.295
 2436POPC   C3B33561  27.072  44.207   7.829
 2436POPC   C4B33562  27.051  44.175   7.353
 2437POPC   NC333563   5.392   3.518   9.491
 2437POPC   PO433564   4.697   3.639   9.332
 2437POPC   GL133565   4.878   3.884   9.023
 2437POPC   GL233566   5.226   3.787   9.074
 2437POPC   C1A33567   4.823   3.673   8.624
 2437POPC   D2A33568   4.979   3.352   8.322
 2437POPC   C3A33569   5.042   3.481   7.895
 2437POPC   C4A33570   5.045   3.270   7.491
 2437POPC   C1B33571   5.303   3.463   8.743
 2437POPC   C2B33572   5.480   3.522   8.322
 2437POPC   C3B33573   5.509   3.725   7.908
 2437POPC   C4B33574   5.327   3.683   7.489
 2438POPC   NC333575  10.984  13.600   9.390
 2438POPC   PO433576  11.485  13.202   9.534
 2438POPC   GL133577  11.450  13.414   9.149
 2438POPC   GL233578  11.405  13.764   9.179
 2438POPC   C1A33579  11.209  13.485   8.765
 2438POPC   D2A33580  11.456  13.499   8.379
 2438POPC   C3A33581  11.277  13.406   8.009
 2438POPC   C4A33582  10.999  13.603   7.714
 2438POPC   C1B33583  11.493  13.895   8.761
 2438POPC   C2B33584  11.670  13.975   8.365
 2438POPC   C3B33585  11.689  13.758   7.947
 2438POPC   C4B33586  11.488  13.543   7.567
 2439POPC   NC333587  23.693  44.693   9.843
 2439POPC   PO433588  23.266  44.767   9.267
 2439POPC   GL133589  23.484  44.514   8.978
 2439POPC   GL233590  23.885  44.482   8.991
 2439POPC   C1A33591  23.620  44.404   8.580
 2439POPC   D2A33592  23.911  44.515   8.293
 2439POPC   C3A33593  23.596  44.466   8.005
 2439POPC   C4A33594  23.472  44.686   7.671
 2439POPC   C1B33595  23.740  44.877   8.698
 2439POPC   C2B33596  23.827   0.060   8.323
 2439POPC   C3B33597  23.865  44.907   7.910
 2439POPC   C4B33598  23.972   0.048   7.506
 2440POPC   NC333599  39.572  10.089   9.599
 2440POPC   PO433600  39.203   9.497   9.473
 2440POPC   GL133601  39.356   9.654   9.077
 2440POPC   GL233602  39.463  10.013   9.102
 2440POPC   C1A33603  39.162   9.703   8.661
 2440POPC   D2A33604  39.014  10.007   8.350
 2440POPC   C3A33605  39.227   9.933   7.963
 2440POPC   C4A33606  39.101   9.720   7.582
 2440POPC   C1B33607  39.631   9.914   8.701
 2440POPC   C2B33608  39.725   9.784   8.286
 2440POPC   C3B33609  39.723   9.875   7.850
 2440POPC   C4B33610  39.498  10.026   7.494
 2441POPC   NC333611  37.318  43.749   9.401
 2441POPC   PO433612  36.718  43.841   9.569
 2441POPC   GL133613  36.896  43.932   9.118
 2441POPC   GL233614  37.230  43.837   8.928
 2441POPC   C1A33615  36.780  43.753   8.716
 2441POPC   D2A33616  36.627  43.803   8.301
 2441POPC   C3A33617  36.904  43.699   7.992
 2441POPC   C4A33618  36.855  43.787   7.580
 2441POPC   C1B33619  37.141  44.146   8.635
 2441POPC   C2B33620  37.034  44.161   8.230
 2441POPC   C3B33621  37.144  44.142   7.815
 2441POPC   C4B33622  37.136  44.166   7.385
 2442POPC   NC333623  43.637  15.234   9.309
 2442POPC   PO433624  44.191  14.830   9.493
 2442POPC   GL133625  44.050  15.000   9.087
 2442POPC   GL233626  44.088  15.362   9.062
 2442POPC   C1A33627  43.744  15.083   8.706
 2442POPC   D2A33628  43.553  14.887   8.350
 2442POPC   C3A33629  43.726  14.983   7.929
 2442POPC   C4A33630  43.549  15.145   7.578
 2442POPC   C1B33631  44.227  15.218   8.659
 2442POPC   C2B33632  44.017  15.233   8.288
 2442POPC   C3B33633  44.242  15.032   7.988
 2442POPC   C4B33634  44.355  15.141   7.602
 2443POPC   NC333635   8.475  34.836   9.450
 2443POPC   PO433636   8.397  35.532   9.445
 2443POPC   GL133637   8.287  35.446   9.048
 2443POPC   GL233638   8.552  35.200   9.058
 2443POPC   C1A33639   7.895  35.272   8.847
 2443POPC   D2A33640   7.703  35.255   8.433
 2443POPC   C3A33641   7.940  35.131   8.066
 2443POPC   C4A33642   8.302  35.068   7.788
 2443POPC   C1B33643   8.335  35.004   8.761
 2443POPC   C2B33644   8.213  35.313   8.455
 2443POPC   C3B33645   8.390  35.486   8.084
 2443POPC   C4B33646   8.302  35.599   7.644
 2444POPC   NC333647  35.148  12.283   9.370
 2444POPC   PO433648  35.454  11.786   9.304
 2444POPC   GL133649  35.421  11.978   8.935
 2444POPC   GL233650  35.516  12.336   9.028
 2444POPC   C1A33651  35.254  11.899   8.507
 2444POPC   D2A33652  34.965  12.169   8.251
 2444POPC   C3A33653  35.114  12.133   7.848
 2444POPC   C4A33654  35.480  11.878   7.730
 2444POPC   C1B33655  35.183  12.363   8.705
 2444POPC   C2B33656  35.450  12.352   8.391
 2444POPC   C3B33657  35.730  12.147   8.132
 2444POPC   C4B33658  35.684  12.340   7.756
 2445POPC   NC333659  25.520  27.295   9.172
 2445POPC   PO433660  24.954  27.583   9.490
 2445POPC   GL133661  25.261  27.723   9.124
 2445POPC   GL233662  25.427  28.051   9.112
 2445POPC   C1A33663  25.513  27.764   8.694
 2445POPC   D2A33664  25.746  27.769   8.297
 2445POPC   C3A33665  25.417  27.661   8.010
 2445POPC   C4A33666  25.137  27.574   7.663
 2445POPC   C1B33667  25.069  28.022   8.773
 2445POPC   C2B33668  24.928  27.971   8.328
 2445POPC   C3B33669  25.122  28.069   7.889
 2445POPC   C4B33670  25.256  27.976   7.425
 2446POPC   NC333671   0.174  34.720   9.675
 2446POPC   PO433672  44.649  34.534   9.407
 2446POPC   GL133673  44.620  34.749   9.061
 2446POPC   GL233674  44.342  34.954   9.023
 2446POPC   C1A33675  44.559  34.577   8.687
 2446POPC   D2A33676  44.404  34.613   8.318
 2446POPC   C3A33677  44.660  34.523   8.005
 2446POPC   C4A33678  44.806  34.731   7.664
 2446POPC   C1B33679  44.091  34.886   8.674
 2446POPC   C2B33680  43.930  34.764   8.264
 2446POPC   C3B33681  44.191  34.772   7.883
 2446POPC   C4B33682  44.269  34.987   7.521
 2447POPC   NC333683  18.911   4.502   9.547
 2447POPC   PO433684  19.397   4.084   9.512
 2447POPC   GL133685  19.266   4.372   9.199
 2447POPC   GL233686  18.969   4.169   9.121
 2447POPC   C1A33687  19.039   4.647   8.900
 2447POPC   D2A33688  19.116   4.664   8.480
 2447POPC   C3A33689  18.874   4.686   8.120
 2447POPC   C4A33690  18.935   4.570   7.679
 2447POPC   C1B33691  19.218   4.200   8.728
 2447POPC   C2B33692  19.041   4.192   8.318
 2447POPC   C3B33693  19.185   4.179   7.897
 2447POPC   C4B33694  18.945   4.085   7.498
 2448POPC   NC333695   5.693  10.831   9.306
 2448POPC   PO433696   6.079  10.311   9.581
 2448POPC   GL133697   5.825  10.344   9.159
 2448POPC   GL233698   5.517  10.130   9.112
 2448POPC   C1A33699   5.792  10.593   8.731
 2448POPC   D2A33700   5.556  10.855   8.403
 2448POPC   C3A33701   5.766  10.839   7.992
 2448POPC   C4A33702   5.905  10.656   7.603
 2448POPC   C1B33703   5.701  10.074   8.694
 2448POPC   C2B33704   5.946  10.290   8.351
 2448POPC   C3B33705   5.832  10.279   7.930
 2448POPC   C4B33706   5.432  10.215   7.736
 2449POPC   NC333707  24.612  43.427   9.780
 2449POPC   PO433708  24.742  42.798   9.488
 2449POPC   GL133709  24.469  42.997   9.182
 2449POPC   GL233710  24.237  43.284   9.342
 2449POPC   C1A33711  24.589  42.992   8.734
 2449POPC   D2A33712  24.639  42.854   8.315
 2449POPC   C3A33713  24.883  43.107   8.033
 2449POPC   C4A33714  24.767  43.389   7.713
 2449POPC   C1B33715  24.321  43.425   8.917
 2449POPC   C2B33716  24.358  43.416   8.440
 2449POPC   C3B33717  24.389  43.227   8.005
 2449POPC   C4B33718  24.417  42.787   7.846
 2450POPC   NC333719  17.408  26.373   9.498
 2450POPC   PO433720  17.796  26.928   9.468
 2450POPC   GL133721  17.578  26.717   9.154
 2450POPC   GL233722  17.836  26.499   9.042
 2450POPC   C1A33723  17.247  26.623   8.839
 2450POPC   D2A33724  16.966  26.699   8.474
 2450POPC   C3A33725  17.151  26.775   8.094
 2450POPC   C4A33726  17.410  26.801   7.751
 2450POPC   C1B33727  17.738  26.752   8.668
 2450POPC   C2B33728  17.662  26.820   8.226
 2450POPC   C3B33729  17.896  26.789   7.847
 2450POPC   C4B33730  17.794  27.179   7.658
 2451POPC   NC333731  24.098  26.965   9.266
 2451POPC   PO433732  23.675  26.694   9.653
 2451POPC   GL133733  23.692  26.602   9.199
 2451POPC   GL233734  23.436  26.854   9.143
 2451POPC   C1A33735  23.711  26.630   8.721
 2451POPC   D2A33736  23.837  26.362   8.339
 2451POPC   C3A33737  23.815  26.648   7.982
 2451POPC   C4A33738  24.093  26.989   7.889
 2451POPC   C1B33739  23.629  27.114   8.824
 2451POPC   C2B33740  23.751  27.036   8.394
 2451POPC   C3B33741  23.593  27.113   7.997
 2451POPC   C4B33742  23.689  27.051   7.576
 2452POPC   NC333743  42.939  18.302   9.676
 2452POPC   PO433744  42.435  18.117   9.308
 2452POPC   GL133745  42.420  18.201   8.950
 2452POPC   GL233746  42.098  18.341   9.009
 2452POPC   C1A33747  42.646  18.112   8.588
 2452POPC   D2A33748  42.400  17.967   8.240
 2452POPC   C3A33749  42.313  18.219   7.900
 2452POPC   C4A33750  42.590  18.485   7.720
 2452POPC   C1B33751  42.044  18.592   8.692
 2452POPC   C2B33752  42.036  18.493   8.256
 2452POPC   C3B33753  42.141  18.699   7.869
 2452POPC   C4B33754  42.160  18.571   7.423
 2453POPC   NC333755   7.981  12.049   9.660
 2453POPC   PO433756   8.647  12.150   9.614
 2453POPC   GL133757   8.276  12.101   9.247
 2453POPC   GL233758   7.926  11.943   9.183
 2453POPC   C1A33759   8.137  12.237   8.810
 2453POPC   D2A33760   8.416  12.221   8.439
 2453POPC   C3A33761   8.275  12.287   8.051
 2453POPC   C4A33762   8.313  11.958   7.760
 2453POPC   C1B33763   8.004  11.718   8.809
 2453POPC   C2B33764   7.890  11.544   8.407
 2453POPC   C3B33765   7.794  11.732   8.004
 2453POPC   C4B33766   7.838  12.153   7.788
 2454POPC   NC333767   1.422   2.474   9.520
 2454POPC   PO433768   1.257   3.181   9.582
 2454POPC   GL133769   1.346   2.889   9.206
 2454POPC   GL233770   1.019   2.770   9.194
 2454POPC   C1A33771   1.309   2.762   8.724
 2454POPC   D2A33772   1.055   2.934   8.334
 2454POPC   C3A33773   1.225   2.985   7.876
 2454POPC   C4A33774   1.192   3.017   7.383
 2454POPC   C1B33775   0.898   2.487   8.873
 2454POPC   C2B33776   0.931   2.435   8.422
 2454POPC   C3B33777   0.955   2.565   7.986
 2454POPC   C4B33778   1.013   2.579   7.527
 2455POPC   NC333779  11.145  36.607   9.594
 2455POPC   PO433780  11.390  37.181   9.529
 2455POPC   GL133781  11.229  36.963   9.199
 2455POPC   GL233782  10.992  37.216   9.138
 2455POPC   C1A33783  11.404  36.711   8.835
 2455POPC   D2A33784  11.514  36.778   8.369
 2455POPC   C3A33785  11.372  36.592   7.972
 2455POPC   C4A33786  11.042  36.720   7.688
 2455POPC   C1B33787  11.175  37.167   8.732
 2455POPC   C2B33788  11.359  37.262   8.353
 2455POPC   C3B33789  11.490  37.196   7.963
 2455POPC   C4B33790  11.269  37.168   7.619
 2456POPC   NC333791  32.442   9.305   9.511
 2456POPC   PO433792  33.012   8.821   9.504
 2456POPC   GL133793  32.985   9.137   9.230
 2456POPC   GL233794  33.334   9.164   9.090
 2456POPC   C1A33795  32.720   9.193   8.888
 2456POPC   D2A33796  32.837   9.221   8.466
 2456POPC   C3A33797  32.686   8.952   8.144
 2456POPC   C4A33798  32.834   9.117   7.757
 2456POPC   C1B33799  33.141   8.913   8.775
 2456POPC   C2B33800  33.124   8.757   8.341
 2456POPC   C3B33801  33.272   8.941   7.955
 2456POPC   C4B33802  33.246   8.926   7.490
 2457POPC   NC333803   7.703  27.269   9.535
 2457POPC   PO433804   7.423  27.899   9.500
 2457POPC   GL133805   7.337  27.755   9.041
 2457POPC   GL233806   7.406  27.396   9.088
 2457POPC   C1A33807   7.097  27.521   8.715
 2457POPC   D2A33808   7.034  27.389   8.297
 2457POPC   C3A33809   7.073  27.727   7.991
 2457POPC   C4A33810   7.444  27.757   7.766
 2457POPC   C1B33811   7.647  27.539   8.703
 2457POPC   C2B33812   7.498  27.632   8.288
 2457POPC   C3B33813   7.417  27.309   7.972
 2457POPC   C4B33814   7.397  27.288   7.512
 2458POPC   NC333815  42.921  44.303   9.387
 2458POPC   PO433816  43.239  43.716   9.417
 2458POPC   GL133817  43.042  43.908   9.081
 2458POPC   GL233818  42.723  43.791   9.218
 2458POPC   C1A33819  43.164  43.940   8.632
 2458POPC   D2A33820  43.453  43.833   8.257
 2458POPC   C3A33821  43.330  43.892   7.805
 2458POPC   C4A33822  43.542  43.797   7.404
 2458POPC   C1B33823  42.720  43.666   8.767
 2458POPC   C2B33824  42.722  43.900   8.360
 2458POPC   C3B33825  42.816  43.784   7.937
 2458POPC   C4B33826  42.879  43.989   7.550
 2459POPC   NC333827  40.658  27.387   9.543
 2459POPC   PO433828  40.968  28.000   9.480
 2459POPC   GL133829  40.797  27.776   9.122
 2459POPC   GL233830  40.626  27.451   9.044
 2459POPC   C1A33831  40.702  27.828   8.700
 2459POPC   D2A33832  40.701  27.542   8.374
 2459POPC   C3A33833  40.734  27.752   7.986
 2459POPC   C4A33834  40.466  27.737   7.656
 2459POPC   C1B33835  40.349  27.316   8.723
 2459POPC   C2B33836  40.377  27.118   8.309
 2459POPC   C3B33837  40.602  27.237   7.920
 2459POPC   C4B33838  40.473  27.254   7.488
 2460POPC   NC333839   3.317  20.510   9.876
 2460POPC   PO433840   3.658  20.689   9.401
 2460POPC   GL133841   3.437  20.480   9.144
 2460POPC   GL233842   3.152  20.644   9.254
 2460POPC   C1A33843   3.646  20.487   8.758
 2460POPC   D2A33844   3.831  20.724   8.453
 2460POPC   C3A33845   3.731  20.483   8.105
 2460POPC   C4A33846   3.873  20.674   7.732
 2460POPC   C1B33847   3.085  20.636   8.814
 2460POPC   C2B33848   3.245  20.474   8.443
 2460POPC   C3B33849   3.185  20.535   8.047
 2460POPC   C4B33850   3.162  20.653   7.645
 2461POPC   NC333851  10.599  12.113   9.453
 2461POPC   PO433852   9.965  12.029   9.313
 2461POPC   GL133853  10.331  11.905   9.041
 2461POPC   GL233854  10.681  11.768   9.057
 2461POPC   C1A33855  10.638  12.144   8.755
 2461POPC   D2A33856  10.797  12.034   8.335
 2461POPC   C3A33857  10.804  12.281   7.994
 2461POPC   C4A33858  10.857  12.429   7.593
 2461POPC   C1B33859  10.689  11.641   8.645
 2461POPC   C2B33860  10.527  11.627   8.221
 2461POPC   C3B33861  10.678  11.800   7.848
 2461POPC   C4B33862  10.596  12.010   7.451
 2462POPC   NC333863  28.068  44.829   9.498
 2462POPC   PO433864  27.463  44.568   9.446
 2462POPC   GL133865  27.750  44.666   9.135
 2462POPC   GL233866  27.892  44.408   9.088
 2462POPC   C1A33867  27.881  44.756   8.697
 2462POPC   D2A33868  27.701   0.022   8.390
 2462POPC   C3A33869  27.911   0.072   8.058
 2462POPC   C4A33870  27.671  44.878   7.750
 2462POPC   C1B33871  27.487  44.420   8.774
 2462POPC   C2B33872  27.443  44.592   8.346
 2462POPC   C3B33873  27.535  44.420   7.926
 2462POPC   C4B33874  27.530  44.128   7.549
 2463POPC   NC333875   1.782  34.170   9.430
 2463POPC   PO433876   2.263  33.626   9.387
 2463POPC   GL133877   2.092  33.939   9.089
 2463POPC   GL233878   1.696  33.853   9.038
 2463POPC   C1A33879   1.940  34.150   8.704
 2463POPC   D2A33880   1.762  34.175   8.272
 2463POPC   C3A33881   2.102  34.045   8.010
 2463POPC   C4A33882   2.252  33.636   7.920
 2463POPC   C1B33883   1.509  33.543   8.731
 2463POPC   C2B33884   1.601  33.355   8.333
 2463POPC   C3B33885   1.721  33.614   7.983
 2463POPC   C4B33886   1.471  33.661   7.639
 2464POPC   NC333887  33.874  35.270   9.636
 2464POPC   PO433888  33.296  35.547   9.616
 2464POPC   GL133889  33.437  35.525   9.203
 2464POPC   GL233890  33.513  35.202   9.252
 2464POPC   C1A33891  33.760  35.414   8.869
 2464POPC   D2A33892  33.957  35.430   8.461
 2464POPC   C3A33893  33.677  35.559   8.125
 2464POPC   C4A33894  33.814  35.399   7.760
 2464POPC   C1B33895  33.349  35.064   8.882
 2464POPC   C2B33896  33.474  35.220   8.473
 2464POPC   C3B33897  33.608  35.029   8.067
 2464POPC   C4B33898  33.556  34.987   7.592
 2465POPC   NC333899  21.780  21.647   9.285
 2465POPC   PO433900  22.438  21.756   9.551
 2465POPC   GL133901  22.481  21.426   9.151
 2465POPC   GL233902  22.110  21.257   9.117
 2465POPC   C1A33903  22.347  21.307   8.679
 2465POPC   D2A33904  22.396  21.192   8.246
 2465POPC   C3A33905  22.214  21.492   7.970
 2465POPC   C4A33906  22.327  21.325   7.604
 2465POPC   C1B33907  21.845  21.173   8.734
 2465POPC   C2B33908  21.862  21.232   8.284
 2465POPC   C3B33909  21.967  21.075   7.873
 2465POPC   C4B33910  21.897  21.180   7.389
 2466POPC   NC333911  13.136  14.290   9.581
 2466POPC   PO433912  12.604  14.695   9.530
 2466POPC   GL133913  12.878  14.556   9.225
 2466POPC   GL233914  12.820  14.190   9.159
 2466POPC   C1A33915  12.882  14.545   8.791
 2466POPC   D2A33916  12.528  14.590   8.521
 2466POPC   C3A33917  12.667  14.690   8.116
 2466POPC   C4A33918  12.799  14.728   7.697
 2466POPC   C1B33919  12.654  14.077   8.735
 2466POPC   C2B33920  12.845  14.223   8.342
 2466POPC   C3B33921  12.856  14.233   7.881
 2466POPC   C4B33922  13.062  14.323   7.472
 2467POPC   NC333923  21.603  12.554   9.371
 2467POPC   PO433924  21.435  11.857   9.462
 2467POPC   GL133925  21.454  12.139   9.135
 2467POPC   GL233926  21.199  12.045   9.028
 2467POPC   C1A33927  21.519  12.357   8.729
 2467POPC   D2A33928  21.849  12.450   8.452
 2467POPC   C3A33929  21.733  12.313   8.067
 2467POPC   C4A33930  21.464  12.129   7.805
 2467POPC   C1B33931  21.237  11.937   8.642
 2467POPC   C2B33932  21.173  12.214   8.305
 2467POPC   C3B33933  21.002  12.005   7.958
 2467POPC   C4B33934  21.114  11.640   7.805
 2468POPC   NC333935  37.477  40.888   9.629
 2468POPC   PO433936  38.010  41.026   9.412
 2468POPC   GL133937  37.783  40.840   9.098
 2468POPC   GL233938  37.429  40.875   9.096
 2468POPC   C1A33939  37.927  40.701   8.722
 2468POPC   D2A33940  37.765  40.838   8.360
 2468POPC   C3A33941  37.980  40.724   8.002
 2468POPC   C4A33942  38.295  40.936   7.758
 2468POPC   C1B33943  37.392  41.148   8.751
 2468POPC   C2B33944  37.372  41.149   8.311
 2468POPC   C3B33945  37.492  40.938   7.920
 2468POPC   C4B33946  37.295  41.159   7.567
 2469POPC   NC333947  25.484  37.513   9.523
 2469POPC   PO433948  24.900  37.902   9.583
 2469POPC   GL133949  25.152  37.707   9.219
 2469POPC   GL233950  25.449  37.835   9.066
 2469POPC   C1A33951  25.205  37.447   8.842
 2469POPC   D2A33952  25.103  37.493   8.392
 2469POPC   C3A33953  25.306  37.554   8.000
 2469POPC   C4A33954  24.998  37.732   7.745
 2469POPC   C1B33955  25.521  38.185   8.788
 2469POPC   C2B33956  25.734  38.191   8.430
 2469POPC   C3B33957  25.627  38.044   8.032
 2469POPC   C4B33958  25.616  38.284   7.693
 2470POPC   NC333959  21.263  12.935   9.651
 2470POPC   PO433960  21.825  12.949   9.276
 2470POPC   GL133961  21.514  12.858   8.982
 2470POPC   GL233962  21.233  12.631   9.039
 2470POPC   C1A33963  21.549  12.860   8.601
 2470POPC   D2A33964  21.414  12.675   8.250
 2470POPC   C3A33965  21.605  12.775   7.883
 2470POPC   C4A33966  21.531  12.901   7.490
 2470POPC   C1B33967  21.062  12.703   8.630
 2470POPC   C2B33968  21.016  13.008   8.265
 2470POPC   C3B33969  21.081  12.890   7.851
 2470POPC   C4B33970  21.133  12.491   7.855
 2471POPC   NC333971  30.791  17.256   9.975
 2471POPC   PO433972  30.690  17.847   9.695
 2471POPC   GL133973  30.891  17.788   9.295
 2471POPC   GL233974  30.566  17.824   9.191
 2471POPC   C1A33975  30.861  17.604   8.823
 2471POPC   D2A33976  31.006  17.485   8.372
 2471POPC   C3A33977  30.872  17.381   7.902
 2471POPC   C4A33978  30.541  17.242   7.583
 2471POPC   C1B33979  30.526  18.014   8.795
 2471POPC   C2B33980  30.535  17.731   8.446
 2471POPC   C3B33981  30.419  17.625   8.037
 2471POPC   C4B33982  30.588  17.741   7.672
 2472POPC   NC333983  24.308   7.268   9.541
 2472POPC   PO433984  24.748   7.720   9.419
 2472POPC   GL133985  24.445   7.576   9.131
 2472POPC   GL233986  24.540   7.236   9.106
 2472POPC   C1A33987  24.590   7.524   8.694
 2472POPC   D2A33988  24.992   7.604   8.509
 2472POPC   C3A33989  24.911   7.776   8.095
 2472POPC   C4A33990  24.643   7.632   7.784
 2472POPC   C1B33991  24.383   7.060   8.749
 2472POPC   C2B33992  24.279   7.236   8.333
 2472POPC   C3B33993  24.430   7.177   7.897
 2472POPC   C4B33994  24.374   6.943   7.494
 2473POPC   NC333995  27.930  40.986   9.278
 2473POPC   PO433996  28.407  40.740   9.620
 2473POPC   GL133997  28.455  40.820   9.185
 2473POPC   GL233998  28.415  40.505   9.082
 2473POPC   C1A33999  28.394  40.923   8.745
 2473POPC   D2A34000  28.456  40.723   8.346
 2473POPC   C3A34001  28.426  40.863   7.914
 2473POPC   C4A34002  28.536  40.685   7.481
 2473POPC   C1B34003  28.094  40.481   8.765
 2473POPC   C2B34004  27.963  40.536   8.373
 2473POPC   C3B34005  28.184  40.427   8.011
 2473POPC   C4B34006  28.049  40.549   7.615
 2474POPC   NC334007  33.604   7.461   9.468
 2474POPC   PO434008  34.293   7.427   9.479
 2474POPC   GL134009  34.008   7.504   9.125
 2474POPC   GL234010  33.795   7.200   9.076
 2474POPC   C1A34011  34.035   7.426   8.688
 2474POPC   D2A34012  33.827   7.179   8.422
 2474POPC   C3A34013  33.762   7.412   8.078
 2474POPC   C4A34014  34.054   7.650   7.829
 2474POPC   C1B34015  33.539   7.428   8.764
 2474POPC   C2B34016  33.313   7.521   8.397
 2474POPC   C3B34017  33.346   7.806   8.057
 2474POPC   C4B34018  33.568   7.695   7.710
 2475POPC   NC334019  13.107  40.256   9.675
 2475POPC   PO434020  12.582  39.957   9.481
 2475POPC   GL134021  12.740  39.902   9.114
 2475POPC   GL234022  13.021  39.756   9.247
 2475POPC   C1A34023  12.588  39.776   8.702
 2475POPC   D2A34024  12.361  39.922   8.338
 2475POPC   C3A34025  12.672  39.980   8.083
 2475POPC   C4A34026  12.824  40.024   7.719
 2475POPC   C1B34027  13.096  39.627   8.814
 2475POPC   C2B34028  13.032  39.799   8.411
 2475POPC   C3B34029  13.077  39.647   7.984
 2475POPC   C4B34030  13.170  39.597   7.537
 2476POPC   NC334031  35.443   7.278   9.581
 2476POPC   PO434032  35.105   7.851   9.672
 2476POPC   GL134033  35.182   7.749   9.198
 2476POPC   GL234034  35.499   7.559   9.162
 2476POPC   C1A34035  35.247   7.603   8.733
 2476POPC   D2A34036  35.224   7.250   8.432
 2476POPC   C3A34037  35.107   7.331   7.986
 2476POPC   C4A34038  35.219   7.640   7.663
 2476POPC   C1B34039  35.552   7.157   8.919
 2476POPC   C2B34040  35.673   7.022   8.525
 2476POPC   C3B34041  35.762   7.324   8.261
 2476POPC   C4B34042  35.636   7.344   7.871
 2477POPC   NC334043   8.258  31.779   9.558
 2477POPC   PO434044   7.786  32.206   9.502
 2477POPC   GL134045   7.848  32.261   9.113
 2477POPC   GL234046   8.185  32.107   9.118
 2477POPC   C1A34047   7.824  32.216   8.693
 2477POPC   D2A34048   8.105  32.281   8.355
 2477POPC   C3A34049   7.938  32.477   7.992
 2477POPC   C4A34050   8.066  32.386   7.585
 2477POPC   C1B34051   8.258  31.907   8.719
 2477POPC   C2B34052   8.365  31.801   8.311
 2477POPC   C3B34053   8.330  32.025   7.927
 2477POPC   C4B34054   8.260  31.817   7.558
 2478POPC   NC334055  15.464  24.543   9.559
 2478POPC   PO434056  16.057  24.142   9.530
 2478POPC   GL134057  16.216  24.255   9.165
 2478POPC   GL234058  16.056  24.597   9.114
 2478POPC   C1A34059  16.082  24.195   8.772
 2478POPC   D2A34060  16.171  24.330   8.366
 2478POPC   C3A34061  16.286  24.114   7.991
 2478POPC   C4A34062  16.056  24.268   7.673
 2478POPC   C1B34063  15.780  24.597   8.735
 2478POPC   C2B34064  15.676  24.589   8.293
 2478POPC   C3B34065  15.770  24.691   7.863
 2478POPC   C4B34066  15.496  24.862   7.537
 2479POPC   NC334067   9.548  34.963   9.198
 2479POPC   PO434068   9.407  34.393   9.457
 2479POPC   GL134069   9.773  34.439   9.144
 2479POPC   GL234070  10.106  34.598   9.042
 2479POPC   C1A34071   9.759  34.497   8.697
 2479POPC   D2A34072   9.488  34.555   8.386
 2479POPC   C3A34073   9.735  34.360   8.081
 2479POPC   C4A34074   9.655  34.410   7.670
 2479POPC   C1B34075   9.989  34.948   8.727
 2479POPC   C2B34076   9.659  35.038   8.489
 2479POPC   C3B34077   9.773  34.876   8.083
 2479POPC   C4B34078  10.072  34.696   7.786
 2480POPC   NC334079   0.933  21.738   9.213
 2480POPC   PO434080   1.285  22.197   9.592
 2480POPC   GL134081   1.163  22.268   9.202
 2480POPC   GL234082   1.357  21.997   9.072
 2480POPC   C1A34083   1.247  22.408   8.779
 2480POPC   D2A34084   1.186  22.178   8.400
 2480POPC   C3A34085   1.013  22.353   8.025
 2480POPC   C4A34086   1.120  22.518   7.633
 2480POPC   C1B34087   1.267  21.734   8.684
 2480POPC   C2B34088   1.094  21.681   8.299
 2480POPC   C3B34089   1.243  21.881   7.982
 2480POPC   C4B34090   1.160  22.011   7.616
 2481POPC   NC334091  33.816  21.755   9.345
 2481POPC   PO434092  33.421  22.110   9.769
 2481POPC   GL134093  33.584  22.182   9.233
 2481POPC   GL234094  33.427  22.444   9.029
 2481POPC   C1A34095  33.699  22.039   8.774
 2481POPC   D2A34096  33.985  21.882   8.436
 2481POPC   C3A34097  33.933  22.016   8.026
 2481POPC   C4A34098  33.600  21.860   7.796
 2481POPC   C1B34099  33.540  22.502   8.619
 2481POPC   C2B34100  33.546  22.223   8.283
 2481POPC   C3B34101  33.592  22.377   7.862
 2481POPC   C4B34102  33.437  22.782   7.819
 2482POPC   NC334103  18.619  28.987   9.309
 2482POPC   PO434104  17.926  29.356   9.458
 2482POPC   GL134105  18.163  29.191   9.165
 2482POPC   GL234106  18.148  28.840   9.163
 2482POPC   C1A34107  18.269  29.230   8.761
 2482POPC   D2A34108  18.273  29.536   8.469
 2482POPC   C3A34109  18.308  29.391   8.101
 2482POPC   C4A34110  18.194  29.098   7.795
 2482POPC   C1B34111  18.377  28.728   8.751
 2482POPC   C2B34112  18.321  28.920   8.337
 2482POPC   C3B34113  18.434  28.668   7.997
 2482POPC   C4B34114  18.330  28.658   7.576
 2483POPC   NC334115  15.486  40.395   9.488
 2483POPC   PO434116  14.843  40.745   9.479
 2483POPC   GL134117  14.914  40.525   9.106
 2483POPC   GL234118  15.265  40.542   9.067
 2483POPC   C1A34119  14.929  40.691   8.701
 2483POPC   D2A34120  14.847  40.518   8.344
 2483POPC   C3A34121  15.039  40.687   7.991
 2483POPC   C4A34122  15.383  40.632   7.697
 2483POPC   C1B34123  15.430  40.790   8.743
 2483POPC   C2B34124  15.264  40.949   8.369
 2483POPC   C3B34125  15.386  41.079   7.950
 2483POPC   C4B34126  15.429  41.239   7.510
 2484POPC   NC334127  13.799  14.317   9.350
 2484POPC   PO434128  13.355  14.703   9.582
 2484POPC   GL134129  13.377  14.619   9.155
 2484POPC   GL234130  13.339  14.251   9.119
 2484POPC   C1A34131  13.390  14.558   8.712
 2484POPC   D2A34132  13.646  14.384   8.425
 2484POPC   C3A34133  13.602  14.521   8.033
 2484POPC   C4A34134  13.891  14.641   7.739
 2484POPC   C1B34135  13.165  14.078   8.753
 2484POPC   C2B34136  13.305  14.011   8.332
 2484POPC   C3B34137  13.417  14.039   7.901
 2484POPC   C4B34138  13.552  14.310   7.550
 2485POPC   NC334139  25.175   2.933   9.722
 2485POPC   PO434140  25.683   3.360   9.541
 2485POPC   GL134141  25.506   3.532   9.089
 2485POPC   GL234142  25.151   3.664   9.079
 2485POPC   C1A34143  25.444   3.631   8.673
 2485POPC   D2A34144  25.126   3.639   8.395
 2485POPC   C3A34145  25.340   3.575   8.044
 2485POPC   C4A34146  25.292   3.460   7.627
 2485POPC   C1B34147  25.069   3.984   8.777
 2485POPC   C2B34148  24.809   4.063   8.449
 2485POPC   C3B34149  24.948   4.080   8.109
 2485POPC   C4B34150  25.051   3.880   7.765
 2486POPC   NC334151  33.022  36.937   9.542
 2486POPC   PO434152  32.529  37.275   9.271
 2486POPC   GL134153  32.851  37.002   9.066
 2486POPC   GL234154  33.233  37.047   9.095
 2486POPC   C1A34155  33.011  36.850   8.661
 2486POPC   D2A34156  32.800  36.845   8.253
 2486POPC   C3A34157  32.836  37.108   7.894
 2486POPC   C4A34158  32.944  36.687   7.694
 2486POPC   C1B34159  33.446  37.161   8.709
 2486POPC   C2B34160  33.464  36.938   8.340
 2486POPC   C3B34161  33.295  36.957   7.988
 2486POPC   C4B34162  33.263  37.049   7.569
 2487POPC   NC334163  31.653  34.846   9.570
 2487POPC   PO434164  31.687  34.249   9.394
 2487POPC   GL134165  31.517  34.447   9.071
 2487POPC   GL234166  31.609  34.809   9.069
 2487POPC   C1A34167  31.367  34.310   8.679
 2487POPC   D2A34168  31.395  34.592   8.337
 2487POPC   C3A34169  31.642  34.551   7.976
 2487POPC   C4A34170  31.419  34.686   7.637
 2487POPC   C1B34171  31.244  34.794   8.800
 2487POPC   C2B34172  30.975  34.920   8.488
 2487POPC   C3B34173  30.960  34.763   8.086
 2487POPC   C4B34174  30.941  34.896   7.677
 2488POPC   NC334175  38.335  16.629   9.923
 2488POPC   PO434176  38.129  16.970   9.369
 2488POPC   GL134177  38.461  16.815   9.072
 2488POPC   GL234178  38.218  16.665   8.909
 2488POPC   C1A34179  38.768  16.779   8.777
 2488POPC   D2A34180  38.922  16.848   8.393
 2488POPC   C3A34181  38.634  17.004   8.119
 2488POPC   C4A34182  38.482  16.774   7.806
 2488POPC   C1B34183  38.029  16.863   8.595
 2488POPC   C2B34184  38.157  16.823   8.184
 2488POPC   C3B34185  37.973  16.756   7.779
 2488POPC   C4B34186  37.897  16.555   7.382
 2489POPC   NC334187  23.199  29.751   9.895
 2489POPC   PO434188  23.226  29.120   9.563
 2489POPC   GL134189  23.066  29.053   9.140
 2489POPC   GL234190  22.784  28.868   9.141
 2489POPC   C1A34191  23.081  28.968   8.713
 2489POPC   D2A34192  23.216  29.152   8.367
 2489POPC   C3A34193  23.114  28.900   8.021
 2489POPC   C4A34194  23.117  29.079   7.636
 2489POPC   C1B34195  22.579  28.973   8.733
 2489POPC   C2B34196  22.692  29.075   8.329
 2489POPC   C3B34197  22.692  29.192   7.906
 2489POPC   C4B34198  22.705  29.576   7.737
 2490POPC   NC334199  43.257  29.184   9.486
 2490POPC   PO434200  42.624  28.880   9.487
 2490POPC   GL134201  42.887  29.063   9.160
 2490POPC   GL234202  43.108  28.822   9.133
 2490POPC   C1A34203  43.143  29.263   8.812
 2490POPC   D2A34204  43.323  29.420   8.415
 2490POPC   C3A34205  43.179  29.228   8.060
 2490POPC   C4A34206  42.988  29.200   7.667
 2490POPC   C1B34207  43.324  28.775   8.803
 2490POPC   C2B34208  43.406  28.899   8.417
 2490POPC   C3B34209  43.320  28.696   8.088
 2490POPC   C4B34210  43.285  28.798   7.702
 2491POPC   NC334211  10.951  12.913   9.610
 2491POPC   PO434212  11.386  12.477   9.485
 2491POPC   GL134213  11.295  12.863   9.175
 2491POPC   GL234214  11.037  13.125   9.171
 2491POPC   C1A34215  11.364  13.019   8.753
 2491POPC   D2A34216  11.268  12.770   8.421
 2491POPC   C3A34217  11.311  12.859   8.004
 2491POPC   C4A34218  11.311  12.444   7.826
 2491POPC   C1B34219  10.852  13.025   8.795
 2491POPC   C2B34220  10.972  13.188   8.402
 2491POPC   C3B34221  10.796  13.250   8.032
 2491POPC   C4B34222  10.977  13.092   7.693
 2492POPC   NC334223  22.123  32.221   9.865
 2492POPC   PO434224  22.704  32.469   9.518
 2492POPC   GL134225  22.316  32.366   9.207
 2492POPC   GL234226  22.139  32.064   9.261
 2492POPC   C1A34227  22.038  32.275   8.804
 2492POPC   D2A34228  22.167  32.331   8.347
 2492POPC   C3A34229  22.103  32.180   7.904
 2492POPC   C4A34230  21.981  32.341   7.482
 2492POPC   C1B34231  22.363  31.877   8.889
 2492POPC   C2B34232  22.325  31.809   8.422
 2492POPC   C3B34233  22.209  31.671   7.973
 2492POPC   C4B34234  22.196  31.834   7.523
 2493POPC   NC334235  26.383  30.745   9.811
 2493POPC   PO434236  26.973  30.634   9.601
 2493POPC   GL134237  26.937  30.659   9.131
 2493POPC   GL234238  26.953  30.350   9.131
 2493POPC   C1A34239  26.651  30.690   8.736
 2493POPC   D2A34240  26.562  30.936   8.343
 2493POPC   C3A34241  26.587  30.681   7.992
 2493POPC   C4A34242  26.962  30.673   7.778
 2493POPC   C1B34243  27.119  30.551   8.692
 2493POPC   C2B34244  27.029  30.536   8.269
 2493POPC   C3B34245  27.023  30.193   7.942
 2493POPC   C4B34246  27.066  30.289   7.470
 2494POPC   NC334247  11.399  18.693   9.546
 2494POPC   PO434248  11.599  18.075   9.584
 2494POPC   GL134249  11.624  18.357   9.178
 2494POPC   GL234250  11.403  18.639   9.035
 2494POPC   C1A34251  11.492  18.204   8.754
 2494POPC   D2A34252  11.175  18.151   8.420
 2494POPC   C3A34253  11.306  18.198   8.004
 2494POPC   C4A34254  11.303  18.180   7.551
 2494POPC   C1B34255  11.293  18.642   8.545
 2494POPC   C2B34256  11.007  18.585   8.137
 2494POPC   C3B34257  10.855  18.273   7.767
 2494POPC   C4B34258  10.899  17.858   7.461
 2495POPC   NC334259   2.849   1.085   9.476
 2495POPC   PO434260   2.351   1.573   9.389
 2495POPC   GL134261   2.639   1.359   9.100
 2495POPC   GL234262   2.984   1.421   9.112
 2495POPC   C1A34263   2.873   1.056   8.789
 2495POPC   D2A34264   2.801   0.894   8.381
 2495POPC   C3A34265   2.930   1.064   8.007
 2495POPC   C4A34266   2.505   1.108   7.769
 2495POPC   C1B34267   2.982   1.566   8.735
 2495POPC   C2B34268   2.883   1.428   8.359
 2495POPC   C3B34269   2.737   1.509   7.961
 2495POPC   C4B34270   2.908   1.325   7.552
 2496POPC   NC334271  13.357  23.244   9.601
 2496POPC   PO434272  13.491  22.573   9.548
 2496POPC   GL134273  13.566  22.862   9.225
 2496POPC   GL234274  13.267  22.984   9.140
 2496POPC   C1A34275  13.602  22.851   8.761
 2496POPC   D2A34276  13.941  23.061   8.552
 2496POPC   C3A34277  14.001  23.103   8.103
 2496POPC   C4A34278  13.880  23.123   7.643
 2496POPC   C1B34279  13.222  23.204   8.735
 2496POPC   C2B34280  13.057  23.138   8.392
 2496POPC   C3B34281  13.380  22.905   8.233
 2496POPC   C4B34282  13.424  23.032   7.830
 2497POPC   NC334283   2.555   5.544   9.562
 2497POPC   PO434284   2.407   4.959   9.474
 2497POPC   GL134285   2.574   5.189   9.166
 2497POPC   GL234286   2.324   5.460   9.125
 2497POPC   C1A34287   2.862   5.063   8.827
 2497POPC   D2A34288   3.005   5.215   8.437
 2497POPC   C3A34289   2.886   5.002   8.112
 2497POPC   C4A34290   3.043   5.055   7.745
 2497POPC   C1B34291   2.516   5.421   8.727
 2497POPC   C2B34292   2.508   5.315   8.338
 2497POPC   C3B34293   2.489   5.532   7.997
 2497POPC   C4B34294   2.378   5.343   7.664
 2498POPC   NC334295  41.799  36.292   9.426
 2498POPC   PO434296  41.189  36.523   9.478
 2498POPC   GL134297  41.410  36.362   9.106
 2498POPC   GL234298  41.433  35.989   9.169
 2498POPC   C1A34299  41.539  36.442   8.672
 2498POPC   D2A34300  41.465  36.219   8.302
 2498POPC   C3A34301  41.404  36.405   7.936
 2498POPC   C4A34302  41.477  36.239   7.586
 2498POPC   C1B34303  41.595  35.902   8.756
 2498POPC   C2B34304  41.675  35.716   8.352
 2498POPC   C3B34305  41.627  35.812   7.923
 2498POPC   C4B34306  41.389  35.726   7.557
 2499POPC   NC334307  22.668   5.109   9.649
 2499POPC   PO434308  23.331   5.136   9.538
 2499POPC   GL134309  22.973   5.022   9.255
 2499POPC   GL234310  22.963   5.310   9.121
 2499POPC   C1A34311  22.868   4.924   8.800
 2499POPC   D2A34312  23.050   4.835   8.372
 2499POPC   C3A34313  22.785   4.893   7.961
 2499POPC   C4A34314  22.686   4.871   7.511
 2499POPC   C1B34315  23.245   5.297   8.773
 2499POPC   C2B34316  23.427   5.346   8.357
 2499POPC   C3B34317  23.312   5.495   7.945
 2499POPC   C4B34318  22.970   5.318   7.674
 2500POPC   NC334319   4.695  19.147   9.550
 2500POPC   PO434320   5.084  19.567   9.623
 2500POPC   GL134321   4.971  19.391   9.167
 2500POPC   GL234322   4.726  19.101   9.050
 2500POPC   C1A34323   5.069  19.290   8.699
 2500POPC   D2A34324   5.311  19.357   8.285
 2500POPC   C3A34325   5.178  19.198   7.866
 2500POPC   C4A34326   5.168  19.042   7.427
 2500POPC   C1B34327   4.618  18.994   8.608
 2500POPC   C2B34328   4.835  18.941   8.192
 2500POPC   C3B34329   4.769  18.825   7.747
 2500POPC   C4B34330   4.706  18.869   7.295
 2501POPC   NC334331  10.307   3.400   9.736
 2501POPC   PO434332  10.689   3.801   9.491
 2501POPC   GL134333  10.625   3.631   9.132
 2501POPC   GL234334  10.248   3.666   9.217
 2501POPC   C1A34335  10.949   3.706   8.810
 2501POPC   D2A34336  10.892   3.907   8.413
 2501POPC   C3A34337  10.815   3.560   8.153
 2501POPC   C4A34338  10.875   3.541   7.743
 2501POPC   C1B34339  10.230   3.545   8.791
 2501POPC   C2B34340  10.359   3.680   8.368
 2501POPC   C3B34341  10.169   3.699   7.953
 2501POPC   C4B34342  10.224   3.506   7.536
 2502POPC   NC334343   1.425  28.774   9.569
 2502POPC   PO434344   1.557  29.496   9.583
 2502POPC   GL134345   1.355  29.217   9.280
 2502POPC   GL234346   1.647  29.070   9.161
 2502POPC   C1A34347   1.243  29.181   8.826
 2502POPC   D2A34348   1.234  29.455   8.432
 2502POPC   C3A34349   1.142  29.288   8.009
 2502POPC   C4A34350   0.791  29.372   7.673
 2502POPC   C1B34351   1.658  28.883   8.755
 2502POPC   C2B34352   1.414  28.947   8.365
 2502POPC   C3B34353   1.438  28.831   7.944
 2502POPC   C4B34354   1.604  29.046   7.605
 2503POPC   NC334355  40.329  34.014   9.447
 2503POPC   PO434356  39.830  33.497   9.456
 2503POPC   GL134357  40.016  33.705   9.116
 2503POPC   GL234358  40.352  33.573   9.162
 2503POPC   C1A34359  39.982  34.039   8.765
 2503POPC   D2A34360  40.167  34.047   8.343
 2503POPC   C3A34361  39.942  34.021   7.948
 2503POPC   C4A34362  40.070  33.937   7.499
 2503POPC   C1B34363  40.394  33.730   8.747
 2503POPC   C2B34364  40.388  33.569   8.325
 2503POPC   C3B34365  40.252  33.617   7.886
 2503POPC   C4B34366  40.146  33.451   7.465
 2504POPC   NC334367   0.239  22.697   9.718
 2504POPC   PO434368   0.882  23.086   9.709
 2504POPC   GL134369   0.629  22.903   9.325
 2504POPC   GL234370   0.273  22.755   9.208
 2504POPC   C1A34371   0.522  23.092   8.901
 2504POPC   D2A34372   0.459  23.132   8.458
 2504POPC   C3A34373   0.292  22.845   8.115
 2504POPC   C4A34374   0.283  22.948   7.666
 2504POPC   C1B34375   0.320  22.664   8.736
 2504POPC   C2B34376   0.318  22.363   8.429
 2504POPC   C3B34377   0.500  22.346   8.051
 2504POPC   C4B34378   0.369  22.450   7.682
 2505POPC   NC334379  25.604   2.193   9.450
 2505POPC   PO434380  24.927   2.421   9.453
 2505POPC   GL134381  25.211   2.240   9.135
 2505POPC   GL234382  25.307   1.873   9.095
 2505POPC   C1A34383  25.469   2.229   8.781
 2505POPC   D2A34384  25.430   2.406   8.390
 2505POPC   C3A34385  25.494   2.232   8.005
 2505POPC   C4A34386  25.132   2.170   7.762
 2505POPC   C1B34387  25.606   1.736   8.761
 2505POPC   C2B34388  25.558   1.892   8.390
 2505POPC   C3B34389  25.354   1.724   8.055
 2505POPC   C4B34390  25.465   1.794   7.670
 2506POPC   NC334391  24.935   2.919   9.281
 2506POPC   PO434392  25.501   2.641   9.571
 2506POPC   GL134393  25.389   2.713   9.186
 2506POPC   GL234394  25.436   3.042   9.175
 2506POPC   C1A34395  25.244   2.698   8.769
 2506POPC   D2A34396  25.388   2.910   8.390
 2506POPC   C3A34397  25.291   2.708   8.006
 2506POPC   C4A34398  25.529   2.628   7.648
 2506POPC   C1B34399  25.181   3.214   8.775
 2506POPC   C2B34400  24.928   3.141   8.381
 2506POPC   C3B34401  25.033   3.145   7.939
 2506POPC   C4B34402  25.189   2.979   7.529
 2507POPC   NC334403  19.197  43.394   9.401
 2507POPC   PO434404  18.962  42.830   9.373
 2507POPC   GL134405  18.946  43.077   9.094
 2507POPC   GL234406  18.614  43.116   9.100
 2507POPC   C1A34407  19.194  43.141   8.736
 2507POPC   D2A34408  19.407  43.081   8.377
 2507POPC   C3A34409  19.247  43.198   8.025
 2507POPC   C4A34410  19.450  43.205   7.663
 2507POPC   C1B34411  18.699  43.161   8.677
 2507POPC   C2B34412  18.849  42.982   8.305
 2507POPC   C3B34413  18.786  43.022   7.889
 2507POPC   C4B34414  18.923  43.346   7.594
 2508POPC   NC334415  25.440   4.768   9.500
 2508POPC   PO434416  24.989   5.288   9.499
 2508POPC   GL134417  25.247   5.126   9.171
 2508POPC   GL234418  25.040   4.812   9.170
 2508POPC   C1A34419  25.443   5.046   8.752
 2508POPC   D2A34420  25.499   4.802   8.356
 2508POPC   C3A34421  25.627   4.973   7.931
 2508POPC   C4A34422  25.495   5.133   7.526
 2508POPC   C1B34423  24.947   4.917   8.742
 2508POPC   C2B34424  25.102   5.129   8.379
 2508POPC   C3B34425  25.125   5.048   7.970
 2508POPC   C4B34426  24.828   4.857   7.704
 2509POPC   NC334427  26.956  10.815   9.402
 2509POPC   PO434428  26.699  11.452   9.730
 2509POPC   GL134429  26.596  11.212   9.286
 2509POPC   GL234430  26.884  11.176   9.055
 2509POPC   C1A34431  26.463  11.270   8.803
 2509POPC   D2A34432  26.312  11.479   8.385
 2509POPC   C3A34433  26.533  11.359   7.972
 2509POPC   C4A34434  26.845  11.134   7.700
 2509POPC   C1B34435  27.086  11.111   8.670
 2509POPC   C2B34436  26.980  11.070   8.232
 2509POPC   C3B34437  27.274  11.187   7.938
 2509POPC   C4B34438  27.158  11.551   7.781
 2510POPC   NC334439  40.679  35.883   9.555
 2510POPC   PO434440  40.609  36.524   9.693
 2510POPC   GL134441  40.626  36.310   9.252
 2510POPC   GL234442  40.944  36.163   9.179
 2510POPC   C1A34443  40.612  36.116   8.803
 2510POPC   D2A34444  40.738  36.050   8.345
 2510POPC   C3A34445  40.617  35.977   7.891
 2510POPC   C4A34446  40.465  36.282   7.608
 2510POPC   C1B34447  41.123  36.122   8.733
 2510POPC   C2B34448  41.182  35.817   8.369
 2510POPC   C3B34449  41.136  35.965   7.946
 2510POPC   C4B34450  40.983  36.061   7.504
 2511POPC   NC334451  42.778  33.313   9.464
 2511POPC   PO434452  43.190  32.738   9.517
 2511POPC   GL134453  43.097  33.008   9.180
 2511POPC   GL234454  42.741  32.897   9.128
 2511POPC   C1A34455  42.938  33.218   8.787
 2511POPC   D2A34456  42.940  33.296   8.331
 2511POPC   C3A34457  43.278  33.095   8.120
 2511POPC   C4A34458  43.230  32.941   7.733
 2511POPC   C1B34459  42.943  32.687   8.818
 2511POPC   C2B34460  43.079  32.799   8.476
 2511POPC   C3B34461  42.954  32.677   8.073
 2511POPC   C4B34462  42.896  32.557   7.641
 2512POPC   NC334463  32.895  39.932   9.446
 2512POPC   PO434464  32.859  40.619   9.361
 2512POPC   GL134465  32.789  40.260   9.069
 2512POPC   GL234466  33.105  40.034   9.004
 2512POPC   C1A34467  32.725  40.065   8.671
 2512POPC   D2A34468  32.813  40.192   8.238
 2512POPC   C3A34469  32.857  39.875   7.894
 2512POPC   C4A34470  32.907  39.842   7.392
 2512POPC   C1B34471  33.217  40.228   8.611
 2512POPC   C2B34472  33.467  40.026   8.313
 2512POPC   C3B34473  33.520  39.798   7.974
 2512POPC   C4B34474  33.308  40.031   7.655
 2513POPC   NC334475  36.021  35.735   9.469
 2513POPC   PO434476  36.357  36.379   9.335
 2513POPC   GL134477  36.315  36.055   9.047
 2513POPC   GL234478  35.993  36.051   9.062
 2513POPC   C1A34479  36.212  36.030   8.581
 2513POPC   D2A34480  35.868  36.242   8.365
 2513POPC   C3A34481  35.912  36.416   7.991
 2513POPC   C4A34482  36.221  36.205   7.876
 2513POPC   C1B34483  35.752  35.892   8.742
 2513POPC   C2B34484  35.715  35.657   8.360
 2513POPC   C3B34485  35.893  35.855   8.035
 2513POPC   C4B34486  35.757  36.016   7.664
 2514POPC   NC334487  36.313  43.642   9.587
 2514POPC   PO434488  35.737  43.904   9.399
 2514POPC   GL134489  36.061  44.000   9.079
 2514POPC   GL234490  36.381  43.832   9.115
 2514POPC   C1A34491  35.946  44.073   8.646
 2514POPC   D2A34492  35.820  43.775   8.339
 2514POPC   C3A34493  35.952  43.867   7.944
 2514POPC   C4A34494  35.827  44.196   7.664
 2514POPC   C1B34495  36.268  43.668   8.714
 2514POPC   C2B34496  36.238  43.470   8.306
 2514POPC   C3B34497  36.408  43.598   7.870
 2514POPC   C4B34498  36.429  43.637   7.372
 2515POPC   NC334499  41.397  35.404   9.648
 2515POPC   PO434500  41.867  35.789   9.428
 2515POPC   GL134501  41.627  35.499   9.165
 2515POPC   GL234502  41.248  35.451   9.164
 2515POPC   C1A34503  41.679  35.383   8.748
 2515POPC   D2A34504  41.847  35.134   8.437
 2515POPC   C3A34505  41.792  35.320   8.055
 2515POPC   C4A34506  41.651  35.290   7.634
 2515POPC   C1B34507  41.210  35.175   8.772
 2515POPC   C2B34508  41.346  35.295   8.344
 2515POPC   C3B34509  41.262  35.370   7.924
 2515POPC   C4B34510  41.194  35.256   7.435
 2516POPC   NC334511  35.844  17.024   9.352
 2516POPC   PO434512  36.061  16.551   9.803
 2516POPC   GL134513  36.186  16.635   9.357
 2516POPC   GL234514  36.503  16.714   9.322
 2516POPC   C1A34515  36.105  16.664   8.883
 2516POPC   D2A34516  35.987  16.914   8.519
 2516POPC   C3A34517  36.114  16.698   8.183
 2516POPC   C4A34518  36.087  16.685   7.778
 2516POPC   C1B34519  36.532  16.933   8.904
 2516POPC   C2B34520  36.498  16.897   8.453
 2516POPC   C3B34521  36.413  17.046   7.984
 2516POPC   C4B34522  36.367  17.261   7.581
 2517POPC   NC334523  43.199  37.086   9.384
 2517POPC   PO434524  43.052  37.777   9.381
 2517POPC   GL134525  43.132  37.499   9.102
 2517POPC   GL234526  43.514  37.480   9.125
 2517POPC   C1A34527  42.960  37.253   8.762
 2517POPC   D2A34528  43.159  37.176   8.376
 2517POPC   C3A34529  43.037  37.451   8.030
 2517POPC   C4A34530  42.917  37.322   7.600
 2517POPC   C1B34531  43.397  37.547   8.691
 2517POPC   C2B34532  43.338  37.865   8.392
 2517POPC   C3B34533  43.147  37.974   7.992
 2517POPC   C4B34534  43.180  37.737   7.617
 2518POPC   NC334535   2.368  33.191   9.552
 2518POPC   PO434536   1.768  32.761   9.470
 2518POPC   GL134537   1.995  33.065   9.164
 2518POPC   GL234538   2.343  33.218   9.043
 2518POPC   C1A34539   1.933  33.233   8.742
 2518POPC   D2A34540   1.953  32.970   8.377
 2518POPC   C3A34541   1.974  33.143   7.993
 2518POPC   C4A34542   2.032  32.900   7.609
 2518POPC   C1B34543   2.289  32.839   8.755
 2518POPC   C2B34544   2.327  32.599   8.366
 2518POPC   C3B34545   2.371  32.822   7.976
 2518POPC   C4B34546   2.395  33.215   7.688
 2519POPC   NC334547   2.820  44.351   9.538
 2519POPC   PO434548   3.019  43.687   9.440
 2519POPC   GL134549   2.770  43.784   9.075
 2519POPC   GL234550   2.636  44.103   9.122
 2519POPC   C1A34551   2.841  43.934   8.677
 2519POPC   D2A34552   3.118  43.810   8.373
 2519POPC   C3A34553   2.933  43.922   8.009
 2519POPC   C4A34554   2.553  43.835   7.807
 2519POPC   C1B34555   2.450  44.247   8.736
 2519POPC   C2B34556   2.585  44.219   8.316
 2519POPC   C3B34557   2.597  44.310   7.905
 2519POPC   C4B34558   2.573  44.300   7.434
 2520POPC   NC334559   0.572  35.401   9.506
 2520POPC   PO434560  44.993  35.131   9.546
 2520POPC   GL134561   0.224  35.289   9.161
 2520POPC   GL234562   0.541  35.107   9.110
 2520POPC   C1A34563   0.203  35.466   8.738
 2520POPC   D2A34564   0.053  35.486   8.288
 2520POPC   C3A34565   0.384  35.517   7.951
 2520POPC   C4A34566   0.517  35.577   7.499
 2520POPC   C1B34567   0.401  34.971   8.741
 2520POPC   C2B34568   0.429  35.143   8.330
 2520POPC   C3B34569   0.573  35.008   7.935
 2520POPC   C4B34570   0.720  35.120   7.505
 2521POPC   NC334571  24.641  39.913   9.428
 2521POPC   PO434572  23.920  39.838   9.320
 2521POPC   GL134573  24.326  39.808   9.039
 2521POPC   GL234574  24.755  39.736   8.981
 2521POPC   C1A34575  24.484  40.103   8.759
 2521POPC   D2A34576  24.650  39.879   8.444
 2521POPC   C3A34577  24.337  39.904   8.151
 2521POPC   C4A34578  24.261  39.770   7.754
 2521POPC   C1B34579  24.995  40.089   8.777
 2521POPC   C2B34580  24.833  40.437   8.519
 2521POPC   C3B34581  24.738  40.279   8.125
 2521POPC   C4B34582  24.492  40.218   7.736
 2522POPC   NC334583  15.579  22.189   9.819
 2522POPC   PO434584  15.065  22.293   9.445
 2522POPC   GL134585  14.873  22.089   9.075
 2522POPC   GL234586  15.166  21.886   9.064
 2522POPC   C1A34587  14.934  21.847   8.630
 2522POPC   D2A34588  15.349  21.901   8.425
 2522POPC   C3A34589  15.318  22.114   8.007
 2522POPC   C4A34590  15.048  21.959   7.686
 2522POPC   C1B34591  15.212  22.258   8.760
 2522POPC   C2B34592  15.226  22.465   8.381
 2522POPC   C3B34593  15.433  22.674   8.075
 2522POPC   C4B34594  15.459  22.575   7.646
 2523POPC   NC334595   0.603  32.721   9.490
 2523POPC   PO434596  44.972  33.028   9.598
 2523POPC   GL134597   0.280  33.026   9.239
 2523POPC   GL234598   0.168  32.723   9.126
 2523POPC   C1A34599   0.542  33.042   8.832
 2523POPC   D2A34600   0.462  33.232   8.410
 2523POPC   C3A34601   0.633  33.125   8.021
 2523POPC   C4A34602   0.448  33.010   7.655
 2523POPC   C1B34603   0.159  32.716   8.704
 2523POPC   C2B34604   0.368  32.751   8.305
 2523POPC   C3B34605   0.146  32.698   7.942
 2523POPC   C4B34606  44.913  32.910   7.661
 2524POPC   NC334607  17.644  34.444   9.898
 2524POPC   PO434608  18.225  34.392   9.670
 2524POPC   GL134609  18.345  34.378   9.233
 2524POPC   GL234610  18.243  34.680   9.062
 2524POPC   C1A34611  18.543  34.337   8.815
 2524POPC   D2A34612  18.600  34.365   8.354
 2524POPC   C3A34613  18.244  34.559   8.123
 2524POPC   C4A34614  18.207  34.569   7.666
 2524POPC   C1B34615  18.020  34.580   8.656
 2524POPC   C2B34616  17.791  34.774   8.289
 2524POPC   C3B34617  17.960  34.957   7.899
 2524POPC   C4B34618  18.288  35.104   7.587
 2525POPC   NC334619  29.291  31.240   9.606
 2525POPC   PO434620  28.756  31.647   9.572
 2525POPC   GL134621  28.986  31.386   9.175
 2525POPC   GL234622  29.281  31.122   9.123
 2525POPC   C1A34623  29.214  31.466   8.729
 2525POPC   D2A34624  29.391  31.661   8.305
 2525POPC   C3A34625  29.316  31.527   7.853
 2525POPC   C4A34626  29.059  31.255   7.569
 2525POPC   C1B34627  29.062  30.975   8.762
 2525POPC   C2B34628  29.120  31.070   8.363
 2525POPC   C3B34629  29.435  31.109   8.104
 2525POPC   C4B34630  29.472  30.976   7.707
 2526POPC   NC334631  28.796  32.222   9.598
 2526POPC   PO434632  29.467  32.385   9.653
 2526POPC   GL134633  29.216  32.324   9.256
 2526POPC   GL234634  28.902  32.488   9.161
 2526POPC   C1A34635  29.307  32.364   8.804
 2526POPC   D2A34636  29.205  32.444   8.383
 2526POPC   C3A34637  29.341  32.174   8.059
 2526POPC   C4A34638  29.027  31.953   7.818
 2526POPC   C1B34639  28.829  32.620   8.742
 2526POPC   C2B34640  28.723  32.683   8.301
 2526POPC   C3B34641  28.890  32.429   7.976
 2526POPC   C4B34642  29.003  32.383   7.543
 2527POPC   NC334643  12.996  18.232   9.653
 2527POPC   PO434644  13.016  17.821   9.147
 2527POPC   GL134645  12.920  18.228   9.119
 2527POPC   GL234646  13.253  18.325   9.076
 2527POPC   C1A34647  12.797  18.325   8.696
 2527POPC   D2A34648  12.594  18.345   8.290
 2527POPC   C3A34649  12.605  18.129   7.906
 2527POPC   C4A34650  12.417  17.752   7.774
 2527POPC   C1B34651  13.251  18.574   8.670
 2527POPC   C2B34652  13.128  18.424   8.274
 2527POPC   C3B34653  13.013  18.450   7.874
 2527POPC   C4B34654  13.047  18.452   7.409
 2528POPC   NC334655  15.992  38.137   9.565
 2528POPC   PO434656  15.569  37.548   9.626
 2528POPC   GL134657  15.759  37.796   9.243
 2528POPC   GL234658  16.157  37.867   9.169
 2528POPC   C1A34659  15.789  37.817   8.780
 2528POPC   D2A34660  15.864  37.485   8.453
 2528POPC   C3A34661  15.828  37.605   7.996
 2528POPC   C4A34662  16.113  37.438   7.673
 2528POPC   C1B34663  16.243  38.098   8.776
 2528POPC   C2B34664  16.052  38.036   8.365
 2528POPC   C3B34665  16.229  37.952   7.960
 2528POPC   C4B34666  16.109  38.027   7.545
 2529POPC   NC334667   0.390   8.412   9.203
 2529POPC   PO434668   0.799   7.888   9.540
 2529POPC   GL134669   0.424   7.877   9.227
 2529POPC   GL234670   0.597   7.838   8.937
 2529POPC   C1A34671   0.102   7.955   8.841
 2529POPC   D2A34672   0.095   8.203   8.438
 2529POPC   C3A34673   0.120   8.048   8.018
 2529POPC   C4A34674   0.145   8.179   7.592
 2529POPC   C1B34675   0.575   8.138   8.618
 2529POPC   C2B34676   0.628   8.060   8.202
 2529POPC   C3B34677   0.566   8.265   7.847
 2529POPC   C4B34678   0.791   8.425   7.505
 2530POPC   NC334679  34.889  40.002   9.667
 2530POPC   PO434680  34.283  40.220   9.504
 2530POPC   GL134681  34.586  40.092   9.192
 2530POPC   GL234682  34.844  39.844   9.159
 2530POPC   C1A34683  34.488  39.888   8.807
 2530POPC   D2A34684  34.365  40.016   8.410
 2530POPC   C3A34685  34.508  39.826   8.029
 2530POPC   C4A34686  34.297  39.939   7.652
 2530POPC   C1B34687  34.931  39.629   8.760
 2530POPC   C2B34688  34.941  39.446   8.322
 2530POPC   C3B34689  34.957  39.569   7.890
 2530POPC   C4B34690  34.777  39.756   7.519
 2531POPC   NC334691  33.815  37.546   9.550
 2531POPC   PO434692  33.501  38.193   9.484
 2531POPC   GL134693  33.653  37.896   9.198
 2531POPC   GL234694  34.028  37.935   9.199
 2531POPC   C1A34695  33.483  37.668   8.860
 2531POPC   D2A34696  33.328  37.732   8.445
 2531POPC   C3A34697  33.488  37.462   8.101
 2531POPC   C4A34698  33.703  37.639   7.721
 2531POPC   C1B34699  33.913  37.938   8.743
 2531POPC   C2B34700  33.849  37.763   8.320
 2531POPC   C3B34701  34.082  37.522   8.023
 2531POPC   C4B34702  34.237  37.637   7.646
 2532POPC   NC334703   4.879  12.261   9.490
 2532POPC   PO434704   5.420  11.814   9.547
 2532POPC   GL134705   5.139  11.941   9.164
 2532POPC   GL234706   4.753  11.909   9.148
 2532POPC   C1A34707   4.993  12.101   8.738
 2532POPC   D2A34708   4.940  12.345   8.370
 2532POPC   C3A34709   5.055  12.140   7.977
 2532POPC   C4A34710   5.043  12.312   7.563
 2532POPC   C1B34711   4.654  11.719   8.735
 2532POPC   C2B34712   4.841  11.766   8.326
 2532POPC   C3B34713   4.960  11.609   7.937
 2532POPC   C4B34714   5.165  11.782   7.587
 2533POPC   NC334715  44.819  11.153   9.506
 2533POPC   PO434716  44.410  11.681   9.595
 2533POPC   GL134717  44.588  11.531   9.211
 2533POPC   GL234718  44.486  11.194   9.137
 2533POPC   C1A34719  44.832  11.498   8.844
 2533POPC   D2A34720  44.684  11.679   8.484
 2533POPC   C3A34721  44.815  11.527   8.087
 2533POPC   C4A34722  44.773  11.705   7.694
 2533POPC   C1B34723  44.600  11.053   8.743
 2533POPC   C2B34724  44.661  11.104   8.329
 2533POPC   C3B34725  44.364  11.025   7.986
 2533POPC   C4B34726  44.559  11.015   7.582
 2534POPC   NC334727  16.657  28.788   9.633
 2534POPC   PO434728  16.628  28.109   9.661
 2534POPC   GL134729  16.621  28.382   9.295
 2534POPC   GL234730  16.299  28.568   9.349
 2534POPC   C1A34731  16.806  28.292   8.858
 2534POPC   D2A34732  17.132  28.240   8.536
 2534POPC   C3A34733  17.019  28.349   8.113
 2534POPC   C4A34734  16.766  28.104   7.845
 2534POPC   C1B34735  16.399  28.603   8.904
 2534POPC   C2B34736  16.557  28.546   8.492
 2534POPC   C3B34737  16.520  28.509   8.083
 2534POPC   C4B34738  16.683  28.560   7.677
 2535POPC   NC334739  24.361   1.256   9.446
 2535POPC   PO434740  24.949   1.552   9.364
 2535POPC   GL134741  24.794   1.150   9.139
 2535POPC   GL234742  25.020   0.806   9.160
 2535POPC   C1A34743  24.514   1.196   8.783
 2535POPC   D2A34744  24.309   1.463   8.485
 2535POPC   C3A34745  24.479   1.410   8.074
 2535POPC   C4A34746  24.222   1.449   7.719
 2535POPC   C1B34747  24.831   0.781   8.772
 2535POPC   C2B34748  24.866   1.021   8.397
 2535POPC   C3B34749  24.746   0.918   7.993
 2535POPC   C4B34750  24.587   1.130   7.645
 2536POPC   NC334751  31.669  14.020   9.496
 2536POPC   PO434752  31.710  13.366   9.465
 2536POPC   GL134753  31.520  13.568   9.131
 2536POPC   GL234754  31.285  13.800   9.250
 2536POPC   C1A34755  31.665  13.604   8.700
 2536POPC   D2A34756  31.565  13.369   8.305
 2536POPC   C3A34757  31.677  13.619   7.929
 2536POPC   C4A34758  31.758  13.519   7.501
 2536POPC   C1B34759  31.235  13.869   8.811
 2536POPC   C2B34760  31.341  13.844   8.373
 2536POPC   C3B34761  31.171  13.588   8.058
 2536POPC   C4B34762  31.204  13.641   7.650
 2537POPC   NC334763  17.413   4.906   9.445
 2537POPC   PO434764  17.784   5.466   9.477
 2537POPC   GL134765  17.770   5.289   9.110
 2537POPC   GL234766  17.879   4.989   9.225
 2537POPC   C1A34767  17.394   5.239   8.865
 2537POPC   D2A34768  17.211   4.940   8.597
 2537POPC   C3A34769  17.321   5.003   8.157
 2537POPC   C4A34770  17.403   4.806   7.763
 2537POPC   C1B34771  17.706   4.847   8.834
 2537POPC   C2B34772  17.744   5.029   8.445
 2537POPC   C3B34773  17.855   4.855   8.070
 2537POPC   C4B34774  17.853   5.034   7.692
 2538POPC   NC334775  11.391  26.355   9.530
 2538POPC   PO434776  10.970  25.829   9.529
 2538POPC   GL134777  11.154  26.041   9.177
 2538POPC   GL234778  11.499  25.945   9.212
 2538POPC   C1A34779  11.213  26.223   8.779
 2538POPC   D2A34780  11.237  26.040   8.378
 2538POPC   C3A34781  11.228  26.166   7.945
 2538POPC   C4A34782  11.266  25.864   7.590
 2538POPC   C1B34783  11.474  25.761   8.787
 2538POPC   C2B34784  11.474  25.574   8.382
 2538POPC   C3B34785  11.554  25.782   8.031
 2538POPC   C4B34786  11.728  25.672   7.659
 2539POPC   NC334787   8.031  35.826   9.477
 2539POPC   PO434788   8.273  36.500   9.476
 2539POPC   GL134789   8.242  36.270   9.117
 2539POPC   GL234790   7.925  36.178   9.100
 2539POPC   C1A34791   8.152  36.376   8.685
 2539POPC   D2A34792   8.302  36.206   8.315
 2539POPC   C3A34793   8.215  36.366   7.943
 2539POPC   C4A34794   8.376  36.109   7.622
 2539POPC   C1B34795   8.067  35.869   8.812
 2539POPC   C2B34796   7.945  35.855   8.400
 2539POPC   C3B34797   8.055  35.890   7.982
 2539POPC   C4B34798   7.897  36.018   7.560
 2540POPC   NC334799  10.326   4.860   9.574
 2540POPC   PO434800  10.640   5.387   9.413
 2540POPC   GL134801  10.494   5.095   9.128
 2540POPC   GL234802  10.216   5.276   9.104
 2540POPC   C1A34803  10.556   5.079   8.678
 2540POPC   D2A34804  10.754   4.995   8.266
 2540POPC   C3A34805  10.417   5.039   7.942
 2540POPC   C4A34806  10.080   4.756   7.791
 2540POPC   C1B34807  10.297   5.582   8.808
 2540POPC   C2B34808  10.205   5.503   8.381
 2540POPC   C3B34809  10.411   5.659   8.008
 2540POPC   C4B34810  10.520   5.446   7.609
 2541POPC   NC334811  11.647  43.965   9.657
 2541POPC   PO434812  11.082  44.398   9.583
 2541POPC   GL134813  11.163  44.392   9.107
 2541POPC   GL234814  11.501  44.461   9.085
 2541POPC   C1A34815  11.324  44.317   8.642
 2541POPC   D2A34816  11.521  44.553   8.286
 2541POPC   C3A34817  11.270  44.615   7.909
 2541POPC   C4A34818  11.211  44.422   7.478
 2541POPC   C1B34819  11.415  44.803   8.758
 2541POPC   C2B34820  11.403   0.047   8.345
 2541POPC   C3B34821  11.470   0.080   7.883
 2541POPC   C4B34822  11.558   0.257   7.459
 2542POPC   NC334823  40.761  31.998   9.778
 2542POPC   PO434824  40.694  31.315   9.561
 2542POPC   GL134825  40.817  31.383   9.147
 2542POPC   GL234826  40.609  31.571   9.089
 2542POPC   C1A34827  41.037  31.570   8.793
 2542POPC   D2A34828  41.171  31.475   8.361
 2542POPC   C3A34829  40.897  31.568   8.012
 2542POPC   C4A34830  40.756  31.880   7.711
 2542POPC   C1B34831  40.425  31.253   8.827
 2542POPC   C2B34832  40.487  31.172   8.397
 2542POPC   C3B34833  40.335  31.298   7.995
 2542POPC   C4B34834  40.574  31.414   7.633
 2543POPC   NC334835   7.089  25.079   9.466
 2543POPC   PO434836   7.754  25.139   9.517
 2543POPC   GL134837   7.555  25.214   9.129
 2543POPC   GL234838   7.198  25.358   9.062
 2543POPC   C1A34839   7.569  25.464   8.746
 2543POPC   D2A34840   7.535  25.309   8.319
 2543POPC   C3A34841   7.467  25.498   7.920
 2543POPC   C4A34842   7.667  25.602   7.522
 2543POPC   C1B34843   7.246  24.995   8.785
 2543POPC   C2B34844   7.127  24.999   8.354
 2543POPC   C3B34845   7.379  24.954   7.971
 2543POPC   C4B34846   7.349  25.140   7.552
 2544POPC   NC334847  17.850  34.482   9.383
 2544POPC   PO434848  17.275  34.688   9.770
 2544POPC   GL134849  17.256  34.630   9.275
 2544POPC   GL234850  17.520  34.546   9.023
 2544POPC   C1A34851  17.104  34.687   8.823
 2544POPC   D2A34852  17.192  34.838   8.396
 2544POPC   C3A34853  17.337  34.555   8.107
 2544POPC   C4A34854  17.310  34.512   7.692
 2544POPC   C1B34855  17.515  34.470   8.602
 2544POPC   C2B34856  17.724  34.257   8.274
 2544POPC   C3B34857  17.778  34.446   7.875
 2544POPC   C4B34858  17.748  34.351   7.438
 2545POPC   NC334859  35.042   5.465   9.974
 2545POPC   PO434860  35.582   5.593   9.559
 2545POPC   GL134861  35.388   5.805   9.115
 2545POPC   GL234862  35.112   5.625   8.967
 2545POPC   C1A34863  35.510   5.877   8.703
 2545POPC   D2A34864  35.610   6.241   8.455
 2545POPC   C3A34865  35.435   6.060   8.122
 2545POPC   C4A34866  35.384   5.864   7.743
 2545POPC   C1B34867  35.005   5.799   8.589
 2545POPC   C2B34868  34.995   5.769   8.162
 2545POPC   C3B34869  34.916   5.965   7.803
 2545POPC   C4B34870  35.045   5.889   7.348
 2546POPC   NC334871   6.629  31.171   9.505
 2546POPC   PO434872   6.223  31.733   9.465
 2546POPC   GL134873   6.516  31.511   9.111
 2546POPC   GL234874   6.688  31.181   9.020
 2546POPC   C1A34875   6.791  31.590   8.747
 2546POPC   D2A34876   6.721  31.742   8.317
 2546POPC   C3A34877   6.618  31.451   8.001
 2546POPC   C4A34878   6.585  31.644   7.655
 2546POPC   C1B34879   6.784  31.058   8.628
 2546POPC   C2B34880   6.960  31.292   8.359
 2546POPC   C3B34881   7.107  31.303   8.002
 2546POPC   C4B34882   6.879  31.125   7.689
 2547POPC   NC334883  25.575  43.680   9.873
 2547POPC   PO434884  25.314  44.158   9.371
 2547POPC   GL134885  25.182  43.949   9.031
 2547POPC   GL234886  25.133  43.665   9.067
 2547POPC   C1A34887  25.052  43.865   8.608
 2547POPC   D2A34888  24.920  44.127   8.337
 2547POPC   C3A34889  25.268  44.101   8.119
 2547POPC   C4A34890  25.291  43.933   7.707
 2547POPC   C1B34891  25.526  43.749   8.757
 2547POPC   C2B34892  25.491  43.599   8.401
 2547POPC   C3B34893  25.576  43.658   8.015
 2547POPC   C4B34894  25.774  43.430   7.713
 2548POPC   NC334895   1.901  41.422   9.494
 2548POPC   PO434896   2.538  41.615   9.480
 2548POPC   GL134897   2.279  41.691   9.080
 2548POPC   GL234898   1.913  41.656   9.056
 2548POPC   C1A34899   2.136  41.443   8.674
 2548POPC   D2A34900   1.947  41.415   8.224
 2548POPC   C3A34901   2.148  41.630   7.870
 2548POPC   C4A34902   2.114  41.443   7.456
 2548POPC   C1B34903   1.764  41.928   8.766
 2548POPC   C2B34904   1.957  41.886   8.375
 2548POPC   C3B34905   1.713  41.848   8.023
 2548POPC   C4B34906   1.696  41.685   7.636
 2549POPC   NC334907  28.104   0.654   9.827
 2549POPC   PO434908  28.659   0.323   9.535
 2549POPC   GL134909  28.517   0.201   9.135
 2549POPC   GL234910  28.160   0.220   9.071
 2549POPC   C1A34911  28.502   0.433   8.745
 2549POPC   D2A34912  28.779   0.568   8.445
 2549POPC   C3A34913  28.636   0.617   8.009
 2549POPC   C4A34914  28.602   0.354   7.597
 2549POPC   C1B34915  28.017   0.294   8.665
 2549POPC   C2B34916  28.131   0.518   8.286
 2549POPC   C3B34917  28.179   0.496   7.842
 2549POPC   C4B34918  28.151   0.465   7.363
 2550POPC   NC334919   7.015  13.207   9.412
 2550POPC   PO434920   6.485  13.619   9.457
 2550POPC   GL134921   6.795  13.591   9.132
 2550POPC   GL234922   6.635  13.386   8.982
 2550POPC   C1A34923   6.945  13.858   8.791
 2550POPC   D2A34924   7.012  13.852   8.320
 2550POPC   C3A34925   6.933  13.448   8.085
 2550POPC   C4A34926   6.574  13.428   7.793
 2550POPC   C1B34927   6.690  13.484   8.564
 2550POPC   C2B34928   6.528  13.705   8.209
 2550POPC   C3B34929   6.235  13.934   7.982
 2550POPC   C4B34930   6.254  13.792   7.601
 2551POPC   NC334931  25.021  34.191   9.468
 2551POPC   PO434932  25.198  34.794   9.190
 2551POPC   GL134933  25.171  34.419   9.035
 2551POPC   GL234934  25.458  34.339   9.259
 2551POPC   C1A34935  25.214  34.444   8.597
 2551POPC   D2A34936  25.187  34.238   8.224
 2551POPC   C3A34937  25.099  34.558   7.903
 2551POPC   C4A34938  25.444  34.850   7.848
 2551POPC   C1B34939  25.646  34.360   8.860
 2551POPC   C2B34940  25.721  34.381   8.459
 2551POPC   C3B34941  25.704  34.089   8.157
 2551POPC   C4B34942  25.554  34.324   7.825
 2552POPC   NC334943  12.962  25.399   9.567
 2552POPC   PO434944  12.565  24.919   9.326
 2552POPC   GL134945  12.864  25.202   9.081
 2552POPC   GL234946  13.173  25.467   9.127
 2552POPC   C1A34947  12.847  25.104   8.642
 2552POPC   D2A34948  12.978  25.074   8.225
 2552POPC   C3A34949  12.759  25.271   7.928
 2552POPC   C4A34950  12.638  25.389   7.532
 2552POPC   C1B34951  13.293  25.281   8.766
 2552POPC   C2B34952  13.390  25.386   8.384
 2552POPC   C3B34953  13.214  25.484   8.037
 2552POPC   C4B34954  13.144  25.319   7.615
 2553POPC   NC334955  14.306  19.457   9.507
 2553POPC   PO434956  14.085  18.798   9.484
 2553POPC   GL134957  14.279  18.935   9.098
 2553POPC   GL234958  14.456  19.263   9.031
 2553POPC   C1A34959  14.506  18.813   8.755
 2553POPC   D2A34960  14.419  18.742   8.366
 2553POPC   C3A34961  14.493  19.034   8.074
 2553POPC   C4A34962  14.480  18.951   7.670
 2553POPC   C1B34963  14.518  19.297   8.553
 2553POPC   C2B34964  14.809  19.401   8.211
 2553POPC   C3B34965  14.658  19.427   7.775
 2553POPC   C4B34966  14.390  19.503   7.395
 2554POPC   NC334967  28.959  26.721   9.574
 2554POPC   PO434968  29.423  27.157   9.639
 2554POPC   GL134969  29.238  26.926   9.195
 2554POPC   GL234970  28.963  26.649   9.093
 2554POPC   C1A34971  29.147  26.940   8.739
 2554POPC   D2A34972  29.429  26.871   8.455
 2554POPC   C3A34973  29.395  26.851   8.062
 2554POPC   C4A34974  29.406  26.980   7.651
 2554POPC   C1B34975  29.146  26.437   8.749
 2554POPC   C2B34976  29.111  26.490   8.345
 2554POPC   C3B34977  28.940  26.645   7.998
 2554POPC   C4B34978  29.184  26.529   7.695
 2555POPC   NC334979  43.758  17.764   9.475
 2555POPC   PO434980  44.021  17.097   9.477
 2555POPC   GL134981  43.956  17.376   9.178
 2555POPC   GL234982  43.613  17.384   9.158
 2555POPC   C1A34983  43.985  17.622   8.826
 2555POPC   D2A34984  43.840  17.499   8.437
 2555POPC   C3A34985  44.030  17.629   8.063
 2555POPC   C4A34986  43.810  17.930   7.803
 2555POPC   C1B34987  43.615  17.147   8.777
 2555POPC   C2B34988  43.459  17.187   8.348
 2555POPC   C3B34989  43.703  17.129   7.958
 2555POPC   C4B34990  43.878  17.410   7.631
 2556POPC   NC334991  40.536  36.837   9.362
 2556POPC   PO434992  39.867  36.722   9.406
 2556POPC   GL134993  39.847  37.094   9.163
 2556POPC   GL234994  40.184  37.199   9.280
 2556POPC   C1A34995  39.725  37.098   8.736
 2556POPC   D2A34996  39.936  36.780   8.507
 2556POPC   C3A34997  39.925  36.653   8.101
 2556POPC   C4A34998  40.248  36.694   7.827
 2556POPC   C1B34999  40.233  37.187   8.840
 2556POPC   C2B35000  40.117  37.307   8.434
 2556POPC   C3B35001  40.090  37.147   8.046
 2556POPC   C4B35002  39.680  37.110   7.967
 2557POPC   NC335003  34.050  17.427   9.398
 2557POPC   PO435004  33.576  17.053   9.600
 2557POPC   GL135005  33.600  17.238   9.171
 2557POPC   GL235006  33.586  17.604   9.092
 2557POPC   C1A35007  33.872  17.209   8.798
 2557POPC   D2A35008  33.866  16.999   8.392
 2557POPC   C3A35009  34.025  17.176   8.005
 2557POPC   C4A35010  33.822  17.433   7.688
 2557POPC   C1B35011  33.711  17.656   8.642
 2557POPC   C2B35012  33.798  17.601   8.212
 2557POPC   C3B35013  33.698  17.878   7.873
 2557POPC   C4B35014  33.436  17.764   7.545
 2558POPC   NC335015  20.379   9.903   9.431
 2558POPC   PO435016  20.795   9.455   9.525
 2558POPC   GL135017  20.681   9.447   9.129
 2558POPC   GL235018  21.005   9.352   8.984
 2558POPC   C1A35019  20.369   9.524   8.815
 2558POPC   D2A35020  20.177   9.524   8.419
 2558POPC   C3A35021  20.357   9.669   8.052
 2558POPC   C4A35022  20.389   9.652   7.637
 2558POPC   C1B35023  20.846   9.720   8.730
 2558POPC   C2B35024  20.706   9.563   8.377
 2558POPC   C3B35025  20.845   9.589   7.927
 2558POPC   C4B35026  20.893   9.550   7.482
 2559POPC   NC335027  23.892  37.414   9.489
 2559POPC   PO435028  23.933  38.154   9.553
 2559POPC   GL135029  23.856  37.917   9.129
 2559POPC   GL235030  23.940  37.550   9.008
 2559POPC   C1A35031  23.977  37.913   8.661
 2559POPC   D2A35032  23.938  37.543   8.323
 2559POPC   C3A35033  23.793  37.656   7.888
 2559POPC   C4A35034  23.815  37.844   7.449
 2559POPC   C1B35035  23.599  37.579   8.701
 2559POPC   C2B35036  23.406  37.512   8.272
 2559POPC   C3B35037  23.453  37.261   7.862
 2559POPC   C4B35038  23.319  37.132   7.423
 2560POPC   NC335039  24.973  42.285   9.533
 2560POPC   PO435040  25.602  42.599   9.451
 2560POPC   GL135041  25.309  42.413   9.158
 2560POPC   GL235042  24.965  42.550   9.096
 2560POPC   C1A35043  25.338  42.419   8.725
 2560POPC   D2A35044  25.561  42.543   8.380
 2560POPC   C3A35045  25.526  42.179   8.171
 2560POPC   C4A35046  25.562  42.069   7.749
 2560POPC   C1B35047  24.838  42.491   8.665
 2560POPC   C2B35048  25.013  42.333   8.293
 2560POPC   C3B35049  24.864  42.512   7.949
 2560POPC   C4B35050  25.153  42.369   7.609
 2561POPC   NC335051  41.757  14.389   9.345
 2561POPC   PO435052  41.112  14.240   9.445
 2561POPC   GL135053  41.245  14.468   9.061
 2561POPC   GL235054  41.587  14.602   8.930
 2561POPC   C1A35055  41.289  14.305   8.664
 2561POPC   D2A35056  41.463  14.250   8.270
 2561POPC   C3A35057  41.154  14.342   7.951
 2561POPC   C4A35058  41.377  14.553   7.677
 2561POPC   C1B35059  41.850  14.437   8.617
 2561POPC   C2B35060  42.001  14.532   8.216
 2561POPC   C3B35061  41.855  14.394   7.842
 2561POPC   C4B35062  41.568  14.071   7.784
 2562POPC   NC335063  21.080  23.464   9.779
 2562POPC   PO435064  21.454  23.995   9.567
 2562POPC   GL135065  21.468  23.727   9.171
 2562POPC   GL235066  21.204  23.472   9.275
 2562POPC   C1A35067  21.503  23.872   8.715
 2562POPC   D2A35068  21.827  23.917   8.421
 2562POPC   C3A35069  21.644  23.873   8.011
 2562POPC   C4A35070  21.668  23.745   7.581
 2562POPC   C1B35071  21.164  23.437   8.844
 2562POPC   C2B35072  21.113  23.609   8.437
 2562POPC   C3B35073  21.200  23.440   8.013
 2562POPC   C4B35074  21.081  23.538   7.606
 2563POPC   NC335075  33.925  25.710   9.458
 2563POPC   PO435076  33.648  26.187   9.533
 2563POPC   GL135077  33.768  26.055   9.101
 2563POPC   GL235078  33.613  25.744   8.998
 2563POPC   C1A35079  33.989  25.938   8.705
 2563POPC   D2A35080  33.789  26.041   8.314
 2563POPC   C3A35081  33.985  25.990   7.927
 2563POPC   C4A35082  33.988  26.265   7.556
 2563POPC   C1B35083  33.640  25.593   8.542
 2563POPC   C2B35084  33.894  25.524   8.164
 2563POPC   C3B35085  33.842  25.374   7.739
 2563POPC   C4B35086  33.465  25.378   7.451
 2564POPC   NC335087  16.757  29.393   9.323
 2564POPC   PO435088  16.229  29.026   9.628
 2564POPC   GL135089  16.492  29.004   9.182
 2564POPC   GL235090  16.471  29.266   8.922
 2564POPC   C1A35091  16.797  28.906   8.790
 2564POPC   D2A35092  17.021  28.796   8.409
 2564POPC   C3A35093  16.910  28.882   8.006
 2564POPC   C4A35094  17.137  28.881   7.622
 2564POPC   C1B35095  16.792  29.408   8.635
 2564POPC   C2B35096  16.872  29.387   8.207
 2564POPC   C3B35097  16.819  29.338   7.777
 2564POPC   C4B35098  16.498  29.264   7.452
 2565POPC   NC335099  20.396   6.915   9.498
 2565POPC   PO435100  20.998   6.552   9.492
 2565POPC   GL135101  20.636   6.538   9.207
 2565POPC   GL235102  20.518   6.861   9.029
 2565POPC   C1A35103  20.438   6.414   8.818
 2565POPC   D2A35104  20.496   6.701   8.492
 2565POPC   C3A35105  20.429   6.484   8.112
 2565POPC   C4A35106  20.623   6.513   7.736
 2565POPC   C1B35107  20.818   7.019   8.780
 2565POPC   C2B35108  20.996   6.821   8.405
 2565POPC   C3B35109  21.055   6.619   8.036
 2565POPC   C4B35110  20.952   6.922   7.756
 2566POPC   NC335111   5.925   0.338   9.588
 2566POPC   PO435112   6.478   0.514   9.453
 2566POPC   GL135113   6.103   0.523   9.144
 2566POPC   GL235114   5.725   0.598   9.175
 2566POPC   C1A35115   5.977   0.379   8.734
 2566POPC   D2A35116   5.795   0.652   8.412
 2566POPC   C3A35117   5.847   0.473   8.016
 2566POPC   C4A35118   6.175   0.306   7.781
 2566POPC   C1B35119   5.486   0.424   8.828
 2566POPC   C2B35120   5.600   0.189   8.398
 2566POPC   C3B35121   5.537   0.082   7.924
 2566POPC   C4B35122   5.701  44.960   7.519
 2567POPC   NC335123  26.063  42.839   9.459
 2567POPC   PO435124  25.823  43.433   9.569
 2567POPC   GL135125  25.829  43.229   9.193
 2567POPC   GL235126  26.140  43.273   9.134
 2567POPC   C1A35127  25.900  42.921   8.831
 2567POPC   D2A35128  26.126  42.983   8.431
 2567POPC   C3A35129  25.911  42.961   8.019
 2567POPC   C4A35130  26.078  42.793   7.593
 2567POPC   C1B35131  25.938  43.429   8.715
 2567POPC   C2B35132  25.955  43.422   8.257
 2567POPC   C3B35133  26.244  43.328   7.904
 2567POPC   C4B35134  26.167  43.260   7.470
 2568POPC   NC335135  25.455   9.914   9.441
 2568POPC   PO435136  26.078  10.114   9.377
 2568POPC   GL135137  26.122   9.785   9.060
 2568POPC   GL235138  25.840   9.537   9.083
 2568POPC   C1A35139  25.934   9.839   8.661
 2568POPC   D2A35140  25.931  10.068   8.309
 2568POPC   C3A35141  26.238   9.963   8.074
 2568POPC   C4A35142  26.170   9.826   7.674
 2568POPC   C1B35143  25.822   9.349   8.639
 2568POPC   C2B35144  25.817   9.496   8.207
 2568POPC   C3B35145  25.862   9.331   7.771
 2568POPC   C4B35146  25.635   9.167   7.380
 2569POPC   NC335147  28.091  42.610   9.478
 2569POPC   PO435148  28.511  42.175   9.773
 2569POPC   GL135149  28.506  42.128   9.298
 2569POPC   GL235150  28.175  42.202   9.195
 2569POPC   C1A35151  28.616  42.109   8.870
 2569POPC   D2A35152  28.692  42.333   8.491
 2569POPC   C3A35153  28.582  42.187   8.085
 2569POPC   C4A35154  28.502  42.227   7.665
 2569POPC   C1B35155  28.173  42.395   8.793
 2569POPC   C2B35156  28.178  42.402   8.349
 2569POPC   C3B35157  28.218  42.561   7.942
 2569POPC   C4B35158  28.009  42.617   7.534
 2570POPC   NC335159  25.666  32.503   9.767
 2570POPC   PO435160  26.062  31.989   9.601
 2570POPC   GL135161  25.820  32.219   9.247
 2570POPC   GL235162  25.859  32.583   9.220
 2570POPC   C1A35163  25.624  32.190   8.801
 2570POPC   D2A35164  25.512  32.001   8.392
 2570POPC   C3A35165  25.732  32.056   8.009
 2570POPC   C4A35166  26.155  32.088   7.816
 2570POPC   C1B35167  25.991  32.552   8.792
 2570POPC   C2B35168  25.977  32.310   8.393
 2570POPC   C3B35169  25.968  32.537   8.000
 2570POPC   C4B35170  26.313  32.702   7.768
 2571POPC   NC335171  37.838  15.823   9.601
 2571POPC   PO435172  37.430  16.256   9.338
 2571POPC   GL135173  37.792  16.079   9.156
 2571POPC   GL235174  37.599  15.771   9.141
 2571POPC   C1A35175  37.970  15.979   8.753
 2571POPC   D2A35176  37.708  15.947   8.373
 2571POPC   C3A35177  37.791  15.808   7.952
 2571POPC   C4A35178  37.837  16.059   7.541
 2571POPC   C1B35179  37.352  15.849   8.770
 2571POPC   C2B35180  37.234  15.653   8.378
 2571POPC   C3B35181  37.087  15.729   7.978
 2571POPC   C4B35182  37.246  15.962   7.635
 2572POPC   NC335183  24.197  19.118   9.482
 2572POPC   PO435184  24.850  19.295   9.577
 2572POPC   GL135185  24.638  19.138   9.180
 2572POPC   GL235186  24.387  19.383   9.082
 2572POPC   C1A35187  24.418  18.948   8.794
 2572POPC   D2A35188  24.239  19.009   8.364
 2572POPC   C3A35189  24.338  18.752   8.059
 2572POPC   C4A35190  24.470  18.886   7.656
 2572POPC   C1B35191  24.274  19.418   8.651
 2572POPC   C2B35192  24.488  19.524   8.291
 2572POPC   C3B35193  24.608  19.287   7.931
 2572POPC   C4B35194  24.490  19.355   7.481
 2573POPC   NC335195  12.532  39.499   9.531
 2573POPC   PO435196  13.074  39.007   9.458
 2573POPC   GL135197  12.981  39.255   9.149
 2573POPC   GL235198  12.652  39.401   9.064
 2573POPC   C1A35199  12.926  39.137   8.747
 2573POPC   D2A35200  13.042  39.279   8.364
 2573POPC   C3A35201  12.862  39.153   7.956
 2573POPC   C4A35202  12.916  39.145   7.525
 2573POPC   C1B35203  12.465  39.296   8.672
 2573POPC   C2B35204  12.529  39.436   8.234
 2573POPC   C3B35205  12.606  39.574   7.792
 2573POPC   C4B35206  12.670  39.547   7.316
 2574POPC   NC335207  41.231  21.342   9.569
 2574POPC   PO435208  40.584  21.446   9.437
 2574POPC   GL135209  40.895  21.314   9.166
 2574POPC   GL235210  41.070  21.634   9.161
 2574POPC   C1A35211  40.916  21.120   8.761
 2574POPC   D2A35212  40.839  21.244   8.337
 2574POPC   C3A35213  40.522  21.220   8.013
 2574POPC   C4A35214  40.335  21.414   7.659
 2574POPC   C1B35215  41.058  21.665   8.708
 2574POPC   C2B35216  41.142  21.653   8.269
 2574POPC   C3B35217  40.895  21.604   7.915
 2574POPC   C4B35218  40.868  21.747   7.497
 2575POPC   NC335219  39.038  11.470   9.421
 2575POPC   PO435220  39.683  11.244   9.521
 2575POPC   GL135221  39.450  11.269   9.121
 2575POPC   GL235222  39.104  11.287   8.951
 2575POPC   C1A35223  39.498  11.287   8.680
 2575POPC   D2A35224  39.168  11.368   8.372
 2575POPC   C3A35225  39.278  11.415   7.941
 2575POPC   C4A35226  39.352  11.009   7.753
 2575POPC   C1B35227  39.045  11.688   8.753
 2575POPC   C2B35228  38.803  11.732   8.355
 2575POPC   C3B35229  38.780  11.658   7.910
 2575POPC   C4B35230  39.005  11.615   7.512
 2576POPC   NC335231  39.801  32.246   9.552
 2576POPC   PO435232  40.448  31.991   9.450
 2576POPC   GL135233  40.138  32.120   9.120
 2576POPC   GL235234  39.798  32.004   9.109
 2576POPC   C1A35235  40.042  32.021   8.660
 2576POPC   D2A35236  39.683  31.863   8.403
 2576POPC   C3A35237  39.761  32.010   7.957
 2576POPC   C4A35238  40.031  32.383   7.872
 2576POPC   C1B35239  39.748  32.403   8.818
 2576POPC   C2B35240  39.771  32.409   8.335
 2576POPC   C3B35241  39.528  32.485   7.940
 2576POPC   C4B35242  39.596  32.304   7.522
 2577POPC   NC335243  44.941   3.589   9.361
 2577POPC   PO435244   0.620   3.588   9.534
 2577POPC   GL135245   0.527   3.382   9.159
 2577POPC   GL235246   0.354   3.671   9.070
 2577POPC   C1A35247   0.635   3.420   8.711
 2577POPC   D2A35248   0.570   3.743   8.424
 2577POPC   C3A35249   0.552   3.688   8.000
 2577POPC   C4A35250   0.681   4.028   7.777
 2577POPC   C1B35251   0.124   3.480   8.725
 2577POPC   C2B35252   0.000   3.606   8.329
 2577POPC   C3B35253  44.989   3.425   7.943
 2577POPC   C4B35254   0.348   3.317   7.713
 2578POPC   NC335255   2.026  14.932   9.773
 2578POPC   PO435256   2.217  14.266   9.547
 2578POPC   GL135257   2.004  14.315   9.160
 2578POPC   GL235258   1.638  14.282   9.183
 2578POPC   C1A35259   2.075  14.416   8.745
 2578POPC   D2A35260   2.270  14.554   8.384
 2578POPC   C3A35261   2.075  14.580   8.028
 2578POPC   C4A35262   2.217  14.206   7.739
 2578POPC   C1B35263   1.651  14.110   8.788
 2578POPC   C2B35264   1.743  13.930   8.395
 2578POPC   C3B35265   1.746  14.127   8.008
 2578POPC   C4B35266   1.760  14.411   7.692
 2579POPC   NC335267  18.868  18.198   9.418
 2579POPC   PO435268  19.435  18.575   9.469
 2579POPC   GL135269  19.220  18.415   9.099
 2579POPC   GL235270  18.871  18.559   9.080
 2579POPC   C1A35271  19.028  18.118   8.789
 2579POPC   D2A35272  18.845  18.139   8.373
 2579POPC   C3A35273  19.141  18.340   8.097
 2579POPC   C4A35274  19.218  18.272   7.699
 2579POPC   C1B35275  18.799  18.593   8.668
 2579POPC   C2B35276  18.801  18.695   8.257
 2579POPC   C3B35277  18.654  18.411   7.960
 2579POPC   C4B35278  18.702  18.369   7.570
 2580POPC   NC335279  20.857  43.609   9.652
 2580POPC   PO435280  20.581  42.894   9.458
 2580POPC   GL135281  20.560  43.097   9.114
 2580POPC   GL235282  20.858  43.276   9.209
 2580POPC   C1A35283  20.519  43.003   8.676
 2580POPC   D2A35284  20.533  43.084   8.254
 2580POPC   C3A35285  20.240  42.999   7.979
 2580POPC   C4A35286  20.480  43.056   7.636
 2580POPC   C1B35287  21.039  43.485   8.850
 2580POPC   C2B35288  20.898  43.388   8.451
 2580POPC   C3B35289  20.962  43.278   8.045
 2580POPC   C4B35290  20.918  43.455   7.653
 2581POPC   NC335291  36.542  22.030   9.614
 2581POPC   PO435292  37.005  22.415   9.322
 2581POPC   GL135293  37.002  22.120   8.995
 2581POPC   GL235294  36.668  21.994   9.064
 2581POPC   C1A35295  37.105  22.140   8.556
 2581POPC   D2A35296  36.780  22.233   8.271
 2581POPC   C3A35297  36.924  22.093   7.888
 2581POPC   C4A35298  37.233  22.344   7.657
 2581POPC   C1B35299  36.689  21.839   8.613
 2581POPC   C2B35300  36.615  21.756   8.164
 2581POPC   C3B35301  36.606  21.759   7.693
 2581POPC   C4B35302  36.515  21.877   7.250
 2582POPC   NC335303   3.672  10.730   9.666
 2582POPC   PO435304   3.600  10.128   9.612
 2582POPC   GL135305   3.635  10.317   9.156
 2582POPC   GL235306   3.587  10.687   9.077
 2582POPC   C1A35307   3.624  10.349   8.704
 2582POPC   D2A35308   3.343  10.481   8.398
 2582POPC   C3A35309   3.296  10.234   8.046
 2582POPC   C4A35310   3.454  10.397   7.698
 2582POPC   C1B35311   3.584  10.878   8.660
 2582POPC   C2B35312   3.650  10.889   8.245
 2582POPC   C3B35313   3.656  10.837   7.833
 2582POPC   C4B35314   3.697  10.725   7.386
 2583POPC   NC335315   7.167  24.365  10.060
 2583POPC   PO435316   7.588  24.363   9.598
 2583POPC   GL135317   7.523  24.657   9.289
 2583POPC   GL235318   7.191  24.637   9.224
 2583POPC   C1A35319   7.593  24.580   8.849
 2583POPC   D2A35320   7.530  24.688   8.421
 2583POPC   C3A35321   7.434  24.411   8.088
 2583POPC   C4A35322   7.526  24.511   7.675
 2583POPC   C1B35323   7.112  24.427   8.846
 2583POPC   C2B35324   7.006  24.330   8.415
 2583POPC   C3B35325   6.937  24.603   8.074
 2583POPC   C4B35326   7.037  24.699   7.675
 2584POPC   NC335327  24.017  35.323   9.530
 2584POPC   PO435328  23.937  34.735   9.883
 2584POPC   GL135329  23.861  34.655   9.415
 2584POPC   GL235330  23.840  34.948   9.199
 2584POPC   C1A35331  23.888  34.488   8.961
 2584POPC   D2A35332  24.065  34.488   8.514
 2584POPC   C3A35333  23.898  34.426   8.071
 2584POPC   C4A35334  24.101  34.305   7.677
 2584POPC   C1B35335  23.703  34.921   8.747
 2584POPC   C2B35336  23.592  34.739   8.339
 2584POPC   C3B35337  23.533  34.768   7.880
 2584POPC   C4B35338  23.453  34.909   7.448
 2585POPC   NC335339  40.266  41.256   9.480
 2585POPC   PO435340  39.757  41.655   9.753
 2585POPC   GL135341  39.745  41.602   9.263
 2585POPC   GL235342  40.098  41.653   9.173
 2585POPC   C1A35343  39.869  41.362   8.849
 2585POPC   D2A35344  39.989  41.205   8.432
 2585POPC   C3A35345  39.894  41.483   8.102
 2585POPC   C4A35346  39.958  41.510   7.683
 2585POPC   C1B35347  40.296  41.755   8.782
 2585POPC   C2B35348  40.349  41.601   8.368
 2585POPC   C3B35349  40.313  41.747   7.971
 2585POPC   C4B35350  40.235  41.971   7.625
 2586POPC   NC335351  18.493  27.354   9.441
 2586POPC   PO435352  18.216  27.867   9.467
 2586POPC   GL135353  18.415  27.834   9.082
 2586POPC   GL235354  18.296  27.513   9.012
 2586POPC   C1A35355  18.464  27.790   8.633
 2586POPC   D2A35356  18.202  27.762   8.275
 2586POPC   C3A35357  18.483  27.564   8.015
 2586POPC   C4A35358  18.561  27.694   7.633
 2586POPC   C1B35359  17.979  27.593   8.718
 2586POPC   C2B35360  17.779  27.329   8.408
 2586POPC   C3B35361  17.774  27.520   8.035
 2586POPC   C4B35362  18.075  27.601   7.738
 2587POPC   NC335363  13.293   6.232   9.451
 2587POPC   PO435364  13.763   5.654   9.428
 2587POPC   GL135365  13.619   5.843   9.045
 2587POPC   GL235366  13.597   6.178   9.058
 2587POPC   C1A35367  13.643   5.829   8.589
 2587POPC   D2A35368  13.416   5.552   8.309
 2587POPC   C3A35369  13.685   5.393   8.017
 2587POPC   C4A35370  13.742   5.624   7.639
 2587POPC   C1B35371  13.814   6.333   8.726
 2587POPC   C2B35372  13.582   6.311   8.353
 2587POPC   C3B35373  13.577   5.996   8.037
 2587POPC   C4B35374  13.845   6.123   7.699
 2588POPC   NC335375  43.402   7.415   9.655
 2588POPC   PO435376  42.945   7.149   9.239
 2588POPC   GL135377  43.297   7.382   9.147
 2588POPC   GL235378  43.456   7.077   9.251
 2588POPC   C1A35379  43.320   7.579   8.748
 2588POPC   D2A35380  43.068   7.574   8.363
 2588POPC   C3A35381  43.270   7.670   7.957
 2588POPC   C4A35382  43.333   7.694   7.505
 2588POPC   C1B35383  43.406   6.994   8.805
 2588POPC   C2B35384  43.408   7.187   8.413
 2588POPC   C3B35385  43.182   7.177   8.016
 2588POPC   C4B35386  43.333   7.177   7.587
 2589POPC   NC335387  44.467  44.341   9.631
 2589POPC   PO435388  44.841  44.766   9.292
 2589POPC   GL135389  44.570  44.622   9.066
 2589POPC   GL235390  44.493  44.899   8.929
 2589POPC   C1A35391  44.637  44.373   8.733
 2589POPC   D2A35392  44.883  44.342   8.397
 2589POPC   C3A35393  44.669  44.416   8.018
 2589POPC   C4A35394  44.864  44.521   7.650
 2589POPC   C1B35395  44.752  44.836   8.578
 2589POPC   C2B35396  44.569  44.905   8.182
 2589POPC   C3B35397  44.729   0.079   7.820
 2589POPC   C4B35398  44.947  44.992   7.440
 2590POPC   NC335399  26.489   9.931   9.420
 2590POPC   PO435400  27.115   9.673   9.601
 2590POPC   GL135401  26.936   9.736   9.190
 2590POPC   GL235402  27.158   9.972   9.115
 2590POPC   C1A35403  26.708   9.696   8.774
 2590POPC   D2A35404  26.437   9.448   8.510
 2590POPC   C3A35405  26.630   9.620   8.146
 2590POPC   C4A35406  26.656   9.836   7.799
 2590POPC   C1B35407  27.031  10.073   8.685
 2590POPC   C2B35408  26.810  10.077   8.305
 2590POPC   C3B35409  27.041  10.128   7.916
 2590POPC   C4B35410  27.042   9.889   7.499
 2591POPC   NC335411  22.742  19.917   9.503
 2591POPC   PO435412  23.143  19.455   9.552
 2591POPC   GL135413  22.920  19.590   9.130
 2591POPC   GL235414  22.820  19.989   9.021
 2591POPC   C1A35415  22.826  19.627   8.663
 2591POPC   D2A35416  22.952  19.836   8.264
 2591POPC   C3A35417  22.893  19.632   7.873
 2591POPC   C4A35418  22.471  19.490   7.944
 2591POPC   C1B35419  23.199  20.067   8.816
 2591POPC   C2B35420  23.394  20.044   8.395
 2591POPC   C3B35421  23.319  20.033   7.970
 2591POPC   C4B35422  22.959  20.121   7.746
 2592POPC   NC335423   7.186  23.437   9.416
 2592POPC   PO435424   7.442  22.839   9.563
 2592POPC   GL135425   7.491  22.868   9.159
 2592POPC   GL235426   7.326  22.560   9.123
 2592POPC   C1A35427   7.579  23.092   8.784
 2592POPC   D2A35428   7.758  23.216   8.384
 2592POPC   C3A35429   7.487  23.089   8.076
 2592POPC   C4A35430   7.564  23.034   7.674
 2592POPC   C1B35431   7.597  22.542   8.776
 2592POPC   C2B35432   7.660  22.683   8.371
 2592POPC   C3B35433   7.699  22.622   7.938
 2592POPC   C4B35434   7.348  22.571   7.654
 2593POPC   NC335435  14.591  25.006   9.409
 2593POPC   PO435436  14.024  25.375   9.375
 2593POPC   GL135437  14.211  25.115   9.052
 2593POPC   GL235438  14.553  25.286   8.990
 2593POPC   C1A35439  14.293  25.110   8.589
 2593POPC   D2A35440  14.433  25.473   8.325
 2593POPC   C3A35441  14.195  25.565   7.956
 2593POPC   C4A35442  14.196  25.176   7.781
 2593POPC   C1B35443  14.736  24.890   8.780
 2593POPC   C2B35444  14.606  24.745   8.380
 2593POPC   C3B35445  14.630  25.032   8.038
 2593POPC   C4B35446  14.675  25.456   7.854
 2594POPC   NC335447  16.947  35.768   9.405
 2594POPC   PO435448  16.636  36.318   9.496
 2594POPC   GL135449  16.517  36.134   9.125
 2594POPC   GL235450  16.525  35.783   9.111
 2594POPC   C1A35451  16.355  36.211   8.731
 2594POPC   D2A35452  16.584  36.196   8.336
 2594POPC   C3A35453  16.425  36.110   7.928
 2594POPC   C4A35454  16.526  36.031   7.482
 2594POPC   C1B35455  16.722  35.863   8.730
 2594POPC   C2B35456  17.041  36.084   8.530
 2594POPC   C3B35457  17.004  35.868   8.194
 2594POPC   C4B35458  16.909  35.947   7.804
 2595POPC   NC335459   8.129   1.320   9.469
 2595POPC   PO435460   8.185   0.684   9.243
 2595POPC   GL135461   8.206   1.025   9.010
 2595POPC   GL235462   8.415   1.330   8.991
 2595POPC   C1A35463   8.218   1.052   8.572
 2595POPC   D2A35464   8.157   1.377   8.320
 2595POPC   C3A35465   8.045   1.263   7.901
 2595POPC   C4A35466   8.188   1.027   7.489
 2595POPC   C1B35467   8.534   1.589   8.609
 2595POPC   C2B35468   8.571   1.571   8.119
 2595POPC   C3B35469   8.524   1.350   7.727
 2595POPC   C4B35470   8.465   1.593   7.306
 2596POPC   NC335471   0.758   6.664   9.486
 2596POPC   PO435472   0.073   6.427   9.618
 2596POPC   GL135473  44.968   6.588   9.117
 2596POPC   GL235474   0.291   6.728   9.079
 2596POPC   C1A35475   0.071   6.441   8.693
 2596POPC   D2A35476   0.472   6.549   8.499
 2596POPC   C3A35477   0.477   6.485   8.060
 2596POPC   C4A35478   0.205   6.352   7.712
 2596POPC   C1B35479   0.412   6.994   8.739
 2596POPC   C2B35480   0.449   7.208   8.361
 2596POPC   C3B35481   0.299   7.053   7.975
 2596POPC   C4B35482   0.485   6.802   7.664
 2597POPC   NC335483  25.738  38.888   9.554
 2597POPC   PO435484  26.365  38.790   9.551
 2597POPC   GL135485  26.048  38.555   9.258
 2597POPC   GL235486  25.739  38.726   9.071
 2597POPC   C1A35487  26.031  38.373   8.836
 2597POPC   D2A35488  26.148  38.535   8.430
 2597POPC   C3A35489  25.970  38.454   8.065
 2597POPC   C4A35490  26.136  38.284   7.734
 2597POPC   C1B35491  25.691  38.702   8.603
 2597POPC   C2B35492  25.786  38.922   8.204
 2597POPC   C3B35493  25.812  38.814   7.749
 2597POPC   C4B35494  25.898  38.577   7.379
 2598POPC   NC335495  29.090   8.577   9.377
 2598POPC   PO435496  29.643   8.869   9.684
 2598POPC   GL135497  29.476   9.045   9.212
 2598POPC   GL235498  29.613   9.282   9.064
 2598POPC   C1A35499  29.325   8.869   8.772
 2598POPC   D2A35500  29.273   8.878   8.331
 2598POPC   C3A35501  28.973   8.718   8.045
 2598POPC   C4A35502  29.003   8.544   7.647
 2598POPC   C1B35503  29.172   9.335   8.887
 2598POPC   C2B35504  29.087   9.483   8.475
 2598POPC   C3B35505  29.061   9.265   8.088
 2598POPC   C4B35506  29.063   9.352   7.662
 2599POPC   NC335507  34.318  40.739   9.351
 2599POPC   PO435508  35.048  40.860   9.445
 2599POPC   GL135509  34.780  40.951   9.091
 2599POPC   GL235510  34.722  40.609   9.063
 2599POPC   C1A35511  34.557  40.931   8.666
 2599POPC   D2A35512  34.421  40.884   8.208
 2599POPC   C3A35513  34.649  41.035   7.844
 2599POPC   C4A35514  34.476  41.059   7.426
 2599POPC   C1B35515  34.521  40.407   8.739
 2599POPC   C2B35516  34.667  40.418   8.324
 2599POPC   C3B35517  34.443  40.333   7.976
 2599POPC   C4B35518  34.403  40.632   7.690
 2600POPC   NC335519  40.770  13.184   9.676
 2600POPC   PO435520  40.429  12.681   9.325
 2600POPC   GL135521  40.687  12.916   9.132
 2600POPC   GL235522  41.037  12.868   9.174
 2600POPC   C1A35523  40.747  12.913   8.699
 2600POPC   D2A35524  40.654  12.989   8.284
 2600POPC   C3A35525  40.811  12.815   7.927
 2600POPC   C4A35526  40.765  12.547   7.544
 2600POPC   C1B35527  41.068  12.556   8.833
 2600POPC   C2B35528  40.928  12.502   8.377
 2600POPC   C3B35529  41.047  12.351   7.944
 2600POPC   C4B35530  41.271  12.504   7.584
 2601POPC   NC335531  38.602  38.197   9.469
 2601POPC   PO435532  38.032  38.528   9.358
 2601POPC   GL135533  38.380  38.461   9.097
 2601POPC   GL235534  38.724  38.618   9.209
 2601POPC   C1A35535  38.287  38.337   8.708
 2601POPC   D2A35536  37.995  38.430   8.427
 2601POPC   C3A35537  38.219  38.472   8.097
 2601POPC   C4A35538  38.314  38.416   7.722
 2601POPC   C1B35539  38.788  38.483   8.793
 2601POPC   C2B35540  38.615  38.586   8.411
 2601POPC   C3B35541  38.772  38.569   8.009
 2601POPC   C4B35542  38.804  38.279   7.716
 2602POPC   NC335543  21.119   9.715   9.313
 2602POPC   PO435544  21.617  10.054   9.612
 2602POPC   GL135545  21.677   9.986   9.177
 2602POPC   GL235546  21.473   9.780   8.953
 2602POPC   C1A35547  21.931   9.942   8.798
 2602POPC   D2A35548  21.660   9.856   8.467
 2602POPC   C3A35549  21.645   9.882   8.070
 2602POPC   C4A35550  21.735   9.676   7.739
 2602POPC   C1B35551  21.300   9.532   8.616
 2602POPC   C2B35552  21.169   9.758   8.292
 2602POPC   C3B35553  21.036  10.078   8.047
 2602POPC   C4B35554  21.244   9.870   7.708
 2603POPC   NC335555   8.370   8.743   9.497
 2603POPC   PO435556   7.926   8.224   9.574
 2603POPC   GL135557   8.190   8.231   9.185
 2603POPC   GL235558   8.036   8.560   9.175
 2603POPC   C1A35559   8.463   8.113   8.783
 2603POPC   D2A35560   8.619   8.226   8.341
 2603POPC   C3A35561   8.371   8.043   7.983
 2603POPC   C4A35562   8.412   7.982   7.495
 2603POPC   C1B35563   8.190   8.549   8.769
 2603POPC   C2B35564   8.124   8.351   8.378
 2603POPC   C3B35565   8.013   8.508   7.994
 2603POPC   C4B35566   8.001   8.265   7.619
 2604POPC   NC335567  17.623  38.818   9.567
 2604POPC   PO435568  17.201  39.327   9.458
 2604POPC   GL135569  17.511  39.163   9.207
 2604POPC   GL235570  17.261  39.180   8.978
 2604POPC   C1A35571  17.722  39.232   8.835
 2604POPC   D2A35572  17.634  38.971   8.510
 2604POPC   C3A35573  17.644  39.110   8.090
 2604POPC   C4A35574  17.317  39.152   7.801
 2604POPC   C1B35575  17.294  39.491   8.691
 2604POPC   C2B35576  17.554  39.497   8.396
 2604POPC   C3B35577  17.278  39.556   8.082
 2604POPC   C4B35578  17.410  39.652   7.684
 2605POPC   NC335579   2.155   6.037   9.717
 2605POPC   PO435580   1.572   6.067   9.486
 2605POPC   GL135581   1.831   5.870   9.157
 2605POPC   GL235582   2.180   5.959   9.206
 2605POPC   C1A35583   1.754   5.873   8.711
 2605POPC   D2A35584   1.569   5.968   8.318
 2605POPC   C3A35585   1.777   5.680   8.007
 2605POPC   C4A35586   1.698   5.641   7.524
 2605POPC   C1B35587   2.284   5.854   8.803
 2605POPC   C2B35588   2.170   5.743   8.393
 2605POPC   C3B35589   2.212   5.969   8.033
 2605POPC   C4B35590   2.155   5.800   7.664
 2606POPC   NC335591  43.631  44.834   9.393
 2606POPC   PO435592  44.024  44.322   9.546
 2606POPC   GL135593  43.840  44.434   9.144
 2606POPC   GL235594  44.070  44.707   9.165
 2606POPC   C1A35595  43.709  44.714   8.736
 2606POPC   D2A35596  43.775  44.658   8.263
 2606POPC   C3A35597  43.663  44.790   7.784
 2606POPC   C4A35598  43.631   0.111   7.406
 2606POPC   C1B35599  44.170  44.534   8.765
 2606POPC   C2B35600  44.274  44.490   8.349
 2606POPC   C3B35601  44.139  44.519   7.920
 2606POPC   C4B35602  44.407  44.731   7.658
 2607POPC   NC335603  39.973  39.299   9.543
 2607POPC   PO435604  40.640  39.332   9.391
 2607POPC   GL135605  40.233  39.182   9.130
 2607POPC   GL235606  39.849  39.315   9.061
 2607POPC   C1A35607  40.146  39.077   8.718
 2607POPC   D2A35608  40.256  39.368   8.410
 2607POPC   C3A35609  40.224  39.276   7.985
 2607POPC   C4A35610  40.509  39.444   7.725
 2607POPC   C1B35611  39.886  39.622   8.698
 2607POPC   C2B35612  39.799  39.579   8.241
 2607POPC   C3B35613  39.761  39.440   7.811
 2607POPC   C4B35614  39.628  39.493   7.344
 2608POPC   NC335615   0.092  24.189   9.423
 2608POPC   PO435616   0.644  24.566   9.520
 2608POPC   GL135617   0.395  24.610   9.193
 2608POPC   GL235618   0.075  24.727   9.311
 2608POPC   C1A35619   0.422  24.501   8.769
 2608POPC   D2A35620   0.164  24.437   8.413
 2608POPC   C3A35621   0.523  24.530   8.145
 2608POPC   C4A35622   0.641  24.565   7.744
 2608POPC   C1B35623   0.096  24.867   8.867
 2608POPC   C2B35624   0.269  24.931   8.459
 2608POPC   C3B35625   0.129  24.828   8.059
 2608POPC   C4B35626   0.294  24.944   7.690
 2609POPC   NC335627   5.247  11.373   9.545
 2609POPC   PO435628   4.696  11.044   9.496
 2609POPC   GL135629   5.053  11.077   9.176
 2609POPC   GL235630   4.963  11.427   9.054
 2609POPC   C1A35631   5.314  11.148   8.787
 2609POPC   D2A35632   5.014  11.226   8.420
 2609POPC   C3A35633   5.169  11.143   8.008
 2609POPC   C4A35634   4.987  11.126   7.581
 2609POPC   C1B35635   5.186  11.637   8.691
 2609POPC   C2B35636   5.389  11.561   8.275
 2609POPC   C3B35637   5.550  11.491   7.843
 2609POPC   C4B35638   5.535  11.496   7.364
 2610POPC   NC335639  30.193  35.484   9.341
 2610POPC   PO435640  29.679  35.141   9.385
 2610POPC   GL135641  29.867  35.206   9.035
 2610POPC   GL235642  29.835  35.564   8.978
 2610POPC   C1A35643  29.814  35.015   8.633
 2610POPC   D2A35644  29.516  35.073   8.296
 2610POPC   C3A35645  29.691  35.163   7.881
 2610POPC   C4A35646  29.609  35.511   7.576
 2610POPC   C1B35647  30.150  35.404   8.669
 2610POPC   C2B35648  30.134  35.294   8.230
 2610POPC   C3B35649  30.028  35.562   7.868
 2610POPC   C4B35650  30.062  35.664   7.410
 2611POPC   NC335651  16.714  26.411   9.536
 2611POPC   PO435652  17.169  25.906   9.585
 2611POPC   GL135653  17.079  26.148   9.156
 2611POPC   GL235654  16.709  26.189   9.079
 2611POPC   C1A35655  17.034  26.160   8.669
 2611POPC   D2A35656  17.017  26.094   8.192
 2611POPC   C3A35657  17.042  26.347   7.806
 2611POPC   C4A35658  17.023  26.165   7.349
 2611POPC   C1B35659  16.612  26.441   8.715
 2611POPC   C2B35660  16.549  26.158   8.419
 2611POPC   C3B35661  16.483  26.049   8.032
 2611POPC   C4B35662  16.578  26.202   7.633
 2612POPC   NC335663  43.791   0.651   9.707
 2612POPC   PO435664  44.005   0.076   9.535
 2612POPC   GL135665  43.993   0.419   9.294
 2612POPC   GL235666  44.282   0.313   9.153
 2612POPC   C1A35667  43.895   0.604   8.923
 2612POPC   D2A35668  43.748   0.423   8.529
 2612POPC   C3A35669  43.870   0.621   8.143
 2612POPC   C4A35670  43.761   0.459   7.750
 2612POPC   C1B35671  44.045   0.115   8.850
 2612POPC   C2B35672  44.136  44.990   8.465
 2612POPC   C3B35673  43.958   0.098   8.080
 2612POPC   C4B35674  44.075   0.092   7.661
 2613POPC   NC335675   4.992   0.080   9.589
 2613POPC   PO435676   5.494   0.496   9.613
 2613POPC   GL135677   5.152   0.562   9.264
 2613POPC   GL235678   5.030   0.261   9.087
 2613POPC   C1A35679   5.013   0.678   8.801
 2613POPC   D2A35680   5.136   0.379   8.479
 2613POPC   C3A35681   5.129   0.386   8.044
 2613POPC   C4A35682   5.412   0.565   7.758
 2613POPC   C1B35683   4.721   0.226   8.735
 2613POPC   C2B35684   4.752   0.107   8.304
 2613POPC   C3B35685   4.658   0.248   7.907
 2613POPC   C4B35686   4.934   0.296   7.572
 2614POPC   NC335687  17.422  24.111   9.463
 2614POPC   PO435688  17.514  23.504   9.721
 2614POPC   GL135689  17.585  23.646   9.251
 2614POPC   GL235690  17.608  23.983   9.009
 2614POPC   C1A35691  17.607  23.505   8.818
 2614POPC   D2A35692  17.827  23.339   8.469
 2614POPC   C3A35693  17.722  23.641   8.142
 2614POPC   C4A35694  17.691  23.617   7.707
 2614POPC   C1B35695  17.341  23.934   8.671
 2614POPC   C2B35696  17.188  23.835   8.279
 2614POPC   C3B35697  17.267  23.857   7.846
 2614POPC   C4B35698  17.380  23.969   7.406
 2615POPC   NC335699  24.886  26.440   9.488
 2615POPC   PO435700  24.396  26.018   9.784
 2615POPC   GL135701  24.398  26.009   9.312
 2615POPC   GL235702  24.030  26.042   9.169
 2615POPC   C1A35703  24.587  26.187   8.917
 2615POPC   D2A35704  24.575  26.346   8.500
 2615POPC   C3A35705  24.818  26.059   8.209
 2615POPC   C4A35706  24.732  25.884   7.772
 2615POPC   C1B35707  24.186  25.862   8.810
 2615POPC   C2B35708  24.374  25.893   8.418
 2615POPC   C3B35709  24.309  26.039   8.017
 2615POPC   C4B35710  24.241  25.863   7.581
 2616POPC   NC335711  40.612  44.033   9.446
 2616POPC   PO435712  41.020  43.662   9.816
 2616POPC   GL135713  40.936  43.655   9.302
 2616POPC   GL235714  40.988  43.956   9.114
 2616POPC   C1A35715  40.761  43.486   8.894
 2616POPC   D2A35716  40.564  43.635   8.538
 2616POPC   C3A35717  40.890  43.674   8.228
 2616POPC   C4A35718  40.819  43.863   7.844
 2616POPC   C1B35719  41.200  44.181   8.765
 2616POPC   C2B35720  41.145  44.171   8.328
 2616POPC   C3B35721  41.225  44.174   7.910
 2616POPC   C4B35722  41.009  44.167   7.491
 2617POPC   NC335723  41.625  29.595   9.238
 2617POPC   PO435724  41.623  30.267   9.445
 2617POPC   GL135725  41.769  30.094   9.071
 2617POPC   GL235726  41.417  30.006   9.005
 2617POPC   C1A35727  41.946  30.015   8.651
 2617POPC   D2A35728  41.874  29.816   8.246
 2617POPC   C3A35729  41.686  29.991   7.847
 2617POPC   C4A35730  41.586  30.036   7.401
 2617POPC   C1B35731  41.473  29.873   8.585
 2617POPC   C2B35732  41.313  29.986   8.208
 2617POPC   C3B35733  41.229  29.728   7.871
 2617POPC   C4B35734  41.243  29.670   7.450
 2618POPC   NC335735  14.997  31.115   9.830
 2618POPC   PO435736  15.346  31.474   9.349
 2618POPC   GL135737  15.147  31.387   9.017
 2618POPC   GL235738  14.848  31.522   9.044
 2618POPC   C1A35739  15.199  31.523   8.594
 2618POPC   D2A35740  15.423  31.642   8.206
 2618POPC   C3A35741  15.254  31.506   7.808
 2618POPC   C4A35742  15.407  31.599   7.390
 2618POPC   C1B35743  14.789  31.822   8.699
 2618POPC   C2B35744  14.877  31.807   8.294
 2618POPC   C3B35745  14.722  31.623   7.941
 2618POPC   C4B35746  14.843  31.234   7.751
 2619POPC   NC335747  19.833   0.648   9.408
 2619POPC   PO435748  19.451   0.092   9.341
 2619POPC   GL135749  19.709   0.361   9.012
 2619POPC   GL235750  19.770   0.762   8.940
 2619POPC   C1A35751  19.992   0.341   8.667
 2619POPC   D2A35752  20.223   0.121   8.327
 2619POPC   C3A35753  20.029   0.285   7.944
 2619POPC   C4A35754  20.178   0.494   7.557
 2619POPC   C1B35755  19.728   0.961   8.579
 2619POPC   C2B35756  19.761   0.705   8.231
 2619POPC   C3B35757  19.833   0.745   7.817
 2619POPC   C4B35758  19.705   0.667   7.391
 2620POPC   NC335759  32.576  10.805   9.380
 2620POPC   PO435760  32.102  10.343   9.566
 2620POPC   GL135761  32.100  10.363   9.138
 2620POPC   GL235762  32.462  10.291   9.149
 2620POPC   C1A35763  31.957  10.488   8.678
 2620POPC   D2A35764  32.146  10.837   8.397
 2620POPC   C3A35765  32.268  10.737   7.961
 2620POPC   C4A35766  32.039  10.387   7.769
 2620POPC   C1B35767  32.457  10.456   8.751
 2620POPC   C2B35768  32.371  10.351   8.306
 2620POPC   C3B35769  32.561  10.290   7.876
 2620POPC   C4B35770  32.380  10.202   7.438
 2621POPC   NC335771  12.160   8.775   9.683
 2621POPC   PO435772  11.848   9.255   9.459
 2621POPC   GL135773  11.985   9.089   9.098
 2621POPC   GL235774  11.978   8.743   9.214
 2621POPC   C1A35775  11.927   9.134   8.649
 2621POPC   D2A35776  12.237   9.229   8.332
 2621POPC   C3A35777  12.137   9.155   7.909
 2621POPC   C4A35778  12.343   9.014   7.537
 2621POPC   C1B35779  12.157   8.691   8.825
 2621POPC   C2B35780  12.123   8.732   8.387
 2621POPC   C3B35781  11.916   8.689   8.002
 2621POPC   C4B35782  12.138   8.545   7.665
 2622POPC   NC335783  21.608  26.927   9.518
 2622POPC   PO435784  20.986  26.933   9.772
 2622POPC   GL135785  21.068  26.739   9.314
 2622POPC   GL235786  21.372  26.778   9.101
 2622POPC   C1A35787  20.979  26.560   8.864
 2622POPC   D2A35788  21.092  26.716   8.443
 2622POPC   C3A35789  21.292  26.536   8.094
 2622POPC   C4A35790  21.397  26.774   7.741
 2622POPC   C1B35791  21.535  27.095   8.846
 2622POPC   C2B35792  21.301  27.173   8.515
 2622POPC   C3B35793  21.349  27.118   8.109
 2622POPC   C4B35794  21.727  27.116   7.869
 2623POPC   NC335795  26.359  37.029   9.504
 2623POPC   PO435796  25.939  36.425   9.485
 2623POPC   GL135797  25.840  36.770   9.192
 2623POPC   GL235798  26.118  37.002   9.066
 2623POPC   C1A35799  25.707  36.893   8.791
 2623POPC   D2A35800  26.068  36.909   8.542
 2623POPC   C3A35801  25.993  36.977   8.104
 2623POPC   C4A35802  26.167  36.869   7.707
 2623POPC   C1B35803  26.366  36.638   8.918
 2623POPC   C2B35804  26.402  36.490   8.505
 2623POPC   C3B35805  26.315  36.546   8.104
 2623POPC   C4B35806  26.314  36.381   7.711
 2624POPC   NC335807   6.835  12.223   9.395
 2624POPC   PO435808   7.512  12.062   9.518
 2624POPC   GL135809   7.415  11.981   9.127
 2624POPC   GL235810   7.166  12.192   9.024
 2624POPC   C1A35811   7.645  12.088   8.770
 2624POPC   D2A35812   7.818  12.095   8.364
 2624POPC   C3A35813   7.430  12.087   8.103
 2624POPC   C4A35814   7.293  12.230   7.726
 2624POPC   C1B35815   7.024  11.855   8.792
 2624POPC   C2B35816   6.888  11.785   8.362
 2624POPC   C3B35817   6.947  11.942   7.949
 2624POPC   C4B35818   7.011  11.928   7.453
 2625POPC   NC335819  33.652  41.992   9.610
 2625POPC   PO435820  34.184  42.413   9.474
 2625POPC   GL135821  33.904  42.461   9.210
 2625POPC   GL235822  33.866  42.134   9.160
 2625POPC   C1A35823  33.981  42.523   8.798
 2625POPC   D2A35824  34.229  42.305   8.520
 2625POPC   C3A35825  34.153  42.568   8.155
 2625POPC   C4A35826  33.792  42.596   7.884
 2625POPC   C1B35827  33.727  42.062   8.753
 2625POPC   C2B35828  33.753  42.217   8.346
 2625POPC   C3B35829  33.789  42.075   7.962
 2625POPC   C4B35830  33.719  42.180   7.563
 2626POPC   NC335831  27.658  43.421   9.290
 2626POPC   PO435832  27.222  42.912   9.463
 2626POPC   GL135833  27.445  43.001   9.059
 2626POPC   GL235834  27.335  42.843   8.772
 2626POPC   C1A35835  27.849  42.992   8.720
 2626POPC   D2A35836  28.039  42.891   8.303
 2626POPC   C3A35837  27.852  42.927   7.902
 2626POPC   C4A35838  27.893  43.142   7.508
 2626POPC   C1B35839  27.453  43.266   8.634
 2626POPC   C2B35840  27.607  43.370   8.264
 2626POPC   C3B35841  27.494  43.281   7.877
 2626POPC   C4B35842  27.347  42.858   7.792
 2627POPC   NC335843  29.701  29.013   9.587
 2627POPC   PO435844  30.225  29.454   9.595
 2627POPC   GL135845  29.920  29.322   9.226
 2627POPC   GL235846  29.845  28.937   9.121
 2627POPC   C1A35847  29.815  29.360   8.791
 2627POPC   D2A35848  29.680  29.139   8.406
 2627POPC   C3A35849  29.797  29.330   7.996
 2627POPC   C4A35850  29.883  29.702   7.734
 2627POPC   C1B35851  30.128  28.942   8.786
 2627POPC   C2B35852  30.170  29.196   8.424
 2627POPC   C3B35853  30.203  29.027   8.058
 2627POPC   C4B35854  30.048  28.973   7.679
 2628POPC   NC335855  23.952  43.803   9.429
 2628POPC   PO435856  23.612  44.398   9.498
 2628POPC   GL135857  23.554  44.051   9.153
 2628POPC   GL235858  23.531  43.694   9.138
 2628POPC   C1A35859  23.644  43.924   8.708
 2628POPC   D2A35860  23.868  43.972   8.311
 2628POPC   C3A35861  23.625  43.946   7.945
 2628POPC   C4A35862  23.693  44.191   7.588
 2628POPC   C1B35863  23.832  43.476   8.824
 2628POPC   C2B35864  23.840  43.369   8.371
 2628POPC   C3B35865  24.009  43.560   7.998
 2628POPC   C4B35866  23.923  43.739   7.596
 2629POPC   NC335867  19.845   5.419   9.756
 2629POPC   PO435868  20.129   4.820   9.553
 2629POPC   GL135869  19.846   5.059   9.243
 2629POPC   GL235870  19.922   5.436   9.190
 2629POPC   C1A35871  19.735   5.181   8.793
 2629POPC   D2A35872  19.975   5.162   8.386
 2629POPC   C3A35873  19.746   5.137   8.005
 2629POPC   C4A35874  19.654   5.421   7.675
 2629POPC   C1B35875  20.201   5.416   8.810
 2629POPC   C2B35876  20.335   5.515   8.373
 2629POPC   C3B35877  20.299   5.332   7.933
 2629POPC   C4B35878  20.062   5.105   7.590
 2630POPC   NC335879  17.965   9.668   9.529
 2630POPC   PO435880  18.497  10.049   9.355
 2630POPC   GL135881  18.233   9.872   9.036
 2630POPC   GL235882  17.893   9.913   9.082
 2630POPC   C1A35883  18.388   9.728   8.624
 2630POPC   D2A35884  18.599   9.387   8.446
 2630POPC   C3A35885  18.728   9.581   8.073
 2630POPC   C4A35886  18.433   9.802   7.790
 2630POPC   C1B35887  17.929   9.961   8.637
 2630POPC   C2B35888  18.027   9.726   8.272
 2630POPC   C3B35889  17.952   9.891   7.948
 2630POPC   C4B35890  18.003   9.955   7.550
 2631POPC   NC335891  21.074  16.255   9.814
 2631POPC   PO435892  21.609  15.978   9.651
 2631POPC   GL135893  21.576  16.157   9.241
 2631POPC   GL235894  21.213  16.224   9.301
 2631POPC   C1A35895  21.688  16.037   8.802
 2631POPC   D2A35896  21.874  15.935   8.399
 2631POPC   C3A35897  21.601  16.047   8.003
 2631POPC   C4A35898  21.488  15.942   7.553
 2631POPC   C1B35899  21.197  16.183   8.847
 2631POPC   C2B35900  21.272  16.021   8.422
 2631POPC   C3B35901  21.109  16.165   8.035
 2631POPC   C4B35902  21.217  16.350   7.660
 2632POPC   NC335903   7.031   4.893   9.844
 2632POPC   PO435904   6.537   5.279   9.534
 2632POPC   GL135905   6.814   5.132   9.227
 2632POPC   GL235906   6.536   5.059   9.052
 2632POPC   C1A35907   6.902   5.152   8.763
 2632POPC   D2A35908   6.639   5.366   8.483
 2632POPC   C3A35909   6.825   5.305   8.119
 2632POPC   C4A35910   6.754   5.016   7.796
 2632POPC   C1B35911   6.431   4.912   8.685
 2632POPC   C2B35912   6.612   4.865   8.304
 2632POPC   C3B35913   6.396   4.689   8.007
 2632POPC   C4B35914   6.096   4.826   7.732
 2633POPC   NC335915  44.058  20.496   9.475
 2633POPC   PO435916  43.404  20.347   9.532
 2633POPC   GL135917  43.638  20.422   9.143
 2633POPC   GL235918  43.670  20.750   9.178
 2633POPC   C1A35919  43.989  20.442   8.788
 2633POPC   D2A35920  44.291  20.446   8.410
 2633POPC   C3A35921  44.206  20.533   7.984
 2633POPC   C4A35922  43.868  20.639   7.698
 2633POPC   C1B35923  43.719  20.884   8.781
 2633POPC   C2B35924  43.819  20.734   8.384
 2633POPC   C3B35925  43.541  20.774   8.056
 2633POPC   C4B35926  43.566  21.024   7.687
 2634POPC   NC335927  13.131  10.822   9.455
 2634POPC   PO435928  12.695  10.289   9.481
 2634POPC   GL135929  12.788  10.516   9.110
 2634POPC   GL235930  12.745  10.877   9.135
 2634POPC   C1A35931  12.869  10.373   8.690
 2634POPC   D2A35932  12.941  10.143   8.316
 2634POPC   C3A35933  12.969  10.388   7.963
 2634POPC   C4A35934  13.073  10.240   7.594
 2634POPC   C1B35935  13.014  10.868   8.775
 2634POPC   C2B35936  13.107  10.727   8.349
 2634POPC   C3B35937  13.003  10.903   7.921
 2634POPC   C4B35938  12.940  10.725   7.481
 2635POPC   NC335939  15.614   5.632   9.587
 2635POPC   PO435940  16.251   5.679   9.545
 2635POPC   GL135941  16.055   5.754   9.173
 2635POPC   GL235942  16.315   5.542   9.066
 2635POPC   C1A35943  15.904   5.630   8.766
 2635POPC   D2A35944  15.964   5.838   8.378
 2635POPC   C3A35945  15.860   5.662   8.009
 2635POPC   C4A35946  15.827   5.766   7.601
 2635POPC   C1B35947  16.419   5.776   8.688
 2635POPC   C2B35948  16.442   5.754   8.230
 2635POPC   C3B35949  16.299   5.842   7.802
 2635POPC   C4B35950  16.257   5.672   7.343
 2636POPC   NC335951  38.795  22.250   9.264
 2636POPC   PO435952  39.414  21.961   9.547
 2636POPC   GL135953  39.312  22.238   9.204
 2636POPC   GL235954  39.170  21.978   9.084
 2636POPC   C1A35955  39.189  22.303   8.718
 2636POPC   D2A35956  39.264  22.430   8.281
 2636POPC   C3A35957  39.208  22.238   7.887
 2636POPC   C4A35958  39.386  21.854   7.826
 2636POPC   C1B35959  38.967  21.842   8.706
 2636POPC   C2B35960  39.034  21.948   8.279
 2636POPC   C3B35961  38.842  21.802   7.892
 2636POPC   C4B35962  39.007  21.836   7.455
 2637POPC   NC335963  35.060  20.172   9.359
 2637POPC   PO435964  34.450  20.458   9.517
 2637POPC   GL135965  34.632  20.538   9.132
 2637POPC   GL235966  34.992  20.620   9.103
 2637POPC   C1A35967  34.527  20.779   8.775
 2637POPC   D2A35968  34.273  20.889   8.428
 2637POPC   C3A35969  34.406  20.957   8.009
 2637POPC   C4A35970  34.277  20.723   7.648
 2637POPC   C1B35971  34.921  20.450   8.679
 2637POPC   C2B35972  34.706  20.615   8.315
 2637POPC   C3B35973  34.669  20.530   7.907
 2637POPC   C4B35974  34.975  20.329   7.618
 2638POPC   NC335975   3.512  35.586   9.434
 2638POPC   PO435976   2.891  35.114   9.516
 2638POPC   GL135977   3.251  35.166   9.145
 2638POPC   GL235978   3.620  35.200   9.155
 2638POPC   C1A35979   3.370  35.374   8.737
 2638POPC   D2A35980   3.547  35.352   8.312
 2638POPC   C3A35981   3.369  35.619   7.962
 2638POPC   C4A35982   3.234  35.510   7.545
 2638POPC   C1B35983   3.874  35.200   8.786
 2638POPC   C2B35984   4.056  35.263   8.387
 2638POPC   C3B35985   4.023  35.112   7.952
 2638POPC   C4B35986   3.678  35.296   7.730
 2639POPC   NC335987   2.877  18.010   9.750
 2639POPC   PO435988   2.532  17.394   9.521
 2639POPC   GL135989   2.648  17.209   9.162
 2639POPC   GL235990   2.868  17.468   9.113
 2639POPC   C1A35991   2.696  17.180   8.734
 2639POPC   D2A35992   2.539  17.211   8.334
 2639POPC   C3A35993   2.810  17.293   7.972
 2639POPC   C4A35994   3.081  17.126   7.666
 2639POPC   C1B35995   2.630  17.691   8.775
 2639POPC   C2B35996   2.798  17.639   8.373
 2639POPC   C3B35997   3.149  17.644   8.107
 2639POPC   C4B35998   3.020  17.688   7.683
 2640POPC   NC335999  22.717   0.985   9.822
 2640POPC   PO436000  23.161   1.320   9.496
 2640POPC   GL136001  22.845   1.355   9.176
 2640POPC   GL236002  22.632   1.075   9.257
 2640POPC   C1A36003  22.883   1.483   8.739
 2640POPC   D2A36004  23.036   1.377   8.336
 2640POPC   C3A36005  22.844   1.486   7.939
 2640POPC   C4A36006  22.926   1.421   7.483
 2640POPC   C1B36007  22.866   0.957   8.884
 2640POPC   C2B36008  22.739   0.962   8.467
 2640POPC   C3B36009  22.883   0.958   8.055
 2640POPC   C4B36010  22.689   0.987   7.674
 2641POPC   NC336011  38.081  25.082   9.626
 2641POPC   PO436012  38.575  25.588   9.445
 2641POPC   GL136013  38.547  25.326   9.106
 2641POPC   GL236014  38.354  25.042   9.192
 2641POPC   C1A36015  38.630  25.472   8.704
 2641POPC   D2A36016  38.847  25.367   8.342
 2641POPC   C3A36017  38.562  25.318   8.015
 2641POPC   C4A36018  38.453  25.653   7.765
 2641POPC   C1B36019  38.470  24.917   8.776
 2641POPC   C2B36020  38.213  24.853   8.417
 2641POPC   C3B36021  38.044  24.911   8.027
 2641POPC   C4B36022  38.091  25.251   7.749
 2642POPC   NC336023   2.187  37.438   9.369
 2642POPC   PO436024   1.617  37.706   9.521
 2642POPC   GL136025   1.807  37.807   9.139
 2642POPC   GL236026   2.128  37.883   9.055
 2642POPC   C1A36027   1.776  37.749   8.699
 2642POPC   D2A36028   1.881  37.482   8.347
 2642POPC   C3A36029   2.027  37.532   7.959
 2642POPC   C4A36030   1.846  37.307   7.653
 2642POPC   C1B36031   2.357  37.882   8.651
 2642POPC   C2B36032   2.383  37.757   8.224
 2642POPC   C3B36033   2.322  37.933   7.799
 2642POPC   C4B36034   2.211  38.009   7.361
 2643POPC   NC336035   4.844   4.791   9.458
 2643POPC   PO436036   5.408   5.221   9.369
 2643POPC   GL136037   5.003   5.138   9.123
 2643POPC   GL236038   4.775   5.449   9.043
 2643POPC   C1A36039   4.904   4.986   8.728
 2643POPC   D2A36040   4.807   4.870   8.298
 2643POPC   C3A36041   5.146   4.855   8.014
 2643POPC   C4A36042   5.152   4.991   7.583
 2643POPC   C1B36043   5.115   5.471   8.750
 2643POPC   C2B36044   5.257   5.218   8.382
 2643POPC   C3B36045   5.344   5.344   7.954
 2643POPC   C4B36046   5.219   5.482   7.539
 2644POPC   NC336047  12.622  20.396   9.385
 2644POPC   PO436048  12.895  20.982   9.598
 2644POPC   GL136049  12.792  20.801   9.136
 2644POPC   GL236050  12.465  20.729   9.044
 2644POPC   C1A36051  12.961  20.694   8.712
 2644POPC   D2A36052  12.868  20.368   8.356
 2644POPC   C3A36053  13.189  20.302   8.025
 2644POPC   C4A36054  13.228  20.469   7.595
 2644POPC   C1B36055  12.483  20.625   8.580
 2644POPC   C2B36056  12.700  20.873   8.297
 2644POPC   C3B36057  12.803  20.686   7.961
 2644POPC   C4B36058  12.460  20.422   8.014
 2645POPC   NC336059  20.060  11.524   9.430
 2645POPC   PO436060  20.293  10.945   9.525
 2645POPC   GL136061  20.138  11.088   9.128
 2645POPC   GL236062  19.799  11.088   9.051
 2645POPC   C1A36063  20.056  11.232   8.674
 2645POPC   D2A36064  19.731  10.980   8.485
 2645POPC   C3A36065  19.838  10.988   8.067
 2645POPC   C4A36066  20.093  11.278   7.841
 2645POPC   C1B36067  19.568  11.378   8.760
 2645POPC   C2B36068  19.698  11.466   8.317
 2645POPC   C3B36069  19.613  11.439   7.855
 2645POPC   C4B36070  19.546  11.571   7.410
 2646POPC   NC336071  31.057  33.364   9.488
 2646POPC   PO436072  30.727  33.977   9.454
 2646POPC   GL136073  30.670  34.113   9.060
 2646POPC   GL236074  30.718  33.779   8.964
 2646POPC   C1A36075  30.539  34.123   8.634
 2646POPC   D2A36076  30.586  33.790   8.370
 2646POPC   C3A36077  30.604  33.904   7.964
 2646POPC   C4A36078  30.436  34.059   7.623
 2646POPC   C1B36079  31.030  33.911   8.683
 2646POPC   C2B36080  31.062  33.965   8.252
 2646POPC   C3B36081  31.090  33.773   7.864
 2646POPC   C4B36082  30.784  33.499   7.712
 2647POPC   NC336083   0.903  32.009   9.453
 2647POPC   PO436084   0.321  32.334   9.445
 2647POPC   GL136085   0.423  32.268   9.046
 2647POPC   GL236086   0.735  32.411   9.107
 2647POPC   C1A36087   0.445  32.073   8.631
 2647POPC   D2A36088   0.147  31.925   8.311
 2647POPC   C3A36089   0.322  32.171   7.947
 2647POPC   C4A36090   0.685  32.110   7.665
 2647POPC   C1B36091   0.667  32.530   8.671
 2647POPC   C2B36092   0.707  32.402   8.224
 2647POPC   C3B36093   0.631  32.581   7.824
 2647POPC   C4B36094   0.671  32.627   7.357
 2648POPC   NC336095  10.404  33.539   9.448
 2648POPC   PO436096  10.769  34.171   9.473
 2648POPC   GL136097  10.720  33.845   9.174
 2648POPC   GL236098  10.394  33.834   9.007
 2648POPC   C1A36099  10.799  33.555   8.849
 2648POPC   D2A36100  10.565  33.479   8.477
 2648POPC   C3A36101  10.618  33.675   8.067
 2648POPC   C4A36102  10.222  33.643   7.874
 2648POPC   C1B36103  10.714  34.008   8.667
 2648POPC   C2B36104  10.964  33.982   8.285
 2648POPC   C3B36105  10.870  34.092   7.851
 2648POPC   C4B36106  10.558  33.904   7.540
 2649POPC   NC336107  17.569  25.601   9.498
 2649POPC   PO436108  17.906  26.184   9.465
 2649POPC   GL136109  17.642  26.033   9.182
 2649POPC   GL236110  17.807  25.738   9.072
 2649POPC   C1A36111  17.535  26.188   8.772
 2649POPC   D2A36112  17.398  26.413   8.393
 2649POPC   C3A36113  17.559  26.353   7.976
 2649POPC   C4A36114  17.478  26.322   7.531
 2649POPC   C1B36115  17.337  25.746   8.909
 2649POPC   C2B36116  17.253  25.713   8.488
 2649POPC   C3B36117  17.252  25.614   8.082
 2649POPC   C4B36118  17.298  25.905   7.754
 2650POPC   NC336119  42.290  18.514   9.493
 2650POPC   PO436120  41.637  18.378   9.492
 2650POPC   GL136121  41.614  18.216   9.084
 2650POPC   GL236122  41.400  17.972   9.058
 2650POPC   C1A36123  41.686  18.218   8.626
 2650POPC   D2A36124  41.537  18.459   8.256
 2650POPC   C3A36125  41.680  18.451   7.825
 2650POPC   C4A36126  41.657  18.515   7.367
 2650POPC   C1B36127  41.387  17.781   8.679
 2650POPC   C2B36128  41.467  17.608   8.278
 2650POPC   C3B36129  41.471  17.796   7.866
 2650POPC   C4B36130  41.448  18.061   7.499
 2651POPC   NC336131  27.861   9.327   9.677
 2651POPC   PO436132  27.340   9.000   9.502
 2651POPC   GL136133  27.667   9.051   9.222
 2651POPC   GL236134  27.913   8.849   9.416
 2651POPC   C1A36135  27.612   9.193   8.764
 2651POPC   D2A36136  27.612   9.447   8.371
 2651POPC   C3A36137  27.518   9.208   7.986
 2651POPC   C4A36138  27.527   8.762   7.830
 2651POPC   C1B36139  27.963   8.718   8.985
 2651POPC   C2B36140  27.898   8.782   8.555
 2651POPC   C3B36141  27.842   8.569   8.167
 2651POPC   C4B36142  28.051   8.724   7.780
 2652POPC   NC336143   1.997  29.412   9.429
 2652POPC   PO436144   1.851  28.694   9.430
 2652POPC   GL136145   2.128  28.861   9.091
 2652POPC   GL236146   2.144  29.236   8.992
 2652POPC   C1A36147   2.165  28.889   8.645
 2652POPC   D2A36148   1.887  29.121   8.369
 2652POPC   C3A36149   1.932  28.966   7.980
 2652POPC   C4A36150   2.098  28.853   7.555
 2652POPC   C1B36151   1.743  29.420   8.786
 2652POPC   C2B36152   1.709  29.597   8.366
 2652POPC   C3B36153   1.695  29.423   7.955
 2652POPC   C4B36154   1.775  29.603   7.549
 2653POPC   NC336155  43.640  44.072   9.472
 2653POPC   PO436156  44.142  43.651   9.408
 2653POPC   GL136157  43.907  43.827   9.059
 2653POPC   GL236158  43.555  43.949   8.994
 2653POPC   C1A36159  43.888  43.684   8.607
 2653POPC   D2A36160  44.068  43.555   8.205
 2653POPC   C3A36161  43.845  43.810   7.902
 2653POPC   C4A36162  43.956  44.108   7.618
 2653POPC   C1B36163  43.801  44.185   8.699
 2653POPC   C2B36164  43.891  44.151   8.279
 2653POPC   C3B36165  43.615  44.295   7.935
 2653POPC   C4B36166  43.516  44.294   7.491
 2654POPC   NC336167  17.023  42.284   9.585
 2654POPC   PO436168  16.935  42.817   9.330
 2654POPC   GL136169  16.942  42.441   9.101
 2654POPC   GL236170  16.606  42.490   8.998
 2654POPC   C1A36171  16.963  42.202   8.705
 2654POPC   D2A36172  17.264  42.156   8.351
 2654POPC   C3A36173  17.023  42.189   7.938
 2654POPC   C4A36174  16.597  42.084   7.754
 2654POPC   C1B36175  16.858  42.718   8.682
 2654POPC   C2B36176  16.987  42.567   8.307
 2654POPC   C3B36177  16.889  42.704   7.904
 2654POPC   C4B36178  16.719  42.650   7.506
 2655POPC   NC336179  18.749  20.919   9.641
 2655POPC   PO436180  18.690  20.218   9.579
 2655POPC   GL136181  18.728  20.513   9.252
 2655POPC   GL236182  19.058  20.677   9.266
 2655POPC   C1A36183  18.664  20.426   8.802
 2655POPC   D2A36184  18.803  20.379   8.388
 2655POPC   C3A36185  18.581  20.612   8.071
 2655POPC   C4A36186  18.706  20.615   7.633
 2655POPC   C1B36187  19.259  20.768   8.856
 2655POPC   C2B36188  19.220  20.669   8.394
 2655POPC   C3B36189  19.091  20.481   7.964
 2655POPC   C4B36190  19.206  20.666   7.559
 2656POPC   NC336191   1.722   3.168   9.652
 2656POPC   PO436192   2.232   3.721   9.438
 2656POPC   GL136193   2.191   3.715   9.011
 2656POPC   GL236194   1.835   3.679   8.955
 2656POPC   C1A36195   2.131   3.540   8.601
 2656POPC   D2A36196   1.791   3.527   8.373
 2656POPC   C3A36197   2.001   3.420   8.048
 2656POPC   C4A36198   2.043   3.620   7.701
 2656POPC   C1B36199   1.469   3.746   8.725
 2656POPC   C2B36200   1.492   3.953   8.331
 2656POPC   C3B36201   1.663   3.856   7.934
 2656POPC   C4B36202   1.525   3.692   7.523
 2657POPC   NC336203  22.048   4.856   9.471
 2657POPC   PO436204  22.480   5.355   9.300
 2657POPC   GL136205  22.268   5.100   9.077
 2657POPC   GL236206  21.966   5.219   9.129
 2657POPC   C1A36207  22.264   5.026   8.676
 2657POPC   D2A36208  22.527   4.985   8.390
 2657POPC   C3A36209  22.268   4.996   8.036
 2657POPC   C4A36210  22.342   5.183   7.664
 2657POPC   C1B36211  21.779   5.186   8.774
 2657POPC   C2B36212  21.848   5.073   8.381
 2657POPC   C3B36213  21.743   5.223   8.025
 2657POPC   C4B36214  21.846   5.198   7.633
 2658POPC   NC336215  30.314  26.458   9.493
 2658POPC   PO436216  29.923  25.929   9.557
 2658POPC   GL136217  30.122  26.034   9.201
 2658POPC   GL236218  29.927  26.319   9.147
 2658POPC   C1A36219  30.079  25.950   8.767
 2658POPC   D2A36220  29.826  25.898   8.401
 2658POPC   C3A36221  29.942  26.005   7.973
 2658POPC   C4A36222  29.873  25.823   7.558
 2658POPC   C1B36223  30.081  26.463   8.755
 2658POPC   C2B36224  30.121  26.328   8.338
 2658POPC   C3B36225  30.140  26.494   7.939
 2658POPC   C4B36226  30.119  26.268   7.571
 2659POPC   NC336227  11.822  19.257   9.642
 2659POPC   PO436228  11.140  19.129   9.589
 2659POPC   GL136229  11.354  19.217   9.225
 2659POPC   GL236230  11.582  19.487   9.263
 2659POPC   C1A36231  11.422  19.091   8.808
 2659POPC   D2A36232  11.235  19.128   8.407
 2659POPC   C3A36233  11.342  18.974   8.036
 2659POPC   C4A36234  11.339  18.663   7.729
 2659POPC   C1B36235  11.785  19.441   8.876
 2659POPC   C2B36236  11.746  19.280   8.457
 2659POPC   C3B36237  11.545  19.456   8.124
 2659POPC   C4B36238  11.589  19.311   7.745
 2660POPC   NC336239  41.266  41.139   9.181
 2660POPC   PO436240  41.630  40.565   9.429
 2660POPC   GL136241  41.551  40.617   9.023
 2660POPC   GL236242  41.238  40.669   9.002
 2660POPC   C1A36243  41.550  40.497   8.591
 2660POPC   D2A36244  41.907  40.497   8.297
 2660POPC   C3A36245  41.898  40.780   7.937
 2660POPC   C4A36246  41.709  41.178   7.888
 2660POPC   C1B36247  41.149  40.841   8.580
 2660POPC   C2B36248  41.424  40.820   8.205
 2660POPC   C3B36249  41.366  40.747   7.795
 2660POPC   C4B36250  41.207  40.970   7.471
 2661POPC   NC336251  23.186  20.811   9.449
 2661POPC   PO436252  23.830  20.506   9.476
 2661POPC   GL136253  23.537  20.413   9.111
 2661POPC   GL236254  23.481  20.758   9.033
 2661POPC   C1A36255  23.469  20.492   8.611
 2661POPC   D2A36256  23.551  20.477   8.145
 2661POPC   C3A36257  23.664  20.475   7.700
 2661POPC   C4A36258  23.881  20.284   7.340
 2661POPC   C1B36259  23.292  20.995   8.702
 2661POPC   C2B36260  23.279  20.912   8.262
 2661POPC   C3B36261  23.591  20.945   7.922
 2661POPC   C4B36262  23.522  20.951   7.490
 2662POPC   NC336263   1.084   8.367   9.521
 2662POPC   PO436264   1.529   7.828   9.488
 2662POPC   GL136265   1.373   8.124   9.158
 2662POPC   GL236266   1.000   8.109   9.103
 2662POPC   C1A36267   1.426   8.309   8.738
 2662POPC   D2A36268   1.511   8.140   8.289
 2662POPC   C3A36269   1.587   8.381   7.918
 2662POPC   C4A36270   1.341   8.393   7.514
 2662POPC   C1B36271   1.054   7.976   8.688
 2662POPC   C2B36272   1.041   8.320   8.391
 2662POPC   C3B36273   1.066   8.313   7.965
 2662POPC   C4B36274   0.953   7.923   7.787
 2663POPC   NC336275  14.441  15.717   9.677
 2663POPC   PO436276  14.520  16.328   9.589
 2663POPC   GL136277  14.331  16.141   9.170
 2663POPC   GL236278  14.157  15.782   9.082
 2663POPC   C1A36279  14.413  16.110   8.726
 2663POPC   D2A36280  14.212  16.095   8.317
 2663POPC   C3A36281  14.404  16.167   7.924
 2663POPC   C4A36282  14.586  16.120   7.486
 2663POPC   C1B36283  14.162  15.655   8.635
 2663POPC   C2B36284  14.450  15.620   8.305
 2663POPC   C3B36285  14.459  15.645   7.860
 2663POPC   C4B36286  14.129  15.866   7.639
 2664POPC   NC336287  21.739  42.210   9.413
 2664POPC   PO436288  22.414  42.214   9.475
 2664POPC   GL136289  22.155  42.461   9.187
 2664POPC   GL236290  21.952  42.242   8.965
 2664POPC   C1A36291  22.194  42.631   8.772
 2664POPC   D2A36292  22.175  42.363   8.430
 2664POPC   C3A36293  22.157  42.639   8.112
 2664POPC   C4A36294  22.113  42.778   7.734
 2664POPC   C1B36295  21.657  42.091   8.698
 2664POPC   C2B36296  21.705  42.161   8.277
 2664POPC   C3B36297  21.976  42.204   7.958
 2664POPC   C4B36298  22.001  42.334   7.529
 2665POPC   NC336299  35.288   2.267   9.516
 2665POPC   PO436300  35.436   2.965   9.661
 2665POPC   GL136301  35.232   2.875   9.223
 2665POPC   GL236302  35.262   2.538   9.070
 2665POPC   C1A36303  35.262   2.953   8.764
 2665POPC   D2A36304  35.431   2.734   8.383
 2665POPC   C3A36305  35.334   2.850   7.941
 2665POPC   C4A36306  35.507   3.092   7.571
 2665POPC   C1B36307  35.033   2.461   8.680
 2665POPC   C2B36308  35.022   2.496   8.228
 2665POPC   C3B36309  35.242   2.364   7.823
 2665POPC   C4B36310  35.249   2.288   7.357
 2666POPC   NC336311  27.224  36.985   9.687
 2666POPC   PO436312  27.773  36.897   9.377
 2666POPC   GL136313  27.659  37.132   9.071
 2666POPC   GL236314  27.601  36.812   8.878
 2666POPC   C1A36315  27.651  37.288   8.674
 2666POPC   D2A36316  27.579  36.977   8.384
 2666POPC   C3A36317  27.716  37.094   8.025
 2666POPC   C4A36318  27.617  36.892   7.666
 2666POPC   C1B36319  27.502  36.484   8.559
 2666POPC   C2B36320  27.257  36.465   8.173
 2666POPC   C3B36321  27.299  36.503   7.708
 2666POPC   C4B36322  27.539  36.454   7.305
 2667POPC   NC336323  13.087  40.842   9.281
 2667POPC   PO436324  12.422  40.755   9.493
 2667POPC   GL136325  12.667  40.504   9.144
 2667POPC   GL236326  13.015  40.338   9.153
 2667POPC   C1A36327  12.828  40.707   8.732
 2667POPC   D2A36328  12.656  40.905   8.390
 2667POPC   C3A36329  12.897  40.878   8.039
 2667POPC   C4A36330  12.740  40.944   7.668
 2667POPC   C1B36331  12.866  40.203   8.733
 2667POPC   C2B36332  12.615  40.369   8.407
 2667POPC   C3B36333  12.598  40.474   7.959
 2667POPC   C4B36334  12.994  40.498   7.701
 2668POPC   NC336335  26.295  11.555   9.524
 2668POPC   PO436336  25.913  11.029   9.376
 2668POPC   GL136337  25.999  11.265   9.062
 2668POPC   GL236338  25.900  11.583   9.145
 2668POPC   C1A36339  25.987  11.151   8.644
 2668POPC   D2A36340  25.759  11.190   8.317
 2668POPC   C3A36341  26.002  11.244   8.029
 2668POPC   C4A36342  26.067  10.931   7.805
 2668POPC   C1B36343  25.701  11.561   8.729
 2668POPC   C2B36344  25.725  11.690   8.309
 2668POPC   C3B36345  25.622  11.567   7.869
 2668POPC   C4B36346  25.652  11.490   7.400
 2669POPC   NC336347  42.584  42.619   9.495
 2669POPC   PO436348  42.007  42.256   9.477
 2669POPC   GL136349  42.232  42.449   9.091
 2669POPC   GL236350  42.561  42.357   9.068
 2669POPC   C1A36351  42.403  42.450   8.608
 2669POPC   D2A36352  42.438  42.568   8.165
 2669POPC   C3A36353  42.094  42.549   7.922
 2669POPC   C4A36354  42.188  42.152   7.760
 2669POPC   C1B36355  42.682  42.039   8.785
 2669POPC   C2B36356  42.431  41.974   8.429
 2669POPC   C3B36357  42.569  41.964   8.028
 2669POPC   C4B36358  42.688  42.294   7.774
 2670POPC   NC336359   4.569   7.974   9.538
 2670POPC   PO436360   4.143   8.427   9.710
 2670POPC   GL136361   4.283   8.312   9.231
 2670POPC   GL236362   4.607   8.148   9.070
 2670POPC   C1A36363   4.205   8.236   8.784
 2670POPC   D2A36364   4.384   8.195   8.373
 2670POPC   C3A36365   4.090   8.110   8.044
 2670POPC   C4A36366   4.233   8.180   7.621
 2670POPC   C1B36367   4.556   7.849   8.694
 2670POPC   C2B36368   4.469   7.687   8.280
 2670POPC   C3B36369   4.558   7.932   7.906
 2670POPC   C4B36370   4.580   7.822   7.416
 2671POPC   NC336371  43.437  23.786   9.484
 2671POPC   PO436372  44.101  23.572   9.456
 2671POPC   GL136373  43.868  23.705   9.076
 2671POPC   GL236374  43.581  23.933   9.004
 2671POPC   C1A36375  43.731  23.623   8.622
 2671POPC   D2A36376  43.441  23.597   8.272
 2671POPC   C3A36377  43.606  23.833   7.898
 2671POPC   C4A36378  43.910  23.649   7.607
 2671POPC   C1B36379  43.968  24.076   8.733
 2671POPC   C2B36380  44.125  24.263   8.347
 2671POPC   C3B36381  44.209  24.201   7.908
 2671POPC   C4B36382  43.941  24.133   7.578
 2672POPC   NC336383   5.791   9.877   9.483
 2672POPC   PO436384   6.424   9.519   9.509
 2672POPC   GL136385   6.136   9.587   9.143
 2672POPC   GL236386   5.754   9.635   9.040
 2672POPC   C1A36387   6.131   9.749   8.712
 2672POPC   D2A36388   6.040   9.797   8.283
 2672POPC   C3A36389   6.323  10.022   8.035
 2672POPC   C4A36390   6.181  10.053   7.638
 2672POPC   C1B36391   5.478   9.563   8.696
 2672POPC   C2B36392   5.499   9.791   8.289
 2672POPC   C3B36393   5.673   9.792   7.856
 2672POPC   C4B36394   5.463   9.807   7.415
 2673POPC   NC336395  27.079  40.981   9.305
 2673POPC   PO436396  26.420  40.756   9.489
 2673POPC   GL136397  26.588  40.643   9.081
 2673POPC   GL236398  26.951  40.516   9.109
 2673POPC   C1A36399  26.542  40.875   8.671
 2673POPC   D2A36400  26.784  41.034   8.307
 2673POPC   C3A36401  26.842  40.824   7.931
 2673POPC   C4A36402  26.591  40.446   7.805
 2673POPC   C1B36403  26.985  40.655   8.711
 2673POPC   C2B36404  26.803  40.495   8.329
 2673POPC   C3B36405  27.081  40.367   7.986
 2673POPC   C4B36406  27.050  40.532   7.579
 2674POPC   NC336407  27.465   1.377   9.562
 2674POPC   PO436408  27.837   0.893   9.542
 2674POPC   GL136409  27.621   1.025   9.160
 2674POPC   GL236410  27.598   1.389   9.093
 2674POPC   C1A36411  27.518   1.091   8.704
 2674POPC   D2A36412  27.849   0.925   8.439
 2674POPC   C3A36413  27.758   1.044   8.044
 2674POPC   C4A36414  27.458   1.047   7.726
 2674POPC   C1B36415  27.671   1.657   8.771
 2674POPC   C2B36416  27.761   1.826   8.396
 2674POPC   C3B36417  27.664   1.545   8.076
 2674POPC   C4B36418  27.483   1.556   7.662
 2675POPC   NC336419  29.652  30.766   9.310
 2675POPC   PO436420  30.160  30.335   9.491
 2675POPC   GL136421  30.143  30.607   9.111
 2675POPC   GL236422  30.455  30.829   9.021
 2675POPC   C1A36423  29.981  30.832   8.739
 2675POPC   D2A36424  30.129  30.983   8.342
 2675POPC   C3A36425  29.881  30.881   7.994
 2675POPC   C4A36426  29.815  30.608   7.619
 2675POPC   C1B36427  30.402  30.574   8.633
 2675POPC   C2B36428  30.052  30.469   8.349
 2675POPC   C3B36429  30.165  30.464   7.957
 2675POPC   C4B36430  30.352  30.849   7.808
 2676POPC   NC336431  25.208  42.836   9.483
 2676POPC   PO436432  25.205  43.519   9.636
 2676POPC   GL136433  25.327  43.264   9.274
 2676POPC   GL236434  24.997  43.138   9.126
 2676POPC   C1A36435  25.457  43.263   8.840
 2676POPC   D2A36436  25.597  43.074   8.450
 2676POPC   C3A36437  25.415  43.187   8.075
 2676POPC   C4A36438  25.270  43.370   7.706
 2676POPC   C1B36439  25.125  42.899   8.769
 2676POPC   C2B36440  25.149  42.817   8.354
 2676POPC   C3B36441  25.323  42.706   7.959
 2676POPC   C4B36442  25.056  42.872   7.629
 2677POPC   NC336443   4.889  14.007   9.513
 2677POPC   PO436444   4.951  13.394   9.700
 2677POPC   GL136445   5.100  13.654   9.248
 2677POPC   GL236446   5.334  13.484   9.040
 2677POPC   C1A36447   5.058  13.816   8.794
 2677POPC   D2A36448   4.901  13.899   8.366
 2677POPC   C3A36449   5.073  13.666   8.029
 2677POPC   C4A36450   5.039  13.839   7.652
 2677POPC   C1B36451   5.379  13.123   8.785
 2677POPC   C2B36452   5.450  13.127   8.352
 2677POPC   C3B36453   5.566  13.407   8.027
 2677POPC   C4B36454   5.411  13.501   7.604
 2678POPC   NC336455   9.591   8.888   9.440
 2678POPC   PO436456  10.096   9.373   9.479
 2678POPC   GL136457   9.889   9.159   9.132
 2678POPC   GL236458   9.954   8.815   9.080
 2678POPC   C1A36459   9.590   9.063   8.790
 2678POPC   D2A36460   9.420   9.157   8.393
 2678POPC   C3A36461   9.648   9.205   8.053
 2678POPC   C4A36462   9.537   9.149   7.659
 2678POPC   C1B36463   9.907   8.641   8.691
 2678POPC   C2B36464   9.669   8.716   8.313
 2678POPC   C3B36465   9.725   8.709   7.861
 2678POPC   C4B36466  10.024   8.737   7.514
 2679POPC   NC336467   4.849   9.560   9.536
 2679POPC   PO436468   5.514   9.494   9.470
 2679POPC   GL136469   5.228   9.694   9.171
 2679POPC   GL236470   5.008  10.002   9.200
 2679POPC   C1A36471   4.946   9.523   8.854
 2679POPC   D2A36472   4.952   9.230   8.496
 2679POPC   C3A36473   4.963   9.438   8.088
 2679POPC   C4A36474   5.147   9.822   7.903
 2679POPC   C1B36475   5.159   9.979   8.746
 2679POPC   C2B36476   5.014  10.117   8.330
 2679POPC   C3B36477   4.944  10.281   7.897
 2679POPC   C4B36478   5.039  10.126   7.431
 2680POPC   NC336479  13.082   9.243   9.790
 2680POPC   PO436480  13.502   9.815   9.802
 2680POPC   GL136481  13.635   9.840   9.297
 2680POPC   GL236482  13.617   9.512   9.161
 2680POPC   C1A36483  13.626   9.839   8.798
 2680POPC   D2A36484  13.431  10.068   8.464
 2680POPC   C3A36485  13.519   9.896   8.043
 2680POPC   C4A36486  13.515  10.024   7.619
 2680POPC   C1B36487  13.487   9.303   8.788
 2680POPC   C2B36488  13.658   9.245   8.407
 2680POPC   C3B36489  13.754   9.385   8.020
 2680POPC   C4B36490  13.495   9.499   7.696
 2681POPC   NC336491  23.686  15.714   9.778
 2681POPC   PO436492  23.693  16.336   9.555
 2681POPC   GL136493  23.742  15.994   9.289
 2681POPC   GL236494  23.451  16.011   9.163
 2681POPC   C1A36495  23.833  15.886   8.839
 2681POPC   D2A36496  23.919  16.049   8.428
 2681POPC   C3A36497  23.806  15.833   8.051
 2681POPC   C4A36498  23.746  16.018   7.646
 2681POPC   C1B36499  23.314  15.896   8.776
 2681POPC   C2B36500  23.400  15.995   8.370
 2681POPC   C3B36501  23.301  15.831   7.988
 2681POPC   C4B36502  23.496  15.576   7.682
 2682POPC   NC336503  33.146  37.903   9.409
 2682POPC   PO436504  32.858  37.624   9.942
 2682POPC   GL136505  32.977  37.444   9.396
 2682POPC   GL236506  32.775  37.711   9.153
 2682POPC   C1A36507  33.032  37.428   8.853
 2682POPC   D2A36508  33.050  37.290   8.399
 2682POPC   C3A36509  32.959  37.599   8.093
 2682POPC   C4A36510  33.133  37.530   7.713
 2682POPC   C1B36511  32.966  37.944   8.807
 2682POPC   C2B36512  32.888  38.027   8.419
 2682POPC   C3B36513  32.942  38.129   8.031
 2682POPC   C4B36514  32.896  37.968   7.640
 2683POPC   NC336515  23.210  28.662   9.489
 2683POPC   PO436516  23.234  28.073   9.274
 2683POPC   GL136517  22.974  28.339   9.079
 2683POPC   GL236518  23.211  28.554   8.978
 2683POPC   C1A36519  22.798  28.532   8.725
 2683POPC   D2A36520  22.744  28.580   8.302
 2683POPC   C3A36521  22.981  28.334   8.107
 2683POPC   C4A36522  22.908  28.315   7.714
 2683POPC   C1B36523  23.162  28.194   8.632
 2683POPC   C2B36524  23.278  27.939   8.293
 2683POPC   C3B36525  23.257  27.966   7.835
 2683POPC   C4B36526  23.241  28.062   7.400
 2684POPC   NC336527  40.976  10.698   9.574
 2684POPC   PO436528  40.347  10.690   9.533
 2684POPC   GL136529  40.665  10.450   9.244
 2684POPC   GL236530  41.052  10.313   9.257
 2684POPC   C1A36531  40.865  10.574   8.847
 2684POPC   D2A36532  40.688  10.654   8.446
 2684POPC   C3A36533  40.906  10.695   8.075
 2684POPC   C4A36534  40.790  10.563   7.667
 2684POPC   C1B36535  41.148  10.124   8.863
 2684POPC   C2B36536  41.129  10.298   8.446
 2684POPC   C3B36537  41.077  10.123   8.054
 2684POPC   C4B36538  41.205  10.265   7.635
 2685POPC   NC336539  38.755  14.624   9.469
 2685POPC   PO436540  38.134  14.431   9.640
 2685POPC   GL136541  38.326  14.299   9.255
 2685POPC   GL236542  38.602  14.070   9.242
 2685POPC   C1A36543  38.263  14.216   8.825
 2685POPC   D2A36544  38.492  14.091   8.446
 2685POPC   C3A36545  38.411  14.258   8.052
 2685POPC   C4A36546  38.173  14.078   7.729
 2685POPC   C1B36547  38.789  14.211   8.845
 2685POPC   C2B36548  39.020  14.026   8.500
 2685POPC   C3B36549  38.895  14.035   8.063
 2685POPC   C4B36550  38.751  14.148   7.638
 2686POPC   NC336551  28.965  37.203   9.491
 2686POPC   PO436552  29.402  36.691   9.501
 2686POPC   GL136553  29.085  36.813   9.178
 2686POPC   GL236554  29.214  36.527   9.046
 2686POPC   C1A36555  28.911  37.101   8.839
 2686POPC   D2A36556  29.136  37.213   8.438
 2686POPC   C3A36557  29.062  37.007   8.018
 2686POPC   C4A36558  29.112  37.185   7.598
 2686POPC   C1B36559  29.254  36.767   8.683
 2686POPC   C2B36560  29.287  36.598   8.279
 2686POPC   C3B36561  29.455  36.457   7.903
 2686POPC   C4B36562  29.440  36.792   7.613
 2687POPC   NC336563  40.036  24.081   9.835
 2687POPC   PO436564  39.616  23.564   9.621
 2687POPC   GL136565  39.804  23.688   9.203
 2687POPC   GL236566  39.902  24.042   9.117
 2687POPC   C1A36567  39.856  23.487   8.766
 2687POPC   D2A36568  39.655  23.542   8.363
 2687POPC   C3A36569  39.898  23.367   8.033
 2687POPC   C4A36570  39.976  23.494   7.627
 2687POPC   C1B36571  40.194  23.873   8.794
 2687POPC   C2B36572  40.173  23.698   8.360
 2687POPC   C3B36573  40.049  23.890   7.947
 2687POPC   C4B36574  40.295  23.947   7.539
 2688POPC   NC336575  18.636  31.335   9.840
 2688POPC   PO436576  18.170  31.710   9.539
 2688POPC   GL136577  18.051  31.505   9.112
 2688POPC   GL236578  17.816  31.228   9.151
 2688POPC   C1A36579  18.112  31.387   8.630
 2688POPC   D2A36580  18.301  31.363   8.179
 2688POPC   C3A36581  18.116  31.558   7.806
 2688POPC   C4A36582  18.291  31.763   7.456
 2688POPC   C1B36583  17.734  30.966   8.810
 2688POPC   C2B36584  17.894  30.869   8.379
 2688POPC   C3B36585  17.932  31.069   7.955
 2688POPC   C4B36586  18.315  31.115   7.675
 2689POPC   NC336587  26.605   6.866   9.411
 2689POPC   PO436588  26.366   6.234   9.466
 2689POPC   GL136589  26.652   6.388   9.162
 2689POPC   GL236590  26.956   6.638   9.094
 2689POPC   C1A36591  26.692   6.368   8.743
 2689POPC   D2A36592  26.871   6.540   8.432
 2689POPC   C3A36593  26.623   6.471   8.111
 2689POPC   C4A36594  26.922   6.422   7.835
 2689POPC   C1B36595  26.789   6.934   8.742
 2689POPC   C2B36596  26.637   6.976   8.280
 2689POPC   C3B36597  26.730   6.898   7.816
 2689POPC   C4B36598  26.673   7.052   7.368
 2690POPC   NC336599  35.413  10.878   9.398
 2690POPC   PO436600  35.473  10.208   9.565
 2690POPC   GL136601  35.534  10.379   9.156
 2690POPC   GL236602  35.175  10.463   9.152
 2690POPC   C1A36603  35.489  10.682   8.792
 2690POPC   D2A36604  35.204  10.807   8.473
 2690POPC   C3A36605  35.284  10.616   8.068
 2690POPC   C4A36606  35.407  10.780   7.674
 2690POPC   C1B36607  35.131  10.305   8.728
 2690POPC   C2B36608  35.243  10.135   8.335
 2690POPC   C3B36609  35.079  10.132   7.963
 2690POPC   C4B36610  34.966  10.455   7.691
 2691POPC   NC336611  36.186  16.132   9.597
 2691POPC   PO436612  35.834  15.579   9.414
 2691POPC   GL136613  36.093  15.849   9.140
 2691POPC   GL236614  36.222  16.185   9.086
 2691POPC   C1A36615  36.159  15.708   8.749
 2691POPC   D2A36616  36.297  15.797   8.405
 2691POPC   C3A36617  36.110  16.028   8.125
 2691POPC   C4A36618  36.258  15.886   7.721
 2691POPC   C1B36619  36.042  16.191   8.700
 2691POPC   C2B36620  35.794  16.440   8.485
 2691POPC   C3B36621  35.743  16.388   8.055
 2691POPC   C4B36622  35.876  16.219   7.715
 2692POPC   NC336623  33.628   6.570   9.554
 2692POPC   PO436624  34.286   6.557   9.513
 2692POPC   GL136625  34.018   6.738   9.224
 2692POPC   GL236626  33.877   6.428   9.117
 2692POPC   C1A36627  33.950   6.805   8.777
 2692POPC   D2A36628  33.782   6.678   8.344
 2692POPC   C3A36629  33.843   6.924   7.951
 2692POPC   C4A36630  33.988   6.810   7.533
 2692POPC   C1B36631  33.568   6.429   8.770
 2692POPC   C2B36632  33.354   6.390   8.385
 2692POPC   C3B36633  33.588   6.270   8.021
 2692POPC   C4B36634  33.987   6.401   7.841
 2693POPC   NC336635  29.270  20.200   9.594
 2693POPC   PO436636  28.912  19.578   9.510
 2693POPC   GL136637  29.205  19.752   9.245
 2693POPC   GL236638  28.994  20.017   9.145
 2693POPC   C1A36639  29.213  19.663   8.797
 2693POPC   D2A36640  29.343  19.818   8.408
 2693POPC   C3A36641  29.162  19.790   8.015
 2693POPC   C4A36642  28.875  19.906   7.732
 2693POPC   C1B36643  29.379  20.116   8.920
 2693POPC   C2B36644  29.528  20.266   8.570
 2693POPC   C3B36645  29.266  20.284   8.209
 2693POPC   C4B36646  29.294  20.251   7.775
 2694POPC   NC336647   1.631  32.174   9.519
 2694POPC   PO436648   1.022  32.482   9.546
 2694POPC   GL136649   1.236  32.517   9.191
 2694POPC   GL236650   1.280  32.175   9.115
 2694POPC   C1A36651   1.163  32.637   8.780
 2694POPC   D2A36652   1.193  32.413   8.395
 2694POPC   C3A36653   1.398  32.455   8.014
 2694POPC   C4A36654   1.118  32.450   7.682
 2694POPC   C1B36655   0.993  32.140   8.790
 2694POPC   C2B36656   0.908  31.987   8.408
 2694POPC   C3B36657   1.059  32.072   8.017
 2694POPC   C4B36658   1.411  31.998   7.760
 2695POPC   NC336659   7.604  11.591   9.493
 2695POPC   PO436660   7.127  11.140   9.553
 2695POPC   GL136661   7.473  11.118   9.254
 2695POPC   GL236662   7.800  11.301   9.126
 2695POPC   C1A36663   7.410  11.043   8.847
 2695POPC   D2A36664   7.283  11.239   8.486
 2695POPC   C3A36665   7.555  11.167   8.141
 2695POPC   C4A36666   7.259  11.100   7.802
 2695POPC   C1B36667   7.517  11.555   8.852
 2695POPC   C2B36668   7.415  11.739   8.471
 2695POPC   C3B36669   7.284  11.586   8.090
 2695POPC   C4B36670   7.374  11.699   7.704
 2696POPC   NC336671  43.748  28.373   9.525
 2696POPC   PO436672  44.042  27.887   9.190
 2696POPC   GL136673  43.769  28.136   9.031
 2696POPC   GL236674  43.742  28.508   9.041
 2696POPC   C1A36675  43.841  28.210   8.601
 2696POPC   D2A36676  43.579  28.246   8.263
 2696POPC   C3A36677  43.811  28.085   7.946
 2696POPC   C4A36678  43.877  28.170   7.528
 2696POPC   C1B36679  43.828  28.716   8.677
 2696POPC   C2B36680  43.836  28.672   8.253
 2696POPC   C3B36681  43.749  28.593   7.835
 2696POPC   C4B36682  43.635  28.659   7.360
 2697POPC   NC336683  22.355  20.385   9.705
 2697POPC   PO436684  21.949  20.885   9.598
 2697POPC   GL136685  22.033  20.499   9.286
 2697POPC   GL236686  22.357  20.281   9.213
 2697POPC   C1A36687  22.033  20.509   8.820
 2697POPC   D2A36688  22.142  20.814   8.481
 2697POPC   C3A36689  22.255  20.688   8.037
 2697POPC   C4A36690  22.222  20.789   7.568
 2697POPC   C1B36691  22.524  20.357   8.807
 2697POPC   C2B36692  22.369  20.342   8.421
 2697POPC   C3B36693  22.582  20.291   8.060
 2697POPC   C4B36694  22.598  20.458   7.659
 2698POPC   NC336695  37.327  12.562   9.330
 2698POPC   PO436696  36.803  12.912   9.692
 2698POPC   GL136697  36.934  12.884   9.256
 2698POPC   GL236698  37.133  13.171   9.142
 2698POPC   C1A36699  36.774  12.942   8.834
 2698POPC   D2A36700  36.774  13.177   8.460
 2698POPC   C3A36701  36.934  12.962   8.116
 2698POPC   C4A36702  36.943  13.158   7.714
 2698POPC   C1B36703  37.301  12.934   8.789
 2698POPC   C2B36704  37.209  12.619   8.485
 2698POPC   C3B36705  37.241  12.521   8.062
 2698POPC   C4B36706  37.042  12.651   7.700
 2699POPC   NC336707  35.420   8.109   9.472
 2699POPC   PO436708  35.285   8.718   9.442
 2699POPC   GL136709  35.497   8.508   9.111
 2699POPC   GL236710  35.340   8.195   8.986
 2699POPC   C1A36711  35.539   8.524   8.666
 2699POPC   D2A36712  35.301   8.336   8.355
 2699POPC   C3A36713  35.464   8.388   7.980
 2699POPC   C4A36714  35.264   8.279   7.657
 2699POPC   C1B36715  35.595   7.997   8.662
 2699POPC   C2B36716  35.506   7.808   8.254
 2699POPC   C3B36717  35.626   7.898   7.825
 2699POPC   C4B36718  35.565   7.989   7.360
 2700POPC   NC336719  31.031  40.120   9.425
 2700POPC   PO436720  31.570  39.782   9.615
 2700POPC   GL136721  31.545  40.048   9.281
 2700POPC   GL236722  31.549  39.721   9.084
 2700POPC   C1A36723  31.433  40.145   8.855
 2700POPC   D2A36724  31.473  39.898   8.497
 2700POPC   C3A36725  31.251  40.020   8.128
 2700POPC   C4A36726  31.519  40.114   7.774
 2700POPC   C1B36727  31.829  39.592   8.726
 2700POPC   C2B36728  31.973  39.759   8.300
 2700POPC   C3B36729  31.934  39.815   7.836
 2700POPC   C4B36730  31.901  39.967   7.363
 2701POPC   NC336731   5.535  12.331   9.542
 2701POPC   PO436732   5.825  12.972   9.456
 2701POPC   GL136733   5.632  12.780   9.081
 2701POPC   GL236734   5.771  12.454   8.947
 2701POPC   C1A36735   5.797  12.863   8.660
 2701POPC   D2A36736   5.945  13.132   8.367
 2701POPC   C3A36737   5.802  12.909   8.007
 2701POPC   C4A36738   5.556  13.005   7.662
 2701POPC   C1B36739   6.191  12.542   8.698
 2701POPC   C2B36740   6.217  12.695   8.287
 2701POPC   C3B36741   6.419  12.570   7.919
 2701POPC   C4B36742   6.335  12.519   7.456
 2702POPC   NC336743   3.772   1.464   9.515
 2702POPC   PO436744   3.228   1.749   9.397
 2702POPC   GL136745   3.376   2.064   9.114
 2702POPC   GL236746   3.724   2.034   9.147
 2702POPC   C1A36747   3.243   2.006   8.702
 2702POPC   D2A36748   3.361   1.704   8.409
 2702POPC   C3A36749   3.169   1.753   8.020
 2702POPC   C4A36750   3.286   1.956   7.650
 2702POPC   C1B36751   3.723   1.824   8.787
 2702POPC   C2B36752   3.852   1.914   8.389
 2702POPC   C3B36753   3.678   1.825   8.013
 2702POPC   C4B36754   3.756   2.084   7.690
 2703POPC   NC336755  29.287  44.065   9.557
 2703POPC   PO436756  28.800  43.582   9.486
 2703POPC   GL136757  28.890  43.764   9.144
 2703POPC   GL236758  28.932  44.093   9.171
 2703POPC   C1A36759  29.098  43.678   8.770
 2703POPC   D2A36760  29.378  43.528   8.451
 2703POPC   C3A36761  29.111  43.477   8.127
 2703POPC   C4A36762  29.288  43.473   7.748
 2703POPC   C1B36763  29.142  44.219   8.780
 2703POPC   C2B36764  29.154  44.029   8.391
 2703POPC   C3B36765  29.316  43.921   7.998
 2703POPC   C4B36766  29.169  43.947   7.558
 2704POPC   NC336767  42.065  30.231   9.584
 2704POPC   PO436768  42.474  29.740   9.453
 2704POPC   GL136769  42.237  29.782   9.109
 2704POPC   GL236770  42.575  29.827   8.945
 2704POPC   C1A36771  42.146  29.543   8.749
 2704POPC   D2A36772  42.351  29.621   8.384
 2704POPC   C3A36773  42.166  29.419   8.058
 2704POPC   C4A36774  42.096  29.712   7.764
 2704POPC   C1B36775  42.350  30.225   8.862
 2704POPC   C2B36776  42.246  30.363   8.430
 2704POPC   C3B36777  42.283  30.080   8.088
 2704POPC   C4B36778  42.537  29.991   7.719
 2705POPC   NC336779  19.455   1.368   9.498
 2705POPC   PO436780  20.077   1.049   9.473
 2705POPC   GL136781  19.897   1.290   9.121
 2705POPC   GL236782  19.579   1.349   9.019
 2705POPC   C1A36783  20.040   1.353   8.678
 2705POPC   D2A36784  20.118   1.121   8.287
 2705POPC   C3A36785  20.120   1.205   7.851
 2705POPC   C4A36786  20.032   1.047   7.431
 2705POPC   C1B36787  19.401   1.358   8.656
 2705POPC   C2B36788  19.652   1.444   8.336
 2705POPC   C3B36789  19.641   1.172   8.034
 2705POPC   C4B36790  19.574   1.128   7.612
 2706POPC   NC336791  29.706  27.064  10.007
 2706POPC   PO436792  30.124  26.908   9.543
 2706POPC   GL136793  30.040  26.834   9.128
 2706POPC   GL236794  29.720  26.795   9.211
 2706POPC   C1A36795  29.934  26.978   8.702
 2706POPC   D2A36796  29.904  26.792   8.301
 2706POPC   C3A36797  29.852  26.998   7.932
 2706POPC   C4A36798  30.087  27.030   7.597
 2706POPC   C1B36799  29.601  26.625   8.851
 2706POPC   C2B36800  29.628  26.399   8.474
 2706POPC   C3B36801  29.638  26.412   8.047
 2706POPC   C4B36802  29.734  26.594   7.629
 2707POPC   NC336803  28.497   9.504   9.735
 2707POPC   PO436804  28.727   8.894   9.497
 2707POPC   GL136805  28.386   8.927   9.239
 2707POPC   GL236806  28.263   9.257   9.326
 2707POPC   C1A36807  28.422   8.917   8.798
 2707POPC   D2A36808  28.733   9.100   8.518
 2707POPC   C3A36809  28.545   9.016   8.125
 2707POPC   C4A36810  28.677   8.964   7.706
 2707POPC   C1B36811  28.065   9.242   8.962
 2707POPC   C2B36812  28.100   9.278   8.529
 2707POPC   C3B36813  28.009   9.104   8.136
 2707POPC   C4B36814  28.214   9.226   7.765
 2708POPC   NC336815  35.140  39.532   9.439
 2708POPC   PO436816  35.443  38.915   9.591
 2708POPC   GL136817  35.460  39.172   9.237
 2708POPC   GL236818  35.144  39.104   9.154
 2708POPC   C1A36819  35.599  39.348   8.842
 2708POPC   D2A36820  35.433  39.502   8.460
 2708POPC   C3A36821  35.718  39.499   8.128
 2708POPC   C4A36822  35.575  39.522   7.714
 2708POPC   C1B36823  35.123  39.164   8.754
 2708POPC   C2B36824  35.229  39.023   8.398
 2708POPC   C3B36825  35.280  39.139   7.982
 2708POPC   C4B36826  35.208  38.753   7.711
 2709POPC   NC336827   4.583   0.722   9.342
 2709POPC   PO436828   5.009   1.267   9.523
 2709POPC   GL136829   5.037   1.057   9.163
 2709POPC   GL236830   5.386   0.983   9.061
 2709POPC   C1A36831   5.027   1.226   8.772
 2709POPC   D2A36832   4.816   1.111   8.442
 2709POPC   C3A36833   4.953   1.352   8.120
 2709POPC   C4A36834   4.784   1.281   7.720
 2709POPC   C1B36835   5.432   0.917   8.634
 2709POPC   C2B36836   5.210   0.844   8.243
 2709POPC   C3B36837   5.226   1.040   7.833
 2709POPC   C4B36838   5.545   1.333   7.697
 2710POPC   NC336839  16.486   7.927   9.434
 2710POPC   PO436840  17.013   8.452   9.515
 2710POPC   GL136841  16.779   8.329   9.159
 2710POPC   GL236842  16.435   8.396   9.217
 2710POPC   C1A36843  16.842   8.396   8.717
 2710POPC   D2A36844  16.875   8.165   8.320
 2710POPC   C3A36845  16.849   8.249   7.875
 2710POPC   C4A36846  16.872   7.920   7.547
 2710POPC   C1B36847  16.305   8.184   8.828
 2710POPC   C2B36848  16.377   8.089   8.396
 2710POPC   C3B36849  16.353   8.250   7.989
 2710POPC   C4B36850  16.458   8.231   7.533
 2711POPC   NC336851  27.897  35.101   9.364
 2711POPC   PO436852  27.361  35.564   9.476
 2711POPC   GL136853  27.545  35.441   9.091
 2711POPC   GL236854  27.871  35.525   9.067
 2711POPC   C1A36855  27.360  35.262   8.691
 2711POPC   D2A36856  27.491  35.004   8.306
 2711POPC   C3A36857  27.498  35.247   7.912
 2711POPC   C4A36858  27.273  35.635   7.936
 2711POPC   C1B36859  27.832  35.467   8.652
 2711POPC   C2B36860  27.599  35.542   8.337
 2711POPC   C3B36861  27.788  35.672   8.029
 2711POPC   C4B36862  27.667  35.646   7.614
 2712POPC   NC336863  28.843  30.348   9.438
 2712POPC   PO436864  29.266  30.787   9.562
 2712POPC   GL136865  29.155  30.625   9.133
 2712POPC   GL236866  28.794  30.702   9.076
 2712POPC   C1A36867  29.352  30.554   8.707
 2712POPC   D2A36868  29.593  30.719   8.394
 2712POPC   C3A36869  29.457  30.576   8.007
 2712POPC   C4A36870  29.274  30.495   7.596
 2712POPC   C1B36871  28.852  30.461   8.697
 2712POPC   C2B36872  29.045  30.550   8.289
 2712POPC   C3B36873  29.002  30.814   7.914
 2712POPC   C4B36874  28.862  30.808   7.483
 2713POPC   NC336875  30.267  31.590   9.385
 2713POPC   PO436876  29.723  31.233   9.432
 2713POPC   GL136877  29.786  31.212   9.020
 2713POPC   GL236878  29.894  31.555   9.005
 2713POPC   C1A36879  29.648  31.203   8.585
 2713POPC   D2A36880  29.854  31.408   8.241
 2713POPC   C3A36881  29.805  31.355   7.808
 2713POPC   C4A36882  29.743  31.729   7.596
 2713POPC   C1B36883  30.178  31.386   8.683
 2713POPC   C2B36884  30.325  31.625   8.311
 2713POPC   C3B36885  30.177  31.696   7.898
 2713POPC   C4B36886  30.258  31.807   7.439
 2714POPC   NC336887   3.309  29.477   9.583
 2714POPC   PO436888   2.534  29.379   9.401
 2714POPC   GL136889   2.686  29.436   9.009
 2714POPC   GL236890   2.983  29.582   9.173
 2714POPC   C1A36891   2.585  29.150   8.667
 2714POPC   D2A36892   2.362  29.129   8.244
 2714POPC   C3A36893   2.484  28.927   7.896
 2714POPC   C4A36894   2.923  28.925   7.737
 2714POPC   C1B36895   3.028  29.738   8.748
 2714POPC   C2B36896   3.172  29.590   8.318
 2714POPC   C3B36897   3.169  29.402   7.889
 2714POPC   C4B36898   2.982  29.354   7.453
 2715POPC   NC336899  24.481   2.248   9.502
 2715POPC   PO436900  24.536   2.987   9.522
 2715POPC   GL136901  24.384   2.680   9.255
 2715POPC   GL236902  24.495   2.836   9.011
 2715POPC   C1A36903  24.220   2.461   8.843
 2715POPC   D2A36904  24.207   2.658   8.432
 2715POPC   C3A36905  24.170   2.486   8.020
 2715POPC   C4A36906  24.389   2.717   7.703
 2715POPC   C1B36907  24.702   2.674   8.692
 2715POPC   C2B36908  24.936   2.593   8.375
 2715POPC   C3B36909  24.729   2.713   8.086
 2715POPC   C4B36910  24.878   2.611   7.738
 2716POPC   NC336911   9.758  30.788   9.560
 2716POPC   PO436912  10.115  30.193   9.459
 2716POPC   GL136913   9.850  30.438   9.118
 2716POPC   GL236914   9.642  30.770   9.076
 2716POPC   C1A36915   9.810  30.564   8.649
 2716POPC   D2A36916   9.959  30.813   8.285
 2716POPC   C3A36917   9.961  30.604   7.865
 2716POPC   C4A36918   9.579  30.367   7.715
 2716POPC   C1B36919   9.326  30.909   8.765
 2716POPC   C2B36920   9.234  30.926   8.317
 2716POPC   C3B36921   9.525  30.837   7.976
 2716POPC   C4B36922   9.658  30.949   7.548
 2717POPC   NC336923   2.830   9.016   9.674
 2717POPC   PO436924   2.337   9.240   9.348
 2717POPC   GL136925   2.510   8.952   9.080
 2717POPC   GL236926   2.867   8.854   9.162
 2717POPC   C1A36927   2.554   8.966   8.656
 2717POPC   D2A36928   2.865   9.140   8.394
 2717POPC   C3A36929   2.693   9.113   8.014
 2717POPC   C4A36930   2.700   8.935   7.618
 2717POPC   C1B36931   3.079   8.835   8.750
 2717POPC   C2B36932   3.283   8.731   8.342
 2717POPC   C3B36933   3.092   8.763   7.929
 2717POPC   C4B36934   3.020   8.545   7.484
 2718POPC   NC336935   8.161  28.889   9.471
 2718POPC   PO436936   8.586  29.463   9.524
 2718POPC   GL136937   8.378  29.254   9.134
 2718POPC   GL236938   8.057  29.155   9.066
 2718POPC   C1A36939   8.302  29.225   8.641
 2718POPC   D2A36940   8.046  28.892   8.400
 2718POPC   C3A36941   8.130  28.933   7.943
 2718POPC   C4A36942   8.357  29.301   7.776
 2718POPC   C1B36943   7.774  29.221   8.776
 2718POPC   C2B36944   7.683  29.283   8.396
 2718POPC   C3B36945   7.923  29.379   8.048
 2718POPC   C4B36946   7.799  29.429   7.636
 2719POPC   NC336947  32.646  11.467   9.690
 2719POPC   PO436948  32.159  11.078   9.381
 2719POPC   GL136949  32.286  11.390   9.105
 2719POPC   GL236950  32.646  11.438   9.152
 2719POPC   C1A36951  32.132  11.396   8.677
 2719POPC   D2A36952  31.859  11.332   8.344
 2719POPC   C3A36953  32.111  11.255   8.003
 2719POPC   C4A36954  32.052  11.500   7.635
 2719POPC   C1B36955  32.599  11.151   8.763
 2719POPC   C2B36956  32.557  11.122   8.296
 2719POPC   C3B36957  32.782  11.333   7.957
 2719POPC   C4B36958  32.626  11.739   7.789
 2720POPC   NC336959   4.290  13.597   9.357
 2720POPC   PO436960   4.836  13.259   9.114
 2720POPC   GL136961   4.606  13.578   8.950
 2720POPC   GL236962   4.341  13.331   8.876
 2720POPC   C1A36963   4.478  13.905   8.655
 2720POPC   D2A36964   4.337  13.996   8.273
 2720POPC   C3A36965   4.578  13.844   7.897
 2720POPC   C4A36966   4.604  13.730   7.440
 2720POPC   C1B36967   4.020  13.630   8.694
 2720POPC   C2B36968   3.773  13.683   8.326
 2720POPC   C3B36969   3.957  13.833   7.959
 2720POPC   C4B36970   4.215  13.524   7.719
 2721POPC   NC336971  38.745  26.998   9.549
 2721POPC   PO436972  38.096  27.212   9.410
 2721POPC   GL136973  38.330  26.925   9.085
 2721POPC   GL236974  38.684  26.914   9.040
 2721POPC   C1A36975  38.351  26.581   8.774
 2721POPC   D2A36976  38.313  26.371   8.357
 2721POPC   C3A36977  38.296  26.585   7.932
 2721POPC   C4A36978  38.548  26.862   7.639
 2721POPC   C1B36979  38.736  26.896   8.613
 2721POPC   C2B36980  38.376  26.916   8.361
 2721POPC   C3B36981  38.242  27.104   8.000
 2721POPC   C4B36982  38.115  27.357   7.655
 2722POPC   NC336983  44.776  24.854   9.750
 2722POPC   PO436984  44.326  25.175   9.486
 2722POPC   GL136985  44.524  25.368   9.165
 2722POPC   GL236986  44.782  25.140   9.184
 2722POPC   C1A36987  44.707  25.416   8.755
 2722POPC   D2A36988  44.852  25.208   8.394
 2722POPC   C3A36989  44.707  25.404   8.007
 2722POPC   C4A36990  44.416  25.435   7.619
 2722POPC   C1B36991  44.609  24.920   8.816
 2722POPC   C2B36992  44.740  24.715   8.460
 2722POPC   C3B36993  44.630  24.859   8.069
 2722POPC   C4B36994  44.776  25.022   7.668
 2723POPC   NC336995  39.960  42.890   9.399
 2723POPC   PO436996  40.431  43.495   9.447
 2723POPC   GL136997  40.243  43.171   9.095
 2723POPC   GL236998  39.855  43.106   8.966
 2723POPC   C1A36999  40.204  42.943   8.650
 2723POPC   D2A37000  39.921  43.083   8.340
 2723POPC   C3A37001  40.056  43.271   7.955
 2723POPC   C4A37002  39.872  43.493   7.633
 2723POPC   C1B37003  39.688  42.781   8.701
 2723POPC   C2B37004  39.710  42.596   8.295
 2723POPC   C3B37005  39.748  42.822   7.933
 2723POPC   C4B37006  39.692  42.670   7.587
 2724POPC   NC337007  23.449   7.216   9.428
 2724POPC   PO437008  23.990   7.674   9.474
 2724POPC   GL137009  23.789   7.490   9.168
 2724POPC   GL237010  24.000   7.211   9.122
 2724POPC   C1A37011  23.585   7.460   8.780
 2724POPC   D2A37012  23.399   7.600   8.391
 2724POPC   C3A37013  23.552   7.419   8.026
 2724POPC   C4A37014  23.491   7.605   7.654
 2724POPC   C1B37015  24.093   7.507   8.768
 2724POPC   C2B37016  23.918   7.600   8.380
 2724POPC   C3B37017  24.043   7.508   7.935
 2724POPC   C4B37018  23.935   7.194   7.646
 2725POPC   NC337019  16.502  10.728   9.486
 2725POPC   PO437020  16.965  10.228   9.491
 2725POPC   GL137021  16.797  10.460   9.135
 2725POPC   GL237022  17.038  10.378   8.921
 2725POPC   C1A37023  16.642  10.606   8.692
 2725POPC   D2A37024  16.450  10.528   8.259
 2725POPC   C3A37025  16.602  10.310   7.855
 2725POPC   C4A37026  16.572  10.593   7.443
 2725POPC   C1B37027  17.151  10.598   8.558
 2725POPC   C2B37028  16.974  10.835   8.258
 2725POPC   C3B37029  16.801  10.764   7.886
 2725POPC   C4B37030  17.027  10.445   7.610
 2726POPC   NC337031   2.096  44.778   9.515
 2726POPC   PO437032   1.495  44.766   9.733
 2726POPC   GL137033   1.721  44.699   9.201
 2726POPC   GL237034   2.072  44.569   9.073
 2726POPC   C1A37035   1.895  44.877   8.741
 2726POPC   D2A37036   2.195  44.770   8.425
 2726POPC   C3A37037   1.964  44.833   8.066
 2726POPC   C4A37038   2.047   0.020   7.687
 2726POPC   C1B37039   1.728  44.377   8.830
 2726POPC   C2B37040   1.798  44.446   8.417
 2726POPC   C3B37041   2.105  44.326   8.107
 2726POPC   C4B37042   2.212  44.547   7.722
 2727POPC   NC337043  37.459  28.142   9.543
 2727POPC   PO437044  38.119  28.259   9.445
 2727POPC   GL137045  37.785  28.356   9.150
 2727POPC   GL237046  37.688  28.038   9.104
 2727POPC   C1A37047  37.831  28.336   8.698
 2727POPC   D2A37048  37.907  28.576   8.340
 2727POPC   C3A37049  37.570  28.657   7.954
 2727POPC   C4A37050  37.868  28.607   7.555
 2727POPC   C1B37051  37.439  28.041   8.699
 2727POPC   C2B37052  37.521  28.250   8.297
 2727POPC   C3B37053  37.830  28.246   7.959
 2727POPC   C4B37054  37.536  28.212   7.640
 2728POPC   NC337055  41.672  21.056   9.388
 2728POPC   PO437056  41.494  21.733   9.565
 2728POPC   GL137057  41.582  21.536   9.189
 2728POPC   GL237058  41.906  21.612   9.123
 2728POPC   C1A37059  41.395  21.302   8.841
 2728POPC   D2A37060  41.495  21.134   8.427
 2728POPC   C3A37061  41.246  21.194   8.052
 2728POPC   C4A37062  41.308  21.410   7.665
 2728POPC   C1B37063  41.857  21.480   8.726
 2728POPC   C2B37064  41.644  21.616   8.370
 2728POPC   C3B37065  41.712  21.376   8.003
 2728POPC   C4B37066  41.951  21.472   7.656
 2729POPC   NC337067   5.469   0.958   9.561
 2729POPC   PO437068   6.008   1.295   9.478
 2729POPC   GL137069   5.775   1.332   9.117
 2729POPC   GL237070   5.922   1.026   9.002
 2729POPC   C1A37071   5.514   1.425   8.740
 2729POPC   D2A37072   5.466   1.297   8.277
 2729POPC   C3A37073   5.681   0.958   8.023
 2729POPC   C4A37074   6.016   0.851   7.715
 2729POPC   C1B37075   5.984   1.252   8.637
 2729POPC   C2B37076   6.110   1.103   8.240
 2729POPC   C3B37077   6.022   1.336   7.875
 2729POPC   C4B37078   6.023   1.626   7.556
 2730POPC   NC337079  17.479  20.956   9.840
 2730POPC   PO437080  17.706  20.369   9.672
 2730POPC   GL137081  17.635  20.583   9.249
 2730POPC   GL237082  17.388  20.886   9.287
 2730POPC   C1A37083  17.652  20.436   8.796
 2730POPC   D2A37084  17.780  20.208   8.397
 2730POPC   C3A37085  17.630  20.368   7.997
 2730POPC   C4A37086  17.688  20.732   7.747
 2730POPC   C1B37087  17.633  20.970   8.886
 2730POPC   C2B37088  17.643  20.875   8.430
 2730POPC   C3B37089  17.338  20.942   8.078
 2730POPC   C4B37090  17.140  21.226   7.743
 2731POPC   NC337091  39.976  20.215   9.383
 2731POPC   PO437092  39.629  19.714   9.520
 2731POPC   GL137093  39.930  19.716   9.139
 2731POPC   GL237094  40.270  19.933   9.076
 2731POPC   C1A37095  40.134  19.586   8.734
 2731POPC   D2A37096  40.102  19.796   8.342
 2731POPC   C3A37097  40.326  19.783   7.976
 2731POPC   C4A37098  40.054  19.595   7.714
 2731POPC   C1B37099  39.945  20.083   8.752
 2731POPC   C2B37100  39.790  20.190   8.334
 2731POPC   C3B37101  39.897  20.042   7.912
 2731POPC   C4B37102  40.214  20.080   7.569
 2732POPC   NC337103  28.012  27.914   9.453
 2732POPC   PO437104  28.465  27.413   9.505
 2732POPC   GL137105  28.416  27.502   9.094
 2732POPC   GL237106  28.056  27.478   9.126
 2732POPC   C1A37107  28.507  27.850   8.788
 2732POPC   D2A37108  28.475  27.929   8.336
 2732POPC   C3A37109  28.599  27.514   8.133
 2732POPC   C4A37110  28.341  27.378   7.792
 2732POPC   C1B37111  27.961  27.784   8.801
 2732POPC   C2B37112  27.819  27.800   8.377
 2732POPC   C3B37113  28.044  27.917   7.986
 2732POPC   C4B37114  28.494  27.881   7.798
 2733POPC   NC337115  24.172  26.790   9.883
 2733POPC   PO437116  24.551  26.877   9.296
 2733POPC   GL137117  24.496  26.690   8.960
 2733POPC   GL237118  24.252  26.486   9.175
 2733POPC   C1A37119  24.624  26.884   8.573
 2733POPC   D2A37120  24.422  27.122   8.265
 2733POPC   C3A37121  24.622  26.937   7.943
 2733POPC   C4A37122  24.934  27.170   7.842
 2733POPC   C1B37123  24.136  26.382   8.770
 2733POPC   C2B37124  24.165  26.707   8.457
 2733POPC   C3B37125  24.310  26.557   8.081
 2733POPC   C4B37126  24.662  26.397   7.870
 2734POPC   NC337127  14.552  14.740   9.857
 2734POPC   PO437128  14.264  14.325   9.406
 2734POPC   GL137129  14.200  14.295   9.008
 2734POPC   GL237130  14.538  14.269   8.932
 2734POPC   C1A37131  14.116  14.231   8.584
 2734POPC   D2A37132  14.115  14.502   8.208
 2734POPC   C3A37133  14.414  14.324   7.926
 2734POPC   C4A37134  14.363  14.006   7.611
 2734POPC   C1B37135  14.456  14.616   8.627
 2734POPC   C2B37136  14.609  14.702   8.229
 2734POPC   C3B37137  14.738  14.740   7.807
 2734POPC   C4B37138  14.846  14.702   7.346
 2735POPC   NC337139  33.232  43.492   9.497
 2735POPC   PO437140  32.804  43.004   9.326
 2735POPC   GL137141  33.057  43.267   9.074
 2735POPC   GL237142  33.312  43.035   9.109
 2735POPC   C1A37143  32.996  43.486   8.662
 2735POPC   D2A37144  32.882  43.202   8.304
 2735POPC   C3A37145  32.645  43.185   7.908
 2735POPC   C4A37146  32.763  42.932   7.522
 2735POPC   C1B37147  33.273  43.060   8.648
 2735POPC   C2B37148  33.392  43.362   8.303
 2735POPC   C3B37149  33.197  43.294   7.902
 2735POPC   C4B37150  33.078  42.874   7.924
 2736POPC   NC337151  41.310  18.051   9.543
 2736POPC   PO437152  40.651  18.291   9.512
 2736POPC   GL137153  40.842  18.241   9.165
 2736POPC   GL237154  41.129  18.393   9.212
 2736POPC   C1A37155  40.714  18.346   8.769
 2736POPC   D2A37156  40.834  18.578   8.426
 2736POPC   C3A37157  40.746  18.299   8.116
 2736POPC   C4A37158  40.722  18.304   7.676
 2736POPC   C1B37159  41.216  18.368   8.779
 2736POPC   C2B37160  41.160  18.153   8.394
 2736POPC   C3B37161  41.211  18.228   7.935
 2736POPC   C4B37162  41.177  18.475   7.549
 2737POPC   NC337163   0.668   9.337   9.463
 2737POPC   PO437164   0.514  10.001   9.571
 2737POPC   GL137165   0.445   9.950   9.121
 2737POPC   GL237166   0.410   9.569   9.051
 2737POPC   C1A37167   0.413   9.899   8.649
 2737POPC   D2A37168   0.171   9.559   8.434
 2737POPC   C3A37169   0.250   9.533   7.986
 2737POPC   C4A37170   0.474   9.915   7.843
 2737POPC   C1B37171   0.666   9.463   8.653
 2737POPC   C2B37172   0.714   9.598   8.228
 2737POPC   C3B37173   0.842   9.555   7.810
 2737POPC   C4B37174   0.606   9.352   7.498
 2738POPC   NC337175   4.112  30.842   9.426
 2738POPC   PO437176   3.567  30.506   9.232
 2738POPC   GL137177   3.899  30.661   9.013
 2738POPC   GL237178   3.750  30.994   9.111
 2738POPC   C1A37179   3.861  30.721   8.604
 2738POPC   D2A37180   3.482  30.576   8.486
 2738POPC   C3A37181   3.458  30.549   8.080
 2738POPC   C4A37182   3.518  30.900   7.862
 2738POPC   C1B37183   3.492  31.047   8.762
 2738POPC   C2B37184   3.524  31.097   8.331
 2738POPC   C3B37185   3.754  31.324   7.997
 2738POPC   C4B37186   3.801  31.179   7.541
 2739POPC   NC337187  42.952  28.498   9.502
 2739POPC   PO437188  43.410  28.017   9.542
 2739POPC   GL137189  43.306  28.307   9.199
 2739POPC   GL237190  42.957  28.295   9.041
 2739POPC   C1A37191  43.367  28.272   8.758
 2739POPC   D2A37192  43.087  28.431   8.488
 2739POPC   C3A37193  43.085  28.250   8.133
 2739POPC   C4A37194  42.943  28.390   7.777
 2739POPC   C1B37195  42.768  28.665   8.815
 2739POPC   C2B37196  42.900  28.930   8.459
 2739POPC   C3B37197  42.829  28.847   8.008
 2739POPC   C4B37198  42.722  28.774   7.570
 2740POPC   NC337199  37.414  13.473   9.479
 2740POPC   PO437200  37.832  13.891   9.683
 2740POPC   GL137201  38.025  13.746   9.233
 2740POPC   GL237202  37.821  13.441   9.126
 2740POPC   C1A37203  38.030  13.703   8.738
 2740POPC   D2A37204  37.789  13.433   8.407
 2740POPC   C3A37205  37.568  13.651   8.095
 2740POPC   C4A37206  37.807  13.734   7.744
 2740POPC   C1B37207  37.473  13.436   8.816
 2740POPC   C2B37208  37.287  13.288   8.420
 2740POPC   C3B37209  37.091  13.473   8.078
 2740POPC   C4B37210  37.295  13.531   7.656
 2741POPC   NC337211  39.053  44.302   9.509
 2741POPC   PO437212  39.502  43.866   9.433
 2741POPC   GL137213  39.378  43.932   9.066
 2741POPC   GL237214  39.079  44.042   9.066
 2741POPC   C1A37215  39.384  43.951   8.660
 2741POPC   D2A37216  39.568  43.728   8.372
 2741POPC   C3A37217  39.384  43.908   8.057
 2741POPC   C4A37218  39.341  43.743   7.707
 2741POPC   C1B37219  38.969  43.670   8.819
 2741POPC   C2B37220  38.997  43.757   8.392
 2741POPC   C3B37221  38.904  43.656   7.976
 2741POPC   C4B37222  38.919  44.018   7.711
 2742POPC   NC337223   8.623  27.753   9.528
 2742POPC   PO437224   8.161  27.380   9.581
 2742POPC   GL137225   8.120  27.744   9.312
 2742POPC   GL237226   7.808  27.679   9.214
 2742POPC   C1A37227   8.093  27.905   8.866
 2742POPC   D2A37228   8.424  27.933   8.562
 2742POPC   C3A37229   8.380  27.742   8.160
 2742POPC   C4A37230   8.349  27.499   7.810
 2742POPC   C1B37231   8.068  27.379   8.945
 2742POPC   C2B37232   8.194  27.406   8.522
 2742POPC   C3B37233   7.957  27.414   8.154
 2742POPC   C4B37234   7.851  27.368   7.733
 2743POPC   NC337235  31.031  23.234   9.524
 2743POPC   PO437236  30.705  23.805   9.609
 2743POPC   GL137237  30.718  23.650   9.211
 2743POPC   GL237238  31.103  23.663   9.214
 2743POPC   C1A37239  30.463  23.741   8.812
 2743POPC   D2A37240  30.343  23.922   8.419
 2743POPC   C3A37241  30.448  23.769   8.048
 2743POPC   C4A37242  30.472  24.025   7.696
 2743POPC   C1B37243  30.981  23.618   8.798
 2743POPC   C2B37244  30.833  23.778   8.444
 2743POPC   C3B37245  30.937  23.627   8.062
 2743POPC   C4B37246  30.888  23.736   7.686
 2744POPC   NC337247  43.251  19.119   9.520
 2744POPC   PO437248  42.727  18.689   9.538
 2744POPC   GL137249  42.905  18.903   9.227
 2744POPC   GL237250  43.215  18.775   9.141
 2744POPC   C1A37251  42.861  19.017   8.826
 2744POPC   D2A37252  42.930  18.943   8.414
 2744POPC   C3A37253  42.991  19.284   8.133
 2744POPC   C4A37254  43.020  19.244   7.690
 2744POPC   C1B37255  43.383  18.863   8.728
 2744POPC   C2B37256  43.366  18.691   8.316
 2744POPC   C3B37257  43.312  18.927   7.966
 2744POPC   C4B37258  43.629  19.149   7.735
 2745POPC   NC337259  10.345   2.414   9.572
 2745POPC   PO437260  10.579   1.713   9.392
 2745POPC   GL137261  10.318   1.846   9.062
 2745POPC   GL237262  10.288   2.211   9.090
 2745POPC   C1A37263  10.338   1.933   8.608
 2745POPC   D2A37264  10.795   1.895   8.479
 2745POPC   C3A37265  10.765   1.933   8.058
 2745POPC   C4A37266  10.386   1.853   7.867
 2745POPC   C1B37267  10.603   2.336   8.764
 2745POPC   C2B37268  10.625   2.358   8.359
 2745POPC   C3B37269  10.362   2.315   8.058
 2745POPC   C4B37270  10.577   2.292   7.681
 2746POPC   NC337271  11.727   1.602   9.380
 2746POPC   PO437272  12.231   1.949   9.397
 2746POPC   GL137273  12.156   2.224   9.035
 2746POPC   GL237274  11.778   2.211   8.955
 2746POPC   C1A37275  12.140   2.170   8.586
 2746POPC   D2A37276  11.782   2.143   8.328
 2746POPC   C3A37277  11.919   2.159   7.891
 2746POPC   C4A37278  12.204   1.908   7.620
 2746POPC   C1B37279  11.809   1.802   8.715
 2746POPC   C2B37280  11.877   1.637   8.252
 2746POPC   C3B37281  11.777   1.617   7.795
 2746POPC   C4B37282  11.683   1.929   7.490
 2747POPC   NC337283  36.312  30.998   9.643
 2747POPC   PO437284  35.812  30.594   9.484
 2747POPC   GL137285  35.969  30.831   9.169
 2747POPC   GL237286  36.293  30.784   9.200
 2747POPC   C1A37287  35.844  30.792   8.746
 2747POPC   D2A37288  36.038  30.580   8.412
 2747POPC   C3A37289  35.803  30.670   8.071
 2747POPC   C4A37290  35.942  30.785   7.707
 2747POPC   C1B37291  36.352  30.712   8.793
 2747POPC   C2B37292  36.487  30.904   8.417
 2747POPC   C3B37293  36.334  30.779   8.032
 2747POPC   C4B37294  36.196  30.361   7.887
 2748POPC   NC337295  33.128  40.996   9.358
 2748POPC   PO437296  32.523  41.452   9.477
 2748POPC   GL137297  32.653  41.092   9.158
 2748POPC   GL237298  32.873  41.281   8.986
 2748POPC   C1A37299  32.771  40.847   8.754
 2748POPC   D2A37300  33.111  40.748   8.456
 2748POPC   C3A37301  32.942  40.683   8.078
 2748POPC   C4A37302  32.911  40.374   7.769
 2748POPC   C1B37303  33.212  41.188   8.701
 2748POPC   C2B37304  33.592  41.155   8.437
 2748POPC   C3B37305  33.594  40.934   8.044
 2748POPC   C4B37306  33.251  40.872   7.726
 2749POPC   NC337307  41.155  38.532   9.482
 2749POPC   PO437308  40.526  38.346   9.396
 2749POPC   GL137309  40.693  38.451   9.043
 2749POPC   GL237310  40.999  38.606   9.019
 2749POPC   C1A37311  40.585  38.380   8.654
 2749POPC   D2A37312  40.604  38.018   8.408
 2749POPC   C3A37313  40.485  38.125   8.012
 2749POPC   C4A37314  40.193  37.998   7.725
 2749POPC   C1B37315  41.095  38.347   8.671
 2749POPC   C2B37316  40.933  38.373   8.253
 2749POPC   C3B37317  40.840  38.472   7.843
 2749POPC   C4B37318  41.001  38.291   7.449
 2750POPC   NC337319   0.376  44.208   9.648
 2750POPC   PO437320   0.612  43.537   9.625
 2750POPC   GL137321   0.640  43.621   9.163
 2750POPC   GL237322   0.614  43.962   9.134
 2750POPC   C1A37323   0.580  43.589   8.686
 2750POPC   D2A37324   0.598  43.825   8.271
 2750POPC   C3A37325   0.324  43.751   7.899
 2750POPC   C4A37326   0.506  43.710   7.447
 2750POPC   C1B37327   0.369  44.058   8.771
 2750POPC   C2B37328   0.393  44.286   8.390
 2750POPC   C3B37329   0.209  44.280   7.977
 2750POPC   C4B37330   0.221  44.114   7.563
 2751POPC   NC337331   1.551   5.619   9.564
 2751POPC   PO437332   1.054   6.235   9.584
 2751POPC   GL137333   1.099   6.044   9.154
 2751POPC   GL237334   1.314   5.761   9.135
 2751POPC   C1A37335   1.030   5.971   8.686
 2751POPC   D2A37336   0.853   6.203   8.319
 2751POPC   C3A37337   1.192   6.234   8.047
 2751POPC   C4A37338   1.412   5.944   7.812
 2751POPC   C1B37339   1.473   5.472   8.847
 2751POPC   C2B37340   1.428   5.492   8.413
 2751POPC   C3B37341   1.100   5.722   8.179
 2751POPC   C4B37342   0.981   5.643   7.763
 2752POPC   NC337343  17.279   9.607   9.368
 2752POPC   PO437344  17.712  10.061   9.535
 2752POPC   GL137345  17.392  10.038   9.146
 2752POPC   GL237346  16.997   9.913   9.105
 2752POPC   C1A37347  17.515   9.717   8.802
 2752POPC   D2A37348  17.503   9.743   8.378
 2752POPC   C3A37349  17.666   9.423   8.110
 2752POPC   C4A37350  17.780   9.504   7.684
 2752POPC   C1B37351  17.042   9.854   8.676
 2752POPC   C2B37352  17.015   9.518   8.372
 2752POPC   C3B37353  17.195   9.552   7.973
 2752POPC   C4B37354  17.452   9.848   7.881
 2753POPC   NC337355  43.682  27.674   9.380
 2753POPC   PO437356  44.335  27.538   9.516
 2753POPC   GL137357  44.096  27.389   9.104
 2753POPC   GL237358  43.722  27.381   8.980
 2753POPC   C1A37359  44.118  27.502   8.662
 2753POPC   D2A37360  44.099  27.800   8.331
 2753POPC   C3A37361  44.105  27.518   7.993
 2753POPC   C4A37362  43.857  27.656   7.663
 2753POPC   C1B37363  43.586  27.747   8.684
 2753POPC   C2B37364  43.320  27.805   8.291
 2753POPC   C3B37365  43.385  27.796   7.834
 2753POPC   C4B37366  43.472  27.784   7.387
 2754POPC   NC337367  39.432  36.850   9.359
 2754POPC   PO437368  38.803  36.716   9.489
 2754POPC   GL137369  38.995  36.799   9.081
 2754POPC   GL237370  39.168  36.468   9.106
 2754POPC   C1A37371  39.199  37.147   8.786
 2754POPC   D2A37372  39.419  37.328   8.391
 2754POPC   C3A37373  39.184  37.227   8.030
 2754POPC   C4A37374  39.265  36.903   7.701
 2754POPC   C1B37375  39.380  36.653   8.725
 2754POPC   C2B37376  39.440  36.782   8.292
 2754POPC   C3B37377  39.476  36.521   7.911
 2754POPC   C4B37378  39.468  36.492   7.427
 2755POPC   NC337379  31.755  43.312   9.679
 2755POPC   PO437380  32.397  43.343   9.586
 2755POPC   GL137381  32.106  43.186   9.213
 2755POPC   GL237382  32.394  43.075   9.014
 2755POPC   C1A37383  31.946  43.236   8.798
 2755POPC   D2A37384  32.001  43.550   8.478
 2755POPC   C3A37385  31.844  43.514   8.078
 2755POPC   C4A37386  31.860  43.171   7.853
 2755POPC   C1B37387  32.407  43.109   8.583
 2755POPC   C2B37388  32.092  43.044   8.280
 2755POPC   C3B37389  32.074  42.721   7.937
 2755POPC   C4B37390  32.275  42.953   7.632
 2756POPC   NC337391  39.493   7.588   9.482
 2756POPC   PO437392  39.199   7.037   9.409
 2756POPC   GL137393  39.263   7.302   9.072
 2756POPC   GL237394  39.090   7.645   9.111
 2756POPC   C1A37395  39.125   7.283   8.646
 2756POPC   D2A37396  38.977   7.583   8.350
 2756POPC   C3A37397  39.090   7.426   8.012
 2756POPC   C4A37398  39.172   7.493   7.606
 2756POPC   C1B37399  39.316   7.739   8.730
 2756POPC   C2B37400  39.499   7.520   8.334
 2756POPC   C3B37401  39.598   7.557   7.890
 2756POPC   C4B37402  39.642   7.417   7.441
 2757POPC   NC337403  14.182  23.448   9.560
 2757POPC   PO437404  14.740  23.758   9.427
 2757POPC   GL137405  14.491  23.549   9.116
 2757POPC   GL237406  14.174  23.737   9.117
 2757POPC   C1A37407  14.454  23.599   8.655
 2757POPC   D2A37408  14.456  23.935   8.345
 2757POPC   C3A37409  14.620  23.839   7.916
 2757POPC   C4A37410  14.628  23.507   7.602
 2757POPC   C1B37411  14.014  23.883   8.712
 2757POPC   C2B37412  14.034  23.603   8.353
 2757POPC   C3B37413  14.097  23.772   7.953
 2757POPC   C4B37414  14.091  23.924   7.549
 2758POPC   NC337415  10.008  29.131   9.529
 2758POPC   PO437416   9.368  28.973   9.434
 2758POPC   GL137417   9.561  29.304   9.206
 2758POPC   GL237418   9.829  29.118   9.034
 2758POPC   C1A37419   9.602  29.493   8.790
 2758POPC   D2A37420   9.793  29.255   8.436
 2758POPC   C3A37421   9.577  29.434   8.041
 2758POPC   C4A37422   9.339  29.290   7.671
 2758POPC   C1B37423   9.661  28.776   8.743
 2758POPC   C2B37424   9.543  28.541   8.356
 2758POPC   C3B37425   9.576  28.777   7.996
 2758POPC   C4B37426   9.907  29.058   7.964
 2759POPC   NC337427   0.585  37.128   9.533
 2759POPC   PO437428   0.689  36.463   9.463
 2759POPC   GL137429   0.645  36.775   9.171
 2759POPC   GL237430   0.315  36.915   9.073
 2759POPC   C1A37431   0.737  37.031   8.818
 2759POPC   D2A37432   0.531  37.035   8.447
 2759POPC   C3A37433   0.674  37.138   8.064
 2759POPC   C4A37434   0.815  36.772   7.869
 2759POPC   C1B37435   0.086  36.922   8.649
 2759POPC   C2B37436   0.124  37.013   8.161
 2759POPC   C3B37437   0.321  36.984   7.708
 2759POPC   C4B37438   0.294  37.215   7.272
 2760POPC   NC337439   5.556  23.889   9.457
 2760POPC   PO437440   6.104  23.600   9.536
 2760POPC   GL137441   5.878  23.647   9.166
 2760POPC   GL237442   5.909  23.370   9.060
 2760POPC   C1A37443   5.699  23.761   8.774
 2760POPC   D2A37444   5.405  23.590   8.479
 2760POPC   C3A37445   5.516  23.693   8.088
 2760POPC   C4A37446   5.779  23.977   7.890
 2760POPC   C1B37447   5.806  23.295   8.603
 2760POPC   C2B37448   6.169  23.198   8.336
 2760POPC   C3B37449   6.212  23.340   7.928
 2760POPC   C4B37450   5.835  23.454   7.754
 2761POPC   NC337451  10.495  25.118   9.713
 2761POPC   PO437452  10.813  25.097   9.162
 2761POPC   GL137453  10.420  25.090   9.013
 2761POPC   GL237454  10.381  25.435   9.012
 2761POPC   C1A37455  10.288  25.142   8.591
 2761POPC   D2A37456  10.219  25.222   8.175
 2761POPC   C3A37457  10.592  25.263   8.043
 2761POPC   C4A37458  10.716  25.098   7.675
 2761POPC   C1B37459  10.346  25.735   8.695
 2761POPC   C2B37460  10.384  25.715   8.266
 2761POPC   C3B37461  10.345  25.693   7.870
 2761POPC   C4B37462  10.230  25.314   7.660
 2762POPC   NC337463  25.250  12.197   9.613
 2762POPC   PO437464  25.758  11.774   9.630
 2762POPC   GL137465  25.566  12.028   9.244
 2762POPC   GL237466  25.142  12.005   9.155
 2762POPC   C1A37467  25.482  12.009   8.798
 2762POPC   D2A37468  25.265  11.918   8.455
 2762POPC   C3A37469  25.436  12.046   8.078
 2762POPC   C4A37470  25.472  12.290   7.733
 2762POPC   C1B37471  25.011  12.252   8.774
 2762POPC   C2B37472  25.118  12.378   8.329
 2762POPC   C3B37473  24.977  12.295   7.919
 2762POPC   C4B37474  24.773  12.663   7.791
 2763POPC   NC337475   6.534  20.915   9.479
 2763POPC   PO437476   6.694  20.241   9.599
 2763POPC   GL137477   6.803  20.583   9.215
 2763POPC   GL237478   6.729  20.945   9.029
 2763POPC   C1A37479   6.621  20.568   8.748
 2763POPC   D2A37480   6.403  20.475   8.396
 2763POPC   C3A37481   6.653  20.426   8.036
 2763POPC   C4A37482   6.817  20.466   7.640
 2763POPC   C1B37483   6.876  21.049   8.644
 2763POPC   C2B37484   6.850  20.921   8.232
 2763POPC   C3B37485   6.772  21.046   7.840
 2763POPC   C4B37486   6.649  20.963   7.422
 2764POPC   NC337487   6.985  26.001   9.422
 2764POPC   PO437488   7.668  26.135   9.553
 2764POPC   GL137489   7.465  26.102   9.160
 2764POPC   GL237490   7.747  26.309   9.078
 2764POPC   C1A37491   7.252  25.868   8.817
 2764POPC   D2A37492   7.125  25.549   8.518
 2764POPC   C3A37493   7.057  25.705   8.118
 2764POPC   C4A37494   7.185  25.975   7.776
 2764POPC   C1B37495   7.776  25.948   8.774
 2764POPC   C2B37496   7.582  25.822   8.361
 2764POPC   C3B37497   7.739  25.927   7.947
 2764POPC   C4B37498   7.671  26.136   7.573
 2765POPC   NC337499   4.280  11.014   9.655
 2765POPC   PO437500   3.671  11.168   9.775
 2765POPC   GL137501   3.935  10.963   9.311
 2765POPC   GL237502   4.234  11.205   9.188
 2765POPC   C1A37503   4.045  10.911   8.839
 2765POPC   D2A37504   3.994  11.194   8.488
 2765POPC   C3A37505   4.036  11.186   8.037
 2765POPC   C4A37506   3.852  11.258   7.622
 2765POPC   C1B37507   4.481  11.211   8.781
 2765POPC   C2B37508   4.473  11.382   8.338
 2765POPC   C3B37509   4.430  11.601   7.927
 2765POPC   C4B37510   4.662  11.493   7.517
 2766POPC   NC337511  33.241  15.048   9.500
 2766POPC   PO437512  32.872  15.639   9.527
 2766POPC   GL137513  33.100  15.457   9.160
 2766POPC   GL237514  32.961  15.124   9.101
 2766POPC   C1A37515  33.151  15.355   8.702
 2766POPC   D2A37516  33.087  15.177   8.287
 2766POPC   C3A37517  33.156  15.400   7.879
 2766POPC   C4A37518  33.163  15.292   7.409
 2766POPC   C1B37519  32.779  14.949   8.731
 2766POPC   C2B37520  32.730  14.757   8.343
 2766POPC   C3B37521  32.962  14.787   7.972
 2766POPC   C4B37522  32.707  14.963   7.656
 2767POPC   NC337523  19.292  42.558   9.511
 2767POPC   PO437524  18.782  42.095   9.566
 2767POPC   GL137525  18.873  42.310   9.151
 2767POPC   GL237526  19.153  42.516   9.036
 2767POPC   C1A37527  18.971  42.183   8.706
 2767POPC   D2A37528  18.804  42.340   8.310
 2767POPC   C3A37529  18.973  42.121   7.966
 2767POPC   C4A37530  19.294  42.301   7.717
 2767POPC   C1B37531  18.850  42.677   8.754
 2767POPC   C2B37532  19.167  42.650   8.511
 2767POPC   C3B37533  19.204  42.643   8.098
 2767POPC   C4B37534  19.179  42.788   7.717
 2768POPC   NC337535  37.360  11.100   9.385
 2768POPC   PO437536  37.844  11.562   9.670
 2768POPC   GL137537  37.785  11.422   9.175
 2768POPC   GL237538  37.772  11.058   9.075
 2768POPC   C1A37539  37.655  11.454   8.681
 2768POPC   D2A37540  37.831  11.540   8.273
 2768POPC   C3A37541  37.771  11.315   7.878
 2768POPC   C4A37542  37.786  11.426   7.404
 2768POPC   C1B37543  37.501  10.953   8.709
 2768POPC   C2B37544  37.620  10.936   8.260
 2768POPC   C3B37545  37.369  10.895   7.877
 2768POPC   C4B37546  37.337  11.255   7.623
 2769POPC   NC337547  12.234  40.265   9.421
 2769POPC   PO437548  12.065  39.589   9.464
 2769POPC   GL137549  12.229  39.811   9.111
 2769POPC   GL237550  11.893  39.964   9.015
 2769POPC   C1A37551  12.288  40.167   8.795
 2769POPC   D2A37552  11.888  40.285   8.619
 2769POPC   C3A37553  11.936  40.225   8.162
 2769POPC   C4A37554  11.661  40.186   7.805
 2769POPC   C1B37555  11.994  39.752   8.639
 2769POPC   C2B37556  11.936  39.643   8.208
 2769POPC   C3B37557  12.132  39.818   7.846
 2769POPC   C4B37558  12.381  39.927   7.486
 2770POPC   NC337559  27.204  32.469   9.254
 2770POPC   PO437560  27.607  32.792   9.657
 2770POPC   GL137561  27.606  33.050   9.267
 2770POPC   GL237562  27.319  32.936   9.106
 2770POPC   C1A37563  27.706  33.073   8.801
 2770POPC   D2A37564  27.766  33.170   8.356
 2770POPC   C3A37565  27.600  33.079   7.932
 2770POPC   C4A37566  27.922  32.963   7.671
 2770POPC   C1B37567  27.279  32.760   8.689
 2770POPC   C2B37568  27.301  32.864   8.275
 2770POPC   C3B37569  27.284  32.672   7.896
 2770POPC   C4B37570  27.281  32.725   7.471
 2771POPC   NC337571   3.064   8.418   9.395
 2771POPC   PO437572   2.542   8.653   9.621
 2771POPC   GL137573   2.553   8.454   9.204
 2771POPC   GL237574   2.700   8.131   9.142
 2771POPC   C1A37575   2.701   8.477   8.763
 2771POPC   D2A37576   2.799   8.633   8.349
 2771POPC   C3A37577   2.621   8.552   7.964
 2771POPC   C4A37578   2.540   8.383   7.593
 2771POPC   C1B37579   2.882   7.939   8.794
 2771POPC   C2B37580   3.045   8.175   8.469
 2771POPC   C3B37581   3.111   8.286   8.078
 2771POPC   C4B37582   3.111   8.096   7.699
 2772POPC   NC337583   5.694  34.466   9.409
 2772POPC   PO437584   6.303  34.702   9.410
 2772POPC   GL137585   6.040  34.695   9.088
 2772POPC   GL237586   6.045  34.375   9.023
 2772POPC   C1A37587   5.686  34.661   8.779
 2772POPC   D2A37588   5.844  34.512   8.399
 2772POPC   C3A37589   5.726  34.638   8.006
 2772POPC   C4A37590   5.669  34.392   7.670
 2772POPC   C1B37591   6.150  34.106   8.715
 2772POPC   C2B37592   6.145  34.124   8.304
 2772POPC   C3B37593   6.098  34.290   7.905
 2772POPC   C4B37594   6.287  34.283   7.501
 2773POPC   NC337595  30.034  19.562   9.493
 2773POPC   PO437596  29.730  20.152   9.530
 2773POPC   GL137597  29.765  19.852   9.158
 2773POPC   GL237598  30.135  19.723   9.032
 2773POPC   C1A37599  29.739  19.794   8.715
 2773POPC   D2A37600  29.907  20.034   8.349
 2773POPC   C3A37601  29.649  19.960   8.018
 2773POPC   C4A37602  29.756  19.676   7.707
 2773POPC   C1B37603  30.438  19.534   8.728
 2773POPC   C2B37604  30.476  19.655   8.304
 2773POPC   C3B37605  30.334  19.684   7.868
 2773POPC   C4B37606  30.286  19.420   7.493
 2774POPC   NC337607   0.292   1.409   9.389
 2774POPC   PO437608   0.809   1.464   9.727
 2774POPC   GL137609   0.684   1.167   9.187
 2774POPC   GL237610   0.322   1.029   9.043
 2774POPC   C1A37611   0.596   1.287   8.703
 2774POPC   D2A37612   0.337   1.418   8.304
 2774POPC   C3A37613   0.454   1.367   7.853
 2774POPC   C4A37614   0.261   1.304   7.442
 2774POPC   C1B37615   0.301   0.872   8.622
 2774POPC   C2B37616   0.683   0.934   8.346
 2774POPC   C3B37617   0.817   0.998   7.914
 2774POPC   C4B37618   0.541   0.893   7.557
 2775POPC   NC337619  35.695  23.558   9.325
 2775POPC   PO437620  35.517  24.102   9.733
 2775POPC   GL137621  35.325  23.942   9.303
 2775POPC   GL237622  35.176  23.621   9.240
 2775POPC   C1A37623  35.335  24.003   8.831
 2775POPC   D2A37624  35.304  23.824   8.415
 2775POPC   C3A37625  35.426  23.969   8.035
 2775POPC   C4A37626  35.244  24.006   7.676
 2775POPC   C1B37627  35.221  23.485   8.798
 2775POPC   C2B37628  35.268  23.330   8.358
 2775POPC   C3B37629  35.203  23.518   7.939
 2775POPC   C4B37630  34.933  23.277   7.646
 2776POPC   NC337631  28.062   1.544   9.657
 2776POPC   PO437632  28.604   1.913   9.673
 2776POPC   GL137633  28.370   1.688   9.265
 2776POPC   GL237634  27.988   1.748   9.183
 2776POPC   C1A37635  28.292   1.703   8.768
 2776POPC   D2A37636  28.248   1.905   8.322
 2776POPC   C3A37637  28.516   1.874   7.939
 2776POPC   C4A37638  28.592   2.097   7.504
 2776POPC   C1B37639  27.872   2.103   8.886
 2776POPC   C2B37640  27.927   2.342   8.492
 2776POPC   C3B37641  27.889   2.286   8.038
 2776POPC   C4B37642  27.960   1.891   7.841
 2777POPC   NC337643  44.845  13.596   9.540
 2777POPC   PO437644  44.449  14.054   9.231
 2777POPC   GL137645  44.628  13.722   9.077
 2777POPC   GL237646  44.965  13.833   9.094
 2777POPC   C1A37647  44.554  13.642   8.664
 2777POPC   D2A37648  44.302  13.736   8.320
 2777POPC   C3A37649  44.519  13.449   8.060
 2777POPC   C4A37650  44.690  13.398   7.662
 2777POPC   C1B37651   0.025  13.482   8.807
 2777POPC   C2B37652  44.966  13.385   8.366
 2777POPC   C3B37653   0.098  13.457   7.951
 2777POPC   C4B37654  44.964  13.829   7.753
 2778POPC   NC337655  26.955  40.486   9.608
 2778POPC   PO437656  26.606  39.917   9.495
 2778POPC   GL137657  26.631  40.107   9.102
 2778POPC   GL237658  26.509  39.858   8.889
 2778POPC   C1A37659  26.874  40.149   8.722
 2778POPC   D2A37660  26.655  39.997   8.351
 2778POPC   C3A37661  26.930  39.886   8.026
 2778POPC   C4A37662  26.954  40.022   7.611
 2778POPC   C1B37663  26.404  39.547   8.594
 2778POPC   C2B37664  26.356  39.588   8.173
 2778POPC   C3B37665  26.451  39.888   7.838
 2778POPC   C4B37666  26.550  39.805   7.397
 2779POPC   NC337667  11.063  20.570   9.693
 2779POPC   PO437668  11.382  21.160   9.630
 2779POPC   GL137669  11.447  20.767   9.309
 2779POPC   GL237670  11.167  20.513   9.192
 2779POPC   C1A37671  11.582  20.508   8.917
 2779POPC   D2A37672  11.395  20.526   8.521
 2779POPC   C3A37673  11.468  20.509   8.095
 2779POPC   C4A37674  11.486  20.295   7.736
 2779POPC   C1B37675  11.206  20.860   8.869
 2779POPC   C2B37676  11.089  20.916   8.443
 2779POPC   C3B37677  11.132  20.896   8.022
 2779POPC   C4B37678  11.241  20.748   7.629
 2780POPC   NC337679  34.835  44.542   9.590
 2780POPC   PO437680  34.425  44.938   9.474
 2780POPC   GL137681  34.482  44.694   9.106
 2780POPC   GL237682  34.679  44.373   9.130
 2780POPC   C1A37683  34.643  44.863   8.712
 2780POPC   D2A37684  34.932  44.701   8.324
 2780POPC   C3A37685  34.851  44.884   7.891
 2780POPC   C4A37686  34.626   0.030   7.495
 2780POPC   C1B37687  34.807  44.391   8.731
 2780POPC   C2B37688  34.487  44.488   8.434
 2780POPC   C3B37689  34.498  44.539   8.061
 2780POPC   C4B37690  34.425  44.485   7.666
 2781POPC   NC337691  29.500  41.652   9.377
 2781POPC   PO437692  30.044  41.207   9.386
 2781POPC   GL137693  30.130  41.276   9.033
 2781POPC   GL237694  29.902  41.565   9.015
 2781POPC   C1A37695  29.928  41.177   8.698
 2781POPC   D2A37696  29.785  41.370   8.342
 2781POPC   C3A37697  29.993  41.350   7.960
 2781POPC   C4A37698  30.067  41.161   7.551
 2781POPC   C1B37699  29.922  41.815   8.683
 2781POPC   C2B37700  30.124  41.752   8.311
 2781POPC   C3B37701  30.047  41.894   7.909
 2781POPC   C4B37702  29.867  41.668   7.584
 2782POPC   NC337703  20.002  27.128   9.397
 2782POPC   PO437704  19.691  27.770   9.347
 2782POPC   GL137705  19.933  27.544   9.074
 2782POPC   GL237706  19.701  27.269   8.997
 2782POPC   C1A37707  19.952  27.537   8.638
 2782POPC   D2A37708  19.767  27.374   8.262
 2782POPC   C3A37709  20.020  27.476   7.900
 2782POPC   C4A37710  20.077  27.692   7.516
 2782POPC   C1B37711  19.455  27.565   8.716
 2782POPC   C2B37712  19.364  27.738   8.285
 2782POPC   C3B37713  19.561  27.712   7.872
 2782POPC   C4B37714  19.496  27.801   7.434
 2783POPC   NC337715  28.853  28.487   9.529
 2783POPC   PO437716  28.158  28.364   9.517
 2783POPC   GL137717  28.382  28.474   9.147
 2783POPC   GL237718  28.707  28.704   9.106
 2783POPC   C1A37719  28.216  28.292   8.767
 2783POPC   D2A37720  27.993  28.279   8.391
 2783POPC   C3A37721  28.303  28.359   8.065
 2783POPC   C4A37722  28.213  28.292   7.653
 2783POPC   C1B37723  28.735  28.337   8.812
 2783POPC   C2B37724  28.859  28.294   8.398
 2783POPC   C3B37725  28.849  28.200   7.972
 2783POPC   C4B37726  28.675  28.516   7.720
 2784POPC   NC337727  39.314  41.663   9.589
 2784POPC   PO437728  39.052  41.112   9.313
 2784POPC   GL137729  39.190  41.489   9.125
 2784POPC   GL237730  39.020  41.802   9.173
 2784POPC   C1A37731  39.435  41.653   8.807
 2784POPC   D2A37732  39.508  41.398   8.431
 2784POPC   C3A37733  39.384  41.530   8.021
 2784POPC   C4A37734  39.529  41.776   7.693
 2784POPC   C1B37735  38.929  41.714   8.733
 2784POPC   C2B37736  39.183  41.832   8.382
 2784POPC   C3B37737  39.161  41.992   7.963
 2784POPC   C4B37738  39.040  41.729   7.586
 2785POPC   NC337739  20.807  30.354   9.521
 2785POPC   PO437740  20.241  30.530   9.355
 2785POPC   GL137741  20.478  30.526   9.026
 2785POPC   GL237742  20.766  30.712   9.100
 2785POPC   C1A37743  20.573  30.628   8.603
 2785POPC   D2A37744  20.752  30.424   8.276
 2785POPC   C3A37745  20.652  30.647   7.900
 2785POPC   C4A37746  20.479  30.551   7.499
 2785POPC   C1B37747  20.439  31.022   8.884
 2785POPC   C2B37748  20.328  31.079   8.422
 2785POPC   C3B37749  20.233  30.981   7.977
 2785POPC   C4B37750  20.478  31.154   7.660
 2786POPC   NC337751  24.237  41.672   9.736
 2786POPC   PO437752  24.659  41.226   9.555
 2786POPC   GL137753  24.542  41.519   9.234
 2786POPC   GL237754  24.263  41.780   9.222
 2786POPC   C1A37755  24.641  41.621   8.818
 2786POPC   D2A37756  24.630  41.476   8.411
 2786POPC   C3A37757  24.932  41.415   8.089
 2786POPC   C4A37758  24.777  41.570   7.710
 2786POPC   C1B37759  24.319  42.013   8.830
 2786POPC   C2B37760  24.218  41.899   8.397
 2786POPC   C3B37761  24.244  41.577   8.091
 2786POPC   C4B37762  24.320  41.784   7.730
 2787POPC   NC337763   9.617  25.517   9.449
 2787POPC   PO437764  10.036  25.134   9.781
 2787POPC   GL137765  10.022  25.235   9.314
 2787POPC   GL237766   9.748  25.084   9.185
 2787POPC   C1A37767   9.910  25.396   8.840
 2787POPC   D2A37768   9.803  25.188   8.450
 2787POPC   C3A37769   9.719  25.358   8.045
 2787POPC   C4A37770   9.317  25.406   7.830
 2787POPC   C1B37771   9.455  25.110   8.818
 2787POPC   C2B37772   9.315  25.118   8.361
 2787POPC   C3B37773   9.471  24.869   8.047
 2787POPC   C4B37774   9.341  24.793   7.654
 2788POPC   NC337775  25.561  28.881   9.700
 2788POPC   PO437776  24.950  29.119   9.632
 2788POPC   GL137777  25.202  29.058   9.222
 2788POPC   GL237778  25.589  29.032   9.192
 2788POPC   C1A37779  25.198  29.139   8.761
 2788POPC   D2A37780  24.957  29.287   8.396
 2788POPC   C3A37781  25.186  29.203   7.977
 2788POPC   C4A37782  25.314  29.279   7.518
 2788POPC   C1B37783  25.662  28.847   8.764
 2788POPC   C2B37784  25.603  28.928   8.286
 2788POPC   C3B37785  25.586  28.913   7.794
 2788POPC   C4B37786  25.796  29.136   7.431
 2789POPC   NC337787   6.448  29.662   9.526
 2789POPC   PO437788   6.780  30.123   9.752
 2789POPC   GL137789   6.710  30.029   9.261
 2789POPC   GL237790   6.422  30.226   9.257
 2789POPC   C1A37791   6.717  29.821   8.813
 2789POPC   D2A37792   6.785  29.679   8.325
 2789POPC   C3A37793   6.671  29.802   7.873
 2789POPC   C4A37794   6.944  30.060   7.563
 2789POPC   C1B37795   6.348  30.199   8.834
 2789POPC   C2B37796   6.429  30.041   8.441
 2789POPC   C3B37797   6.281  30.080   8.055
 2789POPC   C4B37798   6.439  30.210   7.687
 2790POPC   NC337799  17.069  17.691   9.560
 2790POPC   PO437800  16.378  17.519   9.579
 2790POPC   GL137801  16.691  17.489   9.273
 2790POPC   GL237802  16.690  17.825   9.218
 2790POPC   C1A37803  16.822  17.445   8.867
 2790POPC   D2A37804  16.597  17.424   8.457
 2790POPC   C3A37805  16.640  17.325   8.009
 2790POPC   C4A37806  16.770  17.158   7.628
 2790POPC   C1B37807  16.581  17.891   8.797
 2790POPC   C2B37808  16.925  17.811   8.516
 2790POPC   C3B37809  16.941  17.730   8.105
 2790POPC   C4B37810  17.208  17.451   7.920
 2791POPC   NC337811  37.139  15.853   9.478
 2791POPC   PO437812  36.580  16.081   9.828
 2791POPC   GL137813  36.665  16.123   9.315
 2791POPC   GL237814  36.986  16.102   9.081
 2791POPC   C1A37815  36.596  15.933   8.841
 2791POPC   D2A37816  36.860  16.023   8.489
 2791POPC   C3A37817  36.652  15.963   8.096
 2791POPC   C4A37818  36.738  16.023   7.668
 2791POPC   C1B37819  37.197  16.359   8.764
 2791POPC   C2B37820  37.319  16.274   8.381
 2791POPC   C3B37821  37.063  16.249   8.051
 2791POPC   C4B37822  37.010  16.444   7.709
 2792POPC   NC337823  15.352  35.926   9.349
 2792POPC   PO437824  14.771  36.248   9.287
 2792POPC   GL137825  15.078  36.222   9.010
 2792POPC   GL237826  15.406  36.358   9.097
 2792POPC   C1A37827  15.045  36.039   8.645
 2792POPC   D2A37828  15.125  36.270   8.318
 2792POPC   C3A37829  15.101  36.022   7.981
 2792POPC   C4A37830  15.098  36.263   7.607
 2792POPC   C1B37831  15.530  36.186   8.711
 2792POPC   C2B37832  15.561  36.032   8.312
 2792POPC   C3B37833  15.543  36.234   7.912
 2792POPC   C4B37834  15.531  35.922   7.654
 2793POPC   NC337835  10.667  19.143   9.657
 2793POPC   PO437836  10.078  19.104   9.495
 2793POPC   GL137837  10.423  19.212   9.181
 2793POPC   GL237838  10.805  19.283   9.165
 2793POPC   C1A37839  10.410  19.341   8.759
 2793POPC   D2A37840  10.191  19.191   8.381
 2793POPC   C3A37841  10.379  18.939   8.055
 2793POPC   C4A37842  10.392  18.983   7.614
 2793POPC   C1B37843  10.911  19.356   8.725
 2793POPC   C2B37844  10.729  19.207   8.317
 2793POPC   C3B37845  10.856  19.018   7.890
 2793POPC   C4B37846  10.865  18.749   7.524
 2794POPC   NC337847  20.186  42.110   9.494
 2794POPC   PO437848  19.747  42.644   9.531
 2794POPC   GL137849  19.706  42.413   9.127
 2794POPC   GL237850  19.813  42.039   9.119
 2794POPC   C1A37851  19.499  42.271   8.737
 2794POPC   D2A37852  19.345  42.195   8.322
 2794POPC   C3A37853  19.696  42.270   8.035
 2794POPC   C4A37854  19.818  42.331   7.614
 2794POPC   C1B37855  20.054  42.069   8.730
 2794POPC   C2B37856  20.005  41.919   8.288
 2794POPC   C3B37857  20.105  41.988   7.851
 2794POPC   C4B37858  20.166  42.027   7.363
 2795POPC   NC337859  42.265   0.952   9.435
 2795POPC   PO437860  41.944   1.497   9.484
 2795POPC   GL137861  42.208   1.329   9.105
 2795POPC   GL237862  42.535   1.161   9.042
 2795POPC   C1A37863  42.130   1.055   8.754
 2795POPC   D2A37864  42.180   1.253   8.387
 2795POPC   C3A37865  42.168   1.104   8.016
 2795POPC   C4A37866  42.038   1.370   7.725
 2795POPC   C1B37867  42.617   1.180   8.619
 2795POPC   C2B37868  42.639   1.245   8.166
 2795POPC   C3B37869  42.587   1.173   7.725
 2795POPC   C4B37870  42.674   1.050   7.299
 2796POPC   NC337871  22.211  18.839   9.274
 2796POPC   PO437872  21.735  19.317   9.683
 2796POPC   GL137873  21.853  19.434   9.103
 2796POPC   GL237874  22.134  19.260   9.008
 2796POPC   C1A37875  21.789  19.238   8.654
 2796POPC   D2A37876  21.938  18.917   8.320
 2796POPC   C3A37877  21.835  19.060   7.901
 2796POPC   C4A37878  22.087  19.307   7.605
 2796POPC   C1B37879  22.323  19.048   8.666
 2796POPC   C2B37880  22.486  19.094   8.287
 2796POPC   C3B37881  22.346  18.990   7.931
 2796POPC   C4B37882  22.558  18.726   7.704
 2797POPC   NC337883  21.622  16.886   9.654
 2797POPC   PO437884  20.904  16.684   9.715
 2797POPC   GL137885  21.210  16.934   9.376
 2797POPC   GL237886  21.404  16.684   9.233
 2797POPC   C1A37887  21.384  17.078   8.928
 2797POPC   D2A37888  21.396  16.888   8.508
 2797POPC   C3A37889  21.472  17.062   8.085
 2797POPC   C4A37890  21.334  16.878   7.689
 2797POPC   C1B37891  21.561  16.537   8.844
 2797POPC   C2B37892  21.602  16.400   8.437
 2797POPC   C3B37893  21.507  16.542   8.058
 2797POPC   C4B37894  21.704  16.450   7.671
 2798POPC   NC337895   3.102   0.120   9.542
 2798POPC   PO437896   2.392   0.160   9.531
 2798POPC   GL137897   2.539  44.797   9.265
 2798POPC   GL237898   2.881  44.729   9.211
 2798POPC   C1A37899   2.506  44.730   8.837
 2798POPC   D2A37900   2.720  44.702   8.432
 2798POPC   C3A37901   2.556  44.794   8.029
 2798POPC   C4A37902   2.782  44.714   7.645
 2798POPC   C1B37903   2.936  44.447   8.863
 2798POPC   C2B37904   3.074  44.338   8.460
 2798POPC   C3B37905   3.059  44.453   8.048
 2798POPC   C4B37906   3.027  44.264   7.638
 2799POPC   NC337907  15.616  26.751   9.638
 2799POPC   PO437908  16.256  26.492   9.569
 2799POPC   GL137909  15.963  26.709   9.263
 2799POPC   GL237910  15.694  26.480   9.200
 2799POPC   C1A37911  15.721  26.910   8.905
 2799POPC   D2A37912  15.743  26.809   8.468
 2799POPC   C3A37913  15.999  27.051   8.174
 2799POPC   C4A37914  16.282  26.894   7.865
 2799POPC   C1B37915  15.627  26.406   8.771
 2799POPC   C2B37916  15.638  26.329   8.301
 2799POPC   C3B37917  15.701  26.654   7.953
 2799POPC   C4B37918  15.724  26.709   7.493
 2800POPC   NC337919  20.391  40.371   9.359
 2800POPC   PO437920  20.738  39.832   9.575
 2800POPC   GL137921  20.672  40.009   9.148
 2800POPC   GL237922  20.305  39.942   9.059
 2800POPC   C1A37923  20.774  39.889   8.724
 2800POPC   D2A37924  20.570  39.950   8.317
 2800POPC   C3A37925  20.756  39.928   7.904
 2800POPC   C4A37926  21.030  39.585   7.779
 2800POPC   C1B37927  20.356  40.234   8.729
 2800POPC   C2B37928  20.375  40.420   8.308
 2800POPC   C3B37929  20.280  40.231   7.905
 2800POPC   C4B37930  20.483  40.101   7.508
 2801POPC   NC337931  35.564  25.115   9.278
 2801POPC   PO437932  35.118  25.499   9.420
 2801POPC   GL137933  35.139  25.250   9.012
 2801POPC   GL237934  34.831  24.982   8.998
 2801POPC   C1A37935  35.476  25.098   8.656
 2801POPC   D2A37936  35.696  24.859   8.314
 2801POPC   C3A37937  35.596  25.108   7.922
 2801POPC   C4A37938  35.393  25.515   7.773
 2801POPC   C1B37939  34.976  25.031   8.604
 2801POPC   C2B37940  35.190  24.899   8.272
 2801POPC   C3B37941  34.993  24.785   7.948
 2801POPC   C4B37942  35.021  25.076   7.677
 2802POPC   NC337943  12.172  35.137   9.424
 2802POPC   PO437944  11.777  35.720   9.289
 2802POPC   GL137945  12.027  35.422   8.987
 2802POPC   GL237946  11.892  35.090   9.009
 2802POPC   C1A37947  11.993  35.203   8.540
 2802POPC   D2A37948  11.770  35.238   8.157
 2802POPC   C3A37949  11.868  35.559   7.913
 2802POPC   C4A37950  12.206  35.756   7.803
 2802POPC   C1B37951  12.323  34.910   8.836
 2802POPC   C2B37952  12.463  34.880   8.433
 2802POPC   C3B37953  12.300  35.150   8.110
 2802POPC   C4B37954  12.259  35.062   7.679
 2803POPC   NC337955  40.213  21.480   9.709
 2803POPC   PO437956  39.892  21.058   9.355
 2803POPC   GL137957  39.917  21.463   9.130
 2803POPC   GL237958  40.236  21.668   9.135
 2803POPC   C1A37959  40.008  21.581   8.682
 2803POPC   D2A37960  40.160  21.496   8.253
 2803POPC   C3A37961  39.880  21.384   7.912
 2803POPC   C4A37962  39.902  21.095   7.579
 2803POPC   C1B37963  40.543  21.636   8.785
 2803POPC   C2B37964  40.618  21.729   8.351
 2803POPC   C3B37965  40.426  21.810   7.947
 2803POPC   C4B37966  40.011  21.861   7.812
 2804POPC   NC337967  24.032  14.861   9.553
 2804POPC   PO437968  23.573  14.370   9.617
 2804POPC   GL137969  23.658  14.360   9.175
 2804POPC   GL237970  23.674  14.707   9.177
 2804POPC   C1A37971  23.566  14.439   8.742
 2804POPC   D2A37972  23.274  14.479   8.417
 2804POPC   C3A37973  23.435  14.298   8.051
 2804POPC   C4A37974  23.777  14.364   7.783
 2804POPC   C1B37975  23.799  14.877   8.759
 2804POPC   C2B37976  23.768  14.688   8.331
 2804POPC   C3B37977  23.842  14.841   7.946
 2804POPC   C4B37978  23.884  14.793   7.508
 2805POPC   NC337979  43.015  13.199   9.341
 2805POPC   PO437980  42.974  12.615   9.612
 2805POPC   GL137981  43.085  12.640   9.173
 2805POPC   GL237982  43.421  12.755   9.199
 2805POPC   C1A37983  43.067  12.892   8.765
 2805POPC   D2A37984  42.848  12.804   8.370
 2805POPC   C3A37985  43.031  12.657   7.999
 2805POPC   C4A37986  42.861  12.923   7.717
 2805POPC   C1B37987  43.503  12.653   8.777
 2805POPC   C2B37988  43.387  12.808   8.362
 2805POPC   C3B37989  43.537  12.625   7.968
 2805POPC   C4B37990  43.382  12.828   7.613
 2806POPC   NC337991  10.382  32.833   9.383
 2806POPC   PO437992  10.856  33.361   9.523
 2806POPC   GL137993  10.684  33.175   9.146
 2806POPC   GL237994  10.330  33.231   9.007
 2806POPC   C1A37995  10.831  33.062   8.714
 2806POPC   D2A37996  10.812  33.061   8.272
 2806POPC   C3A37997  10.487  33.186   8.023
 2806POPC   C4A37998  10.565  33.387   7.593
 2806POPC   C1B37999  10.335  33.011   8.569
 2806POPC   C2B38000  10.404  32.690   8.222
 2806POPC   C3B38001  10.253  32.724   7.794
 2806POPC   C4B38002  10.135  33.131   7.674
 2807POPC   NC338003  16.242   7.486   9.845
 2807POPC   PO438004  15.771   7.052   9.564
 2807POPC   GL138005  15.992   7.263   9.263
 2807POPC   GL238006  16.057   7.098   9.048
 2807POPC   C1A38007  15.998   7.575   8.882
 2807POPC   D2A38008  16.040   7.731   8.462
 2807POPC   C3A38009  15.883   7.512   8.113
 2807POPC   C4A38010  15.745   7.567   7.710
 2807POPC   C1B38011  16.327   7.180   8.758
 2807POPC   C2B38012  16.225   7.260   8.400
 2807POPC   C3B38013  16.368   7.354   8.048
 2807POPC   C4B38014  16.166   7.232   7.733
 2808POPC   NC338015   4.907  16.654   9.551
 2808POPC   PO438016   4.208  16.916   9.507
 2808POPC   GL138017   4.149  16.651   9.117
 2808POPC   GL238018   3.837  16.390   9.100
 2808POPC   C1A38019   4.363  16.714   8.692
 2808POPC   D2A38020   4.350  17.058   8.378
 2808POPC   C3A38021   4.563  16.944   7.999
 2808POPC   C4A38022   4.510  16.552   7.779
 2808POPC   C1B38023   3.877  16.626   8.702
 2808POPC   C2B38024   3.829  16.525   8.310
 2808POPC   C3B38025   4.041  16.704   7.992
 2808POPC   C4B38026   4.179  16.951   7.672
 2809POPC   NC338027  29.562  43.177   9.693
 2809POPC   PO438028  30.150  42.867   9.522
 2809POPC   GL138029  29.840  43.054   9.220
 2809POPC   GL238030  29.983  42.849   8.965
 2809POPC   C1A38031  29.697  43.232   8.795
 2809POPC   D2A38032  29.950  43.220   8.406
 2809POPC   C3A38033  29.918  43.513   8.099
 2809POPC   C4A38034  29.920  43.422   7.735
 2809POPC   C1B38035  30.283  42.912   8.632
 2809POPC   C2B38036  30.240  42.747   8.222
 2809POPC   C3B38037  29.999  42.931   7.909
 2809POPC   C4B38038  30.037  43.033   7.469
 2810POPC   NC338039  29.531   4.430   9.841
 2810POPC   PO438040  29.059   4.235   9.608
 2810POPC   GL138041  28.982   4.220   9.127
 2810POPC   GL238042  29.030   4.554   9.000
 2810POPC   C1A38043  29.016   4.172   8.655
 2810POPC   D2A38044  29.096   4.430   8.278
 2810POPC   C3A38045  29.301   4.246   7.925
 2810POPC   C4A38046  29.603   4.122   7.611
 2810POPC   C1B38047  28.716   4.587   8.659
 2810POPC   C2B38048  28.588   4.468   8.252
 2810POPC   C3B38049  28.820   4.504   7.839
 2810POPC   C4B38050  28.923   4.870   7.584
 2811POPC   NC338051   2.814  38.217   9.354
 2811POPC   PO438052   2.920  38.854   9.481
 2811POPC   GL138053   2.714  38.684   9.089
 2811POPC   GL238054   2.408  38.421   9.078
 2811POPC   C1A38055   2.934  38.566   8.710
 2811POPC   D2A38056   2.804  38.577   8.267
 2811POPC   C3A38057   2.952  38.782   7.898
 2811POPC   C4A38058   3.004  38.655   7.465
 2811POPC   C1B38059   2.459  38.396   8.615
 2811POPC   C2B38060   2.362  38.320   8.169
 2811POPC   C3B38061   2.649  38.344   7.805
 2811POPC   C4B38062   2.600  38.357   7.340
 2812POPC   NC338063  31.207  11.555   9.575
 2812POPC   PO438064  30.622  11.102   9.504
 2812POPC   GL138065  30.476  11.186   9.074
 2812POPC   GL238066  30.799  11.406   9.074
 2812POPC   C1A38067  30.571  11.243   8.632
 2812POPC   D2A38068  30.989  11.125   8.423
 2812POPC   C3A38069  30.943  11.282   8.030
 2812POPC   C4A38070  30.515  11.276   7.938
 2812POPC   C1B38071  30.945  11.593   8.674
 2812POPC   C2B38072  30.713  11.661   8.262
 2812POPC   C3B38073  30.702  11.713   7.795
 2812POPC   C4B38074  30.810  11.423   7.469
 2813POPC   NC338075  40.966  30.922   9.564
 2813POPC   PO438076  40.667  30.326   9.472
 2813POPC   GL138077  40.727  30.574   9.120
 2813POPC   GL238078  40.617  30.912   9.181
 2813POPC   C1A38079  40.938  30.532   8.716
 2813POPC   D2A38080  41.157  30.475   8.327
 2813POPC   C3A38081  40.928  30.551   7.952
 2813POPC   C4A38082  41.040  30.730   7.574
 2813POPC   C1B38083  40.884  31.029   8.806
 2813POPC   C2B38084  40.980  30.980   8.364
 2813POPC   C3B38085  40.802  31.045   7.959
 2813POPC   C4B38086  41.064  31.228   7.666
 2814POPC   NC338087  25.739   8.091   9.533
 2814POPC   PO438088  26.113   8.588   9.242
 2814POPC   GL138089  26.050   8.199   9.121
 2814POPC   GL238090  26.364   8.074   9.173
 2814POPC   C1A38091  25.967   8.095   8.698
 2814POPC   D2A38092  25.907   8.443   8.377
 2814POPC   C3A38093  25.855   8.390   7.943
 2814POPC   C4A38094  26.067   8.298   7.544
 2814POPC   C1B38095  26.453   7.970   8.760
 2814POPC   C2B38096  26.255   7.855   8.352
 2814POPC   C3B38097  26.243   8.060   7.960
 2814POPC   C4B38098  26.391   7.869   7.526
 2815POPC   NC338099  19.281  38.061   9.521
 2815POPC   PO438100  18.631  37.986   9.554
 2815POPC   GL138101  18.836  37.962   9.133
 2815POPC   GL238102  18.633  37.686   9.007
 2815POPC   C1A38103  18.856  37.976   8.661
 2815POPC   D2A38104  18.857  37.699   8.324
 2815POPC   C3A38105  19.060  37.847   7.993
 2815POPC   C4A38106  18.766  38.087   7.828
 2815POPC   C1B38107  19.012  37.488   8.782
 2815POPC   C2B38108  19.182  37.289   8.383
 2815POPC   C3B38109  19.105  37.329   7.927
 2815POPC   C4B38110  19.274  37.391   7.507
 2816POPC   NC338111   4.077  38.389   9.681
 2816POPC   PO438112   4.546  38.758   9.477
 2816POPC   GL138113   4.301  38.600   9.178
 2816POPC   GL238114   4.263  38.299   9.165
 2816POPC   C1A38115   4.292  38.650   8.727
 2816POPC   D2A38116   4.092  38.596   8.339
 2816POPC   C3A38117   4.217  38.790   7.923
 2816POPC   C4A38118   4.315  38.645   7.535
 2816POPC   C1B38119   4.329  38.088   8.758
 2816POPC   C2B38120   4.516  38.182   8.386
 2816POPC   C3B38121   4.334  38.290   8.009
 2816POPC   C4B38122   3.963  38.163   7.803
 2817POPC   NC338123  18.057   7.362   9.530
 2817POPC   PO438124  18.597   7.465   9.227
 2817POPC   GL138125  18.279   7.679   9.012
 2817POPC   GL238126  17.946   7.622   9.101
 2817POPC   C1A38127  18.123   7.633   8.577
 2817POPC   D2A38128  18.059   7.560   8.132
 2817POPC   C3A38129  18.328   7.577   7.849
 2817POPC   C4A38130  18.445   7.968   7.832
 2817POPC   C1B38131  18.008   7.229   8.880
 2817POPC   C2B38132  18.072   7.119   8.458
 2817POPC   C3B38133  17.901   7.087   8.053
 2817POPC   C4B38134  17.973   7.308   7.631
 2818POPC   NC338135  33.504  16.637   9.786
 2818POPC   PO438136  34.146  16.466   9.685
 2818POPC   GL138137  33.947  16.830   9.297
 2818POPC   GL238138  33.526  16.728   9.226
 2818POPC   C1A38139  33.985  16.704   8.815
 2818POPC   D2A38140  34.103  16.527   8.388
 2818POPC   C3A38141  33.901  16.654   8.012
 2818POPC   C4A38142  33.968  16.580   7.573
 2818POPC   C1B38143  33.498  16.866   8.799
 2818POPC   C2B38144  33.531  16.597   8.428
 2818POPC   C3B38145  33.387  16.658   7.997
 2818POPC   C4B38146  33.578  17.006   7.797
 2819POPC   NC338147  10.982   1.475   9.245
 2819POPC   PO438148  10.713   1.023   9.655
 2819POPC   GL138149  10.553   1.014   9.202
 2819POPC   GL238150  10.457   1.334   9.094
 2819POPC   C1A38151  10.321   0.970   8.795
 2819POPC   D2A38152  10.560   1.033   8.409
 2819POPC   C3A38153  10.344   0.893   8.050
 2819POPC   C4A38154  10.239   0.886   7.607
 2819POPC   C1B38155  10.510   1.476   8.688
 2819POPC   C2B38156  10.509   1.509   8.257
 2819POPC   C3B38157  10.702   1.284   7.944
 2819POPC   C4B38158  10.731   1.605   7.631
 2820POPC   NC338159  21.049  39.620   9.313
 2820POPC   PO438160  20.497  39.163   9.504
 2820POPC   GL138161  20.692  39.243   9.137
 2820POPC   GL238162  20.584  39.521   9.113
 2820POPC   C1A38163  20.755  39.143   8.687
 2820POPC   D2A38164  20.998  38.932   8.332
 2820POPC   C3A38165  20.833  38.903   7.916
 2820POPC   C4A38166  20.724  39.145   7.569
 2820POPC   C1B38167  20.367  39.534   8.740
 2820POPC   C2B38168  20.320  39.352   8.338
 2820POPC   C3B38169  20.547  39.432   7.953
 2820POPC   C4B38170  20.445  39.561   7.529
 2821POPC   NC338171   6.055  12.608   9.316
 2821POPC   PO438172   6.723  12.660   9.493
 2821POPC   GL138173   6.659  12.899   9.137
 2821POPC   GL238174   6.315  13.007   9.134
 2821POPC   C1A38175   6.857  12.999   8.741
 2821POPC   D2A38176   6.724  12.768   8.372
 2821POPC   C3A38177   6.816  12.947   7.972
 2821POPC   C4A38178   7.019  12.762   7.624
 2821POPC   C1B38179   6.350  13.029   8.684
 2821POPC   C2B38180   6.432  13.181   8.256
 2821POPC   C3B38181   6.273  13.038   7.866
 2821POPC   C4B38182   6.538  12.976   7.541
 2822POPC   NC338183  25.315  15.171   9.402
 2822POPC   PO438184  25.082  14.575   9.349
 2822POPC   GL138185  24.911  14.957   9.156
 2822POPC   GL238186  24.995  15.323   9.040
 2822POPC   C1A38187  24.786  15.000   8.724
 2822POPC   D2A38188  24.852  14.813   8.315
 2822POPC   C3A38189  25.124  15.045   7.998
 2822POPC   C4A38190  25.539  15.137   7.786
 2822POPC   C1B38191  24.924  15.523   8.641
 2822POPC   C2B38192  25.043  15.514   8.205
 2822POPC   C3B38193  25.161  15.503   7.756
 2822POPC   C4B38194  24.938  15.603   7.388
 2823POPC   NC338195   1.591  19.059   9.688
 2823POPC   PO438196   2.211  19.014   9.534
 2823POPC   GL138197   1.918  19.148   9.220
 2823POPC   GL238198   1.692  19.409   9.309
 2823POPC   C1A38199   1.812  19.038   8.810
 2823POPC   D2A38200   1.960  18.901   8.426
 2823POPC   C3A38201   2.113  19.215   8.159
 2823POPC   C4A38202   2.156  19.284   7.746
 2823POPC   C1B38203   1.539  19.443   8.877
 2823POPC   C2B38204   1.647  19.338   8.393
 2823POPC   C3B38205   1.679  19.385   7.906
 2823POPC   C4B38206   1.711  19.217   7.458
 2824POPC   NC338207  30.346  28.148   9.466
 2824POPC   PO438208  29.979  28.623   9.572
 2824POPC   GL138209  29.978  28.413   9.176
 2824POPC   GL238210  29.653  28.427   9.034
 2824POPC   C1A38211  30.047  28.268   8.752
 2824POPC   D2A38212  29.733  28.220   8.452
 2824POPC   C3A38213  29.830  28.283   8.035
 2824POPC   C4A38214  30.181  28.534   7.902
 2824POPC   C1B38215  29.711  28.660   8.705
 2824POPC   C2B38216  29.918  28.701   8.342
 2824POPC   C3B38217  29.681  28.786   7.986
 2824POPC   C4B38218  29.728  28.581   7.614
 2825POPC   NC338219   0.669  11.645   9.315
 2825POPC   PO438220   0.494  12.197   9.638
 2825POPC   GL138221   0.542  12.211   9.160
 2825POPC   GL238222   0.835  12.039   9.016
 2825POPC   C1A38223   0.427  12.168   8.697
 2825POPC   D2A38224   0.092  11.996   8.412
 2825POPC   C3A38225   0.166  11.904   7.980
 2825POPC   C4A38226   0.155  11.986   7.527
 2825POPC   C1B38227   0.734  11.710   8.709
 2825POPC   C2B38228   0.518  11.717   8.372
 2825POPC   C3B38229   0.682  11.838   8.035
 2825POPC   C4B38230   0.553  11.728   7.659
 2826POPC   NC338231  13.840  40.227   9.516
 2826POPC   PO438232  13.293  39.839   9.710
 2826POPC   GL138233  13.431  40.048   9.278
 2826POPC   GL238234  13.768  40.012   9.078
 2826POPC   C1A38235  13.351  40.070   8.825
 2826POPC   D2A38236  13.517  40.096   8.414
 2826POPC   C3A38237  13.220  40.158   8.081
 2826POPC   C4A38238  13.327  40.078   7.683
 2826POPC   C1B38239  13.925  40.243   8.717
 2826POPC   C2B38240  14.023  40.147   8.282
 2826POPC   C3B38241  13.823  40.189   7.882
 2826POPC   C4B38242  13.716  40.282   7.439
 2827POPC   NC338243   0.914  10.077   9.341
 2827POPC   PO438244   1.372  10.509   9.636
 2827POPC   GL138245   1.253  10.522   9.204
 2827POPC   GL238246   1.560  10.660   9.120
 2827POPC   C1A38247   1.185  10.399   8.739
 2827POPC   D2A38248   1.292  10.379   8.263
 2827POPC   C3A38249   1.047  10.572   7.915
 2827POPC   C4A38250   1.184  10.531   7.491
 2827POPC   C1B38251   1.406  10.854   8.780
 2827POPC   C2B38252   1.196  10.866   8.394
 2827POPC   C3B38253   1.441  10.862   8.028
 2827POPC   C4B38254   1.416  10.954   7.608
 2828POPC   NC338255  28.668  10.922   9.455
 2828POPC   PO438256  28.274  10.489   9.842
 2828POPC   GL138257  28.347  10.368   9.357
 2828POPC   GL238258  28.657  10.439   9.208
 2828POPC   C1A38259  28.236  10.454   8.883
 2828POPC   D2A38260  27.922  10.542   8.528
 2828POPC   C3A38261  28.075  10.550   8.093
 2828POPC   C4A38262  28.050  10.167   7.799
 2828POPC   C1B38263  28.764  10.366   8.779
 2828POPC   C2B38264  28.859  10.517   8.379
 2828POPC   C3B38265  28.826  10.288   8.010
 2828POPC   C4B38266  28.492  10.423   7.818
 2829POPC   NC338267  21.254   4.634   9.532
 2829POPC   PO438268  21.644   5.189   9.514
 2829POPC   GL138269  21.458   4.989   9.169
 2829POPC   GL238270  21.675   4.774   9.058
 2829POPC   C1A38271  21.273   5.081   8.758
 2829POPC   D2A38272  21.347   4.990   8.318
 2829POPC   C3A38273  21.224   5.280   8.046
 2829POPC   C4A38274  21.407   5.474   7.707
 2829POPC   C1B38275  21.919   4.650   8.722
 2829POPC   C2B38276  22.030   4.611   8.298
 2829POPC   C3B38277  21.792   4.714   7.916
 2829POPC   C4B38278  21.424   4.933   7.724
 2830POPC   NC338279  16.167  21.705   9.592
 2830POPC   PO438280  15.920  21.033   9.587
 2830POPC   GL138281  15.831  21.421   9.333
 2830POPC   GL238282  16.140  21.377   9.181
 2830POPC   C1A38283  15.853  21.662   8.898
 2830POPC   D2A38284  15.844  21.528   8.464
 2830POPC   C3A38285  16.202  21.453   8.174
 2830POPC   C4A38286  16.227  21.496   7.719
 2830POPC   C1B38287  15.839  21.161   8.873
 2830POPC   C2B38288  15.863  21.000   8.452
 2830POPC   C3B38289  15.786  21.187   8.054
 2830POPC   C4B38290  15.831  21.076   7.656
 2831POPC   NC338291  30.506  37.846   9.564
 2831POPC   PO438292  30.949  37.398   9.462
 2831POPC   GL138293  30.762  37.699   9.145
 2831POPC   GL238294  30.501  37.992   9.080
 2831POPC   C1A38295  30.791  37.771   8.692
 2831POPC   D2A38296  30.989  37.667   8.301
 2831POPC   C3A38297  30.801  37.814   7.937
 2831POPC   C4A38298  30.568  37.546   7.642
 2831POPC   C1B38299  30.352  37.593   8.877
 2831POPC   C2B38300  30.340  37.542   8.427
 2831POPC   C3B38301  30.308  37.776   8.040
 2831POPC   C4B38302  30.392  38.044   7.691
 2832POPC   NC338303   1.361  10.953   9.523
 2832POPC   PO438304   0.970  11.444   9.590
 2832POPC   GL138305   1.167  11.307   9.175
 2832POPC   GL238306   1.540  11.252   9.136
 2832POPC   C1A38307   1.095  11.258   8.727
 2832POPC   D2A38308   0.941  11.417   8.340
 2832POPC   C3A38309   1.019  11.155   7.991
 2832POPC   C4A38310   0.962  11.423   7.675
 2832POPC   C1B38311   1.618  11.307   8.708
 2832POPC   C2B38312   1.431  11.311   8.288
 2832POPC   C3B38313   1.440  11.430   7.829
 2832POPC   C4B38314   1.649  11.341   7.423
 2833POPC   NC338315  36.297  15.545   9.500
 2833POPC   PO438316  36.004  14.988   9.645
 2833POPC   GL138317  35.979  15.054   9.190
 2833POPC   GL238318  36.144  15.334   9.076
 2833POPC   C1A38319  36.117  14.970   8.756
 2833POPC   D2A38320  36.228  15.273   8.458
 2833POPC   C3A38321  36.205  15.055   8.097
 2833POPC   C4A38322  36.261  15.167   7.683
 2833POPC   C1B38323  35.793  15.376   8.772
 2833POPC   C2B38324  35.765  15.543   8.366
 2833POPC   C3B38325  36.009  15.525   8.027
 2833POPC   C4B38326  35.857  15.581   7.649
 2834POPC   NC338327  39.617  15.890   9.478
 2834POPC   PO438328  39.409  16.414   9.870
 2834POPC   GL138329  39.168  16.249   9.440
 2834POPC   GL238330  39.140  15.936   9.229
 2834POPC   C1A38331  39.084  16.328   8.916
 2834POPC   D2A38332  38.983  16.257   8.466
 2834POPC   C3A38333  38.841  15.946   8.156
 2834POPC   C4A38334  38.999  16.089   7.752
 2834POPC   C1B38335  39.059  15.809   8.816
 2834POPC   C2B38336  39.275  15.780   8.446
 2834POPC   C3B38337  39.361  16.038   8.116
 2834POPC   C4B38338  39.473  15.786   7.787
 2835POPC   NC338339   0.311  12.666   9.603
 2835POPC   PO438340   0.743  13.165   9.610
 2835POPC   GL138341   0.697  12.761   9.293
 2835POPC   GL238342   0.955  12.491   9.302
 2835POPC   C1A38343   0.356  12.668   8.932
 2835POPC   D2A38344   0.190  12.999   8.626
 2835POPC   C3A38345   0.206  12.964   8.160
 2835POPC   C4A38346   0.392  12.734   7.816
 2835POPC   C1B38347   0.835  12.534   8.852
 2835POPC   C2B38348   0.584  12.614   8.475
 2835POPC   C3B38349   0.480  12.305   8.181
 2835POPC   C4B38350   0.506  12.239   7.764
 2836POPC   NC338351  34.382  23.441   9.433
 2836POPC   PO438352  34.866  23.906   9.555
 2836POPC   GL138353  34.669  23.794   9.179
 2836POPC   GL238354  34.335  23.903   9.087
 2836POPC   C1A38355  34.673  23.665   8.753
 2836POPC   D2A38356  34.797  23.783   8.357
 2836POPC   C3A38357  34.720  23.523   8.041
 2836POPC   C4A38358  34.807  23.770   7.691
 2836POPC   C1B38359  34.153  23.717   8.719
 2836POPC   C2B38360  34.293  23.599   8.304
 2836POPC   C3B38361  34.341  23.828   7.902
 2836POPC   C4B38362  34.379  23.873   7.419
 2837POPC   NC338363  27.677  38.058   9.490
 2837POPC   PO438364  27.444  37.377   9.514
 2837POPC   GL138365  27.576  37.667   9.129
 2837POPC   GL238366  27.470  38.049   9.039
 2837POPC   C1A38367  27.752  37.806   8.693
 2837POPC   D2A38368  27.827  37.620   8.273
 2837POPC   C3A38369  27.604  37.577   7.913
 2837POPC   C4A38370  27.322  37.328   7.730
 2837POPC   C1B38371  27.309  38.131   8.623
 2837POPC   C2B38372  27.356  37.932   8.218
 2837POPC   C3B38373  27.128  37.778   7.856
 2837POPC   C4B38374  26.970  37.839   7.431
 2838POPC   NC338375  21.789  19.721   9.487
 2838POPC   PO438376  21.148  19.704   9.506
 2838POPC   GL138377  21.396  19.907   9.124
 2838POPC   GL238378  21.735  20.071   9.102
 2838POPC   C1A38379  21.446  19.675   8.710
 2838POPC   D2A38380  21.094  19.634   8.384
 2838POPC   C3A38381  21.068  19.802   7.981
 2838POPC   C4A38382  21.394  19.808   7.699
 2838POPC   C1B38383  21.545  20.170   8.679
 2838POPC   C2B38384  21.511  19.924   8.264
 2838POPC   C3B38385  21.718  20.112   7.948
 2838POPC   C4B38386  21.450  20.312   7.680
 2839POPC   NC338387   3.923  26.672   9.423
 2839POPC   PO438388   4.318  27.180   9.538
 2839POPC   GL138389   4.261  27.004   9.152
 2839POPC   GL238390   4.255  26.629   9.044
 2839POPC   C1A38391   4.186  27.028   8.738
 2839POPC   D2A38392   4.296  26.779   8.413
 2839POPC   C3A38393   4.153  26.966   8.037
 2839POPC   C4A38394   4.379  27.116   7.688
 2839POPC   C1B38395   4.076  26.371   8.678
 2839POPC   C2B38396   4.001  26.419   8.198
 2839POPC   C3B38397   4.213  26.527   7.805
 2839POPC   C4B38398   4.180  26.410   7.376
 2840POPC   NC338399  29.969   0.039   9.511
 2840POPC   PO438400  29.653  44.374   9.585
 2840POPC   GL138401  29.883  44.565   9.270
 2840POPC   GL238402  29.670  44.826   9.152
 2840POPC   C1A38403  30.145  44.626   8.898
 2840POPC   D2A38404  29.986  44.714   8.498
 2840POPC   C3A38405  30.165  44.657   8.093
 2840POPC   C4A38406  30.041  44.388   7.768
 2840POPC   C1B38407  29.329  44.846   8.851
 2840POPC   C2B38408  29.489  44.798   8.423
 2840POPC   C3B38409  29.672  44.766   8.015
 2840POPC   C4B38410  29.571   0.015   7.680
 2841POPC   NC338411  39.756  34.823   9.377
 2841POPC   PO438412  39.899  34.222   9.460
 2841POPC   GL138413  40.024  34.437   9.115
 2841POPC   GL238414  40.249  34.677   9.265
 2841POPC   C1A38415  39.839  34.554   8.730
 2841POPC   D2A38416  39.756  34.361   8.340
 2841POPC   C3A38417  39.977  34.538   8.018
 2841POPC   C4A38418  39.834  34.775   7.708
 2841POPC   C1B38419  40.255  34.840   8.850
 2841POPC   C2B38420  40.149  34.846   8.426
 2841POPC   C3B38421  40.377  34.980   8.084
 2841POPC   C4B38422  40.328  34.918   7.663
 2842POPC   NC338423   3.218  16.326   9.585
 2842POPC   PO438424   3.407  15.611   9.726
 2842POPC   GL138425   3.503  15.989   9.308
 2842POPC   GL238426   3.254  16.137   9.102
 2842POPC   C1A38427   3.570  15.903   8.795
 2842POPC   D2A38428   3.826  16.017   8.426
 2842POPC   C3A38429   3.682  15.870   8.027
 2842POPC   C4A38430   3.513  15.903   7.590
 2842POPC   C1B38431   3.090  16.037   8.710
 2842POPC   C2B38432   3.267  16.161   8.289
 2842POPC   C3B38433   3.156  16.231   7.847
 2842POPC   C4B38434   3.121  16.254   7.367
 2843POPC   NC338435   5.384  17.385  10.038
 2843POPC   PO438436   4.944  17.120   9.623
 2843POPC   GL138437   4.844  17.225   9.142
 2843POPC   GL238438   4.916  17.584   9.082
 2843POPC   C1A38439   4.676  17.356   8.677
 2843POPC   D2A38440   4.855  17.550   8.275
 2843POPC   C3A38441   4.865  17.365   7.856
 2843POPC   C4A38442   5.067  17.296   7.427
 2843POPC   C1B38443   4.806  17.871   8.719
 2843POPC   C2B38444   4.937  18.057   8.306
 2843POPC   C3B38445   5.091  18.044   7.864
 2843POPC   C4B38446   5.315  17.704   7.633
 2844POPC   NC338447  13.419  30.979   9.444
 2844POPC   PO438448  13.907  30.471   9.575
 2844POPC   GL138449  13.709  30.693   9.196
 2844POPC   GL238450  13.391  30.564   9.156
 2844POPC   C1A38451  13.686  30.808   8.771
 2844POPC   D2A38452  13.990  30.793   8.442
 2844POPC   C3A38453  13.933  30.509   8.106
 2844POPC   C4A38454  14.005  30.717   7.748
 2844POPC   C1B38455  13.190  30.647   8.777
 2844POPC   C2B38456  13.306  30.852   8.397
 2844POPC   C3B38457  13.502  30.791   7.996
 2844POPC   C4B38458  13.571  30.471   7.696
 2845POPC   NC338459   0.020  31.877   9.463
 2845POPC   PO438460   0.464  31.362   9.448
 2845POPC   GL138461   0.525  31.728   9.188
 2845POPC   GL238462   0.225  31.797   8.999
 2845POPC   C1A38463   0.739  31.680   8.799
 2845POPC   D2A38464   0.532  31.618   8.407
 2845POPC   C3A38465   0.648  31.764   8.046
 2845POPC   C4A38466   0.652  31.561   7.681
 2845POPC   C1B38467   0.293  31.392   8.780
 2845POPC   C2B38468   0.428  31.136   8.345
 2845POPC   C3B38469   0.528  31.112   7.911
 2845POPC   C4B38470   0.228  30.957   7.593
 2846POPC   NC338471   7.505  13.509   9.810
 2846POPC   PO438472   8.156  13.507   9.529
 2846POPC   GL138473   8.282  13.402   9.138
 2846POPC   GL238474   8.060  13.152   9.107
 2846POPC   C1A38475   8.161  13.593   8.715
 2846POPC   D2A38476   8.379  13.711   8.335
 2846POPC   C3A38477   8.166  13.682   7.933
 2846POPC   C4A38478   8.076  14.055   7.649
 2846POPC   C1B38479   8.273  13.111   8.702
 2846POPC   C2B38480   8.110  13.206   8.275
 2846POPC   C3B38481   8.274  13.191   7.830
 2846POPC   C4B38482   8.179  13.357   7.393
 2847POPC   NC338483  26.385  36.284   9.480
 2847POPC   PO438484  26.666  35.670   9.484
 2847POPC   GL138485  26.286  35.731   9.144
 2847POPC   GL238486  26.112  36.102   9.085
 2847POPC   C1A38487  26.101  35.776   8.703
 2847POPC   D2A38488  26.067  36.094   8.352
 2847POPC   C3A38489  25.977  36.013   7.889
 2847POPC   C4A38490  25.866  35.835   7.442
 2847POPC   C1B38491  25.938  36.422   8.768
 2847POPC   C2B38492  25.799  36.519   8.345
 2847POPC   C3B38493  25.842  36.530   7.901
 2847POPC   C4B38494  25.857  36.334   7.490
 2848POPC   NC338495  31.285  37.081   9.391
 2848POPC   PO438496  31.821  36.625   9.549
 2848POPC   GL138497  31.616  36.603   9.104
 2848POPC   GL238498  31.270  36.736   9.026
 2848POPC   C1A38499  31.639  36.681   8.677
 2848POPC   D2A38500  31.349  36.725   8.361
 2848POPC   C3A38501  31.456  36.816   7.940
 2848POPC   C4A38502  31.625  36.705   7.538
 2848POPC   C1B38503  31.221  37.086   8.708
 2848POPC   C2B38504  31.222  37.219   8.295
 2848POPC   C3B38505  31.057  37.278   7.924
 2848POPC   C4B38506  31.312  37.164   7.562
 2849POPC   NC338507   5.585  28.194   9.346
 2849POPC   PO438508   6.142  28.617   9.487
 2849POPC   GL138509   5.928  28.561   9.112
 2849POPC   GL238510   5.600  28.571   9.010
 2849POPC   C1A38511   5.992  28.644   8.675
 2849POPC   D2A38512   6.057  28.362   8.346
 2849POPC   C3A38513   5.882  28.364   7.937
 2849POPC   C4A38514   5.759  28.028   7.650
 2849POPC   C1B38515   5.619  28.257   8.655
 2849POPC   C2B38516   5.443  28.166   8.235
 2849POPC   C3B38517   5.371  28.394   7.847
 2849POPC   C4B38518   5.616  28.456   7.433
 2850POPC   NC338519   0.568   5.749   9.448
 2850POPC   PO438520   0.670   6.350   9.160
 2850POPC   GL138521   0.604   5.960   8.975
 2850POPC   GL238522   0.409   5.638   8.981
 2850POPC   C1A38523   0.441   6.061   8.610
 2850POPC   D2A38524   0.211   6.090   8.273
 2850POPC   C3A38525   0.512   5.807   8.113
 2850POPC   C4A38526   0.702   6.055   7.832
 2850POPC   C1B38527   0.164   5.655   8.622
 2850POPC   C2B38528  44.984   5.646   8.239
 2850POPC   C3B38529   0.113   5.778   7.820
 2850POPC   C4B38530   0.464   5.576   7.604
 2851POPC   NC338531   2.462   4.516   9.485
 2851POPC   PO438532   3.195   4.604   9.344
 2851POPC   GL138533   2.871   4.429   9.110
 2851POPC   GL238534   2.614   4.668   9.040
 2851POPC   C1A38535   2.944   4.403   8.679
 2851POPC   D2A38536   2.855   4.504   8.279
 2851POPC   C3A38537   2.914   4.150   7.990
 2851POPC   C4A38538   2.931   4.518   7.744
 2851POPC   C1B38539   2.438   4.427   8.700
 2851POPC   C2B38540   2.521   4.134   8.386
 2851POPC   C3B38541   2.454   4.348   8.009
 2851POPC   C4B38542   2.408   4.475   7.621
 2852POPC   NC338543  25.991   9.035   9.441
 2852POPC   PO438544  26.484   9.484   9.322
 2852POPC   GL138545  26.210   9.190   9.006
 2852POPC   GL238546  25.835   8.986   8.980
 2852POPC   C1A38547  26.199   8.903   8.654
 2852POPC   D2A38548  26.146   9.025   8.282
 2852POPC   C3A38549  26.277   8.735   7.992
 2852POPC   C4A38550  26.337   9.112   7.753
 2852POPC   C1B38551  25.669   8.856   8.576
 2852POPC   C2B38552  25.702   8.876   8.104
 2852POPC   C3B38553  25.870   8.820   7.674
 2852POPC   C4B38554  25.856   8.719   7.238
 2853POPC   NC338555  33.827  40.193   9.608
 2853POPC   PO438556  33.844  40.783   9.419
 2853POPC   GL138557  33.944  40.960   9.009
 2853POPC   GL238558  33.639  41.154   8.969
 2853POPC   C1A38559  34.028  40.862   8.603
 2853POPC   D2A38560  34.139  40.496   8.381
 2853POPC   C3A38561  33.989  40.591   7.988
 2853POPC   C4A38562  34.084  40.999   7.795
 2853POPC   C1B38563  33.527  40.754   8.770
 2853POPC   C2B38564  33.606  40.523   8.381
 2853POPC   C3B38565  33.462  40.438   7.954
 2853POPC   C4B38566  33.673  40.632   7.586
 2854POPC   NC338567  12.748  37.665   9.522
 2854POPC   PO438568  13.159  38.298   9.446
 2854POPC   GL138569  13.073  37.961   9.173
 2854POPC   GL238570  13.215  37.641   9.224
 2854POPC   C1A38571  13.143  37.836   8.748
 2854POPC   D2A38572  12.833  37.827   8.427
 2854POPC   C3A38573  12.950  37.976   8.037
 2854POPC   C4A38574  12.802  37.786   7.717
 2854POPC   C1B38575  13.327  37.351   8.867
 2854POPC   C2B38576  13.272  37.353   8.437
 2854POPC   C3B38577  13.021  37.457   8.097
 2854POPC   C4B38578  13.019  37.344   7.702
 2855POPC   NC338579  12.938  16.558   9.619
 2855POPC   PO438580  12.615  16.989   9.345
 2855POPC   GL138581  12.819  16.732   9.079
 2855POPC   GL238582  13.162  16.706   9.175
 2855POPC   C1A38583  12.828  16.703   8.631
 2855POPC   D2A38584  12.619  16.529   8.277
 2855POPC   C3A38585  12.827  16.853   8.015
 2855POPC   C4A38586  12.779  17.046   7.610
 2855POPC   C1B38587  13.127  16.369   8.867
 2855POPC   C2B38588  13.032  16.285   8.414
 2855POPC   C3B38589  12.993  16.379   7.967
 2855POPC   C4B38590  13.185  16.660   7.695
 2856POPC   NC338591   7.979  24.738   9.611
 2856POPC   PO438592   8.522  24.541   9.289
 2856POPC   GL138593   8.201  24.659   9.005
 2856POPC   GL238594   7.947  24.857   9.092
 2856POPC   C1A38595   8.034  24.584   8.594
 2856POPC   D2A38596   7.896  24.283   8.335
 2856POPC   C3A38597   8.138  24.282   8.012
 2856POPC   C4A38598   8.012  24.309   7.653
 2856POPC   C1B38599   7.802  25.026   8.707
 2856POPC   C2B38600   7.928  25.014   8.302
 2856POPC   C3B38601   7.873  24.720   8.015
 2856POPC   C4B38602   8.118  24.778   7.678
 2857POPC   NC338603  36.948  20.584   9.583
 2857POPC   PO438604  37.397  20.211   9.243
 2857POPC   GL138605  37.111  20.535   9.071
 2857POPC   GL238606  37.047  20.892   9.185
 2857POPC   C1A38607  36.909  20.452   8.674
 2857POPC   D2A38608  36.918  20.197   8.307
 2857POPC   C3A38609  36.646  20.404   8.027
 2857POPC   C4A38610  36.587  20.576   7.637
 2857POPC   C1B38611  36.861  20.956   8.766
 2857POPC   C2B38612  37.032  20.845   8.333
 2857POPC   C3B38613  36.973  20.798   7.875
 2857POPC   C4B38614  36.940  21.000   7.459
 2858POPC   NC338615  25.055   1.961   9.523
 2858POPC   PO438616  24.319   1.792   9.514
 2858POPC   GL138617  24.633   1.923   9.144
 2858POPC   GL238618  24.677   2.298   9.038
 2858POPC   C1A38619  24.489   1.979   8.703
 2858POPC   D2A38620  24.518   2.203   8.323
 2858POPC   C3A38621  24.255   1.897   8.070
 2858POPC   C4A38622  24.115   1.927   7.654
 2858POPC   C1B38623  24.960   2.213   8.711
 2858POPC   C2B38624  25.058   2.053   8.319
 2858POPC   C3B38625  24.794   1.875   8.013
 2858POPC   C4B38626  24.553   2.195   7.791
 2859POPC   NC338627  34.426  42.025   9.531
 2859POPC   PO438628  34.714  42.577   9.586
 2859POPC   GL138629  34.698  42.289   9.183
 2859POPC   GL238630  34.365  42.210   9.046
 2859POPC   C1A38631  34.741  42.305   8.720
 2859POPC   D2A38632  34.632  42.573   8.399
 2859POPC   C3A38633  34.629  42.416   8.014
 2859POPC   C4A38634  34.500  42.734   7.754
 2859POPC   C1B38635  34.285  41.865   8.784
 2859POPC   C2B38636  34.185  41.784   8.362
 2859POPC   C3B38637  34.279  42.066   8.068
 2859POPC   C4B38638  34.196  42.334   7.699
 2860POPC   NC338639  35.836  31.865   9.489
 2860POPC   PO438640  36.232  31.432   9.729
 2860POPC   GL138641  36.161  31.420   9.256
 2860POPC   GL238642  36.441  31.253   9.094
 2860POPC   C1A38643  36.226  31.677   8.845
 2860POPC   D2A38644  36.023  31.657   8.414
 2860POPC   C3A38645  36.249  31.699   8.041
 2860POPC   C4A38646  35.998  31.704   7.685
 2860POPC   C1B38647  36.148  31.188   8.755
 2860POPC   C2B38648  35.991  31.124   8.324
 2860POPC   C3B38649  36.110  31.226   7.890
 2860POPC   C4B38650  36.358  31.019   7.559
 2861POPC   NC338651   0.144  36.551   9.447
 2861POPC   PO438652   0.373  35.816   9.437
 2861POPC   GL138653   0.473  36.130   9.119
 2861POPC   GL238654   0.305  36.400   8.999
 2861POPC   C1A38655   0.648  36.046   8.727
 2861POPC   D2A38656   0.484  35.769   8.429
 2861POPC   C3A38657   0.261  36.012   8.185
 2861POPC   C4A38658   0.310  35.998   7.761
 2861POPC   C1B38659   0.548  36.568   8.708
 2861POPC   C2B38660   0.624  36.528   8.288
 2861POPC   C3B38661   0.410  36.479   7.894
 2861POPC   C4B38662   0.656  36.353   7.563
 2862POPC   NC338663  23.589   7.932   9.406
 2862POPC   PO438664  24.033   8.377   9.429
 2862POPC   GL138665  23.854   8.265   9.093
 2862POPC   GL238666  24.011   7.946   9.032
 2862POPC   C1A38667  23.802   8.436   8.703
 2862POPC   D2A38668  23.913   8.685   8.362
 2862POPC   C3A38669  23.805   8.442   8.020
 2862POPC   C4A38670  23.511   8.388   7.712
 2862POPC   C1B38671  23.646   7.951   8.753
 2862POPC   C2B38672  23.616   8.087   8.362
 2862POPC   C3B38673  23.759   7.920   8.027
 2862POPC   C4B38674  23.838   7.987   7.656
 2863POPC   NC338675   8.524  21.854   9.489
 2863POPC   PO438676   8.914  22.378   9.555
 2863POPC   GL138677   9.006  22.128   9.189
 2863POPC   GL238678   8.717  22.258   9.019
 2863POPC   C1A38679   9.279  22.170   8.811
 2863POPC   D2A38680   9.192  22.232   8.377
 2863POPC   C3A38681   9.119  21.957   8.059
 2863POPC   C4A38682   9.228  22.046   7.671
 2863POPC   C1B38683   8.821  22.022   8.654
 2863POPC   C2B38684   8.716  21.787   8.330
 2863POPC   C3B38685   8.630  21.697   7.965
 2863POPC   C4B38686   8.732  22.020   7.734
 2864POPC   NC338687  39.194  35.630   9.496
 2864POPC   PO438688  39.603  35.154   9.103
 2864POPC   GL138689  39.199  35.341   9.072
 2864POPC   GL238690  38.888  35.179   8.931
 2864POPC   C1A38691  39.160  35.633   8.755
 2864POPC   D2A38692  39.355  35.749   8.366
 2864POPC   C3A38693  39.220  35.440   8.107
 2864POPC   C4A38694  39.040  35.398   7.707
 2864POPC   C1B38695  39.191  35.158   8.563
 2864POPC   C2B38696  39.578  35.135   8.311
 2864POPC   C3B38697  39.466  35.068   7.879
 2864POPC   C4B38698  39.399  35.127   7.448
 2865POPC   NC338699  21.141  22.472   9.548
 2865POPC   PO438700  21.451  21.912   9.514
 2865POPC   GL138701  21.188  22.083   9.199
 2865POPC   GL238702  21.325  22.414   9.071
 2865POPC   C1A38703  21.061  22.005   8.794
 2865POPC   D2A38704  21.151  22.033   8.364
 2865POPC   C3A38705  21.466  21.803   8.127
 2865POPC   C4A38706  21.819  21.902   7.834
 2865POPC   C1B38707  21.057  22.527   8.725
 2865POPC   C2B38708  21.096  22.541   8.270
 2865POPC   C3B38709  21.365  22.342   7.961
 2865POPC   C4B38710  21.377  22.397   7.490
 2866POPC   NC338711   1.846  21.878   9.533
 2866POPC   PO438712   2.264  22.349   9.461
 2866POPC   GL138713   2.196  22.141   9.075
 2866POPC   GL238714   1.896  21.921   9.029
 2866POPC   C1A38715   2.138  22.216   8.644
 2866POPC   D2A38716   1.989  21.989   8.312
 2866POPC   C3A38717   2.143  22.187   8.005
 2866POPC   C4A38718   2.253  21.971   7.704
 2866POPC   C1B38719   1.647  22.087   8.675
 2866POPC   C2B38720   1.659  22.408   8.351
 2866POPC   C3B38721   1.536  22.316   7.929
 2866POPC   C4B38722   1.711  21.930   7.790
 2867POPC   NC338723  17.944  21.805   9.589
 2867POPC   PO438724  18.236  22.506   9.492
 2867POPC   GL138725  18.182  22.408   9.074
 2867POPC   GL238726  18.015  22.134   9.202
 2867POPC   C1A38727  18.140  22.445   8.615
 2867POPC   D2A38728  18.446  22.404   8.305
 2867POPC   C3A38729  18.346  22.496   7.899
 2867POPC   C4A38730  18.580  22.269   7.545
 2867POPC   C1B38731  18.000  21.996   8.775
 2867POPC   C2B38732  18.263  21.906   8.425
 2867POPC   C3B38733  18.321  22.001   7.973
 2867POPC   C4B38734  18.130  22.002   7.569
 2868POPC   NC338735  14.088  16.439   9.523
 2868POPC   PO438736  14.587  17.018   9.573
 2868POPC   GL138737  14.462  16.772   9.245
 2868POPC   GL238738  14.117  16.884   9.216
 2868POPC   C1A38739  14.659  16.628   8.860
 2868POPC   D2A38740  14.506  16.519   8.433
 2868POPC   C3A38741  14.734  16.515   8.058
 2868POPC   C4A38742  14.510  16.640   7.719
 2868POPC   C1B38743  14.149  16.559   8.880
 2868POPC   C2B38744  13.986  16.543   8.464
 2868POPC   C3B38745  14.063  16.566   8.029
 2868POPC   C4B38746  14.057  16.867   7.692
 2869POPC   NC338747  33.181  35.009   9.589
 2869POPC   PO438748  33.087  34.340   9.535
 2869POPC   GL138749  32.915  34.491   9.184
 2869POPC   GL238750  32.901  34.834   9.194
 2869POPC   C1A38751  33.130  34.561   8.811
 2869POPC   D2A38752  33.231  34.781   8.454
 2869POPC   C3A38753  33.118  34.621   8.088
 2869POPC   C4A38754  33.124  34.478   7.702
 2869POPC   C1B38755  32.840  34.994   8.789
 2869POPC   C2B38756  32.730  34.829   8.390
 2869POPC   C3B38757  32.617  35.001   8.044
 2869POPC   C4B38758  32.879  34.940   7.711
 2870POPC   NC338759  18.837   3.678   9.410
 2870POPC   PO438760  19.361   3.200   9.403
 2870POPC   GL138761  19.135   3.392   9.097
 2870POPC   GL238762  19.270   3.751   9.132
 2870POPC   C1A38763  18.795   3.293   8.808
 2870POPC   D2A38764  18.610   3.366   8.430
 2870POPC   C3A38765  18.845   3.352   8.035
 2870POPC   C4A38766  18.823   3.215   7.622
 2870POPC   C1B38767  19.042   3.730   8.724
 2870POPC   C2B38768  19.176   3.410   8.438
 2870POPC   C3B38769  19.358   3.427   8.033
 2870POPC   C4B38770  19.185   3.680   7.724
 2871POPC   NC338771   3.366  34.060   9.543
 2871POPC   PO438772   3.298  33.418   9.503
 2871POPC   GL138773   3.525  33.621   9.183
 2871POPC   GL238774   3.898  33.482   9.150
 2871POPC   C1A38775   3.421  33.823   8.780
 2871POPC   D2A38776   3.614  33.982   8.393
 2871POPC   C3A38777   3.495  33.972   7.950
 2871POPC   C4A38778   3.620  34.200   7.567
 2871POPC   C1B38779   3.686  33.383   8.758
 2871POPC   C2B38780   3.450  33.449   8.404
 2871POPC   C3B38781   3.522  33.473   7.973
 2871POPC   C4B38782   3.193  33.627   7.696
 2872POPC   NC338783  38.875  27.577   9.631
 2872POPC   PO438784  39.516  27.788   9.708
 2872POPC   GL138785  39.309  27.677   9.276
 2872POPC   GL238786  39.438  28.025   9.228
 2872POPC   C1A38787  39.314  27.329   8.902
 2872POPC   D2A38788  39.154  27.193   8.465
 2872POPC   C3A38789  39.065  27.561   8.144
 2872POPC   C4A38790  39.054  27.746   7.719
 2872POPC   C1B38791  39.528  27.815   8.822
 2872POPC   C2B38792  39.479  27.575   8.467
 2872POPC   C3B38793  39.538  27.357   8.092
 2872POPC   C4B38794  39.541  27.598   7.753
 2873POPC   NC338795  10.284  27.989   9.485
 2873POPC   PO438796  10.496  27.365   9.540
 2873POPC   GL138797  10.575  27.500   9.138
 2873POPC   GL238798  10.734  27.828   9.116
 2873POPC   C1A38799  10.372  27.698   8.779
 2873POPC   D2A38800  10.401  27.733   8.346
 2873POPC   C3A38801  10.107  27.680   8.056
 2873POPC   C4A38802  10.211  27.627   7.627
 2873POPC   C1B38803  10.843  27.526   8.724
 2873POPC   C2B38804  10.580  27.268   8.426
 2873POPC   C3B38805  10.517  27.356   7.989
 2873POPC   C4B38806  10.656  27.750   7.838
 2874POPC   NC338807  21.577   0.369   9.373
 2874POPC   PO438808  21.023   0.767   9.506
 2874POPC   GL138809  21.046   0.553   9.072
 2874POPC   GL238810  21.273   0.300   8.979
 2874POPC   C1A38811  21.066   0.529   8.591
 2874POPC   D2A38812  21.327   0.670   8.244
 2874POPC   C3A38813  21.424   0.473   7.843
 2874POPC   C4A38814  21.701   0.562   7.499
 2874POPC   C1B38815  21.575   0.421   8.670
 2874POPC   C2B38816  21.596   0.222   8.268
 2874POPC   C3B38817  21.589  44.983   7.884
 2874POPC   C4B38818  21.642   0.026   7.455
 2875POPC   NC338819  33.570  31.804   9.569
 2875POPC   PO438820  33.901  32.411   9.589
 2875POPC   GL138821  33.740  32.363   9.204
 2875POPC   GL238822  33.827  32.012   9.172
 2875POPC   C1A38823  33.728  32.517   8.797
 2875POPC   D2A38824  33.842  32.297   8.431
 2875POPC   C3A38825  33.883  32.463   8.032
 2875POPC   C4A38826  34.154  32.204   7.779
 2875POPC   C1B38827  33.590  32.027   8.802
 2875POPC   C2B38828  33.572  31.859   8.387
 2875POPC   C3B38829  33.757  31.905   7.987
 2875POPC   C4B38830  33.618  32.082   7.622
 2876POPC   NC338831   1.160  44.464   9.631
 2876POPC   PO438832   0.747  44.946   9.344
 2876POPC   GL138833   0.979  44.792   9.016
 2876POPC   GL238834   1.229  44.634   9.156
 2876POPC   C1A38835   1.218  44.509   8.669
 2876POPC   D2A38836   1.334  44.615   8.227
 2876POPC   C3A38837   1.143  44.402   7.857
 2876POPC   C4A38838   1.068  44.177   7.472
 2876POPC   C1B38839   1.412  44.967   8.837
 2876POPC   C2B38840   1.488   0.221   8.443
 2876POPC   C3B38841   1.552   0.156   7.982
 2876POPC   C4B38842   1.203  44.954   7.758
 2877POPC   NC338843  34.893  33.385   9.512
 2877POPC   PO438844  34.783  32.809   9.718
 2877POPC   GL138845  34.670  33.012   9.229
 2877POPC   GL238846  34.889  33.172   9.040
 2877POPC   C1A38847  34.407  33.286   8.889
 2877POPC   D2A38848  34.260  33.269   8.497
 2877POPC   C3A38849  34.584  33.117   8.236
 2877POPC   C4A38850  34.569  32.984   7.842
 2877POPC   C1B38851  34.671  32.892   8.713
 2877POPC   C2B38852  34.842  32.666   8.358
 2877POPC   C3B38853  34.996  32.695   7.932
 2877POPC   C4B38854  35.001  33.017   7.604
 2878POPC   NC338855  16.778   6.686   9.850
 2878POPC   PO438856  16.504   6.492   9.254
 2878POPC   GL138857  16.916   6.538   9.103
 2878POPC   GL238858  16.914   6.893   9.117
 2878POPC   C1A38859  17.083   6.508   8.681
 2878POPC   D2A38860  17.082   6.736   8.340
 2878POPC   C3A38861  16.876   6.527   8.006
 2878POPC   C4A38862  16.818   6.522   7.562
 2878POPC   C1B38863  16.686   6.817   8.723
 2878POPC   C2B38864  16.642   6.990   8.351
 2878POPC   C3B38865  16.485   6.860   7.973
 2878POPC   C4B38866  16.545   6.949   7.558
 2879POPC   NC338867  40.349  18.029   9.268
 2879POPC   PO438868  39.684  18.040   9.478
 2879POPC   GL138869  39.925  18.304   9.195
 2879POPC   GL238870  40.247  18.526   9.288
 2879POPC   C1A38871  39.933  18.209   8.762
 2879POPC   D2A38872  39.646  18.150   8.438
 2879POPC   C3A38873  39.752  18.326   8.070
 2879POPC   C4A38874  40.013  18.047   7.847
 2879POPC   C1B38875  40.258  18.595   8.845
 2879POPC   C2B38876  40.315  18.406   8.431
 2879POPC   C3B38877  40.288  18.472   7.978
 2879POPC   C4B38878  40.399  18.665   7.566
 2880POPC   NC338879  23.037  43.400   9.447
 2880POPC   PO438880  22.728  43.944   9.392
 2880POPC   GL138881  23.040  43.850   9.105
 2880POPC   GL238882  23.073  43.519   8.960
 2880POPC   C1A38883  23.126  44.040   8.717
 2880POPC   D2A38884  23.320  44.083   8.326
 2880POPC   C3A38885  23.110  44.085   7.957
 2880POPC   C4A38886  23.196  44.247   7.625
 2880POPC   C1B38887  22.710  43.676   8.713
 2880POPC   C2B38888  22.827  43.838   8.323
 2880POPC   C3B38889  23.085  43.594   8.036
 2880POPC   C4B38890  22.700  43.559   7.835
 2881POPC   NC338891   9.793  26.238   9.783
 2881POPC   PO438892  10.083  25.754   9.348
 2881POPC   GL138893   9.730  25.890   9.113
 2881POPC   GL238894   9.953  26.016   8.891
 2881POPC   C1A38895   9.531  25.779   8.723
 2881POPC   D2A38896   9.884  25.709   8.433
 2881POPC   C3A38897   9.893  25.860   8.034
 2881POPC   C4A38898   9.525  25.902   7.784
 2881POPC   C1B38899   9.702  26.255   8.584
 2881POPC   C2B38900   9.660  26.308   8.119
 2881POPC   C3B38901   9.871  26.275   7.709
 2881POPC   C4B38902   9.997  26.374   7.290
 2882POPC   NC338903  35.163  18.580   9.459
 2882POPC   PO438904  35.770  18.106   9.542
 2882POPC   GL138905  35.535  18.307   9.243
 2882POPC   GL238906  35.282  18.102   9.076
 2882POPC   C1A38907  35.465  18.531   8.848
 2882POPC   D2A38908  35.199  18.483   8.489
 2882POPC   C3A38909  35.404  18.508   8.110
 2882POPC   C4A38910  35.442  18.207   7.808
 2882POPC   C1B38911  35.102  17.942   8.700
 2882POPC   C2B38912  35.291  18.009   8.280
 2882POPC   C3B38913  35.123  17.808   7.915
 2882POPC   C4B38914  35.094  17.968   7.506
 2883POPC   NC338915   0.215  33.460   9.543
 2883POPC   PO438916   0.546  34.093   9.412
 2883POPC   GL138917   0.552  33.927   9.031
 2883POPC   GL238918   0.197  33.771   9.092
 2883POPC   C1A38919   0.466  33.638   8.699
 2883POPC   D2A38920   0.202  33.663   8.330
 2883POPC   C3A38921   0.523  33.628   8.031
 2883POPC   C4A38922   0.474  33.511   7.631
 2883POPC   C1B38923   0.163  34.054   8.725
 2883POPC   C2B38924   0.449  34.110   8.402
 2883POPC   C3B38925   0.343  34.101   7.986
 2883POPC   C4B38926   0.638  34.049   7.684
 2884POPC   NC338927  22.388  43.652   9.523
 2884POPC   PO438928  21.833  43.518   9.248
 2884POPC   GL138929  22.127  43.790   9.113
 2884POPC   GL238930  22.374  43.500   9.053
 2884POPC   C1A38931  22.276  44.030   8.761
 2884POPC   D2A38932  22.091  44.052   8.343
 2884POPC   C3A38933  22.374  43.989   7.990
 2884POPC   C4A38934  22.071  44.037   7.656
 2884POPC   C1B38935  22.143  43.539   8.674
 2884POPC   C2B38936  22.285  43.584   8.302
 2884POPC   C3B38937  22.008  43.630   7.976
 2884POPC   C4B38938  22.258  43.572   7.619
 2885POPC   NC338939   7.670   2.183   9.681
 2885POPC   PO438940   8.154   1.789   9.431
 2885POPC   GL138941   8.296   1.839   9.023
 2885POPC   GL238942   8.666   1.807   9.078
 2885POPC   C1A38943   8.089   2.128   8.726
 2885POPC   D2A38944   7.904   2.181   8.309
 2885POPC   C3A38945   7.939   1.774   8.100
 2885POPC   C4A38946   8.188   1.716   7.722
 2885POPC   C1B38947   8.606   2.103   8.716
 2885POPC   C2B38948   8.426   2.019   8.333
 2885POPC   C3B38949   8.349   2.133   7.943
 2885POPC   C4B38950   8.430   2.127   7.497
 2886POPC   NC338951   7.063  27.621   9.430
 2886POPC   PO438952   6.468  27.701   9.721
 2886POPC   GL138953   6.548  27.541   9.285
 2886POPC   GL238954   6.729  27.208   9.335
 2886POPC   C1A38955   6.568  27.686   8.817
 2886POPC   D2A38956   6.779  27.806   8.430
 2886POPC   C3A38957   6.559  27.781   8.035
 2886POPC   C4A38958   6.239  27.976   7.818
 2886POPC   C1B38959   6.689  27.203   8.901
 2886POPC   C2B38960   6.572  27.282   8.473
 2886POPC   C3B38961   6.610  27.279   8.014
 2886POPC   C4B38962   6.941  27.274   7.797
 2887POPC   NC338963  27.486   9.924   9.506
 2887POPC   PO438964  28.114   9.682   9.558
 2887POPC   GL138965  27.808   9.598   9.217
 2887POPC   GL238966  27.437   9.507   9.212
 2887POPC   C1A38967  27.856   9.692   8.770
 2887POPC   D2A38968  28.060   9.800   8.364
 2887POPC   C3A38969  27.900   9.606   7.977
 2887POPC   C4A38970  27.716   9.586   7.567
 2887POPC   C1B38971  27.333   9.648   8.780
 2887POPC   C2B38972  27.125   9.660   8.361
 2887POPC   C3B38973  27.270   9.664   7.929
 2887POPC   C4B38974  27.544   9.989   7.809
 2888POPC   NC338975   0.505   4.061   9.461
 2888POPC   PO438976   0.770   4.617   9.673
 2888POPC   GL138977   0.680   4.454   9.189
 2888POPC   GL238978   0.683   4.080   8.986
 2888POPC   C1A38979   0.479   4.489   8.795
 2888POPC   D2A38980   0.551   4.265   8.424
 2888POPC   C3A38981   0.398   4.421   8.064
 2888POPC   C4A38982   0.648   4.531   7.752
 2888POPC   C1B38983   0.249   4.015   8.721
 2888POPC   C2B38984   0.080   4.096   8.303
 2888POPC   C3B38985   0.147   3.975   7.917
 2888POPC   C4B38986   0.201   4.252   7.604
 2889POPC   NC338987  41.146  33.440   9.412
 2889POPC   PO438988  41.561  33.963   9.634
 2889POPC   GL138989  41.352  34.084   9.282
 2889POPC   GL238990  41.597  33.868   9.116
 2889POPC   C1A38991  41.278  34.166   8.853
 2889POPC   D2A38992  41.311  33.828   8.534
 2889POPC   C3A38993  41.255  33.929   8.102
 2889POPC   C4A38994  41.521  33.954   7.752
 2889POPC   C1B38995  41.753  33.649   8.753
 2889POPC   C2B38996  41.940  33.410   8.425
 2889POPC   C3B38997  42.050  33.473   7.994
 2889POPC   C4B38998  41.901  33.636   7.618
 2890POPC   NC338999   7.461  44.681   9.424
 2890POPC   PO439000   6.919  44.855   9.196
 2890POPC   GL139001   7.311  44.895   8.976
 2890POPC   GL239002   7.649  44.986   9.064
 2890POPC   C1A39003   7.583  44.616   8.707
 2890POPC   D2A39004   7.759  44.639   8.281
 2890POPC   C3A39005   7.503  44.566   7.898
 2890POPC   C4A39006   7.069  44.697   7.814
 2890POPC   C1B39007   7.615   0.109   8.631
 2890POPC   C2B39008   7.720   0.144   8.242
 2890POPC   C3B39009   7.444   0.074   7.898
 2890POPC   C4B39010   7.510  44.916   7.479
 2891POPC   NC339011  34.432  24.122   9.539
 2891POPC   PO439012  34.706  24.605   9.879
 2891POPC   GL139013  34.723  24.517   9.350
 2891POPC   GL239014  34.398  24.498   9.173
 2891POPC   C1A39015  34.722  24.219   8.907
 2891POPC   D2A39016  34.527  24.200   8.458
 2891POPC   C3A39017  34.528  24.467   8.071
 2891POPC   C4A39018  34.593  24.242   7.720
 2891POPC   C1B39019  34.509  24.643   8.743
 2891POPC   C2B39020  34.209  24.682   8.412
 2891POPC   C3B39021  34.097  24.785   7.957
 2891POPC   C4B39022  34.177  24.945   7.530
 2892POPC   NC339023  22.680  23.874   9.415
 2892POPC   PO439024  22.976  23.232   9.516
 2892POPC   GL139025  22.893  23.494   9.141
 2892POPC   GL239026  22.568  23.382   9.064
 2892POPC   C1A39027  23.015  23.854   8.845
 2892POPC   D2A39028  23.312  24.002   8.536
 2892POPC   C3A39029  23.242  23.963   8.099
 2892POPC   C4A39030  22.967  23.957   7.789
 2892POPC   C1B39031  22.620  23.607   8.658
 2892POPC   C2B39032  22.778  23.626   8.227
 2892POPC   C3B39033  22.601  23.624   7.804
 2892POPC   C4B39034  22.509  23.390   7.421
 2893POPC   NC339035  21.579  43.295   5.593
 2893POPC   PO439036  21.149  42.727   5.432
 2893POPC   GL139037  21.281  42.942   5.795
 2893POPC   GL239038  21.648  42.879   5.900
 2893POPC   C1A39039  21.236  43.205   6.182
 2893POPC   D2A39040  21.375  43.138   6.591
 2893POPC   C3A39041  21.163  43.305   6.930
 2893POPC   C4A39042  21.280  43.285   7.351
 2893POPC   C1B39043  21.779  42.867   6.346
 2893POPC   C2B39044  21.684  42.782   6.789
 2893POPC   C3B39045  21.388  42.852   7.118
 2893POPC   C4B39046  21.537  42.903   7.566
 2894POPC   NC339047  43.667  23.642   5.568
 2894POPC   PO439048  44.165  24.031   5.442
 2894POPC   GL139049  43.907  23.981   5.863
 2894POPC   GL239050  44.016  23.657   5.970
 2894POPC   C1A39051  43.692  23.847   6.305
 2894POPC   D2A39052  43.904  23.665   6.679
 2894POPC   C3A39053  43.871  23.814   7.117
 2894POPC   C4A39054  43.512  24.010   7.336
 2894POPC   C1B39055  44.265  23.433   6.322
 2894POPC   C2B39056  44.311  23.377   6.786
 2894POPC   C3B39057  44.307  23.359   7.235
 2894POPC   C4B39058  44.338  23.302   7.674
 2895POPC   NC339059   5.213   8.460   5.260
 2895POPC   PO439060   5.430   7.796   5.229
 2895POPC   GL139061   5.174   7.962   5.649
 2895POPC   GL239062   5.089   8.338   5.735
 2895POPC   C1A39063   4.942   7.988   6.072
 2895POPC   D2A39064   5.167   7.955   6.478
 2895POPC   C3A39065   4.989   8.086   6.866
 2895POPC   C4A39066   5.076   7.987   7.285
 2895POPC   C1B39067   5.347   8.320   6.146
 2895POPC   C2B39068   5.409   8.389   6.629
 2895POPC   C3B39069   5.441   8.300   7.088
 2895POPC   C4B39070   5.194   8.519   7.464
 2896POPC   NC339071   2.195  14.334   5.560
 2896POPC   PO439072   1.620  13.999   5.350
 2896POPC   GL139073   1.752  14.120   5.754
 2896POPC   GL239074   1.761  14.493   5.806
 2896POPC   C1A39075   1.893  14.176   6.188
 2896POPC   D2A39076   2.033  14.445   6.511
 2896POPC   C3A39077   1.826  14.323   6.859
 2896POPC   C4A39078   2.020  14.318   7.261
 2896POPC   C1B39079   1.765  14.764   6.199
 2896POPC   C2B39080   1.701  14.825   6.647
 2896POPC   C3B39081   1.986  14.773   6.977
 2896POPC   C4B39082   1.868  14.794   7.396
 2897POPC   NC339083  35.774  11.221   5.021
 2897POPC   PO439084  36.048  11.067   5.569
 2897POPC   GL139085  36.152  11.211   5.940
 2897POPC   GL239086  35.984  11.509   5.893
 2897POPC   C1A39087  36.022  11.124   6.313
 2897POPC   D2A39088  35.744  11.284   6.584
 2897POPC   C3A39089  35.981  11.105   6.901
 2897POPC   C4A39090  36.144  10.871   7.205
 2897POPC   C1B39091  36.202  11.609   6.279
 2897POPC   C2B39092  36.322  11.411   6.670
 2897POPC   C3B39093  36.238  11.469   7.122
 2897POPC   C4B39094  36.202  11.276   7.547
 2898POPC   NC339095  43.569  26.925   5.184
 2898POPC   PO439096  44.273  27.056   5.215
 2898POPC   GL139097  43.971  26.920   5.592
 2898POPC   GL239098  44.038  26.585   5.726
 2898POPC   C1A39099  43.883  26.888   6.091
 2898POPC   D2A39100  43.844  26.649   6.508
 2898POPC   C3A39101  43.647  26.907   6.815
 2898POPC   C4A39102  43.694  26.960   7.248
 2898POPC   C1B39103  44.192  26.466   6.163
 2898POPC   C2B39104  44.339  26.598   6.601
 2898POPC   C3B39105  44.088  26.665   6.984
 2898POPC   C4B39106  44.076  26.289   7.241
 2899POPC   NC339107  33.978  23.238   5.651
 2899POPC   PO439108  33.817  22.658   5.344
 2899POPC   GL139109  33.708  22.784   5.768
 2899POPC   GL239110  33.519  23.065   5.806
 2899POPC   C1A39111  33.788  22.906   6.226
 2899POPC   D2A39112  33.960  22.842   6.654
 2899POPC   C3A39113  33.716  22.919   7.030
 2899POPC   C4A39114  33.845  23.316   7.236
 2899POPC   C1B39115  33.329  23.132   6.195
 2899POPC   C2B39116  33.453  23.090   6.608
 2899POPC   C3B39117  33.375  23.308   6.986
 2899POPC   C4B39118  33.382  23.126   7.401
 2900POPC   NC339119  18.143   8.384   5.337
 2900POPC   PO439120  18.501   7.866   5.280
 2900POPC   GL139121  18.261   8.011   5.703
 2900POPC   GL239122  18.322   8.349   5.827
 2900POPC   C1A39123  18.256   7.986   6.192
 2900POPC   D2A39124  18.315   8.198   6.594
 2900POPC   C3A39125  18.271   7.962   6.965
 2900POPC   C4A39126  18.247   8.128   7.389
 2900POPC   C1B39127  18.147   8.567   6.204
 2900POPC   C2B39128  18.194   8.727   6.645
 2900POPC   C3B39129  18.097   8.488   7.038
 2900POPC   C4B39130  18.071   8.586   7.503
 2901POPC   NC339131  26.087  42.601   5.258
 2901POPC   PO439132  26.345  42.066   5.528
 2901POPC   GL139133  26.010  42.113   5.793
 2901POPC   GL239134  25.996  42.505   5.803
 2901POPC   C1A39135  25.961  42.182   6.225
 2901POPC   D2A39136  25.965  42.329   6.643
 2901POPC   C3A39137  25.917  42.005   6.935
 2901POPC   C4A39138  25.837  41.970   7.337
 2901POPC   C1B39139  26.142  42.686   6.222
 2901POPC   C2B39140  25.955  42.851   6.606
 2901POPC   C3B39141  25.919  42.719   7.044
 2901POPC   C4B39142  26.195  42.404   7.257
 2902POPC   NC339143  43.481   1.071   5.301
 2902POPC   PO439144  42.855   1.461   5.194
 2902POPC   GL139145  43.130   1.328   5.562
 2902POPC   GL239146  43.200   1.604   5.709
 2902POPC   C1A39147  43.433   1.214   5.975
 2902POPC   D2A39148  43.395   1.247   6.464
 2902POPC   C3A39149  43.321   0.918   6.806
 2902POPC   C4A39150  43.166   0.918   7.218
 2902POPC   C1B39151  42.954   1.363   6.051
 2902POPC   C2B39152  42.896   1.458   6.476
 2902POPC   C3B39153  42.954   1.283   6.867
 2902POPC   C4B39154  42.872   1.500   7.217
 2903POPC   NC339155  15.224  22.881   5.536
 2903POPC   PO439156  14.765  23.251   5.283
 2903POPC   GL139157  14.849  23.158   5.783
 2903POPC   GL239158  14.941  22.831   5.961
 2903POPC   C1A39159  15.076  23.231   6.230
 2903POPC   D2A39160  15.176  22.954   6.620
 2903POPC   C3A39161  14.964  23.019   7.004
 2903POPC   C4A39162  15.026  23.271   7.353
 2903POPC   C1B39163  15.350  22.737   6.186
 2903POPC   C2B39164  15.455  22.377   6.480
 2903POPC   C3B39165  15.552  22.431   6.906
 2903POPC   C4B39166  15.386  22.743   7.174
 2904POPC   NC339167  27.446  43.434   5.459
 2904POPC   PO439168  27.722  42.801   5.499
 2904POPC   GL139169  27.491  42.997   5.902
 2904POPC   GL239170  27.335  43.338   5.935
 2904POPC   C1A39171  27.356  43.086   6.373
 2904POPC   D2A39172  27.613  43.365   6.656
 2904POPC   C3A39173  27.773  43.118   7.009
 2904POPC   C4A39174  27.497  42.871   7.307
 2904POPC   C1B39175  27.157  43.563   6.267
 2904POPC   C2B39176  27.097  43.472   6.695
 2904POPC   C3B39177  27.277  43.266   7.042
 2904POPC   C4B39178  27.501  43.412   7.386
 2905POPC   NC339179  29.081  25.304   5.329
 2905POPC   PO439180  29.530  24.870   5.457
 2905POPC   GL139181  29.433  25.235   5.789
 2905POPC   GL239182  29.177  25.483   5.799
 2905POPC   C1A39183  29.455  25.309   6.275
 2905POPC   D2A39184  29.626  25.308   6.731
 2905POPC   C3A39185  29.309  25.292   7.107
 2905POPC   C4A39186  29.312  25.299   7.594
 2905POPC   C1B39187  29.007  25.591   6.233
 2905POPC   C2B39188  29.161  25.608   6.679
 2905POPC   C3B39189  28.969  25.696   7.090
 2905POPC   C4B39190  28.847  25.395   7.408
 2906POPC   NC339191  27.572  29.755   5.325
 2906POPC   PO439192  27.511  30.490   5.302
 2906POPC   GL139193  27.651  30.191   5.616
 2906POPC   GL239194  27.323  30.071   5.727
 2906POPC   C1A39195  27.736  30.031   6.044
 2906POPC   D2A39196  27.793  30.086   6.480
 2906POPC   C3A39197  27.640  29.844   6.796
 2906POPC   C4A39198  27.649  29.786   7.199
 2906POPC   C1B39199  27.260  29.905   6.153
 2906POPC   C2B39200  27.230  29.665   6.522
 2906POPC   C3B39201  27.066  29.777   6.886
 2906POPC   C4B39202  27.152  29.825   7.280
 2907POPC   NC339203   4.564   5.243   5.417
 2907POPC   PO439204   3.913   5.025   5.301
 2907POPC   GL139205   4.019   5.109   5.767
 2907POPC   GL239206   4.366   5.027   5.854
 2907POPC   C1A39207   4.022   5.182   6.269
 2907POPC   D2A39208   4.004   5.417   6.720
 2907POPC   C3A39209   4.047   5.178   7.122
 2907POPC   C4A39210   4.195   5.251   7.574
 2907POPC   C1B39211   4.414   4.825   6.258
 2907POPC   C2B39212   4.367   5.072   6.643
 2907POPC   C3B39213   4.527   5.288   7.014
 2907POPC   C4B39214   4.713   5.209   7.430
 2908POPC   NC339215   2.155  29.615   5.401
 2908POPC   PO439216   2.171  30.181   5.821
 2908POPC   GL139217   1.894  29.871   5.945
 2908POPC   GL239218   1.978  29.520   5.882
 2908POPC   C1A39219   1.874  29.905   6.386
 2908POPC   D2A39220   1.686  29.689   6.721
 2908POPC   C3A39221   1.845  29.848   7.107
 2908POPC   C4A39222   1.798  30.109   7.475
 2908POPC   C1B39223   2.395  29.671   6.087
 2908POPC   C2B39224   2.395  29.913   6.478
 2908POPC   C3B39225   2.343  29.817   6.918
 2908POPC   C4B39226   2.246  29.568   7.280
 2909POPC   NC339227   0.049   7.721   5.015
 2909POPC   PO439228   0.413   7.247   5.438
 2909POPC   GL139229   0.400   7.251   5.858
 2909POPC   GL239230   0.730   7.140   5.951
 2909POPC   C1A39231   0.506   7.602   6.118
 2909POPC   D2A39232   0.638   7.727   6.514
 2909POPC   C3A39233   0.654   7.470   6.855
 2909POPC   C4A39234   0.420   7.535   7.217
 2909POPC   C1B39235   0.641   7.183   6.399
 2909POPC   C2B39236   0.261   7.312   6.586
 2909POPC   C3B39237   0.123   7.165   6.986
 2909POPC   C4B39238   0.485   7.056   7.233
 2910POPC   NC339239   1.699  13.551   5.478
 2910POPC   PO439240   2.362  13.523   5.544
 2910POPC   GL139241   2.034  13.628   5.861
 2910POPC   GL239242   1.725  13.410   5.959
 2910POPC   C1A39243   2.040  13.690   6.301
 2910POPC   D2A39244   1.894  13.570   6.698
 2910POPC   C3A39245   2.099  13.885   6.945
 2910POPC   C4A39246   2.284  13.871   7.329
 2910POPC   C1B39247   1.547  13.714   6.237
 2910POPC   C2B39248   1.580  13.956   6.583
 2910POPC   C3B39249   1.594  13.898   7.018
 2910POPC   C4B39250   1.533  14.260   7.276
 2911POPC   NC339251   8.566   1.561   5.624
 2911POPC   PO439252   8.858   1.093   5.199
 2911POPC   GL139253   9.013   1.138   5.653
 2911POPC   GL239254   9.287   1.325   5.711
 2911POPC   C1A39255   9.082   1.065   6.115
 2911POPC   D2A39256   8.977   0.884   6.561
 2911POPC   C3A39257   9.050   1.043   6.979
 2911POPC   C4A39258   8.968   1.477   7.110
 2911POPC   C1B39259   9.309   1.543   6.100
 2911POPC   C2B39260   9.332   1.312   6.493
 2911POPC   C3B39261   9.437   1.403   6.911
 2911POPC   C4B39262   9.447   1.230   7.303
 2912POPC   NC339263   5.901   9.589   5.260
 2912POPC   PO439264   6.058  10.202   5.381
 2912POPC   GL139265   5.970   9.840   5.737
 2912POPC   GL239266   5.709   9.536   5.727
 2912POPC   C1A39267   6.108   9.922   6.193
 2912POPC   D2A39268   6.164   9.784   6.598
 2912POPC   C3A39269   6.120  10.016   6.970
 2912POPC   C4A39270   5.957   9.766   7.285
 2912POPC   C1B39271   5.625   9.681   6.142
 2912POPC   C2B39272   5.667   9.794   6.564
 2912POPC   C3B39273   5.472   9.615   6.910
 2912POPC   C4B39274   5.442   9.303   7.177
 2913POPC   NC339275  22.085   2.863   5.241
 2913POPC   PO439276  22.028   2.297   5.588
 2913POPC   GL139277  22.181   2.642   5.804
 2913POPC   GL239278  22.314   2.968   5.710
 2913POPC   C1A39279  22.172   2.740   6.221
 2913POPC   D2A39280  21.950   2.648   6.573
 2913POPC   C3A39281  21.920   2.864   6.948
 2913POPC   C4A39282  21.972   2.530   7.209
 2913POPC   C1B39283  22.461   3.140   6.127
 2913POPC   C2B39284  22.564   2.870   6.526
 2913POPC   C3B39285  22.437   2.790   6.955
 2913POPC   C4B39286  22.355   2.885   7.381
 2914POPC   NC339287  37.363  14.010   5.522
 2914POPC   PO439288  36.796  13.564   5.396
 2914POPC   GL139289  36.996  13.701   5.739
 2914POPC   GL239290  37.123  13.365   5.836
 2914POPC   C1A39291  37.016  13.723   6.188
 2914POPC   D2A39292  37.200  13.525   6.551
 2914POPC   C3A39293  37.007  13.700   6.906
 2914POPC   C4A39294  37.050  13.832   7.298
 2914POPC   C1B39295  36.772  13.250   6.100
 2914POPC   C2B39296  36.698  13.380   6.514
 2914POPC   C3B39297  36.814  13.226   6.905
 2914POPC   C4B39298  36.787  13.404   7.282
 2915POPC   NC339299  37.141  30.562   5.496
 2915POPC   PO439300  36.620  30.701   5.126
 2915POPC   GL139301  36.773  30.843   5.672
 2915POPC   GL239302  37.161  30.936   5.812
 2915POPC   C1A39303  36.933  30.601   6.122
 2915POPC   D2A39304  37.101  30.511   6.556
 2915POPC   C3A39305  36.884  30.674   6.938
 2915POPC   C4A39306  36.657  30.661   7.337
 2915POPC   C1B39307  37.396  30.795   6.211
 2915POPC   C2B39308  37.515  30.857   6.639
 2915POPC   C3B39309  37.379  30.689   7.043
 2915POPC   C4B39310  37.112  30.877   7.377
 2916POPC   NC339311   3.325  29.301   5.394
 2916POPC   PO439312   2.655  29.430   5.371
 2916POPC   GL139313   2.716  29.293   5.788
 2916POPC   GL239314   2.793  28.983   5.909
 2916POPC   C1A39315   2.806  29.395   6.231
 2916POPC   D2A39316   2.591  29.468   6.617
 2916POPC   C3A39317   2.667  29.326   7.034
 2916POPC   C4A39318   2.522  29.120   7.420
 2916POPC   C1B39319   2.993  28.932   6.346
 2916POPC   C2B39320   3.071  29.059   6.797
 2916POPC   C3B39321   2.923  28.886   7.173
 2916POPC   C4B39322   2.528  28.649   7.155
 2917POPC   NC339323  16.528  18.240   5.457
 2917POPC   PO439324  16.875  18.754   5.427
 2917POPC   GL139325  16.863  18.464   5.791
 2917POPC   GL239326  17.159  18.242   5.882
 2917POPC   C1A39327  16.537  18.448   6.117
 2917POPC   D2A39328  16.416  18.240   6.522
 2917POPC   C3A39329  16.498  18.498   6.858
 2917POPC   C4A39330  16.808  18.407   7.149
 2917POPC   C1B39331  17.123  18.480   6.242
 2917POPC   C2B39332  16.933  18.366   6.607
 2917POPC   C3B39333  17.142  18.113   6.933
 2917POPC   C4B39334  17.166  18.073   7.378
 2918POPC   NC339335  30.166  18.904   5.405
 2918POPC   PO439336  29.735  19.346   5.208
 2918POPC   GL139337  30.120  19.358   5.662
 2918POPC   GL239338  30.198  19.023   5.875
 2918POPC   C1A39339  30.071  19.374   6.201
 2918POPC   D2A39340  29.768  19.236   6.565
 2918POPC   C3A39341  29.924  19.241   7.007
 2918POPC   C4A39342  29.811  19.227   7.462
 2918POPC   C1B39343  30.039  18.868   6.270
 2918POPC   C2B39344  29.897  18.743   6.679
 2918POPC   C3B39345  29.785  18.773   7.119
 2918POPC   C4B39346  30.163  18.884   7.304
 2919POPC   NC339347  18.925  38.161   5.280
 2919POPC   PO439348  19.326  38.622   5.514
 2919POPC   GL139349  19.107  38.437   5.853
 2919POPC   GL239350  18.772  38.360   5.745
 2919POPC   C1A39351  18.888  38.671   6.186
 2919POPC   D2A39352  18.870  38.820   6.601
 2919POPC   C3A39353  19.185  38.651   6.880
 2919POPC   C4A39354  19.228  38.319   7.117
 2919POPC   C1B39355  18.787  38.162   6.167
 2919POPC   C2B39356  18.949  38.299   6.570
 2919POPC   C3B39357  18.736  38.388   6.961
 2919POPC   C4B39358  18.777  38.133   7.317
 2920POPC   NC339359  19.249  26.461   5.477
 2920POPC   PO439360  18.864  27.016   5.433
 2920POPC   GL139361  18.992  26.810   5.777
 2920POPC   GL239362  18.809  26.499   5.700
 2920POPC   C1A39363  19.236  26.835   6.160
 2920POPC   D2A39364  19.352  26.684   6.599
 2920POPC   C3A39365  19.277  26.926   6.973
 2920POPC   C4A39366  19.016  26.994   7.364
 2920POPC   C1B39367  18.910  26.432   6.126
 2920POPC   C2B39368  18.703  26.525   6.508
 2920POPC   C3B39369  18.869  26.617   6.885
 2920POPC   C4B39370  18.754  26.429   7.239
 2921POPC   NC339371   0.621  14.609   5.462
 2921POPC   PO439372  44.965  14.515   5.265
 2921POPC   GL139373   0.178  14.424   5.634
 2921POPC   GL239374   0.418  14.162   5.629
 2921POPC   C1A39375   0.189  14.505   6.091
 2921POPC   D2A39376   0.200  14.417   6.545
 2921POPC   C3A39377   0.406  14.659   6.871
 2921POPC   C4A39378   0.463  14.546   7.306
 2921POPC   C1B39379   0.629  14.223   6.047
 2921POPC   C2B39380   0.563  14.004   6.421
 2921POPC   C3B39381   0.617  13.832   6.806
 2921POPC   C4B39382   0.593  14.089   7.164
 2922POPC   NC339383  43.960  29.113   5.376
 2922POPC   PO439384  43.465  28.741   5.305
 2922POPC   GL139385  43.876  28.742   5.710
 2922POPC   GL239386  44.043  29.062   5.866
 2922POPC   C1A39387  43.909  28.718   6.203
 2922POPC   D2A39388  44.035  28.991   6.547
 2922POPC   C3A39389  43.761  28.959   6.901
 2922POPC   C4A39390  44.050  28.931   7.181
 2922POPC   C1B39391  43.944  29.373   6.208
 2922POPC   C2B39392  44.209  29.521   6.572
 2922POPC   C3B39393  44.069  29.382   6.959
 2922POPC   C4B39394  43.717  29.413   7.227
 2923POPC   NC339395  42.793  43.759   5.172
 2923POPC   PO439396  43.394  43.965   5.393
 2923POPC   GL139397  43.141  44.042   5.708
 2923POPC   GL239398  42.978  43.720   5.804
 2923POPC   C1A39399  43.088  44.164   6.154
 2923POPC   D2A39400  43.189  43.991   6.566
 2923POPC   C3A39401  43.361  44.258   6.891
 2923POPC   C4A39402  43.060  44.293   7.197
 2923POPC   C1B39403  43.214  43.604   6.209
 2923POPC   C2B39404  43.226  43.474   6.667
 2923POPC   C3B39405  43.154  43.680   7.067
 2923POPC   C4B39406  43.101  43.539   7.501
 2924POPC   NC339407  31.918  20.741   5.449
 2924POPC   PO439408  32.497  20.596   5.117
 2924POPC   GL139409  32.411  20.570   5.631
 2924POPC   GL239410  32.083  20.480   5.875
 2924POPC   C1A39411  32.476  20.712   6.101
 2924POPC   D2A39412  32.621  20.871   6.537
 2924POPC   C3A39413  32.298  20.794   6.875
 2924POPC   C4A39414  32.304  20.671   7.297
 2924POPC   C1B39415  31.846  20.223   6.238
 2924POPC   C2B39416  31.767  20.189   6.710
 2924POPC   C3B39417  31.908  20.396   7.115
 2924POPC   C4B39418  31.954  20.378   7.577
 2925POPC   NC339419  19.147  18.738   5.425
 2925POPC   PO439420  19.060  19.426   5.515
 2925POPC   GL139421  19.045  19.097   5.791
 2925POPC   GL239422  18.753  18.899   5.732
 2925POPC   C1A39423  19.129  19.038   6.218
 2925POPC   D2A39424  19.035  19.126   6.627
 2925POPC   C3A39425  19.224  18.986   7.013
 2925POPC   C4A39426  19.183  19.128   7.464
 2925POPC   C1B39427  18.634  19.081   6.142
 2925POPC   C2B39428  18.573  18.930   6.568
 2925POPC   C3B39429  18.694  19.073   7.008
 2925POPC   C4B39430  18.701  18.928   7.440
 2926POPC   NC339431  41.223  32.802   5.324
 2926POPC   PO439432  41.089  33.306   5.694
 2926POPC   GL139433  41.475  33.120   5.856
 2926POPC   GL239434  41.731  32.851   5.749
 2926POPC   C1A39435  41.644  33.114   6.251
 2926POPC   D2A39436  41.773  33.293   6.641
 2926POPC   C3A39437  41.424  33.331   6.877
 2926POPC   C4A39438  41.365  33.210   7.289
 2926POPC   C1B39439  41.940  32.733   6.159
 2926POPC   C2B39440  41.848  32.790   6.605
 2926POPC   C3B39441  41.636  32.816   7.028
 2926POPC   C4B39442  41.805  32.758   7.472
 2927POPC   NC339443  27.439  41.545   5.202
 2927POPC   PO439444  28.018  41.883   5.374
 2927POPC   GL139445  27.684  41.688   5.648
 2927POPC   GL239446  27.624  41.325   5.715
 2927POPC   C1A39447  27.711  41.652   6.111
 2927POPC   D2A39448  27.804  41.892   6.477
 2927POPC   C3A39449  27.743  41.667   6.872
 2927POPC   C4A39450  27.844  41.827   7.265
 2927POPC   C1B39451  27.538  41.182   6.186
 2927POPC   C2B39452  27.491  41.239   6.663
 2927POPC   C3B39453  27.474  41.251   7.145
 2927POPC   C4B39454  27.569  41.332   7.625
 2928POPC   NC339455  43.722  35.775   5.357
 2928POPC   PO439456  44.287  35.338   5.465
 2928POPC   GL139457  43.946  35.369   5.835
 2928POPC   GL239458  43.596  35.540   5.787
 2928POPC   C1A39459  43.781  35.044   6.173
 2928POPC   D2A39460  43.594  34.900   6.618
 2928POPC   C3A39461  43.850  35.024   7.011
 2928POPC   C4A39462  44.142  35.367   7.118
 2928POPC   C1B39463  43.447  35.437   6.192
 2928POPC   C2B39464  43.710  35.397   6.553
 2928POPC   C3B39465  43.560  35.414   6.940
 2928POPC   C4B39466  43.687  35.482   7.335
 2929POPC   NC339467  22.108  30.320   5.254
 2929POPC   PO439468  22.378  30.773   5.660
 2929POPC   GL139469  22.100  30.633   5.938
 2929POPC   GL239470  21.847  30.884   5.863
 2929POPC   C1A39471  22.293  30.534   6.340
 2929POPC   D2A39472  22.631  30.415   6.630
 2929POPC   C3A39473  22.414  30.532   6.988
 2929POPC   C4A39474  22.027  30.541   7.173
 2929POPC   C1B39475  22.007  30.988   6.290
 2929POPC   C2B39476  21.998  30.828   6.721
 2929POPC   C3B39477  21.999  31.038   7.116
 2929POPC   C4B39478  22.389  30.983   7.258
 2930POPC   NC339479  38.731  32.842   5.514
 2930POPC   PO439480  38.248  33.212   5.248
 2930POPC   GL139481  38.400  33.196   5.714
 2930POPC   GL239482  38.625  33.468   5.786
 2930POPC   C1A39483  38.519  33.008   6.140
 2930POPC   D2A39484  38.301  32.874   6.523
 2930POPC   C3A39485  38.559  32.905   6.895
 2930POPC   C4A39486  38.653  32.953   7.336
 2930POPC   C1B39487  38.391  33.499   6.156
 2930POPC   C2B39488  38.533  33.339   6.559
 2930POPC   C3B39489  38.449  33.507   6.962
 2930POPC   C4B39490  38.350  33.388   7.363
 2931POPC   NC339491  12.441  37.242   5.572
 2931POPC   PO439492  12.998  37.552   5.251
 2931POPC   GL139493  12.968  37.749   5.695
 2931POPC   GL239494  12.624  37.792   5.766
 2931POPC   C1A39495  12.973  37.610   6.148
 2931POPC   D2A39496  13.062  37.797   6.545
 2931POPC   C3A39497  12.905  37.623   6.927
 2931POPC   C4A39498  13.071  37.707   7.307
 2931POPC   C1B39499  12.474  37.627   6.180
 2931POPC   C2B39500  12.640  37.408   6.558
 2931POPC   C3B39501  12.515  37.269   6.976
 2931POPC   C4B39502  12.595  37.466   7.375
 2932POPC   NC339503   7.924  24.696   5.359
 2932POPC   PO439504   8.401  24.211   5.196
 2932POPC   GL139505   8.379  24.542   5.583
 2932POPC   GL239506   8.725  24.494   5.691
 2932POPC   C1A39507   8.146  24.729   6.016
 2932POPC   D2A39508   8.174  24.914   6.474
 2932POPC   C3A39509   8.017  24.638   6.839
 2932POPC   C4A39510   7.825  24.621   7.275
 2932POPC   C1B39511   8.463  24.342   6.054
 2932POPC   C2B39512   8.438  24.466   6.471
 2932POPC   C3B39513   8.433  24.304   6.849
 2932POPC   C4B39514   8.265  24.367   7.225
 2933POPC   NC339515  13.077  33.448   5.536
 2933POPC   PO439516  13.522  32.938   5.536
 2933POPC   GL139517  13.731  33.035   5.882
 2933POPC   GL239518  13.722  33.380   5.857
 2933POPC   C1A39519  13.653  32.903   6.294
 2933POPC   D2A39520  13.731  33.089   6.698
 2933POPC   C3A39521  13.900  32.829   7.022
 2933POPC   C4A39522  13.805  32.940   7.419
 2933POPC   C1B39523  13.501  33.413   6.265
 2933POPC   C2B39524  13.247  33.105   6.528
 2933POPC   C3B39525  13.279  33.095   6.952
 2933POPC   C4B39526  13.302  33.048   7.381
 2934POPC   NC339527  43.070  34.243   5.326
 2934POPC   PO439528  43.378  34.923   5.428
 2934POPC   GL139529  43.031  34.671   5.643
 2934POPC   GL239530  43.216  34.419   5.795
 2934POPC   C1A39531  42.852  34.654   6.084
 2934POPC   D2A39532  43.105  34.645   6.478
 2934POPC   C3A39533  42.926  34.580   6.888
 2934POPC   C4A39534  42.989  34.759   7.307
 2934POPC   C1B39535  43.122  34.183   6.175
 2934POPC   C2B39536  43.064  34.133   6.633
 2934POPC   C3B39537  43.187  34.197   7.122
 2934POPC   C4B39538  43.457  34.088   7.527
 2935POPC   NC339539  22.152  10.686   5.092
 2935POPC   PO439540  22.044  11.286   5.319
 2935POPC   GL139541  21.995  11.219   5.735
 2935POPC   GL239542  21.775  11.520   5.813
 2935POPC   C1A39543  21.945  11.243   6.177
 2935POPC   D2A39544  21.989  11.058   6.518
 2935POPC   C3A39545  22.051  11.263   6.901
 2935POPC   C4A39546  22.128  11.143   7.300
 2935POPC   C1B39547  21.576  11.634   6.176
 2935POPC   C2B39548  21.721  11.507   6.576
 2935POPC   C3B39549  21.751  11.676   6.977
 2935POPC   C4B39550  21.937  11.608   7.381
 2936POPC   NC339551  21.436  10.442   5.261
 2936POPC   PO439552  20.976  10.187   5.566
 2936POPC   GL139553  21.144  10.368   5.891
 2936POPC   GL239554  21.378  10.595   5.750
 2936POPC   C1A39555  21.159  10.322   6.334
 2936POPC   D2A39556  21.357  10.511   6.659
 2936POPC   C3A39557  21.155  10.474   7.039
 2936POPC   C4A39558  21.130  10.802   7.341
 2936POPC   C1B39559  21.636  10.464   6.111
 2936POPC   C2B39560  21.840  10.569   6.507
 2936POPC   C3B39561  21.799  10.407   6.922
 2936POPC   C4B39562  21.584  10.454   7.323
 2937POPC   NC339563   9.196  11.668   5.510
 2937POPC   PO439564   8.888  11.085   5.295
 2937POPC   GL139565   9.094  11.202   5.659
 2937POPC   GL239566   8.815  11.395   5.751
 2937POPC   C1A39567   9.129  11.183   6.109
 2937POPC   D2A39568   8.892  11.179   6.506
 2937POPC   C3A39569   9.161  11.075   6.856
 2937POPC   C4A39570   9.229  11.182   7.275
 2937POPC   C1B39571   8.767  11.579   6.161
 2937POPC   C2B39572   8.977  11.701   6.551
 2937POPC   C3B39573   8.975  11.536   6.975
 2937POPC   C4B39574   8.721  11.154   7.143
 2938POPC   NC339575  15.192  34.918   5.513
 2938POPC   PO439576  15.148  35.530   5.327
 2938POPC   GL139577  15.104  35.341   5.808
 2938POPC   GL239578  14.965  34.996   5.948
 2938POPC   C1A39579  15.082  35.306   6.301
 2938POPC   D2A39580  15.259  35.361   6.659
 2938POPC   C3A39581  15.121  35.385   7.077
 2938POPC   C4A39582  15.397  35.514   7.386
 2938POPC   C1B39583  15.360  34.894   6.161
 2938POPC   C2B39584  15.539  34.958   6.585
 2938POPC   C3B39585  15.294  34.911   6.975
 2938POPC   C4B39586  14.828  34.972   7.110
 2939POPC   NC339587  37.117  13.186   5.360
 2939POPC   PO439588  36.522  12.829   5.399
 2939POPC   GL139589  36.779  12.835   5.744
 2939POPC   GL239590  37.012  12.547   5.718
 2939POPC   C1A39591  36.701  12.706   6.155
 2939POPC   D2A39592  36.793  12.871   6.536
 2939POPC   C3A39593  36.634  12.724   6.922
 2939POPC   C4A39594  36.788  12.891   7.324
 2939POPC   C1B39595  37.211  12.652   6.121
 2939POPC   C2B39596  37.202  12.546   6.573
 2939POPC   C3B39597  37.141  12.828   6.951
 2939POPC   C4B39598  37.242  13.166   7.263
 2940POPC   NC339599  27.854   2.823   5.589
 2940POPC   PO439600  27.443   2.478   5.145
 2940POPC   GL139601  27.504   2.497   5.712
 2940POPC   GL239602  27.444   2.821   5.948
 2940POPC   C1A39603  27.424   2.411   6.198
 2940POPC   D2A39604  27.433   2.739   6.526
 2940POPC   C3A39605  27.487   2.734   6.980
 2940POPC   C4A39606  27.673   2.451   7.287
 2940POPC   C1B39607  27.774   3.002   6.269
 2940POPC   C2B39608  27.890   2.970   6.721
 2940POPC   C3B39609  27.851   3.214   7.108
 2940POPC   C4B39610  27.932   3.279   7.564
 2941POPC   NC339611   8.206  12.270   5.501
 2941POPC   PO439612   8.153  11.675   5.190
 2941POPC   GL139613   8.171  11.801   5.681
 2941POPC   GL239614   7.858  11.625   5.786
 2941POPC   C1A39615   8.186  12.100   6.118
 2941POPC   D2A39616   8.338  12.295   6.522
 2941POPC   C3A39617   8.251  12.089   6.920
 2941POPC   C4A39618   8.080  12.069   7.313
 2941POPC   C1B39619   7.754  11.835   6.181
 2941POPC   C2B39620   7.955  11.863   6.577
 2941POPC   C3B39621   7.934  11.650   7.014
 2941POPC   C4B39622   7.823  11.685   7.496
 2942POPC   NC339623  32.656  22.803   5.537
 2942POPC   PO439624  32.112  22.798   5.223
 2942POPC   GL139625  32.127  22.881   5.707
 2942POPC   GL239626  31.959  22.588   5.758
 2942POPC   C1A39627  32.296  22.897   6.191
 2942POPC   D2A39628  32.198  23.161   6.606
 2942POPC   C3A39629  32.166  23.013   7.063
 2942POPC   C4A39630  32.532  22.906   7.341
 2942POPC   C1B39631  31.872  22.629   6.179
 2942POPC   C2B39632  31.829  22.791   6.586
 2942POPC   C3B39633  31.870  22.577   6.997
 2942POPC   C4B39634  32.171  22.555   7.351
 2943POPC   NC339635   1.949  26.785   5.306
 2943POPC   PO439636   2.553  27.102   5.377
 2943POPC   GL139637   2.271  26.895   5.698
 2943POPC   GL239638   2.051  26.569   5.768
 2943POPC   C1A39639   2.007  26.999   6.065
 2943POPC   D2A39640   1.932  27.094   6.508
 2943POPC   C3A39641   1.964  26.807   6.876
 2943POPC   C4A39642   2.004  26.908   7.311
 2943POPC   C1B39643   1.766  26.553   6.175
 2943POPC   C2B39644   1.791  26.372   6.599
 2943POPC   C3B39645   1.600  26.399   7.023
 2943POPC   C4B39646   1.554  26.472   7.477
 2944POPC   NC339647  31.481  38.893   5.523
 2944POPC   PO439648  31.342  38.242   5.328
 2944POPC   GL139649  31.454  38.414   5.710
 2944POPC   GL239650  31.120  38.383   5.811
 2944POPC   C1A39651  31.766  38.576   6.022
 2944POPC   D2A39652  31.850  38.573   6.453
 2944POPC   C3A39653  31.575  38.682   6.788
 2944POPC   C4A39654  31.577  38.607   7.219
 2944POPC   C1B39655  31.288  38.519   6.192
 2944POPC   C2B39656  31.117  38.553   6.576
 2944POPC   C3B39657  31.149  38.452   7.002
 2944POPC   C4B39658  31.081  38.772   7.297
 2945POPC   NC339659  23.378  13.987   5.548
 2945POPC   PO439660  23.303  13.283   5.623
 2945POPC   GL139661  23.688  13.386   5.822
 2945POPC   GL239662  23.718  13.739   5.851
 2945POPC   C1A39663  23.745  13.434   6.256
 2945POPC   D2A39664  23.668  13.675   6.576
 2945POPC   C3A39665  23.486  13.601   6.963
 2945POPC   C4A39666  23.617  13.708   7.390
 2945POPC   C1B39667  24.016  13.863   6.180
 2945POPC   C2B39668  24.017  14.033   6.596
 2945POPC   C3B39669  23.929  13.890   7.007
 2945POPC   C4B39670  24.139  13.883   7.423
 2946POPC   NC339671  13.703  16.346   5.528
 2946POPC   PO439672  13.294  16.881   5.297
 2946POPC   GL139673  13.510  16.841   5.751
 2946POPC   GL239674  13.857  16.748   5.790
 2946POPC   C1A39675  13.587  16.768   6.216
 2946POPC   D2A39676  13.571  16.486   6.551
 2946POPC   C3A39677  13.414  16.649   6.920
 2946POPC   C4A39678  13.266  16.375   7.244
 2946POPC   C1B39679  14.112  16.791   6.118
 2946POPC   C2B39680  14.022  16.738   6.513
 2946POPC   C3B39681  14.075  16.890   6.895
 2946POPC   C4B39682  13.857  16.702   7.244
 2947POPC   NC339683  35.392  35.768   5.526
 2947POPC   PO439684  35.053  36.301   5.475
 2947POPC   GL139685  35.159  36.103   5.848
 2947POPC   GL239686  35.323  36.419   5.947
 2947POPC   C1A39687  35.435  35.917   6.167
 2947POPC   D2A39688  35.390  36.082   6.555
 2947POPC   C3A39689  35.257  35.867   6.914
 2947POPC   C4A39690  35.421  36.038   7.265
 2947POPC   C1B39691  35.697  36.344   6.218
 2947POPC   C2B39692  35.855  36.246   6.660
 2947POPC   C3B39693  35.693  36.423   7.060
 2947POPC   C4B39694  35.570  36.461   7.534
 2948POPC   NC339695  36.671  29.113   5.392
 2948POPC   PO439696  36.976  29.784   5.308
 2948POPC   GL139697  37.038  29.437   5.590
 2948POPC   GL239698  36.752  29.493   5.793
 2948POPC   C1A39699  37.098  29.195   6.000
 2948POPC   D2A39700  36.850  29.126   6.419
 2948POPC   C3A39701  37.015  29.144   6.880
 2948POPC   C4A39702  36.979  29.006   7.322
 2948POPC   C1B39703  36.967  29.649   6.194
 2948POPC   C2B39704  36.914  29.595   6.630
 2948POPC   C3B39705  36.564  29.435   6.828
 2948POPC   C4B39706  36.620  29.347   7.231
 2949POPC   NC339707   0.276  33.424   5.373
 2949POPC   PO439708   0.581  32.830   5.497
 2949POPC   GL139709   0.696  33.078   5.851
 2949POPC   GL239710   0.492  33.395   5.854
 2949POPC   C1A39711   0.622  33.113   6.295
 2949POPC   D2A39712   0.243  33.009   6.528
 2949POPC   C3A39713   0.423  32.966   6.908
 2949POPC   C4A39714   0.194  32.935   7.243
 2949POPC   C1B39715   0.215  33.438   6.235
 2949POPC   C2B39716   0.392  33.482   6.661
 2949POPC   C3B39717   0.404  33.418   7.114
 2949POPC   C4B39718   0.755  33.154   7.276
 2950POPC   NC339719  23.646   7.685   5.284
 2950POPC   PO439720  24.153   7.255   5.397
 2950POPC   GL139721  23.950   7.454   5.729
 2950POPC   GL239722  23.596   7.333   5.721
 2950POPC   C1A39723  23.882   7.260   6.138
 2950POPC   D2A39724  23.773   7.412   6.546
 2950POPC   C3A39725  23.795   7.212   6.952
 2950POPC   C4A39726  23.511   7.275   7.272
 2950POPC   C1B39727  23.424   7.512   6.113
 2950POPC   C2B39728  23.326   7.670   6.518
 2950POPC   C3B39729  23.486   7.668   6.922
 2950POPC   C4B39730  23.500   7.949   7.278
 2951POPC   NC339731  37.263  24.701   5.462
 2951POPC   PO439732  36.836  24.152   5.454
 2951POPC   GL139733  36.957  24.281   5.883
 2951POPC   GL239734  37.162  24.588   5.947
 2951POPC   C1A39735  37.108  24.177   6.290
 2951POPC   D2A39736  37.053  24.439   6.645
 2951POPC   C3A39737  37.044  24.359   7.077
 2951POPC   C4A39738  36.678  24.254   7.342
 2951POPC   C1B39739  36.804  24.688   6.236
 2951POPC   C2B39740  36.596  24.679   6.660
 2951POPC   C3B39741  36.647  24.690   7.112
 2951POPC   C4B39742  36.954  24.652   7.513
 2952POPC   NC339743  32.086  35.537   5.330
 2952POPC   PO439744  32.072  34.934   5.692
 2952POPC   GL139745  32.203  35.331   5.868
 2952POPC   GL239746  32.529  35.399   5.726
 2952POPC   C1A39747  32.119  35.431   6.304
 2952POPC   D2A39748  32.092  35.729   6.633
 2952POPC   C3A39749  32.066  35.479   6.969
 2952POPC   C4A39750  32.181  35.265   7.334
 2952POPC   C1B39751  32.595  35.574   6.142
 2952POPC   C2B39752  32.555  35.473   6.577
 2952POPC   C3B39753  32.579  35.394   7.017
 2952POPC   C4B39754  32.567  35.590   7.431
 2953POPC   NC339755  43.518  32.230   5.345
 2953POPC   PO439756  44.147  32.004   5.511
 2953POPC   GL139757  43.859  32.207   5.789
 2953POPC   GL239758  43.728  32.541   5.711
 2953POPC   C1A39759  43.775  32.129   6.216
 2953POPC   D2A39760  43.810  32.276   6.618
 2953POPC   C3A39761  44.011  32.141   6.990
 2953POPC   C4A39762  44.339  32.324   7.239
 2953POPC   C1B39763  43.594  32.751   6.077
 2953POPC   C2B39764  43.623  32.759   6.521
 2953POPC   C3B39765  43.562  32.567   6.931
 2953POPC   C4B39766  43.804  32.486   7.303
 2954POPC   NC339767  26.976  11.268   4.902
 2954POPC   PO439768  27.156  11.201   5.569
 2954POPC   GL139769  26.970  11.274   5.955
 2954POPC   GL239770  26.782  10.964   5.968
 2954POPC   C1A39771  27.028  11.523   6.350
 2954POPC   D2A39772  27.248  11.804   6.702
 2954POPC   C3A39773  27.129  11.697   7.135
 2954POPC   C4A39774  26.926  11.320   7.228
 2954POPC   C1B39775  26.897  11.015   6.387
 2954POPC   C2B39776  26.681  11.195   6.713
 2954POPC   C3B39777  26.526  11.052   7.091
 2954POPC   C4B39778  26.459  11.291   7.439
 2955POPC   NC339779  41.955   4.371   5.052
 2955POPC   PO439780  41.371   4.318   5.326
 2955POPC   GL139781  41.338   4.431   5.779
 2955POPC   GL239782  41.460   4.760   5.908
 2955POPC   C1A39783  41.236   4.469   6.240
 2955POPC   D2A39784  41.519   4.458   6.601
 2955POPC   C3A39785  41.395   4.364   7.041
 2955POPC   C4A39786  41.220   4.062   7.331
 2955POPC   C1B39787  41.765   4.456   6.116
 2955POPC   C2B39788  42.036   4.387   6.458
 2955POPC   C3B39789  41.920   4.283   6.873
 2955POPC   C4B39790  41.863   4.266   7.306
 2956POPC   NC339791  22.684  14.250   5.273
 2956POPC   PO439792  23.274  14.433   5.393
 2956POPC   GL139793  23.014  14.301   5.744
 2956POPC   GL239794  22.676  14.204   5.810
 2956POPC   C1A39795  23.080  14.179   6.156
 2956POPC   D2A39796  23.052  14.432   6.519
 2956POPC   C3A39797  22.952  14.202   6.868
 2956POPC   C4A39798  23.026  14.365   7.256
 2956POPC   C1B39799  22.602  14.337   6.273
 2956POPC   C2B39800  22.524  14.465   6.718
 2956POPC   C3B39801  22.662  14.669   7.119
 2956POPC   C4B39802  22.648  14.571   7.593
 2957POPC   NC339803  12.878  24.715   5.012
 2957POPC   PO439804  12.764  24.882   5.623
 2957POPC   GL139805  12.886  24.623   5.962
 2957POPC   GL239806  12.936  24.258   5.907
 2957POPC   C1A39807  12.771  24.422   6.358
 2957POPC   D2A39808  12.576  24.570   6.721
 2957POPC   C3A39809  12.878  24.553   7.084
 2957POPC   C4A39810  12.789  24.448   7.531
 2957POPC   C1B39811  13.094  24.038   6.315
 2957POPC   C2B39812  13.094  24.003   6.787
 2957POPC   C3B39813  12.992  24.094   7.237
 2957POPC   C4B39814  13.154  24.041   7.672
 2958POPC   NC339815  40.232  38.025   5.475
 2958POPC   PO439816  39.775  38.510   5.334
 2958POPC   GL139817  39.958  38.397   5.747
 2958POPC   GL239818  40.268  38.595   5.816
 2958POPC   C1A39819  40.031  38.356   6.205
 2958POPC   D2A39820  39.864  38.404   6.620
 2958POPC   C3A39821  40.110  38.340   7.002
 2958POPC   C4A39822  40.034  38.418   7.447
 2958POPC   C1B39823  40.255  38.838   6.231
 2958POPC   C2B39824  40.193  38.906   6.692
 2958POPC   C3B39825  40.279  38.809   7.153
 2958POPC   C4B39826  40.293  38.869   7.621
 2959POPC   NC339827  44.527  33.347   5.331
 2959POPC   PO439828  44.828  32.706   5.437
 2959POPC   GL139829  44.636  32.800   5.815
 2959POPC   GL239830  44.458  33.140   5.803
 2959POPC   C1A39831  44.830  32.922   6.193
 2959POPC   D2A39832  44.599  32.888   6.543
 2959POPC   C3A39833  44.826  32.898   6.897
 2959POPC   C4A39834  44.705  32.698   7.258
 2959POPC   C1B39835  44.466  33.293   6.235
 2959POPC   C2B39836  44.805  33.356   6.574
 2959POPC   C3B39837  44.699  33.403   6.992
 2959POPC   C4B39838  44.522  33.184   7.314
 2960POPC   NC339839  43.425  44.474   5.364
 2960POPC   PO439840  42.901  44.810   5.164
 2960POPC   GL139841  42.863  44.559   5.628
 2960POPC   GL239842  43.190  44.553   5.789
 2960POPC   C1A39843  42.875  44.679   6.137
 2960POPC   D2A39844  43.056  44.524   6.543
 2960POPC   C3A39845  42.984  44.741   6.930
 2960POPC   C4A39846  42.835  44.725   7.355
 2960POPC   C1B39847  43.423  44.561   6.174
 2960POPC   C2B39848  43.526  44.828   6.512
 2960POPC   C3B39849  43.474  44.959   6.923
 2960POPC   C4B39850  43.359  44.708   7.284
 2961POPC   NC339851  30.247  31.210   5.493
 2961POPC   PO439852  29.663  31.493   5.342
 2961POPC   GL139853  29.821  31.660   5.711
 2961POPC   GL239854  30.089  31.488   5.911
 2961POPC   C1A39855  29.617  31.631   6.098
 2961POPC   D2A39856  29.480  31.574   6.518
 2961POPC   C3A39857  29.815  31.656   6.784
 2961POPC   C4A39858  29.951  31.501   7.182
 2961POPC   C1B39859  30.002  31.391   6.358
 2961POPC   C2B39860  30.182  31.292   6.764
 2961POPC   C3B39861  30.432  31.389   7.138
 2961POPC   C4B39862  30.276  31.313   7.583
 2962POPC   NC339863  11.636  22.535   5.666
 2962POPC   PO439864  11.258  23.145   5.550
 2962POPC   GL139865  11.305  22.880   5.863
 2962POPC   GL239866  10.955  22.840   5.855
 2962POPC   C1A39867  11.359  22.710   6.281
 2962POPC   D2A39868  11.455  22.463   6.662
 2962POPC   C3A39869  11.462  22.803   6.970
 2962POPC   C4A39870  11.184  23.115   7.177
 2962POPC   C1B39871  10.837  22.755   6.275
 2962POPC   C2B39872  10.996  22.720   6.710
 2962POPC   C3B39873  10.806  22.751   7.120
 2962POPC   C4B39874  10.933  22.862   7.563
 2963POPC   NC339875   0.642  40.375   5.459
 2963POPC   PO439876   0.253  40.973   5.346
 2963POPC   GL139877   0.347  40.961   5.772
 2963POPC   GL239878   0.273  40.609   5.766
 2963POPC   C1A39879   0.395  40.898   6.231
 2963POPC   D2A39880   0.354  41.084   6.640
 2963POPC   C3A39881   0.434  40.945   7.072
 2963POPC   C4A39882  44.992  41.000   7.189
 2963POPC   C1B39883   0.158  40.457   6.177
 2963POPC   C2B39884   0.072  40.651   6.597
 2963POPC   C3B39885   0.137  40.536   7.026
 2963POPC   C4B39886   0.210  40.304   7.402
 2964POPC   NC339887  32.982  10.106   5.402
 2964POPC   PO439888  33.161  10.769   5.338
 2964POPC   GL139889  33.157  10.513   5.733
 2964POPC   GL239890  32.789  10.430   5.811
 2964POPC   C1A39891  33.255  10.571   6.195
 2964POPC   D2A39892  33.345  10.360   6.584
 2964POPC   C3A39893  33.359  10.613   6.932
 2964POPC   C4A39894  33.252  10.637   7.354
 2964POPC   C1B39895  32.836  10.308   6.271
 2964POPC   C2B39896  32.891  10.539   6.682
 2964POPC   C3B39897  32.828  10.696   7.107
 2964POPC   C4B39898  32.527  10.686   7.493
 2965POPC   NC339899  14.981  28.779   5.440
 2965POPC   PO439900  14.866  28.059   5.562
 2965POPC   GL139901  14.876  28.388   5.888
 2965POPC   GL239902  15.207  28.497   5.805
 2965POPC   C1A39903  14.841  28.465   6.353
 2965POPC   D2A39904  15.130  28.460   6.657
 2965POPC   C3A39905  15.273  28.140   6.817
 2965POPC   C4A39906  15.187  28.230   7.238
 2965POPC   C1B39907  15.382  28.417   6.211
 2965POPC   C2B39908  15.637  28.492   6.578
 2965POPC   C3B39909  15.474  28.761   6.909
 2965POPC   C4B39910  15.381  28.715   7.331
 2966POPC   NC339911  41.980  25.136   5.424
 2966POPC   PO439912  42.507  25.445   5.463
 2966POPC   GL139913  42.253  25.396   5.782
 2966POPC   GL239914  42.335  25.052   5.810
 2966POPC   C1A39915  42.188  25.374   6.210
 2966POPC   D2A39916  42.315  25.224   6.601
 2966POPC   C3A39917  42.120  25.432   6.934
 2966POPC   C4A39918  42.029  25.603   7.320
 2966POPC   C1B39919  42.362  24.853   6.215
 2966POPC   C2B39920  42.488  24.724   6.640
 2966POPC   C3B39921  42.314  24.924   7.030
 2966POPC   C4B39922  42.432  25.248   7.276
 2967POPC   NC339923  23.202  42.517   5.367
 2967POPC   PO439924  22.603  42.305   5.366
 2967POPC   GL139925  22.828  42.497   5.778
 2967POPC   GL239926  23.228  42.511   5.860
 2967POPC   C1A39927  22.631  42.429   6.199
 2967POPC   D2A39928  22.521  42.193   6.583
 2967POPC   C3A39929  22.660  42.405   6.956
 2967POPC   C4A39930  23.065  42.567   7.094
 2967POPC   C1B39931  23.145  42.261   6.199
 2967POPC   C2B39932  23.041  42.324   6.610
 2967POPC   C3B39933  23.205  42.100   6.959
 2967POPC   C4B39934  23.105  41.928   7.340
 2968POPC   NC339935  36.092   6.224   5.380
 2968POPC   PO439936  36.403   5.601   5.362
 2968POPC   GL139937  36.087   5.798   5.700
 2968POPC   GL239938  35.971   6.134   5.843
 2968POPC   C1A39939  36.058   5.787   6.182
 2968POPC   D2A39940  36.106   5.996   6.592
 2968POPC   C3A39941  36.249   5.753   6.929
 2968POPC   C4A39942  36.075   5.713   7.308
 2968POPC   C1B39943  35.766   6.232   6.229
 2968POPC   C2B39944  35.613   6.058   6.631
 2968POPC   C3B39945  35.855   6.110   7.048
 2968POPC   C4B39946  35.814   6.083   7.546
 2969POPC   NC339947  21.180   7.964   5.481
 2969POPC   PO439948  21.620   8.395   5.229
 2969POPC   GL139949  21.511   8.390   5.688
 2969POPC   GL239950  21.174   8.518   5.821
 2969POPC   C1A39951  21.565   8.318   6.141
 2969POPC   D2A39952  21.640   7.952   6.419
 2969POPC   C3A39953  21.701   8.048   6.856
 2969POPC   C4A39954  21.536   8.295   7.221
 2969POPC   C1B39955  21.050   8.175   6.131
 2969POPC   C2B39956  21.154   8.055   6.565
 2969POPC   C3B39957  21.101   8.276   6.941
 2969POPC   C4B39958  21.008   8.280   7.370
 2970POPC   NC339959  27.373  26.481   5.439
 2970POPC   PO439960  27.940  26.116   5.442
 2970POPC   GL139961  27.740  26.376   5.797
 2970POPC   GL239962  27.952  26.614   5.897
 2970POPC   C1A39963  27.623  26.453   6.280
 2970POPC   D2A39964  27.454  26.504   6.756
 2970POPC   C3A39965  27.335  26.203   7.142
 2970POPC   C4A39966  27.217  25.947   7.533
 2970POPC   C1B39967  28.141  26.464   6.256
 2970POPC   C2B39968  28.065  26.312   6.682
 2970POPC   C3B39969  27.830  26.331   7.076
 2970POPC   C4B39970  27.719  26.324   7.525
 2971POPC   NC339971   4.395  32.949   5.414
 2971POPC   PO439972   3.955  33.499   5.448
 2971POPC   GL139973   4.091  33.213   5.760
 2971POPC   GL239974   4.426  33.352   5.870
 2971POPC   C1A39975   4.141  33.088   6.183
 2971POPC   D2A39976   4.303  33.265   6.546
 2971POPC   C3A39977   4.198  33.075   6.941
 2971POPC   C4A39978   4.134  33.139   7.372
 2971POPC   C1B39979   4.621  32.972   6.088
 2971POPC   C2B39980   4.633  32.834   6.532
 2971POPC   C3B39981   4.711  32.949   6.958
 2971POPC   C4B39982   4.539  32.841   7.364
 2972POPC   NC339983   4.856  24.784   5.414
 2972POPC   PO439984   4.245  24.612   5.571
 2972POPC   GL139985   4.486  24.514   5.888
 2972POPC   GL239986   4.683  24.809   5.880
 2972POPC   C1A39987   4.292  24.404   6.267
 2972POPC   D2A39988   4.074  24.555   6.594
 2972POPC   C3A39989   4.139  24.344   6.973
 2972POPC   C4A39990   4.105  24.722   7.158
 2972POPC   C1B39991   4.718  24.667   6.294
 2972POPC   C2B39992   4.602  24.489   6.678
 2972POPC   C3B39993   4.603  24.595   7.090
 2972POPC   C4B39994   4.751  24.241   7.247
 2973POPC   NC339995  33.448  37.252   5.462
 2973POPC   PO439996  33.731  36.737   5.390
 2973POPC   GL139997  33.802  36.981   5.782
 2973POPC   GL239998  34.116  37.225   5.795
 2973POPC   C1A39999  33.808  36.762   6.193
 2973POPC   D2A40000  33.554  36.536   6.521
 2973POPC   C3A40001  33.653  36.670   6.932
 2973POPC   C4A40002  33.521  37.011   7.146
 2973POPC   C1B40003  33.935  37.270   6.189
 2973POPC   C2B40004  33.779  37.095   6.597
 2973POPC   C3B40005  33.982  37.095   6.992
 2973POPC   C4B40006  33.912  37.328   7.351
 2974POPC   NC340007  35.585  32.755   5.401
 2974POPC   PO440008  35.084  33.183   5.482
 2974POPC   GL140009  35.219  32.870   5.742
 2974POPC   GL240010  35.526  33.019   5.838
 2974POPC   C1A40011  35.218  32.717   6.147
 2974POPC   D2A40012  35.168  32.900   6.541
 2974POPC   C3A40013  35.418  33.093   6.867
 2974POPC   C4A40014  35.345  32.897   7.273
 2974POPC   C1B40015  35.795  33.281   6.092
 2974POPC   C2B40016  35.928  33.221   6.483
 2974POPC   C3B40017  35.922  33.306   6.887
 2974POPC   C4B40018  35.772  33.163   7.269
 2975POPC   NC340019  10.936  13.379   5.520
 2975POPC   PO440020  11.397  13.930   5.425
 2975POPC   GL140021  11.365  13.670   5.787
 2975POPC   GL240022  11.432  13.320   5.650
 2975POPC   C1A40023  11.351  13.906   6.204
 2975POPC   D2A40024  11.637  14.077   6.546
 2975POPC   C3A40025  11.506  13.923   6.954
 2975POPC   C4A40026  11.378  13.492   7.037
 2975POPC   C1B40027  11.271  13.172   6.078
 2975POPC   C2B40028  11.203  13.280   6.531
 2975POPC   C3B40029  10.966  13.173   6.892
 2975POPC   C4B40030  10.950  13.361   7.271
 2976POPC   NC340031  25.136   6.267   5.612
 2976POPC   PO440032  25.453   5.718   5.349
 2976POPC   GL140033  25.434   5.881   5.789
 2976POPC   GL240034  25.065   5.796   5.856
 2976POPC   C1A40035  25.336   5.951   6.248
 2976POPC   D2A40036  25.289   5.683   6.614
 2976POPC   C3A40037  25.178   5.979   6.863
 2976POPC   C4A40038  25.372   6.122   7.193
 2976POPC   C1B40039  24.927   5.580   6.269
 2976POPC   C2B40040  24.787   5.562   6.723
 2976POPC   C3B40041  24.964   5.608   7.147
 2976POPC   C4B40042  25.378   5.518   7.209
 2977POPC   NC340043  22.736   7.420   4.959
 2977POPC   PO440044  23.161   7.296   5.446
 2977POPC   GL140045  23.027   7.276   5.868
 2977POPC   GL240046  22.760   7.512   5.945
 2977POPC   C1A40047  23.070   7.208   6.334
 2977POPC   D2A40048  23.328   7.182   6.722
 2977POPC   C3A40049  23.081   7.100   7.089
 2977POPC   C4A40050  22.698   7.032   7.289
 2977POPC   C1B40051  22.839   7.677   6.364
 2977POPC   C2B40052  22.912   7.498   6.796
 2977POPC   C3B40053  23.089   7.596   7.224
 2977POPC   C4B40054  22.986   7.712   7.636
 2978POPC   NC340055   7.537  12.486   5.653
 2978POPC   PO440056   7.237  13.112   5.452
 2978POPC   GL140057   7.203  13.045   5.879
 2978POPC   GL240058   7.234  12.717   5.980
 2978POPC   C1A40059   7.514  13.056   6.235
 2978POPC   D2A40060   7.621  12.818   6.588
 2978POPC   C3A40061   7.534  13.003   6.968
 2978POPC   C4A40062   7.167  12.937   7.170
 2978POPC   C1B40063   7.046  12.478   6.300
 2978POPC   C2B40064   7.341  12.361   6.591
 2978POPC   C3B40065   7.406  12.508   6.983
 2978POPC   C4B40066   7.121  12.399   7.280
 2979POPC   NC340067  30.452  35.090   5.245
 2979POPC   PO440068  30.925  35.587   5.392
 2979POPC   GL140069  30.755  35.278   5.694
 2979POPC   GL240070  30.412  35.331   5.776
 2979POPC   C1A40071  30.693  35.124   6.136
 2979POPC   D2A40072  30.502  35.299   6.505
 2979POPC   C3A40073  30.759  35.254   6.858
 2979POPC   C4A40074  30.723  35.115   7.279
 2979POPC   C1B40075  30.288  35.627   6.125
 2979POPC   C2B40076  30.248  35.895   6.481
 2979POPC   C3B40077  30.223  35.854   6.927
 2979POPC   C4B40078  30.472  35.568   7.137
 2980POPC   NC340079  21.559  17.864   5.339
 2980POPC   PO440080  21.308  17.197   5.301
 2980POPC   GL140081  21.454  17.439   5.685
 2980POPC   GL240082  21.663  17.201   5.812
 2980POPC   C1A40083  21.451  17.626   6.141
 2980POPC   D2A40084  21.250  17.478   6.553
 2980POPC   C3A40085  21.430  17.589   6.939
 2980POPC   C4A40086  21.654  17.731   7.298
 2980POPC   C1B40087  21.354  17.132   6.151
 2980POPC   C2B40088  21.407  16.995   6.592
 2980POPC   C3B40089  21.161  17.085   6.971
 2980POPC   C4B40090  21.290  17.310   7.348
 2981POPC   NC340091  32.919  36.483   5.301
 2981POPC   PO440092  32.992  37.167   5.383
 2981POPC   GL140093  33.100  37.066   5.818
 2981POPC   GL240094  33.304  36.778   5.693
 2981POPC   C1A40095  33.031  37.049   6.307
 2981POPC   D2A40096  33.263  36.962   6.710
 2981POPC   C3A40097  33.014  36.928   7.104
 2981POPC   C4A40098  32.831  37.241   7.391
 2981POPC   C1B40099  33.230  36.615   6.108
 2981POPC   C2B40100  33.011  36.559   6.521
 2981POPC   C3B40101  33.178  36.463   6.934
 2981POPC   C4B40102  33.350  36.580   7.355
 2982POPC   NC340103  15.652   6.986   5.424
 2982POPC   PO440104  16.076   7.435   5.179
 2982POPC   GL140105  15.951   7.386   5.609
 2982POPC   GL240106  15.701   7.623   5.716
 2982POPC   C1A40107  16.029   7.358   6.057
 2982POPC   D2A40108  15.805   7.264   6.443
 2982POPC   C3A40109  15.941   7.267   6.884
 2982POPC   C4A40110  16.068   7.472   7.302
 2982POPC   C1B40111  15.598   7.623   6.142
 2982POPC   C2B40112  15.749   7.826   6.520
 2982POPC   C3B40113  15.752   7.732   6.948
 2982POPC   C4B40114  15.577   7.453   7.236
 2983POPC   NC340115  32.141  44.370   5.713
 2983POPC   PO440116  32.514  44.826   5.507
 2983POPC   GL140117  32.370  44.788   5.892
 2983POPC   GL240118  32.031  44.893   5.778
 2983POPC   C1A40119  32.421  44.622   6.294
 2983POPC   D2A40120  32.302  44.306   6.586
 2983POPC   C3A40121  32.287  44.510   6.973
 2983POPC   C4A40122  32.531  44.714   7.266
 2983POPC   C1B40123  32.061   0.034   6.201
 2983POPC   C2B40124  31.931  44.860   6.559
 2983POPC   C3B40125  31.949  44.901   6.974
 2983POPC   C4B40126  32.031  44.839   7.388
 2984POPC   NC340127  40.842   6.260   5.276
 2984POPC   PO440128  40.605   6.933   5.497
 2984POPC   GL140129  40.781   6.675   5.834
 2984POPC   GL240130  40.790   6.308   5.792
 2984POPC   C1A40131  40.764   6.804   6.275
 2984POPC   D2A40132  40.671   6.949   6.703
 2984POPC   C3A40133  40.658   6.678   7.070
 2984POPC   C4A40134  40.867   6.698   7.468
 2984POPC   C1B40135  41.038   6.384   6.196
 2984POPC   C2B40136  40.895   6.456   6.634
 2984POPC   C3B40137  40.876   6.205   7.028
 2984POPC   C4B40138  40.748   6.191   7.460
 2985POPC   NC340139  21.133  29.220   5.005
 2985POPC   PO440140  21.498  29.082   5.576
 2985POPC   GL140141  21.467  29.132   5.960
 2985POPC   GL240142  21.141  29.077   6.019
 2985POPC   C1A40143  21.589  29.148   6.383
 2985POPC   D2A40144  21.574  29.306   6.790
 2985POPC   C3A40145  21.433  29.225   7.207
 2985POPC   C4A40146  21.313  29.379   7.653
 2985POPC   C1B40147  21.220  28.790   6.315
 2985POPC   C2B40148  21.264  28.896   6.712
 2985POPC   C3B40149  21.066  28.848   7.059
 2985POPC   C4B40150  21.146  28.470   7.298
 2986POPC   NC340151  40.070  39.809   5.345
 2986POPC   PO440152  40.003  40.423   5.602
 2986POPC   GL140153  40.004  40.019   5.826
 2986POPC   GL240154  39.843  39.678   5.915
 2986POPC   C1A40155  39.874  40.055   6.247
 2986POPC   D2A40156  39.837  39.930   6.629
 2986POPC   C3A40157  39.785  40.250   6.914
 2986POPC   C4A40158  39.868  39.980   7.239
 2986POPC   C1B40159  40.209  39.634   6.201
 2986POPC   C2B40160  40.295  39.437   6.609
 2986POPC   C3B40161  40.226  39.645   7.010
 2986POPC   C4B40162  40.335  39.800   7.405
 2987POPC   NC340163  23.118  20.257   5.240
 2987POPC   PO440164  22.722  19.732   5.474
 2987POPC   GL140165  23.084  19.818   5.716
 2987POPC   GL240166  22.970  20.182   5.737
 2987POPC   C1A40167  23.201  19.747   6.174
 2987POPC   D2A40168  23.154  19.619   6.632
 2987POPC   C3A40169  22.805  19.706   6.949
 2987POPC   C4A40170  22.840  19.804   7.382
 2987POPC   C1B40171  22.749  19.986   6.084
 2987POPC   C2B40172  22.685  19.924   6.499
 2987POPC   C3B40173  22.647  20.221   6.845
 2987POPC   C4B40174  22.485  20.164   7.248
 2988POPC   NC340175   3.671   1.863   5.448
 2988POPC   PO440176   3.441   2.539   5.365
 2988POPC   GL140177   3.384   2.234   5.721
 2988POPC   GL240178   3.748   2.158   5.844
 2988POPC   C1A40179   3.390   1.977   6.128
 2988POPC   D2A40180   3.437   1.720   6.475
 2988POPC   C3A40181   3.495   1.798   6.884
 2988POPC   C4A40182   3.217   1.638   7.238
 2988POPC   C1B40183   3.885   1.896   6.200
 2988POPC   C2B40184   3.943   1.994   6.627
 2988POPC   C3B40185   3.779   2.264   6.914
 2988POPC   C4B40186   3.541   2.136   7.245
 2989POPC   NC340187  16.957   5.512   5.411
 2989POPC   PO440188  16.698   6.154   5.367
 2989POPC   GL140189  16.729   6.054   5.805
 2989POPC   GL240190  16.860   5.771   5.944
 2989POPC   C1A40191  16.722   6.240   6.191
 2989POPC   D2A40192  16.925   6.302   6.611
 2989POPC   C3A40193  16.835   6.079   7.024
 2989POPC   C4A40194  16.629   6.053   7.453
 2989POPC   C1B40195  16.805   5.810   6.421
 2989POPC   C2B40196  16.592   5.691   6.807
 2989POPC   C3B40197  16.746   5.614   7.232
 2989POPC   C4B40198  17.015   5.589   7.580
 2990POPC   NC340199  39.656  39.258   5.473
 2990POPC   PO440200  39.054  39.525   5.488
 2990POPC   GL140201  39.163  39.371   5.905
 2990POPC   GL240202  39.508  39.275   5.971
 2990POPC   C1A40203  38.972  39.408   6.322
 2990POPC   D2A40204  38.868  39.515   6.734
 2990POPC   C3A40205  39.119  39.493   7.073
 2990POPC   C4A40206  39.070  39.245   7.408
 2990POPC   C1B40207  39.301  39.010   6.283
 2990POPC   C2B40208  39.289  39.205   6.673
 2990POPC   C3B40209  39.459  39.125   7.036
 2990POPC   C4B40210  39.314  38.826   7.237
 2991POPC   NC340211  35.164  16.146   5.057
 2991POPC   PO440212  35.632  15.979   5.568
 2991POPC   GL140213  35.464  15.840   5.910
 2991POPC   GL240214  35.617  15.525   5.825
 2991POPC   C1A40215  35.087  15.921   6.168
 2991POPC   D2A40216  34.956  16.127   6.564
 2991POPC   C3A40217  35.130  16.016   6.958
 2991POPC   C4A40218  35.560  15.909   6.986
 2991POPC   C1B40219  35.448  15.474   6.251
 2991POPC   C2B40220  35.257  15.669   6.602
 2991POPC   C3B40221  35.174  15.516   7.019
 2991POPC   C4B40222  35.521  15.500   7.278
 2992POPC   NC340223   4.846  29.633   5.346
 2992POPC   PO440224   5.094  30.238   5.364
 2992POPC   GL140225   5.042  30.038   5.775
 2992POPC   GL240226   4.697  29.905   5.796
 2992POPC   C1A40227   4.995  29.980   6.231
 2992POPC   D2A40228   5.150  29.780   6.620
 2992POPC   C3A40229   5.056  29.975   7.000
 2992POPC   C4A40230   5.391  30.061   7.243
 2992POPC   C1B40231   4.582  29.674   6.174
 2992POPC   C2B40232   4.640  29.790   6.618
 2992POPC   C3B40233   4.681  29.622   7.041
 2992POPC   C4B40234   4.717  29.643   7.510
 2993POPC   NC340235   5.265   4.962   5.463
 2993POPC   PO440236   4.619   4.780   5.462
 2993POPC   GL140237   4.864   4.867   5.810
 2993POPC   GL240238   4.896   5.226   5.839
 2993POPC   C1A40239   4.931   4.770   6.248
 2993POPC   D2A40240   4.873   5.053   6.611
 2993POPC   C3A40241   4.721   4.816   6.927
 2993POPC   C4A40242   4.861   4.694   7.291
 2993POPC   C1B40243   5.168   5.212   6.208
 2993POPC   C2B40244   5.373   4.944   6.553
 2993POPC   C3B40245   5.247   4.991   6.984
 2993POPC   C4B40246   5.028   5.379   7.078
 2994POPC   NC340247  31.125  40.475   5.278
 2994POPC   PO440248  30.787  39.831   5.446
 2994POPC   GL140249  30.689  39.833   5.861
 2994POPC   GL240250  30.543  40.122   5.936
 2994POPC   C1A40251  30.771  39.768   6.278
 2994POPC   D2A40252  30.688  39.997   6.633
 2994POPC   C3A40253  30.994  40.015   6.926
 2994POPC   C4A40254  30.886  40.085   7.331
 2994POPC   C1B40255  30.322  40.068   6.252
 2994POPC   C2B40256  30.198  40.176   6.620
 2994POPC   C3B40257  30.306  40.058   7.005
 2994POPC   C4B40258  30.372  40.201   7.388
 2995POPC   NC340259  18.113  17.630   5.305
 2995POPC   PO440260  18.766  17.600   5.354
 2995POPC   GL140261  18.423  17.727   5.718
 2995POPC   GL240262  18.006  17.767   5.778
 2995POPC   C1A40263  18.362  17.758   6.181
 2995POPC   D2A40264  18.301  17.944   6.603
 2995POPC   C3A40265  18.314  17.679   6.992
 2995POPC   C4A40266  18.508  17.312   7.228
 2995POPC   C1B40267  17.845  17.747   6.222
 2995POPC   C2B40268  17.782  17.882   6.667
 2995POPC   C3B40269  17.762  17.715   7.104
 2995POPC   C4B40270  18.016  17.409   7.330
 2996POPC   NC340271   6.292   4.974   5.299
 2996POPC   PO440272   5.643   5.151   5.260
 2996POPC   GL140273   5.715   5.064   5.702
 2996POPC   GL240274   5.467   5.320   5.809
 2996POPC   C1A40275   5.973   4.895   6.058
 2996POPC   D2A40276   6.119   5.074   6.475
 2996POPC   C3A40277   5.846   5.014   6.835
 2996POPC   C4A40278   5.953   4.946   7.258
 2996POPC   C1B40279   5.665   5.266   6.257
 2996POPC   C2B40280   5.541   5.428   6.676
 2996POPC   C3B40281   5.539   5.394   7.123
 2996POPC   C4B40282   5.655   5.244   7.538
 2997POPC   NC340283   2.898   5.890   5.365
 2997POPC   PO440284   3.347   5.471   5.754
 2997POPC   GL140285   3.029   5.703   6.010
 2997POPC   GL240286   2.701   5.771   5.820
 2997POPC   C1A40287   3.116   5.936   6.404
 2997POPC   D2A40288   2.915   6.242   6.681
 2997POPC   C3A40289   2.859   6.093   7.088
 2997POPC   C4A40290   2.930   5.659   7.123
 2997POPC   C1B40291   2.626   5.938   6.226
 2997POPC   C2B40292   2.680   5.750   6.626
 2997POPC   C3B40293   2.381   5.592   6.891
 2997POPC   C4B40294   2.459   5.776   7.268
 2998POPC   NC340295  16.382   8.249   5.541
 2998POPC   PO440296  17.061   8.209   5.502
 2998POPC   GL140297  16.800   8.113   5.814
 2998POPC   GL240298  16.719   7.781   5.717
 2998POPC   C1A40299  16.708   8.210   6.234
 2998POPC   D2A40300  16.941   8.243   6.618
 2998POPC   C3A40301  16.929   8.551   6.930
 2998POPC   C4A40302  16.908   8.378   7.329
 2998POPC   C1B40303  16.971   7.747   6.114
 2998POPC   C2B40304  17.035   7.729   6.567
 2998POPC   C3B40305  16.901   7.867   6.973
 2998POPC   C4B40306  16.547   8.183   7.021
 2999POPC   NC340307  31.474  21.602   5.331
 2999POPC   PO440308  31.517  20.944   5.336
 2999POPC   GL140309  31.671  21.267   5.671
 2999POPC   GL240310  31.377  21.487   5.806
 2999POPC   C1A40311  31.851  21.519   6.059
 2999POPC   D2A40312  31.715  21.604   6.516
 2999POPC   C3A40313  31.762  21.245   6.803
 2999POPC   C4A40314  31.508  21.154   7.149
 2999POPC   C1B40315  31.058  21.653   6.084
 2999POPC   C2B40316  31.173  21.672   6.512
 2999POPC   C3B40317  31.229  21.486   6.902
 2999POPC   C4B40318  31.265  21.565   7.345
 3000POPC   NC340319  14.921  25.301   5.392
 3000POPC   PO440320  15.414  24.908   5.254
 3000POPC   GL140321  15.243  25.160   5.736
 3000POPC   GL240322  15.064  25.497   5.838
 3000POPC   C1A40323  14.905  25.121   6.117
 3000POPC   D2A40324  15.079  25.096   6.517
 3000POPC   C3A40325  15.055  25.290   6.876
 3000POPC   C4A40326  15.137  25.062   7.245
 3000POPC   C1B40327  15.197  25.523   6.266
 3000POPC   C2B40328  15.365  25.647   6.682
 3000POPC   C3B40329  15.335  25.618   7.139
 3000POPC   C4B40330  14.955  25.509   7.410
 3001POPC   NC340331   2.459  18.801   5.271
 3001POPC   PO440332   2.952  19.261   5.372
 3001POPC   GL140333   2.741  19.024   5.721
 3001POPC   GL240334   2.520  18.725   5.771
 3001POPC   C1A40335   2.618  19.059   6.147
 3001POPC   D2A40336   2.815  18.906   6.515
 3001POPC   C3A40337   2.767  19.104   6.849
 3001POPC   C4A40338   3.051  19.086   7.163
 3001POPC   C1B40339   2.633  18.552   6.205
 3001POPC   C2B40340   2.447  18.593   6.687
 3001POPC   C3B40341   2.504  18.773   7.123
 3001POPC   C4B40342   2.517  18.671   7.594
 3002POPC   NC340343   3.219  30.805   5.468
 3002POPC   PO440344   3.886  30.617   5.489
 3002POPC   GL140345   3.663  30.793   5.847
 3002POPC   GL240346   3.398  30.509   5.856
 3002POPC   C1A40347   3.738  30.946   6.303
 3002POPC   D2A40348   3.784  30.745   6.730
 3002POPC   C3A40349   3.544  30.900   7.090
 3002POPC   C4A40350   3.422  30.669   7.447
 3002POPC   C1B40351   3.267  30.762   6.220
 3002POPC   C2B40352   3.240  30.820   6.680
 3002POPC   C3B40353   3.257  30.461   7.000
 3002POPC   C4B40354   3.006  30.354   7.384
 3003POPC   NC340355  16.700  37.356   5.413
 3003POPC   PO440356  17.011  37.919   5.310
 3003POPC   GL140357  16.872  37.739   5.703
 3003POPC   GL240358  17.034  37.447   5.842
 3003POPC   C1A40359  16.596  37.755   6.083
 3003POPC   D2A40360  16.448  37.454   6.425
 3003POPC   C3A40361  16.508  37.389   6.886
 3003POPC   C4A40362  16.630  37.319   7.310
 3003POPC   C1B40363  17.002  37.540   6.305
 3003POPC   C2B40364  16.893  37.688   6.723
 3003POPC   C3B40365  16.835  37.760   7.168
 3003POPC   C4B40366  17.003  38.023   7.523
 3004POPC   NC340367  41.272  43.260   5.366
 3004POPC   PO440368  41.675  42.776   5.333
 3004POPC   GL140369  41.646  43.055   5.698
 3004POPC   GL240370  41.320  43.092   5.827
 3004POPC   C1A40371  41.752  43.258   6.088
 3004POPC   D2A40372  41.900  43.118   6.470
 3004POPC   C3A40373  41.806  43.325   6.831
 3004POPC   C4A40374  41.796  43.177   7.234
 3004POPC   C1B40375  41.239  43.354   6.162
 3004POPC   C2B40376  41.393  43.189   6.538
 3004POPC   C3B40377  41.347  43.081   6.965
 3004POPC   C4B40378  41.295  43.384   7.274
 3005POPC   NC340379  41.315   5.382   5.339
 3005POPC   PO440380  40.629   5.125   5.344
 3005POPC   GL140381  40.779   5.193   5.743
 3005POPC   GL240382  41.093   5.123   5.730
 3005POPC   C1A40383  40.628   5.442   6.093
 3005POPC   D2A40384  40.608   5.616   6.464
 3005POPC   C3A40385  40.646   5.282   6.747
 3005POPC   C4A40386  40.648   5.031   7.119
 3005POPC   C1B40387  41.133   5.447   6.008
 3005POPC   C2B40388  41.078   5.432   6.463
 3005POPC   C3B40389  41.135   5.245   6.902
 3005POPC   C4B40390  41.117   5.000   7.300
 3006POPC   NC340391  38.168  15.342   5.692
 3006POPC   PO440392  38.701  15.129   5.302
 3006POPC   GL140393  38.572  15.046   5.748
 3006POPC   GL240394  38.582  15.359   5.957
 3006POPC   C1A40395  38.350  14.972   6.191
 3006POPC   D2A40396  38.456  15.060   6.617
 3006POPC   C3A40397  38.357  14.878   7.008
 3006POPC   C4A40398  38.609  14.887   7.353
 3006POPC   C1B40399  38.338  15.477   6.342
 3006POPC   C2B40400  38.086  15.389   6.741
 3006POPC   C3B40401  38.202  15.337   7.189
 3006POPC   C4B40402  38.106  15.462   7.644
 3007POPC   NC340403   6.395  24.693   5.306
 3007POPC   PO440404   6.962  24.294   5.136
 3007POPC   GL140405   6.729  24.315   5.588
 3007POPC   GL240406   6.724  24.678   5.701
 3007POPC   C1A40407   6.546  24.140   6.041
 3007POPC   D2A40408   6.605  23.988   6.516
 3007POPC   C3A40409   6.541  24.290   6.888
 3007POPC   C4A40410   6.443  24.757   6.968
 3007POPC   C1B40411   6.802  24.600   6.132
 3007POPC   C2B40412   6.756  24.770   6.540
 3007POPC   C3B40413   6.952  24.667   6.921
 3007POPC   C4B40414   6.779  24.513   7.278
 3008POPC   NC340415  34.860  33.594   5.443
 3008POPC   PO440416  34.480  34.199   5.565
 3008POPC   GL140417  34.748  33.944   5.807
 3008POPC   GL240418  34.575  33.613   5.864
 3008POPC   C1A40419  34.925  33.846   6.216
 3008POPC   D2A40420  34.731  33.709   6.606
 3008POPC   C3A40421  34.657  33.870   7.019
 3008POPC   C4A40422  34.828  33.546   7.312
 3008POPC   C1B40423  34.389  33.793   6.239
 3008POPC   C2B40424  34.226  33.806   6.676
 3008POPC   C3B40425  34.133  33.923   7.081
 3008POPC   C4B40426  34.201  33.760   7.455
 3009POPC   NC340427   8.646  10.043   5.517
 3009POPC   PO440428   9.108  10.258   5.845
 3009POPC   GL140429   8.859   9.849   5.955
 3009POPC   GL240430   9.147   9.595   6.077
 3009POPC   C1A40431   8.719   9.554   6.323
 3009POPC   D2A40432   9.054   9.431   6.639
 3009POPC   C3A40433   8.896   9.563   7.041
 3009POPC   C4A40434   8.647   9.959   7.067
 3009POPC   C1B40435   9.063   9.927   6.408
 3009POPC   C2B40436   9.353  10.209   6.522
 3009POPC   C3B40437   9.537  10.038   6.879
 3009POPC   C4B40438   9.243   9.931   7.192
 3010POPC   NC340439  39.261  41.023   4.968
 3010POPC   PO440440  39.143  40.420   5.262
 3010POPC   GL140441  39.184  40.617   5.706
 3010POPC   GL240442  39.402  40.853   5.845
 3010POPC   C1A40443  39.063  40.668   6.175
 3010POPC   D2A40444  38.938  40.500   6.582
 3010POPC   C3A40445  38.906  40.777   6.922
 3010POPC   C4A40446  39.078  40.754   7.319
 3010POPC   C1B40447  39.520  40.898   6.266
 3010POPC   C2B40448  39.453  40.745   6.681
 3010POPC   C3B40449  39.617  40.746   7.103
 3010POPC   C4B40450  39.499  40.967   7.489
 3011POPC   NC340451   3.735  21.000   5.554
 3011POPC   PO440452   3.094  20.810   5.436
 3011POPC   GL140453   3.387  20.603   5.713
 3011POPC   GL240454   3.311  20.260   5.837
 3011POPC   C1A40455   3.420  20.688   6.154
 3011POPC   D2A40456   3.204  20.662   6.557
 3011POPC   C3A40457   3.525  20.587   6.873
 3011POPC   C4A40458   3.650  20.901   7.157
 3011POPC   C1B40459   3.376  20.191   6.308
 3011POPC   C2B40460   3.203  20.190   6.724
 3011POPC   C3B40461   3.213  20.278   7.170
 3011POPC   C4B40462   3.551  20.468   7.394
 3012POPC   NC340463  29.784  42.372   5.466
 3012POPC   PO440464  29.592  43.021   5.557
 3012POPC   GL140465  29.693  42.657   5.903
 3012POPC   GL240466  30.044  42.469   5.891
 3012POPC   C1A40467  29.795  42.433   6.344
 3012POPC   D2A40468  29.781  42.349   6.804
 3012POPC   C3A40469  30.049  42.398   7.129
 3012POPC   C4A40470  29.789  42.624   7.423
 3012POPC   C1B40471  30.191  42.147   6.194
 3012POPC   C2B40472  30.270  42.205   6.631
 3012POPC   C3B40473  30.429  42.074   7.026
 3012POPC   C4B40474  30.253  42.019   7.442
 3013POPC   NC340475  38.422  41.280   5.447
 3013POPC   PO440476  38.853  41.778   5.585
 3013POPC   GL140477  38.614  41.481   5.876
 3013POPC   GL240478  38.209  41.459   5.866
 3013POPC   C1A40479  38.482  41.390   6.294
 3013POPC   D2A40480  38.259  41.627   6.586
 3013POPC   C3A40481  38.536  41.759   6.915
 3013POPC   C4A40482  38.671  41.539   7.253
 3013POPC   C1B40483  37.953  41.345   6.225
 3013POPC   C2B40484  37.961  41.181   6.642
 3013POPC   C3B40485  38.175  41.344   7.007
 3013POPC   C4B40486  38.194  41.306   7.426
 3014POPC   NC340487   1.710  21.912   5.292
 3014POPC   PO440488   1.101  22.262   5.368
 3014POPC   GL140489   1.342  22.281   5.732
 3014POPC   GL240490   1.511  21.983   5.841
 3014POPC   C1A40491   1.399  22.427   6.156
 3014POPC   D2A40492   1.586  22.185   6.488
 3014POPC   C3A40493   1.377  22.260   6.866
 3014POPC   C4A40494   1.503  22.213   7.320
 3014POPC   C1B40495   1.189  21.955   6.143
 3014POPC   C2B40496   0.982  22.244   6.427
 3014POPC   C3B40497   0.798  22.165   6.821
 3014POPC   C4B40498   0.976  22.298   7.206
 3015POPC   NC340499   5.037   0.571   5.305
 3015POPC   PO440500   5.349   0.029   5.385
 3015POPC   GL140501   5.182   0.334   5.743
 3015POPC   GL240502   5.043   0.706   5.804
 3015POPC   C1A40503   5.321   0.448   6.175
 3015POPC   D2A40504   5.507   0.651   6.528
 3015POPC   C3A40505   5.266   0.589   6.915
 3015POPC   C4A40506   5.352   0.368   7.288
 3015POPC   C1B40507   4.893   0.721   6.237
 3015POPC   C2B40508   4.704   0.743   6.648
 3015POPC   C3B40509   4.768   0.607   7.090
 3015POPC   C4B40510   5.034   0.759   7.445
 3016POPC   NC340511  25.362  13.260   5.442
 3016POPC   PO440512  25.014  12.696   5.425
 3016POPC   GL140513  25.093  12.631   5.817
 3016POPC   GL240514  25.379  12.769   5.825
 3016POPC   C1A40515  25.012  12.814   6.189
 3016POPC   D2A40516  25.157  12.852   6.587
 3016POPC   C3A40517  25.206  12.600   6.952
 3016POPC   C4A40518  25.012  12.971   7.134
 3016POPC   C1B40519  25.515  12.683   6.223
 3016POPC   C2B40520  25.664  12.848   6.591
 3016POPC   C3B40521  25.495  13.021   6.936
 3016POPC   C4B40522  25.585  12.882   7.286
 3017POPC   NC340523   3.129   0.065   5.383
 3017POPC   PO440524   3.222   0.729   5.399
 3017POPC   GL140525   3.460   0.382   5.638
 3017POPC   GL240526   3.473   0.647   5.857
 3017POPC   C1A40527   3.544   0.211   6.090
 3017POPC   D2A40528   3.470   0.532   6.449
 3017POPC   C3A40529   3.564   0.396   6.858
 3017POPC   C4A40530   3.602   0.171   7.224
 3017POPC   C1B40531   3.639   0.914   6.151
 3017POPC   C2B40532   3.699   1.011   6.581
 3017POPC   C3B40533   3.805   0.899   6.969
 3017POPC   C4B40534   3.656   0.676   7.294
 3018POPC   NC340535  34.718  13.301   5.368
 3018POPC   PO440536  34.199  13.690   5.540
 3018POPC   GL140537  34.547  13.594   5.773
 3018POPC   GL240538  34.694  13.902   5.818
 3018POPC   C1A40539  34.649  13.477   6.207
 3018POPC   D2A40540  34.220  13.615   6.409
 3018POPC   C3A40541  34.208  13.741   6.836
 3018POPC   C4A40542  34.487  13.548   7.136
 3018POPC   C1B40543  34.566  13.962   6.225
 3018POPC   C2B40544  34.665  13.826   6.626
 3018POPC   C3B40545  34.682  14.007   7.011
 3018POPC   C4B40546  34.335  14.035   7.245
 3019POPC   NC340547   1.927  19.672   5.310
 3019POPC   PO440548   2.484  19.928   5.612
 3019POPC   GL140549   2.077  19.932   5.750
 3019POPC   GL240550   1.862  20.163   5.614
 3019POPC   C1A40551   1.998  19.835   6.176
 3019POPC   D2A40552   2.222  19.974   6.550
 3019POPC   C3A40553   1.988  19.813   6.882
 3019POPC   C4A40554   1.715  19.668   7.218
 3019POPC   C1B40555   1.682  20.200   6.010
 3019POPC   C2B40556   1.727  20.202   6.457
 3019POPC   C3B40557   1.767  20.285   6.889
 3019POPC   C4B40558   1.943  20.136   7.265
 3020POPC   NC340559  27.187  37.515   5.465
 3020POPC   PO440560  26.637  37.950   5.492
 3020POPC   GL140561  26.920  37.827   5.789
 3020POPC   GL240562  26.775  37.537   5.904
 3020POPC   C1A40563  27.027  37.914   6.213
 3020POPC   D2A40564  26.791  37.833   6.540
 3020POPC   C3A40565  26.960  37.713   6.915
 3020POPC   C4A40566  26.630  37.561   7.163
 3020POPC   C1B40567  27.179  37.462   6.101
 3020POPC   C2B40568  27.236  37.411   6.491
 3020POPC   C3B40569  27.268  37.266   6.876
 3020POPC   C4B40570  27.140  37.387   7.272
 3021POPC   NC340571  17.120  35.977   5.293
 3021POPC   PO440572  16.489  36.280   5.433
 3021POPC   GL140573  16.597  36.212   5.831
 3021POPC   GL240574  16.944  36.220   5.726
 3021POPC   C1A40575  16.490  36.078   6.266
 3021POPC   D2A40576  16.438  35.767   6.625
 3021POPC   C3A40577  16.343  35.987   7.009
 3021POPC   C4A40578  16.594  36.390   7.121
 3021POPC   C1B40579  17.011  36.160   6.151
 3021POPC   C2B40580  16.876  36.217   6.580
 3021POPC   C3B40581  16.868  35.967   6.940
 3021POPC   C4B40582  16.987  36.127   7.314
 3022POPC   NC340583  10.435  30.209   5.106
 3022POPC   PO440584  10.299  29.593   5.252
 3022POPC   GL140585  10.453  29.946   5.557
 3022POPC   GL240586  10.815  29.971   5.632
 3022POPC   C1A40587  10.444  29.976   6.040
 3022POPC   D2A40588  10.325  30.094   6.494
 3022POPC   C3A40589  10.302  29.792   6.834
 3022POPC   C4A40590  10.470  29.816   7.237
 3022POPC   C1B40591  10.963  29.951   6.074
 3022POPC   C2B40592  10.835  30.083   6.497
 3022POPC   C3B40593  10.938  30.100   6.936
 3022POPC   C4B40594  10.757  30.235   7.329
 3023POPC   NC340595  30.867  41.009   5.261
 3023POPC   PO440596  30.534  41.572   5.291
 3023POPC   GL140597  30.533  41.451   5.729
 3023POPC   GL240598  30.499  41.064   5.703
 3023POPC   C1A40599  30.484  41.632   6.165
 3023POPC   D2A40600  30.332  41.696   6.621
 3023POPC   C3A40601  30.665  41.612   6.917
 3023POPC   C4A40602  30.708  41.767   7.318
 3023POPC   C1B40603  30.661  41.123   6.130
 3023POPC   C2B40604  30.569  41.252   6.530
 3023POPC   C3B40605  30.300  41.207   6.865
 3023POPC   C4B40606  30.519  41.255   7.253
 3024POPC   NC340607  14.856  14.074   5.608
 3024POPC   PO440608  14.713  14.701   5.344
 3024POPC   GL140609  14.427  14.621   5.759
 3024POPC   GL240610  14.505  14.312   5.958
 3024POPC   C1A40611  14.329  14.703   6.232
 3024POPC   D2A40612  14.179  14.511   6.637
 3024POPC   C3A40613  14.332  14.715   7.052
 3024POPC   C4A40614  14.356  14.601   7.510
 3024POPC   C1B40615  14.642  14.232   6.378
 3024POPC   C2B40616  14.643  14.383   6.791
 3024POPC   C3B40617  14.552  14.251   7.203
 3024POPC   C4B40618  14.816  14.251   7.587
 3025POPC   NC340619  15.682  41.878   5.166
 3025POPC   PO440620  16.097  41.419   5.478
 3025POPC   GL140621  16.308  41.461   5.875
 3025POPC   GL240622  16.460  41.791   5.798
 3025POPC   C1A40623  16.081  41.516   6.295
 3025POPC   D2A40624  15.844  41.388   6.682
 3025POPC   C3A40625  15.915  41.655   7.051
 3025POPC   C4A40626  15.715  41.659   7.472
 3025POPC   C1B40627  16.532  41.729   6.240
 3025POPC   C2B40628  16.504  41.506   6.629
 3025POPC   C3B40629  16.435  41.656   7.038
 3025POPC   C4B40630  16.259  41.800   7.439
 3026POPC   NC340631   8.564   1.443   5.119
 3026POPC   PO440632   8.112   1.556   5.720
 3026POPC   GL140633   8.285   1.252   5.916
 3026POPC   GL240634   8.512   1.047   5.718
 3026POPC   C1A40635   8.273   1.352   6.336
 3026POPC   D2A40636   7.996   1.247   6.631
 3026POPC   C3A40637   8.134   1.265   7.020
 3026POPC   C4A40638   7.976   1.448   7.346
 3026POPC   C1B40639   8.592   0.981   6.188
 3026POPC   C2B40640   8.440   0.952   6.617
 3026POPC   C3B40641   8.427   0.849   7.035
 3026POPC   C4B40642   8.643   1.118   7.295
 3027POPC   NC340643  23.887   1.264   5.267
 3027POPC   PO440644  23.365   1.592   5.396
 3027POPC   GL140645  23.663   1.427   5.736
 3027POPC   GL240646  23.733   1.062   5.705
 3027POPC   C1A40647  23.636   1.464   6.210
 3027POPC   D2A40648  23.426   1.401   6.620
 3027POPC   C3A40649  23.757   1.304   6.940
 3027POPC   C4A40650  23.909   1.501   7.332
 3027POPC   C1B40651  23.866   1.022   6.122
 3027POPC   C2B40652  23.665   0.949   6.533
 3027POPC   C3B40653  23.522   0.794   6.908
 3027POPC   C4B40654  23.633   0.948   7.282
 3028POPC   NC340655  35.588   8.606   5.326
 3028POPC   PO440656  35.178   9.175   5.485
 3028POPC   GL140657  35.312   8.944   5.865
 3028POPC   GL240658  35.414   8.601   5.806
 3028POPC   C1A40659  35.124   8.682   6.241
 3028POPC   D2A40660  35.167   8.535   6.687
 3028POPC   C3A40661  35.052   8.867   7.029
 3028POPC   C4A40662  35.260   9.162   7.365
 3028POPC   C1B40663  35.643   8.756   6.173
 3028POPC   C2B40664  35.477   8.953   6.567
 3028POPC   C3B40665  35.563   8.826   6.990
 3028POPC   C4B40666  35.922   8.633   7.191
 3029POPC   NC340667  42.850   6.640   5.494
 3029POPC   PO440668  42.170   6.531   5.301
 3029POPC   GL140669  42.091   6.470   5.721
 3029POPC   GL240670  42.451   6.460   5.820
 3029POPC   C1A40671  42.100   6.734   6.081
 3029POPC   D2A40672  42.360   6.704   6.440
 3029POPC   C3A40673  42.140   6.677   6.817
 3029POPC   C4A40674  42.304   6.636   7.197
 3029POPC   C1B40675  42.691   6.354   6.204
 3029POPC   C2B40676  42.785   6.463   6.642
 3029POPC   C3B40677  42.627   6.259   7.038
 3029POPC   C4B40678  42.474   6.001   7.364
 3030POPC   NC340679  31.817  15.185   5.510
 3030POPC   PO440680  31.260  15.110   5.339
 3030POPC   GL140681  31.391  14.929   5.742
 3030POPC   GL240682  31.753  14.844   5.872
 3030POPC   C1A40683  31.397  15.079   6.166
 3030POPC   D2A40684  31.394  14.948   6.568
 3030POPC   C3A40685  31.335  15.175   6.957
 3030POPC   C4A40686  31.446  14.979   7.361
 3030POPC   C1B40687  31.892  15.195   6.195
 3030POPC   C2B40688  31.825  15.306   6.660
 3030POPC   C3B40689  31.800  15.313   7.127
 3030POPC   C4B40690  31.517  15.474   7.482
 3031POPC   NC340691  25.792   6.047   5.422
 3031POPC   PO440692  26.442   5.754   5.490
 3031POPC   GL140693  26.359   6.012   5.800
 3031POPC   GL240694  26.032   5.881   5.828
 3031POPC   C1A40695  26.265   6.152   6.197
 3031POPC   D2A40696  26.116   6.279   6.577
 3031POPC   C3A40697  26.164   6.034   6.909
 3031POPC   C4A40698  26.362   6.100   7.286
 3031POPC   C1B40699  25.816   5.785   6.175
 3031POPC   C2B40700  25.743   5.929   6.581
 3031POPC   C3B40701  25.717   5.801   6.978
 3031POPC   C4B40702  25.839   6.005   7.331
 3032POPC   NC340703  19.936  18.719   5.390
 3032POPC   PO440704  20.216  18.168   5.198
 3032POPC   GL140705  19.973  18.212   5.663
 3032POPC   GL240706  19.652  18.010   5.760
 3032POPC   C1A40707  20.010  18.127   6.154
 3032POPC   D2A40708  19.975  17.836   6.558
 3032POPC   C3A40709  19.852  18.009   6.977
 3032POPC   C4A40710  19.855  18.432   7.104
 3032POPC   C1B40711  19.532  18.302   6.116
 3032POPC   C2B40712  19.601  18.481   6.524
 3032POPC   C3B40713  19.389  18.495   6.913
 3032POPC   C4B40714  19.430  18.197   7.236
 3033POPC   NC340715   1.404  11.336   5.390
 3033POPC   PO440716   1.044  10.807   5.256
 3033POPC   GL140717   1.301  10.982   5.729
 3033POPC   GL240718   1.485  10.917   6.071
 3033POPC   C1A40719   1.381  11.401   6.040
 3033POPC   D2A40720   1.449  11.512   6.503
 3033POPC   C3A40721   1.353  11.224   6.814
 3033POPC   C4A40722   1.192  11.248   7.222
 3033POPC   C1B40723   1.131  11.062   6.351
 3033POPC   C2B40724   0.757  11.059   6.639
 3033POPC   C3B40725   0.717  11.058   7.098
 3033POPC   C4B40726   0.912  10.946   7.498
 3034POPC   NC340727  38.802  42.203   5.390
 3034POPC   PO440728  38.166  42.350   5.296
 3034POPC   GL140729  38.339  42.211   5.726
 3034POPC   GL240730  38.668  42.389   5.831
 3034POPC   C1A40731  38.340  42.294   6.206
 3034POPC   D2A40732  38.592  42.106   6.536
 3034POPC   C3A40733  38.500  42.277   6.954
 3034POPC   C4A40734  38.231  42.047   7.219
 3034POPC   C1B40735  38.828  42.587   6.181
 3034POPC   C2B40736  38.648  42.606   6.580
 3034POPC   C3B40737  38.780  42.748   6.962
 3034POPC   C4B40738  38.597  42.679   7.334
 3035POPC   NC340739  34.082   9.099   5.480
 3035POPC   PO440740  33.489   8.788   5.518
 3035POPC   GL140741  33.530   8.904   5.893
 3035POPC   GL240742  33.673   9.222   5.802
 3035POPC   C1A40743  33.534   8.779   6.307
 3035POPC   D2A40744  33.773   8.946   6.605
 3035POPC   C3A40745  33.556   8.945   6.938
 3035POPC   C4A40746  33.643   8.709   7.260
 3035POPC   C1B40747  33.931   9.211   6.177
 3035POPC   C2B40748  34.141   9.308   6.586
 3035POPC   C3B40749  33.873   9.368   6.925
 3035POPC   C4B40750  33.816   9.195   7.322
 3036POPC   NC340751  36.330  40.505   5.402
 3036POPC   PO440752  36.872  40.052   5.430
 3036POPC   GL140753  36.934  39.989   5.858
 3036POPC   GL240754  36.746  39.686   5.897
 3036POPC   C1A40755  37.171  39.916   6.240
 3036POPC   D2A40756  37.468  39.623   6.496
 3036POPC   C3A40757  37.341  39.595   6.932
 3036POPC   C4A40758  37.049  39.916   7.116
 3036POPC   C1B40759  36.638  39.910   6.278
 3036POPC   C2B40760  36.843  40.189   6.591
 3036POPC   C3B40761  36.682  40.260   6.993
 3036POPC   C4B40762  36.520  39.837   7.067
 3037POPC   NC340763  36.466   7.692   5.148
 3037POPC   PO440764  35.980   7.288   5.447
 3037POPC   GL140765  36.288   7.483   5.758
 3037POPC   GL240766  36.039   7.466   5.995
 3037POPC   C1A40767  36.415   7.657   6.230
 3037POPC   D2A40768  36.181   7.439   6.594
 3037POPC   C3A40769  36.394   7.451   6.981
 3037POPC   C4A40770  36.073   7.655   7.135
 3037POPC   C1B40771  35.817   7.149   6.235
 3037POPC   C2B40772  35.837   6.987   6.634
 3037POPC   C3B40773  35.827   7.180   7.038
 3037POPC   C4B40774  35.824   7.017   7.474
 3038POPC   NC340775  26.299  11.912   5.339
 3038POPC   PO440776  25.896  12.373   5.623
 3038POPC   GL140777  26.235  12.242   5.893
 3038POPC   GL240778  26.150  11.907   5.863
 3038POPC   C1A40779  26.323  12.143   6.350
 3038POPC   D2A40780  26.325  12.073   6.784
 3038POPC   C3A40781  26.300  12.312   7.144
 3038POPC   C4A40782  26.302  11.969   7.415
 3038POPC   C1B40783  25.856  12.034   6.203
 3038POPC   C2B40784  25.895  11.890   6.624
 3038POPC   C3B40785  25.901  12.033   7.056
 3038POPC   C4B40786  25.694  12.381   7.283
 3039POPC   NC340787   5.805  25.542   5.351
 3039POPC   PO440788   5.982  24.926   5.356
 3039POPC   GL140789   5.813  25.155   5.724
 3039POPC   GL240790   6.016  25.461   5.813
 3039POPC   C1A40791   5.825  25.032   6.171
 3039POPC   D2A40792   5.944  24.808   6.575
 3039POPC   C3A40793   5.841  25.174   6.812
 3039POPC   C4A40794   5.694  25.311   7.194
 3039POPC   C1B40795   5.782  25.594   6.174
 3039POPC   C2B40796   5.883  25.650   6.612
 3039POPC   C3B40797   6.025  25.691   7.044
 3039POPC   C4B40798   6.129  25.593   7.467
 3040POPC   NC340799  35.612  23.336   5.286
 3040POPC   PO440800  35.389  24.014   5.282
 3040POPC   GL140801  35.242  23.810   5.655
 3040POPC   GL240802  35.301  23.447   5.686
 3040POPC   C1A40803  35.361  23.894   6.077
 3040POPC   D2A40804  35.219  23.792   6.486
 3040POPC   C3A40805  35.421  23.973   6.833
 3040POPC   C4A40806  35.266  23.855   7.206
 3040POPC   C1B40807  35.316  23.396   6.138
 3040POPC   C2B40808  35.282  23.253   6.560
 3040POPC   C3B40809  35.216  23.448   6.909
 3040POPC   C4B40810  35.323  23.341   7.329
 3041POPC   NC340811  13.914  21.612   5.412
 3041POPC   PO440812  13.246  21.527   5.469
 3041POPC   GL140813  13.452  21.567   5.855
 3041POPC   GL240814  13.748  21.334   5.828
 3041POPC   C1A40815  13.492  21.404   6.272
 3041POPC   D2A40816  13.791  21.289   6.604
 3041POPC   C3A40817  13.557  21.301   6.975
 3041POPC   C4A40818  13.288  21.543   7.210
 3041POPC   C1B40819  13.984  21.568   6.176
 3041POPC   C2B40820  14.009  21.754   6.628
 3041POPC   C3B40821  13.976  21.563   7.066
 3041POPC   C4B40822  13.733  21.686   7.431
 3042POPC   NC340823  13.261   6.504   5.338
 3042POPC   PO440824  13.903   6.693   5.201
 3042POPC   GL140825  13.871   6.594   5.683
 3042POPC   GL240826  13.535   6.418   5.802
 3042POPC   C1A40827  13.765   6.751   6.132
 3042POPC   D2A40828  13.622   6.764   6.581
 3042POPC   C3A40829  13.612   6.423   6.877
 3042POPC   C4A40830  13.836   6.404   7.266
 3042POPC   C1B40831  13.316   6.483   6.221
 3042POPC   C2B40832  13.148   6.580   6.646
 3042POPC   C3B40833  13.271   6.860   6.986
 3042POPC   C4B40834  13.397   6.934   7.423
 3043POPC   NC340835   7.983   9.893   5.131
 3043POPC   PO440836   8.485   9.551   5.424
 3043POPC   GL140837   8.336   9.774   5.822
 3043POPC   GL240838   7.963   9.888   5.811
 3043POPC   C1A40839   8.196   9.595   6.220
 3043POPC   D2A40840   8.002   9.564   6.624
 3043POPC   C3A40841   8.273   9.632   6.991
 3043POPC   C4A40842   8.399   9.711   7.431
 3043POPC   C1B40843   8.131  10.120   6.138
 3043POPC   C2B40844   8.278  10.013   6.532
 3043POPC   C3B40845   8.188  10.141   6.910
 3043POPC   C4B40846   7.983   9.990   7.273
 3044POPC   NC340847  11.564   4.901   5.363
 3044POPC   PO440848  11.019   5.365   5.279
 3044POPC   GL140849  10.987   5.108   5.700
 3044POPC   GL240850  11.295   4.895   5.777
 3044POPC   C1A40851  10.920   4.828   6.093
 3044POPC   D2A40852  11.107   4.891   6.500
 3044POPC   C3A40853  10.860   4.849   6.895
 3044POPC   C4A40854  11.008   4.857   7.307
 3044POPC   C1B40855  11.471   5.047   6.143
 3044POPC   C2B40856  11.488   5.228   6.563
 3044POPC   C3B40857  11.333   5.071   6.953
 3044POPC   C4B40858  11.509   4.795   7.264
 3045POPC   NC340859  42.209  34.885   5.480
 3045POPC   PO440860  42.639  34.332   5.494
 3045POPC   GL140861  42.273  34.383   5.818
 3045POPC   GL240862  41.992  34.622   5.851
 3045POPC   C1A40863  42.142  34.402   6.272
 3045POPC   D2A40864  42.172  34.658   6.644
 3045POPC   C3A40865  42.257  34.419   7.010
 3045POPC   C4A40866  42.597  34.452   7.283
 3045POPC   C1B40867  42.347  34.830   6.118
 3045POPC   C2B40868  42.299  35.124   6.440
 3045POPC   C3B40869  42.271  35.114   6.877
 3045POPC   C4B40870  42.270  34.871   7.253
 3046POPC   NC340871  19.588  32.005   5.443
 3046POPC   PO440872  19.396  32.574   5.529
 3046POPC   GL140873  19.692  32.328   5.857
 3046POPC   GL240874  19.637  31.967   5.948
 3046POPC   C1A40875  19.796  32.304   6.332
 3046POPC   D2A40876  19.542  32.365   6.714
 3046POPC   C3A40877  19.744  32.333   7.109
 3046POPC   C4A40878  20.183  32.344   7.319
 3046POPC   C1B40879  19.461  31.777   6.335
 3046POPC   C2B40880  19.225  31.929   6.712
 3046POPC   C3B40881  19.260  31.889   7.160
 3046POPC   C4B40882  19.560  31.989   7.459
 3047POPC   NC340883  26.191  38.087   5.454
 3047POPC   PO440884  26.053  38.742   5.422
 3047POPC   GL140885  25.995  38.449   5.764
 3047POPC   GL240886  25.745  38.188   5.694
 3047POPC   C1A40887  26.138  38.380   6.179
 3047POPC   D2A40888  26.120  38.652   6.543
 3047POPC   C3A40889  26.170  38.418   6.884
 3047POPC   C4A40890  26.320  38.359   7.256
 3047POPC   C1B40891  25.612  38.274   6.113
 3047POPC   C2B40892  25.763  38.284   6.539
 3047POPC   C3B40893  25.726  38.186   6.967
 3047POPC   C4B40894  25.912  38.059   7.349
 3048POPC   NC340895  43.057  20.430   5.284
 3048POPC   PO440896  42.933  21.042   5.309
 3048POPC   GL140897  43.059  20.709   5.741
 3048POPC   GL240898  43.329  20.489   5.723
 3048POPC   C1A40899  42.967  20.662   6.242
 3048POPC   D2A40900  43.059  20.931   6.622
 3048POPC   C3A40901  43.025  20.758   7.013
 3048POPC   C4A40902  42.918  20.457   7.307
 3048POPC   C1B40903  43.458  20.697   6.115
 3048POPC   C2B40904  43.392  20.540   6.527
 3048POPC   C3B40905  43.547  20.641   6.907
 3048POPC   C4B40906  43.452  20.686   7.311
 3049POPC   NC340907  35.676  12.761   5.508
 3049POPC   PO440908  35.154  13.162   5.353
 3049POPC   GL140909  35.106  12.931   5.746
 3049POPC   GL240910  35.183  12.581   5.779
 3049POPC   C1A40911  35.070  13.060   6.191
 3049POPC   D2A40912  35.346  13.190   6.525
 3049POPC   C3A40913  35.275  13.028   6.934
 3049POPC   C4A40914  35.572  13.046   7.248
 3049POPC   C1B40915  35.090  12.516   6.198
 3049POPC   C2B40916  35.270  12.668   6.562
 3049POPC   C3B40917  35.170  12.488   6.968
 3049POPC   C4B40918  35.356  12.523   7.377
 3050POPC   NC340919  24.941   7.489   5.440
 3050POPC   PO440920  25.553   7.237   5.384
 3050POPC   GL140921  25.322   7.342   5.778
 3050POPC   GL240922  25.043   7.182   5.856
 3050POPC   C1A40923  25.356   7.284   6.256
 3050POPC   D2A40924  25.081   7.212   6.633
 3050POPC   C3A40925  25.271   7.286   7.031
 3050POPC   C4A40926  25.343   7.116   7.459
 3050POPC   C1B40927  24.782   7.247   6.213
 3050POPC   C2B40928  24.599   7.347   6.596
 3050POPC   C3B40929  24.747   7.386   7.018
 3050POPC   C4B40930  24.963   7.465   7.405
 3051POPC   NC340931  41.946  41.571   5.376
 3051POPC   PO440932  41.322  41.213   5.197
 3051POPC   GL140933  41.563  41.269   5.636
 3051POPC   GL240934  41.639  41.605   5.788
 3051POPC   C1A40935  41.631  41.213   6.125
 3051POPC   D2A40936  41.435  41.373   6.539
 3051POPC   C3A40937  41.594  41.348   6.969
 3051POPC   C4A40938  41.878  41.494   7.260
 3051POPC   C1B40939  41.687  41.742   6.242
 3051POPC   C2B40940  41.893  41.752   6.685
 3051POPC   C3B40941  41.624  41.881   7.029
 3051POPC   C4B40942  41.227  41.750   6.867
 3052POPC   NC340943  31.088  38.521   5.058
 3052POPC   PO440944  30.524  38.280   5.430
 3052POPC   GL140945  30.638  38.550   5.781
 3052POPC   GL240946  30.531  38.907   5.797
 3052POPC   C1A40947  30.758  38.427   6.217
 3052POPC   D2A40948  30.527  38.411   6.622
 3052POPC   C3A40949  30.667  38.317   7.048
 3052POPC   C4A40950  30.720  38.460   7.479
 3052POPC   C1B40951  30.328  38.697   6.163
 3052POPC   C2B40952  30.214  38.828   6.595
 3052POPC   C3B40953  30.316  38.726   7.009
 3052POPC   C4B40954  30.552  38.907   7.329
 3053POPC   NC340955  18.741  44.508   5.423
 3053POPC   PO440956  19.137   0.149   5.452
 3053POPC   GL140957  19.015  44.954   5.852
 3053POPC   GL240958  18.965  44.592   5.866
 3053POPC   C1A40959  18.834  44.895   6.284
 3053POPC   D2A40960  18.655  44.639   6.638
 3053POPC   C3A40961  18.806  44.867   6.957
 3053POPC   C4A40962  19.197  44.822   7.185
 3053POPC   C1B40963  18.891  44.369   6.240
 3053POPC   C2B40964  18.914  44.180   6.634
 3053POPC   C3B40965  18.938  44.382   7.020
 3053POPC   C4B40966  19.103  44.304   7.406
 3054POPC   NC340967  26.850  36.675   5.156
 3054POPC   PO440968  26.916  37.170   5.578
 3054POPC   GL140969  26.704  37.014   5.840
 3054POPC   GL240970  26.615  36.698   5.669
 3054POPC   C1A40971  26.599  37.148   6.283
 3054POPC   D2A40972  26.884  37.042   6.629
 3054POPC   C3A40973  26.881  36.973   7.083
 3054POPC   C4A40974  27.039  36.560   7.257
 3054POPC   C1B40975  26.372  36.737   6.069
 3054POPC   C2B40976  26.408  36.660   6.527
 3054POPC   C3B40977  26.546  36.613   6.957
 3054POPC   C4B40978  26.586  36.682   7.424
 3055POPC   NC340979  39.052  44.941   5.299
 3055POPC   PO440980  39.160  44.263   5.219
 3055POPC   GL140981  39.100  44.317   5.701
 3055POPC   GL240982  38.932  44.640   5.723
 3055POPC   C1A40983  39.041  44.419   6.174
 3055POPC   D2A40984  39.387  44.630   6.378
 3055POPC   C3A40985  39.395  44.692   6.785
 3055POPC   C4A40986  39.319  44.620   7.178
 3055POPC   C1B40987  39.210  44.927   6.008
 3055POPC   C2B40988  39.513   0.123   6.353
 3055POPC   C3B40989  39.566   0.169   6.808
 3055POPC   C4B40990  39.367   0.149   7.212
 3056POPC   NC340991  23.614  44.047   5.516
 3056POPC   PO440992  23.219  43.600   5.249
 3056POPC   GL140993  23.475  43.626   5.764
 3056POPC   GL240994  23.848  43.742   5.855
 3056POPC   C1A40995  23.576  43.782   6.270
 3056POPC   D2A40996  23.416  43.888   6.716
 3056POPC   C3A40997  23.635  43.897   7.131
 3056POPC   C4A40998  23.384  43.786   7.509
 3056POPC   C1B40999  23.958  44.112   6.122
 3056POPC   C2B41000  23.869  44.146   6.563
 3056POPC   C3B41001  24.123  44.167   6.945
 3056POPC   C4B41002  24.149  44.145   7.383
 3057POPC   NC341003  13.273   3.159   5.483
 3057POPC   PO441004  13.718   2.750   5.437
 3057POPC   GL141005  13.555   2.923   5.842
 3057POPC   GL241006  13.802   3.177   5.942
 3057POPC   C1A41007  13.393   3.096   6.254
 3057POPC   D2A41008  13.221   2.879   6.628
 3057POPC   C3A41009  13.375   2.797   7.039
 3057POPC   C4A41010  13.458   3.158   7.194
 3057POPC   C1B41011  13.845   2.835   6.270
 3057POPC   C2B41012  13.749   2.835   6.709
 3057POPC   C3B41013  13.897   2.798   7.145
 3057POPC   C4B41014  14.253   2.910   7.435
 3058POPC   NC341015  16.085   2.996   5.369
 3058POPC   PO441016  15.609   2.477   5.391
 3058POPC   GL141017  15.935   2.630   5.720
 3058POPC   GL241018  15.890   2.969   5.841
 3058POPC   C1A41019  16.142   2.682   6.152
 3058POPC   D2A41020  16.011   2.988   6.466
 3058POPC   C3A41021  16.101   2.859   6.868
 3058POPC   C4A41022  15.927   2.573   7.134
 3058POPC   C1B41023  15.647   2.742   6.181
 3058POPC   C2B41024  15.692   2.625   6.642
 3058POPC   C3B41025  15.597   2.929   7.001
 3058POPC   C4B41026  15.645   3.277   7.272
 3059POPC   NC341027   2.441   9.132   5.434
 3059POPC   PO441028   3.157   8.897   5.407
 3059POPC   GL141029   2.974   8.853   5.810
 3059POPC   GL241030   2.665   8.758   5.709
 3059POPC   C1A41031   3.003   9.071   6.233
 3059POPC   D2A41032   2.934   9.213   6.671
 3059POPC   C3A41033   3.042   8.969   7.066
 3059POPC   C4A41034   3.211   9.008   7.522
 3059POPC   C1B41035   2.508   8.989   6.082
 3059POPC   C2B41036   2.598   8.850   6.494
 3059POPC   C3B41037   2.508   9.028   6.875
 3059POPC   C4B41038   2.414   9.150   7.265
 3060POPC   NC341039  25.239  15.591   5.238
 3060POPC   PO441040  25.200  14.921   5.307
 3060POPC   GL141041  25.165  15.037   5.745
 3060POPC   GL241042  24.870  14.862   5.846
 3060POPC   C1A41043  25.175  15.111   6.211
 3060POPC   D2A41044  24.993  15.402   6.531
 3060POPC   C3A41045  25.018  15.321   6.974
 3060POPC   C4A41046  25.328  15.245   7.325
 3060POPC   C1B41047  24.848  14.705   6.280
 3060POPC   C2B41048  24.931  14.889   6.688
 3060POPC   C3B41049  25.120  14.824   7.104
 3060POPC   C4B41050  25.218  14.789   7.560
 3061POPC   NC341051  25.227  20.020   5.322
 3061POPC   PO441052  25.276  19.403   5.504
 3061POPC   GL141053  25.370  19.742   5.736
 3061POPC   GL241054  25.060  19.800   5.822
 3061POPC   C1A41055  25.506  19.979   6.106
 3061POPC   D2A41056  25.430  20.167   6.528
 3061POPC   C3A41057  25.485  19.950   6.903
 3061POPC   C4A41058  25.198  19.885   7.220
 3061POPC   C1B41059  25.164  19.598   6.220
 3061POPC   C2B41060  25.080  19.754   6.633
 3061POPC   C3B41061  24.884  19.575   6.984
 3061POPC   C4B41062  25.053  19.400   7.332
 3062POPC   NC341063   5.509   1.236   5.298
 3062POPC   PO441064   4.826   1.474   5.445
 3062POPC   GL141065   4.970   1.294   5.806
 3062POPC   GL241066   5.302   1.382   5.753
 3062POPC   C1A41067   5.084   1.308   6.247
 3062POPC   D2A41068   5.156   1.011   6.578
 3062POPC   C3A41069   5.039   1.035   6.994
 3062POPC   C4A41070   5.170   1.230   7.356
 3062POPC   C1B41071   5.553   1.541   6.111
 3062POPC   C2B41072   5.379   1.625   6.517
 3062POPC   C3B41073   5.333   1.437   6.897
 3062POPC   C4B41074   5.497   1.621   7.276
 3063POPC   NC341075  28.033   4.546   5.349
 3063POPC   PO441076  28.638   4.581   5.246
 3063POPC   GL141077  28.433   4.514   5.676
 3063POPC   GL241078  28.224   4.221   5.762
 3063POPC   C1A41079  28.430   4.511   6.156
 3063POPC   D2A41080  28.283   4.326   6.575
 3063POPC   C3A41081  28.481   4.376   6.986
 3063POPC   C4A41082  28.781   4.441   7.338
 3063POPC   C1B41083  27.984   4.237   6.174
 3063POPC   C2B41084  27.860   4.048   6.580
 3063POPC   C3B41085  28.166   3.918   6.878
 3063POPC   C4B41086  28.362   3.959   7.250
 3064POPC   NC341087   5.055  13.035   5.323
 3064POPC   PO441088   5.645  12.782   5.310
 3064POPC   GL141089   5.339  12.741   5.712
 3064POPC   GL241090   4.935  12.709   5.791
 3064POPC   C1A41091   5.304  12.769   6.179
 3064POPC   D2A41092   5.091  12.604   6.559
 3064POPC   C3A41093   5.224  12.814   6.941
 3064POPC   C4A41094   5.229  13.116   7.292
 3064POPC   C1B41095   4.796  12.916   6.233
 3064POPC   C2B41096   4.829  13.042   6.705
 3064POPC   C3B41097   4.769  12.953   7.171
 3064POPC   C4B41098   4.761  13.252   7.535
 3065POPC   NC341099   1.360  27.760   5.380
 3065POPC   PO441100   0.868  27.371   5.502
 3065POPC   GL141101   1.071  27.708   5.795
 3065POPC   GL241102   1.446  27.736   5.888
 3065POPC   C1A41103   1.041  27.949   6.194
 3065POPC   D2A41104   0.846  27.810   6.579
 3065POPC   C3A41105   1.120  27.792   6.909
 3065POPC   C4A41106   1.059  27.623   7.281
 3065POPC   C1B41107   1.249  27.491   6.233
 3065POPC   C2B41108   1.185  27.278   6.592
 3065POPC   C3B41109   1.348  27.325   6.986
 3065POPC   C4B41110   1.561  27.640   7.241
 3066POPC   NC341111  20.773  26.334   5.171
 3066POPC   PO441112  20.245  25.906   5.428
 3066POPC   GL141113  20.487  26.131   5.760
 3066POPC   GL241114  20.246  26.279   5.958
 3066POPC   C1A41115  20.764  26.122   6.171
 3066POPC   D2A41116  20.703  25.866   6.567
 3066POPC   C3A41117  20.943  25.902   6.941
 3066POPC   C4A41118  20.844  26.171   7.260
 3066POPC   C1B41119  20.299  25.946   6.252
 3066POPC   C2B41120  20.224  26.114   6.638
 3066POPC   C3B41121  20.421  26.052   6.995
 3066POPC   C4B41122  20.355  25.937   7.387
 3067POPC   NC341123  28.255  10.855   5.310
 3067POPC   PO441124  28.055  11.467   5.402
 3067POPC   GL141125  28.248  11.196   5.732
 3067POPC   GL241126  28.561  10.987   5.736
 3067POPC   C1A41127  28.210  11.264   6.178
 3067POPC   D2A41128  28.231  11.502   6.563
 3067POPC   C3A41129  28.163  11.296   6.931
 3067POPC   C4A41130  28.376  11.307   7.302
 3067POPC   C1B41131  28.487  10.824   6.159
 3067POPC   C2B41132  28.424  10.985   6.600
 3067POPC   C3B41133  28.493  10.851   7.050
 3067POPC   C4B41134  28.529  10.851   7.513
 3068POPC   NC341135  10.156  28.402   5.370
 3068POPC   PO441136  10.764  28.735   5.472
 3068POPC   GL141137  10.427  28.653   5.723
 3068POPC   GL241138  10.567  28.306   5.772
 3068POPC   C1A41139  10.190  28.484   6.072
 3068POPC   D2A41140  10.341  28.293   6.452
 3068POPC   C3A41141  10.166  28.459   6.843
 3068POPC   C4A41142  10.167  28.329   7.294
 3068POPC   C1B41143  10.703  28.558   6.156
 3068POPC   C2B41144  10.740  28.650   6.608
 3068POPC   C3B41145  10.627  28.545   7.030
 3068POPC   C4B41146  10.875  28.238   7.157
 3069POPC   NC341147  38.199   7.634   5.689
 3069POPC   PO441148  38.113   8.201   5.355
 3069POPC   GL141149  38.269   8.162   5.799
 3069POPC   GL241150  38.594   7.939   5.823
 3069POPC   C1A41151  38.196   8.316   6.248
 3069POPC   D2A41152  38.295   8.151   6.693
 3069POPC   C3A41153  38.452   8.432   7.006
 3069POPC   C4A41154  38.435   8.436   7.467
 3069POPC   C1B41155  38.510   7.903   6.276
 3069POPC   C2B41156  38.676   7.775   6.687
 3069POPC   C3B41157  38.667   7.978   7.114
 3069POPC   C4B41158  38.922   7.942   7.485
 3070POPC   NC341159  29.523  35.905   5.541
 3070POPC   PO441160  28.921  36.276   5.435
 3070POPC   GL141161  29.165  36.217   5.806
 3070POPC   GL241162  29.194  35.876   5.955
 3070POPC   C1A41163  29.263  36.286   6.243
 3070POPC   D2A41164  29.297  35.984   6.568
 3070POPC   C3A41165  29.246  36.105   7.005
 3070POPC   C4A41166  29.296  36.355   7.403
 3070POPC   C1B41167  28.870  35.816   6.307
 3070POPC   C2B41168  28.920  35.702   6.775
 3070POPC   C3B41169  28.916  35.774   7.224
 3070POPC   C4B41170  28.704  35.807   7.639
 3071POPC   NC341171  35.622  27.477   5.409
 3071POPC   PO441172  35.254  27.105   5.601
 3071POPC   GL141173  35.560  27.316   5.915
 3071POPC   GL241174  35.572  27.682   5.915
 3071POPC   C1A41175  35.595  27.418   6.393
 3071POPC   D2A41176  35.563  27.671   6.807
 3071POPC   C3A41177  35.418  27.416   7.177
 3071POPC   C4A41178  35.056  27.429   7.459
 3071POPC   C1B41179  35.459  27.904   6.326
 3071POPC   C2B41180  35.126  27.912   6.661
 3071POPC   C3B41181  35.034  27.765   7.085
 3071POPC   C4B41182  35.188  27.928   7.493
 3072POPC   NC341183   5.506  31.842   5.476
 3072POPC   PO441184   4.995  31.480   5.131
 3072POPC   GL141185   4.965  31.594   5.652
 3072POPC   GL241186   5.248  31.716   5.866
 3072POPC   C1A41187   4.837  31.782   6.127
 3072POPC   D2A41188   4.962  31.577   6.528
 3072POPC   C3A41189   4.769  31.575   6.929
 3072POPC   C4A41190   4.737  31.516   7.329
 3072POPC   C1B41191   5.242  31.404   6.133
 3072POPC   C2B41192   5.440  31.368   6.528
 3072POPC   C3B41193   5.284  31.398   6.937
 3072POPC   C4B41194   5.230  31.707   7.252
 3073POPC   NC341195  15.965  22.447   5.536
 3073POPC   PO441196  15.695  21.876   5.305
 3073POPC   GL141197  15.637  22.050   5.740
 3073POPC   GL241198  15.519  22.372   5.867
 3073POPC   C1A41199  15.751  22.032   6.194
 3073POPC   D2A41200  15.795  21.953   6.638
 3073POPC   C3A41201  15.929  22.124   7.065
 3073POPC   C4A41202  16.094  21.878   7.413
 3073POPC   C1B41203  15.841  22.541   6.182
 3073POPC   C2B41204  15.998  22.447   6.612
 3073POPC   C3B41205  16.018  22.659   7.032
 3073POPC   C4B41206  15.962  22.544   7.476
 3074POPC   NC341207   6.487  25.624   5.636
 3074POPC   PO441208   6.859  25.136   5.465
 3074POPC   GL141209   6.660  25.189   5.854
 3074POPC   GL241210   6.332  25.046   5.776
 3074POPC   C1A41211   6.763  25.485   6.225
 3074POPC   D2A41212   6.903  25.527   6.661
 3074POPC   C3A41213   6.785  25.167   6.900
 3074POPC   C4A41214   6.875  25.018   7.317
 3074POPC   C1B41215   6.288  25.251   6.201
 3074POPC   C2B41216   6.345  25.109   6.619
 3074POPC   C3B41217   6.306  25.268   7.042
 3074POPC   C4B41218   6.605  25.442   7.358
 3075POPC   NC341219   3.667  31.727   5.205
 3075POPC   PO441220   3.207  31.247   5.317
 3075POPC   GL141221   3.400  31.250   5.741
 3075POPC   GL241222   3.698  31.485   5.690
 3075POPC   C1A41223   3.333  31.285   6.223
 3075POPC   D2A41224   3.108  31.491   6.598
 3075POPC   C3A41225   3.308  31.392   6.990
 3075POPC   C4A41226   3.761  31.361   7.066
 3075POPC   C1B41227   3.647  31.676   6.112
 3075POPC   C2B41228   3.622  31.605   6.562
 3075POPC   C3B41229   3.605  31.840   6.936
 3075POPC   C4B41230   3.942  31.821   7.209
 3076POPC   NC341231   8.131   2.995   5.513
 3076POPC   PO441232   8.696   2.543   5.470
 3076POPC   GL141233   8.316   2.611   5.788
 3076POPC   GL241234   8.266   2.988   5.980
 3076POPC   C1A41235   8.071   2.575   6.192
 3076POPC   D2A41236   8.139   2.831   6.577
 3076POPC   C3A41237   7.973   2.800   6.999
 3076POPC   C4A41238   7.721   2.844   7.367
 3076POPC   C1B41239   8.566   2.804   6.197
 3076POPC   C2B41240   8.621   2.629   6.572
 3076POPC   C3B41241   8.545   2.748   6.928
 3076POPC   C4B41242   8.380   2.755   7.313
 3077POPC   NC341243  43.270  40.725   5.348
 3077POPC   PO441244  42.568  40.536   5.558
 3077POPC   GL141245  42.881  40.820   5.759
 3077POPC   GL241246  43.251  40.851   5.832
 3077POPC   C1A41247  42.858  40.961   6.170
 3077POPC   D2A41248  42.972  40.774   6.554
 3077POPC   C3A41249  42.947  41.012   6.930
 3077POPC   C4A41250  42.992  40.826   7.310
 3077POPC   C1B41251  43.394  40.913   6.241
 3077POPC   C2B41252  43.471  40.940   6.682
 3077POPC   C3B41253  43.448  40.946   7.126
 3077POPC   C4B41254  43.334  41.117   7.517
 3078POPC   NC341255   9.150  38.722   5.068
 3078POPC   PO441256   8.824  38.176   5.267
 3078POPC   GL141257   8.898  38.329   5.673
 3078POPC   GL241258   9.213  38.523   5.665
 3078POPC   C1A41259   8.950  38.393   6.108
 3078POPC   D2A41260   8.776  38.530   6.459
 3078POPC   C3A41261   8.979  38.483   6.817
 3078POPC   C4A41262   8.856  38.411   7.223
 3078POPC   C1B41263   9.432  38.581   6.072
 3078POPC   C2B41264   9.395  38.616   6.511
 3078POPC   C3B41265   9.473  38.438   6.916
 3078POPC   C4B41266   9.321  38.589   7.309
 3079POPC   NC341267  28.908  26.799   5.463
 3079POPC   PO441268  29.393  26.415   5.162
 3079POPC   GL141269  29.335  26.455   5.641
 3079POPC   GL241270  29.332  26.775   5.793
 3079POPC   C1A41271  29.224  26.438   6.122
 3079POPC   D2A41272  29.028  26.577   6.519
 3079POPC   C3A41273  29.176  26.671   6.894
 3079POPC   C4A41274  29.396  26.599   7.245
 3079POPC   C1B41275  29.057  26.949   6.155
 3079POPC   C2B41276  29.015  27.110   6.605
 3079POPC   C3B41277  28.832  27.077   7.031
 3079POPC   C4B41278  28.983  26.887   7.392
 3080POPC   NC341279  42.657   5.047   5.276
 3080POPC   PO441280  42.037   4.823   5.255
 3080POPC   GL141281  42.299   5.031   5.689
 3080POPC   GL241282  42.617   5.196   5.751
 3080POPC   C1A41283  42.296   5.275   6.140
 3080POPC   D2A41284  41.988   5.325   6.494
 3080POPC   C3A41285  42.170   5.249   6.864
 3080POPC   C4A41286  42.068   5.124   7.245
 3080POPC   C1B41287  42.752   5.033   6.090
 3080POPC   C2B41288  42.674   5.159   6.477
 3080POPC   C3B41289  42.679   5.237   6.900
 3080POPC   C4B41290  42.646   4.909   7.193
 3081POPC   NC341291  13.296  11.886   5.395
 3081POPC   PO441292  13.768  12.385   5.397
 3081POPC   GL141293  13.675  12.146   5.787
 3081POPC   GL241294  13.409  11.900   5.896
 3081POPC   C1A41295  13.576  12.250   6.229
 3081POPC   D2A41296  13.755  12.319   6.626
 3081POPC   C3A41297  13.553  12.276   7.008
 3081POPC   C4A41298  13.956  12.269   7.191
 3081POPC   C1B41299  13.320  11.818   6.334
 3081POPC   C2B41300  13.574  11.822   6.689
 3081POPC   C3B41301  13.700  11.793   7.093
 3081POPC   C4B41302  13.247  11.834   7.124
 3082POPC   NC341303  21.295  19.665   5.317
 3082POPC   PO441304  21.148  20.206   5.702
 3082POPC   GL141305  21.379  19.970   5.977
 3082POPC   GL241306  21.486  19.698   5.794
 3082POPC   C1A41307  21.418  19.985   6.416
 3082POPC   D2A41308  21.076  20.071   6.694
 3082POPC   C3A41309  21.189  20.038   7.101
 3082POPC   C4A41310  21.530  19.762   7.203
 3082POPC   C1B41311  21.294  19.530   6.183
 3082POPC   C2B41312  21.275  19.483   6.626
 3082POPC   C3B41313  21.060  19.556   6.994
 3082POPC   C4B41314  20.992  19.664   7.418
 3083POPC   NC341315   4.664  31.992   5.521
 3083POPC   PO441316   4.113  31.578   5.335
 3083POPC   GL141317   4.235  31.490   5.769
 3083POPC   GL241318   4.511  31.265   5.705
 3083POPC   C1A41319   4.127  31.509   6.232
 3083POPC   D2A41320   4.030  31.280   6.618
 3083POPC   C3A41321   4.251  31.481   6.969
 3083POPC   C4A41322   4.263  31.360   7.399
 3083POPC   C1B41323   4.614  31.336   6.140
 3083POPC   C2B41324   4.549  31.263   6.589
 3083POPC   C3B41325   4.595  31.096   7.040
 3083POPC   C4B41326   4.708  31.041   7.497
 3084POPC   NC341327   1.019  17.727   5.467
 3084POPC   PO441328   1.612  17.432   5.311
 3084POPC   GL141329   1.476  17.476   5.770
 3084POPC   GL241330   1.118  17.535   5.930
 3084POPC   C1A41331   1.546  17.675   6.168
 3084POPC   D2A41332   1.273  17.556   6.509
 3084POPC   C3A41333   1.260  17.674   6.930
 3084POPC   C4A41334   1.425  17.651   7.298
 3084POPC   C1B41335   0.866  17.356   6.305
 3084POPC   C2B41336   0.855  17.348   6.777
 3084POPC   C3B41337   0.831  17.543   7.197
 3084POPC   C4B41338   0.933  17.426   7.631
 3085POPC   NC341339  35.515  10.880   5.571
 3085POPC   PO441340  35.452  11.508   5.247
 3085POPC   GL141341  35.485  11.402   5.715
 3085POPC   GL241342  35.649  11.137   5.958
 3085POPC   C1A41343  35.480  11.571   6.129
 3085POPC   D2A41344  35.322  11.692   6.524
 3085POPC   C3A41345  35.212  11.474   6.885
 3085POPC   C4A41346  35.417  11.593   7.267
 3085POPC   C1B41347  35.324  11.073   6.252
 3085POPC   C2B41348  35.355  10.922   6.669
 3085POPC   C3B41349  35.505  11.109   7.031
 3085POPC   C4B41350  35.735  11.103   7.383
 3086POPC   NC341351  16.075  21.517   5.186
 3086POPC   PO441352  15.703  21.142   5.557
 3086POPC   GL141353  15.955  21.322   5.833
 3086POPC   GL241354  15.949  21.641   5.700
 3086POPC   C1A41355  15.896  21.524   6.239
 3086POPC   D2A41356  15.698  21.391   6.617
 3086POPC   C3A41357  15.765  21.592   6.999
 3086POPC   C4A41358  15.959  21.391   7.283
 3086POPC   C1B41359  16.206  21.888   5.966
 3086POPC   C2B41360  16.259  21.869   6.412
 3086POPC   C3B41361  16.286  21.819   6.864
 3086POPC   C4B41362  16.432  21.550   7.196
 3087POPC   NC341363  31.829  36.995   5.461
 3087POPC   PO441364  32.437  36.724   5.187
 3087POPC   GL141365  32.330  37.072   5.574
 3087POPC   GL241366  32.107  36.917   5.877
 3087POPC   C1A41367  32.414  37.300   6.018
 3087POPC   D2A41368  32.319  37.049   6.416
 3087POPC   C3A41369  32.556  37.030   6.816
 3087POPC   C4A41370  32.368  37.202   7.187
 3087POPC   C1B41371  31.860  36.801   6.257
 3087POPC   C2B41372  31.980  36.709   6.676
 3087POPC   C3B41373  32.204  36.711   7.039
 3087POPC   C4B41374  32.108  36.823   7.450
 3088POPC   NC341375   4.214  29.345   5.279
 3088POPC   PO441376   4.677  28.810   5.286
 3088POPC   GL141377   4.520  28.788   5.716
 3088POPC   GL241378   4.193  28.977   5.771
 3088POPC   C1A41379   4.539  28.991   6.142
 3088POPC   D2A41380   4.291  29.065   6.511
 3088POPC   C3A41381   4.522  29.140   6.889
 3088POPC   C4A41382   4.341  29.089   7.313
 3088POPC   C1B41383   4.158  29.358   6.078
 3088POPC   C2B41384   4.192  29.552   6.525
 3088POPC   C3B41385   4.066  29.357   6.920
 3088POPC   C4B41386   3.854  29.328   7.316
 3089POPC   NC341387  23.128  25.593   5.332
 3089POPC   PO441388  22.690  25.133   5.433
 3089POPC   GL141389  22.780  25.410   5.749
 3089POPC   GL241390  23.095  25.296   5.817
 3089POPC   C1A41391  22.703  25.292   6.188
 3089POPC   D2A41392  22.927  25.272   6.543
 3089POPC   C3A41393  22.785  25.448   6.901
 3089POPC   C4A41394  22.752  25.687   7.245
 3089POPC   C1B41395  23.112  24.965   6.141
 3089POPC   C2B41396  23.066  24.779   6.563
 3089POPC   C3B41397  22.884  24.933   6.943
 3089POPC   C4B41398  22.957  25.181   7.323
 3090POPC   NC341399  19.909  10.312   5.336
 3090POPC   PO441400  19.522  10.847   5.327
 3090POPC   GL141401  19.876  10.741   5.668
 3090POPC   GL241402  19.876  10.381   5.845
 3090POPC   C1A41403  20.067  10.764   6.104
 3090POPC   D2A41404  20.164  10.495   6.468
 3090POPC   C3A41405  19.869  10.525   6.803
 3090POPC   C4A41406  19.824  10.729   7.179
 3090POPC   C1B41407  19.776  10.211   6.277
 3090POPC   C2B41408  19.951  10.026   6.669
 3090POPC   C3B41409  20.223  10.166   6.997
 3090POPC   C4B41410  20.242  10.445   7.371
 3091POPC   NC341411  12.367  17.217   5.411
 3091POPC   PO441412  12.032  16.663   5.321
 3091POPC   GL141413  12.220  16.652   5.753
 3091POPC   GL241414  12.266  16.320   5.906
 3091POPC   C1A41415  12.200  16.717   6.219
 3091POPC   D2A41416  12.402  16.716   6.605
 3091POPC   C3A41417  12.179  16.890   6.893
 3091POPC   C4A41418  11.775  16.880   7.033
 3091POPC   C1B41419  12.512  16.313   6.285
 3091POPC   C2B41420  12.348  16.222   6.704
 3091POPC   C3B41421  12.166  16.426   7.072
 3091POPC   C4B41422  12.241  16.324   7.491
 3092POPC   NC341423  34.778  44.951   5.586
 3092POPC   PO441424  34.191  44.671   5.366
 3092POPC   GL141425  34.419  44.673   5.821
 3092POPC   GL241426  34.694  44.431   5.770
 3092POPC   C1A41427  34.430  44.808   6.287
 3092POPC   D2A41428  34.635   0.120   6.593
 3092POPC   C3A41429  34.684  44.905   6.993
 3092POPC   C4A41430  34.372  44.627   7.189
 3092POPC   C1B41431  34.749  44.386   6.234
 3092POPC   C2B41432  34.588  44.467   6.671
 3092POPC   C3B41433  34.788  44.385   7.075
 3092POPC   C4B41434  34.873  44.570   7.463
 3093POPC   NC341435  34.190  10.022   5.514
 3093POPC   PO441436  34.829  10.003   5.201
 3093POPC   GL141437  34.746   9.879   5.682
 3093POPC   GL241438  34.457  10.007   5.935
 3093POPC   C1A41439  34.781   9.701   6.136
 3093POPC   D2A41440  34.545   9.910   6.478
 3093POPC   C3A41441  34.511   9.649   6.845
 3093POPC   C4A41442  34.610   9.768   7.251
 3093POPC   C1B41443  34.179  10.266   6.199
 3093POPC   C2B41444  34.225  10.389   6.626
 3093POPC   C3B41445  34.347  10.121   6.975
 3093POPC   C4B41446  34.242  10.065   7.428
 3094POPC   NC341447  12.501  29.341   5.503
 3094POPC   PO441448  13.169  29.221   5.504
 3094POPC   GL141449  12.889  29.176   5.815
 3094POPC   GL241450  12.699  28.868   5.732
 3094POPC   C1A41451  12.765  29.431   6.163
 3094POPC   D2A41452  12.592  29.418   6.560
 3094POPC   C3A41453  12.805  29.598   6.906
 3094POPC   C4A41454  12.800  29.405   7.300
 3094POPC   C1B41455  12.641  28.921   6.192
 3094POPC   C2B41456  12.412  28.919   6.569
 3094POPC   C3B41457  12.599  29.061   6.932
 3094POPC   C4B41458  12.821  28.824   7.217
 3095POPC   NC341459   0.497  27.268   5.262
 3095POPC   PO441460  44.998  27.689   5.128
 3095POPC   GL141461   0.203  27.700   5.581
 3095POPC   GL241462   0.556  27.710   5.705
 3095POPC   C1A41463   0.199  27.553   6.038
 3095POPC   D2A41464   0.336  27.738   6.446
 3095POPC   C3A41465   0.374  27.578   6.887
 3095POPC   C4A41466   0.567  27.828   7.234
 3095POPC   C1B41467   0.715  27.544   6.130
 3095POPC   C2B41468   0.672  27.316   6.520
 3095POPC   C3B41469   0.818  27.335   6.938
 3095POPC   C4B41470   0.625  27.329   7.326
 3096POPC   NC341471   3.379  42.739   5.215
 3096POPC   PO441472   3.757  43.130   5.428
 3096POPC   GL141473   3.408  42.958   5.690
 3096POPC   GL241474   3.341  43.246   5.861
 3096POPC   C1A41475   3.189  42.833   6.114
 3096POPC   D2A41476   3.323  42.769   6.569
 3096POPC   C3A41477   3.244  42.757   7.029
 3096POPC   C4A41478   3.528  42.575   7.353
 3096POPC   C1B41479   3.276  43.283   6.354
 3096POPC   C2B41480   3.326  43.235   6.817
 3096POPC   C3B41481   3.516  43.153   7.251
 3096POPC   C4B41482   3.355  43.340   7.655
 3097POPC   NC341483  40.107  21.926   5.235
 3097POPC   PO441484  39.775  22.509   5.157
 3097POPC   GL141485  40.010  22.404   5.586
 3097POPC   GL241486  40.116  22.086   5.716
 3097POPC   C1A41487  39.992  22.458   6.056
 3097POPC   D2A41488  40.179  22.633   6.433
 3097POPC   C3A41489  39.920  22.559   6.815
 3097POPC   C4A41490  40.172  22.245   7.074
 3097POPC   C1B41491  39.737  22.011   5.994
 3097POPC   C2B41492  39.736  21.986   6.468
 3097POPC   C3B41493  39.706  22.105   6.921
 3097POPC   C4B41494  39.840  21.960   7.340
 3098POPC   NC341495  36.921   9.050   5.322
 3098POPC   PO441496  36.323   9.038   5.596
 3098POPC   GL141497  36.725   9.080   5.823
 3098POPC   GL241498  36.931   8.777   5.783
 3098POPC   C1A41499  37.050   9.095   6.165
 3098POPC   D2A41500  37.147   8.998   6.614
 3098POPC   C3A41501  36.891   9.266   6.868
 3098POPC   C4A41502  36.722   9.257   7.304
 3098POPC   C1B41503  37.194   8.616   6.140
 3098POPC   C2B41504  37.093   8.505   6.503
 3098POPC   C3B41505  37.111   8.540   6.922
 3098POPC   C4B41506  37.008   8.882   7.161
 3099POPC   NC341507  10.941  39.221   5.589
 3099POPC   PO441508  10.287  39.418   5.387
 3099POPC   GL141509  10.447  39.185   5.732
 3099POPC   GL241510  10.234  38.944   5.820
 3099POPC   C1A41511  10.567  39.351   6.146
 3099POPC   D2A41512  10.640  39.233   6.555
 3099POPC   C3A41513  10.529  39.446   6.921
 3099POPC   C4A41514  10.798  39.343   7.259
 3099POPC   C1B41515  10.396  38.873   6.244
 3099POPC   C2B41516  10.256  38.915   6.657
 3099POPC   C3B41517  10.252  39.046   7.105
 3099POPC   C4B41518  10.217  38.984   7.557
 3100POPC   NC341519  32.782  16.881   5.544
 3100POPC   PO441520  33.293  16.452   5.299
 3100POPC   GL141521  33.096  16.494   5.709
 3100POPC   GL241522  33.218  16.801   5.853
 3100POPC   C1A41523  33.018  16.417   6.153
 3100POPC   D2A41524  33.016  16.278   6.590
 3100POPC   C3A41525  33.042  16.529   6.989
 3100POPC   C4A41526  32.783  16.718   7.287
 3100POPC   C1B41527  33.003  16.943   6.249
 3100POPC   C2B41528  32.992  16.982   6.720
 3100POPC   C3B41529  32.998  17.157   7.147
 3100POPC   C4B41530  33.157  16.952   7.535
 3101POPC   NC341531  36.862  35.127   5.412
 3101POPC   PO441532  36.511  35.681   5.270
 3101POPC   GL141533  36.679  35.434   5.759
 3101POPC   GL241534  36.647  35.097   5.883
 3101POPC   C1A41535  36.748  35.452   6.248
 3101POPC   D2A41536  37.084  35.566   6.551
 3101POPC   C3A41537  37.136  35.501   6.987
 3101POPC   C4A41538  36.888  35.483   7.321
 3101POPC   C1B41539  36.550  34.957   6.276
 3101POPC   C2B41540  36.729  35.027   6.663
 3101POPC   C3B41541  36.817  35.028   7.085
 3101POPC   C4B41542  37.213  35.014   7.185
 3102POPC   NC341543   1.087  43.314   5.634
 3102POPC   PO441544   1.376  43.998   5.503
 3102POPC   GL141545   1.251  43.775   5.848
 3102POPC   GL241546   1.516  43.514   5.869
 3102POPC   C1A41547   0.972  43.877   6.199
 3102POPC   D2A41548   1.090  43.783   6.622
 3102POPC   C3A41549   1.018  43.897   7.040
 3102POPC   C4A41550   1.344  43.747   7.277
 3102POPC   C1B41551   1.491  43.559   6.333
 3102POPC   C2B41552   1.573  43.650   6.770
 3102POPC   C3B41553   1.482  44.059   6.885
 3102POPC   C4B41554   1.535  44.222   7.295
 3103POPC   NC341555  28.301   7.633   5.275
 3103POPC   PO441556  28.716   7.145   5.502
 3103POPC   GL141557  28.677   7.348   5.906
 3103POPC   GL241558  28.607   7.715   5.840
 3103POPC   C1A41559  28.602   7.113   6.306
 3103POPC   D2A41560  28.600   7.068   6.762
 3103POPC   C3A41561  28.282   7.270   7.002
 3103POPC   C4A41562  28.260   7.404   7.438
 3103POPC   C1B41563  28.477   7.642   6.299
 3103POPC   C2B41564  28.642   7.603   6.736
 3103POPC   C3B41565  28.564   7.750   7.170
 3103POPC   C4B41566  28.544   7.756   7.669
 3104POPC   NC341567  30.028  33.541   5.363
 3104POPC   PO441568  29.555  33.982   5.242
 3104POPC   GL141569  29.671  33.781   5.667
 3104POPC   GL241570  29.987  33.912   5.768
 3104POPC   C1A41571  29.689  33.527   6.082
 3104POPC   D2A41572  29.920  33.415   6.484
 3104POPC   C3A41573  29.813  33.554   6.924
 3104POPC   C4A41574  29.660  33.483   7.341
 3104POPC   C1B41575  30.124  33.802   6.171
 3104POPC   C2B41576  30.003  33.902   6.590
 3104POPC   C3B41577  30.215  33.863   6.981
 3104POPC   C4B41578  30.041  33.826   7.403
 3105POPC   NC341579  33.243  34.073   5.481
 3105POPC   PO441580  32.820  33.559   5.515
 3105POPC   GL141581  33.197  33.669   5.811
 3105POPC   GL241582  33.045  33.969   5.942
 3105POPC   C1A41583  33.442  33.555   6.227
 3105POPC   D2A41584  33.379  33.605   6.708
 3105POPC   C3A41585  33.198  34.006   6.864
 3105POPC   C4A41586  33.139  34.280   7.223
 3105POPC   C1B41587  32.934  33.626   6.236
 3105POPC   C2B41588  32.796  33.699   6.643
 3105POPC   C3B41589  32.936  33.565   7.026
 3105POPC   C4B41590  32.786  33.519   7.445
 3106POPC   NC341591   0.065  19.889   5.437
 3106POPC   PO441592   0.630  19.538   5.409
 3106POPC   GL141593   0.515  19.801   5.791
 3106POPC   GL241594   0.232  19.641   5.864
 3106POPC   C1A41595   0.336  19.947   6.261
 3106POPC   D2A41596   0.222  20.142   6.695
 3106POPC   C3A41597   0.273  20.046   7.172
 3106POPC   C4A41598   0.120  20.341   7.545
 3106POPC   C1B41599   0.498  19.478   6.196
 3106POPC   C2B41600   0.510  19.562   6.602
 3106POPC   C3B41601   0.762  19.554   6.951
 3106POPC   C4B41602   0.698  19.702   7.367
 3107POPC   NC341603  27.652  44.179   5.436
 3107POPC   PO441604  27.936  43.511   5.529
 3107POPC   GL141605  27.666  43.737   5.839
 3107POPC   GL241606  27.634  44.077   5.918
 3107POPC   C1A41607  27.631  43.768   6.306
 3107POPC   D2A41608  27.378  43.921   6.636
 3107POPC   C3A41609  27.514  43.741   7.009
 3107POPC   C4A41610  27.934  43.599   7.188
 3107POPC   C1B41611  27.770  44.284   6.254
 3107POPC   C2B41612  27.877  44.144   6.637
 3107POPC   C3B41613  27.826  44.133   7.069
 3107POPC   C4B41614  28.044  44.128   7.421
 3108POPC   NC341615  39.969  20.295   5.402
 3108POPC   PO441616  39.992  20.954   5.565
 3108POPC   GL141617  40.213  20.625   5.733
 3108POPC   GL241618  40.428  20.841   5.877
 3108POPC   C1A41619  40.073  20.493   6.145
 3108POPC   D2A41620  39.782  20.605   6.487
 3108POPC   C3A41621  39.992  20.483   6.850
 3108POPC   C4A41622  39.883  20.329   7.226
 3108POPC   C1B41623  40.245  21.043   6.218
 3108POPC   C2B41624  40.140  20.952   6.629
 3108POPC   C3B41625  40.382  20.869   6.992
 3108POPC   C4B41626  40.366  20.956   7.444
 3109POPC   NC341627  11.083  31.731   5.409
 3109POPC   PO441628  11.398  31.120   5.402
 3109POPC   GL141629  11.104  31.314   5.742
 3109POPC   GL241630  10.958  31.661   5.877
 3109POPC   C1A41631  11.231  31.323   6.174
 3109POPC   D2A41632  11.438  31.507   6.541
 3109POPC   C3A41633  11.494  31.328   6.941
 3109POPC   C4A41634  11.269  31.507   7.266
 3109POPC   C1B41635  11.092  31.806   6.248
 3109POPC   C2B41636  10.975  31.676   6.654
 3109POPC   C3B41637  11.005  31.881   7.032
 3109POPC   C4B41638  11.209  32.030   7.397
 3110POPC   NC341639  26.635   4.174   5.502
 3110POPC   PO441640  26.895   4.698   5.255
 3110POPC   GL141641  26.904   4.523   5.741
 3110POPC   GL241642  26.993   4.227   5.870
 3110POPC   C1A41643  26.620   4.437   6.141
 3110POPC   D2A41644  26.745   4.365   6.575
 3110POPC   C3A41645  26.473   4.418   6.912
 3110POPC   C4A41646  26.551   4.156   7.259
 3110POPC   C1B41647  27.138   4.484   6.234
 3110POPC   C2B41648  27.176   4.627   6.682
 3110POPC   C3B41649  26.965   4.471   7.079
 3110POPC   C4B41650  26.784   4.529   7.519
 3111POPC   NC341651  13.278   5.018   5.553
 3111POPC   PO441652  13.944   5.349   5.619
 3111POPC   GL141653  13.778   5.063   5.890
 3111POPC   GL241654  13.462   5.191   5.993
 3111POPC   C1A41655  13.891   5.118   6.323
 3111POPC   D2A41656  13.738   5.181   6.750
 3111POPC   C3A41657  13.860   4.991   7.138
 3111POPC   C4A41658  13.708   5.086   7.563
 3111POPC   C1B41659  13.435   4.868   6.290
 3111POPC   C2B41660  13.286   4.951   6.680
 3111POPC   C3B41661  13.340   5.012   7.095
 3111POPC   C4B41662  13.206   4.933   7.482
 3112POPC   NC341663  27.124  36.752   5.600
 3112POPC   PO441664  27.614  37.324   5.482
 3112POPC   GL141665  27.399  37.146   5.779
 3112POPC   GL241666  27.621  36.890   5.786
 3112POPC   C1A41667  27.286  36.970   6.194
 3112POPC   D2A41668  27.522  36.943   6.555
 3112POPC   C3A41669  27.393  36.726   6.887
 3112POPC   C4A41670  27.391  36.945   7.243
 3112POPC   C1B41671  27.770  36.698   6.170
 3112POPC   C2B41672  27.940  36.470   6.539
 3112POPC   C3B41673  27.949  36.431   6.987
 3112POPC   C4B41674  27.945  36.798   7.267
 3113POPC   NC341675  20.170  27.047   5.375
 3113POPC   PO441676  20.263  27.742   5.556
 3113POPC   GL141677  19.972  27.414   5.740
 3113POPC   GL241678  19.599  27.506   5.712
 3113POPC   C1A41679  19.876  27.357   6.196
 3113POPC   D2A41680  20.149  27.337   6.598
 3113POPC   C3A41681  20.145  27.566   6.995
 3113POPC   C4A41682  19.875  27.909   7.099
 3113POPC   C1B41683  19.354  27.347   6.090
 3113POPC   C2B41684  19.438  27.197   6.523
 3113POPC   C3B41685  19.714  27.228   6.887
 3113POPC   C4B41686  19.734  27.367   7.307
 3114POPC   NC341687  16.011   9.151   5.601
 3114POPC   PO441688  15.480   8.977   5.328
 3114POPC   GL141689  15.699   8.881   5.862
 3114POPC   GL241690  15.665   9.178   6.063
 3114POPC   C1A41691  16.095   8.955   6.213
 3114POPC   D2A41692  16.130   9.264   6.575
 3114POPC   C3A41693  15.925   9.108   6.953
 3114POPC   C4A41694  16.111   8.976   7.325
 3114POPC   C1B41695  15.629   8.865   6.390
 3114POPC   C2B41696  15.489   8.847   6.786
 3114POPC   C3B41697  15.633   8.718   7.195
 3114POPC   C4B41698  15.722   8.750   7.611
 3115POPC   NC341699  42.089  40.287   5.596
 3115POPC   PO441700  42.424  39.779   5.264
 3115POPC   GL141701  42.309  39.829   5.699
 3115POPC   GL241702  42.507  40.103   5.828
 3115POPC   C1A41703  42.187  39.837   6.154
 3115POPC   D2A41704  42.093  39.761   6.600
 3115POPC   C3A41705  42.227  40.095   6.863
 3115POPC   C4A41706  42.090  40.268   7.229
 3115POPC   C1B41707  42.705  39.875   6.150
 3115POPC   C2B41708  42.579  39.861   6.550
 3115POPC   C3B41709  42.692  39.944   6.964
 3115POPC   C4B41710  42.531  40.032   7.371
 3116POPC   NC341711   2.667  12.173   5.391
 3116POPC   PO441712   2.677  11.511   5.496
 3116POPC   GL141713   2.709  11.754   5.864
 3116POPC   GL241714   2.919  12.075   5.841
 3116POPC   C1A41715   2.661  11.961   6.258
 3116POPC   D2A41716   2.507  12.231   6.580
 3116POPC   C3A41717   2.576  12.061   6.989
 3116POPC   C4A41718   2.547  12.247   7.365
 3116POPC   C1B41719   3.150  12.196   6.263
 3116POPC   C2B41720   3.216  12.186   6.743
 3116POPC   C3B41721   3.030  12.244   7.173
 3116POPC   C4B41722   2.884  11.878   7.408
 3117POPC   NC341723   0.024  38.723   4.950
 3117POPC   PO441724  44.711  38.478   5.519
 3117POPC   GL141725  44.760  38.378   5.907
 3117POPC   GL241726   0.008  38.120   5.912
 3117POPC   C1A41727  44.678  38.571   6.296
 3117POPC   D2A41728  44.702  38.421   6.668
 3117POPC   C3A41729  44.492  38.580   6.964
 3117POPC   C4A41730  44.567  38.470   7.379
 3117POPC   C1B41731   0.167  38.452   6.226
 3117POPC   C2B41732   0.172  38.593   6.625
 3117POPC   C3B41733   0.019  38.554   7.041
 3117POPC   C4B41734   0.105  38.711   7.441
 3118POPC   NC341735   1.840  12.563   5.543
 3118POPC   PO441736   2.090  13.128   5.119
 3118POPC   GL141737   2.042  13.104   5.608
 3118POPC   GL241738   2.342  12.943   5.736
 3118POPC   C1A41739   1.979  12.996   6.108
 3118POPC   D2A41740   1.872  12.777   6.552
 3118POPC   C3A41741   1.900  13.032   6.968
 3118POPC   C4A41742   2.111  13.413   7.144
 3118POPC   C1B41743   2.500  12.924   6.141
 3118POPC   C2B41744   2.410  12.764   6.562
 3118POPC   C3B41745   2.211  12.607   6.946
 3118POPC   C4B41746   2.259  12.634   7.404
 3119POPC   NC341747  16.236  39.046   5.359
 3119POPC   PO441748  15.908  39.679   5.228
 3119POPC   GL141749  15.887  39.496   5.672
 3119POPC   GL241750  16.167  39.305   5.792
 3119POPC   C1A41751  15.829  39.458   6.147
 3119POPC   D2A41752  16.132  39.470   6.509
 3119POPC   C3A41753  15.990  39.352   6.902
 3119POPC   C4A41754  15.853  39.220   7.311
 3119POPC   C1B41755  16.192  39.078   6.190
 3119POPC   C2B41756  16.254  38.927   6.615
 3119POPC   C3B41757  16.182  38.918   7.067
 3119POPC   C4B41758  16.477  39.004   7.355
 3120POPC   NC341759   0.662  10.557   5.352
 3120POPC   PO441760   0.000  10.428   5.307
 3120POPC   GL141761   0.259  10.520   5.711
 3120POPC   GL241762   0.545  10.285   5.852
 3120POPC   C1A41763   0.264  10.613   6.181
 3120POPC   D2A41764   0.234  10.439   6.629
 3120POPC   C3A41765   0.320  10.729   6.972
 3120POPC   C4A41766   0.347  10.709   7.438
 3120POPC   C1B41767   0.693  10.308   6.325
 3120POPC   C2B41768   0.755  10.532   6.745
 3120POPC   C3B41769   0.764  10.559   7.206
 3120POPC   C4B41770   0.681  10.343   7.604
 3121POPC   NC341771   2.308  13.556   5.099
 3121POPC   PO441772   3.001  13.499   5.296
 3121POPC   GL141773   2.829  13.646   5.694
 3121POPC   GL241774   2.709  13.355   5.863
 3121POPC   C1A41775   2.875  13.750   6.151
 3121POPC   D2A41776   2.989  13.590   6.573
 3121POPC   C3A41777   3.078  13.855   6.922
 3121POPC   C4A41778   2.959  13.703   7.333
 3121POPC   C1B41779   2.472  13.431   6.225
 3121POPC   C2B41780   2.467  13.651   6.619
 3121POPC   C3B41781   2.615  13.525   7.014
 3121POPC   C4B41782   2.537  13.450   7.460
 3122POPC   NC341783  28.771   8.179   5.596
 3122POPC   PO441784  29.128   8.631   5.132
 3122POPC   GL141785  29.338   8.666   5.638
 3122POPC   GL241786  29.226   8.300   5.795
 3122POPC   C1A41787  29.352   8.653   6.120
 3122POPC   D2A41788  29.115   8.564   6.521
 3122POPC   C3A41789  29.337   8.269   6.798
 3122POPC   C4A41790  29.480   8.090   7.193
 3122POPC   C1B41791  28.943   8.229   6.197
 3122POPC   C2B41792  28.812   8.104   6.626
 3122POPC   C3B41793  28.947   8.067   7.060
 3122POPC   C4B41794  28.746   8.158   7.451
 3123POPC   NC341795  42.956  15.382   5.506
 3123POPC   PO441796  43.650  15.374   5.500
 3123POPC   GL141797  43.490  15.015   5.787
 3123POPC   GL241798  43.110  14.999   5.828
 3123POPC   C1A41799  43.375  15.050   6.239
 3123POPC   D2A41800  43.261  15.372   6.545
 3123POPC   C3A41801  43.444  15.302   6.929
 3123POPC   C4A41802  43.253  15.042   7.193
 3123POPC   C1B41803  42.896  15.228   6.184
 3123POPC   C2B41804  42.717  15.349   6.585
 3123POPC   C3B41805  42.911  15.374   6.970
 3123POPC   C4B41806  42.808  15.272   7.372
 3124POPC   NC341807   5.773  34.095   5.676
 3124POPC   PO441808   6.044  33.533   5.414
 3124POPC   GL141809   5.952  33.622   5.846
 3124POPC   GL241810   6.266  33.566   5.942
 3124POPC   C1A41811   5.695  33.747   6.241
 3124POPC   D2A41812   5.586  34.016   6.611
 3124POPC   C3A41813   5.659  33.857   7.039
 3124POPC   C4A41814   5.497  33.557   7.350
 3124POPC   C1B41815   6.166  33.928   6.223
 3124POPC   C2B41816   6.094  33.979   6.701
 3124POPC   C3B41817   6.230  33.833   7.138
 3124POPC   C4B41818   6.413  33.797   7.569
 3125POPC   NC341819  37.738  31.794   5.522
 3125POPC   PO441820  37.436  31.178   5.433
 3125POPC   GL141821  37.469  31.392   5.838
 3125POPC   GL241822  37.341  31.722   5.883
 3125POPC   C1A41823  37.619  31.522   6.270
 3125POPC   D2A41824  37.819  31.889   6.517
 3125POPC   C3A41825  37.930  31.729   6.914
 3125POPC   C4A41826  37.687  31.484   7.193
 3125POPC   C1B41827  37.351  31.958   6.284
 3125POPC   C2B41828  37.267  32.025   6.726
 3125POPC   C3B41829  37.286  31.788   7.105
 3125POPC   C4B41830  37.472  31.772   7.578
 3126POPC   NC341831   4.612   1.014   5.485
 3126POPC   PO441832   4.008   1.318   5.400
 3126POPC   GL141833   4.115   1.425   5.810
 3126POPC   GL241834   4.445   1.341   5.827
 3126POPC   C1A41835   4.181   1.477   6.255
 3126POPC   D2A41836   3.886   1.491   6.595
 3126POPC   C3A41837   4.103   1.354   6.915
 3126POPC   C4A41838   4.172   1.283   7.311
 3126POPC   C1B41839   4.603   1.137   6.191
 3126POPC   C2B41840   4.680   1.262   6.587
 3126POPC   C3B41841   4.606   1.287   6.987
 3126POPC   C4B41842   4.621   1.043   7.323
 3127POPC   NC341843  26.297   2.713   5.295
 3127POPC   PO441844  25.746   3.193   5.373
 3127POPC   GL141845  25.876   2.986   5.758
 3127POPC   GL241846  25.989   2.646   5.710
 3127POPC   C1A41847  25.772   2.804   6.151
 3127POPC   D2A41848  26.040   2.857   6.503
 3127POPC   C3A41849  25.964   2.960   6.939
 3127POPC   C4A41850  26.357   3.092   7.130
 3127POPC   C1B41851  26.257   2.640   6.047
 3127POPC   C2B41852  26.298   2.405   6.414
 3127POPC   C3B41853  26.191   2.491   6.828
 3127POPC   C4B41854  26.246   2.606   7.266
 3128POPC   NC341855   1.961  21.021   5.407
 3128POPC   PO441856   1.836  21.645   5.648
 3128POPC   GL141857   2.049  21.418   5.901
 3128POPC   GL241858   2.099  21.085   5.888
 3128POPC   C1A41859   2.115  21.579   6.278
 3128POPC   D2A41860   1.946  21.749   6.618
 3128POPC   C3A41861   2.218  21.628   6.977
 3128POPC   C4A41862   2.190  21.195   7.160
 3128POPC   C1B41863   1.901  21.126   6.294
 3128POPC   C2B41864   1.984  21.249   6.694
 3128POPC   C3B41865   1.734  21.433   7.014
 3128POPC   C4B41866   1.596  21.065   7.171
 3129POPC   NC341867  20.082  26.422   5.509
 3129POPC   PO441868  19.704  26.977   5.355
 3129POPC   GL141869  19.659  26.983   5.809
 3129POPC   GL241870  19.989  26.858   5.818
 3129POPC   C1A41871  19.735  26.853   6.262
 3129POPC   D2A41872  19.872  26.555   6.584
 3129POPC   C3A41873  19.761  26.724   6.981
 3129POPC   C4A41874  19.959  26.725   7.378
 3129POPC   C1B41875  20.223  26.979   6.179
 3129POPC   C2B41876  20.290  26.861   6.616
 3129POPC   C3B41877  20.190  27.043   7.041
 3129POPC   C4B41878  20.171  27.176   7.496
 3130POPC   NC341879   7.272   2.488   5.525
 3130POPC   PO441880   7.950   2.588   5.380
 3130POPC   GL141881   7.773   2.697   5.783
 3130POPC   GL241882   7.615   3.016   5.762
 3130POPC   C1A41883   7.529   2.562   6.174
 3130POPC   D2A41884   7.289   2.480   6.571
 3130POPC   C3A41885   7.502   2.520   6.992
 3130POPC   C4A41886   7.266   2.610   7.375
 3130POPC   C1B41887   7.792   3.011   6.214
 3130POPC   C2B41888   7.594   2.932   6.652
 3130POPC   C3B41889   7.242   2.958   7.003
 3130POPC   C4B41890   7.309   3.104   7.467
 3131POPC   NC341891  44.979  28.123   5.263
 3131POPC   PO441892   0.343  28.654   5.401
 3131POPC   GL141893   0.348  28.498   5.838
 3131POPC   GL241894   0.415  28.157   5.894
 3131POPC   C1A41895   0.336  28.724   6.226
 3131POPC   D2A41896   0.616  28.744   6.589
 3131POPC   C3A41897   0.441  28.702   7.001
 3131POPC   C4A41898   0.490  28.438   7.358
 3131POPC   C1B41899   0.224  28.229   6.294
 3131POPC   C2B41900   0.167  28.455   6.652
 3131POPC   C3B41901   0.241  28.175   7.001
 3131POPC   C4B41902   0.159  28.080   7.452
 3132POPC   NC341903  22.147  13.829   5.385
 3132POPC   PO441904  22.353  13.160   5.336
 3132POPC   GL141905  22.432  13.372   5.731
 3132POPC   GL241906  22.534  13.722   5.743
 3132POPC   C1A41907  22.171  13.524   6.080
 3132POPC   D2A41908  22.048  13.304   6.471
 3132POPC   C3A41909  22.052  13.531   6.865
 3132POPC   C4A41910  21.803  13.627   7.213
 3132POPC   C1B41911  22.679  13.835   6.182
 3132POPC   C2B41912  22.560  13.920   6.626
 3132POPC   C3B41913  22.522  13.706   7.043
 3132POPC   C4B41914  22.507  13.783   7.487
 3133POPC   NC341915  23.446   9.997   4.881
 3133POPC   PO441916  23.645  10.512   5.311
 3133POPC   GL141917  23.764  10.510   5.769
 3133POPC   GL241918  23.916  10.162   5.874
 3133POPC   C1A41919  23.623  10.432   6.200
 3133POPC   D2A41920  23.443  10.261   6.543
 3133POPC   C3A41921  23.534  10.491   6.932
 3133POPC   C4A41922  23.621  10.687   7.316
 3133POPC   C1B41923  24.044  10.103   6.304
 3133POPC   C2B41924  23.966  10.320   6.687
 3133POPC   C3B41925  23.904  10.197   7.119
 3133POPC   C4B41926  23.872  10.318   7.571
 3134POPC   NC341927   8.745  29.800   5.580
 3134POPC   PO441928   9.071  30.284   5.515
 3134POPC   GL141929   8.978  30.139   5.981
 3134POPC   GL241930   8.710  29.870   6.084
 3134POPC   C1A41931   9.000  30.032   6.466
 3134POPC   D2A41932   8.830  29.739   6.810
 3134POPC   C3A41933   8.731  29.891   7.202
 3134POPC   C4A41934   9.006  30.204   7.431
 3134POPC   C1B41935   9.123  29.649   6.117
 3134POPC   C2B41936   9.412  29.683   6.463
 3134POPC   C3B41937   9.363  29.548   6.885
 3134POPC   C4B41938   9.133  29.552   7.274
 3135POPC   NC341939   6.067  37.972   5.464
 3135POPC   PO441940   5.806  37.396   5.245
 3135POPC   GL141941   5.821  37.490   5.723
 3135POPC   GL241942   5.667  37.825   5.839
 3135POPC   C1A41943   5.924  37.570   6.185
 3135POPC   D2A41944   5.643  37.644   6.535
 3135POPC   C3A41945   5.833  37.843   6.862
 3135POPC   C4A41946   6.110  37.675   7.196
 3135POPC   C1B41947   5.590  38.059   6.242
 3135POPC   C2B41948   5.527  38.265   6.671
 3135POPC   C3B41949   5.612  38.232   7.123
 3135POPC   C4B41950   5.656  37.866   7.343
 3136POPC   NC341951  40.840   9.106   5.487
 3136POPC   PO441952  40.657   8.425   5.380
 3136POPC   GL141953  40.675   8.649   5.766
 3136POPC   GL241954  40.426   8.885   5.775
 3136POPC   C1A41955  40.777   8.694   6.211
 3136POPC   D2A41956  41.085   8.789   6.542
 3136POPC   C3A41957  40.890   8.995   6.879
 3136POPC   C4A41958  40.478   8.869   7.028
 3136POPC   C1B41959  40.572   9.150   6.136
 3136POPC   C2B41960  40.432   9.126   6.564
 3136POPC   C3B41961  40.419   9.382   6.892
 3136POPC   C4B41962  40.647   9.289   7.229
 3137POPC   NC341963   5.922   4.406   5.284
 3137POPC   PO441964   5.328   4.152   5.162
 3137POPC   GL141965   5.629   4.186   5.636
 3137POPC   GL241966   5.885   4.418   5.810
 3137POPC   C1A41967   5.736   4.038   6.106
 3137POPC   D2A41968   5.859   4.124   6.597
 3137POPC   C3A41969   5.760   4.432   6.970
 3137POPC   C4A41970   5.843   4.479   7.440
 3137POPC   C1B41971   6.132   4.350   6.224
 3137POPC   C2B41972   6.176   4.558   6.680
 3137POPC   C3B41973   6.270   4.505   7.155
 3137POPC   C4B41974   6.304   4.373   7.630
 3138POPC   NC341975  13.535  25.444   5.202
 3138POPC   PO441976  13.762  24.903   5.601
 3138POPC   GL141977  13.545  25.154   5.858
 3138POPC   GL241978  13.609  25.500   5.832
 3138POPC   C1A41979  13.336  25.023   6.225
 3138POPC   D2A41980  13.525  24.859   6.576
 3138POPC   C3A41981  13.302  24.949   6.940
 3138POPC   C4A41982  13.295  25.375   7.133
 3138POPC   C1B41983  13.734  25.319   6.285
 3138POPC   C2B41984  13.623  25.345   6.727
 3138POPC   C3B41985  13.792  25.569   7.067
 3138POPC   C4B41986  14.173  25.843   7.074
 3139POPC   NC341987   7.673  13.336   5.419
 3139POPC   PO441988   7.354  13.920   5.457
 3139POPC   GL141989   7.211  13.577   5.772
 3139POPC   GL241990   7.534  13.447   5.893
 3139POPC   C1A41991   7.129  13.407   6.223
 3139POPC   D2A41992   7.161  13.169   6.627
 3139POPC   C3A41993   7.185  13.438   6.999
 3139POPC   C4A41994   7.292  13.623   7.389
 3139POPC   C1B41995   7.502  13.752   6.218
 3139POPC   C2B41996   7.295  13.775   6.616
 3139POPC   C3B41997   7.462  13.915   7.023
 3139POPC   C4B41998   7.567  14.053   7.460
 3140POPC   NC341999  41.252   6.077   5.665
 3140POPC   PO442000  41.741   5.679   5.401
 3140POPC   GL142001  41.587   5.732   5.813
 3140POPC   GL242002  41.757   6.041   5.853
 3140POPC   C1A42003  41.449   5.832   6.242
 3140POPC   D2A42004  41.486   5.661   6.642
 3140POPC   C3A42005  41.375   5.941   6.956
 3140POPC   C4A42006  41.342   5.605   7.173
 3140POPC   C1B42007  41.962   5.744   6.175
 3140POPC   C2B42008  41.962   5.816   6.630
 3140POPC   C3B42009  41.847   5.718   7.077
 3140POPC   C4B42010  41.675   6.055   7.347
 3141POPC   NC342011  17.498  35.733   5.563
 3141POPC   PO442012  17.285  36.402   5.359
 3141POPC   GL142013  17.463  36.275   5.767
 3141POPC   GL242014  17.660  36.579   5.829
 3141POPC   C1A42015  17.496  35.990   6.167
 3141POPC   D2A42016  17.256  35.856   6.559
 3141POPC   C3A42017  17.401  35.968   7.008
 3141POPC   C4A42018  17.720  35.741   7.250
 3141POPC   C1B42019  17.683  36.453   6.236
 3141POPC   C2B42020  17.679  36.208   6.631
 3141POPC   C3B42021  17.826  36.272   7.057
 3141POPC   C4B42022  17.713  36.217   7.479
 3142POPC   NC342023  33.488   8.355   5.369
 3142POPC   PO442024  33.994   8.003   5.160
 3142POPC   GL142025  33.916   8.134   5.620
 3142POPC   GL242026  33.619   7.943   5.708
 3142POPC   C1A42027  33.710   8.301   6.047
 3142POPC   D2A42028  33.515   8.275   6.467
 3142POPC   C3A42029  33.730   8.439   6.820
 3142POPC   C4A42030  33.863   8.262   7.200
 3142POPC   C1B42031  33.904   7.771   6.054
 3142POPC   C2B42032  33.988   7.646   6.516
 3142POPC   C3B42033  33.761   7.765   6.906
 3142POPC   C4B42034  33.906   7.772   7.318
 3143POPC   NC342035  16.289  10.825   5.465
 3143POPC   PO442036  15.904  10.280   5.442
 3143POPC   GL142037  15.936  10.562   5.780
 3143POPC   GL242038  15.609  10.731   5.856
 3143POPC   C1A42039  16.185  10.645   6.144
 3143POPC   D2A42040  16.027  10.779   6.564
 3143POPC   C3A42041  16.171  10.606   6.942
 3143POPC   C4A42042  16.084  10.756   7.327
 3143POPC   C1B42043  15.659  10.581   6.283
 3143POPC   C2B42044  15.700  10.397   6.710
 3143POPC   C3B42045  15.670  10.521   7.148
 3143POPC   C4B42046  15.744  10.365   7.597
 3144POPC   NC342047  36.288  10.442   5.463
 3144POPC   PO442048  35.669  10.532   5.262
 3144POPC   GL142049  35.888  10.567   5.735
 3144POPC   GL242050  36.210  10.702   5.878
 3144POPC   C1A42051  36.020  10.302   6.134
 3144POPC   D2A42052  35.994  10.073   6.541
 3144POPC   C3A42053  36.063  10.315   6.889
 3144POPC   C4A42054  36.213  10.356   7.293
 3144POPC   C1B42055  36.405  10.774   6.240
 3144POPC   C2B42056  36.323  10.807   6.648
 3144POPC   C3B42057  36.498  10.616   6.951
 3144POPC   C4B42058  36.577  10.717   7.388
 3145POPC   NC342059   8.792   2.862   5.155
 3145POPC   PO442060   9.358   3.172   5.134
 3145POPC   GL142061   9.154   2.815   5.539
 3145POPC   GL242062   8.827   2.941   5.741
 3145POPC   C1A42063   9.047   2.574   6.017
 3145POPC   D2A42064   9.105   2.718   6.478
 3145POPC   C3A42065   9.031   2.553   6.906
 3145POPC   C4A42066   8.784   2.458   7.290
 3145POPC   C1B42067   8.958   3.114   6.125
 3145POPC   C2B42068   8.799   3.103   6.540
 3145POPC   C3B42069   9.019   3.116   6.906
 3145POPC   C4B42070   9.003   2.919   7.288
 3146POPC   NC342071  12.081  44.866   5.309
 3146POPC   PO442072  12.538  44.557   5.425
 3146POPC   GL142073  12.130  44.547   5.724
 3146POPC   GL242074  11.955  44.860   5.822
 3146POPC   C1A42075  11.954  44.521   6.193
 3146POPC   D2A42076  11.850  44.765   6.603
 3146POPC   C3A42077  11.996  44.583   6.995
 3146POPC   C4A42078  12.110  44.571   7.434
 3146POPC   C1B42079  12.163  44.988   6.246
 3146POPC   C2B42080  12.332  44.915   6.699
 3146POPC   C3B42081  12.428  44.863   7.138
 3146POPC   C4B42082  12.405   0.193   7.472
 3147POPC   NC342083  33.166  23.514   5.345
 3147POPC   PO442084  32.784  24.012   5.292
 3147POPC   GL142085  32.825  23.750   5.688
 3147POPC   GL242086  32.504  23.887   5.756
 3147POPC   C1A42087  33.048  23.537   6.055
 3147POPC   D2A42088  33.148  23.521   6.508
 3147POPC   C3A42089  32.959  23.634   6.898
 3147POPC   C4A42090  33.029  23.754   7.280
 3147POPC   C1B42091  32.645  23.802   6.172
 3147POPC   C2B42092  32.761  23.945   6.555
 3147POPC   C3B42093  32.610  24.086   6.957
 3147POPC   C4B42094  32.516  23.842   7.241
 3148POPC   NC342095   2.787  22.287   5.284
 3148POPC   PO442096   2.722  21.798   5.764
 3148POPC   GL142097   2.775  22.201   5.890
 3148POPC   GL242098   3.129  22.265   5.859
 3148POPC   C1A42099   2.579  22.378   6.262
 3148POPC   D2A42100   2.632  22.384   6.705
 3148POPC   C3A42101   2.578  22.023   6.936
 3148POPC   C4A42102   2.289  22.142   7.225
 3148POPC   C1B42103   3.092  22.268   6.353
 3148POPC   C2B42104   3.087  22.159   6.829
 3148POPC   C3B42105   2.954  22.293   7.279
 3148POPC   C4B42106   3.015  22.467   7.727
 3149POPC   NC342107  42.216   8.282   5.414
 3149POPC   PO442108  42.878   8.191   5.513
 3149POPC   GL142109  42.504   8.218   5.860
 3149POPC   GL242110  42.127   8.050   5.853
 3149POPC   C1A42111  42.264   8.294   6.283
 3149POPC   D2A42112  42.061   8.487   6.669
 3149POPC   C3A42113  42.311   8.475   7.059
 3149POPC   C4A42114  42.552   8.069   7.107
 3149POPC   C1B42115  41.899   7.929   6.242
 3149POPC   C2B42116  41.943   7.886   6.699
 3149POPC   C3B42117  42.005   8.072   7.133
 3149POPC   C4B42118  41.928   8.318   7.521
 3150POPC   NC342119  12.889   3.805   5.255
 3150POPC   PO442120  12.219   3.933   5.322
 3150POPC   GL142121  12.442   3.614   5.671
 3150POPC   GL242122  12.804   3.476   5.637
 3150POPC   C1A42123  12.531   3.566   6.167
 3150POPC   D2A42124  12.630   3.705   6.631
 3150POPC   C3A42125  12.563   3.528   7.071
 3150POPC   C4A42126  12.549   3.558   7.564
 3150POPC   C1B42127  12.997   3.372   6.041
 3150POPC   C2B42128  12.943   3.309   6.487
 3150POPC   C3B42129  12.986   3.210   6.941
 3150POPC   C4B42130  13.023   3.420   7.342
 3151POPC   NC342131   1.100   3.833   5.451
 3151POPC   PO442132   1.499   3.294   5.556
 3151POPC   GL142133   1.367   3.416   5.953
 3151POPC   GL242134   1.012   3.492   5.872
 3151POPC   C1A42135   1.542   3.584   6.343
 3151POPC   D2A42136   1.471   3.943   6.607
 3151POPC   C3A42137   1.312   3.843   6.992
 3151POPC   C4A42138   1.184   3.476   7.156
 3151POPC   C1B42139   1.017   3.686   6.296
 3151POPC   C2B42140   0.823   3.602   6.720
 3151POPC   C3B42141   0.809   3.818   7.114
 3151POPC   C4B42142   1.069   3.937   7.454
 3152POPC   NC342143   3.642  33.748   5.200
 3152POPC   PO442144   3.341  34.286   5.489
 3152POPC   GL142145   3.586  33.956   5.688
 3152POPC   GL242146   3.279  33.805   5.806
 3152POPC   C1A42147   3.633  33.942   6.141
 3152POPC   D2A42148   3.351  33.929   6.491
 3152POPC   C3A42149   3.440  33.725   6.878
 3152POPC   C4A42150   3.356  33.873   7.274
 3152POPC   C1B42151   3.277  33.515   6.171
 3152POPC   C2B42152   3.346  33.318   6.563
 3152POPC   C3B42153   3.059  33.362   6.931
 3152POPC   C4B42154   3.296  33.373   7.267
 3153POPC   NC342155  24.796   2.553   5.305
 3153POPC   PO442156  24.236   2.891   5.432
 3153POPC   GL142157  24.384   2.723   5.809
 3153POPC   GL242158  24.707   2.553   5.807
 3153POPC   C1A42159  24.513   2.755   6.241
 3153POPC   D2A42160  24.372   2.638   6.630
 3153POPC   C3A42161  24.498   2.768   7.017
 3153POPC   C4A42162  24.726   2.885   7.353
 3153POPC   C1B42163  24.759   2.296   6.180
 3153POPC   C2B42164  24.609   2.186   6.590
 3153POPC   C3B42165  24.770   2.340   6.947
 3153POPC   C4B42166  24.650   2.377   7.341
 3154POPC   NC342167  44.234  19.432   5.119
 3154POPC   PO442168  43.767  19.932   5.373
 3154POPC   GL142169  43.758  19.928   5.808
 3154POPC   GL242170  43.604  19.611   5.809
 3154POPC   C1A42171  43.940  19.718   6.193
 3154POPC   D2A42172  43.847  19.469   6.557
 3154POPC   C3A42173  44.018  19.665   6.921
 3154POPC   C4A42174  43.913  19.878   7.290
 3154POPC   C1B42175  43.430  19.764   6.202
 3154POPC   C2B42176  43.495  19.858   6.635
 3154POPC   C3B42177  43.482  19.728   7.063
 3154POPC   C4B42178  43.389  19.554   7.489
 3155POPC   NC342179  32.590  37.193   5.130
 3155POPC   PO442180  32.877  37.819   5.315
 3155POPC   GL142181  33.005  37.786   5.770
 3155POPC   GL242182  33.311  37.590   5.794
 3155POPC   C1A42183  32.962  37.552   6.159
 3155POPC   D2A42184  32.714  37.423   6.507
 3155POPC   C3A42185  32.965  37.402   6.889
 3155POPC   C4A42186  32.987  37.705   7.219
 3155POPC   C1B42187  33.436  37.303   6.120
 3155POPC   C2B42188  33.344  37.431   6.519
 3155POPC   C3B42189  33.511  37.467   6.906
 3155POPC   C4B42190  33.424  37.462   7.317
 3156POPC   NC342191  19.175   4.459   5.353
 3156POPC   PO442192  18.925   3.818   5.257
 3156POPC   GL142193  19.034   4.004   5.657
 3156POPC   GL242194  18.880   4.341   5.741
 3156POPC   C1A42195  19.082   4.023   6.121
 3156POPC   D2A42196  19.204   4.243   6.546
 3156POPC   C3A42197  19.278   4.078   7.002
 3156POPC   C4A42198  19.446   4.176   7.450
 3156POPC   C1B42199  18.789   4.452   6.165
 3156POPC   C2B42200  18.570   4.274   6.527
 3156POPC   C3B42201  18.799   4.251   6.912
 3156POPC   C4B42202  19.056   4.508   7.181
 3157POPC   NC342203  11.928   3.559   5.233
 3157POPC   PO442204  12.071   2.953   5.257
 3157POPC   GL142205  11.982   3.329   5.681
 3157POPC   GL242206  11.940   3.735   5.703
 3157POPC   C1A42207  11.907   3.481   6.156
 3157POPC   D2A42208  11.760   3.532   6.616
 3157POPC   C3A42209  12.079   3.457   6.901
 3157POPC   C4A42210  12.144   3.353   7.329
 3157POPC   C1B42211  12.171   3.904   6.035
 3157POPC   C2B42212  12.164   3.838   6.474
 3157POPC   C3B42213  12.177   3.945   6.909
 3157POPC   C4B42214  12.339   3.952   7.311
 3158POPC   NC342215  22.309  18.242   5.414
 3158POPC   PO442216  21.687  18.555   5.532
 3158POPC   GL142217  22.046  18.457   5.805
 3158POPC   GL242218  22.431  18.569   5.771
 3158POPC   C1A42219  22.173  18.274   6.180
 3158POPC   D2A42220  22.408  18.130   6.541
 3158POPC   C3A42221  22.247  18.088   6.977
 3158POPC   C4A42222  21.994  18.225   7.350
 3158POPC   C1B42223  22.617  18.528   6.163
 3158POPC   C2B42224  22.462  18.655   6.551
 3158POPC   C3B42225  22.269  18.586   6.920
 3158POPC   C4B42226  22.514  18.457   7.272
 3159POPC   NC342227  11.397  36.079   5.432
 3159POPC   PO442228  10.952  36.580   5.211
 3159POPC   GL142229  11.121  36.471   5.679
 3159POPC   GL242230  11.121  36.112   5.846
 3159POPC   C1A42231  11.364  36.476   6.104
 3159POPC   D2A42232  11.583  36.251   6.442
 3159POPC   C3A42233  11.400  36.294   6.860
 3159POPC   C4A42234  11.205  36.391   7.291
 3159POPC   C1B42235  10.883  36.371   6.150
 3159POPC   C2B42236  10.850  36.248   6.562
 3159POPC   C3B42237  10.976  36.035   6.928
 3159POPC   C4B42238  11.298  35.899   7.225
 3160POPC   NC342239  36.101  23.184   5.506
 3160POPC   PO442240  35.784  22.627   5.151
 3160POPC   GL142241  36.015  22.634   5.652
 3160POPC   GL242242  35.785  22.554   5.884
 3160POPC   C1A42243  36.129  22.907   6.104
 3160POPC   D2A42244  35.979  23.053   6.572
 3160POPC   C3A42245  36.200  23.268   6.966
 3160POPC   C4A42246  36.330  23.218   7.447
 3160POPC   C1B42247  35.848  22.559   6.329
 3160POPC   C2B42248  35.925  22.416   6.693
 3160POPC   C3B42249  35.761  22.532   7.054
 3160POPC   C4B42250  36.049  22.852   7.203
 3161POPC   NC342251  35.604  32.038   5.263
 3161POPC   PO442252  35.144  32.457   5.421
 3161POPC   GL142253  35.500  32.332   5.688
 3161POPC   GL242254  35.553  31.967   5.784
 3161POPC   C1A42255  35.584  32.344   6.122
 3161POPC   D2A42256  35.344  32.347   6.496
 3161POPC   C3A42257  35.507  32.579   6.829
 3161POPC   C4A42258  35.383  32.368   7.161
 3161POPC   C1B42259  35.598  31.830   6.250
 3161POPC   C2B42260  35.624  31.913   6.711
 3161POPC   C3B42261  35.519  31.883   7.158
 3161POPC   C4B42262  35.679  32.084   7.520
 3162POPC   NC342263   8.814  21.826   5.444
 3162POPC   PO442264   9.009  21.254   5.253
 3162POPC   GL142265   8.916  21.245   5.721
 3162POPC   GL242266   8.685  21.520   5.828
 3162POPC   C1A42267   8.946  21.289   6.204
 3162POPC   D2A42268   9.092  21.581   6.543
 3162POPC   C3A42269   9.215  21.424   6.940
 3162POPC   C4A42270   8.942  21.162   7.171
 3162POPC   C1B42271   8.446  21.642   6.200
 3162POPC   C2B42272   8.579  21.484   6.579
 3162POPC   C3B42273   8.683  21.557   6.985
 3162POPC   C4B42274   8.566  21.843   7.285
 3163POPC   NC342275   4.634   7.644   5.260
 3163POPC   PO442276   4.076   7.421   5.535
 3163POPC   GL142277   4.512   7.439   5.775
 3163POPC   GL242278   4.699   7.103   5.879
 3163POPC   C1A42279   4.536   7.639   6.183
 3163POPC   D2A42280   4.269   7.721   6.578
 3163POPC   C3A42281   4.435   7.568   6.975
 3163POPC   C4A42282   4.287   7.393   7.356
 3163POPC   C1B42283   4.728   7.178   6.300
 3163POPC   C2B42284   4.416   7.221   6.590
 3163POPC   C3B42285   4.365   7.041   6.987
 3163POPC   C4B42286   4.772   7.122   7.174
 3164POPC   NC342287  37.302  40.272   5.379
 3164POPC   PO442288  37.563  39.691   5.419
 3164POPC   GL142289  37.696  39.875   5.881
 3164POPC   GL242290  37.996  40.156   5.936
 3164POPC   C1A42291  37.640  40.111   6.301
 3164POPC   D2A42292  37.363  40.138   6.669
 3164POPC   C3A42293  37.541  40.058   7.056
 3164POPC   C4A42294  37.378  40.117   7.472
 3164POPC   C1B42295  38.082  39.857   6.216
 3164POPC   C2B42296  38.041  40.003   6.611
 3164POPC   C3B42297  38.093  40.141   7.008
 3164POPC   C4B42298  37.917  40.060   7.397
 3165POPC   NC342299  16.222   3.757   5.314
 3165POPC   PO442300  15.742   3.340   5.293
 3165POPC   GL142301  15.946   3.436   5.651
 3165POPC   GL242302  15.748   3.675   5.762
 3165POPC   C1A42303  15.917   3.389   6.136
 3165POPC   D2A42304  15.713   3.453   6.548
 3165POPC   C3A42305  16.001   3.348   6.888
 3165POPC   C4A42306  16.133   3.146   7.298
 3165POPC   C1B42307  15.767   3.891   6.157
 3165POPC   C2B42308  15.982   3.897   6.550
 3165POPC   C3B42309  15.792   3.823   6.934
 3165POPC   C4B42310  15.987   3.655   7.277
 3166POPC   NC342311   6.019   3.228   4.971
 3166POPC   PO442312   5.897   3.641   5.458
 3166POPC   GL142313   5.893   3.539   5.905
 3166POPC   GL242314   6.228   3.722   5.872
 3166POPC   C1A42315   5.710   3.217   6.245
 3166POPC   D2A42316   5.495   3.195   6.681
 3166POPC   C3A42317   5.870   3.305   6.924
 3166POPC   C4A42318   6.054   3.246   7.309
 3166POPC   C1B42319   6.140   3.772   6.300
 3166POPC   C2B42320   6.193   3.667   6.695
 3166POPC   C3B42321   5.975   3.825   6.999
 3166POPC   C4B42322   6.084   4.056   7.312
 3167POPC   NC342323  36.322  39.029   5.273
 3167POPC   PO442324  35.703  39.307   5.303
 3167POPC   GL142325  35.974  39.303   5.662
 3167POPC   GL242326  35.763  39.139   5.891
 3167POPC   C1A42327  36.252  39.450   6.021
 3167POPC   D2A42328  36.495  39.333   6.402
 3167POPC   C3A42329  36.380  39.403   6.830
 3167POPC   C4A42330  36.380  39.226   7.263
 3167POPC   C1B42331  35.682  39.115   6.321
 3167POPC   C2B42332  35.891  39.362   6.601
 3167POPC   C3B42333  35.950  39.196   6.990
 3167POPC   C4B42334  35.889  39.339   7.361
 3168POPC   NC342335  44.549  24.032   5.171
 3168POPC   PO442336  44.575  24.633   5.311
 3168POPC   GL142337  44.529  24.348   5.679
 3168POPC   GL242338  44.853  24.191   5.766
 3168POPC   C1A42339  44.546  24.428   6.140
 3168POPC   D2A42340  44.813  24.614   6.476
 3168POPC   C3A42341  44.709  24.503   6.900
 3168POPC   C4A42342  44.788  24.636   7.314
 3168POPC   C1B42343   0.006  24.200   6.215
 3168POPC   C2B42344  44.987  24.143   6.670
 3168POPC   C3B42345   0.160  24.327   7.093
 3168POPC   C4B42346   0.159  24.417   7.595
 3169POPC   NC342347  35.547  31.076   5.529
 3169POPC   PO442348  35.243  31.686   5.355
 3169POPC   GL142349  35.311  31.495   5.740
 3169POPC   GL242350  35.671  31.467   5.869
 3169POPC   C1A42351  35.133  31.658   6.101
 3169POPC   D2A42352  35.139  31.822   6.519
 3169POPC   C3A42353  35.279  31.541   6.866
 3169POPC   C4A42354  35.063  31.625   7.264
 3169POPC   C1B42355  35.423  31.250   6.188
 3169POPC   C2B42356  35.305  31.074   6.571
 3169POPC   C3B42357  35.514  31.060   6.923
 3169POPC   C4B42358  35.381  31.214   7.265
 3170POPC   NC342359  14.735   3.585   5.570
 3170POPC   PO442360  14.262   3.917   5.306
 3170POPC   GL142361  14.342   3.896   5.769
 3170POPC   GL242362  14.270   3.517   5.811
 3170POPC   C1A42363  14.439   3.755   6.224
 3170POPC   D2A42364  14.222   3.563   6.608
 3170POPC   C3A42365  14.101   3.805   6.979
 3170POPC   C4A42366  14.520   3.796   7.193
 3170POPC   C1B42367  14.245   3.231   6.200
 3170POPC   C2B42368  14.234   3.027   6.619
 3170POPC   C3B42369  14.498   3.083   6.998
 3170POPC   C4B42370  14.680   3.218   7.410
 3171POPC   NC342371  40.431  42.816   5.480
 3171POPC   PO442372  40.838  43.446   5.372
 3171POPC   GL142373  40.818  43.251   5.803
 3171POPC   GL242374  40.847  42.889   5.794
 3171POPC   C1A42375  40.525  43.089   6.154
 3171POPC   D2A42376  40.341  43.230   6.558
 3171POPC   C3A42377  40.398  43.037   6.970
 3171POPC   C4A42378  40.428  43.317   7.299
 3171POPC   C1B42379  41.013  42.887   6.214
 3171POPC   C2B42380  40.873  43.145   6.570
 3171POPC   C3B42381  40.862  43.263   7.006
 3171POPC   C4B42382  40.902  43.065   7.409
 3172POPC   NC342383  17.249  18.468   5.426
 3172POPC   PO442384  17.878  18.059   5.315
 3172POPC   GL142385  17.664  18.185   5.720
 3172POPC   GL242386  17.654  18.493   5.843
 3172POPC   C1A42387  17.551  18.152   6.195
 3172POPC   D2A42388  17.478  18.305   6.601
 3172POPC   C3A42389  17.612  18.210   7.033
 3172POPC   C4A42390  17.658  18.150   7.472
 3172POPC   C1B42391  17.656  18.667   6.234
 3172POPC   C2B42392  17.467  18.811   6.596
 3172POPC   C3B42393  17.226  18.628   6.917
 3172POPC   C4B42394  17.330  18.562   7.306
 3173POPC   NC342395  25.760  20.526   5.347
 3173POPC   PO442396  25.155  20.479   5.324
 3173POPC   GL142397  25.208  20.289   5.747
 3173POPC   GL242398  25.104  20.582   5.877
 3173POPC   C1A42399  25.046  20.163   6.177
 3173POPC   D2A42400  24.909  20.247   6.618
 3173POPC   C3A42401  25.169  20.348   6.995
 3173POPC   C4A42402  25.255  20.568   7.387
 3173POPC   C1B42403  25.278  20.603   6.295
 3173POPC   C2B42404  25.165  20.754   6.687
 3173POPC   C3B42405  25.229  20.956   7.075
 3173POPC   C4B42406  25.604  20.946   7.370
 3174POPC   NC342407   4.092  11.011   5.425
 3174POPC   PO442408   4.097  10.327   5.385
 3174POPC   GL142409   4.341  10.347   5.726
 3174POPC   GL242410   4.216  10.671   5.835
 3174POPC   C1A42411   4.274  10.226   6.140
 3174POPC   D2A42412   4.048  10.394   6.480
 3174POPC   C3A42413   4.238  10.296   6.892
 3174POPC   C4A42414   4.167  10.506   7.269
 3174POPC   C1B42415   4.502  10.676   6.191
 3174POPC   C2B42416   4.522  10.622   6.624
 3174POPC   C3B42417   4.391  10.850   6.984
 3174POPC   C4B42418   4.567  10.835   7.409
 3175POPC   NC342419  32.332  42.779   5.428
 3175POPC   PO442420  32.003  43.328   5.285
 3175POPC   GL142421  32.107  43.173   5.720
 3175POPC   GL242422  32.485  43.100   5.786
 3175POPC   C1A42423  32.047  43.071   6.162
 3175POPC   D2A42424  32.269  42.884   6.535
 3175POPC   C3A42425  32.110  42.987   6.939
 3175POPC   C4A42426  31.931  43.174   7.315
 3175POPC   C1B42427  32.525  43.193   6.212
 3175POPC   C2B42428  32.229  43.418   6.505
 3175POPC   C3B42429  32.204  43.486   6.929
 3175POPC   C4B42430  32.435  43.270   7.260
 3176POPC   NC342431  23.289   6.114   5.487
 3176POPC   PO442432  22.749   5.662   5.427
 3176POPC   GL142433  22.856   5.857   5.772
 3176POPC   GL242434  23.182   5.737   5.828
 3176POPC   C1A42435  22.852   5.870   6.209
 3176POPC   D2A42436  23.058   5.700   6.524
 3176POPC   C3A42437  22.882   5.859   6.896
 3176POPC   C4A42438  22.946   5.727   7.307
 3176POPC   C1B42439  23.345   5.994   6.180
 3176POPC   C2B42440  23.164   6.203   6.550
 3176POPC   C3B42441  23.216   6.230   7.003
 3176POPC   C4B42442  22.985   6.222   7.404
 3177POPC   NC342443  20.584   3.235   5.544
 3177POPC   PO442444  20.532   3.906   5.459
 3177POPC   GL142445  20.717   3.720   5.834
 3177POPC   GL242446  21.052   3.840   5.910
 3177POPC   C1A42447  20.520   3.499   6.187
 3177POPC   D2A42448  20.281   3.580   6.554
 3177POPC   C3A42449  20.431   3.422   6.927
 3177POPC   C4A42450  20.264   3.225   7.254
 3177POPC   C1B42451  20.980   3.671   6.310
 3177POPC   C2B42452  20.765   3.737   6.714
 3177POPC   C3B42453  20.606   3.836   7.171
 3177POPC   C4B42454  20.838   3.811   7.591
 3178POPC   NC342455  18.906  30.423   5.348
 3178POPC   PO442456  19.409  30.897   5.373
 3178POPC   GL142457  19.119  30.774   5.672
 3178POPC   GL242458  19.354  30.561   5.767
 3178POPC   C1A42459  19.051  30.831   6.141
 3178POPC   D2A42460  18.789  31.120   6.469
 3178POPC   C3A42461  18.884  31.080   6.948
 3178POPC   C4A42462  19.019  30.694   7.180
 3178POPC   C1B42463  19.323  30.378   6.163
 3178POPC   C2B42464  19.328  30.176   6.587
 3178POPC   C3B42465  19.377  30.300   7.057
 3178POPC   C4B42466  19.281  30.382   7.517
 3179POPC   NC342467  25.557  38.561   5.336
 3179POPC   PO442468  25.312  37.987   5.489
 3179POPC   GL142469  25.280  38.425   5.746
 3179POPC   GL242470  25.555  38.714   5.796
 3179POPC   C1A42471  25.231  38.615   6.173
 3179POPC   D2A42472  25.262  38.331   6.513
 3179POPC   C3A42473  25.229  38.547   6.887
 3179POPC   C4A42474  25.425  38.461   7.252
 3179POPC   C1B42475  25.785  38.763   6.153
 3179POPC   C2B42476  25.583  38.774   6.534
 3179POPC   C3B42477  25.720  38.730   6.926
 3179POPC   C4B42478  25.545  38.933   7.303
 3180POPC   NC342479  34.946  38.409   5.338
 3180POPC   PO442480  34.322  38.301   5.439
 3180POPC   GL142481  34.326  38.207   5.840
 3180POPC   GL242482  34.636  38.374   5.910
 3180POPC   C1A42483  34.248  38.399   6.239
 3180POPC   D2A42484  34.527  38.299   6.567
 3180POPC   C3A42485  34.693  38.404   6.944
 3180POPC   C4A42486  34.502  38.341   7.341
 3180POPC   C1B42487  34.711  38.654   6.258
 3180POPC   C2B42488  35.004  38.614   6.566
 3180POPC   C3B42489  35.090  38.772   6.949
 3180POPC   C4B42490  34.954  38.865   7.307
 3181POPC   NC342491  10.019  12.459   5.324
 3181POPC   PO442492  10.566  12.093   5.349
 3181POPC   GL142493  10.495  11.985   5.763
 3181POPC   GL242494  10.361  12.329   5.787
 3181POPC   C1A42495  10.648  11.850   6.180
 3181POPC   D2A42496  10.901  11.841   6.570
 3181POPC   C3A42497  10.702  11.923   6.943
 3181POPC   C4A42498  10.837  12.300   7.109
 3181POPC   C1B42499  10.553  12.393   6.195
 3181POPC   C2B42500  10.690  12.344   6.603
 3181POPC   C3B42501  10.372  12.354   6.912
 3181POPC   C4B42502  10.413  12.538   7.293
 3182POPC   NC342503  22.503  24.203   5.387
 3182POPC   PO442504  22.010  24.724   5.512
 3182POPC   GL142505  22.235  24.696   5.860
 3182POPC   GL242506  22.415  24.402   5.843
 3182POPC   C1A42507  22.118  24.524   6.241
 3182POPC   D2A42508  22.091  24.675   6.606
 3182POPC   C3A42509  21.901  24.430   6.880
 3182POPC   C4A42510  22.047  24.088   7.097
 3182POPC   C1B42511  22.530  24.245   6.243
 3182POPC   C2B42512  22.328  24.165   6.648
 3182POPC   C3B42513  22.554  24.173   7.052
 3182POPC   C4B42514  22.692  24.259   7.482
 3183POPC   NC342515   1.995   9.826   5.452
 3183POPC   PO442516   1.958   9.123   5.328
 3183POPC   GL142517   2.059   9.385   5.702
 3183POPC   GL242518   1.731   9.520   5.828
 3183POPC   C1A42519   2.274   9.488   6.098
 3183POPC   D2A42520   2.432   9.356   6.497
 3183POPC   C3A42521   2.317   9.517   6.919
 3183POPC   C4A42522   2.123   9.568   7.341
 3183POPC   C1B42523   1.871   9.799   6.176
 3183POPC   C2B42524   2.110   9.859   6.569
 3183POPC   C3B42525   1.903   9.832   6.977
 3183POPC   C4B42526   1.579   9.901   7.313
 3184POPC   NC342527   7.864  34.327   5.492
 3184POPC   PO442528   7.149  34.544   5.491
 3184POPC   GL142529   7.318  34.638   5.864
 3184POPC   GL242530   7.679  34.689   5.830
 3184POPC   C1A42531   7.179  34.753   6.270
 3184POPC   D2A42532   7.266  34.581   6.695
 3184POPC   C3A42533   7.182  34.811   7.080
 3184POPC   C4A42534   7.296  34.871   7.497
 3184POPC   C1B42535   7.657  34.631   6.250
 3184POPC   C2B42536   7.762  34.672   6.627
 3184POPC   C3B42537   7.653  34.564   7.023
 3184POPC   C4B42538   7.700  34.589   7.438
 3185POPC   NC342539  39.703  34.102   5.379
 3185POPC   PO442540  40.167  33.657   5.527
 3185POPC   GL142541  39.872  33.811   5.892
 3185POPC   GL242542  39.561  34.001   5.869
 3185POPC   C1A42543  39.963  33.785   6.357
 3185POPC   D2A42544  40.377  33.733   6.617
 3185POPC   C3A42545  40.243  33.753   7.041
 3185POPC   C4A42546  39.789  33.690   7.129
 3185POPC   C1B42547  39.619  34.180   6.276
 3185POPC   C2B42548  39.647  34.048   6.733
 3185POPC   C3B42549  39.851  34.209   7.106
 3185POPC   C4B42550  39.740  34.292   7.564
 3186POPC   NC342551   8.526  28.903   5.644
 3186POPC   PO442552   7.874  29.077   5.340
 3186POPC   GL142553   7.849  29.140   5.766
 3186POPC   GL242554   8.171  29.248   5.815
 3186POPC   C1A42555   7.866  29.167   6.222
 3186POPC   D2A42556   8.013  28.928   6.561
 3186POPC   C3A42557   7.966  29.133   6.939
 3186POPC   C4A42558   8.115  29.193   7.335
 3186POPC   C1B42559   8.373  29.111   6.218
 3186POPC   C2B42560   8.563  29.047   6.604
 3186POPC   C3B42561   8.479  29.066   7.012
 3186POPC   C4B42562   8.622  29.360   7.328
 3187POPC   NC342563  39.151  24.401   5.289
 3187POPC   PO442564  39.745  24.684   5.477
 3187POPC   GL142565  39.482  24.424   5.759
 3187POPC   GL242566  39.127  24.255   5.775
 3187POPC   C1A42567  39.353  24.543   6.166
 3187POPC   D2A42568  39.392  24.712   6.582
 3187POPC   C3A42569  39.086  24.716   6.898
 3187POPC   C4A42570  39.404  24.631   7.170
 3187POPC   C1B42571  38.881  24.381   6.122
 3187POPC   C2B42572  38.989  24.383   6.525
 3187POPC   C3B42573  39.064  24.211   6.924
 3187POPC   C4B42574  39.040  24.346   7.339
 3188POPC   NC342575  40.381   6.541   5.506
 3188POPC   PO442576  39.721   6.793   5.497
 3188POPC   GL142577  39.999   6.661   5.838
 3188POPC   GL242578  40.213   6.322   5.908
 3188POPC   C1A42579  40.060   6.918   6.200
 3188POPC   D2A42580  39.885   6.867   6.595
 3188POPC   C3A42581  40.186   6.863   6.903
 3188POPC   C4A42582  40.100   6.659   7.286
 3188POPC   C1B42583  40.090   6.411   6.302
 3188POPC   C2B42584  40.143   6.391   6.733
 3188POPC   C3B42585  40.343   6.265   7.104
 3188POPC   C4B42586  40.253   6.240   7.583
 3189POPC   NC342587  30.513  35.773   5.495
 3189POPC   PO442588  30.665  36.399   5.357
 3189POPC   GL142589  30.758  36.209   5.756
 3189POPC   GL242590  30.941  35.905   5.777
 3189POPC   C1A42591  30.616  36.085   6.166
 3189POPC   D2A42592  30.609  36.267   6.565
 3189POPC   C3A42593  30.683  36.071   6.937
 3189POPC   C4A42594  30.756  36.215   7.311
 3189POPC   C1B42595  30.805  35.628   6.109
 3189POPC   C2B42596  30.767  35.740   6.538
 3189POPC   C3B42597  31.036  35.682   6.884
 3189POPC   C4B42598  30.910  35.736   7.298
 3190POPC   NC342599  41.997  15.158   5.397
 3190POPC   PO442600  42.740  14.961   5.488
 3190POPC   GL142601  42.534  15.166   5.833
 3190POPC   GL242602  42.169  15.150   5.858
 3190POPC   C1A42603  42.438  15.005   6.265
 3190POPC   D2A42604  42.315  14.832   6.662
 3190POPC   C3A42605  42.515  15.016   7.015
 3190POPC   C4A42606  42.555  14.840   7.433
 3190POPC   C1B42607  41.967  15.275   6.213
 3190POPC   C2B42608  42.169  15.329   6.576
 3190POPC   C3B42609  42.082  15.344   6.968
 3190POPC   C4B42610  42.369  15.502   7.253
 3191POPC   NC342611  25.329  18.947   5.461
 3191POPC   PO442612  24.772  19.006   5.787
 3191POPC   GL142613  25.222  19.092   5.942
 3191POPC   GL242614  25.478  18.812   5.911
 3191POPC   C1A42615  25.409  19.113   6.352
 3191POPC   D2A42616  25.130  19.230   6.683
 3191POPC   C3A42617  25.378  19.442   6.951
 3191POPC   C4A42618  25.592  19.223   7.215
 3191POPC   C1B42619  25.253  18.613   6.249
 3191POPC   C2B42620  25.265  18.718   6.701
 3191POPC   C3B42621  25.203  18.909   7.131
 3191POPC   C4B42622  25.466  18.832   7.507
 3192POPC   NC342623  22.477  16.305   5.546
 3192POPC   PO442624  22.031  15.743   5.514
 3192POPC   GL142625  21.841  15.949   5.883
 3192POPC   GL242626  21.987  16.262   5.770
 3192POPC   C1A42627  21.856  15.968   6.375
 3192POPC   D2A42628  22.166  15.788   6.642
 3192POPC   C3A42629  22.380  15.969   6.994
 3192POPC   C4A42630  22.375  15.918   7.446
 3192POPC   C1B42631  22.260  16.169   6.145
 3192POPC   C2B42632  22.202  16.307   6.567
 3192POPC   C3B42633  21.946  16.219   6.907
 3192POPC   C4B42634  21.919  16.110   7.335
 3193POPC   NC342635  40.348   7.864   5.630
 3193POPC   PO442636  40.007   8.376   5.237
 3193POPC   GL142637  40.207   8.418   5.642
 3193POPC   GL242638  39.902   8.332   5.793
 3193POPC   C1A42639  40.315   8.366   6.091
 3193POPC   D2A42640  40.087   8.024   6.303
 3193POPC   C3A42641  40.153   7.864   6.722
 3193POPC   C4A42642  40.183   7.976   7.158
 3193POPC   C1B42643  39.794   8.491   6.195
 3193POPC   C2B42644  39.912   8.478   6.593
 3193POPC   C3B42645  39.710   8.460   6.992
 3193POPC   C4B42646  39.745   8.283   7.396
 3194POPC   NC342647   4.889  10.074   5.382
 3194POPC   PO442648   5.345   9.517   5.271
 3194POPC   GL142649   5.236   9.776   5.655
 3194POPC   GL242650   4.888   9.709   5.786
 3194POPC   C1A42651   5.208   9.999   6.081
 3194POPC   D2A42652   5.148   9.805   6.500
 3194POPC   C3A42653   5.097   9.957   6.931
 3194POPC   C4A42654   5.014   9.603   7.243
 3194POPC   C1B42655   4.703   9.893   6.203
 3194POPC   C2B42656   4.628   9.915   6.683
 3194POPC   C3B42657   4.643   9.931   7.161
 3194POPC   C4B42658   4.696   9.811   7.632
 3195POPC   NC342659  15.363  28.035   5.505
 3195POPC   PO442660  15.505  27.400   5.519
 3195POPC   GL142661  15.213  27.589   5.856
 3195POPC   GL242662  15.192  27.956   5.989
 3195POPC   C1A42663  15.026  27.515   6.280
 3195POPC   D2A42664  15.013  27.651   6.719
 3195POPC   C3A42665  15.266  27.715   7.085
 3195POPC   C4A42666  15.175  27.632   7.501
 3195POPC   C1B42667  14.828  27.975   6.310
 3195POPC   C2B42668  14.768  28.099   6.773
 3195POPC   C3B42669  14.804  27.917   7.216
 3195POPC   C4B42670  14.951  28.064   7.676
 3196POPC   NC342671  27.815  34.443   5.418
 3196POPC   PO442672  27.242  34.622   5.721
 3196POPC   GL142673  27.665  34.719   5.897
 3196POPC   GL242674  27.811  34.415   5.910
 3196POPC   C1A42675  27.890  34.698   6.321
 3196POPC   D2A42676  27.854  34.832   6.747
 3196POPC   C3A42677  27.671  34.619   7.095
 3196POPC   C4A42678  27.391  34.749   7.474
 3196POPC   C1B42679  27.541  34.290   6.210
 3196POPC   C2B42680  27.514  34.445   6.604
 3196POPC   C3B42681  27.478  34.182   6.920
 3196POPC   C4B42682  27.333  34.279   7.280
 3197POPC   NC342683  11.866  19.234   5.526
 3197POPC   PO442684  11.191  18.999   5.289
 3197POPC   GL142685  11.097  19.124   5.716
 3197POPC   GL242686  11.413  19.202   5.743
 3197POPC   C1A42687  11.064  19.375   6.114
 3197POPC   D2A42688  11.044  19.475   6.589
 3197POPC   C3A42689  11.045  19.218   7.006
 3197POPC   C4A42690  11.217  19.107   7.447
 3197POPC   C1B42691  11.376  18.966   6.119
 3197POPC   C2B42692  11.413  19.095   6.542
 3197POPC   C3B42693  11.506  19.004   6.976
 3197POPC   C4B42694  11.680  18.951   7.384
 3198POPC   NC342695  18.163  29.763   5.232
 3198POPC   PO442696  18.638  30.089   5.554
 3198POPC   GL142697  18.454  29.979   5.946
 3198POPC   GL242698  18.349  30.305   6.086
 3198POPC   C1A42699  18.270  29.746   6.323
 3198POPC   D2A42700  18.227  29.626   6.791
 3198POPC   C3A42701  18.436  29.949   7.066
 3198POPC   C4A42702  18.841  30.191   7.201
 3198POPC   C1B42703  17.934  30.150   6.203
 3198POPC   C2B42704  17.895  29.983   6.601
 3198POPC   C3B42705  17.938  30.103   7.000
 3198POPC   C4B42706  18.014  29.935   7.397
 3199POPC   NC342707  13.125  27.125   5.394
 3199POPC   PO442708  12.733  26.590   5.533
 3199POPC   GL142709  13.053  26.733   5.757
 3199POPC   GL242710  12.875  26.980   5.892
 3199POPC   C1A42711  13.151  26.662   6.173
 3199POPC   D2A42712  12.969  26.874   6.525
 3199POPC   C3A42713  13.015  26.719   6.906
 3199POPC   C4A42714  12.832  26.852   7.252
 3199POPC   C1B42715  12.674  27.186   6.249
 3199POPC   C2B42716  12.679  27.308   6.704
 3199POPC   C3B42717  12.457  27.138   7.084
 3199POPC   C4B42718  12.410  26.931   7.535
 3200POPC   NC342719  25.930   3.686   5.316
 3200POPC   PO442720  26.463   3.807   5.701
 3200POPC   GL142721  26.153   3.449   5.731
 3200POPC   GL242722  25.789   3.496   5.771
 3200POPC   C1A42723  26.108   3.238   6.134
 3200POPC   D2A42724  26.159   3.487   6.512
 3200POPC   C3A42725  25.848   3.475   6.811
 3200POPC   C4A42726  25.968   3.424   7.224
 3200POPC   C1B42727  25.774   3.640   6.197
 3200POPC   C2B42728  25.730   3.921   6.559
 3200POPC   C3B42729  25.578   3.931   6.991
 3200POPC   C4B42730  25.782   3.900   7.378
 3201POPC   NC342731  43.787  30.093   5.481
 3201POPC   PO442732  43.662  29.409   5.596
 3201POPC   GL142733  43.849  29.788   5.895
 3201POPC   GL242734  43.782  30.194   5.964
 3201POPC   C1A42735  43.859  29.856   6.352
 3201POPC   D2A42736  43.723  29.623   6.710
 3201POPC   C3A42737  43.927  29.864   7.084
 3201POPC   C4A42738  43.880  29.928   7.552
 3201POPC   C1B42739  44.084  30.312   6.271
 3201POPC   C2B42740  44.042  30.224   6.717
 3201POPC   C3B42741  44.256  30.296   7.118
 3201POPC   C4B42742  44.174  30.350   7.565
 3202POPC   NC342743  40.119  13.605   5.354
 3202POPC   PO442744  39.545  13.825   5.373
 3202POPC   GL142745  39.788  13.660   5.773
 3202POPC   GL242746  40.084  13.465   5.847
 3202POPC   C1A42747  39.829  13.745   6.222
 3202POPC   D2A42748  40.174  13.903   6.481
 3202POPC   C3A42749  40.221  13.752   6.891
 3202POPC   C4A42750  39.945  13.648   7.214
 3202POPC   C1B42751  40.233  13.404   6.239
 3202POPC   C2B42752  40.392  13.330   6.619
 3202POPC   C3B42753  40.219  13.245   7.000
 3202POPC   C4B42754  40.414  13.458   7.330
 3203POPC   NC342755  40.542  33.301   5.471
 3203POPC   PO442756  40.768  32.621   5.345
 3203POPC   GL142757  40.777  32.898   5.697
 3203POPC   GL242758  40.704  32.645   5.901
 3203POPC   C1A42759  40.673  33.076   6.139
 3203POPC   D2A42760  40.633  32.772   6.469
 3203POPC   C3A42761  40.616  32.907   6.909
 3203POPC   C4A42762  40.500  33.285   7.152
 3203POPC   C1B42763  41.118  32.799   6.156
 3203POPC   C2B42764  41.333  32.869   6.575
 3203POPC   C3B42765  41.120  32.916   6.970
 3203POPC   C4B42766  40.915  33.042   7.385
 3204POPC   NC342767  44.719  27.563   5.496
 3204POPC   PO442768  44.948  28.129   5.721
 3204POPC   GL142769  44.711  27.863   5.924
 3204POPC   GL242770  44.369  27.877   5.830
 3204POPC   C1A42771  44.787  27.674   6.313
 3204POPC   D2A42772  44.904  27.700   6.727
 3204POPC   C3A42773  44.949  27.741   7.146
 3204POPC   C4A42774  44.713  27.840   7.519
 3204POPC   C1B42775  44.279  27.679   6.257
 3204POPC   C2B42776  44.465  27.440   6.634
 3204POPC   C3B42777  44.485  27.548   7.068
 3204POPC   C4B42778  44.297  27.487   7.464
 3205POPC   NC342779  10.654  16.608   5.346
 3205POPC   PO442780  10.139  16.449   5.473
 3205POPC   GL142781  10.435  16.549   5.847
 3205POPC   GL242782  10.822  16.584   5.838
 3205POPC   C1A42783  10.393  16.625   6.323
 3205POPC   D2A42784  10.400  16.910   6.714
 3205POPC   C3A42785  10.271  16.763   7.133
 3205POPC   C4A42786  10.100  16.795   7.564
 3205POPC   C1B42787  10.865  16.800   6.275
 3205POPC   C2B42788  10.891  16.780   6.750
 3205POPC   C3B42789  10.782  16.932   7.190
 3205POPC   C4B42790  11.036  17.161   7.551
 3206POPC   NC342791  17.269  41.128   5.400
 3206POPC   PO442792  17.729  40.664   5.379
 3206POPC   GL142793  17.513  40.789   5.728
 3206POPC   GL242794  17.629  41.108   5.783
 3206POPC   C1A42795  17.537  40.660   6.174
 3206POPC   D2A42796  17.770  40.469   6.516
 3206POPC   C3A42797  17.573  40.557   6.895
 3206POPC   C4A42798  17.493  40.446   7.287
 3206POPC   C1B42799  17.222  41.038   6.062
 3206POPC   C2B42800  17.174  40.894   6.495
 3206POPC   C3B42801  17.410  41.053   6.849
 3206POPC   C4B42802  17.625  40.992   7.242
 3207POPC   NC342803  39.384   6.478   5.541
 3207POPC   PO442804  38.775   6.717   5.375
 3207POPC   GL142805  39.020   6.883   5.771
 3207POPC   GL242806  39.383   6.908   5.855
 3207POPC   C1A42807  39.050   6.939   6.230
 3207POPC   D2A42808  39.229   6.675   6.568
 3207POPC   C3A42809  39.133   6.705   7.020
 3207POPC   C4A42810  39.140   6.667   7.505
 3207POPC   C1B42811  39.608   6.631   6.177
 3207POPC   C2B42812  39.657   6.389   6.549
 3207POPC   C3B42813  39.541   6.373   6.931
 3207POPC   C4B42814  39.582   6.613   7.247
 3208POPC   NC342815  14.449  15.060   5.483
 3208POPC   PO442816  14.086  15.644   5.498
 3208POPC   GL142817  14.338  15.433   5.859
 3208POPC   GL242818  14.202  15.095   5.915
 3208POPC   C1A42819  14.552  15.202   6.240
 3208POPC   D2A42820  14.459  15.419   6.631
 3208POPC   C3A42821  14.418  15.231   7.037
 3208POPC   C4A42822  14.367  15.529   7.354
 3208POPC   C1B42823  14.047  15.238   6.305
 3208POPC   C2B42824  13.986  14.992   6.644
 3208POPC   C3B42825  13.912  15.045   7.043
 3208POPC   C4B42826  14.031  14.997   7.417
 3209POPC   NC342827  34.053   6.023   4.995
 3209POPC   PO442828  34.626   5.915   5.376
 3209POPC   GL142829  34.502   6.027   5.838
 3209POPC   GL242830  34.401   6.365   5.922
 3209POPC   C1A42831  34.523   5.846   6.280
 3209POPC   D2A42832  34.866   5.722   6.591
 3209POPC   C3A42833  34.826   5.539   7.028
 3209POPC   C4A42834  34.412   5.555   7.225
 3209POPC   C1B42835  34.737   6.311   6.200
 3209POPC   C2B42836  34.575   6.247   6.591
 3209POPC   C3B42837  34.622   6.010   6.939
 3209POPC   C4B42838  34.848   6.284   7.114
 3210POPC   NC342839  27.689  20.871   5.536
 3210POPC   PO442840  27.411  20.341   5.507
 3210POPC   GL142841  27.644  20.453   5.887
 3210POPC   GL242842  27.938  20.296   5.954
 3210POPC   C1A42843  27.592  20.364   6.354
 3210POPC   D2A42844  27.211  20.296   6.590
 3210POPC   C3A42845  27.233  20.426   7.024
 3210POPC   C4A42846  27.465  20.281   7.378
 3210POPC   C1B42847  28.024  20.606   6.244
 3210POPC   C2B42848  28.025  20.443   6.667
 3210POPC   C3B42849  27.804  20.563   7.036
 3210POPC   C4B42850  27.982  20.879   7.302
 3211POPC   NC342851  19.505   7.916   5.054
 3211POPC   PO442852  20.050   7.790   5.433
 3211POPC   GL142853  20.023   8.068   5.814
 3211POPC   GL242854  20.197   8.388   5.783
 3211POPC   C1A42855  19.873   8.199   6.245
 3211POPC   D2A42856  19.789   8.093   6.683
 3211POPC   C3A42857  19.679   8.314   7.074
 3211POPC   C4A42858  19.677   7.905   7.282
 3211POPC   C1B42859  20.383   8.230   6.179
 3211POPC   C2B42860  20.282   8.260   6.597
 3211POPC   C3B42861  20.175   8.215   7.008
 3211POPC   C4B42862  20.188   8.423   7.378
 3212POPC   NC342863  12.603  25.317   5.524
 3212POPC   PO442864  13.203  25.123   5.243
 3212POPC   GL142865  13.103  25.347   5.704
 3212POPC   GL242866  12.906  25.177   5.995
 3212POPC   C1A42867  13.223  25.528   6.171
 3212POPC   D2A42868  13.126  25.336   6.598
 3212POPC   C3A42869  12.837  25.516   6.918
 3212POPC   C4A42870  12.962  25.783   7.247
 3212POPC   C1B42871  12.860  24.923   6.399
 3212POPC   C2B42872  12.794  25.009   6.852
 3212POPC   C3B42873  12.847  24.992   7.322
 3212POPC   C4B42874  12.548  24.870   7.710
 3213POPC   NC342875  32.054  36.160   5.000
 3213POPC   PO442876  32.455  35.821   5.438
 3213POPC   GL142877  32.132  35.868   5.721
 3213POPC   GL242878  32.181  36.231   5.722
 3213POPC   C1A42879  32.178  35.901   6.142
 3213POPC   D2A42880  32.521  36.026   6.412
 3213POPC   C3A42881  32.528  35.908   6.854
 3213POPC   C4A42882  32.435  36.039   7.261
 3213POPC   C1B42883  32.162  36.414   6.133
 3213POPC   C2B42884  32.051  36.231   6.511
 3213POPC   C3B42885  32.120  36.225   6.911
 3213POPC   C4B42886  31.976  36.325   7.320
 3214POPC   NC342887  32.142  20.321   5.211
 3214POPC   PO442888  32.445  19.697   5.387
 3214POPC   GL142889  32.341  19.844   5.825
 3214POPC   GL242890  32.491  20.112   5.797
 3214POPC   C1A42891  32.031  19.739   6.192
 3214POPC   D2A42892  31.770  19.635   6.578
 3214POPC   C3A42893  31.984  19.622   6.980
 3214POPC   C4A42894  32.096  19.949   7.311
 3214POPC   C1B42895  32.376  20.194   6.206
 3214POPC   C2B42896  32.221  20.383   6.562
 3214POPC   C3B42897  32.361  20.255   6.951
 3214POPC   C4B42898  32.570  20.241   7.319
 3215POPC   NC342899  10.783  22.584   5.421
 3215POPC   PO442900  10.635  22.032   5.143
 3215POPC   GL142901  10.660  22.102   5.610
 3215POPC   GL242902  10.308  22.167   5.709
 3215POPC   C1A42903  10.682  22.317   6.039
 3215POPC   D2A42904  10.399  22.399   6.399
 3215POPC   C3A42905  10.579  22.341   6.836
 3215POPC   C4A42906  10.290  22.478   7.149
 3215POPC   C1B42907  10.403  21.884   6.067
 3215POPC   C2B42908  10.586  21.927   6.501
 3215POPC   C3B42909  10.603  21.819   6.959
 3215POPC   C4B42910  10.832  22.015   7.300
 3216POPC   NC342911  35.706  38.875   5.463
 3216POPC   PO442912  36.324  38.541   5.294
 3216POPC   GL142913  36.398  38.580   5.725
 3216POPC   GL242914  36.169  38.833   5.741
 3216POPC   C1A42915  36.178  38.455   6.120
 3216POPC   D2A42916  36.273  38.435   6.565
 3216POPC   C3A42917  35.990  38.320   6.923
 3216POPC   C4A42918  36.226  38.322   7.249
 3216POPC   C1B42919  36.171  38.966   6.164
 3216POPC   C2B42920  36.063  38.885   6.580
 3216POPC   C3B42921  36.213  38.773   6.967
 3216POPC   C4B42922  35.924  38.722   7.301
 3217POPC   NC342923  38.980  34.962   5.566
 3217POPC   PO442924  39.394  34.448   5.258
 3217POPC   GL142925  39.369  34.468   5.730
 3217POPC   GL242926  39.554  34.744   5.814
 3217POPC   C1A42927  39.150  34.660   6.126
 3217POPC   D2A42928  39.050  34.852   6.535
 3217POPC   C3A42929  38.990  34.639   6.898
 3217POPC   C4A42930  39.092  34.551   7.305
 3217POPC   C1B42931  39.530  34.999   6.159
 3217POPC   C2B42932  39.530  34.767   6.538
 3217POPC   C3B42933  39.480  34.515   6.893
 3217POPC   C4B42934  39.578  34.671   7.271
 3218POPC   NC342935   2.939   4.990   5.363
 3218POPC   PO442936   2.371   5.382   5.623
 3218POPC   GL142937   2.602   5.053   5.807
 3218POPC   GL242938   2.864   5.273   5.787
 3218POPC   C1A42939   2.512   4.853   6.195
 3218POPC   D2A42940   2.720   4.764   6.598
 3218POPC   C3A42941   2.590   4.822   7.009
 3218POPC   C4A42942   2.701   4.863   7.452
 3218POPC   C1B42943   2.667   5.396   6.191
 3218POPC   C2B42944   2.529   5.246   6.537
 3218POPC   C3B42945   2.791   5.256   6.843
 3218POPC   C4B42946   2.580   5.279   7.218
 3219POPC   NC342947   3.934  25.828   5.403
 3219POPC   PO442948   4.606  25.942   5.265
 3219POPC   GL142949   4.462  25.785   5.697
 3219POPC   GL242950   4.145  25.930   5.846
 3219POPC   C1A42951   4.486  25.779   6.180
 3219POPC   D2A42952   4.507  25.978   6.592
 3219POPC   C3A42953   4.269  25.736   6.916
 3219POPC   C4A42954   4.110  25.903   7.297
 3219POPC   C1B42955   4.246  26.242   6.161
 3219POPC   C2B42956   4.097  26.364   6.517
 3219POPC   C3B42957   4.131  26.239   6.897
 3219POPC   C4B42958   4.529  26.215   7.096
 3220POPC   NC342959  21.679   2.212   5.318
 3220POPC   PO442960  21.058   1.938   5.317
 3220POPC   GL142961  21.337   1.959   5.679
 3220POPC   GL242962  21.560   1.670   5.812
 3220POPC   C1A42963  21.224   1.904   6.106
 3220POPC   D2A42964  21.437   1.986   6.510
 3220POPC   C3A42965  21.258   2.096   6.909
 3220POPC   C4A42966  21.394   1.817   7.236
 3220POPC   C1B42967  21.720   2.016   6.079
 3220POPC   C2B42968  21.933   2.150   6.453
 3220POPC   C3B42969  21.802   2.086   6.886
 3220POPC   C4B42970  21.869   2.026   7.324
 3221POPC   NC342971   1.725  17.835   5.526
 3221POPC   PO442972   2.042  18.418   5.415
 3221POPC   GL142973   2.144  18.336   5.882
 3221POPC   GL242974   1.838  18.134   5.950
 3221POPC   C1A42975   2.199  18.303   6.348
 3221POPC   D2A42976   2.224  18.076   6.741
 3221POPC   C3A42977   2.092  18.326   7.063
 3221POPC   C4A42978   2.089  18.397   7.490
 3221POPC   C1B42979   1.753  18.495   6.224
 3221POPC   C2B42980   1.782  18.478   6.680
 3221POPC   C3B42981   1.620  18.508   7.110
 3221POPC   C4B42982   1.666  18.679   7.527
 3222POPC   NC342983   2.912  39.961   5.234
 3222POPC   PO442984   2.416  40.207   5.625
 3222POPC   GL142985   2.618  39.935   5.827
 3222POPC   GL242986   2.985  39.984   5.766
 3222POPC   C1A42987   2.589  40.020   6.249
 3222POPC   D2A42988   2.833  40.217   6.533
 3222POPC   C3A42989   2.649  40.118   6.898
 3222POPC   C4A42990   2.790  40.292   7.277
 3222POPC   C1B42991   3.055  39.828   6.198
 3222POPC   C2B42992   2.917  39.726   6.643
 3222POPC   C3B42993   3.107  39.964   6.974
 3222POPC   C4B42994   3.214  39.990   7.387
 3223POPC   NC342995  40.895  22.338   5.555
 3223POPC   PO442996  40.513  21.770   5.441
 3223POPC   GL142997  40.604  22.016   5.855
 3223POPC   GL242998  40.518  22.385   5.928
 3223POPC   C1A42999  40.509  22.004   6.315
 3223POPC   D2A43000  40.665  21.785   6.692
 3223POPC   C3A43001  40.740  22.007   7.065
 3223POPC   C4A43002  40.629  22.421   7.224
 3223POPC   C1B43003  40.923  22.278   6.189
 3223POPC   C2B43004  41.032  22.146   6.595
 3223POPC   C3B43005  41.085  22.366   6.964
 3223POPC   C4B43006  41.072  22.252   7.391
 3224POPC   NC343007  16.881  33.151   5.573
 3224POPC   PO443008  16.735  33.771   5.280
 3224POPC   GL143009  16.855  33.659   5.697
 3224POPC   GL243010  16.525  33.572   5.805
 3224POPC   C1A43011  16.895  33.766   6.149
 3224POPC   D2A43012  17.052  34.028   6.541
 3224POPC   C3A43013  16.823  33.932   6.923
 3224POPC   C4A43014  16.849  33.848   7.342
 3224POPC   C1B43015  16.553  33.386   6.219
 3224POPC   C2B43016  16.586  33.590   6.610
 3224POPC   C3B43017  16.631  33.472   7.060
 3224POPC   C4B43018  16.425  33.583   7.464
 3225POPC   NC343019   7.174  24.801   5.461
 3225POPC   PO443020   7.602  24.305   5.536
 3225POPC   GL143021   7.473  24.616   5.822
 3225POPC   GL243022   7.170  24.424   5.809
 3225POPC   C1A43023   7.341  24.583   6.256
 3225POPC   D2A43024   7.496  24.266   6.549
 3225POPC   C3A43025   7.466  24.428   6.957
 3225POPC   C4A43026   7.328  24.742   7.250
 3225POPC   C1B43027   7.062  24.149   6.151
 3225POPC   C2B43028   6.992  24.305   6.556
 3225POPC   C3B43029   7.039  24.144   6.956
 3225POPC   C4B43030   7.186  24.273   7.371
 3226POPC   NC343031  29.381   6.329   5.275
 3226POPC   PO443032  28.779   6.222   5.276
 3226POPC   GL143033  29.003   6.147   5.696
 3226POPC   GL243034  29.365   6.214   5.763
 3226POPC   C1A43035  29.144   5.831   6.048
 3226POPC   D2A43036  29.351   5.804   6.465
 3226POPC   C3A43037  29.096   5.687   6.837
 3226POPC   C4A43038  29.136   5.783   7.279
 3226POPC   C1B43039  29.190   6.313   6.163
 3226POPC   C2B43040  29.271   6.300   6.589
 3226POPC   C3B43041  29.434   6.057   6.934
 3226POPC   C4B43042  29.752   5.998   7.281
 3227POPC   NC343043  21.686  26.771   5.200
 3227POPC   PO443044  22.204  26.657   5.637
 3227POPC   GL143045  22.417  26.853   5.938
 3227POPC   GL243046  22.366  27.218   5.980
 3227POPC   C1A43047  22.498  26.612   6.281
 3227POPC   D2A43048  22.262  26.708   6.647
 3227POPC   C3A43049  22.242  26.477   6.965
 3227POPC   C4A43050  22.353  26.666   7.304
 3227POPC   C1B43051  22.125  27.058   6.305
 3227POPC   C2B43052  21.963  27.121   6.713
 3227POPC   C3B43053  22.087  27.044   7.123
 3227POPC   C4B43054  22.013  27.265   7.495
 3228POPC   NC343055  30.201   0.764   5.395
 3228POPC   PO443056  29.652   0.401   5.326
 3228POPC   GL143057  29.868   0.410   5.732
 3228POPC   GL243058  29.908   0.745   5.835
 3228POPC   C1A43059  30.148   0.401   6.121
 3228POPC   D2A43060  30.177   0.265   6.557
 3228POPC   C3A43061  30.209   0.554   6.903
 3228POPC   C4A43062  30.423   0.604   7.277
 3228POPC   C1B43063  29.681   0.637   6.215
 3228POPC   C2B43064  29.767   0.604   6.649
 3228POPC   C3B43065  29.717   0.506   7.070
 3228POPC   C4B43066  29.578   0.164   7.218
 3229POPC   NC343067  44.694  16.337   5.554
 3229POPC   PO443068  44.963  16.947   5.206
 3229POPC   GL143069  44.952  16.953   5.706
 3229POPC   GL243070  44.840  16.661   5.918
 3229POPC   C1A43071  44.895  17.113   6.148
 3229POPC   D2A43072  44.705  17.158   6.549
 3229POPC   C3A43073  44.550  16.846   6.836
 3229POPC   C4A43074  44.815  16.769   7.165
 3229POPC   C1B43075  44.894  16.349   6.266
 3229POPC   C2B43076   0.147  16.194   6.594
 3229POPC   C3B43077  44.961  16.294   7.011
 3229POPC   C4B43078  44.485  16.286   7.085
 3230POPC   NC343079  36.681  21.811   5.441
 3230POPC   PO443080  36.956  22.415   5.210
 3230POPC   GL143081  37.013  22.278   5.677
 3230POPC   GL243082  36.708  22.112   5.844
 3230POPC   C1A43083  37.144  22.158   6.137
 3230POPC   D2A43084  37.216  22.193   6.618
 3230POPC   C3A43085  36.929  21.950   6.932
 3230POPC   C4A43086  37.017  21.880   7.391
 3230POPC   C1B43087  36.646  22.010   6.286
 3230POPC   C2B43088  36.704  22.329   6.604
 3230POPC   C3B43089  36.730  22.428   7.028
 3230POPC   C4B43090  36.729  22.288   7.455
 3231POPC   NC343091   9.817  37.238   5.470
 3231POPC   PO443092   9.436  36.735   5.327
 3231POPC   GL143093   9.521  36.900   5.764
 3231POPC   GL243094   9.890  36.968   5.882
 3231POPC   C1A43095   9.535  36.800   6.221
 3231POPC   D2A43096   9.836  36.990   6.531
 3231POPC   C3A43097   9.666  36.887   6.910
 3231POPC   C4A43098   9.840  36.916   7.298
 3231POPC   C1B43099   9.695  37.292   6.145
 3231POPC   C2B43100   9.476  37.333   6.567
 3231POPC   C3B43101   9.586  37.383   7.017
 3231POPC   C4B43102   9.622  37.343   7.477
 3232POPC   NC343103   9.079   3.311   5.488
 3232POPC   PO443104   9.126   4.021   5.313
 3232POPC   GL143105   9.016   3.785   5.670
 3232POPC   GL243106   8.741   3.944   5.808
 3232POPC   C1A43107   9.140   3.665   6.092
 3232POPC   D2A43108   9.206   3.409   6.458
 3232POPC   C3A43109   9.061   3.641   6.851
 3232POPC   C4A43110   8.906   3.532   7.256
 3232POPC   C1B43111   8.650   3.536   6.013
 3232POPC   C2B43112   8.723   3.590   6.442
 3232POPC   C3B43113   8.591   3.434   6.843
 3232POPC   C4B43114   8.568   3.185   7.162
 3233POPC   NC343115  20.046   3.999   5.528
 3233POPC   PO443116  19.749   3.380   5.406
 3233POPC   GL143117  19.766   3.640   5.783
 3233POPC   GL243118  19.475   3.823   5.847
 3233POPC   C1A43119  20.002   3.459   6.115
 3233POPC   D2A43120  19.981   3.100   6.381
 3233POPC   C3A43121  20.004   3.154   6.814
 3233POPC   C4A43122  19.739   3.232   7.168
 3233POPC   C1B43123  19.579   4.008   6.228
 3233POPC   C2B43124  19.827   3.789   6.461
 3233POPC   C3B43125  19.837   3.639   6.839
 3233POPC   C4B43126  20.063   3.672   7.181
 3234POPC   NC343127  38.926   7.169   5.360
 3234POPC   PO443128  39.373   7.597   5.230
 3234POPC   GL143129  39.355   7.557   5.733
 3234POPC   GL243130  38.987   7.524   5.791
 3234POPC   C1A43131  39.328   7.592   6.233
 3234POPC   D2A43132  39.238   7.772   6.690
 3234POPC   C3A43133  39.346   7.502   7.046
 3234POPC   C4A43134  39.285   7.103   7.297
 3234POPC   C1B43135  38.815   7.495   6.203
 3234POPC   C2B43136  39.002   7.329   6.556
 3234POPC   C3B43137  38.960   7.184   6.927
 3234POPC   C4B43138  38.867   7.510   7.210
 3235POPC   NC343139  13.447   4.117   5.503
 3235POPC   PO443140  13.477   4.727   5.271
 3235POPC   GL143141  13.534   4.595   5.762
 3235POPC   GL243142  13.765   4.275   5.898
 3235POPC   C1A43143  13.368   4.381   6.156
 3235POPC   D2A43144  13.569   4.291   6.573
 3235POPC   C3A43145  13.626   4.621   6.872
 3235POPC   C4A43146  13.561   4.593   7.322
 3235POPC   C1B43147  13.867   4.564   6.248
 3235POPC   C2B43148  14.072   4.508   6.676
 3235POPC   C3B43149  13.997   4.351   7.131
 3235POPC   C4B43150  13.981   4.512   7.592
 3236POPC   NC343151  12.711  22.776   5.497
 3236POPC   PO443152  12.888  23.450   5.465
 3236POPC   GL143153  12.944  23.130   5.847
 3236POPC   GL243154  12.880  22.734   5.982
 3236POPC   C1A43155  12.876  23.119   6.299
 3236POPC   D2A43156  12.786  22.729   6.539
 3236POPC   C3A43157  12.811  22.883   6.959
 3236POPC   C4A43158  12.925  23.270   7.212
 3236POPC   C1B43159  13.159  22.465   6.265
 3236POPC   C2B43160  13.126  22.382   6.707
 3236POPC   C3B43161  13.178  22.557   7.089
 3236POPC   C4B43162  13.070  22.843   7.449
 3237POPC   NC343163  17.291  22.353   5.492
 3237POPC   PO443164  17.976  22.194   5.417
 3237POPC   GL143165  17.700  22.241   5.831
 3237POPC   GL243166  17.435  22.517   5.930
 3237POPC   C1A43167  17.582  22.223   6.301
 3237POPC   D2A43168  17.672  22.196   6.727
 3237POPC   C3A43169  17.429  21.985   7.030
 3237POPC   C4A43170  17.630  22.148   7.390
 3237POPC   C1B43171  17.167  22.752   6.182
 3237POPC   C2B43172  17.218  22.602   6.593
 3237POPC   C3B43173  17.395  22.552   6.974
 3237POPC   C4B43174  17.217  22.490   7.369
 3238POPC   NC343175  42.815  39.846   5.491
 3238POPC   PO443176  43.298  40.262   5.206
 3238POPC   GL143177  43.281  40.045   5.665
 3238POPC   GL243178  43.595  39.970   5.820
 3238POPC   C1A43179  43.231  39.908   6.163
 3238POPC   D2A43180  43.052  40.070   6.561
 3238POPC   C3A43181  43.202  39.985   6.990
 3238POPC   C4A43182  43.035  40.064   7.417
 3238POPC   C1B43183  43.377  40.375   6.059
 3238POPC   C2B43184  43.402  40.451   6.495
 3238POPC   C3B43185  43.259  40.505   6.894
 3238POPC   C4B43186  43.378  40.442   7.298
 3239POPC   NC343187  39.681  40.724   5.447
 3239POPC   PO443188  40.363  40.970   5.341
 3239POPC   GL143189  40.089  41.110   5.733
 3239POPC   GL243190  39.913  40.836   5.894
 3239POPC   C1A43191  40.104  41.163   6.214
 3239POPC   D2A43192  39.947  40.908   6.554
 3239POPC   C3A43193  39.949  41.106   6.950
 3239POPC   C4A43194  39.995  41.042   7.386
 3239POPC   C1B43195  40.236  40.653   6.169
 3239POPC   C2B43196  40.151  40.432   6.542
 3239POPC   C3B43197  40.204  40.650   6.925
 3239POPC   C4B43198  40.040  40.518   7.297
 3240POPC   NC343199   3.861  24.882   5.437
 3240POPC   PO443200   3.374  24.326   5.171
 3240POPC   GL143201   3.626  24.349   5.586
 3240POPC   GL243202   3.530  24.654   5.768
 3240POPC   C1A43203   3.788  24.335   6.059
 3240POPC   D2A43204   3.573  24.547   6.427
 3240POPC   C3A43205   3.641  24.440   6.852
 3240POPC   C4A43206   3.601  24.492   7.292
 3240POPC   C1B43207   3.282  24.837   6.100
 3240POPC   C2B43208   3.307  24.978   6.547
 3240POPC   C3B43209   3.270  24.798   6.945
 3240POPC   C4B43210   3.207  24.845   7.347
 3241POPC   NC343211   1.390  20.358   5.344
 3241POPC   PO443212   0.897  20.842   5.396
 3241POPC   GL143213   1.168  20.846   5.734
 3241POPC   GL243214   1.315  20.510   5.824
 3241POPC   C1A43215   1.006  20.747   6.148
 3241POPC   D2A43216   1.219  20.699   6.527
 3241POPC   C3A43217   0.997  20.773   6.918
 3241POPC   C4A43218   1.219  20.758   7.289
 3241POPC   C1B43219   1.201  20.275   6.207
 3241POPC   C2B43220   1.221  20.202   6.639
 3241POPC   C3B43221   1.288  20.317   7.065
 3241POPC   C4B43222   1.463  20.325   7.488
 3242POPC   NC343223  26.494  33.382   5.465
 3242POPC   PO443224  27.174  33.078   5.428
 3242POPC   GL143225  26.950  32.883   5.774
 3242POPC   GL243226  26.668  33.084   5.841
 3242POPC   C1A43227  26.914  32.836   6.216
 3242POPC   D2A43228  26.897  32.673   6.589
 3242POPC   C3A43229  27.134  32.869   6.838
 3242POPC   C4A43230  27.069  33.052   7.171
 3242POPC   C1B43231  26.680  33.293   6.218
 3242POPC   C2B43232  26.879  33.244   6.588
 3242POPC   C3B43233  26.800  33.432   6.966
 3242POPC   C4B43234  26.647  33.268   7.348
 3243POPC   NC343235  30.288  27.799   5.471
 3243POPC   PO443236  29.928  28.332   5.157
 3243POPC   GL143237  29.856  28.216   5.626
 3243POPC   GL243238  29.581  28.006   5.677
 3243POPC   C1A43239  29.801  28.314   6.104
 3243POPC   D2A43240  29.994  28.374   6.569
 3243POPC   C3A43241  29.940  28.370   7.039
 3243POPC   C4A43242  30.211  28.546   7.386
 3243POPC   C1B43243  29.472  27.936   6.139
 3243POPC   C2B43244  29.497  28.202   6.521
 3243POPC   C3B43245  29.442  28.157   6.955
 3243POPC   C4B43246  29.581  28.180   7.368
 3244POPC   NC343247   0.134  34.042   5.067
 3244POPC   PO443248   0.619  33.697   5.198
 3244POPC   GL143249   0.455  33.851   5.589
 3244POPC   GL243250   0.759  33.866   5.790
 3244POPC   C1A43251   0.180  33.898   5.977
 3244POPC   D2A43252   0.194  33.917   6.474
 3244POPC   C3A43253   0.044  33.785   6.911
 3244POPC   C4A43254   0.226  33.872   7.346
 3244POPC   C1B43255   0.618  33.761   6.200
 3244POPC   C2B43256   0.699  33.976   6.582
 3244POPC   C3B43257   0.561  33.881   6.945
 3244POPC   C4B43258   0.739  33.754   7.288
 3245POPC   NC343259  16.271   5.057   5.695
 3245POPC   PO443260  16.822   5.058   5.273
 3245POPC   GL143261  16.807   4.972   5.721
 3245POPC   GL243262  16.717   5.295   5.826
 3245POPC   C1A43263  16.895   4.941   6.187
 3245POPC   D2A43264  17.139   4.997   6.588
 3245POPC   C3A43265  16.905   4.845   6.951
 3245POPC   C4A43266  16.883   4.624   7.342
 3245POPC   C1B43267  16.538   5.383   6.225
 3245POPC   C2B43268  16.688   5.231   6.598
 3245POPC   C3B43269  16.560   5.212   6.998
 3245POPC   C4B43270  16.726   5.106   7.355
 3246POPC   NC343271  29.278  43.989   5.373
 3246POPC   PO443272  28.685  43.995   5.214
 3246POPC   GL143273  28.912  43.925   5.698
 3246POPC   GL243274  29.202  43.638   5.782
 3246POPC   C1A43275  29.144  44.021   6.107
 3246POPC   D2A43276  28.945  43.986   6.532
 3246POPC   C3A43277  29.177  44.030   6.917
 3246POPC   C4A43278  29.465  43.825   7.173
 3246POPC   C1B43279  29.129  43.514   6.262
 3246POPC   C2B43280  28.824  43.491   6.634
 3246POPC   C3B43281  28.835  43.661   7.065
 3246POPC   C4B43282  28.766  43.655   7.541
 3247POPC   NC343283  38.306  18.248   5.069
 3247POPC   PO443284  38.544  18.077   5.697
 3247POPC   GL143285  38.490  18.436   5.928
 3247POPC   GL243286  38.163  18.622   5.878
 3247POPC   C1A43287  38.697  18.570   6.277
 3247POPC   D2A43288  38.437  18.411   6.591
 3247POPC   C3A43289  38.646  18.368   6.980
 3247POPC   C4A43290  38.852  18.059   7.188
 3247POPC   C1B43291  38.032  18.355   6.213
 3247POPC   C2B43292  37.819  18.364   6.603
 3247POPC   C3B43293  38.123  18.338   6.970
 3247POPC   C4B43294  38.342  18.204   7.375
 3248POPC   NC343295  33.965  32.598   5.467
 3248POPC   PO443296  33.535  32.099   5.514
 3248POPC   GL143297  33.778  32.299   5.851
 3248POPC   GL243298  33.604  32.616   5.900
 3248POPC   C1A43299  33.857  32.316   6.310
 3248POPC   D2A43300  33.564  32.218   6.697
 3248POPC   C3A43301  33.742  32.073   7.099
 3248POPC   C4A43302  34.158  32.249   7.246
 3248POPC   C1B43303  33.482  32.644   6.335
 3248POPC   C2B43304  33.778  32.678   6.657
 3248POPC   C3B43305  33.811  32.558   7.075
 3248POPC   C4B43306  33.829  32.522   7.520
 3249POPC   NC343307  40.281  27.333   5.634
 3249POPC   PO443308  40.397  28.017   5.478
 3249POPC   GL143309  40.242  27.789   5.850
 3249POPC   GL243310  39.910  27.660   5.792
 3249POPC   C1A43311  40.206  27.585   6.253
 3249POPC   D2A43312  40.228  27.780   6.643
 3249POPC   C3A43313  39.980  27.514   6.849
 3249POPC   C4A43314  40.078  27.277   7.192
 3249POPC   C1B43315  39.708  27.517   6.213
 3249POPC   C2B43316  39.494  27.491   6.605
 3249POPC   C3B43317  39.540  27.717   6.982
 3249POPC   C4B43318  39.781  27.652   7.311
 3250POPC   NC343319  41.761  22.957   5.735
 3250POPC   PO443320  41.168  22.707   5.605
 3250POPC   GL143321  41.362  22.869   6.008
 3250POPC   GL243322  41.749  22.682   6.138
 3250POPC   C1A43323  41.475  23.037   6.410
 3250POPC   D2A43324  41.330  23.013   6.856
 3250POPC   C3A43325  41.638  22.975   7.144
 3250POPC   C4A43326  41.964  22.695   7.199
 3250POPC   C1B43327  41.417  22.437   6.228
 3250POPC   C2B43328  41.238  22.605   6.533
 3250POPC   C3B43329  41.554  22.568   6.825
 3250POPC   C4B43330  41.491  22.495   7.237
 3251POPC   NC343331  30.626  22.361   5.459
 3251POPC   PO443332  31.074  21.840   5.303
 3251POPC   GL143333  30.834  21.958   5.729
 3251POPC   GL243334  30.567  21.727   5.883
 3251POPC   C1A43335  30.693  22.212   6.130
 3251POPC   D2A43336  30.417  22.262   6.513
 3251POPC   C3A43337  30.531  22.344   6.957
 3251POPC   C4A43338  30.821  22.323   7.276
 3251POPC   C1B43339  30.620  21.761   6.355
 3251POPC   C2B43340  30.865  22.046   6.644
 3251POPC   C3B43341  30.994  21.910   7.037
 3251POPC   C4B43342  30.763  21.719   7.379
 3252POPC   NC343343  21.786  24.343   5.615
 3252POPC   PO443344  21.236  24.094   5.440
 3252POPC   GL143345  21.242  24.351   5.814
 3252POPC   GL243346  21.531  24.295   6.037
 3252POPC   C1A43347  21.108  24.407   6.255
 3252POPC   D2A43348  21.354  24.407   6.619
 3252POPC   C3A43349  21.157  24.246   6.963
 3252POPC   C4A43350  21.138  24.427   7.370
 3252POPC   C1B43351  21.629  24.670   6.276
 3252POPC   C2B43352  21.621  24.861   6.705
 3252POPC   C3B43353  21.477  24.668   7.065
 3252POPC   C4B43354  21.576  24.603   7.508
 3253POPC   NC343355  44.333   7.559   5.592
 3253POPC   PO443356  43.863   7.152   5.414
 3253POPC   GL143357  43.829   7.405   5.818
 3253POPC   GL243358  43.726   7.780   5.903
 3253POPC   C1A43359  43.858   7.393   6.283
 3253POPC   D2A43360  43.626   7.513   6.631
 3253POPC   C3A43361  43.748   7.351   7.055
 3253POPC   C4A43362  44.149   7.282   7.258
 3253POPC   C1B43363  44.110   7.800   6.199
 3253POPC   C2B43364  44.273   7.668   6.600
 3253POPC   C3B43365  43.992   7.777   6.934
 3253POPC   C4B43366  43.503   7.783   7.030
 3254POPC   NC343367  31.877   1.036   5.348
 3254POPC   PO443368  32.453   1.370   5.306
 3254POPC   GL143369  32.283   1.107   5.672
 3254POPC   GL243370  32.618   0.990   5.694
 3254POPC   C1A43371  32.065   1.064   6.122
 3254POPC   D2A43372  32.043   0.907   6.588
 3254POPC   C3A43373  32.044   1.237   6.926
 3254POPC   C4A43374  31.708   1.439   7.207
 3254POPC   C1B43375  32.536   0.896   6.132
 3254POPC   C2B43376  32.621   0.870   6.587
 3254POPC   C3B43377  32.404   0.861   6.981
 3254POPC   C4B43378  32.420   1.022   7.362
 3255POPC   NC343379  28.382  33.619   5.426
 3255POPC   PO443380  28.667  32.989   5.414
 3255POPC   GL143381  28.406  32.966   5.750
 3255POPC   GL243382  28.420  33.311   5.807
 3255POPC   C1A43383  28.216  33.027   6.154
 3255POPC   D2A43384  28.246  32.924   6.540
 3255POPC   C3A43385  28.077  33.051   6.934
 3255POPC   C4A43386  28.264  32.910   7.294
 3255POPC   C1B43387  28.631  33.498   6.151
 3255POPC   C2B43388  28.497  33.394   6.546
 3255POPC   C3B43389  28.577  33.111   6.874
 3255POPC   C4B43390  28.486  33.368   7.221
 3256POPC   NC343391  13.066  18.233   5.520
 3256POPC   PO443392  12.410  18.140   5.560
 3256POPC   GL143393  12.692  18.377   5.825
 3256POPC   GL243394  12.476  18.632   5.872
 3256POPC   C1A43395  13.015  18.351   6.180
 3256POPC   D2A43396  12.890  18.179   6.594
 3256POPC   C3A43397  12.972  18.134   7.019
 3256POPC   C4A43398  13.035  17.940   7.427
 3256POPC   C1B43399  12.513  18.417   6.298
 3256POPC   C2B43400  12.588  18.580   6.705
 3256POPC   C3B43401  12.510  18.495   7.126
 3256POPC   C4B43402  12.584  18.123   7.372
 3257POPC   NC343403   2.328  44.818   5.306
 3257POPC   PO443404   2.981  44.629   5.308
 3257POPC   GL143405   2.702  44.620   5.674
 3257POPC   GL243406   2.804  44.937   5.765
 3257POPC   C1A43407   2.771  44.473   6.144
 3257POPC   D2A43408   2.471  44.372   6.518
 3257POPC   C3A43409   2.601  44.531   6.935
 3257POPC   C4A43410   2.987  44.528   7.190
 3257POPC   C1B43411   2.658   0.069   6.160
 3257POPC   C2B43412   2.791  44.851   6.543
 3257POPC   C3B43413   2.629   0.055   6.911
 3257POPC   C4B43414   2.832   0.055   7.275
 3258POPC   NC343415  41.348  17.757   5.407
 3258POPC   PO443416  41.439  17.051   5.515
 3258POPC   GL143417  41.454  17.392   5.776
 3258POPC   GL243418  41.152  17.492   5.825
 3258POPC   C1A43419  41.566  17.619   6.151
 3258POPC   D2A43420  41.763  17.463   6.525
 3258POPC   C3A43421  41.656  17.559   6.965
 3258POPC   C4A43422  41.646  17.197   7.245
 3258POPC   C1B43423  41.093  17.388   6.216
 3258POPC   C2B43424  41.228  17.594   6.565
 3258POPC   C3B43425  41.167  17.448   6.948
 3258POPC   C4B43426  41.289  17.618   7.338
 3259POPC   NC343427   7.227  20.532   5.243
 3259POPC   PO443428   7.815  20.750   5.122
 3259POPC   GL143429   7.583  20.622   5.597
 3259POPC   GL243430   7.341  20.418   5.788
 3259POPC   C1A43431   7.532  20.800   6.093
 3259POPC   D2A43432   7.774  20.902   6.496
 3259POPC   C3A43433   7.657  20.927   6.959
 3259POPC   C4A43434   7.662  20.694   7.373
 3259POPC   C1B43435   7.217  20.455   6.244
 3259POPC   C2B43436   7.320  20.664   6.622
 3259POPC   C3B43437   7.377  20.473   7.014
 3259POPC   C4B43438   7.280  20.323   7.424
 3260POPC   NC343439   9.553  41.628   5.333
 3260POPC   PO443440   9.793  40.994   5.270
 3260POPC   GL143441   9.700  41.332   5.688
 3260POPC   GL243442  10.019  41.497   5.796
 3260POPC   C1A43443   9.677  41.544   6.134
 3260POPC   D2A43444   9.835  41.684   6.527
 3260POPC   C3A43445   9.657  41.491   6.884
 3260POPC   C4A43446   9.739  41.588   7.314
 3260POPC   C1B43447  10.152  41.318   6.243
 3260POPC   C2B43448  10.064  41.256   6.656
 3260POPC   C3B43449  10.142  41.442   7.037
 3260POPC   C4B43450  10.091  41.283   7.496
 3261POPC   NC343451  30.123  41.357   5.400
 3261POPC   PO443452  29.722  41.910   5.536
 3261POPC   GL143453  30.042  41.699   5.803
 3261POPC   GL243454  30.052  41.334   5.890
 3261POPC   C1A43455  29.984  41.679   6.244
 3261POPC   D2A43456  29.806  41.932   6.535
 3261POPC   C3A43457  29.956  41.892   6.953
 3261POPC   C4A43458  30.182  41.608   7.159
 3261POPC   C1B43459  29.772  41.195   6.199
 3261POPC   C2B43460  29.775  41.367   6.604
 3261POPC   C3B43461  29.512  41.353   6.919
 3261POPC   C4B43462  29.731  41.362   7.230
 3262POPC   NC343463   7.597  19.566   5.387
 3262POPC   PO443464   7.261  20.089   5.386
 3262POPC   GL143465   7.315  19.890   5.773
 3262POPC   GL243466   7.633  19.999   5.872
 3262POPC   C1A43467   7.249  19.963   6.230
 3262POPC   D2A43468   7.399  20.146   6.624
 3262POPC   C3A43469   7.386  19.962   7.043
 3262POPC   C4A43470   7.150  19.640   7.230
 3262POPC   C1B43471   7.732  19.848   6.294
 3262POPC   C2B43472   7.468  19.635   6.603
 3262POPC   C3B43473   7.598  19.499   6.997
 3262POPC   C4B43474   7.871  19.707   7.281
 3263POPC   NC343475  38.465  27.605   5.403
 3263POPC   PO443476  39.050  27.218   5.473
 3263POPC   GL143477  38.876  27.505   5.846
 3263POPC   GL243478  38.600  27.776   5.840
 3263POPC   C1A43479  38.549  27.416   6.205
 3263POPC   D2A43480  38.336  27.304   6.619
 3263POPC   C3A43481  38.570  27.529   6.930
 3263POPC   C4A43482  38.769  27.630   7.310
 3263POPC   C1B43483  38.282  27.889   6.161
 3263POPC   C2B43484  38.206  27.814   6.599
 3263POPC   C3B43485  38.069  27.606   6.993
 3263POPC   C4B43486  38.262  27.735   7.362
 3264POPC   NC343487  41.041  21.588   5.344
 3264POPC   PO443488  40.741  21.027   5.534
 3264POPC   GL143489  40.838  21.181   5.913
 3264POPC   GL243490  40.721  21.509   5.859
 3264POPC   C1A43491  40.814  21.012   6.345
 3264POPC   D2A43492  41.070  21.139   6.710
 3264POPC   C3A43493  40.803  21.153   7.081
 3264POPC   C4A43494  40.813  21.232   7.546
 3264POPC   C1B43495  40.551  21.461   6.289
 3264POPC   C2B43496  40.473  21.324   6.731
 3264POPC   C3B43497  40.519  21.545   7.157
 3264POPC   C4B43498  40.357  21.870   7.409
 3265POPC   NC343499  25.813  43.560   5.190
 3265POPC   PO443500  26.328  43.919   4.965
 3265POPC   GL143501  26.221  43.884   5.528
 3265POPC   GL243502  26.099  43.545   5.746
 3265POPC   C1A43503  26.162  43.990   6.047
 3265POPC   D2A43504  25.911  43.992   6.486
 3265POPC   C3A43505  26.090  44.045   6.927
 3265POPC   C4A43506  26.115  44.198   7.361
 3265POPC   C1B43507  25.820  43.591   6.149
 3265POPC   C2B43508  25.534  43.597   6.512
 3265POPC   C3B43509  25.695  43.679   6.889
 3265POPC   C4B43510  25.951  43.653   7.240
 3266POPC   NC343511  20.526  43.417   5.568
 3266POPC   PO443512  20.753  44.111   5.518
 3266POPC   GL143513  20.679  43.839   5.865
 3266POPC   GL243514  20.330  43.826   5.875
 3266POPC   C1A43515  20.642  43.676   6.311
 3266POPC   D2A43516  20.904  43.689   6.709
 3266POPC   C3A43517  20.865  43.717   7.210
 3266POPC   C4A43518  20.670  43.887   7.647
 3266POPC   C1B43519  20.280  44.057   6.252
 3266POPC   C2B43520  20.547  44.246   6.577
 3266POPC   C3B43521  20.678  44.131   6.994
 3266POPC   C4B43522  20.368  44.063   7.301
 3267POPC   NC343523  20.463  28.766   5.211
 3267POPC   PO443524  20.892  28.174   5.273
 3267POPC   GL143525  20.745  28.484   5.602
 3267POPC   GL243526  20.412  28.657   5.695
 3267POPC   C1A43527  20.841  28.533   6.060
 3267POPC   D2A43528  20.797  28.257   6.452
 3267POPC   C3A43529  20.855  28.366   6.885
 3267POPC   C4A43530  20.666  28.317   7.323
 3267POPC   C1B43531  20.373  28.688   6.123
 3267POPC   C2B43532  20.600  28.753   6.561
 3267POPC   C3B43533  20.482  28.668   7.032
 3267POPC   C4B43534  20.348  28.659   7.530
 3268POPC   NC343535  13.056  15.796   5.428
 3268POPC   PO443536  12.611  16.272   5.359
 3268POPC   GL143537  12.769  16.306   5.789
 3268POPC   GL243538  12.647  15.980   5.828
 3268POPC   C1A43539  13.018  16.410   6.196
 3268POPC   D2A43540  13.114  16.263   6.647
 3268POPC   C3A43541  12.815  16.098   6.952
 3268POPC   C4A43542  12.940  15.981   7.357
 3268POPC   C1B43543  12.915  15.904   6.151
 3268POPC   C2B43544  12.918  15.778   6.561
 3268POPC   C3B43545  12.839  15.596   6.962
 3268POPC   C4B43546  12.958  15.454   7.341
 3269POPC   NC343547  38.751  36.534   5.507
 3269POPC   PO443548  38.160  36.721   5.095
 3269POPC   GL143549  38.349  36.896   5.547
 3269POPC   GL243550  38.360  36.637   5.836
 3269POPC   C1A43551  38.531  37.098   5.993
 3269POPC   D2A43552  38.555  37.208   6.475
 3269POPC   C3A43553  38.687  37.071   6.919
 3269POPC   C4A43554  38.519  37.162   7.344
 3269POPC   C1B43555  38.194  36.784   6.262
 3269POPC   C2B43556  38.269  36.727   6.724
 3269POPC   C3B43557  38.384  36.706   7.186
 3269POPC   C4B43558  38.504  36.648   7.648
 3270POPC   NC343559  12.159  16.238   5.420
 3270POPC   PO443560  11.794  15.696   5.403
 3270POPC   GL143561  11.959  15.915   5.787
 3270POPC   GL243562  12.216  15.705   5.911
 3270POPC   C1A43563  11.993  16.021   6.262
 3270POPC   D2A43564  11.867  16.024   6.698
 3270POPC   C3A43565  12.066  15.935   7.092
 3270POPC   C4A43566  11.787  16.062   7.447
 3270POPC   C1B43567  12.438  15.819   6.304
 3270POPC   C2B43568  12.406  15.704   6.702
 3270POPC   C3B43569  12.340  15.482   7.061
 3270POPC   C4B43570  12.486  15.756   7.347
 3271POPC   NC343571  18.559  28.775   5.460
 3271POPC   PO443572  18.561  29.535   5.323
 3271POPC   GL143573  18.279  29.415   5.714
 3271POPC   GL243574  18.329  29.050   5.860
 3271POPC   C1A43575  18.003  29.348   6.117
 3271POPC   D2A43576  17.891  29.042   6.466
 3271POPC   C3A43577  17.998  29.161   6.924
 3271POPC   C4A43578  17.971  28.956   7.354
 3271POPC   C1B43579  18.404  29.078   6.318
 3271POPC   C2B43580  18.301  28.798   6.647
 3271POPC   C3B43581  18.355  28.824   7.085
 3271POPC   C4B43582  18.365  29.272   7.281
 3272POPC   NC343583  32.513  33.198   5.466
 3272POPC   PO443584  32.073  32.704   5.482
 3272POPC   GL143585  32.128  33.056   5.766
 3272POPC   GL243586  32.455  32.934   5.888
 3272POPC   C1A43587  32.129  33.246   6.174
 3272POPC   D2A43588  32.064  33.064   6.588
 3272POPC   C3A43589  31.921  33.280   6.946
 3272POPC   C4A43590  32.122  33.445   7.317
 3272POPC   C1B43591  32.174  32.733   6.169
 3272POPC   C2B43592  32.214  32.578   6.567
 3272POPC   C3B43593  32.411  32.753   6.900
 3272POPC   C4B43594  32.222  32.964   7.245
 3273POPC   NC343595   2.874  37.564   5.335
 3273POPC   PO443596   2.306  37.955   5.394
 3273POPC   GL143597   2.510  37.755   5.786
 3273POPC   GL243598   2.601  37.408   5.764
 3273POPC   C1A43599   2.862  37.732   6.150
 3273POPC   D2A43600   3.114  37.518   6.526
 3273POPC   C3A43601   2.937  37.682   6.949
 3273POPC   C4A43602   2.574  38.009   6.960
 3273POPC   C1B43603   2.730  37.242   6.176
 3273POPC   C2B43604   2.633  37.385   6.607
 3273POPC   C3B43605   2.704  37.217   7.002
 3273POPC   C4B43606   2.699  37.277   7.464
 3274POPC   NC343607   5.883  34.766   5.095
 3274POPC   PO443608   6.258  34.975   5.636
 3274POPC   GL143609   6.032  34.543   5.837
 3274POPC   GL243610   5.643  34.513   5.915
 3274POPC   C1A43611   5.924  34.393   6.291
 3274POPC   D2A43612   5.861  34.747   6.588
 3274POPC   C3A43613   5.972  34.666   6.999
 3274POPC   C4A43614   5.860  34.296   7.209
 3274POPC   C1B43615   5.472  34.771   6.205
 3274POPC   C2B43616   5.350  34.847   6.608
 3274POPC   C3B43617   5.550  34.997   6.952
 3274POPC   C4B43618   5.580  34.751   7.315
 3275POPC   NC343619  19.268   0.697   5.393
 3275POPC   PO443620  19.887   0.376   5.335
 3275POPC   GL143621  19.621   0.404   5.695
 3275POPC   GL243622  19.600   0.717   5.791
 3275POPC   C1A43623  19.743   0.377   6.145
 3275POPC   D2A43624  19.692   0.215   6.567
 3275POPC   C3A43625  19.916   0.358   6.931
 3275POPC   C4A43626  19.860   0.197   7.340
 3275POPC   C1B43627  19.493   0.831   6.186
 3275POPC   C2B43628  19.722   0.734   6.551
 3275POPC   C3B43629  19.495   0.658   6.911
 3275POPC   C4B43630  19.327   0.934   7.211
 3276POPC   NC343631  20.480   7.934   5.274
 3276POPC   PO443632  20.915   8.358   5.379
 3276POPC   GL143633  20.700   8.303   5.751
 3276POPC   GL243634  20.530   7.959   5.770
 3276POPC   C1A43635  20.726   8.597   6.123
 3276POPC   D2A43636  20.772   8.400   6.536
 3276POPC   C3A43637  20.616   8.469   6.962
 3276POPC   C4A43638  20.831   8.742   7.247
 3276POPC   C1B43639  20.697   7.772   6.130
 3276POPC   C2B43640  20.661   7.913   6.530
 3276POPC   C3B43641  20.660   7.916   6.961
 3276POPC   C4B43642  20.541   8.083   7.345
 3277POPC   NC343643   1.056  21.284   5.391
 3277POPC   PO443644   1.655  21.454   5.171
 3277POPC   GL143645   1.547  21.218   5.648
 3277POPC   GL243646   1.363  21.476   5.830
 3277POPC   C1A43647   1.415  21.074   6.130
 3277POPC   D2A43648   1.464  21.195   6.605
 3277POPC   C3A43649   1.188  21.297   6.977
 3277POPC   C4A43650   1.184  21.243   7.440
 3277POPC   C1B43651   1.567  21.584   6.260
 3277POPC   C2B43652   1.434  21.727   6.693
 3277POPC   C3B43653   1.168  21.830   7.052
 3277POPC   C4B43654   0.899  21.647   7.346
 3278POPC   NC343655  14.926  19.879   5.436
 3278POPC   PO443656  15.508  19.524   5.493
 3278POPC   GL143657  15.324  19.841   5.798
 3278POPC   GL243658  14.979  19.777   5.922
 3278POPC   C1A43659  15.362  20.011   6.229
 3278POPC   D2A43660  15.366  19.806   6.633
 3278POPC   C3A43661  15.307  20.010   7.029
 3278POPC   C4A43662  15.321  19.860   7.430
 3278POPC   C1B43663  14.841  19.964   6.294
 3278POPC   C2B43664  14.835  19.795   6.694
 3278POPC   C3B43665  14.759  19.546   7.002
 3278POPC   C4B43666  14.864  19.668   7.392
 3279POPC   NC343667  16.414  25.550   5.315
 3279POPC   PO443668  16.763  24.984   5.163
 3279POPC   GL143669  16.808  25.152   5.615
 3279POPC   GL243670  16.926  24.851   5.795
 3279POPC   C1A43671  16.646  25.349   6.036
 3279POPC   D2A43672  16.609  25.591   6.431
 3279POPC   C3A43673  16.545  25.347   6.803
 3279POPC   C4A43674  16.668  25.350   7.218
 3279POPC   C1B43675  16.728  24.873   6.204
 3279POPC   C2B43676  16.510  24.880   6.581
 3279POPC   C3B43677  16.713  24.873   6.960
 3279POPC   C4B43678  16.588  24.863   7.352
 3280POPC   NC343679  43.717  40.107   5.347
 3280POPC   PO443680  44.390  40.237   5.384
 3280POPC   GL143681  44.118  40.025   5.722
 3280POPC   GL243682  43.971  40.310   5.912
 3280POPC   C1A43683  44.104  39.761   6.135
 3280POPC   D2A43684  44.023  39.845   6.594
 3280POPC   C3A43685  44.237  39.799   6.981
 3280POPC   C4A43686  44.287  40.231   7.058
 3280POPC   C1B43687  43.742  40.115   6.279
 3280POPC   C2B43688  43.527  39.851   6.607
 3280POPC   C3B43689  43.707  39.792   7.026
 3280POPC   C4B43690  43.534  39.958   7.392
 3281POPC   NC343691   5.014  25.820   5.492
 3281POPC   PO443692   4.938  25.197   5.148
 3281POPC   GL143693   5.144  25.294   5.561
 3281POPC   GL243694   5.258  24.980   5.725
 3281POPC   C1A43695   5.331  25.420   5.978
 3281POPC   D2A43696   5.277  25.405   6.428
 3281POPC   C3A43697   5.301  25.294   6.856
 3281POPC   C4A43698   5.082  25.470   7.205
 3281POPC   C1B43699   5.065  25.010   6.162
 3281POPC   C2B43700   4.963  24.966   6.615
 3281POPC   C3B43701   4.969  24.953   7.054
 3281POPC   C4B43702   5.020  24.991   7.484
 3282POPC   NC343703  42.700  36.023   5.088
 3282POPC   PO443704  42.302  36.299   5.592
 3282POPC   GL143705  42.500  36.312   5.985
 3282POPC   GL243706  42.372  36.512   6.211
 3282POPC   C1A43707  42.641  36.053   6.298
 3282POPC   D2A43708  42.473  35.975   6.698
 3282POPC   C3A43709  42.677  36.014   7.088
 3282POPC   C4A43710  42.333  36.097   7.351
 3282POPC   C1B43711  41.925  36.530   6.226
 3282POPC   C2B43712  41.946  36.498   6.633
 3282POPC   C3B43713  42.122  36.294   6.922
 3282POPC   C4B43714  41.863  36.299   7.234
 3283POPC   NC343715   9.168  13.174   5.196
 3283POPC   PO443716   8.751  12.714   5.469
 3283POPC   GL143717   9.001  12.881   5.788
 3283POPC   GL243718   9.029  12.587   5.999
 3283POPC   C1A43719   9.192  13.022   6.173
 3283POPC   D2A43720   8.911  13.050   6.517
 3283POPC   C3A43721   8.977  12.897   6.936
 3283POPC   C4A43722   9.193  13.107   7.271
 3283POPC   C1B43723   8.693  12.623   6.313
 3283POPC   C2B43724   8.477  12.791   6.672
 3283POPC   C3B43725   8.400  12.571   7.016
 3283POPC   C4B43726   8.779  12.481   7.187
 3284POPC   NC343727   2.172  34.139   5.284
 3284POPC   PO443728   1.874  34.743   5.327
 3284POPC   GL143729   2.083  34.541   5.677
 3284POPC   GL243730   1.751  34.411   5.750
 3284POPC   C1A43731   2.074  34.379   6.143
 3284POPC   D2A43732   2.061  34.620   6.542
 3284POPC   C3A43733   2.201  34.490   6.951
 3284POPC   C4A43734   2.078  34.739   7.297
 3284POPC   C1B43735   1.577  34.646   6.125
 3284POPC   C2B43736   1.563  34.776   6.580
 3284POPC   C3B43737   1.671  34.599   7.006
 3284POPC   C4B43738   1.623  34.698   7.489
 3285POPC   NC343739  32.399  13.577   5.505
 3285POPC   PO443740  31.717  13.451   5.635
 3285POPC   GL143741  32.052  13.448   5.885
 3285POPC   GL243742  32.120  13.797   5.902
 3285POPC   C1A43743  32.419  13.377   6.190
 3285POPC   D2A43744  32.687  13.376   6.587
 3285POPC   C3A43745  32.472  13.280   6.974
 3285POPC   C4A43746  32.199  13.527   7.240
 3285POPC   C1B43747  32.029  13.719   6.329
 3285POPC   C2B43748  32.278  13.813   6.702
 3285POPC   C3B43749  32.295  14.004   7.105
 3285POPC   C4B43750  32.065  13.947   7.519
 3286POPC   NC343751  41.500   1.104   5.367
 3286POPC   PO443752  42.083   1.429   5.363
 3286POPC   GL143753  41.796   1.326   5.726
 3286POPC   GL243754  41.735   0.981   5.832
 3286POPC   C1A43755  41.431   1.285   6.061
 3286POPC   D2A43756  41.463   0.998   6.418
 3286POPC   C3A43757  41.480   1.071   6.891
 3286POPC   C4A43758  41.283   1.322   7.237
 3286POPC   C1B43759  41.941   1.198   6.202
 3286POPC   C2B43760  41.974   1.149   6.652
 3286POPC   C3B43761  41.911   1.292   7.101
 3286POPC   C4B43762  41.682   1.086   7.442
 3287POPC   NC343763   2.435  15.489   5.448
 3287POPC   PO443764   2.846  15.994   5.195
 3287POPC   GL143765   2.823  15.813   5.572
 3287POPC   GL243766   2.505  15.975   5.627
 3287POPC   C1A43767   2.878  15.820   6.026
 3287POPC   D2A43768   2.872  15.954   6.464
 3287POPC   C3A43769   2.919  15.679   6.839
 3287POPC   C4A43770   3.174  15.761   7.221
 3287POPC   C1B43771   2.433  16.102   6.060
 3287POPC   C2B43772   2.358  15.930   6.467
 3287POPC   C3B43773   2.500  16.090   6.825
 3287POPC   C4B43774   2.690  15.979   7.194
 3288POPC   NC343775  24.708  30.444   5.324
 3288POPC   PO443776  24.244  30.893   5.286
 3288POPC   GL143777  24.512  30.834   5.647
 3288POPC   GL243778  24.279  30.973   5.883
 3288POPC   C1A43779  24.727  30.629   6.014
 3288POPC   D2A43780  24.604  30.381   6.389
 3288POPC   C3A43781  24.513  30.613   6.787
 3288POPC   C4A43782  24.606  30.666   7.234
 3288POPC   C1B43783  24.305  30.791   6.283
 3288POPC   C2B43784  24.102  30.959   6.599
 3288POPC   C3B43785  24.237  31.071   6.949
 3288POPC   C4B43786  24.150  30.885   7.304
 3289POPC   NC343787   9.035  20.810   5.325
 3289POPC   PO443788   8.479  20.597   5.374
 3289POPC   GL143789   8.727  20.751   5.763
 3289POPC   GL243790   9.112  20.770   5.854
 3289POPC   C1A43791   8.755  20.783   6.234
 3289POPC   D2A43792   8.780  21.008   6.631
 3289POPC   C3A43793   8.819  20.711   6.980
 3289POPC   C4A43794   9.147  20.686   7.262
 3289POPC   C1B43795   9.255  20.656   6.306
 3289POPC   C2B43796   9.290  20.497   6.775
 3289POPC   C3B43797   9.255  20.207   7.157
 3289POPC   C4B43798   9.234  20.308   7.628
 3290POPC   NC343799  16.498   6.489   5.614
 3290POPC   PO443800  15.836   6.491   5.406
 3290POPC   GL143801  16.007   6.533   5.779
 3290POPC   GL243802  16.050   6.884   5.736
 3290POPC   C1A43803  16.144   6.377   6.176
 3290POPC   D2A43804  16.056   6.563   6.530
 3290POPC   C3A43805  15.942   6.390   6.917
 3290POPC   C4A43806  15.807   6.589   7.292
 3290POPC   C1B43807  16.233   6.899   6.114
 3290POPC   C2B43808  16.268   7.047   6.523
 3290POPC   C3B43809  16.230   6.847   6.904
 3290POPC   C4B43810  16.137   6.981   7.271
 3291POPC   NC343811  38.883  11.129   5.565
 3291POPC   PO443812  39.431  11.592   5.447
 3291POPC   GL143813  39.164  11.564   5.807
 3291POPC   GL243814  39.482  11.554   5.951
 3291POPC   C1A43815  39.081  11.465   6.251
 3291POPC   D2A43816  39.174  11.220   6.627
 3291POPC   C3A43817  39.152  11.439   7.019
 3291POPC   C4A43818  39.070  11.135   7.341
 3291POPC   C1B43819  39.517  11.175   6.209
 3291POPC   C2B43820  39.673  11.083   6.633
 3291POPC   C3B43821  39.531  11.081   7.080
 3291POPC   C4B43822  39.483  11.415   7.440
 3292POPC   NC343823  27.223  31.003   5.247
 3292POPC   PO443824  26.633  30.595   5.394
 3292POPC   GL143825  26.685  30.879   5.712
 3292POPC   GL243826  27.051  30.933   5.775
 3292POPC   C1A43827  26.632  30.941   6.144
 3292POPC   D2A43828  26.728  30.621   6.450
 3292POPC   C3A43829  26.660  30.747   6.856
 3292POPC   C4A43830  26.628  30.592   7.261
 3292POPC   C1B43831  27.149  30.864   6.230
 3292POPC   C2B43832  27.196  30.680   6.669
 3292POPC   C3B43833  27.129  30.682   7.115
 3292POPC   C4B43834  26.978  30.995   7.404
 3293POPC   NC343835   9.406  10.178   5.512
 3293POPC   PO443836   9.786  10.609   5.199
 3293POPC   GL143837   9.721  10.609   5.645
 3293POPC   GL243838   9.681  10.972   5.683
 3293POPC   C1A43839   9.767  10.463   6.103
 3293POPC   D2A43840   9.860  10.263   6.542
 3293POPC   C3A43841   9.874  10.409   7.017
 3293POPC   C4A43842  10.118  10.668   7.292
 3293POPC   C1B43843   9.769  11.005   6.102
 3293POPC   C2B43844   9.931  10.792   6.464
 3293POPC   C3B43845   9.944  10.900   6.874
 3293POPC   C4B43846   9.635  10.867   7.227
 3294POPC   NC343847  23.752  20.419   5.543
 3294POPC   PO443848  23.175  20.623   5.518
 3294POPC   GL143849  23.427  20.637   5.888
 3294POPC   GL243850  23.722  20.845   5.901
 3294POPC   C1A43851  23.724  20.392   6.200
 3294POPC   D2A43852  23.902  20.330   6.607
 3294POPC   C3A43853  23.604  20.246   6.922
 3294POPC   C4A43854  23.423  20.535   7.225
 3294POPC   C1B43855  23.499  20.839   6.333
 3294POPC   C2B43856  23.561  20.744   6.774
 3294POPC   C3B43857  23.886  20.744   7.114
 3294POPC   C4B43858  23.999  21.057   7.423
 3295POPC   NC343859  22.587  27.871   5.408
 3295POPC   PO443860  22.985  27.346   5.487
 3295POPC   GL143861  22.737  27.545   5.785
 3295POPC   GL243862  22.905  27.860   5.803
 3295POPC   C1A43863  22.663  27.628   6.205
 3295POPC   D2A43864  23.002  27.606   6.480
 3295POPC   C3A43865  22.931  27.394   6.809
 3295POPC   C4A43866  22.705  27.527   7.114
 3295POPC   C1B43867  23.069  28.000   6.174
 3295POPC   C2B43868  23.269  28.080   6.591
 3295POPC   C3B43869  23.062  27.908   6.945
 3295POPC   C4B43870  23.257  27.566   7.170
 3296POPC   NC343871  40.488  28.393   5.730
 3296POPC   PO443872  41.004  28.812   5.487
 3296POPC   GL143873  41.004  28.452   5.803
 3296POPC   GL243874  41.057  28.141   5.668
 3296POPC   C1A43875  40.860  28.418   6.257
 3296POPC   D2A43876  40.763  28.652   6.602
 3296POPC   C3A43877  40.773  28.418   6.933
 3296POPC   C4A43878  40.894  28.533   7.324
 3296POPC   C1B43879  41.131  28.001   6.134
 3296POPC   C2B43880  40.951  27.981   6.599
 3296POPC   C3B43881  40.826  27.932   7.067
 3296POPC   C4B43882  40.875  28.013   7.529
 3297POPC   NC343883  44.917  28.556   5.576
 3297POPC   PO443884  44.543  28.010   5.347
 3297POPC   GL143885  44.504  28.375   5.784
 3297POPC   GL243886  44.832  28.474   6.055
 3297POPC   C1A43887  44.419  28.704   6.150
 3297POPC   D2A43888  44.691  28.648   6.546
 3297POPC   C3A43889  44.467  28.596   6.953
 3297POPC   C4A43890  44.602  28.671   7.370
 3297POPC   C1B43891  44.644  28.183   6.330
 3297POPC   C2B43892  44.753  28.175   6.753
 3297POPC   C3B43893  44.756  28.226   7.165
 3297POPC   C4B43894  44.391  28.213   7.361
 3298POPC   NC343895  40.233  24.648   5.458
 3298POPC   PO443896  40.178  24.033   5.586
 3298POPC   GL143897  40.224  24.281   5.900
 3298POPC   GL243898  40.005  24.586   5.922
 3298POPC   C1A43899  40.280  24.391   6.322
 3298POPC   D2A43900  40.336  24.795   6.523
 3298POPC   C3A43901  40.068  24.778   6.868
 3298POPC   C4A43902  40.249  24.637   7.231
 3298POPC   C1B43903  39.778  24.229   6.152
 3298POPC   C2B43904  39.504  24.201   6.525
 3298POPC   C3B43905  39.560  24.158   6.949
 3298POPC   C4B43906  39.835  24.382   7.158
 3299POPC   NC343907  43.379  43.499   5.568
 3299POPC   PO443908  43.384  42.839   5.594
 3299POPC   GL143909  43.315  43.101   5.919
 3299POPC   GL243910  43.012  43.205   5.788
 3299POPC   C1A43911  43.203  43.052   6.353
 3299POPC   D2A43912  43.285  42.942   6.793
 3299POPC   C3A43913  43.202  43.160   7.147
 3299POPC   C4A43914  43.276  43.063   7.584
 3299POPC   C1B43915  42.792  43.313   6.161
 3299POPC   C2B43916  42.705  43.183   6.589
 3299POPC   C3B43917  42.718  43.294   7.035
 3299POPC   C4B43918  42.796  43.129   7.466
 3300POPC   NC343919  42.340  29.310   5.473
 3300POPC   PO443920  41.781  28.825   5.423
 3300POPC   GL143921  42.032  28.924   5.810
 3300POPC   GL243922  42.416  28.910   5.815
 3300POPC   C1A43923  42.140  29.281   6.111
 3300POPC   D2A43924  42.005  29.497   6.506
 3300POPC   C3A43925  41.976  29.280   6.923
 3300POPC   C4A43926  42.173  29.349   7.329
 3300POPC   C1B43927  42.588  29.062   6.196
 3300POPC   C2B43928  42.346  29.074   6.556
 3300POPC   C3B43929  42.451  29.122   6.949
 3300POPC   C4B43930  42.654  29.180   7.299
 3301POPC   NC343931   7.135  11.961   5.361
 3301POPC   PO443932   7.776  12.100   5.578
 3301POPC   GL143933   7.411  11.924   5.804
 3301POPC   GL243934   7.395  12.207   6.047
 3301POPC   C1A43935   7.223  11.788   6.219
 3301POPC   D2A43936   7.425  11.857   6.602
 3301POPC   C3A43937   7.219  12.005   6.959
 3301POPC   C4A43938   7.424  11.746   7.200
 3301POPC   C1B43939   7.755  12.360   6.267
 3301POPC   C2B43940   7.868  12.381   6.686
 3301POPC   C3B43941   7.720  12.112   6.957
 3301POPC   C4B43942   7.590  12.180   7.346
 3302POPC   NC343943   0.051   7.551   5.538
 3302POPC   PO443944  44.517   7.128   5.481
 3302POPC   GL143945  44.689   7.292   5.830
 3302POPC   GL243946  44.919   7.052   5.974
 3302POPC   C1A43947  44.523   7.319   6.243
 3302POPC   D2A43948  44.752   7.152   6.579
 3302POPC   C3A43949  44.618   7.385   6.921
 3302POPC   C4A43950  44.747   7.417   7.328
 3302POPC   C1B43951   0.014   7.467   6.170
 3302POPC   C2B43952   0.098   7.791   6.449
 3302POPC   C3B43953   0.053   7.674   6.864
 3302POPC   C4B43954   0.033   7.845   7.250
 3303POPC   NC343955  37.817  42.053   5.305
 3303POPC   PO443956  37.967  41.372   5.362
 3303POPC   GL143957  37.702  41.488   5.724
 3303POPC   GL243958  37.807  41.832   5.781
 3303POPC   C1A43959  37.524  41.624   6.144
 3303POPC   D2A43960  37.684  41.659   6.550
 3303POPC   C3A43961  37.525  41.388   6.855
 3303POPC   C4A43962  37.517  41.480   7.257
 3303POPC   C1B43963  38.015  41.880   6.200
 3303POPC   C2B43964  38.007  42.059   6.662
 3303POPC   C3B43965  37.857  41.781   7.020
 3303POPC   C4B43966  37.859  41.762   7.505
 3304POPC   NC343967  13.910  23.211   5.244
 3304POPC   PO443968  13.295  23.016   5.111
 3304POPC   GL143969  13.558  22.931   5.532
 3304POPC   GL243970  13.317  22.758   5.726
 3304POPC   C1A43971  13.783  22.848   5.985
 3304POPC   D2A43972  13.763  22.878   6.476
 3304POPC   C3A43973  13.913  23.142   6.855
 3304POPC   C4A43974  14.094  22.914   7.224
 3304POPC   C1B43975  13.326  22.937   6.164
 3304POPC   C2B43976  13.272  22.860   6.614
 3304POPC   C3B43977  13.318  23.038   7.003
 3304POPC   C4B43978  13.439  23.237   7.365
 3305POPC   NC343979  38.970  25.367   5.102
 3305POPC   PO443980  38.372  25.333   5.463
 3305POPC   GL143981  38.474  25.123   5.816
 3305POPC   GL243982  38.827  25.047   5.790
 3305POPC   C1A43983  38.499  25.163   6.236
 3305POPC   D2A43984  38.457  25.393   6.617
 3305POPC   C3A43985  38.199  25.286   6.961
 3305POPC   C4A43986  38.354  25.399   7.336
 3305POPC   C1B43987  38.946  24.892   6.231
 3305POPC   C2B43988  38.686  24.884   6.634
 3305POPC   C3B43989  38.639  25.061   7.071
 3305POPC   C4B43990  38.564  25.012   7.581
 3306POPC   NC343991  26.266  12.634   5.545
 3306POPC   PO443992  25.674  12.881   5.388
 3306POPC   GL143993  25.871  12.850   5.817
 3306POPC   GL243994  25.700  13.173   5.870
 3306POPC   C1A43995  26.010  12.592   6.221
 3306POPC   D2A43996  25.925  12.394   6.617
 3306POPC   C3A43997  25.964  12.667   6.962
 3306POPC   C4A43998  26.104  12.757   7.348
 3306POPC   C1B43999  25.954  13.105   6.257
 3306POPC   C2B44000  26.126  13.070   6.683
 3306POPC   C3B44001  25.967  13.187   7.106
 3306POPC   C4B44002  25.890  13.183   7.578
 3307POPC   NC344003  40.343  36.261   5.356
 3307POPC   PO444004  39.579  36.151   5.305
 3307POPC   GL144005  39.923  36.144   5.706
 3307POPC   GL244006  40.238  35.918   5.751
 3307POPC   C1A44007  40.059  36.230   6.186
 3307POPC   D2A44008  40.028  36.093   6.657
 3307POPC   C3A44009  39.856  36.371   7.008
 3307POPC   C4A44010  40.161  36.605   7.317
 3307POPC   C1B44011  40.150  35.703   6.172
 3307POPC   C2B44012  40.233  35.603   6.617
 3307POPC   C3B44013  40.073  35.719   7.043
 3307POPC   C4B44014  40.153  36.084   7.269
 3308POPC   NC344015   0.822  11.129   5.545
 3308POPC   PO444016   0.223  11.369   5.350
 3308POPC   GL144017   0.379  11.334   5.741
 3308POPC   GL244018   0.627  11.564   5.806
 3308POPC   C1A44019   0.426  11.200   6.177
 3308POPC   D2A44020   0.276  11.416   6.532
 3308POPC   C3A44021   0.257  11.251   6.948
 3308POPC   C4A44022   0.241  11.575   7.255
 3308POPC   C1B44023   0.884  11.490   6.137
 3308POPC   C2B44024   0.936  11.567   6.536
 3308POPC   C3B44025   0.683  11.516   6.861
 3308POPC   C4B44026   0.783  11.588   7.243
 3309POPC   NC344027  10.769  13.054   5.003
 3309POPC   PO444028  10.365  12.767   5.447
 3309POPC   GL144029  10.652  12.893   5.714
 3309POPC   GL244030  10.391  12.808   5.967
 3309POPC   C1A44031  10.871  12.814   6.102
 3309POPC   D2A44032  10.745  12.894   6.511
 3309POPC   C3A44033  10.617  12.787   6.900
 3309POPC   C4A44034  10.562  13.036   7.251
 3309POPC   C1B44035  10.256  12.967   6.349
 3309POPC   C2B44036  10.133  12.784   6.700
 3309POPC   C3B44037  10.080  12.920   7.090
 3309POPC   C4B44038  10.140  12.924   7.510
 3310POPC   NC344039  35.617  34.185   5.405
 3310POPC   PO444040  35.421  34.799   5.446
 3310POPC   GL144041  35.230  34.647   5.801
 3310POPC   GL244042  35.235  34.284   5.823
 3310POPC   C1A44043  35.099  34.643   6.230
 3310POPC   D2A44044  35.163  34.564   6.671
 3310POPC   C3A44045  35.325  34.899   6.907
 3310POPC   C4A44046  35.494  34.890   7.305
 3310POPC   C1B44047  35.486  34.272   6.219
 3310POPC   C2B44048  35.732  34.217   6.615
 3310POPC   C3B44049  35.583  34.413   7.014
 3310POPC   C4B44050  35.194  34.470   7.224
 3311POPC   NC344051  25.246  34.581   5.235
 3311POPC   PO444052  25.787  34.413   5.515
 3311POPC   GL144053  25.478  34.621   5.798
 3311POPC   GL244054  25.168  34.810   5.707
 3311POPC   C1A44055  25.218  34.625   6.200
 3311POPC   D2A44056  25.364  34.640   6.624
 3311POPC   C3A44057  25.132  34.510   6.995
 3311POPC   C4A44058  25.315  34.498   7.417
 3311POPC   C1B44059  24.842  34.933   6.014
 3311POPC   C2B44060  24.905  35.029   6.479
 3311POPC   C3B44061  24.781  34.878   6.913
 3311POPC   C4B44062  24.865  34.750   7.349
 3312POPC   NC344063   9.086  34.912   5.324
 3312POPC   PO444064   9.195  35.562   5.164
 3312POPC   GL144065   8.971  35.407   5.590
 3312POPC   GL244066   8.727  35.116   5.663
 3312POPC   C1A44067   8.867  35.506   6.053
 3312POPC   D2A44068   8.639  35.515   6.464
 3312POPC   C3A44069   8.769  35.587   6.915
 3312POPC   C4A44070   9.039  35.438   7.284
 3312POPC   C1B44071   8.971  34.996   6.015
 3312POPC   C2B44072   8.945  35.103   6.440
 3312POPC   C3B44073   9.058  35.119   6.865
 3312POPC   C4B44074   9.333  35.045   7.177
 3313POPC   NC344075  32.882  20.880   5.586
 3313POPC   PO444076  32.717  21.532   5.394
 3313POPC   GL144077  33.009  21.346   5.790
 3313POPC   GL244078  32.838  21.095   6.052
 3313POPC   C1A44079  33.277  21.266   6.222
 3313POPC   D2A44080  33.087  21.183   6.678
 3313POPC   C3A44081  33.180  21.444   7.066
 3313POPC   C4A44082  32.929  21.838   7.169
 3313POPC   C1B44083  32.830  21.496   6.295
 3313POPC   C2B44084  32.940  21.701   6.658
 3313POPC   C3B44085  32.702  21.452   6.899
 3313POPC   C4B44086  32.687  21.062   7.067
 3314POPC   NC344087  12.399  38.967   5.582
 3314POPC   PO444088  12.028  38.417   5.353
 3314POPC   GL144089  12.103  38.479   5.778
 3314POPC   GL244090  12.439  38.437   5.667
 3314POPC   C1A44091  11.862  38.380   6.176
 3314POPC   D2A44092  11.641  38.306   6.596
 3314POPC   C3A44093  11.852  38.459   6.978
 3314POPC   C4A44094  11.796  38.457   7.418
 3314POPC   C1B44095  12.565  38.547   6.076
 3314POPC   C2B44096  12.399  38.531   6.483
 3314POPC   C3B44097  12.383  38.383   6.898
 3314POPC   C4B44098  12.297  38.550   7.311
 3315POPC   NC344099  42.076  43.011   5.315
 3315POPC   PO444100  42.662  43.409   5.453
 3315POPC   GL144101  42.506  43.093   5.764
 3315POPC   GL244102  42.151  43.005   5.830
 3315POPC   C1A44103  42.516  42.863   6.166
 3315POPC   D2A44104  42.216  42.733   6.500
 3315POPC   C3A44105  42.297  42.965   6.871
 3315POPC   C4A44106  42.622  42.785   7.151
 3315POPC   C1B44107  42.273  43.321   6.182
 3315POPC   C2B44108  42.270  43.498   6.622
 3315POPC   C3B44109  42.231  43.461   7.075
 3315POPC   C4B44110  42.291  43.133   7.369
 3316POPC   NC344111  32.465  12.701   5.428
 3316POPC   PO444112  32.131  13.244   5.356
 3316POPC   GL144113  32.319  13.018   5.802
 3316POPC   GL244114  32.009  12.822   6.060
 3316POPC   C1A44115  32.490  12.804   6.152
 3316POPC   D2A44116  32.398  12.972   6.538
 3316POPC   C3A44117  32.368  12.744   6.881
 3316POPC   C4A44118  32.380  12.858   7.277
 3316POPC   C1B44119  31.963  13.178   6.307
 3316POPC   C2B44120  32.029  13.356   6.699
 3316POPC   C3B44121  31.995  13.109   7.038
 3316POPC   C4B44122  31.907  12.704   7.155
 3317POPC   NC344123  38.106  30.319   5.338
 3317POPC   PO444124  38.556  29.799   5.372
 3317POPC   GL144125  38.466  29.914   5.777
 3317POPC   GL244126  38.305  29.619   5.802
 3317POPC   C1A44127  38.178  29.939   6.163
 3317POPC   D2A44128  38.080  30.205   6.508
 3317POPC   C3A44129  38.180  30.049   6.882
 3317POPC   C4A44130  38.473  30.033   7.199
 3317POPC   C1B44131  38.519  29.572   6.162
 3317POPC   C2B44132  38.450  29.731   6.575
 3317POPC   C3B44133  38.371  29.562   6.993
 3317POPC   C4B44134  38.583  29.570   7.383
 3318POPC   NC344135  37.625  14.708   5.485
 3318POPC   PO444136  37.839  14.039   5.590
 3318POPC   GL144137  37.628  14.339   5.850
 3318POPC   GL244138  37.742  14.699   5.965
 3318POPC   C1A44139  37.716  14.277   6.271
 3318POPC   D2A44140  37.612  14.374   6.664
 3318POPC   C3A44141  37.820  14.199   6.993
 3318POPC   C4A44142  37.941  14.364   7.381
 3318POPC   C1B44143  37.469  14.726   6.307
 3318POPC   C2B44144  37.421  14.835   6.742
 3318POPC   C3B44145  37.554  14.636   7.126
 3318POPC   C4B44146  37.606  14.685   7.567
 3319POPC   NC344147  18.411  23.602   5.399
 3319POPC   PO444148  17.807  23.882   5.403
 3319POPC   GL144149  17.998  23.618   5.721
 3319POPC   GL244150  18.239  23.885   5.796
 3319POPC   C1A44151  17.910  23.513   6.157
 3319POPC   D2A44152  17.963  23.736   6.570
 3319POPC   C3A44153  17.922  23.407   6.868
 3319POPC   C4A44154  17.973  23.464   7.291
 3319POPC   C1B44155  18.337  23.792   6.226
 3319POPC   C2B44156  18.362  23.430   6.538
 3319POPC   C3B44157  18.407  23.528   7.001
 3319POPC   C4B44158  18.562  23.290   7.390
 3320POPC   NC344159  44.564  23.038   5.066
 3320POPC   PO444160  44.315  22.492   5.386
 3320POPC   GL144161  44.439  22.841   5.691
 3320POPC   GL244162  44.778  22.784   5.787
 3320POPC   C1A44163  44.512  22.994   6.151
 3320POPC   D2A44164  44.347  22.910   6.568
 3320POPC   C3A44165  44.520  22.947   6.991
 3320POPC   C4A44166  44.737  23.057   7.393
 3320POPC   C1B44167  44.849  22.484   6.134
 3320POPC   C2B44168  44.950  22.586   6.565
 3320POPC   C3B44169  44.861  22.410   6.942
 3320POPC   C4B44170  44.622  22.553   7.306
 3321POPC   NC344171  37.545  19.579   5.677
 3321POPC   PO444172  37.998  19.949   5.406
 3321POPC   GL144173  37.893  19.962   5.812
 3321POPC   GL244174  37.561  20.064   5.824
 3321POPC   C1A44175  37.835  19.874   6.237
 3321POPC   D2A44176  38.099  19.899   6.614
 3321POPC   C3A44177  37.964  19.633   6.968
 3321POPC   C4A44178  37.575  19.741   7.154
 3321POPC   C1B44179  37.314  19.996   6.196
 3321POPC   C2B44180  37.349  19.775   6.590
 3321POPC   C3B44181  37.277  20.065   6.918
 3321POPC   C4B44182  37.158  19.999   7.316
 3322POPC   NC344183  40.562   9.792   5.476
 3322POPC   PO444184  40.980   9.418   5.120
 3322POPC   GL144185  40.976   9.552   5.655
 3322POPC   GL244186  41.276   9.657   5.838
 3322POPC   C1A44187  40.801   9.725   6.106
 3322POPC   D2A44188  40.841   9.964   6.526
 3322POPC   C3A44189  40.613   9.872   6.925
 3322POPC   C4A44190  40.776   9.743   7.321
 3322POPC   C1B44191  41.113   9.318   6.122
 3322POPC   C2B44192  40.876   9.373   6.501
 3322POPC   C3B44193  40.970   9.517   6.887
 3322POPC   C4B44194  41.163   9.396   7.258
 3323POPC   NC344195  29.576  10.061   5.437
 3323POPC   PO444196  30.188   9.711   5.524
 3323POPC   GL144197  29.959   9.867   5.864
 3323POPC   GL244198  29.565   9.837   5.879
 3323POPC   C1A44199  29.881   9.609   6.219
 3323POPC   D2A44200  29.836   9.312   6.521
 3323POPC   C3A44201  29.701   9.527   6.884
 3323POPC   C4A44202  29.950   9.699   7.185
 3323POPC   C1B44203  29.680  10.179   6.146
 3323POPC   C2B44204  29.768  10.019   6.505
 3323POPC   C3B44205  29.796  10.075   6.881
 3323POPC   C4B44206  29.519   9.997   7.158
 3324POPC   NC344207  42.910   4.274   5.292
 3324POPC   PO444208  43.562   4.380   5.285
 3324POPC   GL144209  43.244   4.351   5.694
 3324POPC   GL244210  42.901   4.130   5.773
 3324POPC   C1A44211  43.223   4.349   6.172
 3324POPC   D2A44212  43.308   4.539   6.596
 3324POPC   C3A44213  43.265   4.328   6.990
 3324POPC   C4A44214  43.123   3.990   7.249
 3324POPC   C1B44215  42.792   4.534   5.961
 3324POPC   C2B44216  42.834   4.653   6.401
 3324POPC   C3B44217  42.816   4.582   6.841
 3324POPC   C4B44218  42.845   4.448   7.270
 3325POPC   NC344219  34.700   2.480   5.388
 3325POPC   PO444220  34.313   2.932   5.275
 3325POPC   GL144221  34.487   2.904   5.767
 3325POPC   GL244222  34.660   2.620   5.862
 3325POPC   C1A44223  34.393   2.800   6.244
 3325POPC   D2A44224  34.283   2.702   6.664
 3325POPC   C3A44225  34.566   2.814   6.994
 3325POPC   C4A44226  34.605   2.880   7.448
 3325POPC   C1B44227  34.903   2.816   6.202
 3325POPC   C2B44228  34.990   2.856   6.662
 3325POPC   C3B44229  34.993   2.527   6.969
 3325POPC   C4B44230  34.761   2.423   7.315
 3326POPC   NC344231  31.817  34.673   5.410
 3326POPC   PO444232  31.311  34.264   5.299
 3326POPC   GL144233  31.414  34.274   5.780
 3326POPC   GL244234  31.751  34.409   5.866
 3326POPC   C1A44235  31.328  34.483   6.203
 3326POPC   D2A44236  31.086  34.605   6.589
 3326POPC   C3A44237  31.112  34.431   6.995
 3326POPC   C4A44238  31.161  34.801   7.227
 3326POPC   C1B44239  31.882  34.414   6.289
 3326POPC   C2B44240  31.853  34.575   6.725
 3326POPC   C3B44241  31.638  34.595   7.122
 3326POPC   C4B44242  31.761  34.356   7.493
 3327POPC   NC344243  36.016  21.454   5.321
 3327POPC   PO444244  36.653  21.267   5.445
 3327POPC   GL144245  36.277  21.255   5.780
 3327POPC   GL244246  35.965  21.500   5.817
 3327POPC   C1A44247  36.065  21.242   6.219
 3327POPC   D2A44248  35.993  21.308   6.640
 3327POPC   C3A44249  36.217  21.586   6.879
 3327POPC   C4A44250  36.256  21.430   7.293
 3327POPC   C1B44251  35.740  21.631   6.226
 3327POPC   C2B44252  35.551  21.576   6.655
 3327POPC   C3B44253  35.734  21.485   7.053
 3327POPC   C4B44254  35.721  21.482   7.488
 3328POPC   NC344255  44.975  21.559   5.350
 3328POPC   PO444256   0.659  21.489   5.287
 3328POPC   GL144257   0.621  21.244   5.686
 3328POPC   GL244258   0.244  21.153   5.776
 3328POPC   C1A44259   0.893  21.235   6.070
 3328POPC   D2A44260   0.936  21.123   6.529
 3328POPC   C3A44261   0.687  21.337   6.866
 3328POPC   C4A44262   0.481  21.277   7.250
 3328POPC   C1B44263  44.972  21.115   6.178
 3328POPC   C2B44264   0.069  21.176   6.651
 3328POPC   C3B44265  44.989  21.196   7.117
 3328POPC   C4B44266   0.032  21.561   7.332
 3329POPC   NC344267  29.390  11.678   5.540
 3329POPC   PO444268  28.887  11.205   5.398
 3329POPC   GL144269  29.039  11.337   5.784
 3329POPC   GL244270  28.706  11.478   5.830
 3329POPC   C1A44271  29.279  11.253   6.211
 3329POPC   D2A44272  29.243  11.201   6.696
 3329POPC   C3A44273  29.321  11.190   7.169
 3329POPC   C4A44274  29.450  10.903   7.540
 3329POPC   C1B44275  28.747  11.264   6.205
 3329POPC   C2B44276  28.755  11.380   6.614
 3329POPC   C3B44277  28.834  11.210   6.997
 3329POPC   C4B44278  28.861  11.291   7.412
 3330POPC   NC344279  30.196  38.680   5.449
 3330POPC   PO444280  29.547  38.485   5.491
 3330POPC   GL144281  29.847  38.581   5.811
 3330POPC   GL244282  30.155  38.322   5.855
 3330POPC   C1A44283  29.846  38.570   6.227
 3330POPC   D2A44284  29.996  38.382   6.572
 3330POPC   C3A44285  29.826  38.582   6.947
 3330POPC   C4A44286  29.709  38.415   7.326
 3330POPC   C1B44287  30.303  38.068   6.246
 3330POPC   C2B44288  30.361  37.932   6.702
 3330POPC   C3B44289  30.177  38.195   7.005
 3330POPC   C4B44290  30.213  38.392   7.383
 3331POPC   NC344291  36.433  12.431   5.607
 3331POPC   PO444292  36.018  13.011   5.691
 3331POPC   GL144293  36.209  12.737   5.948
 3331POPC   GL244294  35.975  12.488   5.904
 3331POPC   C1A44295  36.239  12.724   6.387
 3331POPC   D2A44296  36.256  13.070   6.645
 3331POPC   C3A44297  36.039  13.004   7.011
 3331POPC   C4A44298  36.382  13.120   7.165
 3331POPC   C1B44299  35.727  12.757   6.214
 3331POPC   C2B44300  35.742  12.864   6.625
 3331POPC   C3B44301  35.651  12.634   6.953
 3331POPC   C4B44302  35.845  12.581   7.325
 3332POPC   NC344303  23.178  39.714   5.208
 3332POPC   PO444304  22.739  40.174   5.358
 3332POPC   GL144305  22.916  40.120   5.778
 3332POPC   GL244306  23.121  39.800   5.736
 3332POPC   C1A44307  22.671  40.106   6.173
 3332POPC   D2A44308  22.556  39.785   6.445
 3332POPC   C3A44309  22.582  39.932   6.831
 3332POPC   C4A44310  22.871  39.872   7.128
 3332POPC   C1B44311  23.056  39.757   6.194
 3332POPC   C2B44312  23.072  39.920   6.613
 3332POPC   C3B44313  23.343  39.843   6.977
 3332POPC   C4B44314  23.339  40.019   7.406
 3333POPC   NC344315  21.381  39.709   5.225
 3333POPC   PO444316  21.157  40.298   5.514
 3333POPC   GL144317  21.406  40.272   5.903
 3333POPC   GL244318  21.585  39.959   6.035
 3333POPC   C1A44319  21.383  40.312   6.342
 3333POPC   D2A44320  21.060  40.119   6.599
 3333POPC   C3A44321  21.137  40.198   7.017
 3333POPC   C4A44322  21.463  40.407   7.225
 3333POPC   C1B44323  21.266  39.713   6.296
 3333POPC   C2B44324  21.175  39.654   6.748
 3333POPC   C3B44325  21.312  39.729   7.115
 3333POPC   C4B44326  21.663  39.934   7.242
 3334POPC   NC344327  37.331  11.568   5.438
 3334POPC   PO444328  37.711  10.962   5.383
 3334POPC   GL144329  37.668  11.264   5.766
 3334POPC   GL244330  37.920  11.545   5.861
 3334POPC   C1A44331  37.718  11.234   6.224
 3334POPC   D2A44332  38.007  11.176   6.566
 3334POPC   C3A44333  37.792  11.200   6.938
 3334POPC   C4A44334  37.431  11.140   7.144
 3334POPC   C1B44335  37.841  11.803   6.197
 3334POPC   C2B44336  37.775  11.653   6.596
 3334POPC   C3B44337  37.988  11.726   6.963
 3334POPC   C4B44338  37.802  11.921   7.283
 3335POPC   NC344339   1.653  17.811   4.997
 3335POPC   PO444340   2.179  17.632   5.435
 3335POPC   GL144341   2.016  17.521   5.823
 3335POPC   GL244342   2.206  17.780   5.923
 3335POPC   C1A44343   1.940  17.333   6.218
 3335POPC   D2A44344   1.775  17.530   6.606
 3335POPC   C3A44345   1.908  17.446   6.997
 3335POPC   C4A44346   2.187  17.156   7.119
 3335POPC   C1B44347   2.131  17.798   6.313
 3335POPC   C2B44348   1.788  18.013   6.482
 3335POPC   C3B44349   1.737  17.955   6.936
 3335POPC   C4B44350   2.114  17.852   7.230
 3336POPC   NC344351   1.402  16.248   5.479
 3336POPC   PO444352   1.000  15.755   5.493
 3336POPC   GL144353   1.088  16.058   5.838
 3336POPC   GL244354   0.863  16.336   5.960
 3336POPC   C1A44355   1.342  16.176   6.193
 3336POPC   D2A44356   1.346  16.077   6.637
 3336POPC   C3A44357   1.046  15.823   6.903
 3336POPC   C4A44358   1.057  15.864   7.347
 3336POPC   C1B44359   0.660  16.424   6.355
 3336POPC   C2B44360   0.905  16.455   6.740
 3336POPC   C3B44361   1.159  16.287   7.073
 3336POPC   C4B44362   1.279  16.317   7.500
 3337POPC   NC344363  28.726  19.743   5.311
 3337POPC   PO444364  29.337  19.967   5.451
 3337POPC   GL144365  29.226  19.968   5.852
 3337POPC   GL244366  28.891  20.040   5.726
 3337POPC   C1A44367  29.248  19.789   6.284
 3337POPC   D2A44368  29.324  19.591   6.697
 3337POPC   C3A44369  29.084  19.770   7.054
 3337POPC   C4A44370  29.288  19.799   7.485
 3337POPC   C1B44371  28.866  20.117   6.154
 3337POPC   C2B44372  28.924  20.083   6.570
 3337POPC   C3B44373  29.095  20.277   6.922
 3337POPC   C4B44374  29.030  20.209   7.343
 3338POPC   NC344375  39.001  11.903   5.456
 3338POPC   PO444376  39.510  12.311   5.575
 3338POPC   GL144377  39.311  12.069   5.866
 3338POPC   GL244378  38.959  12.161   5.882
 3338POPC   C1A44379  39.380  11.925   6.273
 3338POPC   D2A44380  39.434  11.660   6.606
 3338POPC   C3A44381  39.347  11.917   6.954
 3338POPC   C4A44382  39.392  11.943   7.372
 3338POPC   C1B44383  39.003  12.286   6.286
 3338POPC   C2B44384  39.024  12.572   6.597
 3338POPC   C3B44385  39.000  12.377   6.985
 3338POPC   C4B44386  38.894  12.013   7.214
 3339POPC   NC344387   1.238  35.692   5.443
 3339POPC   PO444388   0.929  35.059   5.416
 3339POPC   GL144389   1.008  35.321   5.756
 3339POPC   GL244390   1.376  35.267   5.696
 3339POPC   C1A44391   1.120  35.360   6.200
 3339POPC   D2A44392   1.221  35.673   6.505
 3339POPC   C3A44393   1.179  35.497   6.885
 3339POPC   C4A44394   1.010  35.511   7.329
 3339POPC   C1B44395   1.589  35.174   6.070
 3339POPC   C2B44396   1.555  35.291   6.492
 3339POPC   C3B44397   1.701  35.441   6.865
 3339POPC   C4B44398   1.520  35.564   7.254
 3340POPC   NC344399  18.086  10.657   5.355
 3340POPC   PO444400  18.596  10.971   5.410
 3340POPC   GL144401  18.427  10.791   5.799
 3340POPC   GL244402  18.402  10.454   5.737
 3340POPC   C1A44403  18.319  10.656   6.243
 3340POPC   D2A44404  18.491  10.469   6.631
 3340POPC   C3A44405  18.304  10.680   7.017
 3340POPC   C4A44406  18.087  10.894   7.376
 3340POPC   C1B44407  18.405  10.178   6.086
 3340POPC   C2B44408  18.148  10.110   6.478
 3340POPC   C3B44409  18.110  10.204   6.925
 3340POPC   C4B44410  17.966  10.395   7.309
 3341POPC   NC344411  28.625  20.403   5.439
 3341POPC   PO444412  28.048  20.604   5.540
 3341POPC   GL144413  28.368  20.593   5.850
 3341POPC   GL244414  28.450  20.264   5.898
 3341POPC   C1A44415  28.500  20.836   6.211
 3341POPC   D2A44416  28.264  20.915   6.587
 3341POPC   C3A44417  28.403  20.908   7.006
 3341POPC   C4A44418  28.497  20.921   7.455
 3341POPC   C1B44419  28.447  20.348   6.333
 3341POPC   C2B44420  28.543  20.481   6.735
 3341POPC   C3B44421  28.304  20.406   7.130
 3341POPC   C4B44422  27.996  20.371   7.462
 3342POPC   NC344423  19.300  21.188   5.563
 3342POPC   PO444424  19.128  21.744   5.187
 3342POPC   GL144425  18.944  21.544   5.662
 3342POPC   GL244426  18.822  21.259   5.812
 3342POPC   C1A44427  18.987  21.640   6.156
 3342POPC   D2A44428  19.242  21.630   6.570
 3342POPC   C3A44429  19.184  21.375   6.947
 3342POPC   C4A44430  19.119  21.499   7.370
 3342POPC   C1B44431  18.828  21.170   6.232
 3342POPC   C2B44432  19.120  21.110   6.508
 3342POPC   C3B44433  19.068  20.865   6.824
 3342POPC   C4B44434  18.874  20.886   7.207
 3343POPC   NC344435  13.411  37.821   5.462
 3343POPC   PO444436  13.940  37.476   5.421
 3343POPC   GL144437  13.649  37.503   5.785
 3343POPC   GL244438  13.435  37.253   5.848
 3343POPC   C1A44439  13.461  37.716   6.144
 3343POPC   D2A44440  13.595  37.849   6.558
 3343POPC   C3A44441  13.426  37.693   6.929
 3343POPC   C4A44442  13.519  37.953   7.277
 3343POPC   C1B44443  13.630  37.257   6.287
 3343POPC   C2B44444  13.788  37.382   6.687
 3343POPC   C3B44445  13.717  37.307   7.129
 3343POPC   C4B44446  13.445  37.385   7.442
 3344POPC   NC344447  25.293   1.798   5.480
 3344POPC   PO444448  25.715   2.340   5.422
 3344POPC   GL144449  25.528   2.192   5.811
 3344POPC   GL244450  25.618   1.858   5.878
 3344POPC   C1A44451  25.205   2.025   6.126
 3344POPC   D2A44452  24.936   1.818   6.432
 3344POPC   C3A44453  25.008   1.884   6.861
 3344POPC   C4A44454  25.017   2.004   7.293
 3344POPC   C1B44455  25.633   1.809   6.334
 3344POPC   C2B44456  25.500   1.946   6.745
 3344POPC   C3B44457  25.560   1.963   7.214
 3344POPC   C4B44458  25.792   2.217   7.572
 3345POPC   NC344459  36.386  35.820   5.686
 3345POPC   PO444460  35.897  36.092   5.425
 3345POPC   GL144461  36.040  36.158   5.861
 3345POPC   GL244462  35.905  35.790   5.873
 3345POPC   C1A44463  36.215  36.365   6.271
 3345POPC   D2A44464  36.397  36.193   6.669
 3345POPC   C3A44465  36.457  36.372   7.091
 3345POPC   C4A44466  36.063  36.325   7.385
 3345POPC   C1B44467  35.943  35.869   6.315
 3345POPC   C2B44468  35.743  35.755   6.725
 3345POPC   C3B44469  35.912  35.905   7.119
 3345POPC   C4B44470  36.124  35.696   7.488
 3346POPC   NC344471   2.362  18.077   5.508
 3346POPC   PO444472   2.793  18.409   5.285
 3346POPC   GL144473   2.759  18.293   5.736
 3346POPC   GL244474   3.012  18.574   5.804
 3346POPC   C1A44475   2.576  18.058   6.121
 3346POPC   D2A44476   2.697  18.171   6.538
 3346POPC   C3A44477   2.682  18.040   6.956
 3346POPC   C4A44478   2.550  18.293   7.261
 3346POPC   C1B44479   3.151  18.706   6.189
 3346POPC   C2B44480   3.100  18.472   6.551
 3346POPC   C3B44481   2.906  18.514   6.921
 3346POPC   C4B44482   2.945  18.611   7.335
 3347POPC   NC344483   0.610  34.713   5.523
 3347POPC   PO444484  44.991  34.475   5.204
 3347POPC   GL144485   0.170  34.449   5.665
 3347POPC   GL244486   0.483  34.310   5.791
 3347POPC   C1A44487   0.224  34.669   6.091
 3347POPC   D2A44488   0.222  34.992   6.415
 3347POPC   C3A44489   0.490  34.879   6.744
 3347POPC   C4A44490   0.616  34.763   7.147
 3347POPC   C1B44491   0.492  34.260   6.212
 3347POPC   C2B44492   0.283  34.435   6.564
 3347POPC   C3B44493   0.368  34.342   6.983
 3347POPC   C4B44494   0.766  34.272   7.226
 3348POPC   NC344495  16.620  35.193   5.554
 3348POPC   PO444496  17.035  35.660   5.616
 3348POPC   GL144497  16.962  35.313   5.909
 3348POPC   GL244498  17.022  34.962   5.771
 3348POPC   C1A44499  16.880  35.338   6.356
 3348POPC   D2A44500  16.585  35.252   6.693
 3348POPC   C3A44501  16.664  35.505   7.035
 3348POPC   C4A44502  16.835  35.620   7.428
 3348POPC   C1B44503  17.194  34.943   6.209
 3348POPC   C2B44504  16.996  34.929   6.657
 3348POPC   C3B44505  17.053  35.044   7.094
 3348POPC   C4B44506  16.972  34.816   7.444
 3349POPC   NC344507   4.226   6.356   5.270
 3349POPC   PO444508   4.238   5.704   5.498
 3349POPC   GL144509   4.243   5.966   5.889
 3349POPC   GL244510   3.961   6.054   6.052
 3349POPC   C1A44511   4.481   5.963   6.274
 3349POPC   D2A44512   4.530   5.608   6.589
 3349POPC   C3A44513   4.693   5.787   6.976
 3349POPC   C4A44514   4.550   6.161   7.251
 3349POPC   C1B44515   4.012   5.706   6.278
 3349POPC   C2B44516   4.120   5.905   6.640
 3349POPC   C3B44517   4.146   5.867   7.041
 3349POPC   C4B44518   3.804   6.121   7.168
 3350POPC   NC344519  43.641  17.692   4.963
 3350POPC   PO444520  43.995  17.273   5.391
 3350POPC   GL144521  44.038  17.497   5.792
 3350POPC   GL244522  43.851  17.804   5.795
 3350POPC   C1A44523  44.044  17.647   6.247
 3350POPC   D2A44524  43.795  17.455   6.569
 3350POPC   C3A44525  44.019  17.588   6.919
 3350POPC   C4A44526  44.218  17.580   7.305
 3350POPC   C1B44527  43.590  17.543   6.086
 3350POPC   C2B44528  43.360  17.709   6.464
 3350POPC   C3B44529  43.508  17.689   6.917
 3350POPC   C4B44530  43.639  17.330   7.155
 3351POPC   NC344531  17.409  31.648   4.983
 3351POPC   PO444532  17.578  30.983   5.283
 3351POPC   GL144533  17.635  31.363   5.605
 3351POPC   GL244534  17.516  31.692   5.758
 3351POPC   C1A44535  17.718  31.345   6.082
 3351POPC   D2A44536  17.468  31.377   6.485
 3351POPC   C3A44537  17.630  31.420   6.907
 3351POPC   C4A44538  17.444  31.618   7.278
 3351POPC   C1B44539  17.652  31.816   6.188
 3351POPC   C2B44540  17.849  31.751   6.592
 3351POPC   C3B44541  17.762  31.916   7.006
 3351POPC   C4B44542  17.832  31.948   7.441
 3352POPC   NC344543  37.966  42.749   5.459
 3352POPC   PO444544  37.501  42.230   5.575
 3352POPC   GL144545  37.829  42.353   5.808
 3352POPC   GL244546  37.688  42.661   5.885
 3352POPC   C1A44547  37.781  42.332   6.261
 3352POPC   D2A44548  37.771  42.562   6.639
 3352POPC   C3A44549  37.604  42.294   6.923
 3352POPC   C4A44550  37.752  42.205   7.285
 3352POPC   C1B44551  37.534  42.878   6.257
 3352POPC   C2B44552  37.597  43.061   6.657
 3352POPC   C3B44553  37.462  42.810   6.976
 3352POPC   C4B44554  37.656  42.706   7.315
 3353POPC   NC344555  15.294  29.974   5.103
 3353POPC   PO444556  15.493  29.936   5.680
 3353POPC   GL144557  15.202  29.883   5.966
 3353POPC   GL244558  14.930  30.105   5.898
 3353POPC   C1A44559  15.280  29.780   6.396
 3353POPC   D2A44560  15.436  29.658   6.798
 3353POPC   C3A44561  15.404  29.900   7.148
 3353POPC   C4A44562  15.506  30.018   7.577
 3353POPC   C1B44563  14.786  29.861   6.270
 3353POPC   C2B44564  14.875  29.859   6.729
 3353POPC   C3B44565  14.958  29.635   7.102
 3353POPC   C4B44566  15.067  29.768   7.500
 3354POPC   NC344567  15.391  10.386   5.446
 3354POPC   PO444568  14.793  10.779   5.251
 3354POPC   GL144569  14.874  10.615   5.746
 3354POPC   GL244570  14.948  10.265   5.811
 3354POPC   C1A44571  15.025  10.721   6.203
 3354POPC   D2A44572  15.254  10.636   6.615
 3354POPC   C3A44573  15.108  10.694   7.062
 3354POPC   C4A44574  15.325  10.668   7.501
 3354POPC   C1B44575  14.732  10.131   6.204
 3354POPC   C2B44576  14.794   9.974   6.646
 3354POPC   C3B44577  14.912  10.203   7.054
 3354POPC   C4B44578  14.879  10.060   7.531
 3355POPC   NC344579  31.986  19.629   5.536
 3355POPC   PO444580  32.224  18.960   5.351
 3355POPC   GL144581  32.338  19.040   5.799
 3355POPC   GL244582  32.477  19.364   5.815
 3355POPC   C1A44583  32.236  19.179   6.255
 3355POPC   D2A44584  32.300  19.338   6.701
 3355POPC   C3A44585  32.154  19.094   7.065
 3355POPC   C4A44586  31.911  18.674   7.027
 3355POPC   C1B44587  32.530  19.609   6.225
 3355POPC   C2B44588  32.344  19.846   6.594
 3355POPC   C3B44589  32.478  19.758   7.005
 3355POPC   C4B44590  32.342  19.502   7.341
 3356POPC   NC344591  13.699   8.010   5.280
 3356POPC   PO444592  13.591   8.627   5.383
 3356POPC   GL144593  13.665   8.302   5.727
 3356POPC   GL244594  13.431   8.000   5.710
 3356POPC   C1A44595  13.520   8.344   6.182
 3356POPC   D2A44596  13.665   8.481   6.610
 3356POPC   C3A44597  13.434   8.346   7.001
 3356POPC   C4A44598  13.518   8.382   7.459
 3356POPC   C1B44599  13.562   7.829   6.099
 3356POPC   C2B44600  13.481   7.927   6.525
 3356POPC   C3B44601  13.487   7.800   6.942
 3356POPC   C4B44602  13.631   7.913   7.330
 3357POPC   NC344603  24.051  35.895   5.387
 3357POPC   PO444604  23.503  36.005   5.340
 3357POPC   GL144605  23.553  36.089   5.781
 3357POPC   GL244606  23.865  36.238   5.895
 3357POPC   C1A44607  23.462  36.208   6.223
 3357POPC   D2A44608  23.549  36.371   6.663
 3357POPC   C3A44609  23.471  36.124   7.084
 3357POPC   C4A44610  23.546  36.275   7.558
 3357POPC   C1B44611  23.991  36.149   6.374
 3357POPC   C2B44612  23.960  36.156   6.870
 3357POPC   C3B44613  23.935  36.054   7.314
 3357POPC   C4B44614  23.961  35.686   7.628
 3358POPC   NC344615  15.353  33.314   5.297
 3358POPC   PO444616  15.550  32.659   5.516
 3358POPC   GL144617  15.389  32.986   5.826
 3358POPC   GL244618  15.168  33.295   5.792
 3358POPC   C1A44619  15.372  33.156   6.224
 3358POPC   D2A44620  15.137  33.074   6.576
 3358POPC   C3A44621  15.307  32.900   6.965
 3358POPC   C4A44622  15.243  32.996   7.415
 3358POPC   C1B44623  14.917  33.412   6.177
 3358POPC   C2B44624  14.712  33.355   6.602
 3358POPC   C3B44625  14.852  33.159   7.002
 3358POPC   C4B44626  14.836  33.334   7.390
 3359POPC   NC344627  19.660  40.580   5.630
 3359POPC   PO444628  19.532  39.852   5.543
 3359POPC   GL144629  19.514  39.869   5.967
 3359POPC   GL244630  19.736  40.165   5.952
 3359POPC   C1A44631  19.740  39.851   6.373
 3359POPC   D2A44632  19.882  39.717   6.780
 3359POPC   C3A44633  19.786  39.906   7.166
 3359POPC   C4A44634  19.607  39.619   7.467
 3359POPC   C1B44635  19.804  40.416   6.327
 3359POPC   C2B44636  19.972  40.225   6.695
 3359POPC   C3B44637  20.128  40.345   7.083
 3359POPC   C4B44638  19.994  40.343   7.496
 3360POPC   NC344639   3.745  14.175   5.206
 3360POPC   PO444640   4.345  14.255   5.553
 3360POPC   GL144641   4.200  14.487   5.892
 3360POPC   GL244642   4.504  14.519   5.986
 3360POPC   C1A44643   4.077  14.408   6.328
 3360POPC   D2A44644   4.014  14.264   6.744
 3360POPC   C3A44645   4.008  14.594   7.037
 3360POPC   C4A44646   4.144  14.485   7.433
 3360POPC   C1B44647   4.516  14.674   6.346
 3360POPC   C2B44648   4.411  14.646   6.741
 3360POPC   C3B44649   4.527  14.381   7.073
 3360POPC   C4B44650   4.618  14.241   7.494
 3361POPC   NC344651  23.886  21.117   5.475
 3361POPC   PO444652  23.279  21.398   5.468
 3361POPC   GL144653  23.556  21.363   5.821
 3361POPC   GL244654  23.317  21.175   5.964
 3361POPC   C1A44655  23.710  21.314   6.267
 3361POPC   D2A44656  23.423  21.252   6.631
 3361POPC   C3A44657  23.625  21.213   7.045
 3361POPC   C4A44658  23.962  21.502   7.184
 3361POPC   C1B44659  23.286  21.584   6.246
 3361POPC   C2B44660  23.336  21.783   6.634
 3361POPC   C3B44661  23.516  21.718   7.032
 3361POPC   C4B44662  23.487  21.853   7.433
 3362POPC   NC344663  37.658   6.267   5.381
 3362POPC   PO444664  37.237   6.824   5.362
 3362POPC   GL144665  37.527   6.772   5.753
 3362POPC   GL244666  37.690   6.431   5.854
 3362POPC   C1A44667  37.582   6.802   6.228
 3362POPC   D2A44668  37.387   6.777   6.673
 3362POPC   C3A44669  37.662   6.856   7.043
 3362POPC   C4A44670  37.501   6.659   7.464
 3362POPC   C1B44671  37.982   6.421   6.211
 3362POPC   C2B44672  37.860   6.548   6.636
 3362POPC   C3B44673  37.748   6.365   7.050
 3362POPC   C4B44674  37.922   6.400   7.455
 3363POPC   NC344675  31.674  22.867   5.359
 3363POPC   PO444676  31.363  23.410   5.478
 3363POPC   GL144677  31.690  23.215   5.749
 3363POPC   GL244678  31.552  22.888   5.851
 3363POPC   C1A44679  31.861  23.171   6.168
 3363POPC   D2A44680  31.714  23.348   6.568
 3363POPC   C3A44681  31.479  23.060   6.862
 3363POPC   C4A44682  31.413  22.766   7.208
 3363POPC   C1B44683  31.401  22.965   6.256
 3363POPC   C2B44684  31.044  23.048   6.516
 3363POPC   C3B44685  30.990  23.242   6.886
 3363POPC   C4B44686  31.152  23.194   7.274
 3364POPC   NC344687  33.234  34.866   5.531
 3364POPC   PO444688  32.812  34.308   5.552
 3364POPC   GL144689  32.912  34.599   5.851
 3364POPC   GL244690  33.228  34.450   5.843
 3364POPC   C1A44691  32.819  34.658   6.277
 3364POPC   D2A44692  32.932  34.435   6.653
 3364POPC   C3A44693  32.778  34.623   7.007
 3364POPC   C4A44694  32.721  34.542   7.400
 3364POPC   C1B44695  33.333  34.705   6.173
 3364POPC   C2B44696  33.244  34.851   6.559
 3364POPC   C3B44697  33.291  34.689   6.946
 3364POPC   C4B44698  33.163  34.806   7.327
 3365POPC   NC344699  22.560  27.131   5.528
 3365POPC   PO444700  22.923  26.637   5.394
 3365POPC   GL144701  22.884  26.714   5.803
 3365POPC   GL244702  23.105  26.970   5.801
 3365POPC   C1A44703  23.031  26.676   6.228
 3365POPC   D2A44704  23.308  26.461   6.493
 3365POPC   C3A44705  23.199  26.542   6.879
 3365POPC   C4A44706  22.776  26.600   7.022
 3365POPC   C1B44707  22.844  27.148   6.135
 3365POPC   C2B44708  22.677  27.018   6.520
 3365POPC   C3B44709  22.572  27.049   6.944
 3365POPC   C4B44710  22.957  27.059   7.214
 3366POPC   NC344711  24.101  14.507   5.527
 3366POPC   PO444712  24.614  14.096   5.386
 3366POPC   GL144713  24.385  14.184   5.795
 3366POPC   GL244714  24.441  14.584   5.880
 3366POPC   C1A44715  24.317  14.271   6.249
 3366POPC   D2A44716  24.515  14.109   6.613
 3366POPC   C3A44717  24.372  14.244   7.005
 3366POPC   C4A44718  24.675  14.575   7.183
 3366POPC   C1B44719  24.351  14.790   6.279
 3366POPC   C2B44720  24.450  14.682   6.707
 3366POPC   C3B44721  24.192  14.709   7.081
 3366POPC   C4B44722  24.369  14.874   7.476
 3367POPC   NC344723  22.589  10.223   5.345
 3367POPC   PO444724  21.899  10.304   5.200
 3367POPC   GL144725  21.971  10.559   5.611
 3367POPC   GL244726  22.313  10.460   5.709
 3367POPC   C1A44727  22.069  10.751   6.057
 3367POPC   D2A44728  22.335  10.694   6.442
 3367POPC   C3A44729  22.187  10.758   6.878
 3367POPC   C4A44730  22.360  10.712   7.282
 3367POPC   C1B44731  22.117  10.222   6.030
 3367POPC   C2B44732  22.143  10.169   6.471
 3367POPC   C3B44733  22.311  10.247   6.861
 3367POPC   C4B44734  22.152  10.252   7.263
 3368POPC   NC344735  30.223  20.671   5.245
 3368POPC   PO444736  30.820  20.389   5.202
 3368POPC   GL144737  30.767  20.633   5.637
 3368POPC   GL244738  30.409  20.709   5.768
 3368POPC   C1A44739  30.974  20.606   6.057
 3368POPC   D2A44740  30.924  20.321   6.424
 3368POPC   C3A44741  30.969  20.458   6.874
 3368POPC   C4A44742  30.929  20.364   7.352
 3368POPC   C1B44743  30.485  20.562   6.203
 3368POPC   C2B44744  30.459  20.383   6.648
 3368POPC   C3B44745  30.500  20.384   7.091
 3368POPC   C4B44746  30.385  20.742   7.360
 3369POPC   NC344747  27.723   0.875   5.515
 3369POPC   PO444748  27.517   1.544   5.386
 3369POPC   GL144749  27.650   1.434   5.826
 3369POPC   GL244750  27.595   1.081   5.961
 3369POPC   C1A44751  27.419   1.440   6.268
 3369POPC   D2A44752  27.280   1.214   6.657
 3369POPC   C3A44753  27.465   1.425   6.974
 3369POPC   C4A44754  27.697   1.251   7.292
 3369POPC   C1B44755  27.384   0.840   6.307
 3369POPC   C2B44756  27.405   0.673   6.753
 3369POPC   C3B44757  27.362   0.897   7.149
 3369POPC   C4B44758  27.175   1.241   7.356
 3370POPC   NC344759   3.607  25.433   4.958
 3370POPC   PO444760   3.387  24.949   5.357
 3370POPC   GL144761   3.579  25.180   5.754
 3370POPC   GL244762   3.785  25.490   5.755
 3370POPC   C1A44763   3.550  25.260   6.206
 3370POPC   D2A44764   3.649  25.419   6.652
 3370POPC   C3A44765   3.391  25.331   7.043
 3370POPC   C4A44766   3.482  25.388   7.516
 3370POPC   C1B44767   4.004  25.473   6.161
 3370POPC   C2B44768   3.965  25.075   6.441
 3370POPC   C3B44769   3.756  24.932   6.816
 3370POPC   C4B44770   3.688  24.984   7.261
 3371POPC   NC344771  30.941  13.493   5.325
 3371POPC   PO444772  31.031  14.138   5.395
 3371POPC   GL144773  30.811  13.835   5.744
 3371POPC   GL244774  30.702  13.453   5.771
 3371POPC   C1A44775  30.653  13.771   6.184
 3371POPC   D2A44776  30.640  13.579   6.599
 3371POPC   C3A44777  30.647  13.826   6.989
 3371POPC   C4A44778  30.971  13.876   7.279
 3371POPC   C1B44779  30.629  13.242   6.188
 3371POPC   C2B44780  30.490  13.104   6.628
 3371POPC   C3B44781  30.629  13.303   7.044
 3371POPC   C4B44782  30.631  13.538   7.456
 3372POPC   NC344783  23.596   8.427   5.373
 3372POPC   PO444784  24.027   7.936   5.368
 3372POPC   GL144785  23.817   8.119   5.722
 3372POPC   GL244786  23.608   7.858   5.774
 3372POPC   C1A44787  23.718   8.268   6.153
 3372POPC   D2A44788  23.806   8.479   6.541
 3372POPC   C3A44789  23.678   8.290   6.927
 3372POPC   C4A44790  23.833   8.364   7.322
 3372POPC   C1B44791  23.872   7.782   6.140
 3372POPC   C2B44792  23.777   7.930   6.556
 3372POPC   C3B44793  23.948   7.865   6.975
 3372POPC   C4B44794  23.899   7.598   7.326
 3373POPC   NC344795  21.132  16.774   5.211
 3373POPC   PO444796  20.474  16.649   5.326
 3373POPC   GL144797  20.573  16.694   5.757
 3373POPC   GL244798  20.861  16.924   5.837
 3373POPC   C1A44799  20.665  16.594   6.183
 3373POPC   D2A44800  20.538  16.421   6.556
 3373POPC   C3A44801  20.674  16.549   6.942
 3373POPC   C4A44802  20.678  16.309   7.317
 3373POPC   C1B44803  20.798  17.080   6.225
 3373POPC   C2B44804  20.791  17.228   6.630
 3373POPC   C3B44805  20.616  17.085   7.027
 3373POPC   C4B44806  20.468  16.780   7.342
 3374POPC   NC344807  44.937   9.877   5.366
 3374POPC   PO444808   0.611   9.793   5.420
 3374POPC   GL144809   0.542   9.719   5.829
 3374POPC   GL244810   0.197   9.604   5.824
 3374POPC   C1A44811   0.430   9.887   6.218
 3374POPC   D2A44812   0.547   9.726   6.612
 3374POPC   C3A44813   0.697  10.029   6.890
 3374POPC   C4A44814   0.410  10.232   7.164
 3374POPC   C1B44815  44.966   9.654   6.240
 3374POPC   C2B44816   0.040   9.850   6.667
 3374POPC   C3B44817   0.275   9.767   7.041
 3374POPC   C4B44818   0.218   9.670   7.466
 3375POPC   NC344819  33.576  14.726   5.529
 3375POPC   PO444820  34.188  14.521   5.437
 3375POPC   GL144821  33.902  14.387   5.775
 3375POPC   GL244822  33.538  14.224   5.740
 3375POPC   C1A44823  33.867  14.514   6.222
 3375POPC   D2A44824  33.785  14.207   6.560
 3375POPC   C3A44825  33.938  14.237   6.980
 3375POPC   C4A44826  33.795  14.278   7.423
 3375POPC   C1B44827  33.393  14.385   6.175
 3375POPC   C2B44828  33.493  14.628   6.582
 3375POPC   C3B44829  33.455  14.426   6.991
 3375POPC   C4B44830  33.279  14.282   7.411
 3376POPC   NC344831  36.420  26.496   5.467
 3376POPC   PO444832  36.876  25.930   5.451
 3376POPC   GL144833  36.867  25.998   5.878
 3376POPC   GL244834  36.536  26.134   5.833
 3376POPC   C1A44835  36.958  25.850   6.325
 3376POPC   D2A44836  37.116  25.865   6.749
 3376POPC   C3A44837  36.914  26.005   7.110
 3376POPC   C4A44838  37.090  25.955   7.534
 3376POPC   C1B44839  36.549  26.167   6.272
 3376POPC   C2B44840  36.738  26.204   6.654
 3376POPC   C3B44841  36.557  26.380   6.995
 3376POPC   C4B44842  36.403  26.218   7.350
 3377POPC   NC344843  34.905  34.384   5.436
 3377POPC   PO444844  34.425  34.885   5.475
 3377POPC   GL144845  34.718  34.762   5.803
 3377POPC   GL244846  34.753  34.464   5.905
 3377POPC   C1A44847  34.618  34.820   6.269
 3377POPC   D2A44848  34.465  34.790   6.711
 3377POPC   C3A44849  34.705  34.491   6.962
 3377POPC   C4A44850  34.714  34.475   7.390
 3377POPC   C1B44851  34.634  34.262   6.224
 3377POPC   C2B44852  34.510  34.204   6.589
 3377POPC   C3B44853  34.192  34.355   6.814
 3377POPC   C4B44854  34.253  34.410   7.216
 3378POPC   NC344855   0.223  13.377   5.506
 3378POPC   PO444856   0.849  13.439   5.281
 3378POPC   GL144857   0.614  13.686   5.591
 3378POPC   GL244858   0.817  13.833   5.774
 3378POPC   C1A44859   0.344  13.786   6.010
 3378POPC   D2A44860   0.290  13.532   6.445
 3378POPC   C3A44861   0.143  13.579   6.905
 3378POPC   C4A44862   0.189  13.429   7.368
 3378POPC   C1B44863   0.724  13.483   6.128
 3378POPC   C2B44864   0.749  13.342   6.606
 3378POPC   C3B44865   0.718  13.411   7.081
 3378POPC   C4B44866   0.857  13.715   7.349
 3379POPC   NC344867  15.362  38.678   5.405
 3379POPC   PO444868  15.693  38.022   5.537
 3379POPC   GL144869  15.574  38.343   5.828
 3379POPC   GL244870  15.213  38.377   5.873
 3379POPC   C1A44871  15.524  38.302   6.293
 3379POPC   D2A44872  15.608  38.397   6.733
 3379POPC   C3A44873  15.269  38.517   6.992
 3379POPC   C4A44874  15.334  38.473   7.429
 3379POPC   C1B44875  15.007  38.322   6.300
 3379POPC   C2B44876  14.812  38.353   6.744
 3379POPC   C3B44877  14.921  38.170   7.183
 3379POPC   C4B44878  14.825  38.011   7.628
 3380POPC   NC344879  24.328  13.735   5.360
 3380POPC   PO444880  24.932  13.495   5.481
 3380POPC   GL144881  24.617  13.684   5.775
 3380POPC   GL244882  24.240  13.563   5.839
 3380POPC   C1A44883  24.535  13.786   6.195
 3380POPC   D2A44884  24.602  13.590   6.590
 3380POPC   C3A44885  24.413  13.726   6.955
 3380POPC   C4A44886  24.419  13.466   7.284
 3380POPC   C1B44887  24.243  13.354   6.271
 3380POPC   C2B44888  24.084  13.412   6.702
 3380POPC   C3B44889  23.939  13.383   7.141
 3380POPC   C4B44890  24.022  13.429   7.613
 3381POPC   NC344891  14.025   7.181   5.290
 3381POPC   PO444892  13.484   7.598   5.274
 3381POPC   GL144893  13.767   7.593   5.645
 3381POPC   GL244894  13.992   7.880   5.748
 3381POPC   C1A44895  13.704   7.321   6.019
 3381POPC   D2A44896  13.849   7.192   6.420
 3381POPC   C3A44897  13.607   7.255   6.811
 3381POPC   C4A44898  13.625   7.369   7.248
 3381POPC   C1B44899  14.043   7.668   6.184
 3381POPC   C2B44900  13.893   7.650   6.631
 3381POPC   C3B44901  14.017   7.662   7.063
 3381POPC   C4B44902  13.991   7.629   7.530
 3382POPC   NC344903   0.772  15.334   5.487
 3382POPC   PO444904   1.332  14.956   5.380
 3382POPC   GL144905   1.191  15.177   5.746
 3382POPC   GL244906   1.362  15.475   5.744
 3382POPC   C1A44907   1.257  15.042   6.167
 3382POPC   D2A44908   1.011  15.018   6.532
 3382POPC   C3A44909   1.240  15.127   6.877
 3382POPC   C4A44910   1.134  15.048   7.305
 3382POPC   C1B44911   1.289  15.657   6.129
 3382POPC   C2B44912   1.294  15.536   6.537
 3382POPC   C3B44913   1.523  15.649   6.908
 3382POPC   C4B44914   1.354  15.484   7.246
 3383POPC   NC344915  40.503  43.796   5.298
 3383POPC   PO444916  41.020  44.320   5.356
 3383POPC   GL144917  40.879  44.119   5.748
 3383POPC   GL244918  40.704  43.778   5.783
 3383POPC   C1A44919  40.753  44.076   6.199
 3383POPC   D2A44920  40.744  44.177   6.618
 3383POPC   C3A44921  40.477  44.075   6.952
 3383POPC   C4A44922  40.557  43.978   7.360
 3383POPC   C1B44923  40.757  43.565   6.219
 3383POPC   C2B44924  40.709  43.637   6.676
 3383POPC   C3B44925  40.938  43.781   7.049
 3383POPC   C4B44926  40.845  43.575   7.434
 3384POPC   NC344927   8.961  36.748   5.382
 3384POPC   PO444928   8.625  37.379   5.373
 3384POPC   GL144929   8.893  37.206   5.781
 3384POPC   GL244930   8.956  36.825   5.883
 3384POPC   C1A44931   8.835  37.108   6.278
 3384POPC   D2A44932   9.136  36.904   6.594
 3384POPC   C3A44933   9.064  36.834   7.040
 3384POPC   C4A44934   9.173  37.166   7.339
 3384POPC   C1B44935   9.038  36.526   6.253
 3384POPC   C2B44936   9.357  36.436   6.592
 3384POPC   C3B44937   9.426  36.442   7.023
 3384POPC   C4B44938   9.126  36.353   7.311
 3385POPC   NC344939  35.155  17.795   5.340
 3385POPC   PO444940  35.642  17.409   5.211
 3385POPC   GL144941  35.532  17.516   5.669
 3385POPC   GL244942  35.274  17.757   5.825
 3385POPC   C1A44943  35.601  17.480   6.145
 3385POPC   D2A44944  35.780  17.262   6.547
 3385POPC   C3A44945  35.554  17.392   6.905
 3385POPC   C4A44946  35.458  17.211   7.265
 3385POPC   C1B44947  35.072  17.898   6.216
 3385POPC   C2B44948  35.045  17.776   6.663
 3385POPC   C3B44949  35.020  17.684   7.099
 3385POPC   C4B44950  35.066  17.457   7.506
 3386POPC   NC344951  23.312  31.737   5.443
 3386POPC   PO444952  23.769  31.285   5.410
 3386POPC   GL144953  23.801  31.317   5.838
 3386POPC   GL244954  23.497  31.140   5.966
 3386POPC   C1A44955  23.930  31.298   6.255
 3386POPC   D2A44956  23.735  31.411   6.651
 3386POPC   C3A44957  23.942  31.508   7.021
 3386POPC   C4A44958  24.088  31.380   7.410
 3386POPC   C1B44959  23.421  31.534   6.212
 3386POPC   C2B44960  23.277  31.656   6.635
 3386POPC   C3B44961  23.478  31.737   7.008
 3386POPC   C4B44962  23.608  31.508   7.400
 3387POPC   NC344963  38.473  18.653   5.470
 3387POPC   PO444964  38.775  19.312   5.466
 3387POPC   GL144965  38.624  19.277   5.860
 3387POPC   GL244966  38.656  18.923   5.879
 3387POPC   C1A44967  38.659  19.374   6.295
 3387POPC   D2A44968  38.365  19.423   6.631
 3387POPC   C3A44969  38.515  19.271   7.020
 3387POPC   C4A44970  38.262  19.189   7.378
 3387POPC   C1B44971  38.377  18.951   6.235
 3387POPC   C2B44972  38.506  18.908   6.662
 3387POPC   C3B44973  38.351  18.775   7.094
 3387POPC   C4B44974  38.318  18.695   7.556
 3388POPC   NC344975  40.468  29.043   5.199
 3388POPC   PO444976  41.003  29.415   5.433
 3388POPC   GL144977  40.887  29.223   5.847
 3388POPC   GL244978  40.752  28.861   5.958
 3388POPC   C1A44979  40.703  29.249   6.283
 3388POPC   D2A44980  40.828  29.183   6.667
 3388POPC   C3A44981  40.605  29.413   6.967
 3388POPC   C4A44982  40.880  29.330   7.273
 3388POPC   C1B44983  40.393  28.800   6.287
 3388POPC   C2B44984  40.340  28.903   6.739
 3388POPC   C3B44985  40.643  28.905   7.072
 3388POPC   C4B44986  40.674  28.941   7.544
 3389POPC   NC344987  44.012  20.362   5.409
 3389POPC   PO444988  43.462  20.706   5.284
 3389POPC   GL144989  43.765  20.752   5.657
 3389POPC   GL244990  43.822  20.447   5.859
 3389POPC   C1A44991  43.947  20.878   6.078
 3389POPC   D2A44992  43.881  20.652   6.482
 3389POPC   C3A44993  44.011  20.832   6.883
 3389POPC   C4A44994  43.887  20.945   7.271
 3389POPC   C1B44995  43.702  20.228   6.214
 3389POPC   C2B44996  43.941  20.112   6.544
 3389POPC   C3B44997  43.788  20.190   6.917
 3389POPC   C4B44998  43.918  20.430   7.245
 3390POPC   NC344999  14.185  24.788   5.474
 3390POPC   PO445000  14.492  25.468   5.502
 3390POPC   GL145001  14.399  25.165   5.788
 3390POPC   GL245002  14.071  25.277   5.834
 3390POPC   C1A45003  14.378  25.108   6.251
 3390POPC   D2A45004  14.600  24.917   6.619
 3390POPC   C3A45005  14.651  25.064   7.052
 3390POPC   C4A45006  14.660  25.073   7.505
 3390POPC   C1B45007  14.164  25.569   6.193
 3390POPC   C2B45008  14.134  25.450   6.641
 3390POPC   C3B45009  14.218  25.309   7.058
 3390POPC   C4B45010  14.359  25.502   7.437
 3391POPC   NC345011  43.853   5.781   5.323
 3391POPC   PO445012  44.141   6.208   5.593
 3391POPC   GL145013  43.871   5.994   5.864
 3391POPC   GL245014  43.694   5.682   5.796
 3391POPC   C1A45015  43.841   5.899   6.291
 3391POPC   D2A45016  44.043   6.058   6.668
 3391POPC   C3A45017  43.864   6.120   7.072
 3391POPC   C4A45018  44.037   5.784   7.315
 3391POPC   C1B45019  43.409   5.614   6.128
 3391POPC   C2B45020  43.511   5.613   6.550
 3391POPC   C3B45021  43.726   5.653   6.910
 3391POPC   C4B45022  43.482   5.673   7.276
 3392POPC   NC345023  11.645  16.921   5.305
 3392POPC   PO445024  11.080  16.727   5.280
 3392POPC   GL145025  11.351  16.638   5.682
 3392POPC   GL245026  11.695  16.455   5.642
 3392POPC   C1A45027  11.344  16.659   6.181
 3392POPC   D2A45028  11.440  16.800   6.646
 3392POPC   C3A45029  11.266  16.792   7.099
 3392POPC   C4A45030  11.078  16.652   7.512
 3392POPC   C1B45031  11.798  16.453   6.094
 3392POPC   C2B45032  11.885  16.520   6.586
 3392POPC   C3B45033  11.649  16.391   6.996
 3392POPC   C4B45034  11.565  16.535   7.423
 3393POPC   NC345035  24.858  37.943   5.575
 3393POPC   PO445036  24.293  38.256   5.468
 3393POPC   GL145037  24.490  38.554   5.801
 3393POPC   GL245038  24.845  38.687   5.836
 3393POPC   C1A45039  24.515  38.709   6.242
 3393POPC   D2A45040  24.312  38.519   6.570
 3393POPC   C3A45041  24.534  38.614   6.923
 3393POPC   C4A45042  24.442  38.425   7.281
 3393POPC   C1B45043  24.817  38.319   6.140
 3393POPC   C2B45044  24.774  38.322   6.591
 3393POPC   C3B45045  24.853  38.224   7.046
 3393POPC   C4B45046  24.934  38.565   7.335
 3394POPC   NC345047  16.154  28.369   5.567
 3394POPC   PO445048  15.557  28.726   5.341
 3394POPC   GL145049  15.714  28.650   5.766
 3394POPC   GL245050  15.687  28.296   5.835
 3394POPC   C1A45051  15.970  28.597   6.169
 3394POPC   D2A45052  16.165  28.656   6.566
 3394POPC   C3A45053  15.979  28.610   6.974
 3394POPC   C4A45054  15.661  28.321   7.091
 3394POPC   C1B45055  15.813  28.113   6.245
 3394POPC   C2B45056  16.036  28.125   6.640
 3394POPC   C3B45057  15.968  27.918   7.034
 3394POPC   C4B45058  15.886  28.043   7.453
 3395POPC   NC345059  25.842   7.631   5.321
 3395POPC   PO445060  26.305   7.225   5.563
 3395POPC   GL145061  26.131   7.444   5.886
 3395POPC   GL245062  25.798   7.485   5.811
 3395POPC   C1A45063  25.907   7.243   6.247
 3395POPC   D2A45064  25.771   7.381   6.641
 3395POPC   C3A45065  26.107   7.531   6.890
 3395POPC   C4A45066  26.212   7.426   7.333
 3395POPC   C1B45067  25.678   7.715   6.200
 3395POPC   C2B45068  25.706   7.891   6.633
 3395POPC   C3B45069  25.603   7.717   7.040
 3395POPC   C4B45070  25.757   7.701   7.486
 3396POPC   NC345071  34.226   0.334   5.308
 3396POPC   PO445072  33.632   0.133   5.493
 3396POPC   GL145073  33.897   0.409   5.835
 3396POPC   GL245074  34.114   0.181   6.122
 3396POPC   C1A45075  33.917   0.607   6.241
 3396POPC   D2A45076  33.745   0.638   6.651
 3396POPC   C3A45077  33.992   0.651   7.018
 3396POPC   C4A45078  33.626   0.606   7.210
 3396POPC   C1B45079  33.675   0.133   6.268
 3396POPC   C2B45080  33.540   0.032   6.674
 3396POPC   C3B45081  33.804   0.197   6.955
 3396POPC   C4B45082  34.212   0.112   7.100
 3397POPC   NC345083  14.732   6.952   5.089
 3397POPC   PO445084  14.466   7.519   5.249
 3397POPC   GL145085  14.403   7.499   5.721
 3397POPC   GL245086  14.680   7.739   5.815
 3397POPC   C1A45087  14.305   7.238   6.138
 3397POPC   D2A45088  14.301   7.337   6.615
 3397POPC   C3A45089  14.109   7.153   7.029
 3397POPC   C4A45090  14.278   7.204   7.493
 3397POPC   C1B45091  14.683   7.618   6.252
 3397POPC   C2B45092  14.802   7.497   6.676
 3397POPC   C3B45093  14.576   7.383   7.053
 3397POPC   C4B45094  14.450   7.682   7.327
 3398POPC   NC345095   4.690  30.349   5.542
 3398POPC   PO445096   4.401  29.766   5.381
 3398POPC   GL145097   4.181  29.851   5.747
 3398POPC   GL245098   4.249  30.209   5.795
 3398POPC   C1A45099   4.069  29.886   6.164
 3398POPC   D2A45100   4.060  30.098   6.551
 3398POPC   C3A45101   4.223  29.897   6.921
 3398POPC   C4A45102   4.241  29.662   7.291
 3398POPC   C1B45103   4.490  30.200   6.186
 3398POPC   C2B45104   4.519  30.346   6.608
 3398POPC   C3B45105   4.216  30.410   6.968
 3398POPC   C4B45106   4.141  30.209   7.371
 3399POPC   NC345107  18.680   0.307   5.433
 3399POPC   PO445108  18.911   1.020   5.370
 3399POPC   GL145109  18.874   0.751   5.731
 3399POPC   GL245110  19.120   0.486   5.863
 3399POPC   C1A45111  18.955   0.869   6.166
 3399POPC   D2A45112  19.107   0.734   6.563
 3399POPC   C3A45113  18.801   0.468   6.770
 3399POPC   C4A45114  18.876   0.309   7.176
 3399POPC   C1B45115  19.227   0.280   6.301
 3399POPC   C2B45116  19.235   0.178   6.790
 3399POPC   C3B45117  19.381   0.284   7.241
 3399POPC   C4B45118  19.509   0.317   7.712
 3400POPC   NC345119  33.902  33.351   5.293
 3400POPC   PO445120  33.531  32.859   5.448
 3400POPC   GL145121  33.626  33.116   5.782
 3400POPC   GL245122  33.943  33.003   5.756
 3400POPC   C1A45123  33.720  33.077   6.221
 3400POPC   D2A45124  33.530  33.123   6.622
 3400POPC   C3A45125  33.704  33.034   7.009
 3400POPC   C4A45126  33.484  32.882   7.377
 3400POPC   C1B45127  34.107  32.756   6.082
 3400POPC   C2B45128  34.189  32.893   6.469
 3400POPC   C3B45129  34.258  32.735   6.885
 3400POPC   C4B45130  34.152  32.877   7.289
 3401POPC   NC345131  11.657   2.809   5.427
 3401POPC   PO445132  12.097   2.392   5.142
 3401POPC   GL145133  12.069   2.510   5.621
 3401POPC   GL245134  11.999   2.840   5.792
 3401POPC   C1A45135  12.239   2.537   6.094
 3401POPC   D2A45136  12.247   2.697   6.531
 3401POPC   C3A45137  11.982   2.548   6.867
 3401POPC   C4A45138  11.969   2.808   7.212
 3401POPC   C1B45139  11.942   2.980   6.243
 3401POPC   C2B45140  11.859   3.031   6.704
 3401POPC   C3B45141  11.687   3.212   7.115
 3401POPC   C4B45142  11.734   3.143   7.592
 3402POPC   NC345143   0.984  26.650   5.337
 3402POPC   PO445144   1.579  26.699   5.544
 3402POPC   GL145145   1.192  26.908   5.740
 3402POPC   GL245146   1.322  27.231   5.810
 3402POPC   C1A45147   0.971  27.045   6.145
 3402POPC   D2A45148   0.957  26.823   6.543
 3402POPC   C3A45149   1.029  26.866   6.950
 3402POPC   C4A45150   1.091  26.601   7.298
 3402POPC   C1B45151   1.487  27.022   6.229
 3402POPC   C2B45152   1.485  26.863   6.687
 3402POPC   C3B45153   1.514  26.888   7.163
 3402POPC   C4B45154   1.572  27.208   7.490
 3403POPC   NC345155  34.185   5.805   5.520
 3403POPC   PO445156  33.651   5.912   5.156
 3403POPC   GL145157  33.708   5.932   5.667
 3403POPC   GL245158  33.956   6.132   5.857
 3403POPC   C1A45159  33.678   5.891   6.188
 3403POPC   D2A45160  33.665   6.126   6.628
 3403POPC   C3A45161  33.615   5.965   7.077
 3403POPC   C4A45162  33.662   5.948   7.558
 3403POPC   C1B45163  34.114   6.174   6.296
 3403POPC   C2B45164  34.147   5.999   6.737
 3403POPC   C3B45165  34.111   5.976   7.207
 3403POPC   C4B45166  34.140   5.910   7.677
 3404POPC   NC345167   7.370   0.861   5.323
 3404POPC   PO445168   6.909   0.430   5.216
 3404POPC   GL145169   7.246   0.413   5.615
 3404POPC   GL245170   7.300   0.729   5.809
 3404POPC   C1A45171   7.421   0.331   6.074
 3404POPC   D2A45172   7.582   0.543   6.489
 3404POPC   C3A45173   7.395   0.623   6.912
 3404POPC   C4A45174   7.379   0.363   7.250
 3404POPC   C1B45175   7.052   0.654   6.201
 3404POPC   C2B45176   7.051   0.428   6.589
 3404POPC   C3B45177   6.903   0.379   7.025
 3404POPC   C4B45178   6.951   0.592   7.416
 3405POPC   NC345179  33.783  13.766   5.340
 3405POPC   PO445180  34.004  13.192   5.152
 3405POPC   GL145181  33.743  13.309   5.619
 3405POPC   GL245182  33.511  13.591   5.723
 3405POPC   C1A45183  33.826  13.422   6.095
 3405POPC   D2A45184  33.676  13.593   6.516
 3405POPC   C3A45185  33.783  13.475   6.965
 3405POPC   C4A45186  33.880  13.798   7.252
 3405POPC   C1B45187  33.338  13.853   6.079
 3405POPC   C2B45188  33.328  13.971   6.509
 3405POPC   C3B45189  33.523  13.919   6.904
 3405POPC   C4B45190  33.352  13.770   7.283
 3406POPC   NC345191  40.447  40.518   5.509
 3406POPC   PO445192  41.087  40.765   5.511
 3406POPC   GL145193  40.843  40.733   5.866
 3406POPC   GL245194  40.579  40.946   5.811
 3406POPC   C1A45195  40.746  40.655   6.290
 3406POPC   D2A45196  40.651  40.361   6.611
 3406POPC   C3A45197  40.713  40.513   6.995
 3406POPC   C4A45198  40.885  40.884   7.087
 3406POPC   C1B45199  40.605  41.142   6.211
 3406POPC   C2B45200  40.428  41.102   6.629
 3406POPC   C3B45201  40.470  41.160   7.062
 3406POPC   C4B45202  40.460  40.825   7.351
 3407POPC   NC345203   3.615   0.977   5.422
 3407POPC   PO445204   3.312   1.570   5.398
 3407POPC   GL145205   3.579   1.416   5.703
 3407POPC   GL245206   3.317   1.169   5.800
 3407POPC   C1A45207   3.642   1.420   6.126
 3407POPC   D2A45208   3.297   1.232   6.373
 3407POPC   C3A45209   3.311   1.329   6.813
 3407POPC   C4A45210   3.648   1.367   7.147
 3407POPC   C1B45211   3.073   0.889   6.047
 3407POPC   C2B45212   3.025   0.818   6.489
 3407POPC   C3B45213   3.285   0.829   6.869
 3407POPC   C4B45214   3.245   1.053   7.257
 3408POPC   NC345215  39.538  21.022   5.585
 3408POPC   PO445216  39.520  20.311   5.511
 3408POPC   GL145217  39.301  20.590   5.765
 3408POPC   GL245218  38.961  20.508   5.816
 3408POPC   C1A45219  39.356  20.749   6.175
 3408POPC   D2A45220  39.239  20.634   6.574
 3408POPC   C3A45221  39.457  20.646   6.949
 3408POPC   C4A45222  39.210  20.410   7.246
 3408POPC   C1B45223  38.841  20.819   6.117
 3408POPC   C2B45224  38.794  20.890   6.557
 3408POPC   C3B45225  39.036  20.949   6.928
 3408POPC   C4B45226  39.083  20.891   7.348
 3409POPC   NC345227  12.451   2.707   5.076
 3409POPC   PO445228  13.043   2.766   5.396
 3409POPC   GL145229  12.843   2.959   5.752
 3409POPC   GL245230  12.467   3.065   5.693
 3409POPC   C1A45231  12.917   2.872   6.202
 3409POPC   D2A45232  12.715   2.871   6.631
 3409POPC   C3A45233  12.883   2.675   7.026
 3409POPC   C4A45234  12.941   2.394   7.423
 3409POPC   C1B45235  12.443   3.057   6.138
 3409POPC   C2B45236  12.348   3.227   6.539
 3409POPC   C3B45237  12.358   3.032   6.960
 3409POPC   C4B45238  12.638   3.070   7.298
 3410POPC   NC345239  23.119  24.991   5.389
 3410POPC   PO445240  22.944  24.365   5.281
 3410POPC   GL145241  22.910  24.459   5.737
 3410POPC   GL245242  22.759  24.805   5.806
 3410POPC   C1A45243  23.009  24.406   6.191
 3410POPC   D2A45244  22.895  24.196   6.605
 3410POPC   C3A45245  22.977  24.439   6.983
 3410POPC   C4A45246  23.177  24.689   7.321
 3410POPC   C1B45247  22.638  24.756   6.232
 3410POPC   C2B45248  22.592  24.598   6.643
 3410POPC   C3B45249  22.433  24.692   7.037
 3410POPC   C4B45250  22.485  25.119   7.186
 3411POPC   NC345251  14.574  18.944   5.345
 3411POPC   PO445252  14.220  19.497   5.340
 3411POPC   GL145253  14.320  19.250   5.722
 3411POPC   GL245254  14.680  19.192   5.811
 3411POPC   C1A45255  14.349  19.146   6.191
 3411POPC   D2A45256  14.586  19.314   6.560
 3411POPC   C3A45257  14.399  19.156   6.940
 3411POPC   C4A45258  14.165  19.073   7.289
 3411POPC   C1B45259  14.785  18.852   6.125
 3411POPC   C2B45260  14.694  18.789   6.577
 3411POPC   C3B45261  14.881  19.016   6.929
 3411POPC   C4B45262  14.779  19.170   7.333
 3412POPC   NC345263  10.028  12.988   5.672
 3412POPC   PO445264   9.398  12.892   5.468
 3412POPC   GL145265   9.573  12.766   5.865
 3412POPC   GL245266   9.860  12.519   5.816
 3412POPC   C1A45267   9.692  12.946   6.287
 3412POPC   D2A45268   9.436  13.110   6.645
 3412POPC   C3A45269   9.501  12.812   6.980
 3412POPC   C4A45270   9.649  12.861   7.393
 3412POPC   C1B45271  10.018  12.521   6.227
 3412POPC   C2B45272   9.935  12.297   6.615
 3412POPC   C3B45273   9.877  12.454   7.034
 3412POPC   C4B45274   9.936  12.457   7.444
 3413POPC   NC345275  29.715  21.936   5.463
 3413POPC   PO445276  30.378  21.971   5.453
 3413POPC   GL145277  30.290  22.179   5.811
 3413POPC   GL245278  29.958  22.281   5.793
 3413POPC   C1A45279  30.186  21.982   6.176
 3413POPC   D2A45280  29.928  21.990   6.547
 3413POPC   C3A45281  30.035  22.249   6.845
 3413POPC   C4A45282  30.194  21.957   7.123
 3413POPC   C1B45283  29.799  22.351   6.220
 3413POPC   C2B45284  29.574  22.383   6.637
 3413POPC   C3B45285  29.684  22.555   7.045
 3413POPC   C4B45286  29.697  22.151   7.223
 3414POPC   NC345287   2.960  20.376   5.453
 3414POPC   PO445288   2.429  20.872   5.422
 3414POPC   GL145289   2.649  20.696   5.748
 3414POPC   GL245290   2.956  20.819   5.927
 3414POPC   C1A45291   2.498  20.737   6.163
 3414POPC   D2A45292   2.716  20.871   6.523
 3414POPC   C3A45293   2.456  20.842   6.880
 3414POPC   C4A45294   2.597  20.900   7.298
 3414POPC   C1B45295   2.924  20.441   6.167
 3414POPC   C2B45296   2.693  20.310   6.540
 3414POPC   C3B45297   2.799  20.477   6.937
 3414POPC   C4B45298   3.105  20.783   7.103
 3415POPC   NC345299   5.443  13.930   5.225
 3415POPC   PO445300   4.928  13.488   5.284
 3415POPC   GL145301   5.121  13.742   5.642
 3415POPC   GL245302   4.856  13.891   5.863
 3415POPC   C1A45303   5.225  13.593   6.075
 3415POPC   D2A45304   5.162  13.284   6.404
 3415POPC   C3A45305   5.262  13.375   6.839
 3415POPC   C4A45306   5.074  13.594   7.205
 3415POPC   C1B45307   4.675  13.564   6.137
 3415POPC   C2B45308   4.744  13.583   6.565
 3415POPC   C3B45309   4.961  13.898   6.779
 3415POPC   C4B45310   4.974  14.101   7.165
 3416POPC   NC345311  37.917  17.150   5.445
 3416POPC   PO445312  38.402  16.696   5.393
 3416POPC   GL145313  38.454  16.758   5.839
 3416POPC   GL245314  38.225  17.039   5.867
 3416POPC   C1A45315  38.690  16.612   6.219
 3416POPC   D2A45316  38.884  16.470   6.640
 3416POPC   C3A45317  38.661  16.534   7.045
 3416POPC   C4A45318  38.782  16.797   7.411
 3416POPC   C1B45319  38.251  16.919   6.314
 3416POPC   C2B45320  38.572  16.903   6.648
 3416POPC   C3B45321  38.551  17.063   7.055
 3416POPC   C4B45322  38.277  16.880   7.366
 3417POPC   NC345323  15.506  24.492   5.450
 3417POPC   PO445324  16.143  24.245   5.428
 3417POPC   GL145325  16.142  24.323   5.868
 3417POPC   GL245326  15.828  24.463   5.863
 3417POPC   C1A45327  16.200  24.566   6.267
 3417POPC   D2A45328  16.019  24.717   6.668
 3417POPC   C3A45329  16.167  24.565   7.067
 3417POPC   C4A45330  16.084  24.739   7.454
 3417POPC   C1B45331  15.680  24.642   6.254
 3417POPC   C2B45332  15.496  24.644   6.664
 3417POPC   C3B45333  15.689  24.751   7.069
 3417POPC   C4B45334  15.674  24.418   7.397
 3418POPC   NC345335  13.094  38.961   5.212
 3418POPC   PO445336  12.532  39.268   5.196
 3418POPC   GL145337  12.880  39.108   5.645
 3418POPC   GL245338  12.990  39.404   5.874
 3418POPC   C1A45339  12.770  39.014   6.142
 3418POPC   D2A45340  12.869  39.298   6.508
 3418POPC   C3A45341  12.877  39.199   6.961
 3418POPC   C4A45342  12.572  38.966   7.188
 3418POPC   C1B45343  13.256  39.085   6.081
 3418POPC   C2B45344  13.272  38.922   6.478
 3418POPC   C3B45345  13.373  39.068   6.878
 3418POPC   C4B45346  13.186  38.839   7.223
 3419POPC   NC345347   6.773  32.287   5.139
 3419POPC   PO445348   6.722  31.698   5.439
 3419POPC   GL145349   6.850  32.087   5.672
 3419POPC   GL245350   6.574  32.277   5.768
 3419POPC   C1A45351   6.952  32.302   6.103
 3419POPC   D2A45352   6.700  32.311   6.502
 3419POPC   C3A45353   6.663  32.103   6.920
 3419POPC   C4A45354   6.736  32.109   7.382
 3419POPC   C1B45355   6.452  32.564   6.119
 3419POPC   C2B45356   6.282  32.643   6.529
 3419POPC   C3B45357   6.258  32.547   6.967
 3419POPC   C4B45358   6.302  32.376   7.383
 3420POPC   NC345359  13.643  15.456   5.461
 3420POPC   PO445360  13.997  14.852   5.512
 3420POPC   GL145361  13.703  15.091   5.863
 3420POPC   GL245362  13.822  15.459   5.919
 3420POPC   C1A45363  13.536  15.046   6.329
 3420POPC   D2A45364  13.471  14.938   6.794
 3420POPC   C3A45365  13.462  15.270   7.113
 3420POPC   C4A45366  13.530  15.263   7.559
 3420POPC   C1B45367  13.587  15.558   6.258
 3420POPC   C2B45368  13.710  15.435   6.652
 3420POPC   C3B45369  14.017  15.534   6.903
 3420POPC   C4B45370  13.864  15.562   7.304
 3421POPC   NC345371  35.071   7.921   5.436
 3421POPC   PO445372  35.764   8.176   5.462
 3421POPC   GL145373  35.537   8.088   5.846
 3421POPC   GL245374  35.188   8.147   5.860
 3421POPC   C1A45375  35.467   8.295   6.259
 3421POPC   D2A45376  35.673   8.483   6.591
 3421POPC   C3A45377  35.575   8.292   6.941
 3421POPC   C4A45378  35.248   8.423   7.181
 3421POPC   C1B45379  35.189   7.888   6.184
 3421POPC   C2B45380  35.368   7.901   6.582
 3421POPC   C3B45381  35.167   7.972   6.926
 3421POPC   C4B45382  35.077   7.972   7.311
 3422POPC   NC345383  28.387  39.273   5.426
 3422POPC   PO445384  27.835  39.287   5.847
 3422POPC   GL145385  28.280  39.323   5.916
 3422POPC   GL245386  28.351  39.009   5.878
 3422POPC   C1A45387  28.594  39.348   6.249
 3422POPC   D2A45388  28.451  39.554   6.641
 3422POPC   C3A45389  28.560  39.375   7.063
 3422POPC   C4A45390  28.326  39.251   7.471
 3422POPC   C1B45391  28.206  38.992   6.323
 3422POPC   C2B45392  28.458  39.021   6.679
 3422POPC   C3B45393  28.435  38.888   7.099
 3422POPC   C4B45394  28.237  38.710   7.471
 3423POPC   NC345395  30.675  23.936   5.334
 3423POPC   PO445396  30.449  23.385   5.573
 3423POPC   GL145397  30.703  23.625   5.821
 3423POPC   GL245398  30.707  23.996   5.826
 3423POPC   C1A45399  30.693  23.612   6.257
 3423POPC   D2A45400  30.462  23.769   6.592
 3423POPC   C3A45401  30.740  23.668   6.917
 3423POPC   C4A45402  30.707  23.470   7.301
 3423POPC   C1B45403  30.760  24.121   6.187
 3423POPC   C2B45404  30.896  24.001   6.537
 3423POPC   C3B45405  30.661  24.161   6.905
 3423POPC   C4B45406  30.770  24.029   7.290
 3424POPC   NC345407  37.655  44.238   5.419
 3424POPC   PO445408  37.703  44.880   5.440
 3424POPC   GL145409  37.590  44.579   5.782
 3424POPC   GL245410  37.923  44.631   5.874
 3424POPC   C1A45411  37.448  44.372   6.183
 3424POPC   D2A45412  37.241  44.315   6.626
 3424POPC   C3A45413  37.411  44.544   6.976
 3424POPC   C4A45414  37.505  44.932   7.159
 3424POPC   C1B45415  37.960  44.417   6.265
 3424POPC   C2B45416  37.775  44.305   6.651
 3424POPC   C3B45417  37.912  44.521   7.036
 3424POPC   C4B45418  38.015  44.994   7.124
 3425POPC   NC345419  27.878   9.996   5.527
 3425POPC   PO445420  28.296  10.410   5.264
 3425POPC   GL145421  28.395  10.483   5.708
 3425POPC   GL245422  28.128  10.305   5.848
 3425POPC   C1A45423  28.547  10.311   6.130
 3425POPC   D2A45424  28.597  10.502   6.565
 3425POPC   C3A45425  28.552  10.289   6.960
 3425POPC   C4A45426  28.375  10.252   7.373
 3425POPC   C1B45427  28.075  10.155   6.253
 3425POPC   C2B45428  28.117  10.303   6.667
 3425POPC   C3B45429  28.109  10.536   7.054
 3425POPC   C4B45430  28.079  10.619   7.545
 3426POPC   NC345431  13.863   4.970   5.368
 3426POPC   PO445432  14.541   4.857   5.388
 3426POPC   GL145433  14.271   4.951   5.764
 3426POPC   GL245434  14.302   5.239   5.946
 3426POPC   C1A45435  14.305   4.828   6.236
 3426POPC   D2A45436  14.243   4.994   6.678
 3426POPC   C3A45437  14.311   4.752   7.078
 3426POPC   C4A45438  14.247   4.938   7.497
 3426POPC   C1B45439  14.434   5.428   6.310
 3426POPC   C2B45440  14.558   5.415   6.712
 3426POPC   C3B45441  14.473   5.226   7.082
 3426POPC   C4B45442  14.547   5.357   7.511
 3427POPC   NC345443  19.934  39.706   5.750
 3427POPC   PO445444  20.149  39.145   5.444
 3427POPC   GL145445  19.962  39.141   5.848
 3427POPC   GL245446  19.723  38.851   5.868
 3427POPC   C1A45447  19.767  39.280   6.244
 3427POPC   D2A45448  19.880  39.194   6.664
 3427POPC   C3A45449  19.640  39.315   7.029
 3427POPC   C4A45450  20.020  39.430   7.261
 3427POPC   C1B45451  19.692  38.758   6.340
 3427POPC   C2B45452  19.686  38.745   6.803
 3427POPC   C3B45453  19.976  38.919   7.122
 3427POPC   C4B45454  20.201  38.964   7.527
 3428POPC   NC345455  10.051   4.852   5.551
 3428POPC   PO445456   9.830   5.336   5.184
 3428POPC   GL145457   9.671   5.138   5.658
 3428POPC   GL245458   9.974   5.293   5.813
 3428POPC   C1A45459   9.639   5.101   6.191
 3428POPC   D2A45460   9.608   5.352   6.636
 3428POPC   C3A45461   9.429   5.105   7.013
 3428POPC   C4A45462   9.605   4.936   7.395
 3428POPC   C1B45463  10.147   5.087   6.190
 3428POPC   C2B45464   9.989   5.030   6.622
 3428POPC   C3B45465   9.934   5.160   7.064
 3428POPC   C4B45466  10.067   5.176   7.497
 3429POPC   NC345467  42.481  41.049   5.559
 3429POPC   PO445468  42.421  41.722   5.435
 3429POPC   GL145469  42.212  41.582   5.812
 3429POPC   GL245470  42.056  41.904   5.786
 3429POPC   C1A45471  42.108  41.461   6.263
 3429POPC   D2A45472  41.959  41.209   6.622
 3429POPC   C3A45473  42.254  41.258   6.995
 3429POPC   C4A45474  42.411  41.543   7.343
 3429POPC   C1B45475  42.145  41.969   6.189
 3429POPC   C2B45476  42.389  41.886   6.546
 3429POPC   C3B45477  42.353  41.901   6.982
 3429POPC   C4B45478  42.062  41.965   7.305
 3430POPC   NC345479  24.287  15.942   5.289
 3430POPC   PO445480  24.784  15.559   5.376
 3430POPC   GL145481  24.509  15.801   5.747
 3430POPC   GL245482  24.431  16.169   5.717
 3430POPC   C1A45483  24.531  15.874   6.238
 3430POPC   D2A45484  24.584  15.689   6.669
 3430POPC   C3A45485  24.578  15.822   7.109
 3430POPC   C4A45486  24.823  16.162   7.320
 3430POPC   C1B45487  24.372  16.358   6.110
 3430POPC   C2B45488  24.352  16.520   6.527
 3430POPC   C3B45489  24.453  16.298   6.925
 3430POPC   C4B45490  24.296  16.175   7.352
 3431POPC   NC345491  35.647  24.295   5.569
 3431POPC   PO445492  35.199  24.879   5.533
 3431POPC   GL145493  35.301  24.706   5.902
 3431POPC   GL245494  35.620  24.817   5.900
 3431POPC   C1A45495  35.196  24.672   6.348
 3431POPC   D2A45496  35.025  24.341   6.586
 3431POPC   C3A45497  35.121  24.368   7.009
 3431POPC   C4A45498  35.438  24.325   7.293
 3431POPC   C1B45499  35.706  24.643   6.299
 3431POPC   C2B45500  35.539  24.546   6.724
 3431POPC   C3B45501  35.622  24.773   7.102
 3431POPC   C4B45502  35.890  24.550   7.381
 3432POPC   NC345503  41.716  21.775   5.454
 3432POPC   PO445504  41.354  21.320   5.139
 3432POPC   GL145505  41.341  21.287   5.656
 3432POPC   GL245506  41.237  21.601   5.823
 3432POPC   C1A45507  41.575  21.326   6.104
 3432POPC   D2A45508  41.784  21.675   6.370
 3432POPC   C3A45509  41.818  21.671   6.844
 3432POPC   C4A45510  41.654  21.493   7.238
 3432POPC   C1B45511  41.089  21.489   6.256
 3432POPC   C2B45512  41.183  21.667   6.673
 3432POPC   C3B45513  41.135  21.554   7.098
 3432POPC   C4B45514  41.269  21.151   7.231
 3433POPC   NC345515  28.002  12.344   5.218
 3433POPC   PO445516  27.403  12.098   5.202
 3433POPC   GL145517  27.673  11.941   5.606
 3433POPC   GL245518  27.386  11.774   5.810
 3433POPC   C1A45519  27.805  11.972   6.086
 3433POPC   D2A45520  27.645  12.207   6.491
 3433POPC   C3A45521  27.829  12.206   6.918
 3433POPC   C4A45522  27.871  12.122   7.375
 3433POPC   C1B45523  27.272  11.955   6.199
 3433POPC   C2B45524  27.118  12.266   6.480
 3433POPC   C3B45525  27.272  12.356   6.887
 3433POPC   C4B45526  27.395  12.120   7.196
 3434POPC   NC345527  41.245  16.604   5.558
 3434POPC   PO445528  41.965  16.427   5.484
 3434POPC   GL145529  41.832  16.533   5.916
 3434POPC   GL245530  41.606  16.764   5.889
 3434POPC   C1A45531  41.776  16.644   6.354
 3434POPC   D2A45532  41.735  16.825   6.751
 3434POPC   C3A45533  41.636  16.597   7.107
 3434POPC   C4A45534  41.932  16.786   7.405
 3434POPC   C1B45535  41.569  17.096   6.194
 3434POPC   C2B45536  41.347  17.096   6.571
 3434POPC   C3B45537  41.273  16.946   6.986
 3434POPC   C4B45538  41.088  17.148   7.342
 3435POPC   NC345539  40.921  30.514   5.501
 3435POPC   PO445540  40.617  31.117   5.412
 3435POPC   GL145541  40.672  30.906   5.810
 3435POPC   GL245542  40.516  30.574   5.853
 3435POPC   C1A45543  40.815  31.015   6.236
 3435POPC   D2A45544  41.010  30.735   6.567
 3435POPC   C3A45545  40.884  30.732   7.019
 3435POPC   C4A45546  40.751  31.053   7.306
 3435POPC   C1B45547  40.606  30.504   6.303
 3435POPC   C2B45548  40.559  30.396   6.730
 3435POPC   C3B45549  40.564  30.305   7.160
 3435POPC   C4B45550  40.573  30.576   7.510
 3436POPC   NC345551   2.504  17.299   5.360
 3436POPC   PO445552   3.116  17.290   5.503
 3436POPC   GL145553   2.774  17.308   5.813
 3436POPC   GL245554   2.670  17.669   5.742
 3436POPC   C1A45555   2.465  17.370   6.183
 3436POPC   D2A45556   2.278  17.390   6.632
 3436POPC   C3A45557   2.490  17.551   7.019
 3436POPC   C4A45558   2.819  17.386   7.320
 3436POPC   C1B45559   2.887  17.668   6.153
 3436POPC   C2B45560   2.713  17.666   6.561
 3436POPC   C3B45561   2.982  17.639   6.913
 3436POPC   C4B45562   3.289  17.655   7.249
 3437POPC   NC345563   7.169  26.257   5.500
 3437POPC   PO445564   7.588  25.800   5.298
 3437POPC   GL145565   7.489  25.718   5.737
 3437POPC   GL245566   7.503  26.062   5.830
 3437POPC   C1A45567   7.231  25.767   6.142
 3437POPC   D2A45568   7.220  26.065   6.493
 3437POPC   C3A45569   7.195  25.900   6.889
 3437POPC   C4A45570   7.336  25.908   7.287
 3437POPC   C1B45571   7.661  26.118   6.241
 3437POPC   C2B45572   7.736  25.952   6.651
 3437POPC   C3B45573   7.736  26.108   7.051
 3437POPC   C4B45574   7.732  26.522   7.202
 3438POPC   NC345575  35.341   7.000   5.508
 3438POPC   PO445576  35.776   6.537   5.531
 3438POPC   GL145577  35.648   6.756   5.871
 3438POPC   GL245578  35.280   6.655   5.864
 3438POPC   C1A45579  35.539   6.725   6.287
 3438POPC   D2A45580  35.425   6.552   6.616
 3438POPC   C3A45581  35.588   6.712   6.987
 3438POPC   C4A45582  35.758   6.538   7.324
 3438POPC   C1B45583  35.008   6.769   6.195
 3438POPC   C2B45584  34.905   6.641   6.579
 3438POPC   C3B45585  35.065   6.693   6.932
 3438POPC   C4B45586  35.176   6.718   7.314
 3439POPC   NC345587  42.169  12.663   5.489
 3439POPC   PO445588  42.328  12.096   5.221
 3439POPC   GL145589  42.019  12.001   5.591
 3439POPC   GL245590  42.065  12.297   5.828
 3439POPC   C1A45591  42.054  11.836   6.057
 3439POPC   D2A45592  42.360  11.991   6.381
 3439POPC   C3A45593  42.289  11.993   6.831
 3439POPC   C4A45594  42.125  12.085   7.239
 3439POPC   C1B45595  42.064  12.577   6.217
 3439POPC   C2B45596  41.890  12.687   6.641
 3439POPC   C3B45597  42.067  12.608   7.061
 3439POPC   C4B45598  42.176  12.626   7.496
 3440POPC   NC345599  26.057   8.431   5.634
 3440POPC   PO445600  25.987   9.074   5.372
 3440POPC   GL145601  26.092   8.997   5.827
 3440POPC   GL245602  26.335   8.766   5.862
 3440POPC   C1A45603  26.086   8.848   6.308
 3440POPC   D2A45604  25.850   8.823   6.716
 3440POPC   C3A45605  25.942   9.180   6.954
 3440POPC   C4A45606  26.152   9.160   7.299
 3440POPC   C1B45607  26.455   8.502   6.229
 3440POPC   C2B45608  26.557   8.679   6.628
 3440POPC   C3B45609  26.307   8.756   6.997
 3440POPC   C4B45610  26.333   8.713   7.451
 3441POPC   NC345611  39.669  11.197   5.389
 3441POPC   PO445612  40.169  11.687   5.443
 3441POPC   GL145613  39.986  11.546   5.832
 3441POPC   GL245614  39.919  11.205   5.851
 3441POPC   C1A45615  39.853  11.544   6.282
 3441POPC   D2A45616  40.046  11.539   6.672
 3441POPC   C3A45617  39.767  11.572   7.004
 3441POPC   C4A45618  39.980  11.459   7.359
 3441POPC   C1B45619  40.268  11.221   6.162
 3441POPC   C2B45620  40.191  11.066   6.575
 3441POPC   C3B45621  40.047  11.111   7.003
 3441POPC   C4B45622  40.286  11.027   7.380
 3442POPC   NC345623  42.269  42.143   5.368
 3442POPC   PO445624  42.477  42.779   5.364
 3442POPC   GL145625  42.429  42.542   5.719
 3442POPC   GL245626  42.081  42.495   5.692
 3442POPC   C1A45627  42.484  42.358   6.137
 3442POPC   D2A45628  42.675  42.499   6.532
 3442POPC   C3A45629  42.411  42.407   6.886
 3442POPC   C4A45630  42.440  42.311   7.338
 3442POPC   C1B45631  41.969  42.459   6.138
 3442POPC   C2B45632  41.989  42.262   6.575
 3442POPC   C3B45633  41.909  42.336   7.007
 3442POPC   C4B45634  42.106  42.670   7.256
 3443POPC   NC345635  14.212  16.911   5.467
 3443POPC   PO445636  14.736  16.396   5.390
 3443POPC   GL145637  14.568  16.679   5.740
 3443POPC   GL245638  14.456  16.439   5.925
 3443POPC   C1A45639  14.620  16.918   6.136
 3443POPC   D2A45640  14.547  17.196   6.512
 3443POPC   C3A45641  14.632  17.001   6.925
 3443POPC   C4A45642  14.400  16.868   7.296
 3443POPC   C1B45643  14.371  16.382   6.320
 3443POPC   C2B45644  14.443  16.548   6.721
 3443POPC   C3B45645  14.258  16.443   7.094
 3443POPC   C4B45646  14.134  16.366   7.522
 3444POPC   NC345647  17.430  37.812   5.493
 3444POPC   PO445648  17.951  37.488   5.342
 3444POPC   GL145649  17.900  37.597   5.776
 3444POPC   GL245650  17.554  37.517   5.912
 3444POPC   C1A45651  17.920  37.798   6.160
 3444POPC   D2A45652  17.804  38.035   6.521
 3444POPC   C3A45653  17.674  37.702   6.822
 3444POPC   C4A45654  17.962  37.504   7.108
 3444POPC   C1B45655  17.401  37.850   6.215
 3444POPC   C2B45656  17.312  38.031   6.653
 3444POPC   C3B45657  17.299  37.980   7.073
 3444POPC   C4B45658  17.316  37.594   7.238
 3445POPC   NC345659   9.998   9.271   5.635
 3445POPC   PO445660   9.736   9.752   5.255
 3445POPC   GL145661   9.874   9.909   5.685
 3445POPC   GL245662  10.253   9.902   5.745
 3445POPC   C1A45663   9.655   9.941   6.129
 3445POPC   D2A45664   9.515   9.671   6.480
 3445POPC   C3A45665   9.797   9.517   6.801
 3445POPC   C4A45666   9.601   9.553   7.192
 3445POPC   C1B45667  10.155   9.854   6.188
 3445POPC   C2B45668  10.300  10.005   6.579
 3445POPC   C3B45669  10.068   9.946   6.931
 3445POPC   C4B45670  10.070   9.695   7.247
 3446POPC   NC345671  10.064  13.967   5.470
 3446POPC   PO445672  10.695  13.699   5.301
 3446POPC   GL145673  10.500  13.576   5.685
 3446POPC   GL245674  10.780  13.692   5.920
 3446POPC   C1A45675  10.550  13.275   6.061
 3446POPC   D2A45676  10.692  13.396   6.464
 3446POPC   C3A45677  10.428  13.252   6.810
 3446POPC   C4A45678  10.200  13.412   7.202
 3446POPC   C1B45679  10.326  13.731   6.122
 3446POPC   C2B45680  10.275  13.695   6.553
 3446POPC   C3B45681  10.603  13.726   6.852
 3446POPC   C4B45682  10.618  13.739   7.238
 3447POPC   NC345683  24.980  35.267   5.265
 3447POPC   PO445684  24.449  35.686   5.427
 3447POPC   GL145685  24.550  35.413   5.754
 3447POPC   GL245686  24.212  35.308   5.819
 3447POPC   C1A45687  24.787  35.445   6.157
 3447POPC   D2A45688  24.725  35.566   6.578
 3447POPC   C3A45689  24.691  35.624   7.017
 3447POPC   C4A45690  24.864  35.279   7.236
 3447POPC   C1B45691  24.393  35.101   6.188
 3447POPC   C2B45692  24.412  35.120   6.639
 3447POPC   C3B45693  24.373  35.197   7.074
 3447POPC   C4B45694  24.071  35.218   7.421
 3448POPC   NC345695  19.773  25.793   5.385
 3448POPC   PO445696  19.656  26.459   5.681
 3448POPC   GL145697  19.721  26.051   5.856
 3448POPC   GL245698  20.005  25.817   5.856
 3448POPC   C1A45699  19.824  26.107   6.293
 3448POPC   D2A45700  19.660  26.087   6.709
 3448POPC   C3A45701  19.926  26.251   7.043
 3448POPC   C4A45702  19.642  26.337   7.325
 3448POPC   C1B45703  19.916  25.608   6.235
 3448POPC   C2B45704  19.964  25.676   6.643
 3448POPC   C3B45705  19.910  25.758   7.042
 3448POPC   C4B45706  19.871  25.789   7.464
 3449POPC   NC345707   2.243  32.257   5.640
 3449POPC   PO445708   1.750  32.280   5.195
 3449POPC   GL145709   1.740  32.254   5.652
 3449POPC   GL245710   1.896  32.591   5.800
 3449POPC   C1A45711   1.714  32.146   6.109
 3449POPC   D2A45712   1.987  32.046   6.499
 3449POPC   C3A45713   1.899  32.169   6.961
 3449POPC   C4A45714   2.132  32.073   7.348
 3449POPC   C1B45715   1.947  32.588   6.227
 3449POPC   C2B45716   2.003  32.555   6.635
 3449POPC   C3B45717   2.208  32.599   7.006
 3449POPC   C4B45718   1.928  32.539   7.296
 3450POPC   NC345719   9.289  39.031   5.602
 3450POPC   PO445720   8.745  39.345   5.370
 3450POPC   GL145721   8.853  39.225   5.801
 3450POPC   GL245722   8.812  38.847   5.817
 3450POPC   C1A45723   9.148  39.411   6.136
 3450POPC   D2A45724   9.291  39.565   6.554
 3450POPC   C3A45725   9.141  39.384   6.967
 3450POPC   C4A45726   8.939  39.330   7.407
 3450POPC   C1B45727   9.043  38.904   6.216
 3450POPC   C2B45728   9.011  38.980   6.660
 3450POPC   C3B45729   8.971  38.898   7.119
 3450POPC   C4B45730   8.795  38.828   7.550
 3451POPC   NC345731  30.671  17.500   4.959
 3451POPC   PO445732  31.033  17.464   5.538
 3451POPC   GL145733  30.848  17.709   5.882
 3451POPC   GL245734  30.492  17.650   5.870
 3451POPC   C1A45735  31.032  17.885   6.276
 3451POPC   D2A45736  31.018  17.929   6.731
 3451POPC   C3A45737  30.895  17.599   6.971
 3451POPC   C4A45738  30.924  17.517   7.377
 3451POPC   C1B45739  30.573  17.651   6.324
 3451POPC   C2B45740  30.453  17.710   6.746
 3451POPC   C3B45741  30.431  17.625   7.200
 3451POPC   C4B45742  30.117  17.615   7.544
 3452POPC   NC345743   5.534  30.295   5.490
 3452POPC   PO445744   6.014  29.897   5.382
 3452POPC   GL145745   5.918  29.673   5.756
 3452POPC   GL245746   5.536  29.603   5.740
 3452POPC   C1A45747   6.054  29.823   6.175
 3452POPC   D2A45748   6.301  29.977   6.527
 3452POPC   C3A45749   6.249  29.783   6.942
 3452POPC   C4A45750   6.144  30.126   7.272
 3452POPC   C1B45751   5.534  29.915   6.082
 3452POPC   C2B45752   5.634  30.026   6.521
 3452POPC   C3B45753   5.775  29.958   6.947
 3452POPC   C4B45754   5.861  29.616   7.271
 3453POPC   NC345755   5.178   1.814   5.494
 3453POPC   PO445756   5.542   2.377   5.480
 3453POPC   GL145757   5.311   2.163   5.853
 3453POPC   GL245758   5.122   1.805   5.980
 3453POPC   C1A45759   5.433   2.059   6.246
 3453POPC   D2A45760   5.289   2.176   6.600
 3453POPC   C3A45761   5.298   1.946   6.928
 3453POPC   C4A45762   5.227   2.029   7.343
 3453POPC   C1B45763   4.889   2.124   6.200
 3453POPC   C2B45764   4.810   2.293   6.625
 3453POPC   C3B45765   4.797   2.047   7.013
 3453POPC   C4B45766   4.939   1.639   7.160
 3454POPC   NC345767  41.920   2.918   5.112
 3454POPC   PO445768  41.849   2.396   5.461
 3454POPC   GL145769  41.686   2.703   5.767
 3454POPC   GL245770  41.846   3.003   5.902
 3454POPC   C1A45771  41.731   2.675   6.258
 3454POPC   D2A45772  41.840   2.681   6.720
 3454POPC   C3A45773  41.484   2.723   7.040
 3454POPC   C4A45774  41.431   2.829   7.488
 3454POPC   C1B45775  42.012   3.124   6.335
 3454POPC   C2B45776  42.061   3.131   6.819
 3454POPC   C3B45777  41.915   2.919   7.202
 3454POPC   C4B45778  41.908   2.975   7.656
 3455POPC   NC345779   5.466  35.670   5.194
 3455POPC   PO445780   5.276  35.016   5.451
 3455POPC   GL145781   5.024  35.148   5.836
 3455POPC   GL245782   5.218  35.459   5.789
 3455POPC   C1A45783   4.785  35.287   6.253
 3455POPC   D2A45784   4.917  35.532   6.652
 3455POPC   C3A45785   4.950  35.309   7.069
 3455POPC   C4A45786   5.297  35.200   7.360
 3455POPC   C1B45787   5.275  35.418   6.215
 3455POPC   C2B45788   5.447  35.649   6.532
 3455POPC   C3B45789   5.390  35.512   6.916
 3455POPC   C4B45790   5.648  35.538   7.239
 3456POPC   NC345791   2.620  13.172   5.386
 3456POPC   PO445792   2.895  12.555   5.278
 3456POPC   GL145793   2.757  12.603   5.692
 3456POPC   GL245794   2.922  12.911   5.748
 3456POPC   C1A45795   2.737  12.477   6.137
 3456POPC   D2A45796   2.917  12.627   6.522
 3456POPC   C3A45797   2.721  12.550   6.922
 3456POPC   C4A45798   2.789  12.692   7.329
 3456POPC   C1B45799   2.983  13.083   6.178
 3456POPC   C2B45800   2.779  13.137   6.534
 3456POPC   C3B45801   2.818  13.043   6.920
 3456POPC   C4B45802   2.446  13.033   7.158
 3457POPC   NC345803  42.879   0.286   5.155
 3457POPC   PO445804  42.411   0.627   5.467
 3457POPC   GL145805  42.454   0.384   5.861
 3457POPC   GL245806  42.693   0.116   5.957
 3457POPC   C1A45807  42.257   0.314   6.243
 3457POPC   D2A45808  41.928   0.204   6.512
 3457POPC   C3A45809  42.159   0.214   6.871
 3457POPC   C4A45810  42.297   0.474   7.191
 3457POPC   C1B45811  42.782   0.424   6.259
 3457POPC   C2B45812  42.628   0.346   6.653
 3457POPC   C3B45813  42.656   0.136   7.027
 3457POPC   C4B45814  42.632   0.162   7.475
 3458POPC   NC345815  32.055  10.207   5.444
 3458POPC   PO445816  32.222  10.841   5.673
 3458POPC   GL145817  32.248  10.439   5.856
 3458POPC   GL245818  31.910  10.331   5.932
 3458POPC   C1A45819  32.346  10.409   6.263
 3458POPC   D2A45820  32.422  10.703   6.590
 3458POPC   C3A45821  32.373  10.525   6.995
 3458POPC   C4A45822  32.044  10.546   7.286
 3458POPC   C1B45823  31.932  10.686   6.258
 3458POPC   C2B45824  31.941  10.584   6.679
 3458POPC   C3B45825  32.029  10.911   6.934
 3458POPC   C4B45826  32.002  11.072   7.336
 3459POPC   NC345827  28.560  31.688   5.446
 3459POPC   PO445828  28.390  30.966   5.302
 3459POPC   GL145829  28.491  31.262   5.723
 3459POPC   GL245830  28.235  31.510   5.801
 3459POPC   C1A45831  28.596  31.541   6.148
 3459POPC   D2A45832  28.454  31.558   6.619
 3459POPC   C3A45833  28.632  31.421   7.062
 3459POPC   C4A45834  28.493  31.189   7.458
 3459POPC   C1B45835  28.081  31.609   6.218
 3459POPC   C2B45836  27.946  31.644   6.656
 3459POPC   C3B45837  28.174  31.641   7.066
 3459POPC   C4B45838  28.223  31.726   7.523
 3460POPC   NC345839  19.674  30.500   5.368
 3460POPC   PO445840  20.145  30.924   5.326
 3460POPC   GL145841  19.826  30.871   5.704
 3460POPC   GL245842  19.867  30.540   5.843
 3460POPC   C1A45843  19.583  30.854   6.116
 3460POPC   D2A45844  19.540  30.640   6.534
 3460POPC   C3A45845  19.458  30.847   6.935
 3460POPC   C4A45846  19.617  30.694   7.338
 3460POPC   C1B45847  20.083  30.775   6.175
 3460POPC   C2B45848  19.930  30.945   6.571
 3460POPC   C3B45849  19.972  30.803   6.989
 3460POPC   C4B45850  20.101  30.890   7.443
 3461POPC   NC345851  12.396  11.298   5.404
 3461POPC   PO445852  11.783  11.491   5.535
 3461POPC   GL145853  12.115  11.447   5.805
 3461POPC   GL245854  12.112  11.078   5.758
 3461POPC   C1A45855  12.197  11.505   6.227
 3461POPC   D2A45856  11.968  11.394   6.577
 3461POPC   C3A45857  12.057  11.575   6.955
 3461POPC   C4A45858  11.956  11.690   7.350
 3461POPC   C1B45859  12.053  11.008   6.177
 3461POPC   C2B45860  12.286  10.968   6.533
 3461POPC   C3B45861  12.182  11.073   6.927
 3461POPC   C4B45862  12.215  11.232   7.303
 3462POPC   NC345863  36.450  20.839   5.479
 3462POPC   PO445864  35.917  20.530   5.214
 3462POPC   GL145865  36.101  20.499   5.664
 3462POPC   GL245866  36.438  20.440   5.817
 3462POPC   C1A45867  36.149  20.785   6.046
 3462POPC   D2A45868  35.999  20.800   6.473
 3462POPC   C3A45869  36.195  20.790   6.874
 3462POPC   C4A45870  35.956  20.743   7.267
 3462POPC   C1B45871  36.235  20.336   6.249
 3462POPC   C2B45872  35.961  20.140   6.559
 3462POPC   C3B45873  35.970  20.293   6.982
 3462POPC   C4B45874  36.337  20.403   7.222
 3463POPC   NC345875  15.954  27.524   5.506
 3463POPC   PO445876  16.114  26.820   5.379
 3463POPC   GL145877  16.117  27.007   5.822
 3463POPC   GL245878  15.839  27.256   5.929
 3463POPC   C1A45879  16.230  26.772   6.229
 3463POPC   D2A45880  16.101  26.484   6.591
 3463POPC   C3A45881  16.196  26.701   6.976
 3463POPC   C4A45882  16.374  26.899   7.314
 3463POPC   C1B45883  15.778  26.996   6.319
 3463POPC   C2B45884  15.770  26.991   6.786
 3463POPC   C3B45885  15.923  27.077   7.196
 3463POPC   C4B45886  15.918  27.173   7.646
 3464POPC   NC345887  27.063   1.885   5.252
 3464POPC   PO445888  26.477   2.268   5.291
 3464POPC   GL145889  26.731   2.161   5.701
 3464POPC   GL245890  26.549   1.995   5.989
 3464POPC   C1A45891  26.925   2.288   6.132
 3464POPC   D2A45892  26.784   2.285   6.528
 3464POPC   C3A45893  27.080   2.464   6.782
 3464POPC   C4A45894  27.203   2.287   7.194
 3464POPC   C1B45895  26.952   1.785   6.210
 3464POPC   C2B45896  27.138   1.719   6.618
 3464POPC   C3B45897  26.951   1.975   6.908
 3464POPC   C4B45898  26.691   1.918   7.275
 3465POPC   NC345899  34.700  36.017   5.426
 3465POPC   PO445900  34.213  36.415   5.522
 3465POPC   GL145901  34.469  36.228   5.844
 3465POPC   GL245902  34.745  36.443   5.871
 3465POPC   C1A45903  34.510  36.042   6.260
 3465POPC   D2A45904  34.414  36.169   6.681
 3465POPC   C3A45905  34.362  35.922   7.058
 3465POPC   C4A45906  34.328  36.157   7.448
 3465POPC   C1B45907  34.927  36.344   6.256
 3465POPC   C2B45908  34.929  36.232   6.667
 3465POPC   C3B45909  35.079  36.343   7.030
 3465POPC   C4B45910  34.856  36.035   7.238
 3466POPC   NC345911  42.220  43.510   5.529
 3466POPC   PO445912  42.424  44.040   5.173
 3466POPC   GL145913  42.432  43.987   5.645
 3466POPC   GL245914  42.672  44.120   5.866
 3466POPC   C1A45915  42.227  43.991   6.090
 3466POPC   D2A45916  42.084  44.209   6.490
 3466POPC   C3A45917  41.985  43.940   6.857
 3466POPC   C4A45918  42.167  43.925   7.263
 3466POPC   C1B45919  42.708  43.824   6.237
 3466POPC   C2B45920  42.757  43.715   6.677
 3466POPC   C3B45921  42.651  43.817   7.102
 3466POPC   C4B45922  42.581  43.571   7.461
 3467POPC   NC345923  20.818  22.229   5.442
 3467POPC   PO445924  20.696  22.937   5.378
 3467POPC   GL145925  20.725  23.166   5.733
 3467POPC   GL245926  20.396  23.325   5.679
 3467POPC   C1A45927  20.680  23.039   6.188
 3467POPC   D2A45928  20.496  22.942   6.621
 3467POPC   C3A45929  20.628  22.647   6.954
 3467POPC   C4A45930  20.970  22.584   7.228
 3467POPC   C1B45931  20.227  23.267   6.121
 3467POPC   C2B45932  20.124  23.281   6.573
 3467POPC   C3B45933  20.219  23.182   7.017
 3467POPC   C4B45934  20.585  23.044   7.256
 3468POPC   NC345935   4.494  27.388   5.408
 3468POPC   PO445936   4.051  27.784   5.236
 3468POPC   GL145937   4.172  27.606   5.719
 3468POPC   GL245938   4.076  27.263   5.812
 3468POPC   C1A45939   4.252  27.688   6.166
 3468POPC   D2A45940   4.519  27.506   6.482
 3468POPC   C3A45941   4.529  27.621   6.910
 3468POPC   C4A45942   4.242  27.885   7.052
 3468POPC   C1B45943   4.206  27.165   6.234
 3468POPC   C2B45944   4.346  27.073   6.688
 3468POPC   C3B45945   4.270  27.218   7.122
 3468POPC   C4B45946   4.654  27.338   7.329
 3469POPC   NC345947  42.121  31.069   5.351
 3469POPC   PO445948  42.093  30.430   5.421
 3469POPC   GL145949  42.392  30.591   5.775
 3469POPC   GL245950  42.677  30.357   5.818
 3469POPC   C1A45951  42.329  30.795   6.208
 3469POPC   D2A45952  41.994  30.882   6.542
 3469POPC   C3A45953  42.036  30.600   6.899
 3469POPC   C4A45954  42.370  30.685   7.190
 3469POPC   C1B45955  42.758  30.509   6.237
 3469POPC   C2B45956  42.575  30.564   6.675
 3469POPC   C3B45957  42.790  30.442   7.070
 3469POPC   C4B45958  42.712  30.454   7.541
 3470POPC   NC345959   8.306  39.160   5.377
 3470POPC   PO445960   7.687  39.292   5.436
 3470POPC   GL145961   7.906  39.059   5.780
 3470POPC   GL245962   8.272  38.955   5.839
 3470POPC   C1A45963   7.876  38.901   6.192
 3470POPC   D2A45964   7.726  39.125   6.572
 3470POPC   C3A45965   8.084  39.185   6.865
 3470POPC   C4A45966   8.198  39.495   7.211
 3470POPC   C1B45967   8.398  38.786   6.247
 3470POPC   C2B45968   8.502  38.875   6.714
 3470POPC   C3B45969   8.549  39.152   7.085
 3470POPC   C4B45970   8.350  39.082   7.492
 3471POPC   NC345971  43.513  13.716   5.350
 3471POPC   PO445972  44.199  13.652   5.304
 3471POPC   GL145973  43.927  13.662   5.661
 3471POPC   GL245974  43.731  13.341   5.634
 3471POPC   C1A45975  43.985  13.637   6.100
 3471POPC   D2A45976  43.966  13.878   6.469
 3471POPC   C3A45977  44.054  13.654   6.868
 3471POPC   C4A45978  44.221  13.580   7.295
 3471POPC   C1B45979  43.626  13.279   6.073
 3471POPC   C2B45980  43.726  13.407   6.512
 3471POPC   C3B45981  43.657  13.262   6.929
 3471POPC   C4B45982  43.295  13.164   7.175
 3472POPC   NC345983   2.253  25.178   5.634
 3472POPC   PO445984   1.841  25.445   5.186
 3472POPC   GL145985   1.715  25.481   5.626
 3472POPC   GL245986   1.751  25.133   5.778
 3472POPC   C1A45987   1.777  25.545   6.078
 3472POPC   D2A45988   2.064  25.348   6.380
 3472POPC   C3A45989   2.193  25.532   6.772
 3472POPC   C4A45990   2.014  25.356   7.158
 3472POPC   C1B45991   1.969  24.883   6.143
 3472POPC   C2B45992   2.343  24.926   6.466
 3472POPC   C3B45993   2.293  24.984   6.908
 3472POPC   C4B45994   2.348  24.764   7.316
 3473POPC   NC345995  12.763  30.231   5.421
 3473POPC   PO445996  13.110  30.850   5.407
 3473POPC   GL145997  12.986  30.946   5.809
 3473POPC   GL245998  12.741  30.674   5.796
 3473POPC   C1A45999  13.003  30.836   6.243
 3473POPC   D2A46000  12.975  30.786   6.643
 3473POPC   C3A46001  13.087  30.462   6.867
 3473POPC   C4A46002  13.298  30.465   7.275
 3473POPC   C1B46003  12.786  30.405   6.128
 3473POPC   C2B46004  12.610  30.444   6.535
 3473POPC   C3B46005  12.589  30.648   6.942
 3473POPC   C4B46006  12.502  30.404   7.298
 3474POPC   NC346007  44.107  22.055   5.315
 3474POPC   PO446008  43.552  22.538   5.376
 3474POPC   GL146009  43.626  22.341   5.760
 3474POPC   GL246010  43.686  22.003   5.735
 3474POPC   C1A46011  43.855  22.326   6.164
 3474POPC   D2A46012  44.024  22.138   6.550
 3474POPC   C3A46013  43.828  22.325   6.919
 3474POPC   C4A46014  43.659  22.240   7.310
 3474POPC   C1B46015  43.770  21.812   6.162
 3474POPC   C2B46016  43.649  21.758   6.613
 3474POPC   C3B46017  43.732  21.790   7.077
 3474POPC   C4B46018  43.489  21.801   7.475
 3475POPC   NC346019  41.083  27.045   5.634
 3475POPC   PO446020  40.705  26.666   5.178
 3475POPC   GL146021  40.676  26.665   5.697
 3475POPC   GL246022  40.489  26.927   5.882
 3475POPC   C1A46023  40.658  26.579   6.211
 3475POPC   D2A46024  40.912  26.611   6.659
 3475POPC   C3A46025  40.763  26.538   7.120
 3475POPC   C4A46026  40.318  26.475   7.219
 3475POPC   C1B46027  40.535  27.175   6.257
 3475POPC   C2B46028  40.300  27.152   6.665
 3475POPC   C3B46029  40.461  26.960   7.057
 3475POPC   C4B46030  40.890  27.027   7.223
 3476POPC   NC346031   5.756   0.273   5.401
 3476POPC   PO446032   5.384   0.823   5.447
 3476POPC   GL146033   5.622   0.609   5.812
 3476POPC   GL246034   5.840   0.329   5.896
 3476POPC   C1A46035   5.912   0.746   6.188
 3476POPC   D2A46036   5.997   0.760   6.658
 3476POPC   C3A46037   5.774   0.497   6.977
 3476POPC   C4A46038   5.839   0.443   7.432
 3476POPC   C1B46039   6.134   0.279   6.248
 3476POPC   C2B46040   6.155   0.261   6.696
 3476POPC   C3B46041   6.014   0.035   7.088
 3476POPC   C4B46042   6.222  44.893   7.471
 3477POPC   NC346043  19.232  28.411   5.365
 3477POPC   PO446044  18.613  28.217   5.426
 3477POPC   GL146045  18.854  28.218   5.774
 3477POPC   GL246046  18.970  28.558   5.785
 3477POPC   C1A46047  18.947  28.283   6.219
 3477POPC   D2A46048  19.205  28.425   6.586
 3477POPC   C3A46049  19.069  28.286   7.001
 3477POPC   C4A46050  18.745  28.511   7.179
 3477POPC   C1B46051  19.267  28.705   6.128
 3477POPC   C2B46052  19.321  28.941   6.520
 3477POPC   C3B46053  19.151  28.817   6.932
 3477POPC   C4B46054  19.215  28.671   7.343
 3478POPC   NC346055  22.691   7.024   5.533
 3478POPC   PO446056  23.115   6.541   5.422
 3478POPC   GL146057  23.116   6.666   5.839
 3478POPC   GL246058  23.050   6.317   5.928
 3478POPC   C1A46059  23.119   6.666   6.308
 3478POPC   D2A46060  22.919   6.828   6.682
 3478POPC   C3A46061  22.917   6.623   7.077
 3478POPC   C4A46062  23.106   6.717   7.490
 3478POPC   C1B46063  22.718   6.357   6.252
 3478POPC   C2B46064  22.666   6.312   6.708
 3478POPC   C3B46065  22.547   6.280   7.138
 3478POPC   C4B46066  22.542   6.592   7.475
 3479POPC   NC346067  39.283  38.332   5.407
 3479POPC   PO446068  39.321  38.940   5.631
 3479POPC   GL146069  39.444  38.560   5.870
 3479POPC   GL246070  39.247  38.253   5.906
 3479POPC   C1A46071  39.435  38.453   6.329
 3479POPC   D2A46072  39.291  38.593   6.726
 3479POPC   C3A46073  39.487  38.335   6.976
 3479POPC   C4A46074  39.563  38.412   7.348
 3479POPC   C1B46075  38.963  38.508   6.133
 3479POPC   C2B46076  38.708  38.420   6.474
 3479POPC   C3B46077  38.764  38.225   6.867
 3479POPC   C4B46078  39.022  38.421   7.175
 3480POPC   NC346079  24.579   1.582   5.403
 3480POPC   PO446080  24.211   0.953   5.343
 3480POPC   GL146081  24.212   1.299   5.670
 3480POPC   GL246082  24.557   1.283   5.810
 3480POPC   C1A46083  24.154   1.455   6.094
 3480POPC   D2A46084  24.054   1.301   6.516
 3480POPC   C3A46085  24.358   1.189   6.833
 3480POPC   C4A46086  24.412   1.392   7.228
 3480POPC   C1B46087  24.839   1.158   6.140
 3480POPC   C2B46088  24.828   1.308   6.547
 3480POPC   C3B46089  24.851   1.403   6.953
 3480POPC   C4B46090  24.844   1.081   7.235
 3481POPC   NC346091  24.745  41.792   5.492
 3481POPC   PO446092  25.043  41.146   5.434
 3481POPC   GL146093  24.898  41.399   5.832
 3481POPC   GL246094  24.521  41.439   5.873
 3481POPC   C1A46095  24.798  41.752   6.133
 3481POPC   D2A46096  24.457  41.817   6.428
 3481POPC   C3A46097  24.494  41.590   6.814
 3481POPC   C4A46098  24.565  41.562   7.246
 3481POPC   C1B46099  24.524  41.305   6.358
 3481POPC   C2B46100  24.252  41.134   6.732
 3481POPC   C3B46101  24.028  41.226   7.147
 3481POPC   C4B46102  24.273  41.313   7.580
 3482POPC   NC346103  19.758  38.014   5.404
 3482POPC   PO446104  19.645  37.319   5.494
 3482POPC   GL146105  19.645  37.641   5.855
 3482POPC   GL246106  19.920  37.886   5.875
 3482POPC   C1A46107  19.609  37.600   6.327
 3482POPC   D2A46108  19.345  37.565   6.705
 3482POPC   C3A46109  19.542  37.473   7.069
 3482POPC   C4A46110  19.772  37.671   7.342
 3482POPC   C1B46111  20.033  37.878   6.314
 3482POPC   C2B46112  19.913  37.727   6.729
 3482POPC   C3B46113  20.125  37.903   7.081
 3482POPC   C4B46114  20.156  37.975   7.533
 3483POPC   NC346115  36.041   9.464   5.495
 3483POPC   PO446116  35.979   8.830   5.201
 3483POPC   GL146117  35.898   8.780   5.723
 3483POPC   GL246118  35.864   9.122   5.862
 3483POPC   C1A46119  36.158   8.763   6.167
 3483POPC   D2A46120  36.422   9.065   6.471
 3483POPC   C3A46121  36.491   8.929   6.931
 3483POPC   C4A46122  36.332   8.884   7.371
 3483POPC   C1B46123  35.901   9.159   6.319
 3483POPC   C2B46124  35.989   8.884   6.672
 3483POPC   C3B46125  36.007   9.098   7.034
 3483POPC   C4B46126  35.732   9.360   7.254
 3484POPC   NC346127  24.302  32.764   5.209
 3484POPC   PO446128  24.735  33.293   5.342
 3484POPC   GL146129  24.554  32.967   5.655
 3484POPC   GL246130  24.829  32.894   5.894
 3484POPC   C1A46131  24.392  33.000   6.115
 3484POPC   D2A46132  24.593  33.028   6.551
 3484POPC   C3A46133  24.348  32.866   6.905
 3484POPC   C4A46134  24.126  33.132   7.193
 3484POPC   C1B46135  24.722  32.609   6.230
 3484POPC   C2B46136  24.561  32.473   6.632
 3484POPC   C3B46137  24.773  32.575   6.996
 3484POPC   C4B46138  24.665  32.852   7.320
 3485POPC   NC346139  10.179  43.187   5.535
 3485POPC   PO446140   9.656  42.856   5.290
 3485POPC   GL146141   9.712  43.058   5.719
 3485POPC   GL246142   9.682  43.437   5.825
 3485POPC   C1A46143   9.686  43.067   6.184
 3485POPC   D2A46144   9.921  43.101   6.560
 3485POPC   C3A46145   9.784  43.006   6.982
 3485POPC   C4A46146   9.729  43.118   7.419
 3485POPC   C1B46147   9.983  43.495   6.198
 3485POPC   C2B46148  10.106  43.565   6.649
 3485POPC   C3B46149  10.051  43.506   7.109
 3485POPC   C4B46150  10.061  43.489   7.549
 3486POPC   NC346151  26.253  41.053   5.589
 3486POPC   PO446152  25.864  40.575   5.399
 3486POPC   GL146153  25.898  40.680   5.840
 3486POPC   GL246154  25.962  41.021   6.020
 3486POPC   C1A46155  26.137  40.585   6.227
 3486POPC   D2A46156  25.924  40.639   6.602
 3486POPC   C3A46157  26.133  40.510   6.980
 3486POPC   C4A46158  25.814  40.409   7.245
 3486POPC   C1B46159  26.365  41.039   6.272
 3486POPC   C2B46160  26.355  40.894   6.691
 3486POPC   C3B46161  26.231  41.033   7.091
 3486POPC   C4B46162  26.477  41.303   7.334
 3487POPC   NC346163  29.069  39.793   5.421
 3487POPC   PO446164  28.927  40.465   5.426
 3487POPC   GL146165  28.952  40.148   5.770
 3487POPC   GL246166  28.814  39.783   5.868
 3487POPC   C1A46167  29.227  40.053   6.116
 3487POPC   D2A46168  29.331  39.855   6.502
 3487POPC   C3A46169  29.309  40.149   6.795
 3487POPC   C4A46170  29.091  40.191   7.152
 3487POPC   C1B46171  28.812  39.824   6.320
 3487POPC   C2B46172  28.823  39.940   6.761
 3487POPC   C3B46173  28.722  39.839   7.189
 3487POPC   C4B46174  28.571  39.691   7.612
 3488POPC   NC346175  34.702   7.273   5.503
 3488POPC   PO446176  34.613   7.826   5.381
 3488POPC   GL146177  34.488   7.629   5.786
 3488POPC   GL246178  34.838   7.658   5.880
 3488POPC   C1A46179  34.411   7.745   6.219
 3488POPC   D2A46180  34.559   7.710   6.642
 3488POPC   C3A46181  34.289   7.546   6.969
 3488POPC   C4A46182  34.351   7.561   7.418
 3488POPC   C1B46183  34.924   7.496   6.311
 3488POPC   C2B46184  35.044   7.500   6.761
 3488POPC   C3B46185  34.962   7.497   7.218
 3488POPC   C4B46186  34.750   7.246   7.535
 3489POPC   NC346187  30.203  28.731   5.118
 3489POPC   PO446188  29.809  29.243   5.411
 3489POPC   GL146189  29.938  29.094   5.797
 3489POPC   GL246190  29.864  28.734   5.725
 3489POPC   C1A46191  29.983  29.260   6.216
 3489POPC   D2A46192  30.184  29.261   6.598
 3489POPC   C3A46193  29.966  29.314   6.944
 3489POPC   C4A46194  29.970  29.365   7.366
 3489POPC   C1B46195  30.048  28.746   6.145
 3489POPC   C2B46196  29.905  28.855   6.523
 3489POPC   C3B46197  30.089  28.828   6.891
 3489POPC   C4B46198  29.866  28.874   7.225
 3490POPC   NC346199  15.785  40.148   5.346
 3490POPC   PO446200  16.342  40.245   5.075
 3490POPC   GL146201  16.253  40.073   5.579
 3490POPC   GL246202  16.008  40.177   5.842
 3490POPC   C1A46203  16.228  39.778   5.994
 3490POPC   D2A46204  16.002  39.950   6.370
 3490POPC   C3A46205  15.819  39.828   6.773
 3490POPC   C4A46206  15.856  39.749   7.204
 3490POPC   C1B46207  15.667  40.244   6.122
 3490POPC   C2B46208  15.705  40.309   6.584
 3490POPC   C3B46209  15.665  40.290   7.017
 3490POPC   C4B46210  15.353  40.377   7.267
 3491POPC   NC346211  13.429  13.520   5.478
 3491POPC   PO446212  13.925  13.913   5.174
 3491POPC   GL146213  13.883  13.704   5.624
 3491POPC   GL246214  13.830  13.964   5.860
 3491POPC   C1A46215  13.936  13.537   6.109
 3491POPC   D2A46216  13.740  13.520   6.554
 3491POPC   C3A46217  13.923  13.547   6.975
 3491POPC   C4A46218  13.702  13.494   7.339
 3491POPC   C1B46219  13.513  13.807   6.198
 3491POPC   C2B46220  13.393  13.896   6.626
 3491POPC   C3B46221  13.524  13.902   7.038
 3491POPC   C4B46222  13.317  13.867   7.426
 3492POPC   NC346223   1.299  37.343   5.124
 3492POPC   PO446224   1.036  36.867   5.502
 3492POPC   GL146225   1.381  36.809   5.767
 3492POPC   GL246226   1.417  36.454   5.776
 3492POPC   C1A46227   1.336  37.035   6.155
 3492POPC   D2A46228   1.110  37.028   6.517
 3492POPC   C3A46229   1.173  37.267   6.860
 3492POPC   C4A46230   1.231  37.061   7.225
 3492POPC   C1B46231   1.136  36.556   6.158
 3492POPC   C2B46232   0.971  36.535   6.603
 3492POPC   C3B46233   1.182  36.464   7.001
 3492POPC   C4B46234   1.549  36.628   7.214
 3493POPC   NC346235   9.604  23.050   5.379
 3493POPC   PO446236   9.635  22.441   5.293
 3493POPC   GL146237   9.598  22.657   5.724
 3493POPC   GL246238   9.904  22.904   5.805
 3493POPC   C1A46239   9.459  22.907   6.123
 3493POPC   D2A46240   9.614  23.004   6.559
 3493POPC   C3A46241   9.384  23.223   6.922
 3493POPC   C4A46242   9.411  23.102   7.368
 3493POPC   C1B46243   9.930  22.639   6.189
 3493POPC   C2B46244  10.009  22.681   6.648
 3493POPC   C3B46245   9.846  22.894   7.018
 3493POPC   C4B46246   9.797  22.571   7.294
 3494POPC   NC346247  14.774  33.695   5.465
 3494POPC   PO446248  14.139  33.500   5.444
 3494POPC   GL146249  14.350  33.716   5.787
 3494POPC   GL246250  14.307  34.057   5.775
 3494POPC   C1A46251  14.426  33.584   6.226
 3494POPC   D2A46252  14.428  33.794   6.643
 3494POPC   C3A46253  14.487  33.555   7.035
 3494POPC   C4A46254  14.392  33.588   7.453
 3494POPC   C1B46255  14.518  34.084   6.190
 3494POPC   C2B46256  14.710  34.217   6.596
 3494POPC   C3B46257  14.677  34.057   7.036
 3494POPC   C4B46258  14.650  34.041   7.528
 3495POPC   NC346259  14.091  11.928   5.408
 3495POPC   PO446260  14.475  12.434   5.543
 3495POPC   GL146261  14.339  12.043   5.841
 3495POPC   GL246262  14.048  11.766   5.880
 3495POPC   C1A46263  14.417  11.844   6.263
 3495POPC   D2A46264  14.633  11.962   6.682
 3495POPC   C3A46265  14.430  12.170   7.031
 3495POPC   C4A46266  14.550  12.332   7.438
 3495POPC   C1B46267  13.873  11.801   6.273
 3495POPC   C2B46268  14.087  11.868   6.670
 3495POPC   C3B46269  14.247  11.685   7.022
 3495POPC   C4B46270  14.110  11.829   7.422
 3496POPC   NC346271  17.746  20.164   5.661
 3496POPC   PO446272  17.613  19.722   5.170
 3496POPC   GL146273  17.505  19.715   5.649
 3496POPC   GL246274  17.328  19.983   5.904
 3496POPC   C1A46275  17.681  19.659   6.085
 3496POPC   D2A46276  17.532  19.662   6.500
 3496POPC   C3A46277  17.651  19.963   6.794
 3496POPC   C4A46278  17.910  20.108   7.134
 3496POPC   C1B46279  17.279  20.221   6.299
 3496POPC   C2B46280  17.188  20.213   6.746
 3496POPC   C3B46281  17.274  20.002   7.150
 3496POPC   C4B46282  17.171  20.056   7.606
 3497POPC   NC346283  13.928  33.955   5.440
 3497POPC   PO446284  13.216  33.885   5.440
 3497POPC   GL146285  13.475  33.857   5.865
 3497POPC   GL246286  13.852  33.865   5.927
 3497POPC   C1A46287  13.562  34.083   6.302
 3497POPC   D2A46288  13.649  34.203   6.753
 3497POPC   C3A46289  13.533  33.991   7.157
 3497POPC   C4A46290  13.476  33.521   7.204
 3497POPC   C1B46291  13.937  33.744   6.336
 3497POPC   C2B46292  13.693  33.677   6.706
 3497POPC   C3B46293  13.992  33.832   6.983
 3497POPC   C4B46294  14.211  34.060   7.271
 3498POPC   NC346295   2.729  33.256   5.273
 3498POPC   PO446296   2.397  32.680   5.530
 3498POPC   GL146297   2.671  32.928   5.830
 3498POPC   GL246298   2.977  33.115   5.723
 3498POPC   C1A46299   2.707  33.218   6.196
 3498POPC   D2A46300   2.520  33.316   6.605
 3498POPC   C3A46301   2.642  33.022   6.934
 3498POPC   C4A46302   2.524  32.840   7.340
 3498POPC   C1B46303   3.157  33.001   6.134
 3498POPC   C2B46304   3.017  32.929   6.550
 3498POPC   C3B46305   3.230  32.888   6.929
 3498POPC   C4B46306   3.022  32.945   7.297
 3499POPC   NC346307  42.464  12.476   5.002
 3499POPC   PO446308  42.223  13.088   5.294
 3499POPC   GL146309  42.396  13.027   5.762
 3499POPC   GL246310  42.453  12.678   5.889
 3499POPC   C1A46311  42.375  13.005   6.246
 3499POPC   D2A46312  42.417  12.774   6.645
 3499POPC   C3A46313  42.219  13.086   6.862
 3499POPC   C4A46314  42.369  13.399   7.145
 3499POPC   C1B46315  42.634  12.508   6.254
 3499POPC   C2B46316  42.694  12.285   6.662
 3499POPC   C3B46317  42.557  12.391   7.073
 3499POPC   C4B46318  42.517  12.833   7.189
 3500POPC   NC346319  10.623  14.796   5.442
 3500POPC   PO446320  10.860  15.339   5.407
 3500POPC   GL146321  10.619  15.155   5.803
 3500POPC   GL246322  10.291  14.936   5.787
 3500POPC   C1A46323  10.717  15.185   6.261
 3500POPC   D2A46324  10.736  15.391   6.704
 3500POPC   C3A46325  10.868  15.158   7.095
 3500POPC   C4A46326  10.696  14.926   7.455
 3500POPC   C1B46327  10.225  15.049   6.233
 3500POPC   C2B46328  10.438  14.981   6.647
 3500POPC   C3B46329  10.360  15.088   7.089
 3500POPC   C4B46330  10.242  15.178   7.530
 3501POPC   NC346331  22.955  21.029   5.441
 3501POPC   PO446332  22.699  20.449   5.192
 3501POPC   GL146333  22.677  20.602   5.683
 3501POPC   GL246334  22.924  20.821   5.910
 3501POPC   C1A46335  22.644  20.485   6.154
 3501POPC   D2A46336  22.834  20.743   6.490
 3501POPC   C3A46337  23.031  20.583   6.880
 3501POPC   C4A46338  22.976  20.304   7.262
 3501POPC   C1B46339  22.535  20.998   6.103
 3501POPC   C2B46340  22.506  21.155   6.564
 3501POPC   C3B46341  22.797  21.067   6.908
 3501POPC   C4B46342  23.076  20.943   7.245
 3502POPC   NC346343  15.043   8.815   5.339
 3502POPC   PO446344  15.447   9.360   5.650
 3502POPC   GL146345  15.197   9.032   5.801
 3502POPC   GL246346  15.258   8.661   5.765
 3502POPC   C1A46347  15.140   8.936   6.225
 3502POPC   D2A46348  14.870   8.858   6.564
 3502POPC   C3A46349  15.001   9.118   6.897
 3502POPC   C4A46350  15.330   9.118   7.197
 3502POPC   C1B46351  15.359   8.480   6.169
 3502POPC   C2B46352  15.187   8.459   6.608
 3502POPC   C3B46353  15.126   8.632   7.057
 3502POPC   C4B46354  15.232   8.675   7.499
 3503POPC   NC346355  34.366  16.469   5.565
 3503POPC   PO446356  34.747  17.064   5.484
 3503POPC   GL146357  34.560  16.944   5.896
 3503POPC   GL246358  34.578  16.590   5.992
 3503POPC   C1A46359  34.318  16.889   6.304
 3503POPC   D2A46360  34.344  17.042   6.725
 3503POPC   C3A46361  34.579  16.787   7.016
 3503POPC   C4A46362  34.443  16.615   7.404
 3503POPC   C1B46363  34.944  16.436   6.153
 3503POPC   C2B46364  35.107  16.620   6.494
 3503POPC   C3B46365  35.025  16.515   6.895
 3503POPC   C4B46366  34.766  16.315   7.154
 3504POPC   NC346367  34.558  22.960   5.324
 3504POPC   PO446368  35.122  23.254   5.205
 3504POPC   GL146369  34.846  23.257   5.618
 3504POPC   GL246370  34.648  22.979   5.834
 3504POPC   C1A46371  34.817  23.411   6.030
 3504POPC   D2A46372  34.834  23.456   6.468
 3504POPC   C3A46373  34.736  23.226   6.810
 3504POPC   C4A46374  34.635  23.071   7.209
 3504POPC   C1B46375  34.553  23.020   6.329
 3504POPC   C2B46376  34.487  22.773   6.747
 3504POPC   C3B46377  34.210  22.780   7.114
 3504POPC   C4B46378  34.189  23.006   7.497
 3505POPC   NC346379   0.383  25.107   5.214
 3505POPC   PO446380   0.872  25.605   5.192
 3505POPC   GL146381   0.744  25.425   5.630
 3505POPC   GL246382   0.508  25.168   5.710
 3505POPC   C1A46383   0.619  25.485   6.096
 3505POPC   D2A46384   0.576  25.193   6.473
 3505POPC   C3A46385   0.604  25.405   6.872
 3505POPC   C4A46386   0.423  25.529   7.275
 3505POPC   C1B46387   0.167  25.207   6.038
 3505POPC   C2B46388   0.085  25.049   6.448
 3505POPC   C3B46389   0.113  25.223   6.844
 3505POPC   C4B46390   0.127  25.060   7.240
 3506POPC   NC346391  29.168  26.056   5.332
 3506POPC   PO446392  28.702  25.549   5.422
 3506POPC   GL146393  28.860  25.902   5.723
 3506POPC   GL246394  29.236  25.982   5.820
 3506POPC   C1A46395  28.873  26.080   6.154
 3506POPC   D2A46396  29.158  26.072   6.489
 3506POPC   C3A46397  29.028  26.183   6.891
 3506POPC   C4A46398  29.049  26.179   7.346
 3506POPC   C1B46399  29.455  25.797   6.149
 3506POPC   C2B46400  29.632  25.828   6.550
 3506POPC   C3B46401  29.564  25.759   6.977
 3506POPC   C4B46402  29.397  25.767   7.345
 3507POPC   NC346403  35.333  14.696   5.550
 3507POPC   PO446404  35.602  14.046   5.506
 3507POPC   GL146405  35.367  14.238   5.832
 3507POPC   GL246406  35.530  14.040   6.076
 3507POPC   C1A46407  35.354  14.591   6.173
 3507POPC   D2A46408  35.159  14.692   6.554
 3507POPC   C3A46409  35.420  14.535   6.839
 3507POPC   C4A46410  35.412  14.612   7.248
 3507POPC   C1B46411  35.286  14.153   6.443
 3507POPC   C2B46412  35.155  14.020   6.826
 3507POPC   C3B46413  35.173  14.107   7.253
 3507POPC   C4B46414  35.252  13.958   7.673
 3508POPC   NC346415  32.887   7.157   5.265
 3508POPC   PO446416  33.253   7.750   5.403
 3508POPC   GL146417  33.106   7.462   5.725
 3508POPC   GL246418  33.189   7.741   5.935
 3508POPC   C1A46419  33.052   7.129   6.036
 3508POPC   D2A46420  33.180   7.079   6.477
 3508POPC   C3A46421  32.913   7.163   6.845
 3508POPC   C4A46422  33.045   7.181   7.274
 3508POPC   C1B46423  33.028   7.549   6.332
 3508POPC   C2B46424  32.772   7.619   6.686
 3508POPC   C3B46425  32.766   7.602   7.144
 3508POPC   C4B46426  32.638   7.843   7.508
 3509POPC   NC346427  43.170  41.717   5.275
 3509POPC   PO446428  42.863  41.020   5.256
 3509POPC   GL146429  43.067  41.272   5.560
 3509POPC   GL246430  42.785  41.452   5.686
 3509POPC   C1A46431  43.177  41.348   6.025
 3509POPC   D2A46432  43.097  41.276   6.502
 3509POPC   C3A46433  43.280  41.424   6.912
 3509POPC   C4A46434  43.226  41.788   7.209
 3509POPC   C1B46435  42.609  41.412   6.123
 3509POPC   C2B46436  42.584  41.389   6.592
 3509POPC   C3B46437  42.773  41.555   6.973
 3509POPC   C4B46438  42.935  41.375   7.344
 3510POPC   NC346439  19.121  39.814   5.281
 3510POPC   PO446440  19.290  40.502   5.381
 3510POPC   GL146441  19.253  40.299   5.812
 3510POPC   GL246442  19.050  40.011   5.750
 3510POPC   C1A46443  19.338  40.179   6.300
 3510POPC   D2A46444  19.464  40.032   6.765
 3510POPC   C3A46445  19.299  40.035   7.215
 3510POPC   C4A46446  19.191  39.838   7.661
 3510POPC   C1B46447  18.998  39.816   6.157
 3510POPC   C2B46448  18.978  39.954   6.579
 3510POPC   C3B46449  18.871  39.882   6.988
 3510POPC   C4B46450  18.825  40.072   7.371
 3511POPC   NC346451  41.649  39.232   5.437
 3511POPC   PO446452  41.076  39.527   5.673
 3511POPC   GL146453  41.317  39.177   5.877
 3511POPC   GL246454  41.683  39.158   5.921
 3511POPC   C1A46455  41.402  39.212   6.327
 3511POPC   D2A46456  41.363  39.335   6.730
 3511POPC   C3A46457  41.518  39.023   6.986
 3511POPC   C4A46458  41.611  38.901   7.395
 3511POPC   C1B46459  41.883  39.410   6.234
 3511POPC   C2B46460  41.931  39.290   6.664
 3511POPC   C3B46461  41.748  39.580   6.953
 3511POPC   C4B46462  41.565  39.410   7.299
 3512POPC   NC346463  19.540  38.989   5.352
 3512POPC   PO446464  18.924  39.289   5.217
 3512POPC   GL146465  18.878  39.306   5.672
 3512POPC   GL246466  19.023  38.969   5.776
 3512POPC   C1A46467  18.784  39.345   6.113
 3512POPC   D2A46468  18.843  39.345   6.556
 3512POPC   C3A46469  19.208  39.555   6.792
 3512POPC   C4A46470  19.155  39.532   7.251
 3512POPC   C1B46471  19.278  39.024   6.154
 3512POPC   C2B46472  19.324  39.089   6.603
 3512POPC   C3B46473  19.039  39.118   6.975
 3512POPC   C4B46474  19.242  39.002   7.314
 3513POPC   NC346475  22.547  21.815   5.646
 3513POPC   PO446476  22.913  22.213   5.480
 3513POPC   GL146477  22.848  22.154   5.913
 3513POPC   GL246478  22.520  22.064   6.080
 3513POPC   C1A46479  22.875  22.406   6.299
 3513POPC   D2A46480  23.160  22.419   6.655
 3513POPC   C3A46481  22.968  22.441   7.051
 3513POPC   C4A46482  22.916  22.657   7.429
 3513POPC   C1B46483  22.871  21.904   6.344
 3513POPC   C2B46484  22.885  21.984   6.754
 3513POPC   C3B46485  23.048  21.910   7.121
 3513POPC   C4B46486  22.753  22.077   7.328
 3514POPC   NC346487   8.464  13.083   5.483
 3514POPC   PO446488   7.975  12.661   5.596
 3514POPC   GL146489   8.224  12.605   5.951
 3514POPC   GL246490   8.498  12.836   5.919
 3514POPC   C1A46491   8.088  12.737   6.355
 3514POPC   D2A46492   8.050  13.097   6.651
 3514POPC   C3A46493   8.036  12.964   7.056
 3514POPC   C4A46494   7.910  12.549   7.189
 3514POPC   C1B46495   8.400  13.127   6.259
 3514POPC   C2B46496   8.509  13.313   6.661
 3514POPC   C3B46497   8.538  13.145   7.058
 3514POPC   C4B46498   8.422  12.907   7.399
 3515POPC   NC346499  34.312  35.341   5.450
 3515POPC   PO446500  34.935  35.612   5.473
 3515POPC   GL146501  34.656  35.551   5.829
 3515POPC   GL246502  34.521  35.214   5.907
 3515POPC   C1A46503  34.286  35.603   6.112
 3515POPC   D2A46504  34.277  35.662   6.556
 3515POPC   C3A46505  34.469  35.329   6.797
 3515POPC   C4A46506  34.414  35.397   7.211
 3515POPC   C1B46507  34.706  35.334   6.325
 3515POPC   C2B46508  34.906  35.069   6.651
 3515POPC   C3B46509  34.825  34.967   7.088
 3515POPC   C4B46510  34.451  34.900   7.324
 3516POPC   NC346511  40.904  32.173   5.338
 3516POPC   PO446512  40.300  31.943   5.375
 3516POPC   GL146513  40.513  31.880   5.777
 3516POPC   GL246514  40.743  32.130   5.834
 3516POPC   C1A46515  40.407  32.015   6.210
 3516POPC   D2A46516  40.653  32.073   6.565
 3516POPC   C3A46517  40.585  32.228   6.970
 3516POPC   C4A46518  40.887  32.072   7.253
 3516POPC   C1B46519  40.914  32.332   6.219
 3516POPC   C2B46520  40.999  32.474   6.637
 3516POPC   C3B46521  41.211  32.409   7.004
 3516POPC   C4B46522  40.876  32.568   7.252
 3517POPC   NC346523   0.614  37.204   5.521
 3517POPC   PO446524   0.193  36.641   5.446
 3517POPC   GL146525   0.434  36.848   5.846
 3517POPC   GL246526   0.816  36.982   5.937
 3517POPC   C1A46527   0.256  37.094   6.213
 3517POPC   D2A46528   0.216  37.147   6.653
 3517POPC   C3A46529   0.210  36.780   6.921
 3517POPC   C4A46530   0.412  36.687   7.291
 3517POPC   C1B46531   0.687  36.833   6.299
 3517POPC   C2B46532   0.652  36.911   6.710
 3517POPC   C3B46533   0.826  36.837   7.050
 3517POPC   C4B46534   0.761  37.017   7.444
 3518POPC   NC346535  24.955  32.048   5.457
 3518POPC   PO446536  25.414  32.563   5.426
 3518POPC   GL146537  25.370  32.262   5.764
 3518POPC   GL246538  25.658  32.458   5.897
 3518POPC   C1A46539  25.251  32.116   6.196
 3518POPC   D2A46540  25.029  32.278   6.558
 3518POPC   C3A46541  25.151  32.158   6.970
 3518POPC   C4A46542  25.495  31.985   7.199
 3518POPC   C1B46543  25.754  32.105   6.163
 3518POPC   C2B46544  25.594  32.211   6.597
 3518POPC   C3B46545  25.449  32.570   6.855
 3518POPC   C4B46546  25.363  32.497   7.280
 3519POPC   NC346547  42.023   5.306   5.357
 3519POPC   PO446548  41.441   4.925   5.430
 3519POPC   GL146549  41.594   5.228   5.753
 3519POPC   GL246550  41.904   5.318   5.849
 3519POPC   C1A46551  41.564   5.336   6.210
 3519POPC   D2A46552  41.461   5.085   6.543
 3519POPC   C3A46553  41.652   5.240   6.928
 3519POPC   C4A46554  41.573   5.181   7.366
 3519POPC   C1B46555  41.881   4.945   6.184
 3519POPC   C2B46556  41.879   4.829   6.676
 3519POPC   C3B46557  41.746   4.740   7.123
 3519POPC   C4B46558  41.675   4.743   7.605
 3520POPC   NC346559  26.087   2.056   5.385
 3520POPC   PO446560  25.760   1.521   5.439
 3520POPC   GL146561  26.095   1.723   5.804
 3520POPC   GL246562  26.058   2.139   5.874
 3520POPC   C1A46563  26.140   1.869   6.280
 3520POPC   D2A46564  25.985   2.049   6.674
 3520POPC   C3A46565  25.937   1.708   6.970
 3520POPC   C4A46566  26.341   1.529   7.073
 3520POPC   C1B46567  25.813   2.297   6.236
 3520POPC   C2B46568  25.670   2.489   6.646
 3520POPC   C3B46569  25.785   2.392   7.086
 3520POPC   C4B46570  26.164   2.108   7.194
 3521POPC   NC346571   4.093  36.950   5.162
 3521POPC   PO446572   4.645  36.666   5.413
 3521POPC   GL146573   4.511  36.664   5.809
 3521POPC   GL246574   4.354  36.997   5.803
 3521POPC   C1A46575   4.362  36.652   6.222
 3521POPC   D2A46576   4.523  36.789   6.604
 3521POPC   C3A46577   4.399  36.626   6.996
 3521POPC   C4A46578   4.166  36.757   7.324
 3521POPC   C1B46579   4.526  37.135   6.199
 3521POPC   C2B46580   4.608  37.285   6.633
 3521POPC   C3B46581   4.414  37.130   7.027
 3521POPC   C4B46582   4.369  37.178   7.474
 3522POPC   NC346583   4.746  17.758   5.360
 3522POPC   PO446584   5.214  17.383   5.448
 3522POPC   GL146585   4.891  17.512   5.791
 3522POPC   GL246586   4.854  17.888   5.840
 3522POPC   C1A46587   4.682  17.403   6.217
 3522POPC   D2A46588   4.562  17.231   6.639
 3522POPC   C3A46589   4.664  17.390   7.086
 3522POPC   C4A46590   4.594  17.134   7.468
 3522POPC   C1B46591   5.053  17.744   6.241
 3522POPC   C2B46592   4.938  17.598   6.679
 3522POPC   C3B46593   5.080  17.714   7.107
 3522POPC   C4B46594   5.157  18.101   7.338
 3523POPC   NC346595   4.486  28.384   5.317
 3523POPC   PO446596   3.840  28.286   5.440
 3523POPC   GL146597   4.125  28.438   5.773
 3523POPC   GL246598   4.270  28.120   5.722
 3523POPC   C1A46599   4.348  28.517   6.208
 3523POPC   D2A46600   4.620  28.695   6.572
 3523POPC   C3A46601   4.469  28.657   7.025
 3523POPC   C4A46602   4.635  28.272   7.190
 3523POPC   C1B46603   4.579  28.074   6.034
 3523POPC   C2B46604   4.522  28.067   6.473
 3523POPC   C3B46605   4.272  28.309   6.742
 3523POPC   C4B46606   4.006  28.337   7.127
 3524POPC   NC346607  25.879  34.882   5.473
 3524POPC   PO446608  26.126  35.592   5.447
 3524POPC   GL146609  25.866  35.538   5.806
 3524POPC   GL246610  25.769  35.193   5.842
 3524POPC   C1A46611  25.875  35.476   6.253
 3524POPC   D2A46612  26.256  35.559   6.446
 3524POPC   C3A46613  26.222  35.423   6.852
 3524POPC   C4A46614  25.781  35.472   7.035
 3524POPC   C1B46615  25.768  34.895   6.170
 3524POPC   C2B46616  25.954  35.047   6.535
 3524POPC   C3B46617  26.183  34.919   6.859
 3524POPC   C4B46618  25.977  35.011   7.217
 3525POPC   NC346619  14.984  42.463   5.251
 3525POPC   PO446620  15.217  41.871   5.338
 3525POPC   GL146621  15.019  42.126   5.721
 3525POPC   GL246622  15.131  42.488   5.800
 3525POPC   C1A46623  14.936  42.193   6.202
 3525POPC   D2A46624  15.125  42.057   6.627
 3525POPC   C3A46625  15.054  42.137   7.120
 3525POPC   C4A46626  14.905  42.377   7.512
 3525POPC   C1B46627  15.196  42.633   6.265
 3525POPC   C2B46628  15.066  42.569   6.719
 3525POPC   C3B46629  15.234  42.607   7.160
 3525POPC   C4B46630  15.397  42.526   7.606
 3526POPC   NC346631   0.918   7.085   5.478
 3526POPC   PO446632   1.424   7.551   5.296
 3526POPC   GL146633   1.393   7.489   5.754
 3526POPC   GL246634   1.022   7.535   5.757
 3526POPC   C1A46635   1.493   7.262   6.168
 3526POPC   D2A46636   1.301   7.146   6.559
 3526POPC   C3A46637   1.567   7.131   6.925
 3526POPC   C4A46638   1.350   7.092   7.304
 3526POPC   C1B46639   1.022   7.482   6.198
 3526POPC   C2B46640   1.182   7.655   6.561
 3526POPC   C3B46641   1.165   7.460   6.958
 3526POPC   C4B46642   0.909   7.374   7.283
 3527POPC   NC346643   4.774   4.330   5.640
 3527POPC   PO446644   4.213   4.072   5.338
 3527POPC   GL146645   4.062   4.243   5.724
 3527POPC   GL246646   4.218   4.559   5.705
 3527POPC   C1A46647   4.273   4.275   6.144
 3527POPC   D2A46648   4.416   4.358   6.569
 3527POPC   C3A46649   4.315   3.988   6.789
 3527POPC   C4A46650   4.163   3.975   7.184
 3527POPC   C1B46651   3.950   4.688   6.048
 3527POPC   C2B46652   3.982   4.675   6.509
 3527POPC   C3B46653   4.169   4.712   6.930
 3527POPC   C4B46654   4.373   4.832   7.320
 3528POPC   NC346655  44.742  10.810   5.433
 3528POPC   PO446656  44.393  10.190   5.551
 3528POPC   GL146657  44.593  10.514   5.821
 3528POPC   GL246658  44.464  10.878   5.850
 3528POPC   C1A46659  44.690  10.615   6.260
 3528POPC   D2A46660  44.436  10.625   6.644
 3528POPC   C3A46661  44.587  10.274   6.907
 3528POPC   C4A46662  44.945  10.399   7.137
 3528POPC   C1B46663  44.417  11.049   6.292
 3528POPC   C2B46664  44.292  11.189   6.692
 3528POPC   C3B46665  44.344  11.103   7.106
 3528POPC   C4B46666  44.533  10.706   7.180
 3529POPC   NC346667   4.953  19.733   5.475
 3529POPC   PO446668   5.587  19.931   5.566
 3529POPC   GL146669   5.211  19.958   5.856
 3529POPC   GL246670   4.865  20.127   5.777
 3529POPC   C1A46671   4.935  19.689   6.146
 3529POPC   D2A46672   5.034  19.510   6.577
 3529POPC   C3A46673   5.268  19.785   6.862
 3529POPC   C4A46674   5.121  19.998   7.218
 3529POPC   C1B46675   4.943  20.231   6.190
 3529POPC   C2B46676   4.947  20.010   6.545
 3529POPC   C3B46677   4.742  19.856   6.907
 3529POPC   C4B46678   4.600  20.198   7.192
 3530POPC   NC346679  36.467  20.025   5.485
 3530POPC   PO446680  37.146  19.838   5.559
 3530POPC   GL146681  36.794  19.734   5.830
 3530POPC   GL246682  36.777  20.062   5.892
 3530POPC   C1A46683  36.915  19.681   6.250
 3530POPC   D2A46684  36.882  19.955   6.573
 3530POPC   C3A46685  36.900  19.724   6.928
 3530POPC   C4A46686  36.809  19.618   7.338
 3530POPC   C1B46687  36.746  20.308   6.232
 3530POPC   C2B46688  36.597  20.390   6.652
 3530POPC   C3B46689  36.776  20.216   7.027
 3530POPC   C4B46690  36.714  20.123   7.463
 3531POPC   NC346691  14.669  21.357   5.389
 3531POPC   PO446692  14.052  21.188   5.263
 3531POPC   GL146693  14.267  21.374   5.708
 3531POPC   GL246694  14.472  21.621   5.793
 3531POPC   C1A46695  14.428  21.289   6.170
 3531POPC   D2A46696  14.328  21.362   6.589
 3531POPC   C3A46697  14.223  21.104   6.937
 3531POPC   C4A46698  14.333  21.207   7.344
 3531POPC   C1B46699  14.674  21.782   6.158
 3531POPC   C2B46700  14.505  21.867   6.555
 3531POPC   C3B46701  14.445  21.679   6.970
 3531POPC   C4B46702  14.382  21.699   7.397
 3532POPC   NC346703  17.068  42.304   5.605
 3532POPC   PO446704  17.734  42.257   5.369
 3532POPC   GL146705  17.744  42.374   5.824
 3532POPC   GL246706  17.423  42.403   5.958
 3532POPC   C1A46707  17.795  42.313   6.304
 3532POPC   D2A46708  18.034  42.358   6.672
 3532POPC   C3A46709  17.902  42.404   7.068
 3532POPC   C4A46710  17.882  42.130   7.437
 3532POPC   C1B46711  17.311  42.118   6.299
 3532POPC   C2B46712  17.309  42.139   6.761
 3532POPC   C3B46713  17.426  42.251   7.186
 3532POPC   C4B46714  17.412  42.189   7.623
 3533POPC   NC346715  27.755   8.441   5.055
 3533POPC   PO446716  27.434   8.674   5.606
 3533POPC   GL146717  27.531   8.827   5.989
 3533POPC   GL246718  27.576   9.220   5.975
 3533POPC   C1A46719  27.788   8.895   6.319
 3533POPC   D2A46720  27.813   9.002   6.710
 3533POPC   C3A46721  27.581   8.753   6.981
 3533POPC   C4A46722  27.738   8.635   7.371
 3533POPC   C1B46723  27.563   9.347   6.403
 3533POPC   C2B46724  27.436   9.364   6.824
 3533POPC   C3B46725  27.679   9.221   7.166
 3533POPC   C4B46726  27.774   9.099   7.560
 3534POPC   NC346727  19.841  24.659   5.684
 3534POPC   PO446728  19.524  24.198   5.259
 3534POPC   GL146729  19.627  24.132   5.800
 3534POPC   GL246730  19.548  24.435   6.092
 3534POPC   C1A46731  19.690  23.989   6.238
 3534POPC   D2A46732  19.438  24.175   6.580
 3534POPC   C3A46733  19.717  24.390   6.852
 3534POPC   C4A46734  19.968  24.260   7.220
 3534POPC   C1B46735  19.911  24.506   6.367
 3534POPC   C2B46736  20.115  24.775   6.670
 3534POPC   C3B46737  19.995  24.761   7.101
 3534POPC   C4B46738  19.549  24.712   7.205
 3535POPC   NC346739   4.877  15.500   5.408
 3535POPC   PO446740   5.221  15.017   5.624
 3535POPC   GL146741   5.168  15.289   5.926
 3535POPC   GL246742   4.807  15.277   5.863
 3535POPC   C1A46743   5.328  15.245   6.360
 3535POPC   D2A46744   5.107  15.321   6.740
 3535POPC   C3A46745   5.212  15.211   7.157
 3535POPC   C4A46746   5.161  15.428   7.522
 3535POPC   C1B46747   4.868  15.011   6.207
 3535POPC   C2B46748   4.705  15.071   6.597
 3535POPC   C3B46749   4.840  14.888   6.969
 3535POPC   C4B46750   4.882  14.669   7.338
 3536POPC   NC346751  13.903   5.797   5.499
 3536POPC   PO446752  13.501   5.317   5.291
 3536POPC   GL146753  13.498   5.613   5.714
 3536POPC   GL246754  13.201   5.682   5.857
 3536POPC   C1A46755  13.607   5.967   6.086
 3536POPC   D2A46756  13.829   6.276   6.416
 3536POPC   C3A46757  14.036   6.103   6.827
 3536POPC   C4A46758  13.884   5.903   7.242
 3536POPC   C1B46759  13.102   5.976   6.196
 3536POPC   C2B46760  13.304   6.096   6.580
 3536POPC   C3B46761  13.570   5.859   6.861
 3536POPC   C4B46762  13.570   5.473   7.161
 3537POPC   NC346763  34.350   0.841   5.433
 3537POPC   PO446764  34.411   0.194   5.708
 3537POPC   GL146765  34.388   0.576   5.883
 3537POPC   GL246766  34.640   0.811   5.853
 3537POPC   C1A46767  34.420   0.552   6.316
 3537POPC   D2A46768  34.195   0.375   6.627
 3537POPC   C3A46769  34.463   0.508   6.937
 3537POPC   C4A46770  34.375   0.504   7.371
 3537POPC   C1B46771  34.746   0.930   6.254
 3537POPC   C2B46772  34.804   0.746   6.651
 3537POPC   C3B46773  34.787   0.876   7.102
 3537POPC   C4B46774  34.754   0.769   7.564
 3538POPC   NC346775  11.594   9.521   5.470
 3538POPC   PO446776  11.522   8.812   5.549
 3538POPC   GL146777  11.245   8.901   5.858
 3538POPC   GL246778  11.249   9.292   5.889
 3538POPC   C1A46779  11.199   8.722   6.256
 3538POPC   D2A46780  11.129   8.921   6.633
 3538POPC   C3A46781  11.279   8.770   7.000
 3538POPC   C4A46782  11.043   8.900   7.338
 3538POPC   C1B46783  11.213   9.422   6.334
 3538POPC   C2B46784  11.428   9.347   6.692
 3538POPC   C3B46785  11.305   9.278   7.083
 3538POPC   C4B46786  11.436   9.204   7.474
 3539POPC   NC346787  36.260  33.701   5.436
 3539POPC   PO446788  35.734  33.825   5.653
 3539POPC   GL146789  36.056  33.960   5.876
 3539POPC   GL246790  36.412  33.999   5.870
 3539POPC   C1A46791  36.033  33.914   6.283
 3539POPC   D2A46792  36.183  33.656   6.547
 3539POPC   C3A46793  36.078  33.797   6.861
 3539POPC   C4A46794  36.062  33.607   7.261
 3539POPC   C1B46795  36.525  33.653   6.163
 3539POPC   C2B46796  36.705  33.666   6.608
 3539POPC   C3B46797  36.500  33.564   7.003
 3539POPC   C4B46798  36.517  33.775   7.437
 3540POPC   NC346799  36.384  13.251   5.513
 3540POPC   PO446800  35.968  13.729   5.227
 3540POPC   GL146801  36.115  13.734   5.654
 3540POPC   GL246802  36.439  13.937   5.688
 3540POPC   C1A46803  35.939  13.646   6.072
 3540POPC   D2A46804  35.860  13.310   6.405
 3540POPC   C3A46805  35.912  13.472   6.853
 3540POPC   C4A46806  36.037  13.457   7.304
 3540POPC   C1B46807  36.459  13.679   6.079
 3540POPC   C2B46808  36.258  13.634   6.495
 3540POPC   C3B46809  36.423  13.581   6.920
 3540POPC   C4B46810  36.514  13.853   7.256
 3541POPC   NC346811   2.620  26.613   5.413
 3541POPC   PO446812   3.329  26.802   5.348
 3541POPC   GL146813   3.072  26.678   5.705
 3541POPC   GL246814   2.810  26.938   5.787
 3541POPC   C1A46815   2.958  26.632   6.167
 3541POPC   D2A46816   2.955  26.983   6.477
 3541POPC   C3A46817   2.864  26.893   6.906
 3541POPC   C4A46818   3.057  26.972   7.280
 3541POPC   C1B46819   2.514  26.897   6.153
 3541POPC   C2B46820   2.459  27.113   6.559
 3541POPC   C3B46821   2.369  27.138   6.998
 3541POPC   C4B46822   2.545  26.904   7.343
 3542POPC   NC346823   2.202   8.084   5.360
 3542POPC   PO446824   1.627   8.522   5.173
 3542POPC   GL146825   1.730   8.376   5.649
 3542POPC   GL246826   2.087   8.329   5.792
 3542POPC   C1A46827   1.670   8.330   6.129
 3542POPC   D2A46828   1.902   8.431   6.566
 3542POPC   C3A46829   1.804   8.267   6.964
 3542POPC   C4A46830   1.943   7.887   7.152
 3542POPC   C1B46831   2.117   8.109   6.185
 3542POPC   C2B46832   2.258   7.837   6.524
 3542POPC   C3B46833   2.409   7.977   6.912
 3542POPC   C4B46834   2.280   8.317   7.153
 3543POPC   NC346835  12.441   4.347   5.440
 3543POPC   PO446836  13.060   4.236   5.221
 3543POPC   GL146837  12.954   4.301   5.675
 3543POPC   GL246838  12.751   4.010   5.794
 3543POPC   C1A46839  12.876   4.536   6.098
 3543POPC   D2A46840  13.077   4.522   6.545
 3543POPC   C3A46841  13.177   4.442   6.995
 3543POPC   C4A46842  13.407   4.079   7.154
 3543POPC   C1B46843  12.617   4.095   6.244
 3543POPC   C2B46844  12.574   4.476   6.517
 3543POPC   C3B46845  12.715   4.639   6.935
 3543POPC   C4B46846  12.733   4.269   7.195
 3544POPC   NC346847  29.424  20.399   5.599
 3544POPC   PO446848  29.796  20.840   5.291
 3544POPC   GL146849  29.754  20.844   5.738
 3544POPC   GL246850  29.917  20.550   5.756
 3544POPC   C1A46851  30.030  20.899   6.141
 3544POPC   D2A46852  30.264  20.865   6.557
 3544POPC   C3A46853  30.122  20.692   6.928
 3544POPC   C4A46854  29.874  20.823   7.278
 3544POPC   C1B46855  30.032  20.376   6.141
 3544POPC   C2B46856  29.993  20.158   6.541
 3544POPC   C3B46857  30.046  20.142   6.973
 3544POPC   C4B46858  30.060  20.366   7.338
 3545POPC   NC346859  11.655   5.843   5.547
 3545POPC   PO446860  12.217   6.189   5.389
 3545POPC   GL146861  12.227   5.837   5.722
 3545POPC   GL246862  11.975   5.562   5.829
 3545POPC   C1A46863  12.146   5.916   6.174
 3545POPC   D2A46864  12.171   5.791   6.601
 3545POPC   C3A46865  11.968   6.060   6.890
 3545POPC   C4A46866  12.190   5.920   7.221
 3545POPC   C1B46867  11.714   5.548   6.205
 3545POPC   C2B46868  11.664   5.720   6.629
 3545POPC   C3B46869  11.832   5.567   7.024
 3545POPC   C4B46870  11.645   5.298   7.321
 3546POPC   NC346871  34.449  38.748   5.612
 3546POPC   PO446872  34.528  39.250   5.201
 3546POPC   GL146873  34.453  39.284   5.676
 3546POPC   GL246874  34.199  39.064   5.901
 3546POPC   C1A46875  34.596  39.339   6.101
 3546POPC   D2A46876  34.455  39.482   6.502
 3546POPC   C3A46877  34.506  39.277   6.891
 3546POPC   C4A46878  34.665  39.264   7.313
 3546POPC   C1B46879  34.319  38.983   6.341
 3546POPC   C2B46880  34.502  38.807   6.706
 3546POPC   C3B46881  34.474  38.819   7.154
 3546POPC   C4B46882  34.370  38.931   7.575
 3547POPC   NC346883  31.855  30.706   5.330
 3547POPC   PO446884  31.405  31.118   5.227
 3547POPC   GL146885  31.436  30.851   5.626
 3547POPC   GL246886  31.736  30.943   5.794
 3547POPC   C1A46887  31.330  30.744   6.103
 3547POPC   D2A46888  31.426  30.669   6.578
 3547POPC   C3A46889  31.212  30.641   7.012
 3547POPC   C4A46890  31.249  30.387   7.417
 3547POPC   C1B46891  31.859  30.852   6.243
 3547POPC   C2B46892  31.924  30.614   6.652
 3547POPC   C3B46893  31.749  30.760   7.044
 3547POPC   C4B46894  31.752  31.164   7.223
 3548POPC   NC346895   8.751  24.927   5.359
 3548POPC   PO446896   9.099  25.421   5.622
 3548POPC   GL146897   8.970  25.191   5.917
 3548POPC   GL246898   9.026  24.890   5.813
 3548POPC   C1A46899   8.914  25.278   6.324
 3548POPC   D2A46900   9.167  25.497   6.621
 3548POPC   C3A46901   8.946  25.544   7.017
 3548POPC   C4A46902   8.602  25.256   7.118
 3548POPC   C1B46903   9.135  24.751   6.225
 3548POPC   C2B46904   9.214  24.964   6.588
 3548POPC   C3B46905   9.050  25.052   6.963
 3548POPC   C4B46906   8.912  24.949   7.394
 3549POPC   NC346907  13.794  36.336   5.205
 3549POPC   PO446908  13.371  35.891   5.508
 3549POPC   GL146909  13.616  35.966   5.852
 3549POPC   GL246910  13.532  36.316   5.889
 3549POPC   C1A46911  13.515  35.963   6.308
 3549POPC   D2A46912  13.247  36.143   6.635
 3549POPC   C3A46913  13.385  36.179   7.054
 3549POPC   C4A46914  13.749  36.081   7.342
 3549POPC   C1B46915  13.725  36.425   6.290
 3549POPC   C2B46916  13.711  36.435   6.714
 3549POPC   C3B46917  13.724  36.555   7.124
 3549POPC   C4B46918  13.430  36.488   7.469
 3550POPC   NC346919  27.730  33.866   5.066
 3550POPC   PO446920  28.229  34.256   5.284
 3550POPC   GL146921  28.524  34.094   5.648
 3550POPC   GL246922  28.357  33.830   5.883
 3550POPC   C1A46923  28.763  34.015   6.071
 3550POPC   D2A46924  28.445  33.909   6.400
 3550POPC   C3A46925  28.529  33.895   6.821
 3550POPC   C4A46926  28.418  34.078   7.202
 3550POPC   C1B46927  28.097  33.536   6.137
 3550POPC   C2B46928  27.968  33.430   6.557
 3550POPC   C3B46929  28.089  33.574   6.973
 3550POPC   C4B46930  27.985  33.389   7.380
 3551POPC   NC346931  22.278  40.126   5.349
 3551POPC   PO446932  21.875  39.643   5.279
 3551POPC   GL146933  21.989  39.868   5.708
 3551POPC   GL246934  21.934  40.247   5.754
 3551POPC   C1A46935  22.111  39.857   6.172
 3551POPC   D2A46936  21.947  39.995   6.595
 3551POPC   C3A46937  22.116  39.896   7.018
 3551POPC   C4A46938  22.418  39.913   7.362
 3551POPC   C1B46939  22.105  40.369   6.173
 3551POPC   C2B46940  22.341  40.339   6.565
 3551POPC   C3B46941  22.123  40.431   6.948
 3551POPC   C4B46942  22.021  40.277   7.343
 3552POPC   NC346943   1.894  35.894   5.192
 3552POPC   PO446944   1.305  36.137   5.359
 3552POPC   GL146945   1.136  36.028   5.798
 3552POPC   GL246946   1.287  35.737   5.933
 3552POPC   C1A46947   0.869  35.851   6.169
 3552POPC   D2A46948   0.805  36.050   6.567
 3552POPC   C3A46949   0.853  35.873   6.964
 3552POPC   C4A46950   0.997  36.040   7.356
 3552POPC   C1B46951   1.352  36.087   6.225
 3552POPC   C2B46952   1.298  36.165   6.612
 3552POPC   C3B46953   1.363  35.969   6.983
 3552POPC   C4B46954   1.497  36.096   7.377
 3553POPC   NC346955  11.735  34.189   5.393
 3553POPC   PO446956  11.271  34.690   5.613
 3553POPC   GL146957  11.464  34.369   5.831
 3553POPC   GL246958  11.147  34.280   5.966
 3553POPC   C1A46959  11.600  34.351   6.258
 3553POPC   D2A46960  11.698  34.711   6.543
 3553POPC   C3A46961  11.637  34.610   6.980
 3553POPC   C4A46962  11.567  34.169   7.117
 3553POPC   C1B46963  11.157  34.605   6.280
 3553POPC   C2B46964  11.011  34.412   6.658
 3553POPC   C3B46965  11.130  34.451   7.066
 3553POPC   C4B46966  11.199  34.889   7.098
 3554POPC   NC346967  25.762   9.441   5.203
 3554POPC   PO446968  26.072  10.049   5.376
 3554POPC   GL146969  26.145   9.944   5.825
 3554POPC   GL246970  25.892  10.184   5.918
 3554POPC   C1A46971  26.353   9.774   6.215
 3554POPC   D2A46972  26.171   9.758   6.638
 3554POPC   C3A46973  26.318   9.593   7.036
 3554POPC   C4A46974  26.484   9.500   7.459
 3554POPC   C1B46975  25.855  10.018   6.309
 3554POPC   C2B46976  25.728  10.049   6.706
 3554POPC   C3B46977  25.765   9.684   6.930
 3554POPC   C4B46978  25.895   9.600   7.331
 3555POPC   NC346979  21.255  21.955   5.046
 3555POPC   PO446980  21.208  22.438   5.574
 3555POPC   GL146981  21.362  22.241   5.940
 3555POPC   GL246982  21.480  21.905   5.960
 3555POPC   C1A46983  21.435  22.252   6.360
 3555POPC   D2A46984  21.214  22.283   6.733
 3555POPC   C3A46985  21.550  22.372   7.014
 3555POPC   C4A46986  21.732  22.094   7.349
 3555POPC   C1B46987  21.203  21.711   6.285
 3555POPC   C2B46988  21.168  21.709   6.758
 3555POPC   C3B46989  21.283  21.955   7.134
 3555POPC   C4B46990  21.341  21.925   7.636
 3556POPC   NC346991  36.011  20.091   5.135
 3556POPC   PO446992  36.380  19.564   5.431
 3556POPC   GL146993  36.219  19.651   5.842
 3556POPC   GL246994  36.184  19.995   5.885
 3556POPC   C1A46995  35.910  19.743   6.205
 3556POPC   D2A46996  35.736  19.610   6.586
 3556POPC   C3A46997  35.960  19.766   6.922
 3556POPC   C4A46998  35.857  19.936   7.330
 3556POPC   C1B46999  36.429  19.860   6.273
 3556POPC   C2B47000  36.411  19.910   6.743
 3556POPC   C3B47001  36.371  19.858   7.198
 3556POPC   C4B47002  36.251  20.062   7.601
 3557POPC   NC347003  19.592  22.107   5.684
 3557POPC   PO447004  20.241  22.197   5.486
 3557POPC   GL147005  20.011  22.396   5.856
 3557POPC   GL247006  19.982  22.080   6.011
 3557POPC   C1A47007  19.737  22.480   6.228
 3557POPC   D2A47008  19.924  22.215   6.520
 3557POPC   C3A47009  19.806  22.108   6.915
 3557POPC   C4A47010  19.617  22.368   7.220
 3557POPC   C1B47011  20.211  21.821   6.288
 3557POPC   C2B47012  20.261  21.875   6.700
 3557POPC   C3B47013  20.153  21.684   7.024
 3557POPC   C4B47014  19.919  21.828   7.322
 3558POPC   NC347015  42.039  40.007   5.139
 3558POPC   PO447016  41.613  40.246   5.616
 3558POPC   GL147017  41.773  39.914   5.861
 3558POPC   GL247018  41.551  39.642   5.891
 3558POPC   C1A47019  41.698  39.914   6.333
 3558POPC   D2A47020  41.727  40.139   6.767
 3558POPC   C3A47021  41.604  40.089   7.228
 3558POPC   C4A47022  41.757  40.444   7.576
 3558POPC   C1B47023  41.251  39.694   6.272
 3558POPC   C2B47024  41.306  39.844   6.694
 3558POPC   C3B47025  41.225  39.705   7.090
 3558POPC   C4B47026  41.318  39.758   7.559
 3559POPC   NC347027   7.634   4.905   5.384
 3559POPC   PO447028   7.033   5.118   5.595
 3559POPC   GL147029   7.273   5.155   5.942
 3559POPC   GL247030   7.629   5.081   5.879
 3559POPC   C1A47031   7.313   5.452   6.244
 3559POPC   D2A47032   7.483   5.406   6.681
 3559POPC   C3A47033   7.387   5.364   7.127
 3559POPC   C4A47034   7.595   5.231   7.512
 3559POPC   C1B47035   7.646   5.087   6.330
 3559POPC   C2B47036   7.476   4.877   6.707
 3559POPC   C3B47037   7.531   4.858   7.151
 3559POPC   C4B47038   7.656   4.737   7.593
 3560POPC   NC347039  38.673  14.706   5.109
 3560POPC   PO447040  38.166  14.292   5.220
 3560POPC   GL147041  38.131  14.503   5.629
 3560POPC   GL247042  38.506  14.547   5.594
 3560POPC   C1A47043  38.169  14.471   6.102
 3560POPC   D2A47044  38.192  14.199   6.472
 3560POPC   C3A47045  38.300  14.382   6.866
 3560POPC   C4A47046  38.388  14.168   7.239
 3560POPC   C1B47047  38.643  14.619   6.009
 3560POPC   C2B47048  38.583  14.579   6.440
 3560POPC   C3B47049  38.757  14.670   6.802
 3560POPC   C4B47050  38.783  14.445   7.142
 3561POPC   NC347051  42.958   5.646   5.455
 3561POPC   PO447052  43.153   6.260   5.445
 3561POPC   GL147053  43.011   6.071   5.835
 3561POPC   GL247054  43.354   6.053   5.876
 3561POPC   C1A47055  43.052   5.980   6.305
 3561POPC   D2A47056  42.758   5.957   6.646
 3561POPC   C3A47057  42.840   5.753   7.026
 3561POPC   C4A47058  42.981   5.946   7.346
 3561POPC   C1B47059  43.481   6.258   6.227
 3561POPC   C2B47060  43.525   6.122   6.636
 3561POPC   C3B47061  43.321   6.056   6.988
 3561POPC   C4B47062  43.467   6.149   7.419
 3562POPC   NC347063   4.329   9.263   5.367
 3562POPC   PO447064   4.061   8.679   5.335
 3562POPC   GL147065   4.161   8.943   5.717
 3562POPC   GL247066   4.516   8.981   5.837
 3562POPC   C1A47067   4.120   9.126   6.145
 3562POPC   D2A47068   4.089   8.971   6.545
 3562POPC   C3A47069   4.117   9.211   6.926
 3562POPC   C4A47070   3.966   8.938   7.208
 3562POPC   C1B47071   4.597   8.935   6.325
 3562POPC   C2B47072   4.537   8.940   6.803
 3562POPC   C3B47073   4.496   9.037   7.272
 3562POPC   C4B47074   4.649   9.252   7.697
 3563POPC   NC347075  19.272   8.867   5.260
 3563POPC   PO447076  18.623   8.637   5.457
 3563POPC   GL147077  18.866   8.976   5.738
 3563POPC   GL247078  19.264   9.028   5.735
 3563POPC   C1A47079  19.046   9.061   6.184
 3563POPC   D2A47080  19.235   8.922   6.574
 3563POPC   C3A47081  19.115   8.909   7.006
 3563POPC   C4A47082  19.384   8.679   7.332
 3563POPC   C1B47083  19.450   9.364   5.995
 3563POPC   C2B47084  19.359   9.390   6.442
 3563POPC   C3B47085  19.307   9.382   6.890
 3563POPC   C4B47086  19.149   9.371   7.317
 3564POPC   NC347087  30.329   0.014   5.450
 3564POPC   PO447088  29.820  44.581   5.520
 3564POPC   GL147089  29.777  44.703   5.923
 3564POPC   GL247090  30.033  44.945   5.907
 3564POPC   C1A47091  30.036  44.618   6.310
 3564POPC   D2A47092  30.225  44.429   6.671
 3564POPC   C3A47093  30.030  44.564   7.056
 3564POPC   C4A47094  29.599  44.643   7.272
 3564POPC   C1B47095  29.748   0.103   6.258
 3564POPC   C2B47096  29.730   0.091   6.731
 3564POPC   C3B47097  30.059   0.079   7.089
 3564POPC   C4B47098  30.018  44.831   7.493
 3565POPC   NC347099   6.424  23.043   5.220
 3565POPC   PO447100   6.829  22.603   5.497
 3565POPC   GL147101   6.719  22.871   5.816
 3565POPC   GL247102   6.407  23.061   5.761
 3565POPC   C1A47103   6.657  23.056   6.243
 3565POPC   D2A47104   6.712  22.813   6.620
 3565POPC   C3A47105   6.732  23.074   6.975
 3565POPC   C4A47106   6.621  23.268   7.379
 3565POPC   C1B47107   6.339  22.692   6.077
 3565POPC   C2B47108   6.202  22.667   6.517
 3565POPC   C3B47109   6.306  22.751   6.936
 3565POPC   C4B47110   6.524  22.755   7.320
 3566POPC   NC347111  23.186   5.353   5.408
 3566POPC   PO447112  22.648   4.862   5.510
 3566POPC   GL147113  22.932   5.083   5.761
 3566POPC   GL247114  23.168   4.842   5.724
 3566POPC   C1A47115  22.927   5.353   6.114
 3566POPC   D2A47116  22.858   5.201   6.535
 3566POPC   C3A47117  22.619   5.387   6.856
 3566POPC   C4A47118  22.652   5.318   7.276
 3566POPC   C1B47119  23.241   4.925   6.179
 3566POPC   C2B47120  23.179   4.819   6.626
 3566POPC   C3B47121  22.969   4.970   7.041
 3566POPC   C4B47122  23.171   4.887   7.441
 3567POPC   NC347123  28.874   9.998   5.403
 3567POPC   PO447124  29.438   9.546   5.389
 3567POPC   GL147125  29.117   9.651   5.698
 3567POPC   GL247126  28.944   9.942   5.917
 3567POPC   C1A47127  29.088   9.498   6.106
 3567POPC   D2A47128  29.299   9.423   6.507
 3567POPC   C3A47129  29.210   9.702   6.846
 3567POPC   C4A47130  29.006   9.642   7.243
 3567POPC   C1B47131  29.238   9.971   6.298
 3567POPC   C2B47132  29.281  10.205   6.712
 3567POPC   C3B47133  29.014  10.130   7.086
 3567POPC   C4B47134  28.859  10.345   7.460
 3568POPC   NC347135  26.187  39.306   5.348
 3568POPC   PO447136  25.652  39.624   5.174
 3568POPC   GL147137  25.711  39.489   5.662
 3568POPC   GL247138  25.897  39.161   5.785
 3568POPC   C1A47139  25.750  39.488   6.148
 3568POPC   D2A47140  25.936  39.162   6.476
 3568POPC   C3A47141  25.845  39.229   6.949
 3568POPC   C4A47142  25.886  39.294   7.422
 3568POPC   C1B47143  26.251  39.381   6.076
 3568POPC   C2B47144  26.331  39.479   6.540
 3568POPC   C3B47145  26.374  39.202   6.921
 3568POPC   C4B47146  26.586  39.311   7.271
 3569POPC   NC347147   2.189   0.396   5.473
 3569POPC   PO447148   1.546   0.039   5.630
 3569POPC   GL147149   1.849   0.330   5.853
 3569POPC   GL247150   2.148   0.542   5.949
 3569POPC   C1A47151   2.023   0.150   6.222
 3569POPC   D2A47152   1.826   0.024   6.609
 3569POPC   C3A47153   2.021   0.313   6.879
 3569POPC   C4A47154   2.242   0.276   7.252
 3569POPC   C1B47155   1.949   0.755   6.317
 3569POPC   C2B47156   2.001   0.826   6.781
 3569POPC   C3B47157   2.109   0.765   7.217
 3569POPC   C4B47158   2.353   0.653   7.606
 3570POPC   NC347159  20.631  18.108   5.383
 3570POPC   PO447160  20.795  18.771   5.500
 3570POPC   GL147161  20.573  18.644   5.871
 3570POPC   GL247162  20.257  18.627   5.772
 3570POPC   C1A47163  20.554  18.473   6.301
 3570POPC   D2A47164  20.877  18.323   6.628
 3570POPC   C3A47165  20.921  18.482   7.083
 3570POPC   C4A47166  21.109  18.363   7.525
 3570POPC   C1B47167  20.048  18.657   6.171
 3570POPC   C2B47168  20.113  18.609   6.628
 3570POPC   C3B47169  20.353  18.473   7.022
 3570POPC   C4B47170  20.265  18.077   7.309
 3571POPC   NC347171  15.604  35.539   5.322
 3571POPC   PO447172  16.180  35.330   5.476
 3571POPC   GL147173  15.957  35.289   5.847
 3571POPC   GL247174  15.607  35.314   5.794
 3571POPC   C1A47175  16.124  35.338   6.260
 3571POPC   D2A47176  16.054  35.138   6.628
 3571POPC   C3A47177  16.156  35.431   6.931
 3571POPC   C4A47178  16.061  35.221   7.267
 3571POPC   C1B47179  15.612  35.341   6.249
 3571POPC   C2B47180  15.755  35.538   6.624
 3571POPC   C3B47181  15.649  35.307   6.986
 3571POPC   C4B47182  15.605  35.037   7.347
 3572POPC   NC347183  18.540   2.982   5.476
 3572POPC   PO447184  17.845   2.854   5.337
 3572POPC   GL147185  17.994   2.943   5.759
 3572POPC   GL247186  18.210   2.696   5.802
 3572POPC   C1A47187  18.069   3.074   6.201
 3572POPC   D2A47188  18.031   3.252   6.652
 3572POPC   C3A47189  18.204   3.022   7.028
 3572POPC   C4A47190  18.628   2.934   7.220
 3572POPC   C1B47191  18.308   2.623   6.233
 3572POPC   C2B47192  18.428   2.870   6.568
 3572POPC   C3B47193  18.622   2.582   6.842
 3572POPC   C4B47194  18.749   2.456   7.239
 3573POPC   NC347195  24.900  40.040   5.467
 3573POPC   PO447196  24.268  40.086   5.233
 3573POPC   GL147197  24.465  39.988   5.725
 3573POPC   GL247198  24.799  39.850   5.910
 3573POPC   C1A47199  24.376  39.815   6.150
 3573POPC   D2A47200  24.680  39.848   6.524
 3573POPC   C3A47201  24.524  39.773   6.968
 3573POPC   C4A47202  24.668  39.816   7.424
 3573POPC   C1B47203  25.061  40.082   6.198
 3573POPC   C2B47204  25.125  40.197   6.621
 3573POPC   C3B47205  24.885  40.120   6.965
 3573POPC   C4B47206  24.856  40.275   7.329
 3574POPC   NC347207   0.100  17.343   5.384
 3574POPC   PO447208   0.566  17.784   5.491
 3574POPC   GL147209   0.388  17.466   5.790
 3574POPC   GL247210   0.018  17.530   5.869
 3574POPC   C1A47211   0.380  17.261   6.194
 3574POPC   D2A47212   0.213  17.196   6.597
 3574POPC   C3A47213   0.363  17.111   6.993
 3574POPC   C4A47214   0.375  17.392   7.318
 3574POPC   C1B47215   0.246  17.829   6.110
 3574POPC   C2B47216   0.471  17.696   6.462
 3574POPC   C3B47217   0.432  17.634   6.875
 3574POPC   C4B47218   0.233  17.855   7.201
 3575POPC   NC347219  36.767  14.013   5.298
 3575POPC   PO447220  37.221  14.464   5.499
 3575POPC   GL147221  36.948  14.231   5.754
 3575POPC   GL247222  36.909  14.540   5.934
 3575POPC   C1A47223  36.692  14.127   6.130
 3575POPC   D2A47224  36.700  13.919   6.558
 3575POPC   C3A47225  36.768  14.189   6.953
 3575POPC   C4A47226  36.582  14.564   7.198
 3575POPC   C1B47227  37.206  14.259   6.185
 3575POPC   C2B47228  37.232  14.041   6.575
 3575POPC   C3B47229  37.282  14.175   6.994
 3575POPC   C4B47230  37.271  14.330   7.408
 3576POPC   NC347231   4.694  20.726   5.623
 3576POPC   PO447232   4.045  20.619   5.579
 3576POPC   GL147233   4.259  20.711   5.931
 3576POPC   GL247234   4.251  21.060   5.867
 3576POPC   C1A47235   4.492  20.470   6.251
 3576POPC   D2A47236   4.503  20.236   6.659
 3576POPC   C3A47237   4.156  20.291   6.924
 3576POPC   C4A47238   4.076  20.510   7.304
 3576POPC   C1B47239   4.401  21.016   6.310
 3576POPC   C2B47240   4.363  20.735   6.675
 3576POPC   C3B47241   4.526  20.679   7.076
 3576POPC   C4B47242   4.603  21.037   7.364
 3577POPC   NC347243  43.309  21.836   5.380
 3577POPC   PO447244  42.966  22.384   5.405
 3577POPC   GL147245  42.956  22.248   5.806
 3577POPC   GL247246  43.147  21.982   5.845
 3577POPC   C1A47247  42.896  22.406   6.211
 3577POPC   D2A47248  42.966  22.294   6.653
 3577POPC   C3A47249  42.804  22.452   7.055
 3577POPC   C4A47250  42.795  22.338   7.490
 3577POPC   C1B47251  43.361  22.194   6.162
 3577POPC   C2B47252  43.476  22.371   6.544
 3577POPC   C3B47253  43.373  22.103   6.887
 3577POPC   C4B47254  43.170  22.110   7.255
 3578POPC   NC347255  16.630  38.143   5.184
 3578POPC   PO447256  16.590  38.760   5.461
 3578POPC   GL147257  16.798  38.549   5.764
 3578POPC   GL247258  16.665  38.213   5.694
 3578POPC   C1A47259  16.779  38.584   6.216
 3578POPC   D2A47260  16.516  38.475   6.570
 3578POPC   C3A47261  16.590  38.655   6.957
 3578POPC   C4A47262  16.760  38.531   7.317
 3578POPC   C1B47263  16.978  38.126   6.011
 3578POPC   C2B47264  16.876  38.115   6.433
 3578POPC   C3B47265  16.842  38.199   6.892
 3578POPC   C4B47266  16.455  38.129   7.158
 3579POPC   NC347267  43.425   7.236   5.345
 3579POPC   PO447268  42.847   7.196   5.618
 3579POPC   GL147269  43.121   7.482   5.792
 3579POPC   GL247270  42.887   7.785   5.871
 3579POPC   C1A47271  43.367   7.446   6.161
 3579POPC   D2A47272  43.258   7.167   6.512
 3579POPC   C3A47273  43.243   7.321   6.939
 3579POPC   C4A47274  42.909   7.243   7.198
 3579POPC   C1B47275  42.893   7.594   6.289
 3579POPC   C2B47276  43.123   7.716   6.660
 3579POPC   C3B47277  42.996   7.774   7.117
 3579POPC   C4B47278  42.813   7.918   7.518
 3580POPC   NC347279   2.753   3.463   5.073
 3580POPC   PO447280   2.690   3.723   5.674
 3580POPC   GL147281   2.650   3.414   5.962
 3580POPC   GL247282   2.347   3.190   5.896
 3580POPC   C1A47283   2.835   3.534   6.343
 3580POPC   D2A47284   2.965   3.764   6.721
 3580POPC   C3A47285   2.898   3.568   7.139
 3580POPC   C4A47286   2.716   3.182   7.282
 3580POPC   C1B47287   2.481   3.153   6.371
 3580POPC   C2B47288   2.666   3.305   6.750
 3580POPC   C3B47289   2.373   3.431   7.026
 3580POPC   C4B47290   2.219   3.209   7.448
 3581POPC   NC347291  37.511  27.784   5.167
 3581POPC   PO447292  38.018  27.406   5.417
 3581POPC   GL147293  37.672  27.645   5.696
 3581POPC   GL247294  37.390  27.434   5.851
 3581POPC   C1A47295  37.621  27.793   6.159
 3581POPC   D2A47296  37.729  27.630   6.595
 3581POPC   C3A47297  37.556  27.736   7.010
 3581POPC   C4A47298  37.727  27.621   7.414
 3581POPC   C1B47299  37.445  27.295   6.305
 3581POPC   C2B47300  37.349  27.313   6.784
 3581POPC   C3B47301  37.357  27.267   7.259
 3581POPC   C4B47302  37.542  27.270   7.707
 3582POPC   NC347303  25.905   6.905   5.571
 3582POPC   PO447304  26.455   6.537   5.444
 3582POPC   GL147305  26.327   6.537   5.850
 3582POPC   GL247306  25.999   6.404   5.826
 3582POPC   C1A47307  26.116   6.739   6.209
 3582POPC   D2A47308  25.955   6.743   6.626
 3582POPC   C3A47309  26.050   7.018   6.942
 3582POPC   C4A47310  25.764   7.248   7.167
 3582POPC   C1B47311  25.763   6.302   6.203
 3582POPC   C2B47312  25.538   6.399   6.600
 3582POPC   C3B47313  25.763   6.376   6.979
 3582POPC   C4B47314  26.168   6.532   7.072
 3583POPC   NC347315  22.360   4.657   5.217
 3583POPC   PO447316  21.832   4.290   5.435
 3583POPC   GL147317  21.988   4.223   5.835
 3583POPC   GL247318  22.222   4.501   5.813
 3583POPC   C1A47319  21.916   4.295   6.281
 3583POPC   D2A47320  21.730   4.215   6.689
 3583POPC   C3A47321  21.943   4.324   7.091
 3583POPC   C4A47322  21.865   4.321   7.563
 3583POPC   C1B47323  22.415   4.316   6.204
 3583POPC   C2B47324  22.286   4.344   6.643
 3583POPC   C3B47325  22.442   4.174   7.011
 3583POPC   C4B47326  22.341   4.217   7.432
 3584POPC   NC347327  14.782  11.119   5.590
 3584POPC   PO447328  14.528  11.737   5.359
 3584POPC   GL147329  14.501  11.514   5.775
 3584POPC   GL247330  14.223  11.284   5.745
 3584POPC   C1A47331  14.552  11.244   6.172
 3584POPC   D2A47332  14.578  11.454   6.582
 3584POPC   C3A47333  14.558  11.266   6.977
 3584POPC   C4A47334  14.471  11.351   7.411
 3584POPC   C1B47335  14.070  11.283   6.170
 3584POPC   C2B47336  14.236  11.053   6.570
 3584POPC   C3B47337  14.082  11.057   7.003
 3584POPC   C4B47338  13.942  11.369   7.284
 3585POPC   NC347339  36.795  38.712   5.390
 3585POPC   PO447340  37.127  38.176   5.541
 3585POPC   GL147341  36.872  38.376   5.811
 3585POPC   GL247342  36.953  38.721   5.872
 3585POPC   C1A47343  36.686  38.398   6.208
 3585POPC   D2A47344  36.699  38.188   6.614
 3585POPC   C3A47345  36.633  38.437   6.985
 3585POPC   C4A47346  36.694  38.301   7.440
 3585POPC   C1B47347  36.947  38.826   6.315
 3585POPC   C2B47348  37.067  38.572   6.682
 3585POPC   C3B47349  37.118  38.481   7.124
 3585POPC   C4B47350  36.978  38.761   7.455
 3586POPC   NC347351  22.690   4.406   5.628
 3586POPC   PO447352  23.328   4.129   5.530
 3586POPC   GL147353  23.270   4.344   5.929
 3586POPC   GL247354  22.950   4.513   6.050
 3586POPC   C1A47355  23.147   4.072   6.289
 3586POPC   D2A47356  23.163   3.842   6.674
 3586POPC   C3A47357  23.029   4.153   6.931
 3586POPC   C4A47358  23.228   4.546   7.043
 3586POPC   C1B47359  22.724   4.700   6.395
 3586POPC   C2B47360  22.711   4.592   6.830
 3586POPC   C3B47361  22.782   4.460   7.250
 3586POPC   C4B47362  22.813   4.032   7.382
 3587POPC   NC347363  32.347  22.388   5.173
 3587POPC   PO447364  31.830  21.894   5.352
 3587POPC   GL147365  32.159  22.144   5.627
 3587POPC   GL247366  31.960  22.018   5.882
 3587POPC   C1A47367  32.338  22.320   6.069
 3587POPC   D2A47368  32.249  22.461   6.542
 3587POPC   C3A47369  32.439  22.322   6.971
 3587POPC   C4A47370  32.469  22.157   7.418
 3587POPC   C1B47371  31.930  22.110   6.322
 3587POPC   C2B47372  31.983  22.022   6.758
 3587POPC   C3B47373  31.994  22.086   7.193
 3587POPC   C4B47374  32.118  21.810   7.525
 3588POPC   NC347375  17.995  41.090   5.345
 3588POPC   PO447376  18.430  40.652   5.328
 3588POPC   GL147377  18.136  40.745   5.688
 3588POPC   GL247378  18.280  41.085   5.778
 3588POPC   C1A47379  18.019  40.801   6.115
 3588POPC   D2A47380  18.283  40.606   6.403
 3588POPC   C3A47381  18.197  40.542   6.828
 3588POPC   C4A47382  17.986  40.643   7.191
 3588POPC   C1B47383  18.478  41.079   6.197
 3588POPC   C2B47384  18.555  40.966   6.642
 3588POPC   C3B47385  18.245  41.053   6.955
 3588POPC   C4B47386  18.459  40.859   7.237
 3589POPC   NC347387   8.843  43.913   5.297
 3589POPC   PO447388   9.002  44.339   5.661
 3589POPC   GL147389   8.922  43.887   5.818
 3589POPC   GL247390   9.208  43.710   5.862
 3589POPC   C1A47391   8.856  43.647   6.243
 3589POPC   D2A47392   9.032  43.640   6.702
 3589POPC   C3A47393   8.796  43.937   7.025
 3589POPC   C4A47394   8.722  44.049   7.492
 3589POPC   C1B47395   9.165  44.058   6.239
 3589POPC   C2B47396   9.345  44.035   6.654
 3589POPC   C3B47397   9.293  43.901   7.082
 3589POPC   C4B47398   9.063  43.556   7.265
 3590POPC   NC347399  34.168  36.863   5.431
 3590POPC   PO447400  34.794  37.169   5.450
 3590POPC   GL147401  34.581  36.959   5.835
 3590POPC   GL247402  34.275  36.735   5.908
 3590POPC   C1A47403  34.410  37.084   6.248
 3590POPC   D2A47404  34.306  37.308   6.611
 3590POPC   C3A47405  34.466  37.028   6.896
 3590POPC   C4A47406  34.652  37.011   7.257
 3590POPC   C1B47407  34.445  36.560   6.268
 3590POPC   C2B47408  34.656  36.642   6.642
 3590POPC   C3B47409  34.581  36.503   7.081
 3590POPC   C4B47410  34.345  36.656   7.455
 3591POPC   NC347411  29.382  38.075   5.333
 3591POPC   PO447412  28.761  37.855   5.596
 3591POPC   GL147413  29.191  37.708   5.681
 3591POPC   GL247414  29.243  37.971   5.923
 3591POPC   C1A47415  29.400  37.526   6.058
 3591POPC   D2A47416  29.389  37.795   6.438
 3591POPC   C3A47417  29.456  37.627   6.837
 3591POPC   C4A47418  29.537  37.449   7.237
 3591POPC   C1B47419  28.932  37.741   6.230
 3591POPC   C2B47420  28.832  37.634   6.688
 3591POPC   C3B47421  29.019  37.467   7.085
 3591POPC   C4B47422  29.138  37.670   7.472
 3592POPC   NC347423  14.838  12.111   5.482
 3592POPC   PO447424  15.049  11.466   5.377
 3592POPC   GL147425  15.141  11.730   5.749
 3592POPC   GL247426  15.480  11.849   5.879
 3592POPC   C1A47427  15.120  11.720   6.222
 3592POPC   D2A47428  15.236  11.572   6.651
 3592POPC   C3A47429  15.001  11.754   6.987
 3592POPC   C4A47430  14.963  12.153   7.206
 3592POPC   C1B47431  15.353  12.170   6.227
 3592POPC   C2B47432  15.233  12.110   6.677
 3592POPC   C3B47433  15.445  12.042   7.079
 3592POPC   C4B47434  15.362  12.058   7.536
 3593POPC   NC347435  39.602  36.545   5.597
 3593POPC   PO447436  39.025  36.227   5.265
 3593POPC   GL147437  39.146  36.243   5.691
 3593POPC   GL247438  39.401  36.081   5.759
 3593POPC   C1A47439  39.160  36.262   6.176
 3593POPC   D2A47440  38.863  36.140   6.511
 3593POPC   C3A47441  38.985  36.004   6.925
 3593POPC   C4A47442  39.161  36.111   7.311
 3593POPC   C1B47443  39.617  35.997   6.130
 3593POPC   C2B47444  39.514  36.139   6.557
 3593POPC   C3B47445  39.523  35.961   6.971
 3593POPC   C4B47446  39.661  36.007   7.389
 3594POPC   NC347447  15.224  37.058   5.520
 3594POPC   PO447448  14.862  36.569   5.294
 3594POPC   GL147449  14.929  36.694   5.737
 3594POPC   GL247450  14.813  37.050   5.805
 3594POPC   C1A47451  15.159  36.867   6.144
 3594POPC   D2A47452  15.050  36.967   6.568
 3594POPC   C3A47453  15.191  36.761   6.944
 3594POPC   C4A47454  15.356  36.531   7.279
 3594POPC   C1B47455  14.910  37.344   6.167
 3594POPC   C2B47456  14.739  37.381   6.575
 3594POPC   C3B47457  14.834  37.199   6.981
 3594POPC   C4B47458  15.284  37.229   7.118
 3595POPC   NC347459  29.133   9.177   5.313
 3595POPC   PO447460  28.845   8.630   5.623
 3595POPC   GL147461  29.004   9.020   5.816
 3595POPC   GL247462  29.348   9.174   5.762
 3595POPC   C1A47463  29.029   9.023   6.253
 3595POPC   D2A47464  28.870   9.018   6.633
 3595POPC   C3A47465  29.111   9.205   6.960
 3595POPC   C4A47466  29.044   8.978   7.326
 3595POPC   C1B47467  29.534   9.143   6.140
 3595POPC   C2B47468  29.474   8.936   6.542
 3595POPC   C3B47469  29.350   8.766   6.927
 3595POPC   C4B47470  29.352   8.569   7.291
 3596POPC   NC347471  19.088  17.257   5.319
 3596POPC   PO447472  19.421  17.817   5.313
 3596POPC   GL147473  19.194  17.733   5.718
 3596POPC   GL247474  19.427  17.490   5.858
 3596POPC   C1A47475  18.944  17.618   6.117
 3596POPC   D2A47476  19.101  17.559   6.572
 3596POPC   C3A47477  18.838  17.659   6.950
 3596POPC   C4A47478  18.943  17.542   7.381
 3596POPC   C1B47479  19.401  17.822   6.205
 3596POPC   C2B47480  19.454  17.942   6.650
 3596POPC   C3B47481  19.342  17.740   7.067
 3596POPC   C4B47482  19.342  17.808   7.561
 3597POPC   NC347483  36.626  17.831   5.369
 3597POPC   PO447484  35.979  17.775   5.554
 3597POPC   GL147485  36.234  17.610   5.856
 3597POPC   GL247486  36.577  17.710   5.869
 3597POPC   C1A47487  36.089  17.573   6.263
 3597POPC   D2A47488  35.824  17.789   6.541
 3597POPC   C3A47489  35.998  17.645   6.903
 3597POPC   C4A47490  35.937  17.447   7.302
 3597POPC   C1B47491  36.591  17.613   6.324
 3597POPC   C2B47492  36.377  17.270   6.600
 3597POPC   C3B47493  36.339  17.273   7.046
 3597POPC   C4B47494  36.404  17.670   7.262
 3598POPC   NC347495   1.590   0.467   5.417
 3598POPC   PO447496   0.954   0.563   5.464
 3598POPC   GL147497   0.999   0.500   5.892
 3598POPC   GL247498   1.342   0.456   5.880
 3598POPC   C1A47499   1.047   0.350   6.324
 3598POPC   D2A47500   1.019   0.633   6.690
 3598POPC   C3A47501   1.079   0.424   7.076
 3598POPC   C4A47502   0.953   0.067   7.314
 3598POPC   C1B47503   1.561   0.382   6.272
 3598POPC   C2B47504   1.445   0.339   6.687
 3598POPC   C3B47505   1.591   0.495   7.079
 3598POPC   C4B47506   1.403   0.363   7.493
 3599POPC   NC347507  36.783  36.353   5.257
 3599POPC   PO447508  36.832  35.914   5.732
 3599POPC   GL147509  36.619  36.103   6.047
 3599POPC   GL247510  36.578  36.422   5.870
 3599POPC   C1A47511  36.822  36.008   6.436
 3599POPC   D2A47512  37.117  36.036   6.788
 3599POPC   C3A47513  36.849  35.984   7.140
 3599POPC   C4A47514  36.947  35.892   7.593
 3599POPC   C1B47515  36.871  36.504   6.243
 3599POPC   C2B47516  36.839  36.457   6.686
 3599POPC   C3B47517  37.041  36.501   7.060
 3599POPC   C4B47518  36.900  36.398   7.451
 3600POPC   NC347519  42.903  33.262   5.428
 3600POPC   PO447520  43.311  32.647   5.417
 3600POPC   GL147521  43.159  32.798   5.775
 3600POPC   GL247522  43.279  33.108   5.759
 3600POPC   C1A47523  43.067  32.709   6.188
 3600POPC   D2A47524  43.147  32.945   6.565
 3600POPC   C3A47525  43.105  32.823   6.989
 3600POPC   C4A47526  43.462  32.898   7.289
 3600POPC   C1B47527  43.101  33.258   6.150
 3600POPC   C2B47528  43.257  33.468   6.544
 3600POPC   C3B47529  43.351  33.319   6.976
 3600POPC   C4B47530  43.059  33.210   7.321
 3601POPC   NC347531   5.573  22.040   5.432
 3601POPC   PO447532   5.846  22.616   5.310
 3601POPC   GL147533   5.762  22.411   5.762
 3601POPC   GL247534   6.048  22.305   5.998
 3601POPC   C1A47535   5.538  22.289   6.153
 3601POPC   D2A47536   5.790  22.336   6.530
 3601POPC   C3A47537   5.696  22.499   6.890
 3601POPC   C4A47538   5.715  22.236   7.243
 3601POPC   C1B47539   5.965  21.953   6.260
 3601POPC   C2B47540   5.920  21.828   6.709
 3601POPC   C3B47541   6.033  21.829   7.177
 3601POPC   C4B47542   6.198  21.675   7.565
 3602POPC   NC347543  25.589   1.001   5.427
 3602POPC   PO447544  25.016   1.435   5.501
 3602POPC   GL147545  25.242   1.149   5.786
 3602POPC   GL247546  25.504   1.363   5.837
 3602POPC   C1A47547  25.552   0.937   6.108
 3602POPC   D2A47548  25.725   0.932   6.542
 3602POPC   C3A47549  25.374   1.017   6.847
 3602POPC   C4A47550  25.342   1.080   7.298
 3602POPC   C1B47551  25.252   1.496   6.168
 3602POPC   C2B47552  25.309   1.482   6.599
 3602POPC   C3B47553  25.356   1.524   7.013
 3602POPC   C4B47554  25.121   1.523   7.394
 3603POPC   NC347555  42.110   0.261   5.460
 3603POPC   PO447556  41.467   0.645   5.447
 3603POPC   GL147557  41.630   0.467   5.804
 3603POPC   GL247558  41.978   0.545   5.854
 3603POPC   C1A47559  41.418   0.514   6.185
 3603POPC   D2A47560  41.245   0.546   6.568
 3603POPC   C3A47561  41.430   0.308   6.884
 3603POPC   C4A47562  41.339   0.376   7.319
 3603POPC   C1B47563  41.896   0.696   6.260
 3603POPC   C2B47564  41.749   0.672   6.666
 3603POPC   C3B47565  41.815   0.657   7.072
 3603POPC   C4B47566  41.818   0.239   7.250
 3604POPC   NC347567  44.300  43.159   5.393
 3604POPC   PO447568  43.633  43.371   5.217
 3604POPC   GL147569  43.812  43.176   5.610
 3604POPC   GL247570  44.019  43.446   5.755
 3604POPC   C1A47571  43.820  43.056   6.055
 3604POPC   D2A47572  43.656  43.342   6.390
 3604POPC   C3A47573  43.709  43.271   6.842
 3604POPC   C4A47574  43.665  43.308   7.297
 3604POPC   C1B47575  44.212  43.368   6.151
 3604POPC   C2B47576  44.127  43.148   6.533
 3604POPC   C3B47577  44.244  43.253   6.947
 3604POPC   C4B47578  44.163  43.081   7.332
 3605POPC   NC347579   5.945  19.634   5.398
 3605POPC   PO447580   5.724  19.061   5.163
 3605POPC   GL147581   5.669  19.268   5.667
 3605POPC   GL247582   5.321  19.438   5.780
 3605POPC   C1A47583   5.675  19.160   6.172
 3605POPC   D2A47584   5.713  18.950   6.630
 3605POPC   C3A47585   5.954  19.065   7.023
 3605POPC   C4A47586   6.093  19.005   7.462
 3605POPC   C1B47587   5.423  19.596   6.213
 3605POPC   C2B47588   5.558  19.442   6.633
 3605POPC   C3B47589   5.481  19.257   7.055
 3605POPC   C4B47590   5.625  19.247   7.511
 3606POPC   NC347591   0.119  31.500   5.563
 3606POPC   PO447592   0.711  31.240   5.458
 3606POPC   GL147593   0.512  31.361   5.835
 3606POPC   GL247594   0.502  31.738   5.817
 3606POPC   C1A47595   0.182  31.293   6.190
 3606POPC   D2A47596  44.938  31.326   6.589
 3606POPC   C3A47597   0.137  31.218   6.991
 3606POPC   C4A47598   0.234  31.452   7.398
 3606POPC   C1B47599   0.261  31.791   6.203
 3606POPC   C2B47600   0.363  31.600   6.596
 3606POPC   C3B47601   0.534  31.538   6.982
 3606POPC   C4B47602   0.663  31.801   7.252
 3607POPC   NC347603  42.173  17.816   5.240
 3607POPC   PO447604  42.415  17.218   5.376
 3607POPC   GL147605  42.303  17.543   5.678
 3607POPC   GL247606  42.600  17.730   5.758
 3607POPC   C1A47607  42.091  17.546   6.101
 3607POPC   D2A47608  42.283  17.551   6.511
 3607POPC   C3A47609  42.116  17.375   6.897
 3607POPC   C4A47610  42.172  17.709   7.191
 3607POPC   C1B47611  42.600  17.432   6.129
 3607POPC   C2B47612  42.643  17.200   6.566
 3607POPC   C3B47613  42.597  17.483   6.956
 3607POPC   C4B47614  42.601  17.527   7.424
 3608POPC   NC347615  38.449  23.745   5.410
 3608POPC   PO447616  39.125  23.923   5.288
 3608POPC   GL147617  39.303  23.769   5.700
 3608POPC   GL247618  39.164  23.453   5.856
 3608POPC   C1A47619  39.356  23.878   6.129
 3608POPC   D2A47620  39.131  23.870   6.507
 3608POPC   C3A47621  39.270  23.747   6.860
 3608POPC   C4A47622  39.271  23.875   7.277
 3608POPC   C1B47623  39.020  23.442   6.263
 3608POPC   C2B47624  38.919  23.393   6.707
 3608POPC   C3B47625  39.076  23.388   7.141
 3608POPC   C4B47626  39.112  23.515   7.585
 3609POPC   NC347627  10.294  42.207   5.425
 3609POPC   PO447628  10.901  42.081   5.292
 3609POPC   GL147629  10.712  42.152   5.720
 3609POPC   GL247630  10.603  42.460   5.771
 3609POPC   C1A47631  10.564  42.180   6.169
 3609POPC   D2A47632  10.359  42.226   6.543
 3609POPC   C3A47633  10.610  42.334   6.895
 3609POPC   C4A47634  10.665  42.106   7.287
 3609POPC   C1B47635  10.302  42.611   6.123
 3609POPC   C2B47636  10.035  42.597   6.515
 3609POPC   C3B47637  10.160  42.622   6.948
 3609POPC   C4B47638  10.413  42.557   7.312
 3610POPC   NC347639  36.993  43.712   5.425
 3610POPC   PO447640  37.133  44.418   5.439
 3610POPC   GL147641  37.112  44.087   5.785
 3610POPC   GL247642  36.802  43.864   5.884
 3610POPC   C1A47643  37.098  43.988   6.252
 3610POPC   D2A47644  36.880  43.756   6.591
 3610POPC   C3A47645  37.024  43.820   7.003
 3610POPC   C4A47646  37.251  43.639   7.316
 3610POPC   C1B47647  36.606  44.092   6.303
 3610POPC   C2B47648  36.742  44.208   6.759
 3610POPC   C3B47649  36.639  44.103   7.223
 3610POPC   C4B47650  36.415  44.070   7.679
 3611POPC   NC347651   4.058   8.288   5.074
 3611POPC   PO447652   3.484   8.215   5.396
 3611POPC   GL147653   3.464   8.296   5.809
 3611POPC   GL247654   3.721   8.073   5.890
 3611POPC   C1A47655   3.327   8.161   6.220
 3611POPC   D2A47656   3.299   7.813   6.512
 3611POPC   C3A47657   3.473   7.865   6.941
 3611POPC   C4A47658   3.366   8.173   7.278
 3611POPC   C1B47659   3.842   8.314   6.250
 3611POPC   C2B47660   3.974   8.170   6.662
 3611POPC   C3B47661   3.804   8.282   7.056
 3611POPC   C4B47662   3.892   8.488   7.432
 3612POPC   NC347663  42.073   9.904   5.412
 3612POPC   PO447664  42.704   9.702   5.321
 3612POPC   GL147665  42.435   9.609   5.672
 3612POPC   GL247666  42.424   9.963   5.797
 3612POPC   C1A47667  42.467   9.596   6.125
 3612POPC   D2A47668  42.417   9.757   6.528
 3612POPC   C3A47669  42.642   9.545   6.863
 3612POPC   C4A47670  42.450   9.604   7.221
 3612POPC   C1B47671  42.125  10.000   6.161
 3612POPC   C2B47672  42.168  10.219   6.540
 3612POPC   C3B47673  42.246  10.034   6.930
 3612POPC   C4B47674  41.955   9.795   7.198
 3613POPC   NC347675   0.296  44.500   5.278
 3613POPC   PO447676   0.546   0.031   5.648
 3613POPC   GL147677   0.404  44.628   5.867
 3613POPC   GL247678   0.136  44.361   5.731
 3613POPC   C1A47679   0.529  44.643   6.325
 3613POPC   D2A47680   0.826  44.769   6.659
 3613POPC   C3A47681   0.709  44.659   7.086
 3613POPC   C4A47682   0.754  44.610   7.538
 3613POPC   C1B47683  44.946  44.525   6.111
 3613POPC   C2B47684   0.081  44.625   6.546
 3613POPC   C3B47685   0.109  44.761   6.977
 3613POPC   C4B47686   0.248  44.547   7.320
 3614POPC   NC347687   6.386  35.301   5.331
 3614POPC   PO447688   6.636  35.927   5.377
 3614POPC   GL147689   6.698  35.694   5.754
 3614POPC   GL247690   6.547  35.359   5.817
 3614POPC   C1A47691   6.730  35.617   6.196
 3614POPC   D2A47692   6.834  35.437   6.579
 3614POPC   C3A47693   6.773  35.673   6.921
 3614POPC   C4A47694   6.636  35.526   7.292
 3614POPC   C1B47695   6.793  35.102   6.159
 3614POPC   C2B47696   6.842  34.923   6.604
 3614POPC   C3B47697   6.734  35.075   6.996
 3614POPC   C4B47698   6.863  35.109   7.397
 3615POPC   NC347699  28.303  25.819   5.477
 3615POPC   PO447700  28.666  26.382   5.480
 3615POPC   GL147701  28.459  26.204   5.870
 3615POPC   GL247702  28.161  26.110   5.887
 3615POPC   C1A47703  28.408  26.030   6.331
 3615POPC   D2A47704  28.684  25.869   6.670
 3615POPC   C3A47705  28.594  26.057   7.093
 3615POPC   C4A47706  28.300  26.335   7.260
 3615POPC   C1B47707  27.902  25.997   6.225
 3615POPC   C2B47708  28.003  25.805   6.618
 3615POPC   C3B47709  28.125  25.886   7.042
 3615POPC   C4B47710  28.400  25.650   7.336
 3616POPC   NC347711  38.901  43.905   5.046
 3616POPC   PO447712  39.581  43.763   5.275
 3616POPC   GL147713  39.310  43.848   5.646
 3616POPC   GL247714  38.958  43.789   5.568
 3616POPC   C1A47715  39.363  44.018   6.103
 3616POPC   D2A47716  39.465  44.163   6.545
 3616POPC   C3A47717  39.172  44.242   6.875
 3616POPC   C4A47718  39.256  44.113   7.333
 3616POPC   C1B47719  38.945  43.741   6.024
 3616POPC   C2B47720  39.042  43.856   6.494
 3616POPC   C3B47721  39.131  43.755   6.945
 3616POPC   C4B47722  38.842  43.779   7.272
 3617POPC   NC347723  38.738  28.774   5.664
 3617POPC   PO447724  38.601  28.111   5.430
 3617POPC   GL147725  38.696  28.287   5.841
 3617POPC   GL247726  38.999  28.103   5.908
 3617POPC   C1A47727  38.489  28.363   6.260
 3617POPC   D2A47728  38.427  28.367   6.725
 3617POPC   C3A47729  38.230  28.406   7.171
 3617POPC   C4A47730  38.243  28.218   7.604
 3617POPC   C1B47731  38.797  27.909   6.265
 3617POPC   C2B47732  38.690  27.935   6.664
 3617POPC   C3B47733  38.567  28.031   7.074
 3617POPC   C4B47734  38.752  28.205   7.427
 3618POPC   NC347735  22.077  22.646   5.348
 3618POPC   PO447736  21.878  23.329   5.477
 3618POPC   GL147737  22.108  23.149   5.826
 3618POPC   GL247738  22.124  22.828   5.807
 3618POPC   C1A47739  22.308  23.097   6.240
 3618POPC   D2A47740  22.014  23.168   6.594
 3618POPC   C3A47741  22.232  23.206   6.962
 3618POPC   C4A47742  22.259  22.961   7.303
 3618POPC   C1B47743  21.905  22.819   6.171
 3618POPC   C2B47744  21.952  22.653   6.577
 3618POPC   C3B47745  21.863  22.809   6.979
 3618POPC   C4B47746  21.870  22.586   7.365
 3619POPC   NC347747  36.275  32.708   5.320
 3619POPC   PO447748  35.852  33.162   5.379
 3619POPC   GL147749  36.046  32.960   5.725
 3619POPC   GL247750  35.907  32.649   5.781
 3619POPC   C1A47751  36.292  33.054   6.112
 3619POPC   D2A47752  36.451  33.240   6.485
 3619POPC   C3A47753  36.389  33.088   6.865
 3619POPC   C4A47754  36.305  33.155   7.256
 3619POPC   C1B47755  35.871  32.762   6.198
 3619POPC   C2B47756  36.144  32.777   6.543
 3619POPC   C3B47757  35.975  32.794   6.950
 3619POPC   C4B47758  35.778  32.650   7.306
 3620POPC   NC347759  20.185  20.912   5.350
 3620POPC   PO447760  20.702  21.317   5.371
 3620POPC   GL147761  20.702  21.432   5.782
 3620POPC   GL247762  20.455  21.148   5.847
 3620POPC   C1A47763  20.680  21.592   6.207
 3620POPC   D2A47764  20.492  21.443   6.593
 3620POPC   C3A47765  20.665  21.627   6.970
 3620POPC   C4A47766  20.570  21.390   7.311
 3620POPC   C1B47767  20.774  21.059   6.153
 3620POPC   C2B47768  20.963  21.267   6.499
 3620POPC   C3B47769  20.986  21.217   6.929
 3620POPC   C4B47770  20.956  20.981   7.290
 3621POPC   NC347771   5.109  28.836   5.083
 3621POPC   PO447772   4.908  28.253   5.453
 3621POPC   GL147773   5.056  28.260   5.871
 3621POPC   GL247774   4.847  28.528   6.020
 3621POPC   C1A47775   5.029  28.157   6.306
 3621POPC   D2A47776   4.942  28.327   6.716
 3621POPC   C3A47777   5.240  28.350   7.053
 3621POPC   C4A47778   5.098  28.231   7.455
 3621POPC   C1B47779   5.212  28.616   6.281
 3621POPC   C2B47780   5.120  28.848   6.624
 3621POPC   C3B47781   4.964  28.774   7.025
 3621POPC   C4B47782   5.205  28.732   7.418
 3622POPC   NC347783  39.171  23.403   5.361
 3622POPC   PO447784  39.131  22.736   5.101
 3622POPC   GL147785  39.226  22.912   5.578
 3622POPC   GL247786  38.926  22.968   5.761
 3622POPC   C1A47787  39.314  23.013   6.090
 3622POPC   D2A47788  39.408  23.245   6.522
 3622POPC   C3A47789  39.501  23.081   6.917
 3622POPC   C4A47790  39.338  22.979   7.292
 3622POPC   C1B47791  38.748  23.038   6.136
 3622POPC   C2B47792  38.980  22.929   6.487
 3622POPC   C3B47793  38.995  22.893   6.905
 3622POPC   C4B47794  38.755  23.016   7.227
 3623POPC   NC347795   1.227   8.770   5.086
 3623POPC   PO447796   0.975   9.210   5.491
 3623POPC   GL147797   1.268   9.178   5.871
 3623POPC   GL247798   1.360   8.821   5.939
 3623POPC   C1A47799   1.204   9.101   6.334
 3623POPC   D2A47800   1.113   8.812   6.675
 3623POPC   C3A47801   1.144   9.139   7.005
 3623POPC   C4A47802   1.367   9.066   7.381
 3623POPC   C1B47803   1.604   8.792   6.341
 3623POPC   C2B47804   1.610   8.905   6.776
 3623POPC   C3B47805   1.595   8.679   7.157
 3623POPC   C4B47806   1.714   8.759   7.580
 3624POPC   NC347807  26.575  42.946   5.541
 3624POPC   PO447808  26.983  43.470   5.573
 3624POPC   GL147809  26.819  43.251   5.915
 3624POPC   GL247810  26.963  42.925   5.905
 3624POPC   C1A47811  26.812  43.191   6.354
 3624POPC   D2A47812  26.572  43.061   6.690
 3624POPC   C3A47813  26.742  43.285   7.020
 3624POPC   C4A47814  26.617  43.439   7.395
 3624POPC   C1B47815  26.675  42.731   6.203
 3624POPC   C2B47816  26.859  42.582   6.573
 3624POPC   C3B47817  27.052  42.867   6.819
 3624POPC   C4B47818  26.971  42.905   7.247
 3625POPC   NC347819  26.607  34.944   5.279
 3625POPC   PO447820  26.698  35.570   5.354
 3625POPC   GL147821  26.594  35.355   5.766
 3625POPC   GL247822  26.298  35.131   5.660
 3625POPC   C1A47823  26.829  35.328   6.213
 3625POPC   D2A47824  27.098  35.307   6.632
 3625POPC   C3A47825  27.007  35.370   7.117
 3625POPC   C4A47826  27.053  35.659   7.476
 3625POPC   C1B47827  26.245  35.129   6.098
 3625POPC   C2B47828  26.467  35.101   6.476
 3625POPC   C3B47829  26.671  35.106   6.845
 3625POPC   C4B47830  26.501  35.101   7.239
 3626POPC   NC347831  32.702  18.465   5.209
 3626POPC   PO447832  33.198  18.085   5.444
 3626POPC   GL147833  32.988  18.169   5.824
 3626POPC   GL247834  32.695  17.941   5.792
 3626POPC   C1A47835  32.989  18.514   6.176
 3626POPC   D2A47836  32.921  18.538   6.600
 3626POPC   C3A47837  33.171  18.571   6.933
 3626POPC   C4A47838  33.068  18.435   7.333
 3626POPC   C1B47839  32.632  18.152   6.185
 3626POPC   C2B47840  32.502  18.248   6.598
 3626POPC   C3B47841  32.687  18.316   7.000
 3626POPC   C4B47842  32.591  18.259   7.419
 3627POPC   NC347843  38.181  28.295   5.576
 3627POPC   PO447844  37.526  28.269   5.309
 3627POPC   GL147845  37.654  28.320   5.759
 3627POPC   GL247846  37.626  28.672   5.864
 3627POPC   C1A47847  37.890  28.278   6.196
 3627POPC   D2A47848  37.923  28.436   6.647
 3627POPC   C3A47849  37.928  28.099   6.909
 3627POPC   C4A47850  37.869  28.076   7.308
 3627POPC   C1B47851  37.593  28.671   6.334
 3627POPC   C2B47852  37.442  28.789   6.720
 3627POPC   C3B47853  37.650  28.734   7.099
 3627POPC   C4B47854  37.368  28.646   7.439
 3628POPC   NC347855  33.999  44.949   5.700
 3628POPC   PO447856  33.442  44.575   5.739
 3628POPC   GL147857  33.823  44.533   5.947
 3628POPC   GL247858  34.042  44.352   5.727
 3628POPC   C1A47859  33.936  44.695   6.349
 3628POPC   D2A47860  34.146  44.755   6.741
 3628POPC   C3A47861  33.848  44.723   7.101
 3628POPC   C4A47862  33.442  44.922   7.181
 3628POPC   C1B47863  34.240  44.302   6.145
 3628POPC   C2B47864  34.082  44.246   6.568
 3628POPC   C3B47865  34.072  44.259   7.001
 3628POPC   C4B47866  33.966  44.366   7.440
 3629POPC   NC347867  11.636  14.363   5.497
 3629POPC   PO447868  11.044  14.635   5.355
 3629POPC   GL147869  11.183  14.426   5.724
 3629POPC   GL247870  11.074  14.108   5.783
 3629POPC   C1A47871  11.421  14.434   6.136
 3629POPC   D2A47872  11.234  14.432   6.551
 3629POPC   C3A47873  11.498  14.431   6.911
 3629POPC   C4A47874  11.310  14.326   7.293
 3629POPC   C1B47875  10.918  14.278   6.145
 3629POPC   C2B47876  10.866  14.050   6.519
 3629POPC   C3B47877  10.921  14.149   6.949
 3629POPC   C4B47878  11.098  13.864   7.265
 3630POPC   NC347879  33.787  39.550   5.352
 3630POPC   PO447880  33.818  38.926   5.563
 3630POPC   GL147881  33.710  39.266   5.819
 3630POPC   GL247882  33.988  39.515   5.811
 3630POPC   C1A47883  33.499  39.312   6.225
 3630POPC   D2A47884  33.454  39.486   6.649
 3630POPC   C3A47885  33.567  39.256   6.998
 3630POPC   C4A47886  33.650  38.862   7.194
 3630POPC   C1B47887  34.010  39.400   6.235
 3630POPC   C2B47888  33.886  39.174   6.578
 3630POPC   C3B47889  34.059  39.043   6.954
 3630POPC   C4B47890  34.055  39.250   7.330
 3631POPC   NC347891  16.100  36.556   5.420
 3631POPC   PO447892  15.672  37.022   5.508
 3631POPC   GL147893  15.832  36.809   5.840
 3631POPC   GL247894  16.102  37.001   5.834
 3631POPC   C1A47895  15.791  36.934   6.279
 3631POPC   D2A47896  15.591  36.997   6.696
 3631POPC   C3A47897  15.728  36.807   7.078
 3631POPC   C4A47898  15.772  36.726   7.531
 3631POPC   C1B47899  16.337  36.967   6.204
 3631POPC   C2B47900  16.208  37.037   6.610
 3631POPC   C3B47901  16.014  37.209   6.946
 3631POPC   C4B47902  16.184  37.080   7.283
 3632POPC   NC347903   6.376   6.054   5.462
 3632POPC   PO447904   6.465   6.751   5.349
 3632POPC   GL147905   6.725   6.706   5.696
 3632POPC   GL247906   6.509   6.448   5.797
 3632POPC   C1A47907   6.796   6.739   6.152
 3632POPC   D2A47908   6.626   6.583   6.522
 3632POPC   C3A47909   6.586   6.827   6.853
 3632POPC   C4A47910   6.557   6.724   7.271
 3632POPC   C1B47911   6.324   6.355   6.186
 3632POPC   C2B47912   6.215   6.262   6.649
 3632POPC   C3B47913   6.494   6.302   7.007
 3632POPC   C4B47914   6.394   6.306   7.486
 3633POPC   NC347915  33.982  31.065   5.423
 3633POPC   PO447916  33.620  31.502   5.372
 3633POPC   GL147917  33.875  31.405   5.797
 3633POPC   GL247918  34.171  31.609   5.923
 3633POPC   C1A47919  33.892  31.322   6.270
 3633POPC   D2A47920  34.053  31.305   6.712
 3633POPC   C3A47921  33.780  31.324   7.094
 3633POPC   C4A47922  33.690  31.064   7.474
 3633POPC   C1B47923  33.910  31.825   6.214
 3633POPC   C2B47924  33.826  31.760   6.661
 3633POPC   C3B47925  34.089  31.725   7.041
 3633POPC   C4B47926  34.060  31.824   7.471
 3634POPC   NC347927  24.155  27.180   5.427
 3634POPC   PO447928  24.580  26.597   5.457
 3634POPC   GL147929  24.465  26.694   5.880
 3634POPC   GL247930  24.134  26.851   5.842
 3634POPC   C1A47931  24.576  26.976   6.252
 3634POPC   D2A47932  24.431  27.114   6.656
 3634POPC   C3A47933  24.704  27.094   7.007
 3634POPC   C4A47934  24.661  27.044   7.424
 3634POPC   C1B47935  24.093  26.804   6.267
 3634POPC   C2B47936  24.244  26.652   6.653
 3634POPC   C3B47937  24.341  26.748   7.088
 3634POPC   C4B47938  24.354  26.693   7.572
 3635POPC   NC347939  43.155  22.792   5.327
 3635POPC   PO447940  42.534  22.905   5.419
 3635POPC   GL147941  42.823  22.758   5.798
 3635POPC   GL247942  43.210  22.677   5.807
 3635POPC   C1A47943  42.988  22.902   6.241
 3635POPC   D2A47944  42.983  23.169   6.645
 3635POPC   C3A47945  42.836  23.017   7.072
 3635POPC   C4A47946  42.953  22.802   7.463
 3635POPC   C1B47947  43.506  22.711   6.111
 3635POPC   C2B47948  43.479  22.920   6.461
 3635POPC   C3B47949  43.516  22.885   6.879
 3635POPC   C4B47950  43.309  22.579   7.093
 3636POPC   NC347951  12.470   7.950   5.462
 3636POPC   PO447952  12.011   8.384   5.334
 3636POPC   GL147953  12.017   8.402   5.789
 3636POPC   GL247954  12.300   8.648   5.817
 3636POPC   C1A47955  12.087   8.060   6.136
 3636POPC   D2A47956  12.272   7.950   6.564
 3636POPC   C3A47957  12.007   8.072   6.929
 3636POPC   C4A47958  11.851   8.026   7.338
 3636POPC   C1B47959  12.318   8.511   6.235
 3636POPC   C2B47960  12.243   8.634   6.659
 3636POPC   C3B47961  12.440   8.328   6.926
 3636POPC   C4B47962  12.324   8.209   7.340
 3637POPC   NC347963  15.699  17.437   5.339
 3637POPC   PO447964  16.236  17.877   5.464
 3637POPC   GL147965  16.078  17.546   5.716
 3637POPC   GL247966  15.732  17.566   5.829
 3637POPC   C1A47967  16.177  17.457   6.132
 3637POPC   D2A47968  15.980  17.335   6.516
 3637POPC   C3A47969  16.157  17.447   6.907
 3637POPC   C4A47970  15.975  17.384   7.270
 3637POPC   C1B47971  15.510  17.212   6.044
 3637POPC   C2B47972  15.475  17.124   6.490
 3637POPC   C3B47973  15.594  17.391   6.862
 3637POPC   C4B47974  15.484  17.526   7.280
 3638POPC   NC347975  12.471  27.000   5.573
 3638POPC   PO447976  11.842  26.988   5.404
 3638POPC   GL147977  12.034  26.900   5.815
 3638POPC   GL247978  12.315  26.617   5.871
 3638POPC   C1A47979  12.179  26.985   6.204
 3638POPC   D2A47980  12.205  27.226   6.542
 3638POPC   C3A47981  12.074  26.934   6.815
 3638POPC   C4A47982  12.040  26.846   7.212
 3638POPC   C1B47983  12.616  26.642   6.212
 3638POPC   C2B47984  12.670  26.446   6.636
 3638POPC   C3B47985  12.447  26.593   6.992
 3638POPC   C4B47986  12.343  26.445   7.389
 3639POPC   NC347987  44.284  13.281   5.583
 3639POPC   PO447988  44.649  12.759   5.318
 3639POPC   GL147989  44.699  12.717   5.764
 3639POPC   GL247990  44.852  12.378   5.764
 3639POPC   C1A47991  44.674  12.947   6.218
 3639POPC   D2A47992  44.933  13.040   6.638
 3639POPC   C3A47993  44.830  13.103   7.116
 3639POPC   C4A47994  44.973  12.964   7.547
 3639POPC   C1B47995  44.695  12.416   6.170
 3639POPC   C2B47996  44.743  12.557   6.578
 3639POPC   C3B47997  44.958  12.623   6.950
 3639POPC   C4B47998  44.693  12.592   7.300
 3640POPC   NC347999  26.157  44.497   5.252
 3640POPC   PO448000  25.692  44.839   5.590
 3640POPC   GL148001  26.114  44.635   5.790
 3640POPC   GL248002  26.501  44.781   5.794
 3640POPC   C1A48003  26.336  44.476   6.183
 3640POPC   D2A48004  26.395  44.290   6.605
 3640POPC   C3A48005  26.222  44.551   6.954
 3640POPC   C4A48006  25.845  44.593   7.185
 3640POPC   C1B48007  26.325  44.998   6.132
 3640POPC   C2B48008  25.971  44.949   6.405
 3640POPC   C3B48009  25.899  44.955   6.841
 3640POPC   C4B48010  26.147   0.034   7.220
 3641POPC   NC348011  35.734  42.898   5.162
 3641POPC   PO448012  35.409  42.353   5.312
 3641POPC   GL148013  35.465  42.366   5.718
 3641POPC   GL248014  35.653  42.113   5.806
 3641POPC   C1A48015  35.381  42.402   6.151
 3641POPC   D2A48016  35.216  42.610   6.510
 3641POPC   C3A48017  35.283  42.371   6.871
 3641POPC   C4A48018  35.278  42.363   7.326
 3641POPC   C1B48019  35.717  42.014   6.228
 3641POPC   C2B48020  35.726  42.294   6.566
 3641POPC   C3B48021  35.759  42.206   6.976
 3641POPC   C4B48022  35.436  41.915   7.132
 3642POPC   NC348023  36.594  32.017   5.407
 3642POPC   PO448024  35.940  32.379   5.335
 3642POPC   GL148025  36.053  32.162   5.719
 3642POPC   GL248026  36.336  32.366   5.695
 3642POPC   C1A48027  36.038  32.104   6.193
 3642POPC   D2A48028  35.887  32.346   6.568
 3642POPC   C3A48029  35.900  32.238   7.021
 3642POPC   C4A48030  36.029  31.856   7.210
 3642POPC   C1B48031  36.338  32.534   6.099
 3642POPC   C2B48032  36.417  32.336   6.481
 3642POPC   C3B48033  36.356  32.449   6.893
 3642POPC   C4B48034  36.285  32.583   7.316
 3643POPC   NC348035  20.371  29.785   5.324
 3643POPC   PO448036  20.812  30.229   5.324
 3643POPC   GL148037  20.578  30.053   5.711
 3643POPC   GL248038  20.771  30.201   5.938
 3643POPC   C1A48039  20.517  29.822   6.160
 3643POPC   D2A48040  20.781  29.725   6.573
 3643POPC   C3A48041  20.724  29.824   7.017
 3643POPC   C4A48042  20.383  29.598   7.189
 3643POPC   C1B48043  20.840  30.179   6.355
 3643POPC   C2B48044  20.639  30.245   6.708
 3643POPC   C3B48045  20.732  30.384   7.084
 3643POPC   C4B48046  20.822  30.170   7.401
 3644POPC   NC348047  29.818   6.892   5.447
 3644POPC   PO448048  29.802   6.271   5.418
 3644POPC   GL148049  29.769   6.545   5.809
 3644POPC   GL248050  29.572   6.869   5.889
 3644POPC   C1A48051  30.026   6.804   6.144
 3644POPC   D2A48052  29.939   6.861   6.609
 3644POPC   C3A48053  30.169   6.746   6.986
 3644POPC   C4A48054  30.188   6.388   7.296
 3644POPC   C1B48055  29.603   6.574   6.275
 3644POPC   C2B48056  29.775   6.346   6.611
 3644POPC   C3B48057  29.755   6.439   7.022
 3644POPC   C4B48058  29.686   6.782   7.214
 3645POPC   NC348059  24.547  12.666   5.484
 3645POPC   PO448060  24.083  13.050   5.258
 3645POPC   GL148061  24.359  13.088   5.689
 3645POPC   GL248062  24.414  12.790   5.956
 3645POPC   C1A48063  24.666  13.219   6.030
 3645POPC   D2A48064  24.704  13.106   6.470
 3645POPC   C3A48065  24.329  12.950   6.684
 3645POPC   C4A48066  24.297  12.961   7.138
 3645POPC   C1B48067  24.235  12.572   6.312
 3645POPC   C2B48068  24.243  12.439   6.764
 3645POPC   C3B48069  24.230  12.359   7.204
 3645POPC   C4B48070  24.072  12.211   7.612
 3646POPC   NC348071   2.918  19.684   5.175
 3646POPC   PO448072   3.512  19.895   5.459
 3646POPC   GL148073   3.652  19.860   5.886
 3646POPC   GL248074   3.565  19.502   5.863
 3646POPC   C1A48075   3.831  19.966   6.337
 3646POPC   D2A48076   3.680  20.030   6.807
 3646POPC   C3A48077   3.823  20.067   7.255
 3646POPC   C4A48078   3.800  20.151   7.721
 3646POPC   C1B48079   3.453  19.608   6.262
 3646POPC   C2B48080   3.630  19.546   6.626
 3646POPC   C3B48081   3.320  19.635   6.957
 3646POPC   C4B48082   3.351  19.822   7.335
 3647POPC   NC348083  26.727   6.924   5.497
 3647POPC   PO448084  27.223   6.375   5.485
 3647POPC   GL148085  26.936   6.580   5.801
 3647POPC   GL248086  27.087   6.920   5.873
 3647POPC   C1A48087  26.642   6.803   6.150
 3647POPC   D2A48088  26.472   6.655   6.572
 3647POPC   C3A48089  26.637   6.710   7.001
 3647POPC   C4A48090  26.539   6.543   7.466
 3647POPC   C1B48091  27.110   6.684   6.277
 3647POPC   C2B48092  27.185   6.883   6.664
 3647POPC   C3B48093  27.099   6.945   7.080
 3647POPC   C4B48094  27.016   6.665   7.404
 3648POPC   NC348095   4.765  11.690   5.546
 3648POPC   PO448096   5.462  11.497   5.475
 3648POPC   GL148097   5.343  11.363   5.909
 3648POPC   GL248098   4.956  11.343   5.901
 3648POPC   C1A48099   5.373  11.166   6.332
 3648POPC   D2A48100   5.143  11.253   6.740
 3648POPC   C3A48101   5.282  11.067   7.158
 3648POPC   C4A48102   5.482  11.036   7.593
 3648POPC   C1B48103   4.669  11.296   6.237
 3648POPC   C2B48104   4.641  11.117   6.618
 3648POPC   C3B48105   4.684  11.279   7.028
 3648POPC   C4B48106   5.032  11.508   7.178
 3649POPC   NC348107  38.282  34.400   5.494
 3649POPC   PO448108  38.635  33.767   5.348
 3649POPC   GL148109  38.359  33.912   5.698
 3649POPC   GL248110  38.650  34.086   5.844
 3649POPC   C1A48111  38.244  34.015   6.138
 3649POPC   D2A48112  38.290  33.821   6.550
 3649POPC   C3A48113  38.468  34.033   6.888
 3649POPC   C4A48114  38.316  33.906   7.281
 3649POPC   C1B48115  38.744  33.852   6.264
 3649POPC   C2B48116  38.831  33.720   6.701
 3649POPC   C3B48117  38.839  33.789   7.151
 3649POPC   C4B48118  38.756  34.178   7.340
 3650POPC   NC348119  30.948  38.021   5.468
 3650POPC   PO448120  30.583  37.539   5.708
 3650POPC   GL148121  30.859  37.731   5.922
 3650POPC   GL248122  30.714  38.043   5.911
 3650POPC   C1A48123  30.726  37.718   6.379
 3650POPC   D2A48124  30.645  37.339   6.654
 3650POPC   C3A48125  30.464  37.418   7.049
 3650POPC   C4A48126  30.395  37.800   7.235
 3650POPC   C1B48127  31.095  38.049   6.223
 3650POPC   C2B48128  31.012  38.059   6.671
 3650POPC   C3B48129  30.845  37.811   7.006
 3650POPC   C4B48130  30.819  37.984   7.436
 3651POPC   NC348131   2.149  40.140   5.253
 3651POPC   PO448132   1.704  39.640   5.212
 3651POPC   GL148133   1.910  39.874   5.655
 3651POPC   GL248134   1.781  39.703   5.942
 3651POPC   C1A48135   2.050  40.059   6.146
 3651POPC   D2A48136   1.867  40.085   6.593
 3651POPC   C3A48137   2.139  40.060   6.954
 3651POPC   C4A48138   2.402  39.968   7.310
 3651POPC   C1B48139   1.981  39.423   6.249
 3651POPC   C2B48140   1.895  39.363   6.623
 3651POPC   C3B48141   1.826  39.648   6.906
 3651POPC   C4B48142   2.056  39.611   7.266
 3652POPC   NC348143  35.390   4.702   5.408
 3652POPC   PO448144  35.441   5.340   5.295
 3652POPC   GL148145  35.421   5.306   5.760
 3652POPC   GL248146  35.514   4.963   5.822
 3652POPC   C1A48147  35.304   5.166   6.218
 3652POPC   D2A48148  35.513   5.115   6.613
 3652POPC   C3A48149  35.302   5.239   6.945
 3652POPC   C4A48150  35.195   4.949   7.241
 3652POPC   C1B48151  35.621   4.736   6.199
 3652POPC   C2B48152  35.591   4.631   6.659
 3652POPC   C3B48153  35.652   4.809   7.101
 3652POPC   C4B48154  35.575   4.603   7.538
 3653POPC   NC348155  34.276  40.480   5.518
 3653POPC   PO448156  34.564  41.038   5.220
 3653POPC   GL148157  34.533  40.904   5.715
 3653POPC   GL248158  34.502  40.612   5.961
 3653POPC   C1A48159  34.684  41.041   6.137
 3653POPC   D2A48160  34.967  40.916   6.477
 3653POPC   C3A48161  34.777  40.850   6.917
 3653POPC   C4A48162  34.886  40.692   7.328
 3653POPC   C1B48163  34.507  40.679   6.426
 3653POPC   C2B48164  34.440  40.476   6.795
 3653POPC   C3B48165  34.389  40.608   7.184
 3653POPC   C4B48166  34.083  40.394   7.395
 3654POPC   NC348167  10.310  44.934   5.363
 3654POPC   PO448168  10.746  44.444   5.294
 3654POPC   GL148169  10.531  44.562   5.687
 3654POPC   GL248170  10.161  44.562   5.666
 3654POPC   C1A48171  10.526  44.648   6.151
 3654POPC   D2A48172  10.460  44.865   6.546
 3654POPC   C3A48173  10.505  44.657   6.936
 3654POPC   C4A48174  10.543  44.915   7.320
 3654POPC   C1B48175  10.043  44.555   6.077
 3654POPC   C2B48176  10.164  44.441   6.482
 3654POPC   C3B48177   9.995  44.434   6.891
 3654POPC   C4B48178  10.131  44.578   7.259
 3655POPC   NC348179  23.533   9.133   5.485
 3655POPC   PO448180  23.921   8.641   5.625
 3655POPC   GL148181  23.519   8.624   5.837
 3655POPC   GL248182  23.575   8.938   5.949
 3655POPC   C1A48183  23.368   8.641   6.290
 3655POPC   D2A48184  23.498   8.892   6.664
 3655POPC   C3A48185  23.772   8.783   6.990
 3655POPC   C4A48186  23.559   8.785   7.388
 3655POPC   C1B48187  23.780   9.133   6.301
 3655POPC   C2B48188  23.664   9.385   6.676
 3655POPC   C3B48189  23.518   9.237   7.093
 3655POPC   C4B48190  23.910   9.148   7.316
 3656POPC   NC348191  30.645  39.389   5.286
 3656POPC   PO448192  31.223  38.983   5.144
 3656POPC   GL148193  31.019  39.056   5.622
 3656POPC   GL248194  30.860  39.355   5.754
 3656POPC   C1A48195  31.005  38.928   6.085
 3656POPC   D2A48196  30.712  38.861   6.445
 3656POPC   C3A48197  30.796  38.838   6.869
 3656POPC   C4A48198  30.934  39.205   7.091
 3656POPC   C1B48199  30.646  39.289   6.146
 3656POPC   C2B48200  30.763  39.330   6.589
 3656POPC   C3B48201  30.475  39.256   6.906
 3656POPC   C4B48202  30.596  39.655   7.134
 3657POPC   NC348203  44.500  32.368   5.469
 3657POPC   PO448204  44.930  31.890   5.439
 3657POPC   GL148205  44.833  32.128   5.785
 3657POPC   GL248206  44.504  32.048   5.861
 3657POPC   C1A48207  44.843  32.393   6.148
 3657POPC   D2A48208   0.001  32.544   6.547
 3657POPC   C3A48209  44.795  32.341   6.895
 3657POPC   C4A48210  44.793  32.117   7.285
 3657POPC   C1B48211  44.309  32.312   6.160
 3657POPC   C2B48212  44.390  32.213   6.592
 3657POPC   C3B48213  44.462  31.933   6.921
 3657POPC   C4B48214  44.388  31.703   7.275
 3658POPC   NC348215  34.222  42.785   5.480
 3658POPC   PO448216  33.679  43.119   5.185
 3658POPC   GL148217  33.739  43.313   5.630
 3658POPC   GL248218  33.911  43.043   5.838
 3658POPC   C1A48219  33.829  43.474   6.069
 3658POPC   D2A48220  33.848  43.172   6.426
 3658POPC   C3A48221  33.867  43.272   6.857
 3658POPC   C4A48222  33.743  43.252   7.297
 3658POPC   C1B48223  34.125  42.795   6.166
 3658POPC   C2B48224  34.012  42.732   6.624
 3658POPC   C3B48225  34.152  42.867   7.015
 3658POPC   C4B48226  34.066  42.824   7.470
 3659POPC   NC348227  40.368  37.034   5.481
 3659POPC   PO448228  39.705  36.922   5.328
 3659POPC   GL148229  39.901  36.936   5.766
 3659POPC   GL248230  40.220  37.002   5.966
 3659POPC   C1A48231  39.783  36.940   6.216
 3659POPC   D2A48232  39.771  36.673   6.602
 3659POPC   C3A48233  39.841  36.874   7.031
 3659POPC   C4A48234  39.786  36.869   7.535
 3659POPC   C1B48235  40.228  36.703   6.335
 3659POPC   C2B48236  40.262  36.683   6.800
 3659POPC   C3B48237  40.328  37.048   7.115
 3659POPC   C4B48238  40.209  37.133   7.550
 3660POPC   NC348239  11.400  10.318   5.387
 3660POPC   PO448240  11.338   9.687   5.102
 3660POPC   GL148241  11.227   9.858   5.586
 3660POPC   GL248242  11.499   9.968   5.808
 3660POPC   C1A48243  11.111   9.849   6.078
 3660POPC   D2A48244  11.266   9.934   6.500
 3660POPC   C3A48245  11.104   9.698   6.873
 3660POPC   C4A48246  11.011   9.700   7.305
 3660POPC   C1B48247  11.609   9.673   6.115
 3660POPC   C2B48248  11.735   9.725   6.507
 3660POPC   C3B48249  11.594   9.831   6.895
 3660POPC   C4B48250  11.513   9.695   7.302
 3661POPC   NC348251   0.242   3.000   5.317
 3661POPC   PO448252   0.108   2.327   5.343
 3661POPC   GL148253   0.284   2.416   5.741
 3661POPC   GL248254   0.471   2.762   5.767
 3661POPC   C1A48255   0.159   2.377   6.162
 3661POPC   D2A48256   0.134   2.464   6.616
 3661POPC   C3A48257   0.504   2.450   6.898
 3661POPC   C4A48258   0.553   2.438   7.349
 3661POPC   C1B48259   0.579   2.702   6.218
 3661POPC   C2B48260   0.435   2.899   6.606
 3661POPC   C3B48261   0.209   2.852   7.006
 3661POPC   C4B48262   0.338   2.891   7.437
 3662POPC   NC348263  36.090   6.820   5.370
 3662POPC   PO448264  36.521   6.374   5.603
 3662POPC   GL148265  36.193   6.606   5.844
 3662POPC   GL248266  36.137   6.975   5.853
 3662POPC   C1A48267  36.050   6.655   6.269
 3662POPC   D2A48268  35.919   6.477   6.654
 3662POPC   C3A48269  36.145   6.539   7.000
 3662POPC   C4A48270  36.224   6.322   7.391
 3662POPC   C1B48271  36.304   7.084   6.268
 3662POPC   C2B48272  36.348   6.924   6.698
 3662POPC   C3B48273  36.279   6.991   7.163
 3662POPC   C4B48274  36.330   6.855   7.604
 3663POPC   NC348275  41.911  38.519   5.132
 3663POPC   PO448276  42.450  38.821   5.309
 3663POPC   GL148277  42.426  38.506   5.703
 3663POPC   GL248278  42.088  38.406   5.735
 3663POPC   C1A48279  42.484  38.261   6.157
 3663POPC   D2A48280  42.511  38.182   6.656
 3663POPC   C3A48281  42.349  38.383   7.040
 3663POPC   C4A48282  42.374  38.715   7.362
 3663POPC   C1B48283  42.037  38.502   6.194
 3663POPC   C2B48284  42.015  38.447   6.668
 3663POPC   C3B48285  41.951  38.686   7.092
 3663POPC   C4B48286  41.946  38.505   7.543
 3664POPC   NC348287  39.947  28.195   5.300
 3664POPC   PO448288  40.261  28.751   5.532
 3664POPC   GL148289  39.981  28.555   5.844
 3664POPC   GL248290  39.967  28.215   5.803
 3664POPC   C1A48291  39.977  28.453   6.297
 3664POPC   D2A48292  40.320  28.360   6.591
 3664POPC   C3A48293  40.265  28.461   7.024
 3664POPC   C4A48294  40.460  28.228   7.350
 3664POPC   C1B48295  39.801  28.000   6.140
 3664POPC   C2B48296  39.735  27.963   6.576
 3664POPC   C3B48297  39.916  28.067   6.994
 3664POPC   C4B48298  39.800  28.397   7.294
 3665POPC   NC348299  21.728   4.667   5.711
 3665POPC   PO448300  21.145   4.498   5.439
 3665POPC   GL148301  21.364   4.304   5.802
 3665POPC   GL248302  21.514   3.985   5.713
 3665POPC   C1A48303  21.441   4.463   6.249
 3665POPC   D2A48304  21.274   4.622   6.631
 3665POPC   C3A48305  21.465   4.513   7.022
 3665POPC   C4A48306  21.347   4.510   7.450
 3665POPC   C1B48307  21.509   3.964   6.171
 3665POPC   C2B48308  21.363   3.855   6.595
 3665POPC   C3B48309  21.559   3.779   6.965
 3665POPC   C4B48310  21.544   4.057   7.291
 3666POPC   NC348311  12.853  15.045   5.687
 3666POPC   PO448312  12.769  14.500   5.280
 3666POPC   GL148313  12.992  14.547   5.702
 3666POPC   GL248314  12.888  14.310   5.942
 3666POPC   C1A48315  13.182  14.695   6.117
 3666POPC   D2A48316  13.047  14.890   6.499
 3666POPC   C3A48317  13.032  14.623   6.877
 3666POPC   C4A48318  12.718  14.600   7.203
 3666POPC   C1B48319  12.679  14.580   6.274
 3666POPC   C2B48320  12.553  14.516   6.705
 3666POPC   C3B48321  12.516  14.183   6.992
 3666POPC   C4B48322  12.588  14.164   7.430
 3667POPC   NC348323   6.440  30.636   5.237
 3667POPC   PO448324   7.075  30.799   5.301
 3667POPC   GL148325   6.793  30.630   5.699
 3667POPC   GL248326   6.432  30.616   5.767
 3667POPC   C1A48327   6.775  30.708   6.187
 3667POPC   D2A48328   6.939  30.939   6.555
 3667POPC   C3A48329   6.860  30.726   6.938
 3667POPC   C4A48330   6.679  30.857   7.302
 3667POPC   C1B48331   6.358  30.409   6.175
 3667POPC   C2B48332   6.493  30.521   6.585
 3667POPC   C3B48333   6.265  30.598   6.990
 3667POPC   C4B48334   6.250  30.643   7.441
 3668POPC   NC348335  17.160  44.605   5.474
 3668POPC   PO448336  17.598  44.125   5.464
 3668POPC   GL148337  17.648  44.506   5.772
 3668POPC   GL248338  17.377  44.669   5.931
 3668POPC   C1A48339  17.803  44.803   6.181
 3668POPC   D2A48340  17.938  44.776   6.644
 3668POPC   C3A48341  17.645  44.822   7.042
 3668POPC   C4A48342  17.188  44.783   7.163
 3668POPC   C1B48343  17.536  44.382   6.270
 3668POPC   C2B48344  17.557  44.406   6.730
 3668POPC   C3B48345  17.463  44.345   7.189
 3668POPC   C4B48346  17.524  44.196   7.643
 3669POPC   NC348347  38.126  17.928   5.583
 3669POPC   PO448348  37.643  17.481   5.278
 3669POPC   GL148349  37.777  17.570   5.719
 3669POPC   GL248350  37.502  17.627   5.882
 3669POPC   C1A48351  37.952  17.404   6.128
 3669POPC   D2A48352  37.891  17.283   6.565
 3669POPC   C3A48353  37.756  17.604   6.894
 3669POPC   C4A48354  37.964  17.837   7.263
 3669POPC   C1B48355  37.450  17.419   6.268
 3669POPC   C2B48356  37.389  17.261   6.673
 3669POPC   C3B48357  37.285  17.436   7.056
 3669POPC   C4B48358  37.396  17.818   7.255
 3670POPC   NC348359  27.979  28.147   5.506
 3670POPC   PO448360  27.405  28.400   5.219
 3670POPC   GL148361  27.595  28.418   5.681
 3670POPC   GL248362  27.628  28.055   5.872
 3670POPC   C1A48363  27.793  28.469   6.109
 3670POPC   D2A48364  27.603  28.413   6.516
 3670POPC   C3A48365  27.735  28.435   6.940
 3670POPC   C4A48366  28.083  28.202   7.144
 3670POPC   C1B48367  27.377  27.998   6.284
 3670POPC   C2B48368  27.248  28.107   6.728
 3670POPC   C3B48369  27.413  28.075   7.135
 3670POPC   C4B48370  27.240  28.184   7.530
 3671POPC   NC348371  28.597  44.433   5.351
 3671POPC   PO448372  28.359   0.056   5.274
 3671POPC   GL148373  28.321  44.727   5.680
 3671POPC   GL248374  28.628  44.595   5.841
 3671POPC   C1A48375  28.232  44.453   6.097
 3671POPC   D2A48376  28.111  44.589   6.506
 3671POPC   C3A48377  28.229  44.444   6.944
 3671POPC   C4A48378  28.276  44.587   7.377
 3671POPC   C1B48379  28.571  44.816   6.259
 3671POPC   C2B48380  28.513  44.853   6.712
 3671POPC   C3B48381  28.709  44.664   7.107
 3671POPC   C4B48382  28.704  44.801   7.563
 3672POPC   NC348383  17.603  10.050   5.358
 3672POPC   PO448384  17.266   9.469   5.291
 3672POPC   GL148385  17.363   9.478   5.744
 3672POPC   GL248386  17.454   9.820   5.796
 3672POPC   C1A48387  17.327   9.524   6.217
 3672POPC   D2A48388  17.172   9.376   6.648
 3672POPC   C3A48389  17.378   9.554   6.996
 3672POPC   C4A48390  17.350   9.593   7.430
 3672POPC   C1B48391  17.644   9.954   6.201
 3672POPC   C2B48392  17.525   9.877   6.621
 3672POPC   C3B48393  17.618  10.031   7.032
 3672POPC   C4B48394  17.532  10.088   7.455
 3673POPC   NC348395  24.150  10.943   5.407
 3673POPC   PO448396  24.632  10.427   5.446
 3673POPC   GL148397  24.506  10.617   5.782
 3673POPC   GL248398  24.412  10.289   5.930
 3673POPC   C1A48399  24.607  10.662   6.205
 3673POPC   D2A48400  24.495  10.341   6.464
 3673POPC   C3A48401  24.422  10.540   6.827
 3673POPC   C4A48402  24.591  10.447   7.189
 3673POPC   C1B48403  24.115  10.593   6.129
 3673POPC   C2B48404  24.102  10.823   6.496
 3673POPC   C3B48405  23.976  10.816   6.917
 3673POPC   C4B48406  24.126  10.615   7.263
 3674POPC   NC348407  39.835  23.743   5.604
 3674POPC   PO448408  40.501  23.441   5.476
 3674POPC   GL148409  40.305  23.602   5.831
 3674POPC   GL248410  40.050  23.379   5.916
 3674POPC   C1A48411  40.178  23.817   6.217
 3674POPC   D2A48412  40.176  23.689   6.641
 3674POPC   C3A48413  40.041  23.977   6.933
 3674POPC   C4A48414  39.819  23.901   7.334
 3674POPC   C1B48415  39.712  23.477   6.188
 3674POPC   C2B48416  39.666  23.714   6.533
 3674POPC   C3B48417  39.724  23.558   6.921
 3674POPC   C4B48418  39.569  23.447   7.304
 3675POPC   NC348419  40.790  37.671   5.339
 3675POPC   PO448420  40.804  36.943   5.339
 3675POPC   GL148421  40.732  37.305   5.686
 3675POPC   GL248422  41.028  37.505   5.790
 3675POPC   C1A48423  40.595  37.324   6.143
 3675POPC   D2A48424  40.766  37.409   6.580
 3675POPC   C3A48425  40.604  37.531   6.971
 3675POPC   C4A48426  40.477  37.974   7.125
 3675POPC   C1B48427  41.103  37.604   6.252
 3675POPC   C2B48428  41.148  37.825   6.687
 3675POPC   C3B48429  40.973  37.825   7.165
 3675POPC   C4B48430  41.177  37.829   7.603
 3676POPC   NC348431  40.611  34.233   5.338
 3676POPC   PO448432  40.847  33.621   5.259
 3676POPC   GL148433  40.742  33.877   5.739
 3676POPC   GL248434  41.025  33.733   6.020
 3676POPC   C1A48435  40.709  34.070   6.207
 3676POPC   D2A48436  40.914  33.856   6.589
 3676POPC   C3A48437  40.750  33.928   7.032
 3676POPC   C4A48438  40.556  33.816   7.473
 3676POPC   C1B48439  41.223  33.420   6.313
 3676POPC   C2B48440  40.950  33.198   6.567
 3676POPC   C3B48441  40.914  33.416   6.911
 3676POPC   C4B48442  40.944  33.538   7.304
 3677POPC   NC348443   0.793  41.064   5.470
 3677POPC   PO448444   0.524  41.676   5.401
 3677POPC   GL148445   0.419  41.562   5.793
 3677POPC   GL248446   0.291  41.917   5.831
 3677POPC   C1A48447   0.343  41.409   6.208
 3677POPC   D2A48448   0.166  41.565   6.583
 3677POPC   C3A48449   0.272  41.422   7.005
 3677POPC   C4A48450   0.330  41.315   7.440
 3677POPC   C1B48451   0.583  41.870   6.179
 3677POPC   C2B48452   0.679  41.667   6.550
 3677POPC   C3B48453   0.923  41.792   6.900
 3677POPC   C4B48454   0.667  41.709   7.234
 3678POPC   NC348455  38.167  44.887   5.464
 3678POPC   PO448456  38.195  44.162   5.461
 3678POPC   GL148457  38.366  44.381   5.861
 3678POPC   GL248458  38.449  44.723   5.868
 3678POPC   C1A48459  38.479  44.430   6.300
 3678POPC   D2A48460  38.262  44.579   6.674
 3678POPC   C3A48461  38.415  44.672   7.095
 3678POPC   C4A48462  38.152  44.626   7.470
 3678POPC   C1B48463  38.745  44.864   6.219
 3678POPC   C2B48464  39.050   0.008   6.566
 3678POPC   C3B48465  38.942  44.937   7.036
 3678POPC   C4B48466  38.602   0.101   7.315
 3679POPC   NC348467  41.272  24.638   4.971
 3679POPC   PO448468  41.610  24.214   5.423
 3679POPC   GL148469  41.493  24.455   5.854
 3679POPC   GL248470  41.132  24.629   5.955
 3679POPC   C1A48471  41.485  24.641   6.292
 3679POPC   D2A48472  41.508  24.870   6.636
 3679POPC   C3A48473  41.554  24.545   6.882
 3679POPC   C4A48474  41.646  24.362   7.248
 3679POPC   C1B48475  41.157  24.252   6.231
 3679POPC   C2B48476  41.297  24.138   6.670
 3679POPC   C3B48477  41.136  24.305   7.100
 3679POPC   C4B48478  41.087  24.612   7.480
 3680POPC   NC348479  43.069  24.859   5.458
 3680POPC   PO448480  43.289  25.527   5.278
 3680POPC   GL148481  43.245  25.442   5.708
 3680POPC   GL248482  42.900  25.270   5.751
 3680POPC   C1A48483  43.180  25.409   6.164
 3680POPC   D2A48484  43.352  25.239   6.552
 3680POPC   C3A48485  43.149  25.432   6.908
 3680POPC   C4A48486  42.934  25.380   7.304
 3680POPC   C1B48487  42.689  25.254   6.168
 3680POPC   C2B48488  42.825  25.150   6.594
 3680POPC   C3B48489  42.827  24.971   7.007
 3680POPC   C4B48490  42.759  24.928   7.470
 3681POPC   NC348491  20.252   6.228   5.715
 3681POPC   PO448492  19.679   6.383   5.351
 3681POPC   GL148493  19.711   6.609   5.747
 3681POPC   GL248494  20.026   6.656   5.820
 3681POPC   C1A48495  19.671   6.817   6.165
 3681POPC   D2A48496  19.534   6.752   6.594
 3681POPC   C3A48497  19.835   6.860   6.907
 3681POPC   C4A48498  19.925   6.549   7.207
 3681POPC   C1B48499  20.185   6.796   6.183
 3681POPC   C2B48500  20.035   6.554   6.504
 3681POPC   C3B48501  20.279   6.480   6.826
 3681POPC   C4B48502  20.331   6.838   7.101
 3682POPC   NC348503  30.095  21.132   5.493
 3682POPC   PO448504  29.563  21.495   5.479
 3682POPC   GL148505  29.821  21.394   5.825
 3682POPC   GL248506  30.042  21.701   5.768
 3682POPC   C1A48507  30.154  21.439   6.177
 3682POPC   D2A48508  30.287  21.378   6.607
 3682POPC   C3A48509  29.947  21.185   6.867
 3682POPC   C4A48510  29.842  21.312   7.284
 3682POPC   C1B48511  29.734  21.763   6.132
 3682POPC   C2B48512  29.743  21.521   6.531
 3682POPC   C3B48513  29.741  21.701   6.964
 3682POPC   C4B48514  29.579  21.704   7.414
 3683POPC   NC348515   9.548  40.595   5.353
 3683POPC   PO448516  10.005  40.965   5.749
 3683POPC   GL148517   9.945  40.649   6.001
 3683POPC   GL248518   9.601  40.620   5.910
 3683POPC   C1A48519  10.072  40.772   6.427
 3683POPC   D2A48520  10.233  40.822   6.832
 3683POPC   C3A48521   9.957  40.969   7.110
 3683POPC   C4A48522   9.927  40.570   7.260
 3683POPC   C1B48523   9.609  40.532   6.385
 3683POPC   C2B48524   9.673  40.658   6.825
 3683POPC   C3B48525   9.442  40.651   7.255
 3683POPC   C4B48526   9.166  40.903   7.563
 3684POPC   NC348527  20.356  44.351   5.531
 3684POPC   PO448528  20.733  44.976   5.397
 3684POPC   GL148529  20.683  44.690   5.753
 3684POPC   GL248530  20.323  44.759   5.830
 3684POPC   C1A48531  20.756  44.409   6.118
 3684POPC   D2A48532  21.031  44.432   6.481
 3684POPC   C3A48533  20.852  44.584   6.856
 3684POPC   C4A48534  20.735  44.806   7.210
 3684POPC   C1B48535  20.261  44.571   6.231
 3684POPC   C2B48536  20.249  44.748   6.644
 3684POPC   C3B48537  20.354  44.524   7.004
 3684POPC   C4B48538  20.372  44.544   7.443
 3685POPC   NC348539  19.784   3.029   5.120
 3685POPC   PO448540  19.769   2.434   5.056
 3685POPC   GL148541  19.888   2.770   5.524
 3685POPC   GL248542  20.124   2.654   5.780
 3685POPC   C1A48543  19.697   2.920   5.963
 3685POPC   D2A48544  19.464   2.742   6.357
 3685POPC   C3A48545  19.483   2.889   6.824
 3685POPC   C4A48546  19.553   2.763   7.271
 3685POPC   C1B48547  20.020   2.609   6.222
 3685POPC   C2B48548  20.171   2.690   6.649
 3685POPC   C3B48549  20.039   2.716   7.083
 3685POPC   C4B48550  19.982   2.900   7.492
 3686POPC   NC348551  28.007  35.437   5.388
 3686POPC   PO448552  28.561  35.125   5.236
 3686POPC   GL148553  28.437  35.328   5.660
 3686POPC   GL248554  28.200  35.140   5.765
 3686POPC   C1A48555  28.309  35.481   6.117
 3686POPC   D2A48556  28.449  35.624   6.539
 3686POPC   C3A48557  28.350  35.486   6.944
 3686POPC   C4A48558  28.308  35.641   7.371
 3686POPC   C1B48559  28.320  34.940   6.175
 3686POPC   C2B48560  28.366  34.923   6.636
 3686POPC   C3B48561  28.192  35.015   7.054
 3686POPC   C4B48562  28.340  35.035   7.459
 3687POPC   NC348563  27.079  39.333   5.384
 3687POPC   PO448564  27.724  39.241   5.326
 3687POPC   GL148565  27.378  39.135   5.729
 3687POPC   GL248566  27.167  39.452   5.873
 3687POPC   C1A48567  27.282  39.072   6.195
 3687POPC   D2A48568  27.443  39.238   6.626
 3687POPC   C3A48569  27.903  39.214   6.765
 3687POPC   C4A48570  27.933  39.007   7.172
 3687POPC   C1B48571  27.426  39.582   6.248
 3687POPC   C2B48572  27.818  39.675   6.505
 3687POPC   C3B48573  27.806  39.668   6.959
 3687POPC   C4B48574  27.469  39.399   7.136
 3688POPC   NC348575  40.433   5.544   5.454
 3688POPC   PO448576  41.007   5.825   5.378
 3688POPC   GL148577  40.815   5.775   5.757
 3688POPC   GL248578  40.500   5.894   5.886
 3688POPC   C1A48579  40.930   5.872   6.178
 3688POPC   D2A48580  41.061   5.983   6.558
 3688POPC   C3A48581  40.926   5.719   6.867
 3688POPC   C4A48582  40.812   5.497   7.209
 3688POPC   C1B48583  40.561   6.198   6.253
 3688POPC   C2B48584  40.551   6.074   6.668
 3688POPC   C3B48585  40.419   5.732   6.921
 3688POPC   C4B48586  40.415   5.828   7.311
 3689POPC   NC348587  23.092  40.471   5.431
 3689POPC   PO448588  22.974  41.125   5.157
 3689POPC   GL148589  23.060  40.999   5.643
 3689POPC   GL248590  22.873  40.698   5.798
 3689POPC   C1A48591  23.037  40.978   6.165
 3689POPC   D2A48592  23.188  40.780   6.584
 3689POPC   C3A48593  23.007  40.888   7.020
 3689POPC   C4A48594  22.636  41.073   7.294
 3689POPC   C1B48595  23.060  40.460   6.161
 3689POPC   C2B48596  22.859  40.386   6.587
 3689POPC   C3B48597  23.098  40.318   6.960
 3689POPC   C4B48598  23.216  40.504   7.325
 3690POPC   NC348599  14.261  13.594   5.240
 3690POPC   PO448600  14.428  14.183   5.477
 3690POPC   GL148601  14.349  13.856   5.754
 3690POPC   GL248602  14.559  13.568   5.781
 3690POPC   C1A48603  14.289  13.897   6.194
 3690POPC   D2A48604  14.218  13.687   6.581
 3690POPC   C3A48605  14.386  13.796   6.997
 3690POPC   C4A48606  14.686  13.741   7.318
 3690POPC   C1B48607  14.428  13.357   6.194
 3690POPC   C2B48608  14.538  13.318   6.663
 3690POPC   C3B48609  14.537  13.288   7.104
 3690POPC   C4B48610  14.613  13.247   7.536
 3691POPC   NC348611  33.872  21.461   5.468
 3691POPC   PO448612  33.326  21.011   5.492
 3691POPC   GL148613  33.640  21.159   5.834
 3691POPC   GL248614  34.014  21.067   5.820
 3691POPC   C1A48615  33.847  21.470   6.132
 3691POPC   D2A48616  34.019  21.543   6.568
 3691POPC   C3A48617  33.660  21.538   6.869
 3691POPC   C4A48618  33.627  21.633   7.331
 3691POPC   C1B48619  34.178  21.101   6.270
 3691POPC   C2B48620  34.104  21.050   6.730
 3691POPC   C3B48621  33.945  21.224   7.139
 3691POPC   C4B48622  33.989  21.171   7.596
 3692POPC   NC348623  34.468  19.321   5.305
 3692POPC   PO448624  34.820  18.785   5.271
 3692POPC   GL148625  34.728  19.074   5.660
 3692POPC   GL248626  34.376  19.005   5.815
 3692POPC   C1A48627  34.699  19.305   6.088
 3692POPC   D2A48628  34.720  19.123   6.503
 3692POPC   C3A48629  34.823  19.256   6.893
 3692POPC   C4A48630  34.526  19.005   7.124
 3692POPC   C1B48631  34.280  18.914   6.284
 3692POPC   C2B48632  34.170  18.826   6.740
 3692POPC   C3B48633  34.124  18.699   7.177
 3692POPC   C4B48634  34.243  18.931   7.541
 3693POPC   NC348635   0.290   3.628   5.505
 3693POPC   PO448636   0.723   3.114   5.378
 3693POPC   GL148637   0.516   3.294   5.808
 3693POPC   GL248638   0.656   3.199   6.128
 3693POPC   C1A48639   0.526   3.701   6.114
 3693POPC   D2A48640   0.381   3.861   6.557
 3693POPC   C3A48641   0.328   3.732   6.988
 3693POPC   C4A48642   0.422   3.766   7.438
 3693POPC   C1B48643   0.264   3.334   6.328
 3693POPC   C2B48644   0.154   3.327   6.737
 3693POPC   C3B48645   0.504   3.264   6.967
 3693POPC   C4B48646   0.691   3.340   7.316
 3694POPC   NC348647  17.467  24.204   5.427
 3694POPC   PO448648  17.227  23.499   5.343
 3694POPC   GL148649  17.361  23.424   5.772
 3694POPC   GL248650  17.489  23.765   5.792
 3694POPC   C1A48651  17.362  23.516   6.208
 3694POPC   D2A48652  17.497  23.571   6.591
 3694POPC   C3A48653  17.243  23.486   6.911
 3694POPC   C4A48654  17.425  23.471   7.295
 3694POPC   C1B48655  17.652  23.948   6.203
 3694POPC   C2B48656  17.545  24.072   6.637
 3694POPC   C3B48657  17.679  23.852   7.011
 3694POPC   C4B48658  17.902  23.958   7.399
 3695POPC   NC348659  13.242  40.559   5.499
 3695POPC   PO448660  13.900  40.429   5.342
 3695POPC   GL148661  13.889  40.617   5.786
 3695POPC   GL248662  13.568  40.742   5.856
 3695POPC   C1A48663  13.838  40.497   6.240
 3695POPC   D2A48664  13.546  40.506   6.610
 3695POPC   C3A48665  13.661  40.666   7.014
 3695POPC   C4A48666  13.689  40.805   7.435
 3695POPC   C1B48667  13.445  40.868   6.279
 3695POPC   C2B48668  13.569  41.070   6.682
 3695POPC   C3B48669  13.765  41.211   7.081
 3695POPC   C4B48670  13.628  41.306   7.533
 3696POPC   NC348671  39.434  36.596   5.109
 3696POPC   PO448672  39.018  36.949   5.504
 3696POPC   GL148673  39.360  36.993   5.749
 3696POPC   GL248674  39.233  36.684   5.903
 3696POPC   C1A48675  39.289  37.059   6.204
 3696POPC   D2A48676  39.265  36.699   6.466
 3696POPC   C3A48677  39.341  36.894   6.832
 3696POPC   C4A48678  39.391  36.961   7.231
 3696POPC   C1B48679  38.848  36.704   6.146
 3696POPC   C2B48680  38.759  36.670   6.580
 3696POPC   C3B48681  38.975  36.559   6.957
 3696POPC   C4B48682  38.901  36.765   7.329
 3697POPC   NC348683  28.554  29.858   5.549
 3697POPC   PO448684  27.965  29.569   5.459
 3697POPC   GL148685  28.115  29.812   5.805
 3697POPC   GL248686  28.278  29.563   5.926
 3697POPC   C1A48687  28.228  29.929   6.264
 3697POPC   D2A48688  28.204  29.759   6.710
 3697POPC   C3A48689  28.102  30.064   7.028
 3697POPC   C4A48690  28.386  30.306   7.313
 3697POPC   C1B48691  28.463  29.473   6.338
 3697POPC   C2B48692  28.718  29.541   6.701
 3697POPC   C3B48693  28.599  29.763   7.063
 3697POPC   C4B48694  28.280  29.607   7.270
 3698POPC   NC348695   2.098  31.291   5.386
 3698POPC   PO448696   1.660  31.713   5.549
 3698POPC   GL148697   2.003  31.556   5.825
 3698POPC   GL248698   2.083  31.192   5.890
 3698POPC   C1A48699   1.889  31.594   6.240
 3698POPC   D2A48700   1.527  31.775   6.423
 3698POPC   C3A48701   1.659  31.771   6.801
 3698POPC   C4A48702   2.038  31.641   7.077
 3698POPC   C1B48703   1.891  31.085   6.278
 3698POPC   C2B48704   1.842  31.208   6.678
 3698POPC   C3B48705   2.007  31.129   7.034
 3698POPC   C4B48706   2.412  31.256   7.138
 3699POPC   NC348707  41.516  14.894   5.573
 3699POPC   PO448708  41.224  14.363   5.322
 3699POPC   GL148709  41.468  14.329   5.731
 3699POPC   GL248710  41.724  14.543   5.891
 3699POPC   C1A48711  41.599  14.122   6.145
 3699POPC   D2A48712  41.679  14.344   6.522
 3699POPC   C3A48713  41.637  14.159   6.928
 3699POPC   C4A48714  41.441  14.210   7.308
 3699POPC   C1B48715  41.955  14.759   6.206
 3699POPC   C2B48716  41.812  14.936   6.599
 3699POPC   C3B48717  41.779  14.655   6.930
 3699POPC   C4B48718  41.795  14.572   7.360
 3700POPC   NC348719  27.302   4.594   5.440
 3700POPC   PO448720  27.804   4.148   5.439
 3700POPC   GL148721  27.747   4.445   5.768
 3700POPC   GL248722  27.478   4.320   5.839
 3700POPC   C1A48723  27.638   4.612   6.220
 3700POPC   D2A48724  27.701   4.804   6.637
 3700POPC   C3A48725  27.983   4.573   6.935
 3700POPC   C4A48726  27.895   4.220   7.192
 3700POPC   C1B48727  27.471   4.066   6.202
 3700POPC   C2B48728  27.350   3.978   6.642
 3700POPC   C3B48729  27.405   4.194   7.036
 3700POPC   C4B48730  27.499   4.645   7.085
 3701POPC   NC348731  35.095  12.658   5.280
 3701POPC   PO448732  34.456  12.831   5.403
 3701POPC   GL148733  34.619  12.736   5.810
 3701POPC   GL248734  34.625  13.084   5.860
 3701POPC   C1A48735  34.659  12.760   6.275
 3701POPC   D2A48736  34.831  12.878   6.658
 3701POPC   C3A48737  34.729  12.727   7.051
 3701POPC   C4A48738  34.847  13.118   7.223
 3701POPC   C1B48739  34.312  13.114   6.190
 3701POPC   C2B48740  34.457  13.217   6.620
 3701POPC   C3B48741  34.373  13.068   7.010
 3701POPC   C4B48742  34.196  13.194   7.383
 3702POPC   NC348743   6.240  36.290   5.321
 3702POPC   PO448744   5.642  35.996   5.458
 3702POPC   GL148745   5.761  36.097   5.828
 3702POPC   GL248746   6.081  36.229   5.838
 3702POPC   C1A48747   5.768  35.946   6.232
 3702POPC   D2A48748   5.637  36.156   6.571
 3702POPC   C3A48749   5.726  35.967   6.959
 3702POPC   C4A48750   5.569  36.271   7.221
 3702POPC   C1B48751   6.154  36.256   6.299
 3702POPC   C2B48752   6.132  36.219   6.758
 3702POPC   C3B48753   6.092  36.316   7.210
 3702POPC   C4B48754   6.283  36.265   7.628
 3703POPC   NC348755  42.495  40.730   5.150
 3703POPC   PO448756  42.030  41.126   5.507
 3703POPC   GL148757  42.144  41.075   5.934
 3703POPC   GL248758  42.311  40.734   5.936
 3703POPC   C1A48759  42.345  41.005   6.345
 3703POPC   D2A48760  42.242  40.715   6.663
 3703POPC   C3A48761  42.484  40.781   7.033
 3703POPC   C4A48762  42.557  41.048   7.390
 3703POPC   C1B48763  42.574  40.529   6.264
 3703POPC   C2B48764  42.658  40.384   6.695
 3703POPC   C3B48765  42.812  40.403   7.115
 3703POPC   C4B48766  42.687  40.487   7.546
 3704POPC   NC348767  30.952  41.729   5.483
 3704POPC   PO448768  31.007  42.400   5.593
 3704POPC   GL148769  30.565  42.396   5.796
 3704POPC   GL248770  30.470  42.022   5.778
 3704POPC   C1A48771  30.457  42.591   6.197
 3704POPC   D2A48772  30.706  42.516   6.565
 3704POPC   C3A48773  30.515  42.595   6.967
 3704POPC   C4A48774  30.685  42.561   7.385
 3704POPC   C1B48775  30.715  42.099   6.186
 3704POPC   C2B48776  30.759  42.017   6.622
 3704POPC   C3B48777  30.902  42.266   6.975
 3704POPC   C4B48778  31.077  42.217   7.370
 3705POPC   NC348779  16.167  34.718   5.416
 3705POPC   PO448780  15.501  34.598   5.418
 3705POPC   GL148781  15.696  34.799   5.752
 3705POPC   GL248782  15.887  34.511   5.841
 3705POPC   C1A48783  15.872  34.877   6.186
 3705POPC   D2A48784  15.915  34.616   6.554
 3705POPC   C3A48785  15.849  34.788   6.968
 3705POPC   C4A48786  16.112  34.737   7.329
 3705POPC   C1B48787  16.142  34.332   6.167
 3705POPC   C2B48788  16.198  34.198   6.596
 3705POPC   C3B48789  15.919  34.271   6.963
 3705POPC   C4B48790  15.907  34.295   7.398
 3706POPC   NC348791   3.589   8.678   5.465
 3706POPC   PO448792   3.881   9.353   5.455
 3706POPC   GL148793   3.677   9.093   5.814
 3706POPC   GL248794   3.749   8.729   5.938
 3706POPC   C1A48795   3.621   9.052   6.287
 3706POPC   D2A48796   3.604   8.747   6.611
 3706POPC   C3A48797   3.522   9.075   6.880
 3706POPC   C4A48798   3.559   9.254   7.264
 3706POPC   C1B48799   3.325   8.669   6.128
 3706POPC   C2B48800   3.070   8.629   6.514
 3706POPC   C3B48801   3.173   8.492   6.931
 3706POPC   C4B48802   3.474   8.685   7.216
 3707POPC   NC348803  33.505  20.536   5.379
 3707POPC   PO448804  34.210  20.667   5.406
 3707POPC   GL148805  33.983  20.551   5.814
 3707POPC   GL248806  33.646  20.637   5.842
 3707POPC   C1A48807  33.889  20.689   6.280
 3707POPC   D2A48808  33.795  20.596   6.718
 3707POPC   C3A48809  34.115  20.637   7.051
 3707POPC   C4A48810  34.019  20.366   7.387
 3707POPC   C1B48811  33.343  20.744   6.119
 3707POPC   C2B48812  33.315  20.751   6.556
 3707POPC   C3B48813  33.541  20.998   6.880
 3707POPC   C4B48814  33.636  20.697   7.211
 3708POPC   NC348815   0.881  38.594   5.046
 3708POPC   PO448816   1.369  38.359   5.521
 3708POPC   GL148817   1.300  38.539   5.891
 3708POPC   GL248818   1.390  38.861   5.776
 3708POPC   C1A48819   1.276  38.476   6.304
 3708POPC   D2A48820   1.581  38.565   6.595
 3708POPC   C3A48821   1.500  38.238   6.864
 3708POPC   C4A48822   1.228  38.241   7.192
 3708POPC   C1B48823   1.401  38.963   6.224
 3708POPC   C2B48824   1.141  38.866   6.605
 3708POPC   C3B48825   1.034  38.687   7.015
 3708POPC   C4B48826   1.204  38.681   7.429
 3709POPC   NC348827  11.810  30.846   5.488
 3709POPC   PO448828  12.355  30.448   5.380
 3709POPC   GL148829  12.043  30.448   5.721
 3709POPC   GL248830  12.227  30.737   5.812
 3709POPC   C1A48831  11.880  30.580   6.158
 3709POPC   D2A48832  11.653  30.483   6.555
 3709POPC   C3A48833  11.637  30.778   6.912
 3709POPC   C4A48834  11.781  30.872   7.320
 3709POPC   C1B48835  12.391  30.794   6.220
 3709POPC   C2B48836  12.157  30.715   6.610
 3709POPC   C3B48837  12.093  30.570   7.032
 3709POPC   C4B48838  12.277  30.881   7.318
 3710POPC   NC348839  37.091  39.629   5.493
 3710POPC   PO448840  36.639  39.091   5.583
 3710POPC   GL148841  36.765  39.182   5.982
 3710POPC   GL248842  37.084  39.229   5.846
 3710POPC   C1A48843  36.984  39.445   6.299
 3710POPC   D2A48844  36.909  39.686   6.663
 3710POPC   C3A48845  36.864  39.428   7.017
 3710POPC   C4A48846  36.847  39.314   7.416
 3710POPC   C1B48847  37.359  39.106   6.193
 3710POPC   C2B48848  37.270  39.121   6.609
 3710POPC   C3B48849  37.167  38.987   6.997
 3710POPC   C4B48850  37.326  39.189   7.310
 3711POPC   NC348851  24.003   2.199   5.394
 3711POPC   PO448852  24.754   2.058   5.346
 3711POPC   GL148853  24.606   1.982   5.777
 3711POPC   GL248854  24.320   2.188   5.811
 3711POPC   C1A48855  24.460   1.862   6.215
 3711POPC   D2A48856  24.471   1.676   6.659
 3711POPC   C3A48857  24.548   1.875   7.093
 3711POPC   C4A48858  24.642   1.727   7.544
 3711POPC   C1B48859  24.223   2.335   6.219
 3711POPC   C2B48860  24.052   2.227   6.627
 3711POPC   C3B48861  24.246   2.303   7.015
 3711POPC   C4B48862  24.149   2.379   7.452
 3712POPC   NC348863   0.935  38.622   5.549
 3712POPC   PO448864   0.526  38.282   5.057
 3712POPC   GL148865   0.507  38.223   5.598
 3712POPC   GL248866   0.516  38.508   5.853
 3712POPC   C1A48867   0.483  38.078   6.104
 3712POPC   D2A48868   0.563  37.961   6.557
 3712POPC   C3A48869   0.352  38.177   6.896
 3712POPC   C4A48870   0.244  38.216   7.353
 3712POPC   C1B48871   0.735  38.526   6.259
 3712POPC   C2B48872   0.660  38.692   6.670
 3712POPC   C3B48873   0.533  38.612   7.105
 3712POPC   C4B48874   0.755  38.365   7.357
 3713POPC   NC348875  38.570  32.010   5.677
 3713POPC   PO448876  38.313  32.689   5.613
 3713POPC   GL148877  38.483  32.502   5.941
 3713POPC   GL248878  38.803  32.432   5.847
 3713POPC   C1A48879  38.420  32.282   6.312
 3713POPC   D2A48880  38.472  32.401   6.717
 3713POPC   C3A48881  38.222  32.164   6.974
 3713POPC   C4A48882  38.388  31.844   7.164
 3713POPC   C1B48883  38.921  32.210   6.237
 3713POPC   C2B48884  38.804  31.979   6.592
 3713POPC   C3B48885  38.802  32.116   6.991
 3713POPC   C4B48886  38.619  32.464   7.202
 3714POPC   NC348887  40.673  20.567   5.457
 3714POPC   PO448888  41.327  20.489   5.391
 3714POPC   GL148889  41.196  20.788   5.711
 3714POPC   GL248890  40.914  20.670   5.893
 3714POPC   C1A48891  41.287  20.873   6.172
 3714POPC   D2A48892  41.206  20.587   6.546
 3714POPC   C3A48893  40.865  20.692   6.860
 3714POPC   C4A48894  40.803  20.743   7.357
 3714POPC   C1B48895  40.588  20.423   6.110
 3714POPC   C2B48896  40.455  20.555   6.513
 3714POPC   C3B48897  40.499  20.360   6.898
 3714POPC   C4B48898  40.379  20.445   7.268
 3715POPC   NC348899  44.289  39.040   5.548
 3715POPC   PO448900  43.947  39.600   5.365
 3715POPC   GL148901  43.850  39.417   5.816
 3715POPC   GL248902  43.607  39.154   5.965
 3715POPC   C1A48903  44.015  39.257   6.254
 3715POPC   D2A48904  43.902  39.371   6.692
 3715POPC   C3A48905  43.989  39.347   7.139
 3715POPC   C4A48906  44.154  39.493   7.529
 3715POPC   C1B48907  43.550  39.476   6.248
 3715POPC   C2B48908  43.386  39.338   6.589
 3715POPC   C3B48909  43.468  39.356   6.984
 3715POPC   C4B48910  43.469  39.055   7.256
 3716POPC   NC348911  20.234   7.356   5.436
 3716POPC   PO448912  20.842   7.624   5.359
 3716POPC   GL148913  20.632   7.446   5.733
 3716POPC   GL248914  20.730   7.110   5.749
 3716POPC   C1A48915  20.435   7.284   6.137
 3716POPC   D2A48916  20.550   7.428   6.529
 3716POPC   C3A48917  20.318   7.297   6.869
 3716POPC   C4A48918  20.411   7.328   7.277
 3716POPC   C1B48919  20.933   7.289   6.128
 3716POPC   C2B48920  21.019   7.202   6.554
 3716POPC   C3B48921  20.910   7.426   6.943
 3716POPC   C4B48922  20.887   7.223   7.352
 3717POPC   NC348923  11.616  38.484   5.559
 3717POPC   PO448924  11.109  38.850   5.364
 3717POPC   GL148925  11.162  38.561   5.765
 3717POPC   GL248926  11.109  38.220   5.778
 3717POPC   C1A48927  11.356  38.522   6.195
 3717POPC   D2A48928  11.334  38.755   6.611
 3717POPC   C3A48929  11.323  38.522   7.002
 3717POPC   C4A48930  11.482  38.142   7.130
 3717POPC   C1B48931  10.966  38.190   6.184
 3717POPC   C2B48932  11.134  38.249   6.590
 3717POPC   C3B48933  10.956  38.161   6.975
 3717POPC   C4B48934  11.043  37.901   7.320
 3718POPC   NC348935  19.743  11.247   5.426
 3718POPC   PO448936  20.210  11.733   5.416
 3718POPC   GL148937  20.224  11.363   5.710
 3718POPC   GL248938  19.895  11.224   5.899
 3718POPC   C1A48939  20.331  11.212   6.132
 3718POPC   D2A48940  20.033  11.098   6.489
 3718POPC   C3A48941  20.123  11.068   6.937
 3718POPC   C4A48942  20.016  11.369   7.320
 3718POPC   C1B48943  19.606  10.997   6.187
 3718POPC   C2B48944  19.548  10.950   6.648
 3718POPC   C3B48945  19.618  11.190   7.040
 3718POPC   C4B48946  19.576  11.061   7.484
 3719POPC   NC348947  35.165  44.203   5.600
 3719POPC   PO448948  35.590  43.771   5.344
 3719POPC   GL148949  35.529  43.740   5.779
 3719POPC   GL248950  35.187  43.768   5.877
 3719POPC   C1A48951  35.597  43.768   6.237
 3719POPC   D2A48952  35.323  43.730   6.640
 3719POPC   C3A48953  35.495  43.651   7.057
 3719POPC   C4A48954  35.635  44.053   7.202
 3719POPC   C1B48955  35.185  44.073   6.256
 3719POPC   C2B48956  34.998  44.129   6.678
 3719POPC   C3B48957  35.085  43.970   7.121
 3719POPC   C4B48958  34.842  44.060   7.506
 3720POPC   NC348959  33.363  11.662   5.511
 3720POPC   PO448960  32.909  12.150   5.231
 3720POPC   GL148961  33.023  12.045   5.670
 3720POPC   GL248962  33.389  12.129   5.727
 3720POPC   C1A48963  32.934  11.878   6.120
 3720POPC   D2A48964  33.003  12.074   6.533
 3720POPC   C3A48965  33.012  11.936   6.971
 3720POPC   C4A48966  32.662  11.940   7.256
 3720POPC   C1B48967  33.449  11.994   6.152
 3720POPC   C2B48968  33.502  12.160   6.577
 3720POPC   C3B48969  33.250  12.384   6.887
 3720POPC   C4B48970  33.394  12.166   7.265
 3721POPC   NC348971  28.822  30.931   5.104
 3721POPC   PO448972  29.279  30.598   5.567
 3721POPC   GL148973  29.214  30.871   5.829
 3721POPC   GL248974  28.942  31.007   5.699
 3721POPC   C1A48975  29.136  30.724   6.246
 3721POPC   D2A48976  29.408  30.522   6.541
 3721POPC   C3A48977  29.184  30.542   6.897
 3721POPC   C4A48978  28.898  30.391   7.180
 3721POPC   C1B48979  28.803  31.085   6.122
 3721POPC   C2B48980  28.749  31.099   6.594
 3721POPC   C3B48981  28.975  31.042   7.016
 3721POPC   C4B48982  29.316  30.880   7.249
 3722POPC   NC348983  37.916  25.458   5.483
 3722POPC   PO448984  37.826  24.817   5.337
 3722POPC   GL148985  37.892  25.002   5.744
 3722POPC   GL248986  37.523  25.036   5.799
 3722POPC   C1A48987  37.929  25.193   6.159
 3722POPC   D2A48988  37.666  25.091   6.508
 3722POPC   C3A48989  37.758  24.987   6.937
 3722POPC   C4A48990  37.803  25.262   7.290
 3722POPC   C1B48991  37.459  25.409   6.064
 3722POPC   C2B48992  37.371  25.515   6.479
 3722POPC   C3B48993  37.427  25.403   6.912
 3722POPC   C4B48994  37.446  25.642   7.287
 3723POPC   NC348995  36.004  17.282   5.473
 3723POPC   PO448996  35.641  16.667   5.464
 3723POPC   GL148997  35.840  16.803   5.864
 3723POPC   GL248998  35.905  16.503   6.063
 3723POPC   C1A48999  36.076  16.943   6.258
 3723POPC   D2A49000  36.026  16.753   6.672
 3723POPC   C3A49001  35.908  16.983   7.025
 3723POPC   C4A49002  36.202  16.848   7.310
 3723POPC   C1B49003  36.332  16.388   6.208
 3723POPC   C2B49004  36.474  16.243   6.614
 3723POPC   C3B49005  36.310  16.435   6.998
 3723POPC   C4B49006  36.274  16.348   7.443
 3724POPC   NC349007  43.224  37.401   5.277
 3724POPC   PO449008  42.967  38.023   5.375
 3724POPC   GL149009  43.085  37.685   5.698
 3724POPC   GL249010  43.464  37.606   5.679
 3724POPC   C1A49011  43.138  37.599   6.171
 3724POPC   D2A49012  42.979  37.433   6.594
 3724POPC   C3A49013  43.045  37.679   7.001
 3724POPC   C4A49014  43.143  38.049   7.231
 3724POPC   C1B49015  43.539  37.329   6.016
 3724POPC   C2B49016  43.620  37.276   6.462
 3724POPC   C3B49017  43.440  37.387   6.852
 3724POPC   C4B49018  43.279  37.291   7.262
 3725POPC   NC349019  26.512   7.661   5.555
 3725POPC   PO449020  27.023   7.332   5.428
 3725POPC   GL149021  26.823   7.352   5.817
 3725POPC   GL249022  26.964   7.648   5.941
 3725POPC   C1A49023  26.569   7.383   6.195
 3725POPC   D2A49024  26.337   7.166   6.525
 3725POPC   C3A49025  26.527   7.239   6.921
 3725POPC   C4A49026  26.643   7.633   7.129
 3725POPC   C1B49027  27.080   7.318   6.275
 3725POPC   C2B49028  26.993   7.370   6.750
 3725POPC   C3B49029  27.144   7.436   7.191
 3725POPC   C4B49030  27.120   7.165   7.574
 3726POPC   NC349031  38.142  20.380   5.346
 3726POPC   PO449032  37.545  20.836   5.495
 3726POPC   GL149033  37.827  20.838   5.815
 3726POPC   GL249034  37.875  20.491   5.780
 3726POPC   C1A49035  37.807  20.890   6.250
 3726POPC   D2A49036  37.463  20.810   6.518
 3726POPC   C3A49037  37.660  20.612   6.842
 3726POPC   C4A49038  37.890  20.658   7.183
 3726POPC   C1B49039  37.653  20.398   6.191
 3726POPC   C2B49040  37.660  20.175   6.594
 3726POPC   C3B49041  37.827  20.158   7.017
 3726POPC   C4B49042  37.516  20.344   7.280
 3727POPC   NC349043  15.455  20.744   5.473
 3727POPC   PO449044  14.956  20.270   5.688
 3727POPC   GL149045  15.335  20.406   5.842
 3727POPC   GL249046  15.169  20.722   5.922
 3727POPC   C1A49047  15.612  20.494   6.198
 3727POPC   D2A49048  15.648  20.318   6.618
 3727POPC   C3A49049  15.425  20.522   6.939
 3727POPC   C4A49050  15.294  20.414   7.380
 3727POPC   C1B49051  15.097  20.460   6.295
 3727POPC   C2B49052  15.080  20.255   6.654
 3727POPC   C3B49053  14.916  20.442   7.029
 3727POPC   C4B49054  15.097  20.861   7.179
 3728POPC   NC349055  44.995   1.062   5.177
 3728POPC   PO449056   0.502   1.443   5.315
 3728POPC   GL149057   0.474   1.365   5.840
 3728POPC   GL249058   0.665   1.219   6.098
 3728POPC   C1A49059   0.237   1.386   6.292
 3728POPC   D2A49060   0.313   1.133   6.690
 3728POPC   C3A49061   0.541   1.213   7.046
 3728POPC   C4A49062   0.781   1.338   7.434
 3728POPC   C1B49063   0.279   0.870   6.251
 3728POPC   C2B49064   0.087   0.667   6.656
 3728POPC   C3B49065   0.109   0.868   7.115
 3728POPC   C4B49066   0.022   0.871   7.582
 3729POPC   NC349067   2.861  41.488   5.450
 3729POPC   PO449068   2.207  41.184   5.590
 3729POPC   GL149069   2.474  41.448   5.841
 3729POPC   GL249070   2.380  41.756   5.952
 3729POPC   C1A49071   2.535  41.386   6.269
 3729POPC   D2A49072   2.684  41.570   6.640
 3729POPC   C3A49073   2.742  41.365   6.993
 3729POPC   C4A49074   2.462  41.136   7.229
 3729POPC   C1B49075   2.674  41.903   6.246
 3729POPC   C2B49076   2.741  42.065   6.683
 3729POPC   C3B49077   2.703  41.874   7.078
 3729POPC   C4B49078   3.056  41.750   7.269
 3730POPC   NC349079  13.849   3.999   5.146
 3730POPC   PO449080  13.303   3.659   5.419
 3730POPC   GL149081  13.501   3.574   5.794
 3730POPC   GL249082  13.816   3.778   5.738
 3730POPC   C1A49083  13.432   3.614   6.245
 3730POPC   D2A49084  13.689   3.786   6.599
 3730POPC   C3A49085  13.540   3.608   6.958
 3730POPC   C4A49086  13.568   3.624   7.393
 3730POPC   C1B49087  13.928   3.634   6.167
 3730POPC   C2B49088  13.802   3.304   6.496
 3730POPC   C3B49089  13.926   3.274   6.954
 3730POPC   C4B49090  14.219   3.407   7.275
 3731POPC   NC349091  23.908  15.364   5.514
 3731POPC   PO449092  23.687  14.712   5.525
 3731POPC   GL149093  23.749  14.997   5.841
 3731POPC   GL249094  23.503  15.306   5.816
 3731POPC   C1A49095  23.924  15.061   6.250
 3731POPC   D2A49096  24.034  15.082   6.681
 3731POPC   C3A49097  23.722  15.370   6.869
 3731POPC   C4A49098  23.577  15.297   7.276
 3731POPC   C1B49099  23.404  15.097   6.213
 3731POPC   C2B49100  23.561  14.910   6.598
 3731POPC   C3B49101  23.697  14.861   7.020
 3731POPC   C4B49102  23.466  14.612   7.304
 3732POPC   NC349103  43.531   6.465   5.272
 3732POPC   PO449104  43.060   6.946   5.196
 3732POPC   GL149105  43.220   6.896   5.721
 3732POPC   GL249106  43.270   6.567   5.834
 3732POPC   C1A49107  42.936   6.861   6.184
 3732POPC   D2A49108  42.764   7.017   6.635
 3732POPC   C3A49109  42.787   6.766   7.056
 3732POPC   C4A49110  43.059   6.438   7.240
 3732POPC   C1B49111  43.431   6.763   6.210
 3732POPC   C2B49112  43.353   6.611   6.622
 3732POPC   C3B49113  43.520   6.539   7.026
 3732POPC   C4B49114  43.282   6.882   7.174
 3733POPC   NC349115  13.164  23.851   5.427
 3733POPC   PO449116  13.862  23.667   5.389
 3733POPC   GL149117  13.704  23.887   5.775
 3733POPC   GL249118  13.365  23.970   5.869
 3733POPC   C1A49119  13.751  24.046   6.178
 3733POPC   D2A49120  13.523  23.853   6.506
 3733POPC   C3A49121  13.604  23.934   6.913
 3733POPC   C4A49122  13.765  23.574   7.106
 3733POPC   C1B49123  13.255  23.579   6.093
 3733POPC   C2B49124  13.321  23.362   6.489
 3733POPC   C3B49125  13.274  23.527   6.901
 3733POPC   C4B49126  13.300  23.711   7.283
 3734POPC   NC349127  23.399  16.288   5.590
 3734POPC   PO449128  23.584  15.678   5.357
 3734POPC   GL149129  23.629  15.836   5.748
 3734POPC   GL249130  23.970  15.906   5.697
 3734POPC   C1A49131  23.530  15.994   6.156
 3734POPC   D2A49132  23.613  15.757   6.490
 3734POPC   C3A49133  23.641  16.005   6.804
 3734POPC   C4A49134  23.617  15.803   7.187
 3734POPC   C1B49135  24.037  15.915   6.135
 3734POPC   C2B49136  24.095  16.086   6.560
 3734POPC   C3B49137  24.091  15.923   6.981
 3734POPC   C4B49138  24.072  15.710   7.404
 3735POPC   NC349139  28.291  40.266   5.370
 3735POPC   PO449140  28.627  39.669   5.371
 3735POPC   GL149141  28.324  39.812   5.698
 3735POPC   GL249142  28.435  40.153   5.860
 3735POPC   C1A49143  28.265  39.771   6.154
 3735POPC   D2A49144  28.386  40.058   6.448
 3735POPC   C3A49145  28.306  39.981   6.875
 3735POPC   C4A49146  28.227  39.733   7.239
 3735POPC   C1B49147  28.748  40.340   6.182
 3735POPC   C2B49148  28.795  40.432   6.617
 3735POPC   C3B49149  28.644  40.385   7.031
 3735POPC   C4B49150  28.241  40.370   7.183
 3736POPC   NC349151  23.465  19.467   5.438
 3736POPC   PO449152  23.625  20.077   5.258
 3736POPC   GL149153  23.651  19.909   5.668
 3736POPC   GL249154  23.459  20.134   5.851
 3736POPC   C1A49155  23.733  19.813   6.103
 3736POPC   D2A49156  23.565  19.966   6.467
 3736POPC   C3A49157  23.647  19.728   6.811
 3736POPC   C4A49158  23.736  19.798   7.255
 3736POPC   C1B49159  23.198  20.273   6.222
 3736POPC   C2B49160  23.131  20.128   6.677
 3736POPC   C3B49161  23.253  19.913   7.083
 3736POPC   C4B49162  23.400  20.102   7.477
 3737POPC   NC349163  43.312  12.920   5.482
 3737POPC   PO449164  42.639  12.596   5.409
 3737POPC   GL149165  42.932  12.715   5.731
 3737POPC   GL249166  42.909  13.096   5.763
 3737POPC   C1A49167  43.175  12.722   6.125
 3737POPC   D2A49168  43.033  12.697   6.548
 3737POPC   C3A49169  43.276  12.723   6.902
 3737POPC   C4A49170  43.014  12.737   7.270
 3737POPC   C1B49171  43.120  13.279   6.138
 3737POPC   C2B49172  43.168  13.233   6.593
 3737POPC   C3B49173  42.867  13.076   6.899
 3737POPC   C4B49174  42.810  13.234   7.327
 3738POPC   NC349175  11.936  24.887   5.332
 3738POPC   PO449176  11.882  24.232   5.391
 3738POPC   GL149177  11.995  24.450   5.777
 3738POPC   GL249178  12.370  24.546   5.795
 3738POPC   C1A49179  11.870  24.566   6.209
 3738POPC   D2A49180  12.059  24.408   6.584
 3738POPC   C3A49181  11.811  24.386   6.950
 3738POPC   C4A49182  11.998  24.198   7.303
 3738POPC   C1B49183  12.366  24.679   6.232
 3738POPC   C2B49184  12.149  24.916   6.536
 3738POPC   C3B49185  12.142  24.798   6.936
 3738POPC   C4B49186  12.429  24.692   7.243
 3739POPC   NC349187  33.994  12.739   5.232
 3739POPC   PO449188  33.891  12.034   5.381
 3739POPC   GL149189  33.846  11.872   5.779
 3739POPC   GL249190  33.902  12.231   5.868
 3739POPC   C1A49191  33.972  11.873   6.228
 3739POPC   D2A49192  34.081  12.227   6.487
 3739POPC   C3A49193  33.931  12.134   6.876
 3739POPC   C4A49194  33.963  12.210   7.296
 3739POPC   C1B49195  33.702  12.440   6.195
 3739POPC   C2B49196  33.724  12.615   6.614
 3739POPC   C3B49197  33.692  12.548   7.059
 3739POPC   C4B49198  33.657  12.522   7.525
 3740POPC   NC349199  27.722   5.489   5.589
 3740POPC   PO449200  27.686   4.848   5.394
 3740POPC   GL149201  27.613   4.936   5.830
 3740POPC   GL249202  27.282   4.837   5.886
 3740POPC   C1A49203  27.745   5.150   6.245
 3740POPC   D2A49204  27.880   5.325   6.674
 3740POPC   C3A49205  27.852   5.088   7.090
 3740POPC   C4A49206  28.075   4.943   7.501
 3740POPC   C1B49207  27.275   4.988   6.302
 3740POPC   C2B49208  27.385   5.209   6.659
 3740POPC   C3B49209  27.345   5.205   7.083
 3740POPC   C4B49210  27.102   4.908   7.296
 3741POPC   NC349211  33.837  26.008   5.319
 3741POPC   PO449212  33.489  25.793   5.505
 3741POPC   GL149213  33.801  25.910   5.831
 3741POPC   GL249214  33.776  26.255   5.879
 3741POPC   C1A49215  33.951  25.863   6.273
 3741POPC   D2A49216  33.746  25.906   6.701
 3741POPC   C3A49217  33.929  25.920   7.121
 3741POPC   C4A49218  33.723  25.823   7.525
 3741POPC   C1B49219  33.653  26.277   6.343
 3741POPC   C2B49220  33.774  26.424   6.759
 3741POPC   C3B49221  33.985  26.516   7.108
 3741POPC   C4B49222  33.952  26.776   7.451
 3742POPC   NC349223  14.667  36.996   5.203
 3742POPC   PO449224  14.088  36.726   5.320
 3742POPC   GL149225  14.344  36.829   5.685
 3742POPC   GL249226  14.313  37.141   5.632
 3742POPC   C1A49227  14.568  36.736   6.103
 3742POPC   D2A49228  14.515  36.905   6.509
 3742POPC   C3A49229  14.674  36.715   6.863
 3742POPC   C4A49230  14.457  36.858   7.199
 3742POPC   C1B49231  14.421  37.227   6.073
 3742POPC   C2B49232  14.237  37.326   6.454
 3742POPC   C3B49233  14.329  37.418   6.877
 3742POPC   C4B49234  14.214  37.344   7.273
 3743POPC   NC349235   8.897  35.873   5.352
 3743POPC   PO449236   8.568  36.512   5.508
 3743POPC   GL149237   8.929  36.308   5.733
 3743POPC   GL249238   9.291  36.429   5.813
 3743POPC   C1A49239   8.883  36.036   6.107
 3743POPC   D2A49240   8.920  35.986   6.559
 3743POPC   C3A49241   8.883  36.341   6.839
 3743POPC   C4A49242   8.630  36.265   7.201
 3743POPC   C1B49243   9.393  36.129   6.189
 3743POPC   C2B49244   9.423  35.911   6.624
 3743POPC   C3B49245   9.176  35.911   7.049
 3743POPC   C4B49246   9.178  35.890   7.542
 3744POPC   NC349247  18.788  24.672   5.505
 3744POPC   PO449248  19.397  24.531   5.633
 3744POPC   GL149249  19.074  24.554   5.918
 3744POPC   GL249250  18.941  24.271   5.762
 3744POPC   C1A49251  19.034  24.504   6.367
 3744POPC   D2A49252  19.233  24.641   6.759
 3744POPC   C3A49253  18.927  24.645   7.110
 3744POPC   C4A49254  18.694  24.518   7.489
 3744POPC   C1B49255  18.716  24.138   6.125
 3744POPC   C2B49256  18.905  24.034   6.508
 3744POPC   C3B49257  18.951  24.189   6.886
 3744POPC   C4B49258  19.289  24.270   7.130
 3745POPC   NC349259  37.281  36.260   5.616
 3745POPC   PO449260  37.855  35.855   5.414
 3745POPC   GL149261  37.845  36.165   5.819
 3745POPC   GL249262  38.176  36.165   5.936
 3745POPC   C1A49263  37.793  36.407   6.282
 3745POPC   D2A49264  37.398  36.496   6.582
 3745POPC   C3A49265  37.547  36.324   6.964
 3745POPC   C4A49266  37.999  36.393   7.021
 3745POPC   C1B49267  38.011  35.948   6.290
 3745POPC   C2B49268  37.919  35.888   6.719
 3745POPC   C3B49269  37.581  35.783   6.961
 3745POPC   C4B49270  37.333  35.941   7.254
 3746POPC   NC349271   1.062  32.836   5.516
 3746POPC   PO449272   1.366  33.448   5.447
 3746POPC   GL149273   1.308  33.262   5.843
 3746POPC   GL249274   1.173  32.958   5.995
 3746POPC   C1A49275   1.350  33.325   6.283
 3746POPC   D2A49276   1.127  33.038   6.581
 3746POPC   C3A49277   1.292  33.131   7.000
 3746POPC   C4A49278   1.384  33.189   7.467
 3746POPC   C1B49279   0.899  32.657   6.192
 3746POPC   C2B49280   0.996  32.391   6.540
 3746POPC   C3B49281   0.968  32.631   6.913
 3746POPC   C4B49282   1.187  32.717   7.259
 3747POPC   NC349283  11.962  15.288   5.303
 3747POPC   PO449284  12.548  15.042   5.343
 3747POPC   GL149285  12.236  15.038   5.688
 3747POPC   GL249286  11.917  15.247   5.808
 3747POPC   C1A49287  12.226  15.017   6.130
 3747POPC   D2A49288  12.252  14.889   6.542
 3747POPC   C3A49289  11.953  15.041   6.834
 3747POPC   C4A49290  11.965  15.175   7.244
 3747POPC   C1B49291  11.947  15.440   6.258
 3747POPC   C2B49292  11.925  15.526   6.725
 3747POPC   C3B49293  11.697  15.588   7.138
 3747POPC   C4B49294  11.761  15.553   7.607
 3748POPC   NC349295   9.745   6.431   5.402
 3748POPC   PO449296   9.717   7.171   5.377
 3748POPC   GL149297   9.736   6.886   5.764
 3748POPC   GL249298   9.516   6.570   5.824
 3748POPC   C1A49299   9.482   6.948   6.162
 3748POPC   D2A49300   9.430   6.728   6.529
 3748POPC   C3A49301   9.757   6.776   6.832
 3748POPC   C4A49302   9.708   6.776   7.273
 3748POPC   C1B49303   9.779   6.528   6.162
 3748POPC   C2B49304   9.828   6.363   6.538
 3748POPC   C3B49305   9.755   6.279   6.952
 3748POPC   C4B49306   9.518   6.301   7.296
 3749POPC   NC349307  30.870  12.501   5.427
 3749POPC   PO449308  31.227  11.941   5.496
 3749POPC   GL149309  31.001  11.932   5.900
 3749POPC   GL249310  30.665  11.863   5.774
 3749POPC   C1A49311  31.045  12.001   6.357
 3749POPC   D2A49312  31.107  12.311   6.696
 3749POPC   C3A49313  30.704  12.254   6.919
 3749POPC   C4A49314  30.818  11.841   7.114
 3749POPC   C1B49315  30.521  11.983   6.197
 3749POPC   C2B49316  30.541  11.828   6.647
 3749POPC   C3B49317  30.338  11.914   7.056
 3749POPC   C4B49318  30.504  12.058   7.452
 3750POPC   NC349319  18.364   4.757   5.539
 3750POPC   PO449320  18.432   5.557   5.523
 3750POPC   GL149321  18.450   5.218   5.744
 3750POPC   GL249322  18.184   5.299   5.950
 3750POPC   C1A49323  18.592   5.061   6.124
 3750POPC   D2A49324  18.350   5.192   6.481
 3750POPC   C3A49325  18.506   5.177   6.920
 3750POPC   C4A49326  18.583   4.903   7.304
 3750POPC   C1B49327  17.968   4.989   6.192
 3750POPC   C2B49328  17.880   4.822   6.552
 3750POPC   C3B49329  18.019   5.042   6.862
 3750POPC   C4B49330  18.078   5.076   7.249
 3751POPC   NC349331   0.364   4.624   5.553
 3751POPC   PO449332   0.643   3.994   5.425
 3751POPC   GL149333   0.398   4.137   5.789
 3751POPC   GL249334   0.577   4.426   5.951
 3751POPC   C1A49335   0.223   4.206   6.220
 3751POPC   D2A49336   0.437   4.446   6.557
 3751POPC   C3A49337   0.504   4.220   6.923
 3751POPC   C4A49338   0.618   4.255   7.325
 3751POPC   C1B49339   0.691   4.817   6.149
 3751POPC   C2B49340   0.623   4.935   6.565
 3751POPC   C3B49341   0.742   4.704   6.935
 3751POPC   C4B49342   0.670   4.808   7.338
 3752POPC   NC349343  34.930  40.824   5.409
 3752POPC   PO449344  35.548  40.523   5.580
 3752POPC   GL149345  35.291  40.827   5.753
 3752POPC   GL249346  35.011  40.699   5.909
 3752POPC   C1A49347  35.322  41.075   6.124
 3752POPC   D2A49348  35.521  41.176   6.531
 3752POPC   C3A49349  35.249  41.046   6.887
 3752POPC   C4A49350  35.391  40.891   7.253
 3752POPC   C1B49351  35.380  40.589   6.206
 3752POPC   C2B49352  35.404  40.666   6.607
 3752POPC   C3B49353  35.355  40.472   6.989
 3752POPC   C4B49354  35.661  40.306   7.276
 3753POPC   NC349355  35.983  16.348   5.579
 3753POPC   PO449356  36.250  15.764   5.315
 3753POPC   GL149357  36.110  15.839   5.751
 3753POPC   GL249358  36.408  16.040   5.835
 3753POPC   C1A49359  35.955  15.988   6.160
 3753POPC   D2A49360  35.954  16.241   6.529
 3753POPC   C3A49361  36.083  15.992   6.875
 3753POPC   C4A49362  35.957  15.943   7.296
 3753POPC   C1B49363  36.434  15.669   6.128
 3753POPC   C2B49364  36.344  15.604   6.578
 3753POPC   C3B49365  36.565  15.567   6.969
 3753POPC   C4B49366  36.457  15.919   7.235
 3754POPC   NC349367   8.114  31.300   5.278
 3754POPC   PO449368   8.653  31.600   5.513
 3754POPC   GL149369   8.248  31.624   5.725
 3754POPC   GL249370   8.066  31.291   5.785
 3754POPC   C1A49371   8.203  31.620   6.165
 3754POPC   D2A49372   8.245  31.330   6.485
 3754POPC   C3A49373   8.311  31.544   6.844
 3754POPC   C4A49374   8.009  31.550   7.149
 3754POPC   C1B49375   7.853  31.164   6.170
 3754POPC   C2B49376   7.956  30.918   6.534
 3754POPC   C3B49377   7.919  31.098   6.919
 3754POPC   C4B49378   7.946  31.056   7.361
 3755POPC   NC349379  21.549  11.428   5.385
 3755POPC   PO449380  21.154  10.829   5.310
 3755POPC   GL149381  21.218  11.123   5.693
 3755POPC   GL249382  21.534  11.066   5.874
 3755POPC   C1A49383  21.177  11.301   6.138
 3755POPC   D2A49384  21.208  11.518   6.558
 3755POPC   C3A49385  21.270  11.338   6.988
 3755POPC   C4A49386  21.438  11.522   7.371
 3755POPC   C1B49387  21.522  10.946   6.329
 3755POPC   C2B49388  21.590  10.960   6.805
 3755POPC   C3B49389  21.620  11.015   7.260
 3755POPC   C4B49390  21.758  11.197   7.654
 3756POPC   NC349391   6.612  24.010   5.050
 3756POPC   PO449392   6.639  23.446   5.367
 3756POPC   GL149393   6.682  23.640   5.785
 3756POPC   GL249394   6.824  23.360   5.862
 3756POPC   C1A49395   6.440  23.599   6.203
 3756POPC   D2A49396   6.219  23.668   6.615
 3756POPC   C3A49397   6.470  23.766   7.010
 3756POPC   C4A49398   6.777  23.946   7.331
 3756POPC   C1B49399   6.944  23.509   6.238
 3756POPC   C2B49400   6.761  23.496   6.653
 3756POPC   C3B49401   6.938  23.530   7.076
 3756POPC   C4B49402   6.996  23.518   7.577
 3757POPC   NC349403  34.091  23.842   5.382
 3757POPC   PO449404  33.601  23.362   5.417
 3757POPC   GL149405  33.695  23.687   5.722
 3757POPC   GL249406  33.358  23.797   5.723
 3757POPC   C1A49407  33.951  23.869   6.105
 3757POPC   D2A49408  34.160  23.962   6.542
 3757POPC   C3A49409  34.000  23.833   6.935
 3757POPC   C4A49410  33.910  24.007   7.331
 3757POPC   C1B49411  33.454  23.813   6.183
 3757POPC   C2B49412  33.633  23.636   6.597
 3757POPC   C3B49413  33.493  23.807   7.014
 3757POPC   C4B49414  33.499  23.646   7.443
 3758POPC   NC349415   8.839  24.116   5.315
 3758POPC   PO449416   9.163  24.683   5.369
 3758POPC   GL149417   9.292  24.451   5.744
 3758POPC   GL249418   9.143  24.101   5.747
 3758POPC   C1A49419   9.452  24.325   6.146
 3758POPC   D2A49420   9.243  24.247   6.541
 3758POPC   C3A49421   9.005  24.517   6.766
 3758POPC   C4A49422   9.178  24.605   7.160
 3758POPC   C1B49423   8.954  24.274   6.103
 3758POPC   C2B49424   8.769  24.074   6.419
 3758POPC   C3B49425   8.858  24.022   6.836
 3758POPC   C4B49426   8.795  24.275   7.207
 3759POPC   NC349427   7.754  32.679   5.426
 3759POPC   PO449428   8.355  33.163   5.442
 3759POPC   GL149429   8.236  33.017   5.830
 3759POPC   GL249430   7.884  33.123   5.855
 3759POPC   C1A49431   8.208  33.170   6.248
 3759POPC   D2A49432   7.931  33.154   6.606
 3759POPC   C3A49433   8.216  32.976   6.895
 3759POPC   C4A49434   8.539  33.114   7.151
 3759POPC   C1B49435   7.845  32.792   6.205
 3759POPC   C2B49436   7.824  32.652   6.662
 3759POPC   C3B49437   8.058  32.517   7.065
 3759POPC   C4B49438   8.228  32.817   7.393
 3760POPC   NC349439   9.527  44.636   5.253
 3760POPC   PO449440   9.923   0.069   5.564
 3760POPC   GL149441   9.629  44.935   5.817
 3760POPC   GL249442   9.621  44.576   5.771
 3760POPC   C1A49443   9.693  44.892   6.234
 3760POPC   D2A49444   9.901  44.856   6.592
 3760POPC   C3A49445   9.659  44.858   6.951
 3760POPC   C4A49446   9.668  44.696   7.366
 3760POPC   C1B49447   9.592  44.375   6.209
 3760POPC   C2B49448   9.563  44.486   6.605
 3760POPC   C3B49449   9.497  44.363   7.023
 3760POPC   C4B49450   9.570  44.184   7.413
 3761POPC   NC349451  30.659  21.627   5.345
 3761POPC   PO449452  30.519  21.009   5.366
 3761POPC   GL149453  30.556  21.220   5.746
 3761POPC   GL249454  30.901  21.310   5.703
 3761POPC   C1A49455  30.519  21.072   6.174
 3761POPC   D2A49456  30.784  20.815   6.506
 3761POPC   C3A49457  30.633  20.882   6.932
 3761POPC   C4A49458  30.368  21.198   7.156
 3761POPC   C1B49459  31.000  21.151   6.128
 3761POPC   C2B49460  30.820  21.315   6.518
 3761POPC   C3B49461  30.720  21.478   6.901
 3761POPC   C4B49462  30.891  21.234   7.224
 3762POPC   NC349463  11.835  13.772   5.437
 3762POPC   PO449464  12.049  13.172   5.344
 3762POPC   GL149465  11.938  13.374   5.750
 3762POPC   GL249466  12.208  13.620   5.755
 3762POPC   C1A49467  11.819  13.590   6.148
 3762POPC   D2A49468  12.035  13.683   6.556
 3762POPC   C3A49469  11.901  13.585   6.976
 3762POPC   C4A49470  11.788  13.284   7.248
 3762POPC   C1B49471  12.361  13.577   6.158
 3762POPC   C2B49472  12.558  13.789   6.485
 3762POPC   C3B49473  12.427  13.692   6.895
 3762POPC   C4B49474  12.291  13.775   7.292
 3763POPC   NC349475  10.088   2.375   5.544
 3763POPC   PO449476  10.589   1.868   5.457
 3763POPC   GL149477  10.434   2.031   5.820
 3763POPC   GL249478  10.169   1.785   5.843
 3763POPC   C1A49479  10.666   2.187   6.184
 3763POPC   D2A49480  10.644   2.033   6.601
 3763POPC   C3A49481  10.365   2.067   6.951
 3763POPC   C4A49482  10.669   1.988   7.285
 3763POPC   C1B49483  10.238   1.895   6.286
 3763POPC   C2B49484  10.226   1.665   6.639
 3763POPC   C3B49485  10.416   1.562   7.012
 3763POPC   C4B49486  10.253   1.719   7.393
 3764POPC   NC349487  44.090  15.265   5.356
 3764POPC   PO449488  44.030  14.629   5.173
 3764POPC   GL149489  43.996  14.782   5.683
 3764POPC   GL249490  44.002  15.133   5.821
 3764POPC   C1A49491  43.843  14.832   6.174
 3764POPC   D2A49492  43.734  15.029   6.587
 3764POPC   C3A49493  43.875  14.824   6.942
 3764POPC   C4A49494  43.939  14.889   7.405
 3764POPC   C1B49495  44.030  15.298   6.240
 3764POPC   C2B49496  44.200  15.227   6.649
 3764POPC   C3B49497  43.979  15.315   7.035
 3764POPC   C4B49498  43.980  15.425   7.452
 3765POPC   NC349499  24.089  33.569   5.368
 3765POPC   PO449500  23.868  32.967   5.240
 3765POPC   GL149501  23.875  32.839   5.716
 3765POPC   GL249502  23.532  32.946   5.837
 3765POPC   C1A49503  23.912  32.760   6.192
 3765POPC   D2A49504  23.985  32.537   6.606
 3765POPC   C3A49505  23.875  32.693   7.061
 3765POPC   C4A49506  23.805  32.835   7.508
 3765POPC   C1B49507  23.397  32.836   6.268
 3765POPC   C2B49508  23.525  32.873   6.725
 3765POPC   C3B49509  23.423  32.973   7.178
 3765POPC   C4B49510  23.484  33.247   7.565
 3766POPC   NC349511  44.898  40.630   5.364
 3766POPC   PO449512  44.456  41.072   5.493
 3766POPC   GL149513  44.794  40.991   5.753
 3766POPC   GL249514  44.613  41.212   5.959
 3766POPC   C1A49515  44.794  40.794   6.171
 3766POPC   D2A49516  44.569  40.556   6.488
 3766POPC   C3A49517  44.632  40.672   6.919
 3766POPC   C4A49518  44.328  40.727   7.216
 3766POPC   C1B49519  44.832  41.283   6.320
 3766POPC   C2B49520  44.829  41.129   6.716
 3766POPC   C3B49521  44.516  41.165   7.027
 3766POPC   C4B49522  44.393  41.181   7.449
 3767POPC   NC349523  11.184   7.437   5.389
 3767POPC   PO449524  11.635   6.998   5.461
 3767POPC   GL149525  11.511   7.165   5.853
 3767POPC   GL249526  11.222   7.383   5.882
 3767POPC   C1A49527  11.636   7.415   6.199
 3767POPC   D2A49528  11.459   7.463   6.575
 3767POPC   C3A49529  11.491   7.327   6.930
 3767POPC   C4A49530  11.155   7.534   7.129
 3767POPC   C1B49531  11.169   7.658   6.208
 3767POPC   C2B49532  10.962   7.507   6.600
 3767POPC   C3B49533  11.003   7.128   6.856
 3767POPC   C4B49534  10.890   7.122   7.274
 3768POPC   NC349535  16.048   5.282   5.066
 3768POPC   PO449536  15.887   4.786   5.500
 3768POPC   GL149537  15.829   4.986   5.917
 3768POPC   GL249538  15.947   5.328   6.002
 3768POPC   C1A49539  16.108   4.954   6.317
 3768POPC   D2A49540  16.160   5.206   6.674
 3768POPC   C3A49541  16.135   4.960   7.056
 3768POPC   C4A49542  16.283   4.915   7.501
 3768POPC   C1B49543  15.663   5.248   6.344
 3768POPC   C2B49544  15.681   5.359   6.783
 3768POPC   C3B49545  15.850   5.381   7.171
 3768POPC   C4B49546  15.729   5.002   7.337
 3769POPC   NC349547  28.507   0.459   5.456
 3769POPC   PO449548  27.832   0.418   5.533
 3769POPC   GL149549  28.150   0.412   5.839
 3769POPC   GL249550  28.454   0.190   5.912
 3769POPC   C1A49551  28.213   0.704   6.146
 3769POPC   D2A49552  28.384   0.802   6.561
 3769POPC   C3A49553  28.340   0.523   6.874
 3769POPC   C4A49554  28.605   0.624   7.174
 3769POPC   C1B49555  28.468   0.316   6.381
 3769POPC   C2B49556  28.800   0.389   6.720
 3769POPC   C3B49557  28.741   0.161   7.068
 3769POPC   C4B49558  28.371   0.050   7.171
 3770POPC   NC349559   5.631  33.290   5.517
 3770POPC   PO449560   5.559  32.661   5.469
 3770POPC   GL149561   5.774  32.841   5.850
 3770POPC   GL249562   6.048  33.097   5.749
 3770POPC   C1A49563   5.657  32.850   6.319
 3770POPC   D2A49564   5.898  32.953   6.715
 3770POPC   C3A49565   5.620  33.084   7.041
 3770POPC   C4A49566   5.539  33.058   7.485
 3770POPC   C1B49567   5.956  33.230   6.170
 3770POPC   C2B49568   6.079  33.497   6.487
 3770POPC   C3B49569   5.953  33.463   6.896
 3770POPC   C4B49570   5.978  33.359   7.316
 3771POPC   NC349571   3.268  16.036   5.373
 3771POPC   PO449572   3.836  15.848   5.185
 3771POPC   GL149573   3.627  15.909   5.687
 3771POPC   GL249574   3.300  15.682   5.753
 3771POPC   C1A49575   3.387  16.063   6.100
 3771POPC   D2A49576   3.259  16.296   6.499
 3771POPC   C3A49577   3.382  16.148   6.918
 3771POPC   C4A49578   3.645  16.297   7.281
 3771POPC   C1B49579   3.296  15.548   6.177
 3771POPC   C2B49580   3.341  15.751   6.554
 3771POPC   C3B49581   3.557  15.621   6.899
 3771POPC   C4B49582   3.638  15.492   7.299
 3772POPC   NC349583   6.885  27.073   5.743
 3772POPC   PO449584   6.418  27.415   5.422
 3772POPC   GL149585   6.587  27.554   5.853
 3772POPC   GL249586   6.936  27.568   5.886
 3772POPC   C1A49587   6.630  27.731   6.292
 3772POPC   D2A49588   6.705  27.946   6.720
 3772POPC   C3A49589   6.502  27.808   7.116
 3772POPC   C4A49590   6.546  27.559   7.534
 3772POPC   C1B49591   6.968  27.355   6.297
 3772POPC   C2B49592   6.871  27.460   6.688
 3772POPC   C3B49593   6.755  27.377   7.061
 3772POPC   C4B49594   6.945  27.141   7.321
 3773POPC   NC349595  30.464  40.188   5.446
 3773POPC   PO449596  29.818  40.029   5.298
 3773POPC   GL149597  30.069  39.935   5.702
 3773POPC   GL249598  30.280  39.617   5.633
 3773POPC   C1A49599  29.841  39.957   6.120
 3773POPC   D2A49600  29.862  39.787   6.530
 3773POPC   C3A49601  29.774  39.978   6.923
 3773POPC   C4A49602  29.460  39.843   7.204
 3773POPC   C1B49603  30.228  39.584   6.102
 3773POPC   C2B49604  30.345  39.638   6.558
 3773POPC   C3B49605  30.115  39.603   6.957
 3773POPC   C4B49606  30.097  39.773   7.393
 3774POPC   NC349607  37.449  37.841   5.428
 3774POPC   PO449608  37.826  37.346   5.239
 3774POPC   GL149609  37.898  37.663   5.664
 3774POPC   GL249610  37.598  37.640   5.855
 3774POPC   C1A49611  37.939  37.785   6.181
 3774POPC   D2A49612  37.765  37.579   6.611
 3774POPC   C3A49613  37.835  37.768   7.039
 3774POPC   C4A49614  37.496  38.073   7.145
 3774POPC   C1B49615  37.552  37.364   6.191
 3774POPC   C2B49616  37.288  37.366   6.568
 3774POPC   C3B49617  37.372  37.488   6.995
 3774POPC   C4B49618  37.254  37.696   7.401
 3775POPC   NC349619  13.108  36.356   5.577
 3775POPC   PO449620  12.592  35.920   5.492
 3775POPC   GL149621  12.925  35.930   5.805
 3775POPC   GL249622  12.770  36.243   5.958
 3775POPC   C1A49623  12.998  35.907   6.250
 3775POPC   D2A49624  12.688  36.074   6.553
 3775POPC   C3A49625  12.754  36.118   6.997
 3775POPC   C4A49626  13.005  36.044   7.367
 3775POPC   C1B49627  12.980  36.462   6.324
 3775POPC   C2B49628  13.053  36.571   6.799
 3775POPC   C3B49629  12.983  36.538   7.219
 3775POPC   C4B49630  12.592  36.412   7.412
 3776POPC   NC349631  22.297  28.560   5.162
 3776POPC   PO449632  21.792  28.167   5.300
 3776POPC   GL149633  22.097  28.432   5.633
 3776POPC   GL249634  22.433  28.260   5.733
 3776POPC   C1A49635  22.184  28.519   6.106
 3776POPC   D2A49636  22.189  28.360   6.566
 3776POPC   C3A49637  22.090  28.502   7.013
 3776POPC   C4A49638  22.262  28.631   7.422
 3776POPC   C1B49639  22.363  28.047   6.161
 3776POPC   C2B49640  22.428  27.904   6.587
 3776POPC   C3B49641  22.474  28.004   7.009
 3776POPC   C4B49642  22.279  28.129   7.405
 3777POPC   NC349643  41.929  18.570   5.369
 3777POPC   PO449644  42.439  18.189   5.213
 3777POPC   GL149645  42.346  18.188   5.681
 3777POPC   GL249646  42.471  18.539   5.780
 3777POPC   C1A49647  42.384  17.986   6.130
 3777POPC   D2A49648  42.492  18.018   6.586
 3777POPC   C3A49649  42.294  18.194   6.980
 3777POPC   C4A49650  42.447  18.113   7.392
 3777POPC   C1B49651  42.176  18.453   6.113
 3777POPC   C2B49652  42.112  18.466   6.561
 3777POPC   C3B49653  42.274  18.705   6.920
 3777POPC   C4B49654  42.609  18.607   7.218
 3778POPC   NC349655   0.190  26.676   5.447
 3778POPC   PO449656   0.678  26.892   5.089
 3778POPC   GL149657   0.632  26.913   5.638
 3778POPC   GL249658   0.454  26.648   5.881
 3778POPC   C1A49659   0.460  27.087   6.099
 3778POPC   D2A49660   0.433  26.856   6.536
 3778POPC   C3A49661   0.397  27.031   6.963
 3778POPC   C4A49662   0.201  27.071   7.395
 3778POPC   C1B49663   0.700  26.556   6.212
 3778POPC   C2B49664   0.710  26.358   6.607
 3778POPC   C3B49665   0.651  26.497   7.017
 3778POPC   C4B49666   0.252  26.588   7.220
 3779POPC   NC349667  14.289  34.732   5.510
 3779POPC   PO449668  14.742  34.160   5.518
 3779POPC   GL149669  14.530  34.500   5.888
 3779POPC   GL249670  14.468  34.901   5.949
 3779POPC   C1A49671  14.445  34.572   6.336
 3779POPC   D2A49672  14.528  34.742   6.742
 3779POPC   C3A49673  14.507  34.526   7.163
 3779POPC   C4A49674  14.663  34.749   7.537
 3779POPC   C1B49675  14.170  35.008   6.295
 3779POPC   C2B49676  14.126  35.079   6.731
 3779POPC   C3B49677  14.244  34.951   7.133
 3779POPC   C4B49678  14.180  34.893   7.574
 3780POPC   NC349679   3.120  39.068   5.416
 3780POPC   PO449680   3.827  39.151   5.446
 3780POPC   GL149681   3.726  39.260   5.884
 3780POPC   GL249682   3.371  39.319   5.926
 3780POPC   C1A49683   3.660  39.159   6.345
 3780POPC   D2A49684   3.352  38.970   6.630
 3780POPC   C3A49685   3.407  39.056   7.061
 3780POPC   C4A49686   3.681  39.332   7.274
 3780POPC   C1B49687   3.193  39.381   6.376
 3780POPC   C2B49688   3.366  39.475   6.769
 3780POPC   C3B49689   3.239  39.525   7.184
 3780POPC   C4B49690   3.247  39.512   7.629
 3781POPC   NC349691  34.963  25.288   5.567
 3781POPC   PO449692  34.457  24.860   5.392
 3781POPC   GL149693  34.599  24.984   5.786
 3781POPC   GL249694  34.452  25.311   5.784
 3781POPC   C1A49695  34.695  25.148   6.209
 3781POPC   D2A49696  34.599  25.353   6.608
 3781POPC   C3A49697  34.805  25.200   7.003
 3781POPC   C4A49698  34.612  25.232   7.416
 3781POPC   C1B49699  34.195  25.163   6.153
 3781POPC   C2B49700  34.209  25.000   6.600
 3781POPC   C3B49701  34.292  25.144   7.022
 3781POPC   C4B49702  34.139  25.467   7.330
 3782POPC   NC349703   5.723  34.873   5.587
 3782POPC   PO449704   5.950  35.260   5.085
 3782POPC   GL149705   5.912  35.509   5.515
 3782POPC   GL249706   6.175  35.763   5.627
 3782POPC   C1A49707   5.751  35.491   5.975
 3782POPC   D2A49708   5.715  35.220   6.387
 3782POPC   C3A49709   5.861  35.367   6.798
 3782POPC   C4A49710   5.967  35.145   7.220
 3782POPC   C1B49711   6.223  35.736   6.070
 3782POPC   C2B49712   6.290  35.454   6.430
 3782POPC   C3B49713   6.351  35.398   6.878
 3782POPC   C4B49714   6.149  35.640   7.208
 3783POPC   NC349715  30.281  12.995   5.298
 3783POPC   PO449716  29.726  12.898   5.521
 3783POPC   GL149717  29.944  12.693   5.880
 3783POPC   GL249718  29.689  12.431   6.020
 3783POPC   C1A49719  30.086  12.595   6.291
 3783POPC   D2A49720  29.795  12.476   6.609
 3783POPC   C3A49721  29.932  12.699   6.974
 3783POPC   C4A49722  30.171  13.075   7.064
 3783POPC   C1B49723  29.621  12.824   6.251
 3783POPC   C2B49724  29.818  13.023   6.604
 3783POPC   C3B49725  29.651  13.125   7.015
 3783POPC   C4B49726  29.246  13.223   7.200
 3784POPC   NC349727  21.366   3.154   5.383
 3784POPC   PO449728  21.482   2.605   5.167
 3784POPC   GL149729  21.651   2.717   5.577
 3784POPC   GL249730  21.293   2.737   5.731
 3784POPC   C1A49731  21.705   2.665   6.046
 3784POPC   D2A49732  21.486   2.474   6.398
 3784POPC   C3A49733  21.513   2.555   6.851
 3784POPC   C4A49734  21.488   2.728   7.273
 3784POPC   C1B49735  21.061   2.607   6.135
 3784POPC   C2B49736  21.099   2.780   6.562
 3784POPC   C3B49737  21.120   2.923   6.978
 3784POPC   C4B49738  20.948   2.615   7.284
 3785POPC   NC349739  41.081   8.319   5.595
 3785POPC   PO449740  41.776   8.137   5.460
 3785POPC   GL149741  41.550   8.130   5.866
 3785POPC   GL249742  41.249   7.916   5.902
 3785POPC   C1A49743  41.596   8.363   6.251
 3785POPC   D2A49744  41.567   8.605   6.616
 3785POPC   C3A49745  41.605   8.246   6.840
 3785POPC   C4A49746  41.512   8.209   7.236
 3785POPC   C1B49747  41.381   7.864   6.324
 3785POPC   C2B49748  41.297   7.790   6.755
 3785POPC   C3B49749  41.598   7.735   7.081
 3785POPC   C4B49750  41.702   7.824   7.519
 3786POPC   NC349751   2.925  29.855   5.362
 3786POPC   PO449752   2.307  30.041   5.255
 3786POPC   GL149753   2.639  30.095   5.682
 3786POPC   GL249754   2.856  29.776   5.843
 3786POPC   C1A49755   2.736  30.128   6.152
 3786POPC   D2A49756   2.917  29.860   6.459
 3786POPC   C3A49757   2.870  29.991   6.869
 3786POPC   C4A49758   2.765  29.788   7.225
 3786POPC   C1B49759   3.232  29.646   6.103
 3786POPC   C2B49760   3.256  29.466   6.535
 3786POPC   C3B49761   3.211  29.569   6.982
 3786POPC   C4B49762   3.266  29.964   7.200
 3787POPC   NC349763  16.444  39.812   5.193
 3787POPC   PO449764  16.871  40.306   5.489
 3787POPC   GL149765  16.708  40.133   5.825
 3787POPC   GL249766  16.521  40.406   5.906
 3787POPC   C1A49767  16.855  39.875   6.170
 3787POPC   D2A49768  17.033  39.917   6.563
 3787POPC   C3A49769  16.828  39.806   6.911
 3787POPC   C4A49770  16.667  40.206   7.051
 3787POPC   C1B49771  16.443  40.180   6.259
 3787POPC   C2B49772  16.482  39.845   6.539
 3787POPC   C3B49773  16.318  39.787   6.947
 3787POPC   C4B49774  16.148  40.173   7.097
 3788POPC   NC349775  26.930  34.211   5.046
 3788POPC   PO449776  26.613  33.883   5.550
 3788POPC   GL149777  26.789  33.628   5.839
 3788POPC   GL249778  26.647  33.856   6.089
 3788POPC   C1A49779  27.078  33.616   6.209
 3788POPC   D2A49780  26.887  33.783   6.592
 3788POPC   C3A49781  27.060  33.881   7.026
 3788POPC   C4A49782  27.016  33.964   7.498
 3788POPC   C1B49783  26.271  34.070   6.252
 3788POPC   C2B49784  26.298  34.224   6.651
 3788POPC   C3B49785  26.503  33.920   6.899
 3788POPC   C4B49786  26.615  33.765   7.291
 3789POPC   NC349787  29.527  28.504   5.358
 3789POPC   PO449788  28.981  28.056   5.320
 3789POPC   GL149789  29.143  28.230   5.761
 3789POPC   GL249790  29.405  28.481   5.830
 3789POPC   C1A49791  29.110  28.343   6.207
 3789POPC   D2A49792  28.922  28.600   6.503
 3789POPC   C3A49793  29.039  28.445   6.875
 3789POPC   C4A49794  28.869  28.598   7.248
 3789POPC   C1B49795  29.533  28.757   6.143
 3789POPC   C2B49796  29.403  28.754   6.535
 3789POPC   C3B49797  29.554  28.656   6.875
 3789POPC   C4B49798  29.384  28.650   7.244
 3790POPC   NC349799  41.875  36.459   5.548
 3790POPC   PO449800  41.243  36.182   5.563
 3790POPC   GL149801  41.378  35.907   5.852
 3790POPC   GL249802  41.706  35.937   5.725
 3790POPC   C1A49803  41.501  35.903   6.257
 3790POPC   D2A49804  41.525  36.290   6.443
 3790POPC   C3A49805  41.502  36.330   6.866
 3790POPC   C4A49806  41.401  36.028   7.147
 3790POPC   C1B49807  41.971  36.035   6.077
 3790POPC   C2B49808  41.988  36.016   6.496
 3790POPC   C3B49809  41.807  35.888   6.884
 3790POPC   C4B49810  41.849  35.813   7.325
 3791POPC   NC349811   7.888  41.103   4.884
 3791POPC   PO449812   8.184  41.363   5.366
 3791POPC   GL149813   8.262  41.443   5.843
 3791POPC   GL249814   8.336  41.788   5.904
 3791POPC   C1A49815   8.462  41.430   6.298
 3791POPC   D2A49816   8.489  41.276   6.771
 3791POPC   C3A49817   8.128  41.451   7.022
 3791POPC   C4A49818   8.039  41.541   7.441
 3791POPC   C1B49819   8.310  41.922   6.363
 3791POPC   C2B49820   8.445  41.777   6.771
 3791POPC   C3B49821   8.474  41.784   7.219
 3791POPC   C4B49822   8.553  41.942   7.630
 3792POPC   NC349823  41.270  44.732   5.337
 3792POPC   PO449824  41.919  44.759   5.344
 3792POPC   GL149825  41.615  44.717   5.722
 3792POPC   GL249826  41.395  44.998   5.857
 3792POPC   C1A49827  41.595  44.553   6.153
 3792POPC   D2A49828  41.815  44.668   6.540
 3792POPC   C3A49829  41.668  44.416   6.874
 3792POPC   C4A49830  41.856  44.313   7.230
 3792POPC   C1B49831  41.459   0.019   6.335
 3792POPC   C2B49832  41.339  44.791   6.716
 3792POPC   C3B49833  41.518  44.853   7.134
 3792POPC   C4B49834  41.295  44.889   7.512
 3793POPC   NC349835   4.681  13.874   5.386
 3793POPC   PO449836   3.975  13.719   5.242
 3793POPC   GL149837   4.057  13.597   5.672
 3793POPC   GL249838   4.349  13.795   5.779
 3793POPC   C1A49839   4.111  13.536   6.141
 3793POPC   D2A49840   4.204  13.706   6.543
 3793POPC   C3A49841   4.069  13.443   6.867
 3793POPC   C4A49842   4.152  13.579   7.230
 3793POPC   C1B49843   4.412  14.026   6.174
 3793POPC   C2B49844   4.499  14.136   6.601
 3793POPC   C3B49845   4.482  13.872   6.965
 3793POPC   C4B49846   4.611  13.426   7.031
 3794POPC   NC349847   8.678  30.476   5.335
 3794POPC   PO449848   9.255  30.835   5.285
 3794POPC   GL149849   9.010  30.759   5.710
 3794POPC   GL249850   8.706  30.555   5.838
 3794POPC   C1A49851   8.973  30.823   6.180
 3794POPC   D2A49852   9.046  30.623   6.581
 3794POPC   C3A49853   8.827  30.729   6.956
 3794POPC   C4A49854   8.892  30.743   7.355
 3794POPC   C1B49855   8.665  30.411   6.298
 3794POPC   C2B49856   8.661  30.294   6.772
 3794POPC   C3B49857   8.564  30.376   7.240
 3794POPC   C4B49858   8.631  30.501   7.716
 3795POPC   NC349859  30.073  31.741   5.239
 3795POPC   PO449860  29.797  32.375   5.302
 3795POPC   GL149861  29.829  32.281   5.763
 3795POPC   GL249862  29.794  32.615   5.884
 3795POPC   C1A49863  29.937  32.242   6.240
 3795POPC   D2A49864  30.042  32.427   6.666
 3795POPC   C3A49865  30.115  32.104   6.966
 3795POPC   C4A49866  29.747  31.979   7.163
 3795POPC   C1B49867  29.551  32.575   6.292
 3795POPC   C2B49868  29.489  32.720   6.698
 3795POPC   C3B49869  29.639  32.502   7.031
 3795POPC   C4B49870  30.039  32.570   7.185
 3796POPC   NC349871  31.796  13.920   5.532
 3796POPC   PO449872  31.347  13.614   5.153
 3796POPC   GL149873  31.264  13.624   5.664
 3796POPC   GL249874  31.418  13.866   5.875
 3796POPC   C1A49875  31.091  13.514   6.085
 3796POPC   D2A49876  31.102  13.760   6.476
 3796POPC   C3A49877  31.082  13.563   6.891
 3796POPC   C4A49878  31.378  13.587   7.182
 3796POPC   C1B49879  31.540  14.011   6.295
 3796POPC   C2B49880  31.783  13.997   6.682
 3796POPC   C3B49881  31.796  13.851   7.086
 3796POPC   C4B49882  31.551  13.991   7.461
 3797POPC   NC349883  43.739   2.201   5.441
 3797POPC   PO449884  43.648   1.524   5.387
 3797POPC   GL149885  43.667   1.781   5.787
 3797POPC   GL249886  43.986   1.871   5.767
 3797POPC   C1A49887  43.688   1.955   6.245
 3797POPC   D2A49888  43.652   2.176   6.643
 3797POPC   C3A49889  43.718   1.960   7.058
 3797POPC   C4A49890  43.832   2.028   7.543
 3797POPC   C1B49891  44.198   1.890   6.169
 3797POPC   C2B49892  44.109   1.936   6.619
 3797POPC   C3B49893  44.240   2.148   6.993
 3797POPC   C4B49894  44.255   1.878   7.333
 3798POPC   NC349895  20.663  11.534   5.327
 3798POPC   PO449896  20.388  10.914   5.512
 3798POPC   GL149897  20.707  11.063   5.758
 3798POPC   GL249898  20.749  11.403   5.858
 3798POPC   C1A49899  20.788  10.938   6.164
 3798POPC   D2A49900  20.540  10.975   6.528
 3798POPC   C3A49901  20.758  11.182   6.845
 3798POPC   C4A49902  20.506  11.296   7.166
 3798POPC   C1B49903  20.732  11.446   6.344
 3798POPC   C2B49904  20.546  11.646   6.721
 3798POPC   C3B49905  20.725  11.749   7.116
 3798POPC   C4B49906  20.928  11.488   7.368
 3799POPC   NC349907  26.202   1.394   5.384
 3799POPC   PO449908  26.035   0.770   5.463
 3799POPC   GL149909  25.955   1.124   5.775
 3799POPC   GL249910  26.267   1.210   5.856
 3799POPC   C1A49911  25.905   1.367   6.196
 3799POPC   D2A49912  26.111   1.313   6.635
 3799POPC   C3A49913  25.841   1.204   7.009
 3799POPC   C4A49914  25.666   1.431   7.391
 3799POPC   C1B49915  26.217   0.958   6.234
 3799POPC   C2B49916  26.275   0.807   6.646
 3799POPC   C3B49917  26.346   0.984   7.049
 3799POPC   C4B49918  26.326   0.820   7.458
 3800POPC   NC349919  20.993  27.378   5.205
 3800POPC   PO449920  21.251  27.893   5.580
 3800POPC   GL149921  21.387  27.585   5.875
 3800POPC   GL249922  21.136  27.355   5.732
 3800POPC   C1A49923  21.520  27.628   6.346
 3800POPC   D2A49924  21.657  27.521   6.799
 3800POPC   C3A49925  21.426  27.736   7.123
 3800POPC   C4A49926  21.048  27.989   7.179
 3800POPC   C1B49927  21.123  27.297   6.203
 3800POPC   C2B49928  21.222  27.260   6.630
 3800POPC   C3B49929  21.177  27.263   7.064
 3800POPC   C4B49930  21.116  27.072   7.467
 3801POPC   NC349931  39.333  14.197   5.527
 3801POPC   PO449932  39.131  14.730   5.160
 3801POPC   GL149933  39.035  14.647   5.668
 3801POPC   GL249934  38.933  14.285   5.817
 3801POPC   C1A49935  39.125  14.566   6.173
 3801POPC   D2A49936  39.101  14.367   6.588
 3801POPC   C3A49937  39.236  14.647   6.974
 3801POPC   C4A49938  39.460  14.681   7.370
 3801POPC   C1B49939  38.688  14.127   6.209
 3801POPC   C2B49940  38.680  14.082   6.679
 3801POPC   C3B49941  39.019  14.013   6.979
 3801POPC   C4B49942  39.181  14.199   7.338
 3802POPC   NC349943  43.706  33.853   5.542
 3802POPC   PO449944  44.052  33.316   5.358
 3802POPC   GL149945  44.175  33.604   5.733
 3802POPC   GL249946  44.096  33.967   5.855
 3802POPC   C1A49947  44.010  33.573   6.179
 3802POPC   D2A49948  43.792  33.569   6.600
 3802POPC   C3A49949  44.095  33.524   6.923
 3802POPC   C4A49950  44.219  33.645   7.342
 3802POPC   C1B49951  43.989  34.068   6.309
 3802POPC   C2B49952  43.918  34.048   6.748
 3802POPC   C3B49953  43.749  34.191   7.128
 3802POPC   C4B49954  44.021  34.128   7.471
 3803POPC   NC349955  30.745  18.548   5.225
 3803POPC   PO449956  30.666  17.967   5.040
 3803POPC   GL149957  30.645  18.106   5.548
 3803POPC   GL249958  30.735  18.453   5.715
 3803POPC   C1A49959  30.562  18.118   6.041
 3803POPC   D2A49960  30.634  18.157   6.481
 3803POPC   C3A49961  30.577  18.169   6.926
 3803POPC   C4A49962  30.788  18.005   7.289
 3803POPC   C1B49963  30.504  18.631   6.083
 3803POPC   C2B49964  30.408  18.619   6.541
 3803POPC   C3B49965  30.577  18.727   6.951
 3803POPC   C4B49966  30.600  18.499   7.325
 3804POPC   NC349967  43.010   0.026   5.564
 3804POPC   PO449968  43.318   0.587   5.292
 3804POPC   GL149969  43.272   0.433   5.711
 3804POPC   GL249970  42.929   0.515   5.720
 3804POPC   C1A49971  43.248   0.193   6.130
 3804POPC   D2A49972  43.061   0.068   6.519
 3804POPC   C3A49973  43.108   0.354   6.861
 3804POPC   C4A49974  43.118   0.157   7.243
 3804POPC   C1B49975  43.110   0.782   6.065
 3804POPC   C2B49976  42.937   0.920   6.459
 3804POPC   C3B49977  42.774   0.788   6.867
 3804POPC   C4B49978  42.814   0.564   7.249
 3805POPC   NC349979   1.289  31.972   5.591
 3805POPC   PO449980   1.488  32.677   5.523
 3805POPC   GL149981   1.361  32.502   5.884
 3805POPC   GL249982   1.113  32.263   5.964
 3805POPC   C1A49983   1.412  32.567   6.289
 3805POPC   D2A49984   1.549  32.290   6.578
 3805POPC   C3A49985   1.351  32.238   6.930
 3805POPC   C4A49986   1.482  32.294   7.339
 3805POPC   C1B49987   1.046  31.933   6.268
 3805POPC   C2B49988   0.773  31.927   6.631
 3805POPC   C3B49989   0.706  32.196   6.944
 3805POPC   C4B49990   0.983  32.205   7.271
 3806POPC   NC349991   0.116  18.972   5.042
 3806POPC   PO449992   0.258  19.195   5.641
 3806POPC   GL149993   0.316  19.032   5.997
 3806POPC   GL249994   0.651  18.985   6.121
 3806POPC   C1A49995   0.166  19.133   6.378
 3806POPC   D2A49996   0.244  19.123   6.775
 3806POPC   C3A49997   0.203  19.486   7.011
 3806POPC   C4A49998   0.391  19.321   7.292
 3806POPC   C1B49999   0.546  18.765   6.467
 3806POPC   C2B50000   0.441  18.653   6.860
 3806POPC   C3B50001   0.328  18.826   7.213
 3806POPC   C4B50002   0.600  18.875   7.509
 3807POPC   NC350003  26.705  43.917   5.466
 3807POPC   PO450004  27.350  43.860   5.298
 3807POPC   GL150005  27.178  43.949   5.731
 3807POPC   GL250006  26.871  43.810   5.923
 3807POPC   C1A50007  27.190  44.075   6.178
 3807POPC   D2A50008  26.842  43.938   6.456
 3807POPC   C3A50009  26.922  43.918   6.892
 3807POPC   C4A50010  27.050  43.670   7.236
 3807POPC   C1B50011  26.537  43.624   6.137
 3807POPC   C2B50012  26.357  43.725   6.524
 3807POPC   C3B50013  26.398  43.649   6.955
 3807POPC   C4B50014  26.541  43.967   7.215
 3808POPC   NC350015  29.456  30.962   5.342
 3808POPC   PO450016  30.095  30.763   5.458
 3808POPC   GL150017  29.748  30.790   5.731
 3808POPC   GL250018  29.741  31.133   5.791
 3808POPC   C1A50019  29.635  30.799   6.169
 3808POPC   D2A50020  29.809  30.954   6.554
 3808POPC   C3A50021  29.675  30.744   6.917
 3808POPC   C4A50022  29.587  30.433   7.202
 3808POPC   C1B50023  30.100  30.970   6.077
 3808POPC   C2B50024  30.310  30.869   6.464
 3808POPC   C3B50025  30.179  30.811   6.910
 3808POPC   C4B50026  29.922  30.994   7.293
 3809POPC   NC350027  14.317   9.471   5.136
 3809POPC   PO450028  14.637   9.932   5.527
 3809POPC   GL150029  14.433   9.771   5.860
 3809POPC   GL250030  14.444   9.406   5.760
 3809POPC   C1A50031  14.601   9.614   6.230
 3809POPC   D2A50032  14.556   9.382   6.580
 3809POPC   C3A50033  14.400   9.670   6.836
 3809POPC   C4A50034  14.595   9.839   7.182
 3809POPC   C1B50035  14.184   9.283   6.135
 3809POPC   C2B50036  14.036   9.343   6.574
 3809POPC   C3B50037  14.057   9.325   7.030
 3809POPC   C4B50038  14.193   9.593   7.346
 3810POPC   NC350039  29.451   8.326   5.307
 3810POPC   PO450040  30.027   8.143   4.993
 3810POPC   GL150041  29.948   8.096   5.505
 3810POPC   GL250042  29.612   7.984   5.654
 3810POPC   C1A50043  30.002   8.189   5.995
 3810POPC   D2A50044  30.139   8.369   6.438
 3810POPC   C3A50045  29.827   8.491   6.808
 3810POPC   C4A50046  29.890   8.653   7.247
 3810POPC   C1B50047  29.535   7.954   6.126
 3810POPC   C2B50048  29.743   8.016   6.540
 3810POPC   C3B50049  30.100   8.053   6.843
 3810POPC   C4B50050  29.984   8.172   7.249
 3811POPC   NC350051  25.847  27.645   5.601
 3811POPC   PO450052  25.288  27.302   5.406
 3811POPC   GL150053  25.220  27.468   5.839
 3811POPC   GL250054  25.498  27.624   5.957
 3811POPC   C1A50055  25.042  27.543   6.253
 3811POPC   D2A50056  24.919  27.304   6.595
 3811POPC   C3A50057  25.082  27.444   7.005
 3811POPC   C4A50058  24.747  27.514   7.326
 3811POPC   C1B50059  25.412  27.890   6.251
 3811POPC   C2B50060  25.387  27.706   6.640
 3811POPC   C3B50061  25.536  27.785   7.030
 3811POPC   C4B50062  25.532  27.489   7.340
 3812POPC   NC350063   2.476  36.598   5.474
 3812POPC   PO450064   2.776  37.136   5.230
 3812POPC   GL150065   2.776  36.937   5.693
 3812POPC   GL250066   3.078  36.808   5.762
 3812POPC   C1A50067   2.506  36.779   6.094
 3812POPC   D2A50068   2.507  36.907   6.515
 3812POPC   C3A50069   2.536  36.727   6.904
 3812POPC   C4A50070   2.685  36.789   7.286
 3812POPC   C1B50071   2.996  36.782   6.197
 3812POPC   C2B50072   3.034  37.003   6.581
 3812POPC   C3B50073   3.084  36.819   6.964
 3812POPC   C4B50074   3.215  36.678   7.366
 3813POPC   NC350075   5.732  24.546   5.404
 3813POPC   PO450076   6.300  24.178   5.345
 3813POPC   GL150077   6.020  24.249   5.745
 3813POPC   GL250078   5.630  24.203   5.781
 3813POPC   C1A50079   5.953  24.440   6.184
 3813POPC   D2A50080   6.132  24.259   6.582
 3813POPC   C3A50081   6.030  24.439   6.995
 3813POPC   C4A50082   5.963  24.856   7.188
 3813POPC   C1B50083   5.501  24.180   6.226
 3813POPC   C2B50084   5.618  24.401   6.632
 3813POPC   C3B50085   5.550  24.278   7.064
 3813POPC   C4B50086   5.621  24.384   7.530
 3814POPC   NC350087  33.661  18.744   5.155
 3814POPC   PO450088  33.990  19.343   5.255
 3814POPC   GL150089  33.809  19.082   5.611
 3814POPC   GL250090  33.654  19.336   5.825
 3814POPC   C1A50091  33.798  18.881   6.049
 3814POPC   D2A50092  33.808  19.080   6.470
 3814POPC   C3A50093  33.650  18.882   6.851
 3814POPC   C4A50094  33.477  19.033   7.222
 3814POPC   C1B50095  34.043  19.346   6.064
 3814POPC   C2B50096  34.306  19.410   6.426
 3814POPC   C3B50097  34.247  19.345   6.847
 3814POPC   C4B50098  33.968  19.166   7.133
 3815POPC   NC350099   1.780  28.373   5.222
 3815POPC   PO450100   2.408  28.463   5.316
 3815POPC   GL150101   2.045  28.348   5.677
 3815POPC   GL250102   1.772  28.075   5.651
 3815POPC   C1A50103   1.849  28.447   6.107
 3815POPC   D2A50104   2.032  28.537   6.515
 3815POPC   C3A50105   1.894  28.392   6.912
 3815POPC   C4A50106   2.086  28.412   7.294
 3815POPC   C1B50107   1.944  27.960   6.076
 3815POPC   C2B50108   1.868  28.005   6.531
 3815POPC   C3B50109   1.595  27.993   6.893
 3815POPC   C4B50110   1.611  28.143   7.348
 3816POPC   NC350111  27.847  20.181   5.472
 3816POPC   PO450112  27.398  19.643   5.354
 3816POPC   GL150113  27.594  19.799   5.691
 3816POPC   GL250114  27.866  19.577   5.619
 3816POPC   C1A50115  27.480  19.953   6.083
 3816POPC   D2A50116  27.497  19.850   6.522
 3816POPC   C3A50117  27.621  20.118   6.836
 3816POPC   C4A50118  27.299  19.926   7.053
 3816POPC   C1B50119  27.789  19.552   6.100
 3816POPC   C2B50120  27.981  19.750   6.442
 3816POPC   C3B50121  27.910  19.707   6.895
 3816POPC   C4B50122  27.779  19.896   7.282
 3817POPC   NC350123  11.020   2.039   5.468
 3817POPC   PO450124  11.560   1.627   5.408
 3817POPC   GL150125  11.295   1.797   5.816
 3817POPC   GL250126  11.224   2.171   5.899
 3817POPC   C1A50127  11.026   1.779   6.225
 3817POPC   D2A50128  11.059   1.773   6.712
 3817POPC   C3A50129  11.438   1.796   6.900
 3817POPC   C4A50130  11.251   1.908   7.237
 3817POPC   C1B50131  11.424   2.093   6.223
 3817POPC   C2B50132  11.167   2.217   6.504
 3817POPC   C3B50133  11.175   2.268   6.906
 3817POPC   C4B50134  11.537   2.315   7.158
 3818POPC   NC350135  11.357  24.329   5.327
 3818POPC   PO450136  11.504  24.950   5.160
 3818POPC   GL150137  11.502  24.721   5.626
 3818POPC   GL250138  11.202  24.479   5.781
 3818POPC   C1A50139  11.419  24.789   6.105
 3818POPC   D2A50140  11.166  24.579   6.460
 3818POPC   C3A50141  11.337  24.627   6.860
 3818POPC   C4A50142  11.527  24.841   7.174
 3818POPC   C1B50143  11.382  24.262   6.116
 3818POPC   C2B50144  11.502  24.193   6.543
 3818POPC   C3B50145  11.277  24.124   6.923
 3818POPC   C4B50146  11.492  24.180   7.312
 3819POPC   NC350147   3.428  13.297   5.351
 3819POPC   PO450148   3.531  13.913   5.539
 3819POPC   GL150149   3.308  13.727   5.848
 3819POPC   GL250150   3.243  13.360   5.825
 3819POPC   C1A50151   3.381  13.732   6.286
 3819POPC   D2A50152   3.618  13.542   6.632
 3819POPC   C3A50153   3.620  13.678   7.081
 3819POPC   C4A50154   3.751  13.736   7.508
 3819POPC   C1B50155   3.477  13.192   6.208
 3819POPC   C2B50156   3.299  13.119   6.639
 3819POPC   C3B50157   3.205  13.382   7.011
 3819POPC   C4B50158   3.355  13.426   7.493
 3820POPC   NC350159  28.184  42.189   5.025
 3820POPC   PO450160  28.262  42.570   5.564
 3820POPC   GL150161  28.241  42.283   5.834
 3820POPC   GL250162  28.571  42.360   5.910
 3820POPC   C1A50163  28.069  42.323   6.240
 3820POPC   D2A50164  28.185  42.423   6.646
 3820POPC   C3A50165  28.034  42.125   6.888
 3820POPC   C4A50166  28.186  42.198   7.275
 3820POPC   C1B50167  28.530  42.104   6.245
 3820POPC   C2B50168  28.669  42.168   6.630
 3820POPC   C3B50169  28.631  42.237   7.046
 3820POPC   C4B50170  28.765  41.939   7.331
 3821POPC   NC350171  31.864  12.994   5.622
 3821POPC   PO450172  31.299  12.690   5.386
 3821POPC   GL150173  31.477  12.742   5.823
 3821POPC   GL250174  31.556  13.101   5.994
 3821POPC   C1A50175  31.482  12.616   6.249
 3821POPC   D2A50176  31.352  12.794   6.639
 3821POPC   C3A50177  31.397  12.650   7.080
 3821POPC   C4A50178  31.160  12.755   7.489
 3821POPC   C1B50179  31.563  13.492   6.250
 3821POPC   C2B50180  31.546  13.562   6.655
 3821POPC   C3B50181  31.522  13.218   6.870
 3821POPC   C4B50182  31.540  13.097   7.273
 3822POPC   NC350183  15.651  34.167   5.549
 3822POPC   PO450184  15.186  33.814   5.287
 3822POPC   GL150185  15.205  33.918   5.686
 3822POPC   GL250186  15.482  33.685   5.685
 3822POPC   C1A50187  15.030  34.030   6.087
 3822POPC   D2A50188  15.199  34.050   6.494
 3822POPC   C3A50189  15.098  33.779   6.846
 3822POPC   C4A50190  15.048  33.838   7.310
 3822POPC   C1B50191  15.375  33.658   6.113
 3822POPC   C2B50192  15.593  33.550   6.474
 3822POPC   C3B50193  15.508  33.349   6.829
 3822POPC   C4B50194  15.290  33.426   7.173
 3823POPC   NC350195  16.430  26.382   5.272
 3823POPC   PO450196  15.987  25.829   5.352
 3823POPC   GL150197  15.935  25.702   5.825
 3823POPC   GL250198  15.596  25.521   5.871
 3823POPC   C1A50199  16.172  25.812   6.271
 3823POPC   D2A50200  16.265  25.777   6.768
 3823POPC   C3A50201  16.214  26.170   7.003
 3823POPC   C4A50202  15.804  26.405   7.066
 3823POPC   C1B50203  15.721  25.583   6.310
 3823POPC   C2B50204  15.791  25.925   6.629
 3823POPC   C3B50205  15.794  25.869   7.074
 3823POPC   C4B50206  15.807  25.688   7.471
 3824POPC   NC350207  23.855  30.162   5.487
 3824POPC   PO450208  23.855  29.461   5.449
 3824POPC   GL150209  23.744  29.741   5.833
 3824POPC   GL250210  23.657  30.126   5.927
 3824POPC   C1A50211  23.445  29.751   6.196
 3824POPC   D2A50212  23.234  29.740   6.586
 3824POPC   C3A50213  23.423  29.739   6.985
 3824POPC   C4A50214  23.794  29.551   7.146
 3824POPC   C1B50215  23.623  30.266   6.309
 3824POPC   C2B50216  23.704  29.979   6.588
 3824POPC   C3B50217  23.884  30.048   6.925
 3824POPC   C4B50218  23.759  30.050   7.293
 3825POPC   NC350219  24.841  11.597   5.220
 3825POPC   PO450220  24.381  12.076   5.381
 3825POPC   GL150221  24.433  12.209   5.768
 3825POPC   GL250222  24.794  12.236   5.693
 3825POPC   C1A50223  24.295  12.085   6.182
 3825POPC   D2A50224  24.456  12.006   6.595
 3825POPC   C3A50225  24.206  11.896   6.955
 3825POPC   C4A50226  24.581  11.971   7.153
 3825POPC   C1B50227  24.743  12.381   6.129
 3825POPC   C2B50228  24.694  12.580   6.527
 3825POPC   C3B50229  24.712  12.463   6.934
 3825POPC   C4B50230  24.692  12.616   7.297
 3826POPC   NC350231  39.050   8.896   5.553
 3826POPC   PO450232  39.640   9.192   5.480
 3826POPC   GL150233  39.421   9.033   5.844
 3826POPC   GL250234  39.112   9.246   5.912
 3826POPC   C1A50235  39.335   8.755   6.188
 3826POPC   D2A50236  39.371   8.449   6.526
 3826POPC   C3A50237  39.241   8.666   6.895
 3826POPC   C4A50238  39.340   8.743   7.314
 3826POPC   C1B50239  39.257   9.285   6.297
 3826POPC   C2B50240  39.162   9.139   6.682
 3826POPC   C3B50241  39.333   9.197   7.067
 3826POPC   C4B50242  39.112   9.200   7.454
 3827POPC   NC350243   6.903  36.319   5.353
 3827POPC   PO450244   6.375  36.749   5.327
 3827POPC   GL150245   6.555  36.377   5.713
 3827POPC   GL250246   6.936  36.313   5.846
 3827POPC   C1A50247   6.584  36.099   6.099
 3827POPC   D2A50248   6.512  35.934   6.528
 3827POPC   C3A50249   6.647  36.187   6.896
 3827POPC   C4A50250   6.515  36.012   7.264
 3827POPC   C1B50251   7.105  36.507   6.228
 3827POPC   C2B50252   7.011  36.638   6.654
 3827POPC   C3B50253   7.125  36.479   7.047
 3827POPC   C4B50254   6.941  36.288   7.355
 3828POPC   NC350255  19.667  43.272   5.526
 3828POPC   PO450256  20.291  43.076   5.347
 3828POPC   GL150257  20.039  43.064   5.790
 3828POPC   GL250258  19.749  42.843   5.805
 3828POPC   C1A50259  19.999  43.328   6.202
 3828POPC   D2A50260  20.243  43.445   6.594
 3828POPC   C3A50261  20.107  43.304   7.020
 3828POPC   C4A50262  19.724  43.226   7.250
 3828POPC   C1B50263  19.579  43.001   6.168
 3828POPC   C2B50264  19.412  42.854   6.559
 3828POPC   C3B50265  19.424  42.710   6.963
 3828POPC   C4B50266  19.545  42.686   7.383
 3829POPC   NC350267  12.736   9.471   5.408
 3829POPC   PO450268  12.899   8.838   5.403
 3829POPC   GL150269  12.657   9.013   5.699
 3829POPC   GL250270  12.961   9.177   5.811
 3829POPC   C1A50271  12.636   8.941   6.145
 3829POPC   D2A50272  12.911   9.070   6.492
 3829POPC   C3A50273  12.767   8.971   6.881
 3829POPC   C4A50274  12.752   9.087   7.266
 3829POPC   C1B50275  13.148   8.831   6.086
 3829POPC   C2B50276  13.218   8.656   6.498
 3829POPC   C3B50277  13.280   8.855   6.902
 3829POPC   C4B50278  13.155   8.781   7.330
 3830POPC   NC350279  41.019  27.019   5.104
 3830POPC   PO450280  41.564  26.723   5.422
 3830POPC   GL150281  41.524  26.772   5.834
 3830POPC   GL250282  41.228  26.548   5.772
 3830POPC   C1A50283  41.769  26.945   6.191
 3830POPC   D2A50284  41.878  26.800   6.614
 3830POPC   C3A50285  41.693  27.039   6.969
 3830POPC   C4A50286  41.803  27.007   7.412
 3830POPC   C1B50287  41.162  26.662   6.187
 3830POPC   C2B50288  41.372  26.830   6.516
 3830POPC   C3B50289  41.425  26.602   6.864
 3830POPC   C4B50290  41.380  26.752   7.265
 3831POPC   NC350291   5.308  27.939   5.479
 3831POPC   PO450292   4.892  27.412   5.630
 3831POPC   GL150293   5.287  27.447   5.851
 3831POPC   GL250294   5.280  27.792   5.961
 3831POPC   C1A50295   5.311  27.409   6.312
 3831POPC   D2A50296   5.364  27.562   6.719
 3831POPC   C3A50297   5.031  27.381   6.972
 3831POPC   C4A50298   5.008  26.997   7.230
 3831POPC   C1B50299   4.905  27.693   6.203
 3831POPC   C2B50300   4.919  27.788   6.635
 3831POPC   C3B50301   5.011  27.891   7.043
 3831POPC   C4B50302   5.415  27.883   7.250
 3832POPC   NC350303   1.491   6.384   5.345
 3832POPC   PO450304   1.375   7.000   5.553
 3832POPC   GL150305   1.367   6.645   5.814
 3832POPC   GL250306   1.041   6.669   5.841
 3832POPC   C1A50307   1.382   6.728   6.252
 3832POPC   D2A50308   1.605   6.724   6.622
 3832POPC   C3A50309   1.330   6.670   7.003
 3832POPC   C4A50310   1.339   6.613   7.473
 3832POPC   C1B50311   0.856   6.732   6.217
 3832POPC   C2B50312   0.979   6.746   6.609
 3832POPC   C3B50313   0.923   6.993   6.941
 3832POPC   C4B50314   0.889   6.773   7.315
 3833POPC   NC350315   7.363  29.375   5.338
 3833POPC   PO450316   7.107  28.740   5.455
 3833POPC   GL150317   7.117  28.936   5.851
 3833POPC   GL250318   7.339  29.191   5.804
 3833POPC   C1A50319   7.394  28.913   6.226
 3833POPC   D2A50320   7.519  29.140   6.612
 3833POPC   C3A50321   7.543  28.859   6.937
 3833POPC   C4A50322   7.298  28.837   7.292
 3833POPC   C1B50323   7.436  29.425   6.168
 3833POPC   C2B50324   7.715  29.600   6.460
 3833POPC   C3B50325   7.781  29.604   6.886
 3833POPC   C4B50326   7.542  29.345   7.180
 3834POPC   NC350327   3.185  25.350   5.491
 3834POPC   PO450328   2.516  25.441   5.334
 3834POPC   GL150329   2.687  25.417   5.780
 3834POPC   GL250330   2.917  25.134   5.868
 3834POPC   C1A50331   2.590  25.306   6.232
 3834POPC   D2A50332   2.848  25.179   6.599
 3834POPC   C3A50333   2.789  25.025   7.022
 3834POPC   C4A50334   2.508  25.228   7.321
 3834POPC   C1B50335   3.083  25.447   6.186
 3834POPC   C2B50336   3.164  25.596   6.625
 3834POPC   C3B50337   2.911  25.526   7.034
 3834POPC   C4B50338   2.994  25.281   7.424
 3835POPC   NC350339  29.013  35.031   5.247
 3835POPC   PO450340  29.432  35.448   5.606
 3835POPC   GL150341  29.193  35.350   5.949
 3835POPC   GL250342  28.869  35.484   5.880
 3835POPC   C1A50343  29.199  35.448   6.388
 3835POPC   D2A50344  29.505  35.524   6.685
 3835POPC   C3A50345  29.386  35.566   7.093
 3835POPC   C4A50346  29.120  35.244   7.083
 3835POPC   C1B50347  28.742  35.252   6.237
 3835POPC   C2B50348  28.801  35.214   6.663
 3835POPC   C3B50349  28.695  34.981   7.031
 3835POPC   C4B50350  28.691  35.334   7.312
 3836POPC   NC350351  43.440  28.984   5.699
 3836POPC   PO450352  42.748  29.091   5.478
 3836POPC   GL150353  42.963  29.118   5.844
 3836POPC   GL250354  42.970  28.765   5.947
 3836POPC   C1A50355  43.039  29.293   6.253
 3836POPC   D2A50356  42.896  29.107   6.646
 3836POPC   C3A50357  42.860  29.435   6.927
 3836POPC   C4A50358  43.065  29.542   7.289
 3836POPC   C1B50359  43.201  28.802   6.343
 3836POPC   C2B50360  43.476  29.129   6.503
 3836POPC   C3B50361  43.353  29.307   6.887
 3836POPC   C4B50362  43.319  29.082   7.282
 3837POPC   NC350363  43.860  34.785   5.393
 3837POPC   PO450364  43.556  34.177   5.250
 3837POPC   GL150365  43.730  34.344   5.660
 3837POPC   GL250366  43.618  34.145   5.954
 3837POPC   C1A50367  43.974  34.497   6.023
 3837POPC   D2A50368  44.016  34.669   6.426
 3837POPC   C3A50369  43.957  34.561   6.847
 3837POPC   C4A50370  43.961  34.620   7.309
 3837POPC   C1B50371  43.556  34.435   6.300
 3837POPC   C2B50372  43.489  34.394   6.725
 3837POPC   C3B50373  43.463  34.660   7.067
 3837POPC   C4B50374  43.449  34.603   7.484
 3838POPC   NC350375  16.657  27.137   5.461
 3838POPC   PO450376  16.890  26.528   5.473
 3838POPC   GL150377  16.772  26.763   5.821
 3838POPC   GL250378  17.068  26.936   5.892
 3838POPC   C1A50379  16.734  26.670   6.264
 3838POPC   D2A50380  16.588  26.649   6.660
 3838POPC   C3A50381  16.625  27.021   6.884
 3838POPC   C4A50382  16.866  27.109   7.240
 3838POPC   C1B50383  17.193  26.534   6.118
 3838POPC   C2B50384  17.169  26.427   6.560
 3838POPC   C3B50385  17.057  26.649   6.937
 3838POPC   C4B50386  17.106  26.675   7.373
 3839POPC   NC350387  17.946  21.728   5.478
 3839POPC   PO450388  17.440  21.276   5.374
 3839POPC   GL150389  17.454  21.484   5.748
 3839POPC   GL250390  17.785  21.376   5.824
 3839POPC   C1A50391  17.192  21.556   6.144
 3839POPC   D2A50392  17.090  21.261   6.480
 3839POPC   C3A50393  17.223  21.466   6.840
 3839POPC   C4A50394  17.436  21.364   7.199
 3839POPC   C1B50395  17.679  21.755   6.098
 3839POPC   C2B50396  17.528  21.737   6.513
 3839POPC   C3B50397  17.754  21.607   6.866
 3839POPC   C4B50398  17.814  21.683   7.315
 3840POPC   NC350399  18.131   7.594   5.423
 3840POPC   PO450400  18.703   7.775   5.785
 3840POPC   GL150401  18.506   7.486   5.989
 3840POPC   GL250402  18.197   7.538   5.916
 3840POPC   C1A50403  18.406   7.477   6.416
 3840POPC   D2A50404  18.369   7.195   6.732
 3840POPC   C3A50405  18.514   7.348   7.085
 3840POPC   C4A50406  18.317   7.618   7.347
 3840POPC   C1B50407  17.941   7.576   6.249
 3840POPC   C2B50408  17.930   7.808   6.602
 3840POPC   C3B50409  17.914   7.581   6.992
 3840POPC   C4B50410  18.027   7.181   7.143
 3841POPC   NC350411   4.497   8.605   5.499
 3841POPC   PO450412   4.442   8.054   5.157
 3841POPC   GL150413   4.266   8.106   5.621
 3841POPC   GL250414   4.085   8.398   5.748
 3841POPC   C1A50415   4.323   8.110   6.120
 3841POPC   D2A50416   4.623   8.083   6.498
 3841POPC   C3A50417   4.428   8.094   6.943
 3841POPC   C4A50418   4.097   7.894   7.222
 3841POPC   C1B50419   4.232   8.624   6.114
 3841POPC   C2B50420   4.337   8.516   6.518
 3841POPC   C3B50421   4.190   8.583   6.917
 3841POPC   C4B50422   4.394   8.529   7.291
 3842POPC   NC350423  21.918  44.862   5.403
 3842POPC   PO450424  22.425  44.366   5.445
 3842POPC   GL150425  22.329  44.698   5.712
 3842POPC   GL250426  22.036  44.512   5.778
 3842POPC   C1A50427  22.439  44.807   6.151
 3842POPC   D2A50428  22.522  44.769   6.597
 3842POPC   C3A50429  22.311  44.588   6.952
 3842POPC   C4A50430  21.997  44.758   7.215
 3842POPC   C1B50431  21.940  44.795   6.082
 3842POPC   C2B50432  21.950  44.796   6.533
 3842POPC   C3B50433  21.844  44.433   6.801
 3842POPC   C4B50434  21.965  44.233   7.181
 3843POPC   NC350435  10.727  29.214   5.492
 3843POPC   PO450436   9.978  29.057   5.349
 3843POPC   GL150437  10.243  29.155   5.697
 3843POPC   GL250438  10.335  29.491   5.768
 3843POPC   C1A50439  10.438  29.019   6.101
 3843POPC   D2A50440  10.280  28.805   6.467
 3843POPC   C3A50441  10.353  28.974   6.895
 3843POPC   C4A50442  10.334  29.281   7.236
 3843POPC   C1B50443  10.653  29.500   6.119
 3843POPC   C2B50444  10.551  29.418   6.554
 3843POPC   C3B50445  10.730  29.456   6.964
 3843POPC   C4B50446  10.788  29.079   7.184
 3844POPC   NC350447   2.248  37.470   5.391
 3844POPC   PO450448   1.614  37.741   5.370
 3844POPC   GL150449   1.948  37.755   5.712
 3844POPC   GL250450   2.076  37.414   5.857
 3844POPC   C1A50451   1.960  37.825   6.176
 3844POPC   D2A50452   1.645  37.827   6.535
 3844POPC   C3A50453   1.715  37.506   6.854
 3844POPC   C4A50454   1.845  37.638   7.256
 3844POPC   C1B50455   2.210  37.305   6.278
 3844POPC   C2B50456   2.166  37.597   6.635
 3844POPC   C3B50457   2.318  37.571   7.059
 3844POPC   C4B50458   2.270  37.522   7.508
 3845POPC   NC350459  44.776  14.089   5.334
 3845POPC   PO450460  44.461  14.552   5.622
 3845POPC   GL150461  44.731  14.311   5.906
 3845POPC   GL250462  44.927  14.014   5.798
 3845POPC   C1A50463  44.706  14.338   6.380
 3845POPC   D2A50464  44.378  14.429   6.725
 3845POPC   C3A50465  44.549  14.471   7.146
 3845POPC   C4A50466  44.973  14.437   7.303
 3845POPC   C1B50467  44.860  13.853   6.174
 3845POPC   C2B50468   0.002  13.945   6.555
 3845POPC   C3B50469  44.893  14.095   6.931
 3845POPC   C4B50470   0.127  13.952   7.286
 3846POPC   NC350471  16.808   9.636   5.242
 3846POPC   PO450472  16.361   9.433   5.715
 3846POPC   GL150473  16.588   9.799   5.777
 3846POPC   GL250474  16.939   9.780   5.705
 3846POPC   C1A50475  16.615   9.730   6.232
 3846POPC   D2A50476  16.307   9.785   6.559
 3846POPC   C3A50477  16.482   9.749   6.990
 3846POPC   C4A50478  16.817   9.611   7.245
 3846POPC   C1B50479  17.039   9.972   6.074
 3846POPC   C2B50480  17.034   9.837   6.501
 3846POPC   C3B50481  17.032   9.927   6.912
 3846POPC   C4B50482  17.163  10.252   7.161
 3847POPC   NC350483  31.376  35.512   5.347
 3847POPC   PO450484  31.843  35.105   5.198
 3847POPC   GL150485  31.746  35.323   5.627
 3847POPC   GL250486  31.506  35.103   5.729
 3847POPC   C1A50487  31.696  35.563   6.042
 3847POPC   D2A50488  31.618  35.380   6.490
 3847POPC   C3A50489  31.548  35.533   6.929
 3847POPC   C4A50490  31.679  35.282   7.292
 3847POPC   C1B50491  31.207  35.329   6.008
 3847POPC   C2B50492  31.082  35.327   6.449
 3847POPC   C3B50493  31.245  35.125   6.822
 3847POPC   C4B50494  31.175  35.305   7.220
 3848POPC   NC350495  39.569  29.273   5.299
 3848POPC   PO450496  39.012  28.909   5.329
 3848POPC   GL150497  39.229  29.078   5.683
 3848POPC   GL250498  39.370  29.397   5.771
 3848POPC   C1A50499  39.389  28.993   6.102
 3848POPC   D2A50500  39.282  29.098   6.517
 3848POPC   C3A50501  39.333  28.843   6.888
 3848POPC   C4A50502  39.401  28.952   7.302
 3848POPC   C1B50503  39.296  29.614   6.211
 3848POPC   C2B50504  39.307  29.620   6.677
 3848POPC   C3B50505  39.446  29.384   7.030
 3848POPC   C4B50506  39.495  29.443   7.503
 3849POPC   NC350507   1.314  22.744   5.508
 3849POPC   PO450508   0.696  23.138   5.434
 3849POPC   GL150509   0.932  22.977   5.838
 3849POPC   GL250510   1.298  23.081   5.897
 3849POPC   C1A50511   1.012  22.819   6.307
 3849POPC   D2A50512   0.933  22.662   6.751
 3849POPC   C3A50513   1.019  22.988   7.059
 3849POPC   C4A50514   1.171  23.005   7.469
 3849POPC   C1B50515   1.516  22.933   6.265
 3849POPC   C2B50516   1.389  22.874   6.694
 3849POPC   C3B50517   1.427  22.695   7.121
 3849POPC   C4B50518   1.586  22.682   7.550
 3850POPC   NC350519   2.820  28.236   5.246
 3850POPC   PO450520   3.062  28.892   5.408
 3850POPC   GL150521   2.818  28.536   5.688
 3850POPC   GL250522   2.809  28.163   5.739
 3850POPC   C1A50523   2.858  28.448   6.175
 3850POPC   D2A50524   2.714  28.530   6.641
 3850POPC   C3A50525   2.952  28.365   7.023
 3850POPC   C4A50526   2.993  28.477   7.470
 3850POPC   C1B50527   2.425  28.255   5.998
 3850POPC   C2B50528   2.353  28.120   6.418
 3850POPC   C3B50529   2.353  28.194   6.857
 3850POPC   C4B50530   2.503  28.132   7.264
 3851POPC   NC350531  42.578  21.274   5.525
 3851POPC   PO450532  41.839  21.323   5.493
 3851POPC   GL150533  42.125  21.203   5.777
 3851POPC   GL250534  42.216  21.564   5.765
 3851POPC   C1A50535  42.128  21.289   6.201
 3851POPC   D2A50536  41.958  21.237   6.576
 3851POPC   C3A50537  42.248  21.166   6.832
 3851POPC   C4A50538  42.111  21.245   7.227
 3851POPC   C1B50539  42.242  21.795   6.152
 3851POPC   C2B50540  42.296  21.665   6.563
 3851POPC   C3B50541  42.378  21.625   6.975
 3851POPC   C4B50542  42.128  21.757   7.276
 3852POPC   NC350543  15.522  16.735   5.272
 3852POPC   PO450544  16.056  17.061   5.279
 3852POPC   GL150545  15.864  17.066   5.686
 3852POPC   GL250546  15.686  16.775   5.759
 3852POPC   C1A50547  15.931  16.973   6.147
 3852POPC   D2A50548  15.884  16.796   6.553
 3852POPC   C3A50549  16.073  16.922   6.958
 3852POPC   C4A50550  16.250  16.581   7.217
 3852POPC   C1B50551  15.556  16.527   6.116
 3852POPC   C2B50552  15.396  16.579   6.534
 3852POPC   C3B50553  15.614  16.555   6.940
 3852POPC   C4B50554  15.398  16.406   7.295
 3853POPC   NC350555  14.237  16.019   5.299
 3853POPC   PO450556  13.509  15.925   5.400
 3853POPC   GL150557  13.394  15.817   5.826
 3853POPC   GL250558  13.700  15.955   5.895
 3853POPC   C1A50559  13.387  16.041   6.259
 3853POPC   D2A50560  13.599  15.952   6.614
 3853POPC   C3A50561  13.317  15.836   6.927
 3853POPC   C4A50562  13.374  15.726   7.331
 3853POPC   C1B50563  13.884  16.265   6.204
 3853POPC   C2B50564  14.027  16.234   6.656
 3853POPC   C3B50565  13.763  16.264   6.999
 3853POPC   C4B50566  13.725  16.094   7.379
 3854POPC   NC350567  20.389  25.449   5.408
 3854POPC   PO450568  20.924  25.044   5.396
 3854POPC   GL150569  20.697  25.121   5.791
 3854POPC   GL250570  20.348  24.974   5.780
 3854POPC   C1A50571  20.754  25.167   6.258
 3854POPC   D2A50572  20.584  24.981   6.657
 3854POPC   C3A50573  20.449  25.039   7.055
 3854POPC   C4A50574  20.757  25.301   7.210
 3854POPC   C1B50575  20.313  25.351   6.057
 3854POPC   C2B50576  20.374  25.441   6.481
 3854POPC   C3B50577  20.410  25.552   6.898
 3854POPC   C4B50578  20.240  25.454   7.272
 3855POPC   NC350579   9.422   5.485   5.367
 3855POPC   PO450580   8.937   4.900   5.297
 3855POPC   GL150581   9.105   5.128   5.669
 3855POPC   GL250582   9.243   4.851   5.794
 3855POPC   C1A50583   9.096   5.192   6.159
 3855POPC   D2A50584   9.113   5.269   6.631
 3855POPC   C3A50585   8.865   5.143   6.991
 3855POPC   C4A50586   8.439   4.916   7.004
 3855POPC   C1B50587   9.342   4.690   6.177
 3855POPC   C2B50588   9.451   4.812   6.593
 3855POPC   C3B50589   9.147   4.689   6.907
 3855POPC   C4B50590   8.907   4.750   7.292
 3856POPC   NC350591  21.757   6.466   5.386
 3856POPC   PO450592  22.243   6.899   5.449
 3856POPC   GL150593  21.979   6.748   5.790
 3856POPC   GL250594  21.744   7.005   5.877
 3856POPC   C1A50595  22.165   6.539   6.181
 3856POPC   D2A50596  22.463   6.753   6.466
 3856POPC   C3A50597  22.407   6.755   6.921
 3856POPC   C4A50598  22.089   6.485   7.086
 3856POPC   C1B50599  21.917   6.970   6.262
 3856POPC   C2B50600  21.928   6.742   6.644
 3856POPC   C3B50601  21.914   6.987   7.005
 3856POPC   C4B50602  21.782   6.998   7.412
 3857POPC   NC350603  22.629  28.865   5.694
 3857POPC   PO450604  22.781  28.313   5.335
 3857POPC   GL150605  22.944  28.373   5.748
 3857POPC   GL250606  23.309  28.278   5.809
 3857POPC   C1A50607  22.733  28.390   6.142
 3857POPC   D2A50608  22.795  28.261   6.550
 3857POPC   C3A50609  22.622  28.510   6.855
 3857POPC   C4A50610  22.699  28.403   7.263
 3857POPC   C1B50611  23.233  28.471   6.225
 3857POPC   C2B50612  23.302  28.605   6.636
 3857POPC   C3B50613  23.175  28.434   7.030
 3857POPC   C4B50614  23.185  28.618   7.447
 3858POPC   NC350615  20.686  16.244   5.446
 3858POPC   PO450616  20.520  15.652   5.470
 3858POPC   GL150617  20.652  15.913   5.842
 3858POPC   GL250618  20.854  16.215   5.933
 3858POPC   C1A50619  20.577  15.977   6.294
 3858POPC   D2A50620  20.434  15.963   6.738
 3858POPC   C3A50621  20.626  15.844   7.120
 3858POPC   C4A50622  20.424  15.884   7.522
 3858POPC   C1B50623  20.999  16.243   6.379
 3858POPC   C2B50624  20.936  16.125   6.808
 3858POPC   C3B50625  21.091  16.060   7.228
 3858POPC   C4B50626  20.929  15.919   7.616
 3859POPC   NC350627   1.410  34.778   5.389
 3859POPC   PO450628   0.907  34.336   5.481
 3859POPC   GL150629   1.197  34.424   5.792
 3859POPC   GL250630   1.153  34.797   5.837
 3859POPC   C1A50631   1.016  34.350   6.191
 3859POPC   D2A50632   0.808  34.484   6.588
 3859POPC   C3A50633   1.089  34.581   6.914
 3859POPC   C4A50634   1.265  34.420   7.275
 3859POPC   C1B50635   0.933  34.862   6.226
 3859POPC   C2B50636   0.942  35.083   6.626
 3859POPC   C3B50637   1.025  35.060   7.056
 3859POPC   C4B50638   1.467  35.058   7.141
 3860POPC   NC350639  32.800  17.685   5.365
 3860POPC   PO450640  33.152  17.139   5.457
 3860POPC   GL150641  33.104  17.339   5.828
 3860POPC   GL250642  33.195  17.674   5.750
 3860POPC   C1A50643  33.296  17.373   6.240
 3860POPC   D2A50644  33.076  17.508   6.628
 3860POPC   C3A50645  33.318  17.567   7.013
 3860POPC   C4A50646  33.454  17.298   7.349
 3860POPC   C1B50647  33.025  17.795   6.165
 3860POPC   C2B50648  32.975  18.020   6.554
 3860POPC   C3B50649  32.915  17.878   6.963
 3860POPC   C4B50650  32.693  17.590   7.213
 3861POPC   NC350651  27.077   2.494   5.460
 3861POPC   PO450652  26.639   2.974   5.471
 3861POPC   GL150653  26.936   2.952   5.805
 3861POPC   GL250654  26.753   2.662   5.869
 3861POPC   C1A50655  27.075   3.117   6.229
 3861POPC   D2A50656  27.056   3.026   6.670
 3861POPC   C3A50657  26.865   3.097   7.031
 3861POPC   C4A50658  26.976   2.745   7.184
 3861POPC   C1B50659  26.696   2.781   6.312
 3861POPC   C2B50660  26.621   2.738   6.751
 3861POPC   C3B50661  26.643   2.380   7.033
 3861POPC   C4B50662  26.739   2.390   7.452
 3862POPC   NC350663  16.931  23.847   5.260
 3862POPC   PO450664  16.410  23.429   5.292
 3862POPC   GL150665  16.633  23.447   5.703
 3862POPC   GL250666  16.921  23.669   5.745
 3862POPC   C1A50667  16.579  23.619   6.139
 3862POPC   D2A50668  16.556  23.741   6.582
 3862POPC   C3A50669  16.575  23.417   6.905
 3862POPC   C4A50670  16.460  23.543   7.321
 3862POPC   C1B50671  17.022  23.898   6.134
 3862POPC   C2B50672  17.053  23.877   6.608
 3862POPC   C3B50673  16.883  23.831   7.068
 3862POPC   C4B50674  16.928  23.678   7.515
 3863POPC   NC350675   3.405  36.232   5.420
 3863POPC   PO450676   4.040  35.873   5.337
 3863POPC   GL150677   3.775  35.986   5.705
 3863POPC   GL250678   3.720  36.362   5.803
 3863POPC   C1A50679   3.712  36.006   6.168
 3863POPC   D2A50680   3.552  36.070   6.602
 3863POPC   C3A50681   3.784  35.985   7.006
 3863POPC   C4A50682   3.860  35.980   7.504
 3863POPC   C1B50683   3.433  36.482   6.162
 3863POPC   C2B50684   3.220  36.487   6.570
 3863POPC   C3B50685   3.410  36.395   6.978
 3863POPC   C4B50686   3.770  36.424   7.248
 3864POPC   NC350687  18.084  26.089   5.372
 3864POPC   PO450688  18.729  25.968   5.377
 3864POPC   GL150689  18.509  26.092   5.740
 3864POPC   GL250690  18.268  25.877   5.843
 3864POPC   C1A50691  18.390  26.255   6.173
 3864POPC   D2A50692  18.175  26.125   6.572
 3864POPC   C3A50693  18.322  26.304   6.947
 3864POPC   C4A50694  18.411  26.032   7.269
 3864POPC   C1B50695  18.129  25.634   6.196
 3864POPC   C2B50696  17.855  25.687   6.534
 3864POPC   C3B50697  17.891  25.863   6.925
 3864POPC   C4B50698  18.039  25.704   7.295
 3865POPC   NC350699  37.259  26.219   5.396
 3865POPC   PO450700  37.863  25.900   5.386
 3865POPC   GL150701  37.773  25.979   5.833
 3865POPC   GL250702  37.432  26.136   5.866
 3865POPC   C1A50703  37.861  25.745   6.232
 3865POPC   D2A50704  37.907  25.513   6.616
 3865POPC   C3A50705  37.885  25.708   7.019
 3865POPC   C4A50706  37.941  26.117   7.220
 3865POPC   C1B50707  37.435  26.009   6.284
 3865POPC   C2B50708  37.609  25.965   6.681
 3865POPC   C3B50709  37.441  26.107   7.078
 3865POPC   C4B50710  37.363  26.380   7.408
 3866POPC   NC350711  22.992  43.961   5.016
 3866POPC   PO450712  23.085  43.915   5.673
 3866POPC   GL150713  22.811  43.846   5.961
 3866POPC   GL250714  23.093  43.717   6.164
 3866POPC   C1A50715  22.665  43.889   6.372
 3866POPC   D2A50716  22.890  43.644   6.671
 3866POPC   C3A50717  22.847  43.859   7.045
 3866POPC   C4A50718  22.872  43.893   7.498
 3866POPC   C1B50719  23.134  44.087   6.336
 3866POPC   C2B50720  23.185  44.406   6.607
 3866POPC   C3B50721  23.144  44.289   7.019
 3866POPC   C4B50722  23.422  44.434   7.236
 3867POPC   NC350723  23.986  43.865   5.063
 3867POPC   PO450724  24.698  43.789   5.161
 3867POPC   GL150725  24.624  43.999   5.551
 3867POPC   GL250726  24.707  43.703   5.761
 3867POPC   C1A50727  24.527  44.097   6.011
 3867POPC   D2A50728  24.383  44.088   6.436
 3867POPC   C3A50729  24.617  43.972   6.773
 3867POPC   C4A50730  24.586  44.002   7.163
 3867POPC   C1B50731  24.722  43.616   6.203
 3867POPC   C2B50732  24.597  43.484   6.633
 3867POPC   C3B50733  24.641  43.481   7.104
 3867POPC   C4B50734  24.939  43.708   7.382
 3868POPC   NC350735  32.683  10.968   5.604
 3868POPC   PO450736  32.329  11.411   5.330
 3868POPC   GL150737  32.282  11.361   5.774
 3868POPC   GL250738  32.613  11.357   5.935
 3868POPC   C1A50739  32.149  11.218   6.199
 3868POPC   D2A50740  32.294  11.218   6.617
 3868POPC   C3A50741  32.098  11.424   6.955
 3868POPC   C4A50742  32.356  11.556   7.261
 3868POPC   C1B50743  32.684  11.065   6.292
 3868POPC   C2B50744  32.758  11.054   6.746
 3868POPC   C3B50745  32.494  11.077   7.137
 3868POPC   C4B50746  32.444  11.169   7.606
 3869POPC   NC350747  37.961  43.596   5.649
 3869POPC   PO450748  37.751  43.127   5.210
 3869POPC   GL150749  37.689  43.145   5.705
 3869POPC   GL250750  37.366  43.055   5.780
 3869POPC   C1A50751  37.877  43.234   6.163
 3869POPC   D2A50752  37.828  43.514   6.499
 3869POPC   C3A50753  38.038  43.431   6.877
 3869POPC   C4A50754  37.968  43.091   7.176
 3869POPC   C1B50755  37.371  43.372   6.117
 3869POPC   C2B50756  37.215  43.370   6.539
 3869POPC   C3B50757  37.171  43.250   6.968
 3869POPC   C4B50758  37.467  43.185   7.317
 3870POPC   NC350759  40.433  35.183   5.083
 3870POPC   PO450760  40.973  35.237   5.402
 3870POPC   GL150761  40.799  35.367   5.780
 3870POPC   GL250762  41.120  35.461   5.843
 3870POPC   C1A50763  40.671  35.227   6.210
 3870POPC   D2A50764  40.532  35.156   6.646
 3870POPC   C3A50765  40.839  35.026   6.967
 3870POPC   C4A50766  40.719  35.309   7.312
 3870POPC   C1B50767  41.025  35.672   6.197
 3870POPC   C2B50768  40.725  35.673   6.487
 3870POPC   C3B50769  40.863  35.516   6.843
 3870POPC   C4B50770  41.040  35.682   7.177
 3871POPC   NC350771  35.555  13.585   5.399
 3871POPC   PO450772  34.828  13.758   5.351
 3871POPC   GL150773  35.155  13.691   5.679
 3871POPC   GL250774  35.018  13.438   5.816
 3871POPC   C1A50775  35.444  13.513   6.081
 3871POPC   D2A50776  35.592  13.727   6.493
 3871POPC   C3A50777  35.415  13.574   6.897
 3871POPC   C4A50778  35.507  13.691   7.316
 3871POPC   C1B50779  35.047  13.800   6.144
 3871POPC   C2B50780  35.096  13.624   6.488
 3871POPC   C3B50781  34.918  13.417   6.816
 3871POPC   C4B50782  34.983  13.630   7.205
 3872POPC   NC350783   9.633  37.491   4.770
 3872POPC   PO450784   9.867  37.707   5.449
 3872POPC   GL150785   9.826  37.685   5.830
 3872POPC   GL250786  10.097  37.458   5.844
 3872POPC   C1A50787   9.596  37.801   6.211
 3872POPC   D2A50788   9.594  38.102   6.538
 3872POPC   C3A50789   9.481  37.912   6.927
 3872POPC   C4A50790   9.730  37.798   7.276
 3872POPC   C1B50791  10.081  37.652   6.256
 3872POPC   C2B50792   9.876  37.660   6.659
 3872POPC   C3B50793  10.148  37.697   7.005
 3872POPC   C4B50794  10.126  37.505   7.384
 3873POPC   NC350795  16.313  35.851   5.524
 3873POPC   PO450796  15.742  36.227   5.409
 3873POPC   GL150797  15.980  36.163   5.785
 3873POPC   GL250798  15.851  35.790   5.725
 3873POPC   C1A50799  16.134  36.450   6.156
 3873POPC   D2A50800  15.970  36.576   6.594
 3873POPC   C3A50801  16.094  36.457   7.011
 3873POPC   C4A50802  15.784  36.273   7.317
 3873POPC   C1B50803  15.863  35.785   6.153
 3873POPC   C2B50804  15.999  36.037   6.487
 3873POPC   C3B50805  15.820  36.047   6.863
 3873POPC   C4B50806  15.828  35.753   7.193
 3874POPC   NC350807  41.266  11.414   5.450
 3874POPC   PO450808  41.859  11.142   5.220
 3874POPC   GL150809  41.681  11.073   5.673
 3874POPC   GL250810  42.022  11.091   5.787
 3874POPC   C1A50811  41.430  11.238   6.094
 3874POPC   D2A50812  41.197  11.389   6.506
 3874POPC   C3A50813  41.456  11.307   6.897
 3874POPC   C4A50814  41.323  11.073   7.241
 3874POPC   C1B50815  41.850  10.951   6.158
 3874POPC   C2B50816  41.804  11.151   6.543
 3874POPC   C3B50817  41.955  11.133   6.956
 3874POPC   C4B50818  41.818  10.932   7.294
 3875POPC   NC350819  17.459  17.881   5.382
 3875POPC   PO450820  17.781  17.350   5.416
 3875POPC   GL150821  17.579  17.468   5.845
 3875POPC   GL250822  17.399  17.772   5.878
 3875POPC   C1A50823  17.499  17.370   6.321
 3875POPC   D2A50824  17.719  17.349   6.746
 3875POPC   C3A50825  17.575  17.219   7.177
 3875POPC   C4A50826  17.238  17.241   7.461
 3875POPC   C1B50827  17.209  17.789   6.284
 3875POPC   C2B50828  17.296  17.676   6.704
 3875POPC   C3B50829  17.247  17.630   7.133
 3875POPC   C4B50830  17.483  17.678   7.542
 3876POPC   NC350831   3.628  12.433   5.480
 3876POPC   PO450832   3.143  11.997   5.368
 3876POPC   GL150833   3.433  12.019   5.789
 3876POPC   GL250834   3.644  12.302   5.975
 3876POPC   C1A50835   3.529  11.855   6.234
 3876POPC   D2A50836   3.859  11.762   6.554
 3876POPC   C3A50837   3.727  11.932   6.936
 3876POPC   C4A50838   3.371  11.894   7.162
 3876POPC   C1B50839   3.803  12.258   6.421
 3876POPC   C2B50840   3.811  12.429   6.833
 3876POPC   C3B50841   3.643  12.369   7.241
 3876POPC   C4B50842   3.716  12.400   7.709
 3877POPC   NC350843   6.360   8.873   5.404
 3877POPC   PO450844   7.003   9.043   5.464
 3877POPC   GL150845   6.863   9.177   5.833
 3877POPC   GL250846   6.585   8.982   5.856
 3877POPC   C1A50847   6.917   9.050   6.269
 3877POPC   D2A50848   6.728   8.913   6.660
 3877POPC   C3A50849   6.918   8.895   7.087
 3877POPC   C4A50850   6.801   8.812   7.570
 3877POPC   C1B50851   6.441   8.720   6.172
 3877POPC   C2B50852   6.224   8.843   6.516
 3877POPC   C3B50853   6.293   9.006   6.917
 3877POPC   C4B50854   6.408   8.885   7.282
 3878POPC   NC350855  17.630  25.656   5.269
 3878POPC   PO450856  17.502  26.301   5.387
 3878POPC   GL150857  17.646  25.974   5.707
 3878POPC   GL250858  17.523  26.209   5.901
 3878POPC   C1A50859  17.498  25.781   6.162
 3878POPC   D2A50860  17.351  25.565   6.525
 3878POPC   C3A50861  17.357  25.788   6.908
 3878POPC   C4A50862  17.534  25.834   7.307
 3878POPC   C1B50863  17.872  26.111   6.165
 3878POPC   C2B50864  17.641  26.161   6.566
 3878POPC   C3B50865  17.551  26.262   6.995
 3878POPC   C4B50866  17.911  26.229   7.293
 3879POPC   NC350867  40.965   7.236   5.459
 3879POPC   PO450868  40.359   7.478   5.352
 3879POPC   GL150869  40.575   7.431   5.790
 3879POPC   GL250870  40.947   7.478   5.905
 3879POPC   C1A50871  40.434   7.510   6.234
 3879POPC   D2A50872  40.281   7.341   6.657
 3879POPC   C3A50873  40.492   7.561   6.998
 3879POPC   C4A50874  40.844   7.583   7.305
 3879POPC   C1B50875  40.904   7.320   6.325
 3879POPC   C2B50876  40.918   7.390   6.772
 3879POPC   C3B50877  40.924   7.119   7.167
 3879POPC   C4B50878  41.079   7.151   7.638
 3880POPC   NC350879  12.286  14.655   5.307
 3880POPC   PO450880  12.048  14.153   5.537
 3880POPC   GL150881  12.085  14.527   5.758
 3880POPC   GL250882  12.455  14.554   5.793
 3880POPC   C1A50883  12.079  14.544   6.187
 3880POPC   D2A50884  11.850  14.545   6.539
 3880POPC   C3A50885  12.052  14.568   6.923
 3880POPC   C4A50886  11.756  14.699   7.260
 3880POPC   C1B50887  12.418  14.165   6.109
 3880POPC   C2B50888  12.208  14.164   6.536
 3880POPC   C3B50889  12.015  14.073   6.940
 3880POPC   C4B50890  12.107  14.284   7.341
 3881POPC   NC350891  31.107  20.737   5.269
 3881POPC   PO450892  31.673  20.364   5.232
 3881POPC   GL150893  31.447  20.551   5.649
 3881POPC   GL250894  31.272  20.904   5.765
 3881POPC   C1A50895  31.572  20.633   6.078
 3881POPC   D2A50896  31.314  20.657   6.469
 3881POPC   C3A50897  31.505  20.625   6.886
 3881POPC   C4A50898  31.430  20.367   7.264
 3881POPC   C1B50899  31.504  21.125   6.130
 3881POPC   C2B50900  31.344  21.183   6.516
 3881POPC   C3B50901  31.127  20.990   6.834
 3881POPC   C4B50902  31.157  20.794   7.214
 3882POPC   NC350903  38.658  44.214   5.479
 3882POPC   PO450904  38.606  43.575   5.223
 3882POPC   GL150905  38.485  43.575   5.651
 3882POPC   GL250906  38.450  43.884   5.838
 3882POPC   C1A50907  38.521  43.452   6.083
 3882POPC   D2A50908  38.340  43.463   6.468
 3882POPC   C3A50909  38.581  43.642   6.814
 3882POPC   C4A50910  38.376  43.948   7.140
 3882POPC   C1B50911  38.571  43.923   6.314
 3882POPC   C2B50912  38.616  44.138   6.715
 3882POPC   C3B50913  38.738  44.285   7.128
 3882POPC   C4B50914  38.498  44.260   7.535
 3883POPC   NC350915  36.239  24.908   5.045
 3883POPC   PO450916  36.021  25.421   5.358
 3883POPC   GL150917  36.290  25.186   5.669
 3883POPC   GL250918  36.057  25.062   5.895
 3883POPC   C1A50919  36.520  25.103   6.091
 3883POPC   D2A50920  36.344  25.100   6.550
 3883POPC   C3A50921  36.491  25.235   6.982
 3883POPC   C4A50922  36.281  25.349   7.384
 3883POPC   C1B50923  36.128  25.402   6.184
 3883POPC   C2B50924  36.042  25.508   6.622
 3883POPC   C3B50925  35.920  25.311   7.014
 3883POPC   C4B50926  35.769  25.540   7.373
 3884POPC   NC350927   0.263  23.360   5.372
 3884POPC   PO450928   0.653  23.936   5.436
 3884POPC   GL150929   0.579  23.784   5.815
 3884POPC   GL250930   0.584  23.440   5.828
 3884POPC   C1A50931   0.240  23.712   6.142
 3884POPC   D2A50932   0.171  23.547   6.588
 3884POPC   C3A50933   0.149  23.799   6.988
 3884POPC   C4A50934   0.126  23.915   7.451
 3884POPC   C1B50935   0.733  23.566   6.259
 3884POPC   C2B50936   0.891  23.659   6.670
 3884POPC   C3B50937   0.846  23.491   7.056
 3884POPC   C4B50938   0.542  23.656   7.292
 3885POPC   NC350939  15.894  18.202   5.451
 3885POPC   PO450940  15.548  18.739   5.531
 3885POPC   GL150941  15.770  18.484   5.851
 3885POPC   GL250942  15.676  18.102   5.904
 3885POPC   C1A50943  16.030  18.327   6.198
 3885POPC   D2A50944  15.974  18.453   6.642
 3885POPC   C3A50945  16.080  18.276   7.043
 3885POPC   C4A50946  15.925  18.251   7.463
 3885POPC   C1B50947  15.869  17.850   6.242
 3885POPC   C2B50948  16.011  17.895   6.667
 3885POPC   C3B50949  15.829  17.837   7.078
 3885POPC   C4B50950  15.825  17.768   7.570
 3886POPC   NC350951  38.065  11.270   5.434
 3886POPC   PO450952  38.667  11.571   5.542
 3886POPC   GL150953  38.402  11.386   5.868
 3886POPC   GL250954  38.166  11.098   5.925
 3886POPC   C1A50955  38.337  11.493   6.314
 3886POPC   D2A50956  38.704  11.445   6.605
 3886POPC   C3A50957  38.669  11.236   6.992
 3886POPC   C4A50958  38.256  11.303   7.106
 3886POPC   C1B50959  38.430  10.977   6.287
 3886POPC   C2B50960  38.279  10.754   6.675
 3886POPC   C3B50961  38.136  10.807   7.101
 3886POPC   C4B50962  38.549  10.849   7.313
 3887POPC   NC350963  21.870  36.852   4.986
 3887POPC   PO450964  22.245  37.044   5.313
 3887POPC   GL150965  22.039  36.930   5.688
 3887POPC   GL250966  22.019  36.577   5.808
 3887POPC   C1A50967  22.179  36.988   6.116
 3887POPC   D2A50968  22.060  36.998   6.552
 3887POPC   C3A50969  22.285  37.197   6.902
 3887POPC   C4A50970  22.095  37.224   7.298
 3887POPC   C1B50971  22.026  36.519   6.291
 3887POPC   C2B50972  22.246  36.546   6.713
 3887POPC   C3B50973  22.282  36.738   7.142
 3887POPC   C4B50974  22.300  36.811   7.604
 3888POPC   NC350975   2.856  32.675   5.428
 3888POPC   PO450976   2.616  32.000   5.608
 3888POPC   GL150977   2.761  32.362   5.802
 3888POPC   GL250978   3.112  32.318   5.735
 3888POPC   C1A50979   2.837  32.588   6.186
 3888POPC   D2A50980   2.990  32.413   6.586
 3888POPC   C3A50981   2.862  32.533   7.006
 3888POPC   C4A50982   2.570  32.280   7.200
 3888POPC   C1B50983   3.215  32.035   6.092
 3888POPC   C2B50984   3.344  32.039   6.522
 3888POPC   C3B50985   3.100  31.939   6.887
 3888POPC   C4B50986   3.056  32.085   7.301
 3889POPC   NC350987  34.379  44.267   5.210
 3889POPC   PO450988  34.893  43.874   5.386
 3889POPC   GL150989  34.680  43.789   5.758
 3889POPC   GL250990  34.401  43.987   5.738
 3889POPC   C1A50991  34.747  43.840   6.202
 3889POPC   D2A50992  34.503  43.970   6.550
 3889POPC   C3A50993  34.576  43.925   6.986
 3889POPC   C4A50994  34.363  44.072   7.374
 3889POPC   C1B50995  34.255  43.784   6.123
 3889POPC   C2B50996  34.090  43.645   6.551
 3889POPC   C3B50997  34.087  43.738   7.013
 3889POPC   C4B50998  34.001  43.712   7.485
 3890POPC   NC350999  32.889  39.230   5.052
 3890POPC   PO451000  32.225  39.285   5.176
 3890POPC   GL151001  32.133  39.207   5.659
 3890POPC   GL251002  32.023  39.472   5.882
 3890POPC   C1A51003  32.102  38.964   6.047
 3890POPC   D2A51004  32.061  39.036   6.495
 3890POPC   C3A51005  32.423  39.038   6.777
 3890POPC   C4A51006  32.329  39.003   7.202
 3890POPC   C1B51007  32.315  39.408   6.194
 3890POPC   C2B51008  32.280  39.533   6.615
 3890POPC   C3B51009  32.138  39.444   7.028
 3890POPC   C4B51010  32.090  39.493   7.480
 3891POPC   NC351011  19.835  40.939   5.287
 3891POPC   PO451012  20.102  40.422   5.678
 3891POPC   GL151013  20.058  40.873   5.753
 3891POPC   GL251014  19.742  41.078   5.770
 3891POPC   C1A51015  20.019  40.932   6.185
 3891POPC   D2A51016  19.747  40.953   6.531
 3891POPC   C3A51017  19.774  40.703   6.889
 3891POPC   C4A51018  19.933  40.793   7.284
 3891POPC   C1B51019  19.496  41.137   6.134
 3891POPC   C2B51020  19.383  41.356   6.516
 3891POPC   C3B51021  19.514  41.188   6.914
 3891POPC   C4B51022  19.469  41.017   7.323
 3892POPC   NC351023  26.655  19.287   5.348
 3892POPC   PO451024  26.879  18.763   5.333
 3892POPC   GL151025  26.703  18.948   5.727
 3892POPC   GL251026  26.966  19.141   5.866
 3892POPC   C1A51027  26.475  19.114   6.063
 3892POPC   D2A51028  26.642  19.165   6.467
 3892POPC   C3A51029  26.817  18.905   6.748
 3892POPC   C4A51030  26.674  19.113   7.122
 3892POPC   C1B51031  27.110  19.000   6.298
 3892POPC   C2B51032  27.370  18.961   6.695
 3892POPC   C3B51033  27.185  19.039   7.093
 3892POPC   C4B51034  26.975  18.637   7.151
 3893POPC   NC351035   4.861  35.441   5.436
 3893POPC   PO451036   4.294  35.008   5.262
 3893POPC   GL151037   4.277  35.381   5.604
 3893POPC   GL251038   4.499  35.254   5.833
 3893POPC   C1A51039   4.166  35.676   6.003
 3893POPC   D2A51040   4.483  35.748   6.371
 3893POPC   C3A51041   4.410  35.525   6.795
 3893POPC   C4A51042   4.163  35.672   7.158
 3893POPC   C1B51043   4.088  35.171   6.054
 3893POPC   C2B51044   3.950  35.328   6.443
 3893POPC   C3B51045   3.944  35.263   6.882
 3893POPC   C4B51046   3.896  35.140   7.299
 3894POPC   NC351047  31.293  24.677   5.483
 3894POPC   PO451048  31.693  24.293   5.144
 3894POPC   GL151049  31.655  24.294   5.613
 3894POPC   GL251050  31.345  24.261   5.740
 3894POPC   C1A51051  31.718  24.400   6.087
 3894POPC   D2A51052  31.821  24.569   6.511
 3894POPC   C3A51053  31.556  24.524   6.868
 3894POPC   C4A51054  31.698  24.426   7.238
 3894POPC   C1B51055  31.264  24.155   6.120
 3894POPC   C2B51056  31.310  24.303   6.502
 3894POPC   C3B51057  31.176  24.152   6.914
 3894POPC   C4B51058  31.247  24.227   7.296
 3895POPC   NC351059   7.905  26.155   5.256
 3895POPC   PO451060   8.295  25.707   5.478
 3895POPC   GL151061   7.995  25.879   5.775
 3895POPC   GL251062   7.982  26.260   5.782
 3895POPC   C1A51063   8.089  25.851   6.229
 3895POPC   D2A51064   8.251  26.054   6.615
 3895POPC   C3A51065   8.177  25.839   7.019
 3895POPC   C4A51066   8.521  25.714   7.292
 3895POPC   C1B51067   8.110  26.374   6.223
 3895POPC   C2B51068   7.932  26.469   6.646
 3895POPC   C3B51069   8.179  26.381   7.007
 3895POPC   C4B51070   8.421  26.206   7.292
 3896POPC   NC351071  25.753  33.257   5.449
 3896POPC   PO451072  26.345  32.921   5.499
 3896POPC   GL151073  25.972  32.900   5.760
 3896POPC   GL251074  26.047  33.246   5.858
 3896POPC   C1A51075  25.770  32.920   6.188
 3896POPC   D2A51076  25.920  33.220   6.504
 3896POPC   C3A51077  26.044  33.050   6.904
 3896POPC   C4A51078  25.830  32.799   7.257
 3896POPC   C1B51079  26.275  32.988   6.161
 3896POPC   C2B51080  26.440  32.886   6.530
 3896POPC   C3B51081  26.578  32.970   6.930
 3896POPC   C4B51082  26.332  32.866   7.288
 3897POPC   NC351083   6.141  31.736   4.918
 3897POPC   PO451084   5.844  31.490   5.487
 3897POPC   GL151085   5.688  31.423   5.850
 3897POPC   GL251086   5.586  31.087   5.911
 3897POPC   C1A51087   5.700  31.669   6.191
 3897POPC   D2A51088   5.769  31.899   6.558
 3897POPC   C3A51089   5.747  31.618   6.885
 3897POPC   C4A51090   5.890  31.583   7.263
 3897POPC   C1B51091   5.822  31.113   6.268
 3897POPC   C2B51092   5.783  31.014   6.696
 3897POPC   C3B51093   5.623  30.924   7.100
 3897POPC   C4B51094   5.523  31.233   7.372
 3898POPC   NC351095   8.981  28.069   5.413
 3898POPC   PO451096   8.821  28.755   5.316
 3898POPC   GL151097   8.983  28.682   5.769
 3898POPC   GL251098   8.984  28.329   5.867
 3898POPC   C1A51099   9.207  28.672   6.194
 3898POPC   D2A51100   9.234  28.428   6.573
 3898POPC   C3A51101   9.085  28.669   6.895
 3898POPC   C4A51102   9.130  28.524   7.304
 3898POPC   C1B51103   8.737  28.438   6.233
 3898POPC   C2B51104   8.727  28.178   6.597
 3898POPC   C3B51105   8.826  28.224   7.014
 3898POPC   C4B51106   8.636  28.600   7.118
 3899POPC   NC351107  10.181   7.152   5.437
 3899POPC   PO451108  10.764   7.430   5.226
 3899POPC   GL151109  10.713   7.394   5.700
 3899POPC   GL251110  10.368   7.361   5.859
 3899POPC   C1A51111  10.693   7.550   6.154
 3899POPC   D2A51112  10.435   7.505   6.533
 3899POPC   C3A51113  10.588   7.463   6.968
 3899POPC   C4A51114  10.339   7.177   7.225
 3899POPC   C1B51115  10.170   7.698   6.128
 3899POPC   C2B51116   9.916   7.731   6.487
 3899POPC   C3B51117  10.093   7.677   6.884
 3899POPC   C4B51118  10.246   7.773   7.256
 3900POPC   NC351119   4.735  22.561   5.344
 3900POPC   PO451120   4.152  22.215   5.538
 3900POPC   GL151121   4.312  22.090   5.917
 3900POPC   GL251122   4.579  21.893   5.761
 3900POPC   C1A51123   4.187  22.099   6.341
 3900POPC   D2A51124   4.195  22.475   6.614
 3900POPC   C3A51125   4.349  22.362   6.996
 3900POPC   C4A51126   4.319  22.495   7.386
 3900POPC   C1B51127   4.693  21.951   6.215
 3900POPC   C2B51128   4.608  22.131   6.621
 3900POPC   C3B51129   4.725  22.017   7.046
 3900POPC   C4B51130   4.401  21.955   7.367
 3901POPC   NC351131  32.679  40.557   5.386
 3901POPC   PO451132  32.139  40.940   5.494
 3901POPC   GL151133  32.209  40.832   5.878
 3901POPC   GL251134  32.517  40.923   5.870
 3901POPC   C1A51135  32.368  40.746   6.324
 3901POPC   D2A51136  32.667  40.663   6.621
 3901POPC   C3A51137  32.524  40.679   7.013
 3901POPC   C4A51138  32.150  40.796   7.120
 3901POPC   C1B51139  32.440  41.229   6.203
 3901POPC   C2B51140  32.603  41.191   6.605
 3901POPC   C3B51141  32.444  41.208   7.017
 3901POPC   C4B51142  32.436  41.068   7.436
 3902POPC   NC351143  14.132  25.783   5.553
 3902POPC   PO451144  14.261  26.499   5.396
 3902POPC   GL151145  14.468  26.265   5.774
 3902POPC   GL251146  14.620  25.909   5.758
 3902POPC   C1A51147  14.342  26.062   6.163
 3902POPC   D2A51148  14.402  25.881   6.567
 3902POPC   C3A51149  14.529  26.183   6.864
 3902POPC   C4A51150  14.416  26.333   7.294
 3902POPC   C1B51151  14.675  25.631   6.134
 3902POPC   C2B51152  14.666  25.426   6.538
 3902POPC   C3B51153  14.637  25.588   6.953
 3902POPC   C4B51154  14.646  25.885   7.269
 3903POPC   NC351155   9.965  39.762   5.515
 3903POPC   PO451156   9.865  40.299   5.171
 3903POPC   GL151157   9.712  40.200   5.647
 3903POPC   GL251158   9.540  39.881   5.752
 3903POPC   C1A51159   9.818  40.147   6.114
 3903POPC   D2A51160  10.073  40.266   6.486
 3903POPC   C3A51161   9.899  40.179   6.905
 3903POPC   C4A51162   9.650  40.121   7.284
 3903POPC   C1B51163   9.663  39.650   6.144
 3903POPC   C2B51164   9.797  39.781   6.554
 3903POPC   C3B51165   9.578  39.762   6.927
 3903POPC   C4B51166   9.452  39.644   7.314
 3904POPC   NC351167   8.693   4.511   5.409
 3904POPC   PO451168   8.140   4.159   5.222
 3904POPC   GL151169   8.058   4.423   5.588
 3904POPC   GL251170   8.340   4.334   5.815
 3904POPC   C1A51171   7.936   4.645   5.996
 3904POPC   D2A51172   7.877   4.665   6.460
 3904POPC   C3A51173   8.098   4.561   6.818
 3904POPC   C4A51174   8.004   4.695   7.212
 3904POPC   C1B51175   7.936   4.119   6.000
 3904POPC   C2B51176   7.878   3.924   6.392
 3904POPC   C3B51177   7.887   4.081   6.810
 3904POPC   C4B51178   8.133   4.182   7.177
 3905POPC   NC351179   4.805  16.205   5.263
 3905POPC   PO451180   5.283  15.749   5.383
 3905POPC   GL151181   5.281  15.780   5.816
 3905POPC   GL251182   4.947  15.770   5.863
 3905POPC   C1A51183   5.405  15.737   6.263
 3905POPC   D2A51184   5.492  15.647   6.729
 3905POPC   C3A51185   5.136  15.760   7.019
 3905POPC   C4A51186   4.944  16.170   7.168
 3905POPC   C1B51187   4.907  15.558   6.269
 3905POPC   C2B51188   4.770  15.708   6.637
 3905POPC   C3B51189   4.686  15.510   6.997
 3905POPC   C4B51190   4.759  15.725   7.386
 3906POPC   NC351191  25.006  29.404   5.574
 3906POPC   PO451192  25.219  28.914   5.225
 3906POPC   GL151193  25.259  28.869   5.719
 3906POPC   GL251194  24.947  28.801   5.920
 3906POPC   C1A51195  25.470  28.850   6.157
 3906POPC   D2A51196  25.600  28.769   6.646
 3906POPC   C3A51197  25.428  29.073   6.988
 3906POPC   C4A51198  25.574  29.492   7.105
 3906POPC   C1B51199  24.985  29.132   6.264
 3906POPC   C2B51200  25.184  29.380   6.633
 3906POPC   C3B51201  25.027  29.401   7.063
 3906POPC   C4B51202  24.839  29.020   7.105
 3907POPC   NC351203  27.279  10.751   5.500
 3907POPC   PO451204  26.598  10.638   5.465
 3907POPC   GL151205  26.703  10.487   5.858
 3907POPC   GL251206  27.029  10.370   5.805
 3907POPC   C1A51207  26.677  10.564   6.322
 3907POPC   D2A51208  26.499  10.698   6.694
 3907POPC   C3A51209  26.678  10.561   7.066
 3907POPC   C4A51210  26.987  10.794   7.333
 3907POPC   C1B51211  27.159  10.554   6.214
 3907POPC   C2B51212  27.073  10.617   6.686
 3907POPC   C3B51213  27.233  10.406   7.067
 3907POPC   C4B51214  27.263  10.354   7.519
 3908POPC   NC351215   0.489  11.747   5.350
 3908POPC   PO451216   0.593  12.429   5.321
 3908POPC   GL151217   0.655  12.102   5.670
 3908POPC   GL251218   0.312  11.962   5.808
 3908POPC   C1A51219   0.731  12.007   6.110
 3908POPC   D2A51220   0.514  11.884   6.482
 3908POPC   C3A51221   0.711  12.013   6.863
 3908POPC   C4A51222   0.612  12.075   7.284
 3908POPC   C1B51223   0.164  12.168   6.182
 3908POPC   C2B51224   0.020  12.091   6.604
 3908POPC   C3B51225   0.170  12.162   7.038
 3908POPC   C4B51226   0.174  12.476   7.421
 3909POPC   NC351227  16.005  37.318   5.427
 3909POPC   PO451228  16.388  37.814   5.410
 3909POPC   GL151229  16.117  37.668   5.788
 3909POPC   GL251230  15.735  37.574   5.775
 3909POPC   C1A51231  16.020  37.386   6.139
 3909POPC   D2A51232  15.838  37.416   6.515
 3909POPC   C3A51233  16.103  37.686   6.777
 3909POPC   C4A51234  16.200  37.639   7.210
 3909POPC   C1B51235  15.748  37.833   6.176
 3909POPC   C2B51236  15.662  37.880   6.620
 3909POPC   C3B51237  15.634  37.599   6.992
 3909POPC   C4B51238  15.726  37.719   7.425
 3910POPC   NC351239  43.791  31.706   5.676
 3910POPC   PO451240  44.182  31.229   5.491
 3910POPC   GL151241  44.167  31.232   5.908
 3910POPC   GL251242  44.251  31.580   5.888
 3910POPC   C1A51243  44.024  31.338   6.331
 3910POPC   D2A51244  43.690  31.438   6.616
 3910POPC   C3A51245  43.756  31.185   7.023
 3910POPC   C4A51246  44.144  31.240   7.301
 3910POPC   C1B51247  44.233  31.811   6.230
 3910POPC   C2B51248  44.040  31.823   6.583
 3910POPC   C3B51249  44.028  31.617   6.946
 3910POPC   C4B51250  43.722  31.653   7.246
 3911POPC   NC351251  17.681   9.269   5.381
 3911POPC   PO451252  17.147   9.000   5.642
 3911POPC   GL151253  17.276   9.037   6.028
 3911POPC   GL251254  17.616   9.007   5.896
 3911POPC   C1A51255  17.520   9.079   6.423
 3911POPC   D2A51256  17.784   9.073   6.800
 3911POPC   C3A51257  17.617   9.171   7.247
 3911POPC   C4A51258  17.409   9.154   7.699
 3911POPC   C1B51259  17.539   8.638   6.190
 3911POPC   C2B51260  17.382   8.571   6.614
 3911POPC   C3B51261  17.594   8.613   7.018
 3911POPC   C4B51262  17.532   8.722   7.454
 3912POPC   NC351263  34.227  13.207   5.545
 3912POPC   PO451264  33.567  12.884   5.401
 3912POPC   GL151265  33.726  12.766   5.784
 3912POPC   GL251266  34.075  12.743   5.746
 3912POPC   C1A51267  33.838  12.927   6.196
 3912POPC   D2A51268  33.956  13.175   6.553
 3912POPC   C3A51269  33.895  12.984   6.919
 3912POPC   C4A51270  33.702  13.016   7.299
 3912POPC   C1B51271  34.208  12.579   6.126
 3912POPC   C2B51272  34.222  12.736   6.553
 3912POPC   C3B51273  34.215  12.558   6.954
 3912POPC   C4B51274  34.106  12.699   7.326
 3913POPC   NC351275  18.862  27.830   5.334
 3913POPC   PO451276  18.198  27.636   5.252
 3913POPC   GL151277  18.285  27.552   5.668
 3913POPC   GL251278  18.538  27.794   5.748
 3913POPC   C1A51279  18.376  27.382   6.093
 3913POPC   D2A51280  18.573  27.460   6.511
 3913POPC   C3A51281  18.349  27.334   6.883
 3913POPC   C4A51282  18.195  27.395   7.287
 3913POPC   C1B51283  18.460  28.056   6.107
 3913POPC   C2B51284  18.184  28.077   6.458
 3913POPC   C3B51285  18.321  27.846   6.817
 3913POPC   C4B51286  18.553  27.889   7.160
 3914POPC   NC351287  41.205  35.731   5.406
 3914POPC   PO451288  40.784  36.289   5.241
 3914POPC   GL151289  40.726  36.188   5.724
 3914POPC   GL251290  40.822  35.887   5.793
 3914POPC   C1A51291  41.018  36.185   6.174
 3914POPC   D2A51292  41.114  36.010   6.616
 3914POPC   C3A51293  40.964  36.232   6.990
 3914POPC   C4A51294  40.579  36.388   7.130
 3914POPC   C1B51295  40.542  36.043   6.164
 3914POPC   C2B51296  40.585  36.193   6.595
 3914POPC   C3B51297  40.551  35.907   6.949
 3914POPC   C4B51298  40.547  35.807   7.388
 3915POPC   NC351299  13.114   4.664   5.015
 3915POPC   PO451300  12.820   5.172   5.412
 3915POPC   GL151301  12.719   5.118   5.809
 3915POPC   GL251302  12.409   5.294   5.851
 3915POPC   C1A51303  12.951   5.053   6.186
 3915POPC   D2A51304  12.784   4.952   6.552
 3915POPC   C3A51305  12.887   5.201   6.877
 3915POPC   C4A51306  12.986   5.381   7.244
 3915POPC   C1B51307  12.319   5.443   6.214
 3915POPC   C2B51308  12.527   5.400   6.557
 3915POPC   C3B51309  12.569   5.615   6.934
 3915POPC   C4B51310  12.462   5.513   7.352
 3916POPC   NC351311  43.052  11.177   5.147
 3916POPC   PO451312  42.981  11.742   5.572
 3916POPC   GL151313  43.018  11.329   5.762
 3916POPC   GL251314  43.335  11.109   5.738
 3916POPC   C1A51315  43.102  11.314   6.192
 3916POPC   D2A51316  43.326  11.591   6.441
 3916POPC   C3A51317  43.188  11.544   6.838
 3916POPC   C4A51318  42.976  11.342   7.130
 3916POPC   C1B51319  43.533  11.060   6.168
 3916POPC   C2B51320  43.356  11.086   6.607
 3916POPC   C3B51321  43.339  10.985   7.077
 3916POPC   C4B51322  43.190  11.130   7.544
 3917POPC   NC351323   5.444  21.048   5.455
 3917POPC   PO451324   5.110  20.523   5.561
 3917POPC   GL151325   5.297  20.548   5.942
 3917POPC   GL251326   5.257  20.891   5.914
 3917POPC   C1A51327   5.264  20.608   6.364
 3917POPC   D2A51328   4.884  20.583   6.572
 3917POPC   C3A51329   4.970  20.377   6.905
 3917POPC   C4A51330   5.006  20.492   7.311
 3917POPC   C1B51331   4.924  20.985   6.221
 3917POPC   C2B51332   4.798  21.073   6.658
 3917POPC   C3B51333   4.968  20.893   7.001
 3917POPC   C4B51334   5.095  20.990   7.369
 3918POPC   NC351335  36.877   5.624   5.338
 3918POPC   PO451336  37.237   6.137   5.477
 3918POPC   GL151337  36.916   6.027   5.812
 3918POPC   GL251338  36.552   5.930   5.860
 3918POPC   C1A51339  36.828   6.156   6.248
 3918POPC   D2A51340  36.606   5.912   6.563
 3918POPC   C3A51341  36.812   5.752   6.956
 3918POPC   C4A51342  36.931   5.438   7.287
 3918POPC   C1B51343  36.330   6.223   6.188
 3918POPC   C2B51344  36.424   6.409   6.570
 3918POPC   C3B51345  36.510   6.192   6.979
 3918POPC   C4B51346  36.609   5.969   7.367
 3919POPC   NC351347  36.580  34.168   5.418
 3919POPC   PO451348  37.155  34.428   5.408
 3919POPC   GL151349  36.987  34.690   5.725
 3919POPC   GL251350  36.645  34.626   5.673
 3919POPC   C1A51351  37.055  34.734   6.202
 3919POPC   D2A51352  37.224  34.806   6.662
 3919POPC   C3A51353  37.132  34.534   7.035
 3919POPC   C4A51354  37.063  34.590   7.537
 3919POPC   C1B51355  36.586  34.490   6.094
 3919POPC   C2B51356  36.741  34.518   6.551
 3919POPC   C3B51357  36.591  34.593   6.967
 3919POPC   C4B51358  36.578  34.672   7.448
 3920POPC   NC351359  25.094  29.296   4.984
 3920POPC   PO451360  24.451  29.107   5.266
 3920POPC   GL151361  24.564  29.080   5.670
 3920POPC   GL251362  24.477  29.404   5.762
 3920POPC   C1A51363  24.454  28.987   6.098
 3920POPC   D2A51364  24.212  29.149   6.445
 3920POPC   C3A51365  24.408  28.991   6.800
 3920POPC   C4A51366  24.359  29.026   7.218
 3920POPC   C1B51367  24.569  29.485   6.181
 3920POPC   C2B51368  24.659  29.386   6.608
 3920POPC   C3B51369  24.464  29.479   7.000
 3920POPC   C4B51370  24.496  29.470   7.456
 3921POPC   NC351371  27.855  42.331   5.487
 3921POPC   PO451372  27.236  41.932   5.402
 3921POPC   GL151373  27.403  42.202   5.712
 3921POPC   GL251374  27.730  42.119   5.919
 3921POPC   C1A51375  27.330  42.530   6.041
 3921POPC   D2A51376  27.650  42.649   6.345
 3921POPC   C3A51377  27.551  42.675   6.787
 3921POPC   C4A51378  27.748  42.460   7.133
 3921POPC   C1B51379  27.388  42.056   6.186
 3921POPC   C2B51380  27.279  42.270   6.529
 3921POPC   C3B51381  27.496  42.125   6.847
 3921POPC   C4B51382  27.393  42.030   7.235
 3922POPC   NC351383   8.961  37.748   5.392
 3922POPC   PO451384   9.507  37.449   5.200
 3922POPC   GL151385   9.377  37.459   5.672
 3922POPC   GL251386   9.289  37.820   5.790
 3922POPC   C1A51387   9.205  37.450   6.126
 3922POPC   D2A51388   9.158  37.717   6.515
 3922POPC   C3A51389   9.081  37.499   6.915
 3922POPC   C4A51390   9.220  37.677   7.316
 3922POPC   C1B51391   8.895  37.882   6.084
 3922POPC   C2B51392   8.757  38.023   6.526
 3922POPC   C3B51393   8.937  37.988   6.963
 3922POPC   C4B51394   8.773  37.946   7.422
 3923POPC   NC351395   7.296  39.511   5.474
 3923POPC   PO451396   7.101  38.946   5.435
 3923POPC   GL151397   7.333  39.107   5.795
 3923POPC   GL251398   7.194  39.406   5.966
 3923POPC   C1A51399   7.372  38.963   6.211
 3923POPC   D2A51400   7.206  38.937   6.638
 3923POPC   C3A51401   7.498  38.934   6.985
 3923POPC   C4A51402   7.684  39.311   7.140
 3923POPC   C1B51403   7.286  39.429   6.426
 3923POPC   C2B51404   7.250  39.388   6.876
 3923POPC   C3B51405   7.089  39.131   7.212
 3923POPC   C4B51406   7.015  39.096   7.662
 3924POPC   NC351407  37.380  38.558   5.632
 3924POPC   PO451408  37.865  38.168   5.493
 3924POPC   GL151409  37.702  38.208   5.896
 3924POPC   GL251410  37.347  38.180   6.004
 3924POPC   C1A51411  37.869  38.326   6.289
 3924POPC   D2A51412  37.784  38.098   6.650
 3924POPC   C3A51413  37.932  38.306   7.005
 3924POPC   C4A51414  38.058  38.588   7.295
 3924POPC   C1B51415  37.413  38.567   6.285
 3924POPC   C2B51416  37.597  38.601   6.707
 3924POPC   C3B51417  37.579  38.684   7.144
 3924POPC   C4B51418  37.479  38.782   7.572
 3925POPC   NC351419  29.322  13.103   5.558
 3925POPC   PO451420  28.727  12.895   5.483
 3925POPC   GL151421  28.997  12.809   5.832
 3925POPC   GL251422  29.302  12.620   5.744
 3925POPC   C1A51423  29.149  13.029   6.227
 3925POPC   D2A51424  29.296  12.968   6.672
 3925POPC   C3A51425  28.988  12.808   7.029
 3925POPC   C4A51426  28.936  12.904   7.496
 3925POPC   C1B51427  29.206  12.523   6.193
 3925POPC   C2B51428  29.276  12.457   6.634
 3925POPC   C3B51429  29.447  12.601   7.026
 3925POPC   C4B51430  29.217  12.494   7.405
 3926POPC   NC351431  14.350  28.166   5.431
 3926POPC   PO451432  14.573  28.830   5.197
 3926POPC   GL151433  14.509  28.692   5.649
 3926POPC   GL251434  14.186  28.574   5.814
 3926POPC   C1A51435  14.536  28.760   6.104
 3926POPC   D2A51436  14.306  28.593   6.452
 3926POPC   C3A51437  14.551  28.569   6.812
 3926POPC   C4A51438  14.689  28.399   7.209
 3926POPC   C1B51439  14.385  28.236   6.093
 3926POPC   C2B51440  14.324  28.067   6.525
 3926POPC   C3B51441  14.279  28.130   6.978
 3926POPC   C4B51442  14.169  28.467   7.251
 3927POPC   NC351443  11.249  19.487   5.325
 3927POPC   PO451444  11.055  20.186   5.438
 3927POPC   GL151445  11.147  19.852   5.734
 3927POPC   GL251446  11.450  19.715   5.762
 3927POPC   C1A51447  11.212  19.869   6.196
 3927POPC   D2A51448  11.058  19.982   6.602
 3927POPC   C3A51449  11.295  19.906   6.986
 3927POPC   C4A51450  11.161  20.109   7.400
 3927POPC   C1B51451  11.567  19.496   6.131
 3927POPC   C2B51452  11.591  19.613   6.551
 3927POPC   C3B51453  11.784  19.696   6.944
 3927POPC   C4B51454  11.611  19.515   7.297
 3928POPC   NC351455   6.955   8.179   5.413
 3928POPC   PO451456   7.611   8.356   5.506
 3928POPC   GL151457   7.381   8.005   5.740
 3928POPC   GL251458   7.062   8.092   5.927
 3928POPC   C1A51459   7.392   7.775   6.148
 3928POPC   D2A51460   7.284   7.608   6.551
 3928POPC   C3A51461   7.325   7.869   6.884
 3928POPC   C4A51462   7.261   7.808   7.299
 3928POPC   C1B51463   7.044   8.065   6.409
 3928POPC   C2B51464   7.104   8.347   6.776
 3928POPC   C3B51465   7.135   8.315   7.238
 3928POPC   C4B51466   7.151   8.457   7.690
 3929POPC   NC351467   3.196  35.278   5.636
 3929POPC   PO451468   2.572  35.456   5.393
 3929POPC   GL151469   2.514  35.225   5.779
 3929POPC   GL251470   2.789  35.418   5.925
 3929POPC   C1A51471   2.501  35.142   6.246
 3929POPC   D2A51472   2.599  35.393   6.599
 3929POPC   C3A51473   2.615  35.275   7.019
 3929POPC   C4A51474   2.998  35.382   7.127
 3929POPC   C1B51475   3.039  35.273   6.287
 3929POPC   C2B51476   3.002  35.067   6.699
 3929POPC   C3B51477   3.036  34.874   7.100
 3929POPC   C4B51478   2.888  35.056   7.518
 3930POPC   NC351479   2.408   4.143   5.390
 3930POPC   PO451480   1.958   4.629   5.364
 3930POPC   GL151481   2.185   4.530   5.705
 3930POPC   GL251482   2.019   4.214   5.709
 3930POPC   C1A51483   2.082   4.579   6.129
 3930POPC   D2A51484   2.129   4.381   6.523
 3930POPC   C3A51485   2.037   4.544   6.931
 3930POPC   C4A51486   2.390   4.392   7.134
 3930POPC   C1B51487   2.100   4.061   6.092
 3930POPC   C2B51488   1.973   3.897   6.480
 3930POPC   C3B51489   2.050   4.011   6.894
 3930POPC   C4B51490   1.724   4.074   7.176
 3931POPC   NC351491  17.338  26.749   5.462
 3931POPC   PO451492  17.888  27.211   5.537
 3931POPC   GL151493  17.578  27.053   5.834
 3931POPC   GL251494  17.592  26.716   5.877
 3931POPC   C1A51495  17.418  27.004   6.265
 3931POPC   D2A51496  17.514  26.822   6.677
 3931POPC   C3A51497  17.316  27.086   6.973
 3931POPC   C4A51498  17.372  27.143   7.378
 3931POPC   C1B51499  17.719  26.587   6.247
 3931POPC   C2B51500  18.041  26.606   6.519
 3931POPC   C3B51501  17.924  26.618   6.942
 3931POPC   C4B51502  17.593  26.710   7.237
 3932POPC   NC351503  14.851   6.021   5.426
 3932POPC   PO451504  15.602   5.849   5.370
 3932POPC   GL151505  15.338   5.980   5.767
 3932POPC   GL251506  14.969   6.003   5.908
 3932POPC   C1A51507  15.335   5.959   6.228
 3932POPC   D2A51508  15.524   5.757   6.533
 3932POPC   C3A51509  15.402   5.947   6.875
 3932POPC   C4A51510  15.054   6.117   7.077
 3932POPC   C1B51511  14.912   5.664   6.252
 3932POPC   C2B51512  15.008   5.672   6.684
 3932POPC   C3B51513  14.879   5.592   7.092
 3932POPC   C4B51514  14.698   5.833   7.390
 3933POPC   NC351515   5.774  29.333   5.361
 3933POPC   PO451516   6.200  28.991   5.763
 3933POPC   GL151517   5.800  29.151   5.838
 3933POPC   GL251518   5.593  28.906   5.666
 3933POPC   C1A51519   5.728  29.424   6.188
 3933POPC   D2A51520   5.864  29.563   6.611
 3933POPC   C3A51521   5.875  29.214   6.915
 3933POPC   C4A51522   6.141  29.146   7.263
 3933POPC   C1B51523   5.684  28.720   6.098
 3933POPC   C2B51524   5.643  28.821   6.564
 3933POPC   C3B51525   5.476  28.885   6.996
 3933POPC   C4B51526   5.632  29.068   7.388
 3934POPC   NC351527  42.825  12.126   5.364
 3934POPC   PO451528  43.425  12.449   5.492
 3934POPC   GL151529  43.152  12.216   5.818
 3934POPC   GL251530  43.238  11.860   5.995
 3934POPC   C1A51531  43.061  12.231   6.276
 3934POPC   D2A51532  43.138  12.023   6.667
 3934POPC   C3A51533  43.070  12.268   7.052
 3934POPC   C4A51534  43.380  12.401   7.365
 3934POPC   C1B51535  42.848  11.758   6.248
 3934POPC   C2B51536  42.683  11.656   6.649
 3934POPC   C3B51537  42.778  11.841   7.014
 3934POPC   C4B51538  43.103  11.827   7.304
 3935POPC   NC351539  28.591   1.321   5.300
 3935POPC   PO451540  28.189   0.806   5.448
 3935POPC   GL151541  28.391   1.043   5.749
 3935POPC   GL251542  28.110   1.229   5.870
 3935POPC   C1A51543  28.484   1.129   6.190
 3935POPC   D2A51544  28.589   1.285   6.601
 3935POPC   C3A51545  28.474   1.096   6.999
 3935POPC   C4A51546  28.208   1.236   7.294
 3935POPC   C1B51547  27.976   1.168   6.300
 3935POPC   C2B51548  28.021   1.126   6.749
 3935POPC   C3B51549  27.971   0.853   7.086
 3935POPC   C4B51550  27.907   0.857   7.561
 3936POPC   NC351551   8.738  32.860   5.419
 3936POPC   PO451552   9.290  33.169   5.536
 3936POPC   GL151553   9.062  32.942   5.809
 3936POPC   GL251554   9.347  32.855   6.006
 3936POPC   C1A51555   8.704  33.018   6.107
 3936POPC   D2A51556   8.618  33.156   6.556
 3936POPC   C3A51557   8.894  32.956   6.831
 3936POPC   C4A51558   9.052  32.869   7.213
 3936POPC   C1B51559   9.182  33.213   6.233
 3936POPC   C2B51560   9.274  33.225   6.645
 3936POPC   C3B51561   9.270  33.305   7.067
 3936POPC   C4B51562   9.373  33.185   7.482
 3937POPC   NC351563  44.452  25.754   5.443
 3937POPC   PO451564  43.787  25.653   5.549
 3937POPC   GL151565  43.853  25.819   5.876
 3937POPC   GL251566  43.820  26.136   5.759
 3937POPC   C1A51567  43.888  25.918   6.283
 3937POPC   D2A51568  44.064  26.163   6.585
 3937POPC   C3A51569  43.943  25.929   6.903
 3937POPC   C4A51570  43.763  25.903   7.273
 3937POPC   C1B51571  43.679  26.348   6.115
 3937POPC   C2B51572  43.548  26.226   6.530
 3937POPC   C3B51573  43.646  26.369   6.926
 3937POPC   C4B51574  43.547  26.498   7.318
 3938POPC   NC351575  16.156  32.779   5.560
 3938POPC   PO451576  15.816  33.382   5.324
 3938POPC   GL151577  15.851  33.167   5.728
 3938POPC   GL251578  16.117  33.253   5.906
 3938POPC   C1A51579  15.804  32.870   6.121
 3938POPC   D2A51580  15.674  32.958   6.561
 3938POPC   C3A51581  15.828  32.943   6.975
 3938POPC   C4A51582  16.146  32.833   7.255
 3938POPC   C1B51583  16.035  33.282   6.317
 3938POPC   C2B51584  16.242  33.202   6.702
 3938POPC   C3B51585  16.155  33.328   7.103
 3938POPC   C4B51586  15.787  33.406   7.263
 3939POPC   NC351587  10.312  37.779   5.389
 3939POPC   PO451588  10.761  37.354   5.457
 3939POPC   GL151589  10.597  37.576   5.852
 3939POPC   GL251590  10.365  37.910   5.880
 3939POPC   C1A51591  10.705  37.337   6.250
 3939POPC   D2A51592  10.817  37.068   6.616
 3939POPC   C3A51593  10.656  37.263   7.000
 3939POPC   C4A51594  10.617  37.603   7.294
 3939POPC   C1B51595  10.556  37.856   6.312
 3939POPC   C2B51596  10.595  37.833   6.786
 3939POPC   C3B51597  10.474  38.076   7.179
 3939POPC   C4B51598  10.156  38.049   7.519
 3940POPC   NC351599  33.565  17.013   5.319
 3940POPC   PO451600  34.124  16.894   5.637
 3940POPC   GL151601  33.971  16.478   5.886
 3940POPC   GL251602  33.606  16.357   5.795
 3940POPC   C1A51603  34.063  16.333   6.329
 3940POPC   D2A51604  33.982  16.636   6.672
 3940POPC   C3A51605  34.065  16.793   7.086
 3940POPC   C4A51606  33.879  17.038   7.379
 3940POPC   C1B51607  33.534  16.285   6.251
 3940POPC   C2B51608  33.482  16.499   6.670
 3940POPC   C3B51609  33.506  16.764   7.066
 3940POPC   C4B51610  33.481  16.588   7.488
 3941POPC   NC351611  11.751  12.815   5.383
 3941POPC   PO451612  11.072  12.957   5.358
 3941POPC   GL151613  11.346  12.801   5.700
 3941POPC   GL251614  11.693  12.916   5.877
 3941POPC   C1A51615  11.332  12.589   6.069
 3941POPC   D2A51616  11.258  12.782   6.459
 3941POPC   C3A51617  11.099  12.637   6.834
 3941POPC   C4A51618  10.997  12.780   7.258
 3941POPC   C1B51619  11.800  12.649   6.260
 3941POPC   C2B51620  11.682  12.652   6.707
 3941POPC   C3B51621  11.458  12.974   6.966
 3941POPC   C4B51622  11.368  13.085   7.400
 3942POPC   NC351623  11.078  28.390   5.424
 3942POPC   PO451624  11.664  28.655   5.442
 3942POPC   GL151625  11.475  28.333   5.753
 3942POPC   GL251626  11.129  28.336   5.916
 3942POPC   C1A51627  11.577  28.174   6.149
 3942POPC   D2A51628  11.630  28.399   6.536
 3942POPC   C3A51629  11.624  28.195   6.935
 3942POPC   C4A51630  11.373  28.367   7.251
 3942POPC   C1B51631  11.140  28.365   6.351
 3942POPC   C2B51632  11.175  28.396   6.766
 3942POPC   C3B51633  11.102  28.714   7.009
 3942POPC   C4B51634  10.976  28.680   7.420
 3943POPC   NC351635  14.107  26.993   5.529
 3943POPC   PO451636  13.471  26.690   5.367
 3943POPC   GL151637  13.586  26.872   5.762
 3943POPC   GL251638  13.381  27.115   5.838
 3943POPC   C1A51639  13.674  26.766   6.203
 3943POPC   D2A51640  13.982  26.805   6.547
 3943POPC   C3A51641  13.874  26.753   6.999
 3943POPC   C4A51642  13.713  26.813   7.454
 3943POPC   C1B51643  13.335  27.123   6.268
 3943POPC   C2B51644  13.465  26.915   6.678
 3943POPC   C3B51645  13.363  27.004   7.121
 3943POPC   C4B51646  13.347  27.212   7.515
 3944POPC   NC351647  35.724  25.071   5.459
 3944POPC   PO451648  35.305  25.596   5.467
 3944POPC   GL151649  35.428  25.313   5.792
 3944POPC   GL251650  35.758  25.469   5.818
 3944POPC   C1A51651  35.200  25.139   6.151
 3944POPC   D2A51652  35.090  25.187   6.563
 3944POPC   C3A51653  35.145  24.844   6.834
 3944POPC   C4A51654  35.094  24.814   7.255
 3944POPC   C1B51655  35.656  25.298   6.252
 3944POPC   C2B51656  35.598  25.065   6.633
 3944POPC   C3B51657  35.398  25.244   7.001
 3944POPC   C4B51658  35.428  25.172   7.405
 3945POPC   NC351659   6.082  37.080   5.476
 3945POPC   PO451660   5.813  36.495   5.193
 3945POPC   GL151661   5.756  36.616   5.648
 3945POPC   GL251662   5.757  36.955   5.813
 3945POPC   C1A51663   5.762  36.545   6.111
 3945POPC   D2A51664   5.953  36.670   6.504
 3945POPC   C3A51665   5.783  36.587   6.880
 3945POPC   C4A51666   5.732  36.772   7.279
 3945POPC   C1B51667   6.035  37.056   6.178
 3945POPC   C2B51668   6.202  37.107   6.626
 3945POPC   C3B51669   5.920  37.223   6.989
 3945POPC   C4B51670   5.528  37.466   7.025
 3946POPC   NC351671  36.851  41.131   5.195
 3946POPC   PO451672  37.357  40.739   5.320
 3946POPC   GL151673  37.150  40.546   5.770
 3946POPC   GL251674  37.360  40.271   5.895
 3946POPC   C1A51675  36.823  40.456   6.155
 3946POPC   D2A51676  36.574  40.617   6.594
 3946POPC   C3A51677  36.787  40.773   6.995
 3946POPC   C4A51678  37.167  41.049   7.087
 3946POPC   C1B51679  37.319  40.522   6.271
 3946POPC   C2B51680  37.143  40.615   6.667
 3946POPC   C3B51681  37.228  40.496   7.096
 3946POPC   C4B51682  37.422  40.658   7.476
 3947POPC   NC351683  22.498  11.235   5.428
 3947POPC   PO451684  23.142  11.087   5.604
 3947POPC   GL151685  23.023  11.264   5.953
 3947POPC   GL251686  22.711  11.346   5.870
 3947POPC   C1A51687  22.935  11.100   6.354
 3947POPC   D2A51688  23.074  11.174   6.760
 3947POPC   C3A51689  23.057  11.062   7.191
 3947POPC   C4A51690  23.132  11.386   7.506
 3947POPC   C1B51691  22.464  11.097   6.128
 3947POPC   C2B51692  22.466  11.187   6.568
 3947POPC   C3B51693  22.571  11.132   6.990
 3947POPC   C4B51694  22.616  11.305   7.393
 3948POPC   NC351695  14.830  24.306   5.388
 3948POPC   PO451696  15.245  24.665   5.778
 3948POPC   GL151697  15.353  24.247   5.873
 3948POPC   GL251698  15.063  24.122   5.796
 3948POPC   C1A51699  15.276  24.281   6.291
 3948POPC   D2A51700  15.012  24.612   6.406
 3948POPC   C3A51701  15.001  24.696   6.838
 3948POPC   C4A51702  15.239  24.555   7.150
 3948POPC   C1B51703  14.788  24.186   6.123
 3948POPC   C2B51704  14.707  24.228   6.556
 3948POPC   C3B51705  14.514  24.287   6.928
 3948POPC   C4B51706  14.677  24.586   7.220
 3949POPC   NC351707   6.089  12.580   5.346
 3949POPC   PO451708   6.001  11.919   5.399
 3949POPC   GL151709   5.896  12.028   5.797
 3949POPC   GL251710   6.074  12.350   5.818
 3949POPC   C1A51711   5.576  11.992   6.120
 3949POPC   D2A51712   5.564  12.136   6.551
 3949POPC   C3A51713   5.851  11.919   6.786
 3949POPC   C4A51714   5.809  11.922   7.207
 3949POPC   C1B51715   5.970  12.312   6.267
 3949POPC   C2B51716   5.911  12.497   6.696
 3949POPC   C3B51717   5.846  12.487   7.164
 3949POPC   C4B51718   5.843  12.565   7.607
 3950POPC   NC351719  24.167  31.981   5.560
 3950POPC   PO451720  24.651  32.465   5.366
 3950POPC   GL151721  24.543  32.286   5.776
 3950POPC   GL251722  24.849  32.230   5.916
 3950POPC   C1A51723  24.371  32.226   6.214
 3950POPC   D2A51724  24.249  32.036   6.642
 3950POPC   C3A51725  24.196  32.292   6.999
 3950POPC   C4A51726  24.389  32.438   7.339
 3950POPC   C1B51727  24.774  31.889   6.209
 3950POPC   C2B51728  24.752  31.851   6.654
 3950POPC   C3B51729  24.660  32.089   7.033
 3950POPC   C4B51730  24.879  32.286   7.408
 3951POPC   NC351731  39.202  22.341   5.331
 3951POPC   PO451732  39.254  21.680   5.358
 3951POPC   GL151733  39.113  21.941   5.769
 3951POPC   GL251734  39.150  22.329   5.842
 3951POPC   C1A51735  39.253  22.010   6.220
 3951POPC   D2A51736  39.280  22.204   6.616
 3951POPC   C3A51737  39.232  21.972   7.010
 3951POPC   C4A51738  39.368  22.167   7.398
 3951POPC   C1B51739  39.450  22.502   6.169
 3951POPC   C2B51740  39.447  22.691   6.591
 3951POPC   C3B51741  39.331  22.526   7.023
 3951POPC   C4B51742  39.044  22.583   7.402
 3952POPC   NC351743  43.498  33.796   5.001
 3952POPC   PO451744  42.887  33.840   5.165
 3952POPC   GL151745  42.936  33.751   5.615
 3952POPC   GL251746  43.218  33.909   5.717
 3952POPC   C1A51747  42.871  33.725   6.108
 3952POPC   D2A51748  42.675  33.773   6.548
 3952POPC   C3A51749  42.954  33.668   6.940
 3952POPC   C4A51750  43.145  33.713   7.374
 3952POPC   C1B51751  43.386  33.713   6.096
 3952POPC   C2B51752  43.497  33.941   6.440
 3952POPC   C3B51753  43.439  33.853   6.857
 3952POPC   C4B51754  43.647  33.696   7.183
 3953POPC   NC351755  42.961  24.167   5.392
 3953POPC   PO451756  43.325  23.509   5.297
 3953POPC   GL151757  43.196  23.797   5.692
 3953POPC   GL251758  43.381  23.621   5.963
 3953POPC   C1A51759  43.080  23.981   6.133
 3953POPC   D2A51760  43.065  23.710   6.525
 3953POPC   C3A51761  43.250  23.821   6.921
 3953POPC   C4A51762  43.021  24.060   7.206
 3953POPC   C1B51763  43.264  23.341   6.242
 3953POPC   C2B51764  43.445  23.391   6.653
 3953POPC   C3B51765  43.285  23.323   7.038
 3953POPC   C4B51766  43.487  23.511   7.350
 3954POPC   NC351767  17.720  29.302   5.476
 3954POPC   PO451768  17.258  28.791   5.430
 3954POPC   GL151769  17.380  29.039   5.758
 3954POPC   GL251770  17.076  29.208   5.740
 3954POPC   C1A51771  17.503  29.213   6.152
 3954POPC   D2A51772  17.374  29.094   6.549
 3954POPC   C3A51773  17.566  28.923   6.858
 3954POPC   C4A51774  17.512  29.152   7.247
 3954POPC   C1B51775  17.049  28.971   6.137
 3954POPC   C2B51776  16.885  29.092   6.481
 3954POPC   C3B51777  16.945  28.999   6.854
 3954POPC   C4B51778  17.171  28.798   7.118
 3955POPC   NC351779  15.679  19.143   5.712
 3955POPC   PO451780  15.052  18.954   5.340
 3955POPC   GL151781  15.160  18.969   5.764
 3955POPC   GL251782  15.182  19.311   5.812
 3955POPC   C1A51783  15.305  18.930   6.201
 3955POPC   D2A51784  15.203  18.758   6.591
 3955POPC   C3A51785  15.381  18.938   6.948
 3955POPC   C4A51786  15.200  18.868   7.318
 3955POPC   C1B51787  15.298  19.468   6.221
 3955POPC   C2B51788  15.156  19.336   6.634
 3955POPC   C3B51789  15.255  19.466   7.053
 3955POPC   C4B51790  15.236  19.343   7.467
 3956POPC   NC351791  38.713  40.553   5.117
 3956POPC   PO451792  38.276  40.857   5.515
 3956POPC   GL151793  38.463  40.961   5.882
 3956POPC   GL251794  38.683  40.661   5.828
 3956POPC   C1A51795  38.271  40.920   6.285
 3956POPC   D2A51796  38.416  40.743   6.663
 3956POPC   C3A51797  38.242  40.830   7.072
 3956POPC   C4A51798  38.598  41.004   7.319
 3956POPC   C1B51799  38.548  40.461   6.220
 3956POPC   C2B51800  38.500  40.223   6.611
 3956POPC   C3B51801  38.547  40.393   7.017
 3956POPC   C4B51802  38.458  40.520   7.440
 3957POPC   NC351803  18.197   2.039   5.457
 3957POPC   PO451804  18.623   2.440   5.624
 3957POPC   GL151805  18.393   2.216   5.919
 3957POPC   GL251806  18.404   1.851   5.903
 3957POPC   C1A51807  18.474   2.126   6.349
 3957POPC   D2A51808  18.457   1.896   6.705
 3957POPC   C3A51809  18.352   2.163   7.021
 3957POPC   C4A51810  18.196   2.111   7.427
 3957POPC   C1B51811  18.271   1.617   6.293
 3957POPC   C2B51812  18.042   1.620   6.695
 3957POPC   C3B51813  18.154   1.689   7.133
 3957POPC   C4B51814  17.926   1.709   7.564
 3958POPC   NC351815  39.663  37.408   5.377
 3958POPC   PO451816  40.326  37.569   5.438
 3958POPC   GL151817  39.939  37.668   5.717
 3958POPC   GL251818  39.732  37.405   5.890
 3958POPC   C1A51819  39.789  37.905   6.070
 3958POPC   D2A51820  39.993  37.899   6.485
 3958POPC   C3A51821  39.779  37.923   6.879
 3958POPC   C4A51822  39.982  37.913   7.268
 3958POPC   C1B51823  40.078  37.435   6.186
 3958POPC   C2B51824  40.258  37.282   6.590
 3958POPC   C3B51825  40.095  37.485   6.966
 3958POPC   C4B51826  39.786  37.329   7.223
 3959POPC   NC351827   4.404  36.185   5.431
 3959POPC   PO451828   4.758  35.740   5.760
 3959POPC   GL151829   4.555  36.103   5.912
 3959POPC   GL251830   4.210  36.226   5.897
 3959POPC   C1A51831   4.701  36.279   6.244
 3959POPC   D2A51832   4.554  36.289   6.646
 3959POPC   C3A51833   4.722  36.105   6.991
 3959POPC   C4A51834   4.680  35.744   7.209
 3959POPC   C1B51835   4.161  36.187   6.331
 3959POPC   C2B51836   4.040  36.349   6.749
 3959POPC   C3B51837   4.213  36.195   7.176
 3959POPC   C4B51838   4.150  36.370   7.618
 3960POPC   NC351839  33.127  11.140   5.017
 3960POPC   PO451840  32.914  11.553   5.555
 3960POPC   GL151841  33.151  11.325   5.853
 3960POPC   GL251842  33.347  11.022   5.749
 3960POPC   C1A51843  33.098  11.400   6.297
 3960POPC   D2A51844  33.144  11.485   6.732
 3960POPC   C3A51845  32.797  11.483   7.004
 3960POPC   C4A51846  32.841  11.459   7.431
 3960POPC   C1B51847  33.448  11.037   6.187
 3960POPC   C2B51848  33.240  10.973   6.597
 3960POPC   C3B51849  33.169  11.088   7.082
 3960POPC   C4B51850  33.431  11.122   7.482
 3961POPC   NC351851  12.282  23.950   5.358
 3961POPC   PO451852  11.887  23.405   5.451
 3961POPC   GL151853  11.941  23.773   5.727
 3961POPC   GL251854  11.629  24.009   5.758
 3961POPC   C1A51855  12.157  23.659   6.133
 3961POPC   D2A51856  12.353  23.605   6.549
 3961POPC   C3A51857  12.230  23.757   6.970
 3961POPC   C4A51858  12.007  23.690   7.359
 3961POPC   C1B51859  11.861  24.067   6.149
 3961POPC   C2B51860  11.930  23.907   6.574
 3961POPC   C3B51861  11.721  23.863   6.986
 3961POPC   C4B51862  11.501  23.663   7.363
 3962POPC   NC351863  17.868  39.525   5.549
 3962POPC   PO451864  17.470  38.990   5.495
 3962POPC   GL151865  17.742  39.104   5.827
 3962POPC   GL251866  17.993  38.878   5.942
 3962POPC   C1A51867  17.522  39.343   6.160
 3962POPC   D2A51868  17.277  39.499   6.478
 3962POPC   C3A51869  17.150  39.350   6.889
 3962POPC   C4A51870  17.237  39.347   7.325
 3962POPC   C1B51871  17.961  39.159   6.303
 3962POPC   C2B51872  17.786  39.380   6.703
 3962POPC   C3B51873  17.704  39.401   7.186
 3962POPC   C4B51874  17.777  39.287   7.620
 3963POPC   NC351875  20.421  20.034   5.634
 3963POPC   PO451876  20.843  19.720   5.191
 3963POPC   GL151877  20.929  19.672   5.698
 3963POPC   GL251878  20.591  19.599   5.842
 3963POPC   C1A51879  20.892  19.843   6.179
 3963POPC   D2A51880  20.615  19.917   6.538
 3963POPC   C3A51881  20.683  19.917   7.003
 3963POPC   C4A51882  20.534  19.941   7.476
 3963POPC   C1B51883  20.355  19.535   6.263
 3963POPC   C2B51884  20.314  19.569   6.733
 3963POPC   C3B51885  20.367  19.572   7.173
 3963POPC   C4B51886  20.573  19.403   7.542
 3964POPC   NC351887  10.728  23.265   5.518
 3964POPC   PO451888  10.358  22.709   5.544
 3964POPC   GL151889  10.449  22.914   5.900
 3964POPC   GL251890  10.352  23.243   5.869
 3964POPC   C1A51891  10.333  22.950   6.317
 3964POPC   D2A51892  10.496  22.825   6.696
 3964POPC   C3A51893  10.332  22.994   7.033
 3964POPC   C4A51894  10.380  22.875   7.466
 3964POPC   C1B51895  10.667  23.323   6.166
 3964POPC   C2B51896  10.795  23.192   6.534
 3964POPC   C3B51897  10.752  23.321   6.899
 3964POPC   C4B51898  10.704  23.224   7.265
 3965POPC   NC351899  12.159   9.737   5.094
 3965POPC   PO451900  11.813  10.102   5.464
 3965POPC   GL151901  12.028   9.986   5.855
 3965POPC   GL251902  12.010   9.657   5.790
 3965POPC   C1A51903  12.188   9.958   6.290
 3965POPC   D2A51904  12.215   9.677   6.671
 3965POPC   C3A51905  12.229   9.857   7.061
 3965POPC   C4A51906  12.376  10.268   7.123
 3965POPC   C1B51907  12.078   9.465   6.208
 3965POPC   C2B51908  11.923   9.270   6.620
 3965POPC   C3B51909  11.897   9.450   7.042
 3965POPC   C4B51910  12.033   9.465   7.490
 3966POPC   NC351911  13.931  39.361   5.586
 3966POPC   PO451912  13.323  39.376   5.228
 3966POPC   GL151913  13.436  39.270   5.652
 3966POPC   GL251914  13.634  38.942   5.733
 3966POPC   C1A51915  13.497  39.530   6.068
 3966POPC   D2A51916  13.328  39.507   6.492
 3966POPC   C3A51917  13.563  39.564   6.862
 3966POPC   C4A51918  13.617  39.386   7.285
 3966POPC   C1B51919  13.764  39.064   6.163
 3966POPC   C2B51920  13.847  39.281   6.548
 3966POPC   C3B51921  13.953  39.152   6.986
 3966POPC   C4B51922  13.926  38.992   7.451
 3967POPC   NC351923  14.386  37.597   5.443
 3967POPC   PO451924  14.175  38.161   5.428
 3967POPC   GL151925  14.218  37.950   5.847
 3967POPC   GL251926  14.136  37.586   5.874
 3967POPC   C1A51927  14.484  37.753   6.199
 3967POPC   D2A51928  14.750  37.894   6.522
 3967POPC   C3A51929  14.556  37.902   6.919
 3967POPC   C4A51930  14.624  37.648   7.262
 3967POPC   C1B51931  13.961  37.695   6.233
 3967POPC   C2B51932  14.120  37.821   6.624
 3967POPC   C3B51933  13.939  37.752   7.021
 3967POPC   C4B51934  13.870  37.652   7.478
 3968POPC   NC351935   8.948   8.037   5.249
 3968POPC   PO451936   8.876   7.351   5.254
 3968POPC   GL151937   8.908   7.396   5.722
 3968POPC   GL251938   8.578   7.522   5.887
 3968POPC   C1A51939   9.031   7.501   6.161
 3968POPC   D2A51940   8.854   7.601   6.559
 3968POPC   C3A51941   9.095   7.516   6.913
 3968POPC   C4A51942   9.311   7.548   7.282
 3968POPC   C1B51943   8.495   7.222   6.199
 3968POPC   C2B51944   8.548   7.173   6.628
 3968POPC   C3B51945   8.611   7.373   7.017
 3968POPC   C4B51946   8.913   7.189   7.267
 3969POPC   NC351947  31.595  32.115   5.411
 3969POPC   PO451948  31.406  32.711   5.299
 3969POPC   GL151949  31.329  32.432   5.746
 3969POPC   GL251950  31.576  32.153   5.914
 3969POPC   C1A51951  31.230  32.341   6.239
 3969POPC   D2A51952  31.179  32.576   6.645
 3969POPC   C3A51953  31.363  32.537   7.079
 3969POPC   C4A51954  31.294  32.315   7.506
 3969POPC   C1B51955  31.646  32.077   6.389
 3969POPC   C2B51956  31.448  32.107   6.763
 3969POPC   C3B51957  31.541  32.026   7.175
 3969POPC   C4B51958  31.651  31.980   7.602
 3970POPC   NC351959  42.890  18.174   5.214
 3970POPC   PO451960  43.395  18.461   5.451
 3970POPC   GL151961  43.167  18.387   5.821
 3970POPC   GL251962  42.869  18.190   5.774
 3970POPC   C1A51963  43.258  18.325   6.251
 3970POPC   D2A51964  43.089  18.141   6.611
 3970POPC   C3A51965  43.304  18.136   7.054
 3970POPC   C4A51966  43.415  18.143   7.542
 3970POPC   C1B51967  42.724  18.378   6.209
 3970POPC   C2B51968  42.666  18.486   6.661
 3970POPC   C3B51969  42.797  18.201   7.010
 3970POPC   C4B51970  42.947  18.285   7.422
 3971POPC   NC351971  31.567  37.415   5.181
 3971POPC   PO451972  31.451  36.745   5.350
 3971POPC   GL151973  31.545  36.751   5.816
 3971POPC   GL251974  31.615  37.128   5.898
 3971POPC   C1A51975  31.386  36.579   6.226
 3971POPC   D2A51976  31.573  36.391   6.588
 3971POPC   C3A51977  31.602  36.545   7.020
 3971POPC   C4A51978  31.372  36.904   7.143
 3971POPC   C1B51979  31.911  37.307   6.197
 3971POPC   C2B51980  31.857  37.220   6.630
 3971POPC   C3B51981  31.861  37.092   7.045
 3971POPC   C4B51982  31.784  37.199   7.442
 3972POPC   NC351983   2.114  22.740   5.233
 3972POPC   PO451984   1.569  23.142   5.441
 3972POPC   GL151985   1.800  22.926   5.783
 3972POPC   GL251986   2.170  22.803   5.737
 3972POPC   C1A51987   2.005  23.066   6.176
 3972POPC   D2A51988   2.080  23.255   6.582
 3972POPC   C3A51989   1.807  23.115   6.897
 3972POPC   C4A51990   1.658  23.119   7.305
 3972POPC   C1B51991   2.460  22.843   6.088
 3972POPC   C2B51992   2.311  22.774   6.509
 3972POPC   C3B51993   2.283  22.850   6.931
 3972POPC   C4B51994   2.547  22.598   7.183
 3973POPC   NC351995  28.525  34.646   5.277
 3973POPC   PO451996  27.867  34.906   5.453
 3973POPC   GL151997  28.214  34.643   5.677
 3973POPC   GL251998  28.581  34.783   5.768
 3973POPC   C1A51999  28.307  34.390   6.021
 3973POPC   D2A52000  28.363  34.444   6.455
 3973POPC   C3A52001  28.130  34.418   6.847
 3973POPC   C4A52002  28.171  34.544   7.276
 3973POPC   C1B52003  28.786  34.529   6.122
 3973POPC   C2B52004  28.826  34.252   6.518
 3973POPC   C3B52005  28.647  34.428   6.894
 3973POPC   C4B52006  28.705  34.509   7.306
 3974POPC   NC352007  42.538   3.590   5.273
 3974POPC   PO452008  42.061   3.147   5.473
 3974POPC   GL152009  42.330   3.470   5.706
 3974POPC   GL252010  42.388   3.823   5.711
 3974POPC   C1A52011  42.587   3.480   6.092
 3974POPC   D2A52012  42.479   3.305   6.512
 3974POPC   C3A52013  42.375   3.520   6.916
 3974POPC   C4A52014  42.145   3.360   7.311
 3974POPC   C1B52015  42.160   3.758   6.138
 3974POPC   C2B52016  42.090   3.850   6.608
 3974POPC   C3B52017  41.985   3.809   7.084
 3974POPC   C4B52018  42.127   3.848   7.530
 3975POPC   NC352019  42.429  36.949   5.349
 3975POPC   PO452020  42.847  36.398   5.372
 3975POPC   GL152021  42.680  36.711   5.728
 3975POPC   GL252022  42.270  36.780   5.791
 3975POPC   C1A52023  42.612  36.959   6.127
 3975POPC   D2A52024  42.464  37.201   6.519
 3975POPC   C3A52025  42.429  36.933   6.923
 3975POPC   C4A52026  42.343  36.592   7.267
 3975POPC   C1B52027  42.100  36.993   6.169
 3975POPC   C2B52028  41.992  36.994   6.611
 3975POPC   C3B52029  41.951  36.813   7.047
 3975POPC   C4B52030  42.175  37.048   7.382
 3976POPC   NC352031  39.652  25.154   5.427
 3976POPC   PO452032  40.271  25.116   5.461
 3976POPC   GL152033  40.012  25.145   5.812
 3976POPC   GL252034  39.949  25.491   5.696
 3976POPC   C1A52035  40.042  25.139   6.275
 3976POPC   D2A52036  40.141  25.280   6.719
 3976POPC   C3A52037  39.983  25.204   7.134
 3976POPC   C4A52038  40.311  25.120   7.418
 3976POPC   C1B52039  39.848  25.591   6.122
 3976POPC   C2B52040  39.697  25.454   6.516
 3976POPC   C3B52041  39.800  25.648   6.902
 3976POPC   C4B52042  39.617  25.538   7.295
 3977POPC   NC352043  17.128  24.737   5.053
 3977POPC   PO452044  17.717  24.620   5.424
 3977POPC   GL152045  17.386  24.593   5.799
 3977POPC   GL252046  17.365  24.256   5.928
 3977POPC   C1A52047  17.254  24.790   6.250
 3977POPC   D2A52048  17.170  24.799   6.733
 3977POPC   C3A52049  17.504  24.905   7.078
 3977POPC   C4A52050  17.452  24.858   7.554
 3977POPC   C1B52051  17.641  24.458   6.244
 3977POPC   C2B52052  17.636  24.578   6.687
 3977POPC   C3B52053  17.605  24.371   7.097
 3977POPC   C4B52054  17.791  24.440   7.492
 3978POPC   NC352055   6.292  27.855   5.536
 3978POPC   PO452056   5.678  27.616   5.470
 3978POPC   GL152057   5.787  27.722   5.867
 3978POPC   GL252058   6.072  27.500   5.836
 3978POPC   C1A52059   5.656  27.777   6.312
 3978POPC   D2A52060   5.856  27.842   6.723
 3978POPC   C3A52061   5.742  27.543   7.045
 3978POPC   C4A52062   5.483  27.216   7.153
 3978POPC   C1B52063   6.138  27.688   6.243
 3978POPC   C2B52064   6.319  27.566   6.656
 3978POPC   C3B52065   6.216  27.400   7.044
 3978POPC   C4B52066   6.076  27.710   7.390
 3979POPC   NC352067  20.438   1.403   5.359
 3979POPC   PO452068  21.089   1.214   5.499
 3979POPC   GL152069  20.746   1.114   5.780
 3979POPC   GL252070  20.383   1.156   5.827
 3979POPC   C1A52071  20.711   1.013   6.206
 3979POPC   D2A52072  20.730   1.249   6.567
 3979POPC   C3A52073  20.809   0.962   6.840
 3979POPC   C4A52074  20.800   0.825   7.233
 3979POPC   C1B52075  20.291   1.288   6.262
 3979POPC   C2B52076  20.202   1.189   6.684
 3979POPC   C3B52077  20.388   1.101   7.082
 3979POPC   C4B52078  20.455   1.343   7.470
 3980POPC   NC352079  22.373  23.400   5.481
 3980POPC   PO452080  22.025  23.997   5.426
 3980POPC   GL152081  22.018  23.731   5.783
 3980POPC   GL252082  22.094  24.023   6.005
 3980POPC   C1A52083  22.015  23.504   6.195
 3980POPC   D2A52084  22.078  23.707   6.605
 3980POPC   C3A52085  21.883  23.604   6.999
 3980POPC   C4A52086  22.010  23.433   7.389
 3980POPC   C1B52087  22.433  23.763   6.200
 3980POPC   C2B52088  22.613  23.724   6.622
 3980POPC   C3B52089  22.400  23.691   7.023
 3980POPC   C4B52090  22.326  23.871   7.442
 3981POPC   NC352091  43.246   7.892   5.521
 3981POPC   PO452092  43.593   8.453   5.422
 3981POPC   GL152093  43.438   8.258   5.815
 3981POPC   GL252094  43.093   8.383   5.924
 3981POPC   C1A52095  43.294   7.987   6.179
 3981POPC   D2A52096  43.007   8.182   6.468
 3981POPC   C3A52097  43.213   8.204   6.853
 3981POPC   C4A52098  43.311   8.175   7.268
 3981POPC   C1B52099  42.962   8.672   6.240
 3981POPC   C2B52100  43.043   8.718   6.663
 3981POPC   C3B52101  42.827   8.518   6.988
 3981POPC   C4B52102  42.893   8.395   7.386
 3982POPC   NC352103  16.790  28.951   5.365
 3982POPC   PO452104  16.733  29.561   5.410
 3982POPC   GL152105  16.557  29.278   5.739
 3982POPC   GL252106  16.648  28.924   5.833
 3982POPC   C1A52107  16.560  29.346   6.185
 3982POPC   D2A52108  16.732  29.559   6.573
 3982POPC   C3A52109  16.687  29.407   6.992
 3982POPC   C4A52110  16.982  29.249   7.304
 3982POPC   C1B52111  16.540  28.794   6.212
 3982POPC   C2B52112  16.666  28.651   6.586
 3982POPC   C3B52113  16.484  28.755   6.962
 3982POPC   C4B52114  16.707  28.838   7.283
 3983POPC   NC352115  36.733  37.140   5.430
 3983POPC   PO452116  37.183  36.579   5.257
 3983POPC   GL152117  36.965  36.743   5.668
 3983POPC   GL252118  37.167  37.055   5.742
 3983POPC   C1A52119  36.683  36.922   6.037
 3983POPC   D2A52120  36.414  36.850   6.420
 3983POPC   C3A52121  36.587  36.866   6.850
 3983POPC   C4A52122  36.699  36.880   7.275
 3983POPC   C1B52123  37.159  37.028   6.204
 3983POPC   C2B52124  37.050  36.902   6.587
 3983POPC   C3B52125  37.096  37.018   7.006
 3983POPC   C4B52126  37.193  36.884   7.412
 3984POPC   NC352127   4.142   0.129   5.373
 3984POPC   PO452128   4.586   0.572   5.364
 3984POPC   GL152129   4.601   0.419   5.803
 3984POPC   GL252130   4.514   0.740   5.886
 3984POPC   C1A52131   4.414   0.473   6.289
 3984POPC   D2A52132   4.020   0.543   6.577
 3984POPC   C3A52133   4.067   0.405   7.011
 3984POPC   C4A52134   4.430   0.259   7.263
 3984POPC   C1B52135   4.156   0.926   6.101
 3984POPC   C2B52136   4.211   1.027   6.534
 3984POPC   C3B52137   4.313   0.866   6.939
 3984POPC   C4B52138   4.157   0.782   7.332
 3985POPC   NC352139  10.914   5.712   5.589
 3985POPC   PO452140  10.303   6.105   5.439
 3985POPC   GL152141  10.467   5.985   5.794
 3985POPC   GL252142  10.192   5.770   5.864
 3985POPC   C1A52143  10.749   6.120   6.119
 3985POPC   D2A52144  10.715   6.184   6.561
 3985POPC   C3A52145  10.626   5.789   6.783
 3985POPC   C4A52146  10.703   5.746   7.199
 3985POPC   C1B52147  10.436   5.696   6.226
 3985POPC   C2B52148  10.318   5.431   6.545
 3985POPC   C3B52149  10.108   5.568   6.827
 3985POPC   C4B52150  10.203   5.598   7.234
 3986POPC   NC352151  35.839   7.721   5.577
 3986POPC   PO452152  35.155   7.436   5.514
 3986POPC   GL152153  35.395   7.590   5.820
 3986POPC   GL252154  35.603   7.302   5.812
 3986POPC   C1A52155  35.621   7.635   6.221
 3986POPC   D2A52156  35.574   7.423   6.618
 3986POPC   C3A52157  35.519   7.613   7.014
 3986POPC   C4A52158  35.683   7.512   7.414
 3986POPC   C1B52159  35.313   7.189   6.160
 3986POPC   C2B52160  35.237   7.043   6.590
 3986POPC   C3B52161  35.305   7.143   7.036
 3986POPC   C4B52162  35.306   7.171   7.496
 3987POPC   NC352163  23.631  36.454   5.415
 3987POPC   PO452164  23.898  37.155   5.490
 3987POPC   GL152165  23.736  36.974   5.877
 3987POPC   GL252166  23.517  36.653   5.869
 3987POPC   C1A52167  23.878  37.120   6.314
 3987POPC   D2A52168  23.778  37.302   6.730
 3987POPC   C3A52169  23.830  36.993   7.066
 3987POPC   C4A52170  23.705  36.558   7.140
 3987POPC   C1B52171  23.795  36.610   6.250
 3987POPC   C2B52172  24.018  36.644   6.666
 3987POPC   C3B52173  24.206  36.596   7.079
 3987POPC   C4B52174  24.062  36.509   7.523
 3988POPC   NC352175  10.335  24.820   5.297
 3988POPC   PO452176  10.945  24.579   5.361
 3988POPC   GL152177  10.697  24.638   5.751
 3988POPC   GL252178  10.381  24.455   5.859
 3988POPC   C1A52179  10.777  24.439   6.164
 3988POPC   D2A52180  10.707  24.265   6.588
 3988POPC   C3A52181  10.832  24.520   6.945
 3988POPC   C4A52182  10.685  24.731   7.324
 3988POPC   C1B52183  10.333  24.165   6.256
 3988POPC   C2B52184  10.237  23.927   6.640
 3988POPC   C3B52185  10.244  24.034   7.088
 3988POPC   C4B52186  10.580  24.232   7.337
 3989POPC   NC352187  42.515  22.431   5.499
 3989POPC   PO452188  42.032  22.053   5.271
 3989POPC   GL152189  42.194  22.100   5.729
 3989POPC   GL252190  42.556  21.952   5.783
 3989POPC   C1A52191  42.379  22.309   6.126
 3989POPC   D2A52192  42.495  22.477   6.523
 3989POPC   C3A52193  42.406  22.181   6.841
 3989POPC   C4A52194  42.330  22.228   7.291
 3989POPC   C1B52195  42.765  21.901   6.229
 3989POPC   C2B52196  42.805  21.809   6.709
 3989POPC   C3B52197  42.722  21.932   7.153
 3989POPC   C4B52198  42.617  21.896   7.612
 3990POPC   NC352199   7.570  28.728   5.406
 3990POPC   PO452200   7.529  28.150   5.122
 3990POPC   GL152201   7.624  28.252   5.606
 3990POPC   GL252202   7.406  28.487   5.811
 3990POPC   C1A52203   7.772  28.187   6.062
 3990POPC   D2A52204   7.595  27.994   6.447
 3990POPC   C3A52205   7.602  28.104   6.910
 3990POPC   C4A52206   7.623  28.453   7.242
 3990POPC   C1B52207   7.278  28.328   6.183
 3990POPC   C2B52208   7.162  28.297   6.606
 3990POPC   C3B52209   7.156  28.340   7.058
 3990POPC   C4B52210   7.232  28.132   7.475
 3991POPC   NC352211  40.380  17.979   5.518
 3991POPC   PO452212  41.060  17.960   5.697
 3991POPC   GL152213  40.919  18.299   5.938
 3991POPC   GL252214  40.558  18.345   5.890
 3991POPC   C1A52215  41.012  18.542   6.308
 3991POPC   D2A52216  40.822  18.602   6.698
 3991POPC   C3A52217  40.735  18.223   6.893
 3991POPC   C4A52218  40.999  18.064   7.217
 3991POPC   C1B52219  40.626  18.165   6.326
 3991POPC   C2B52220  40.377  17.869   6.553
 3991POPC   C3B52221  40.260  17.902   6.960
 3991POPC   C4B52222  40.501  17.988   7.347
 3992POPC   NC352223   2.528  24.167   5.347
 3992POPC   PO452224   3.105  24.024   5.611
 3992POPC   GL152225   2.881  23.810   5.912
 3992POPC   GL252226   2.526  23.828   5.748
 3992POPC   C1A52227   2.945  23.732   6.362
 3992POPC   D2A52228   2.871  23.645   6.818
 3992POPC   C3A52229   3.047  23.860   7.176
 3992POPC   C4A52230   3.052  23.716   7.613
 3992POPC   C1B52231   2.452  23.939   6.170
 3992POPC   C2B52232   2.432  23.640   6.524
 3992POPC   C3B52233   2.352  23.523   6.959
 3992POPC   C4B52234   2.630  23.610   7.291
 3993POPC   NC352235   0.689  25.964   4.952
 3993POPC   PO452236   0.579  26.414   5.471
 3993POPC   GL152237   0.354  26.119   5.719
 3993POPC   GL252238   0.583  26.120   5.990
 3993POPC   C1A52239   0.163  25.855   6.081
 3993POPC   D2A52240   0.283  25.987   6.520
 3993POPC   C3A52241   0.180  25.743   6.869
 3993POPC   C4A52242  44.984  25.787   7.267
 3993POPC   C1B52243   0.951  26.078   6.249
 3993POPC   C2B52244   0.938  25.874   6.652
 3993POPC   C3B52245   0.674  25.908   6.979
 3993POPC   C4B52246   0.378  26.089   7.188
 3994POPC   NC352247  34.334  12.073   5.564
 3994POPC   PO452248  35.071  12.200   5.439
 3994POPC   GL152249  34.801  12.218   5.794
 3994POPC   GL252250  34.730  11.876   5.851
 3994POPC   C1A52251  34.613  12.245   6.218
 3994POPC   D2A52252  34.589  12.395   6.651
 3994POPC   C3A52253  34.726  12.209   7.054
 3994POPC   C4A52254  34.885  12.447   7.466
 3994POPC   C1B52255  34.487  11.748   6.236
 3994POPC   C2B52256  34.400  11.882   6.691
 3994POPC   C3B52257  34.308  11.873   7.157
 3994POPC   C4B52258  34.185  11.895   7.651
 3995POPC   NC352259   7.020  21.737   5.354
 3995POPC   PO452260   6.403  21.418   5.354
 3995POPC   GL152261   6.591  21.551   5.726
 3995POPC   GL252262   6.517  21.884   5.655
 3995POPC   C1A52263   6.541  21.379   6.156
 3995POPC   D2A52264   6.702  21.237   6.560
 3995POPC   C3A52265   6.803  21.400   6.983
 3995POPC   C4A52266   6.410  21.335   7.175
 3995POPC   C1B52267   6.457  21.903   6.095
 3995POPC   C2B52268   6.624  21.768   6.475
 3995POPC   C3B52269   6.418  21.729   6.831
 3995POPC   C4B52270   6.548  21.823   7.200
 3996POPC   NC352271  21.593  15.867   5.379
 3996POPC   PO452272  21.443  16.458   5.136
 3996POPC   GL152273  21.462  16.273   5.644
 3996POPC   GL252274  21.232  15.960   5.719
 3996POPC   C1A52275  21.438  16.151   6.130
 3996POPC   D2A52276  21.349  15.916   6.557
 3996POPC   C3A52277  21.521  15.950   6.975
 3996POPC   C4A52278  21.501  16.339   7.217
 3996POPC   C1B52279  21.063  15.777   6.121
 3996POPC   C2B52280  20.902  15.676   6.548
 3996POPC   C3B52281  21.077  15.636   6.960
 3996POPC   C4B52282  21.195  15.557   7.372
 3997POPC   NC352283  10.593  20.077   5.490
 3997POPC   PO452284  10.819  19.514   5.481
 3997POPC   GL152285  10.675  19.756   5.886
 3997POPC   GL252286  10.314  19.762   5.797
 3997POPC   C1A52287  10.707  20.112   6.219
 3997POPC   D2A52288  10.721  20.361   6.655
 3997POPC   C3A52289  10.791  20.091   7.048
 3997POPC   C4A52290  10.684  19.877   7.492
 3997POPC   C1B52291  10.298  19.784   6.246
 3997POPC   C2B52292  10.552  19.813   6.636
 3997POPC   C3B52293  10.522  19.651   7.066
 3997POPC   C4B52294  10.291  19.488   7.446
 3998POPC   NC352295  24.742  36.042   5.476
 3998POPC   PO452296  24.110  36.358   5.419
 3998POPC   GL152297  24.359  36.177   5.788
 3998POPC   GL252298  24.235  35.844   5.868
 3998POPC   C1A52299  24.512  36.082   6.241
 3998POPC   D2A52300  24.410  36.259   6.669
 3998POPC   C3A52301  24.437  36.102   7.090
 3998POPC   C4A52302  24.717  35.986   7.402
 3998POPC   C1B52303  24.298  35.617   6.259
 3998POPC   C2B52304  24.261  35.756   6.699
 3998POPC   C3B52305  24.175  35.656   7.132
 3998POPC   C4B52306  24.448  35.577   7.488
 3999POPC   NC352307   3.977  39.580   5.376
 3999POPC   PO452308   3.354  39.845   5.345
 3999POPC   GL152309   3.588  39.747   5.748
 3999POPC   GL252310   3.942  39.773   5.864
 3999POPC   C1A52311   3.579  39.678   6.222
 3999POPC   D2A52312   3.440  39.942   6.587
 3999POPC   C3A52313   3.605  39.867   7.045
 3999POPC   C4A52314   3.705  40.058   7.472
 3999POPC   C1B52315   3.932  40.040   6.270
 3999POPC   C2B52316   3.899  40.170   6.728
 3999POPC   C3B52317   3.673  40.395   7.080
 3999POPC   C4B52318   3.242  40.462   7.146
 4000POPC   NC352319  18.486   9.122   5.348
 4000POPC   PO452320  17.881   8.711   5.075
 4000POPC   GL152321  18.025   8.906   5.578
 4000POPC   GL252322  18.332   8.863   5.779
 4000POPC   C1A52323  18.065   9.091   6.115
 4000POPC   D2A52324  18.323   9.279   6.492
 4000POPC   C3A52325  18.230   9.310   6.932
 4000POPC   C4A52326  18.107   8.979   7.190
 4000POPC   C1B52327  18.562   8.871   6.177
 4000POPC   C2B52328  18.717   8.944   6.588
 4000POPC   C3B52329  18.599   8.963   7.004
 4000POPC   C4B52330  18.523   8.630   7.250
 4001POPC   NC352331  25.468  28.541   5.371
 4001POPC   PO452332  25.459  27.877   5.513
 4001POPC   GL152333  25.455  28.210   5.831
 4001POPC   GL252334  25.127  28.342   5.719
 4001POPC   C1A52335  25.559  28.371   6.306
 4001POPC   D2A52336  25.312  28.210   6.678
 4001POPC   C3A52337  25.465  28.304   7.093
 4001POPC   C4A52338  25.647  28.676   7.233
 4001POPC   C1B52339  25.087  28.313   6.171
 4001POPC   C2B52340  25.121  28.658   6.477
 4001POPC   C3B52341  25.143  28.647   6.923
 4001POPC   C4B52342  24.991  28.378   7.284
 4002POPC   NC352343  17.701  20.886   5.401
 4002POPC   PO452344  17.332  20.290   5.504
 4002POPC   GL152345  17.449  20.622   5.777
 4002POPC   GL252346  17.245  20.937   5.726
 4002POPC   C1A52347  17.649  20.640   6.171
 4002POPC   D2A52348  17.749  20.378   6.524
 4002POPC   C3A52349  17.590  20.462   6.954
 4002POPC   C4A52350  17.505  20.381   7.403
 4002POPC   C1B52351  17.449  21.110   6.114
 4002POPC   C2B52352  17.630  21.209   6.526
 4002POPC   C3B52353  17.694  20.983   6.911
 4002POPC   C4B52354  17.495  20.883   7.304
 4003POPC   NC352355  19.317   3.605   5.394
 4003POPC   PO452356  18.769   3.364   5.645
 4003POPC   GL152357  19.072   3.493   5.877
 4003POPC   GL252358  19.364   3.294   5.807
 4003POPC   C1A52359  18.969   3.550   6.296
 4003POPC   D2A52360  18.859   3.869   6.553
 4003POPC   C3A52361  18.880   3.731   6.916
 4003POPC   C4A52362  18.934   3.613   7.301
 4003POPC   C1B52363  19.480   3.470   6.219
 4003POPC   C2B52364  19.347   3.716   6.597
 4003POPC   C3B52365  19.361   3.576   6.997
 4003POPC   C4B52366  19.558   3.691   7.358
 4004POPC   NC352367  32.764  20.064   5.358
 4004POPC   PO452368  33.074  19.471   5.291
 4004POPC   GL152369  33.194  19.645   5.695
 4004POPC   GL252370  32.850  19.735   5.765
 4004POPC   C1A52371  33.157  19.585   6.159
 4004POPC   D2A52372  33.343  19.724   6.555
 4004POPC   C3A52373  33.106  19.590   6.905
 4004POPC   C4A52374  33.140  19.417   7.279
 4004POPC   C1B52375  32.852  19.997   6.148
 4004POPC   C2B52376  32.851  19.872   6.560
 4004POPC   C3B52377  32.894  20.043   6.968
 4004POPC   C4B52378  32.854  19.814   7.364
 4005POPC   NC352379   5.504   5.590   5.304
 4005POPC   PO452380   5.940   6.104   5.314
 4005POPC   GL152381   5.992   6.271   5.770
 4005POPC   GL252382   6.121   5.965   5.887
 4005POPC   C1A52383   5.858   6.194   6.247
 4005POPC   D2A52384   5.564   5.949   6.498
 4005POPC   C3A52385   5.750   5.879   6.898
 4005POPC   C4A52386   6.065   6.080   7.168
 4005POPC   C1B52387   5.833   5.713   6.089
 4005POPC   C2B52388   5.996   5.624   6.491
 4005POPC   C3B52389   6.246   5.707   6.854
 4005POPC   C4B52390   5.999   5.562   7.210
 4006POPC   NC352391   2.934  10.002   5.454
 4006POPC   PO452392   2.451   9.604   5.434
 4006POPC   GL152393   2.587   9.811   5.828
 4006POPC   GL252394   2.673  10.165   5.848
 4006POPC   C1A52395   2.759   9.711   6.246
 4006POPC   D2A52396   2.660   9.815   6.662
 4006POPC   C3A52397   2.851   9.611   6.994
 4006POPC   C4A52398   2.923   9.365   7.350
 4006POPC   C1B52399   2.987  10.180   6.193
 4006POPC   C2B52400   3.121  10.089   6.642
 4006POPC   C3B52401   2.897  10.133   7.056
 4006POPC   C4B52402   2.446   9.986   7.110
 4007POPC   NC352403  20.562  39.169   5.239
 4007POPC   PO452404  20.400  39.676   5.701
 4007POPC   GL152405  20.528  39.234   5.820
 4007POPC   GL252406  20.919  39.132   5.859
 4007POPC   C1A52407  20.493  39.188   6.265
 4007POPC   D2A52408  20.766  39.464   6.518
 4007POPC   C3A52409  20.809  39.364   6.960
 4007POPC   C4A52410  20.456  39.176   7.149
 4007POPC   C1B52411  20.930  38.939   6.259
 4007POPC   C2B52412  20.749  38.933   6.687
 4007POPC   C3B52413  20.893  38.885   7.123
 4007POPC   C4B52414  21.122  38.833   7.498
 4008POPC   NC352415  14.699  10.342   5.343
 4008POPC   PO452416  14.221  10.841   5.478
 4008POPC   GL152417  14.395  10.751   5.837
 4008POPC   GL252418  14.412  10.382   5.768
 4008POPC   C1A52419  14.516  10.603   6.240
 4008POPC   D2A52420  14.747  10.488   6.600
 4008POPC   C3A52421  14.538  10.715   6.884
 4008POPC   C4A52422  14.492  10.849   7.263
 4008POPC   C1B52423  14.172  10.224   6.104
 4008POPC   C2B52424  14.291  10.027   6.476
 4008POPC   C3B52425  14.378  10.189   6.866
 4008POPC   C4B52426  14.469  10.333   7.251
 4009POPC   NC352427  18.302  36.318   5.458
 4009POPC   PO452428  17.955  35.768   5.463
 4009POPC   GL152429  17.920  36.057   5.835
 4009POPC   GL252430  18.110  36.371   5.917
 4009POPC   C1A52431  18.020  36.049   6.291
 4009POPC   D2A52432  18.203  36.168   6.705
 4009POPC   C3A52433  18.176  35.849   7.043
 4009POPC   C4A52434  18.193  35.608   7.438
 4009POPC   C1B52435  18.174  36.576   6.316
 4009POPC   C2B52436  18.059  36.656   6.739
 4009POPC   C3B52437  18.269  36.531   7.108
 4009POPC   C4B52438  18.230  36.191   7.421
 4010POPC   NC352439   6.937  23.067   5.394
 4010POPC   PO452440   7.530  22.914   5.097
 4010POPC   GL152441   7.570  22.866   5.567
 4010POPC   GL252442   7.246  22.785   5.704
 4010POPC   C1A52443   7.615  22.732   6.026
 4010POPC   D2A52444   7.545  22.834   6.462
 4010POPC   C3A52445   7.648  22.635   6.853
 4010POPC   C4A52446   7.640  22.745   7.273
 4010POPC   C1B52447   7.141  22.974   6.100
 4010POPC   C2B52448   7.129  23.128   6.523
 4010POPC   C3B52449   7.219  22.917   6.887
 4010POPC   C4B52450   7.051  22.742   7.257
 4011POPC   NC352451  13.316  21.979   5.533
 4011POPC   PO452452  12.806  22.334   5.372
 4011POPC   GL152453  12.656  22.318   5.792
 4011POPC   GL252454  12.971  22.180   5.862
 4011POPC   C1A52455  12.688  22.266   6.273
 4011POPC   D2A52456  12.465  22.136   6.631
 4011POPC   C3A52457  12.631  22.386   6.933
 4011POPC   C4A52458  12.792  22.245   7.288
 4011POPC   C1B52459  13.105  21.911   6.187
 4011POPC   C2B52460  13.039  21.903   6.615
 4011POPC   C3B52461  13.167  22.006   7.069
 4011POPC   C4B52462  13.076  21.872   7.550
 4012POPC   NC352463  40.584  26.227   5.345
 4012POPC   PO452464  41.034  25.763   5.446
 4012POPC   GL152465  40.696  25.878   5.734
 4012POPC   GL252466  40.850  26.194   5.795
 4012POPC   C1A52467  40.549  26.011   6.153
 4012POPC   D2A52468  40.484  26.228   6.551
 4012POPC   C3A52469  40.811  26.129   6.833
 4012POPC   C4A52470  40.899  25.850   7.154
 4012POPC   C1B52471  41.212  26.144   6.077
 4012POPC   C2B52472  41.253  26.232   6.508
 4012POPC   C3B52473  41.329  26.088   6.900
 4012POPC   C4B52474  41.217  26.273   7.231
 4013POPC   NC352475  20.964   4.065   5.475
 4013POPC   PO452476  21.016   3.410   5.534
 4013POPC   GL152477  21.369   3.452   5.823
 4013POPC   GL252478  21.584   3.173   5.824
 4013POPC   C1A52479  21.472   3.472   6.287
 4013POPC   D2A52480  21.183   3.299   6.610
 4013POPC   C3A52481  21.124   3.488   7.001
 4013POPC   C4A52482  21.093   3.910   7.138
 4013POPC   C1B52483  21.362   3.009   6.167
 4013POPC   C2B52484  21.581   2.988   6.537
 4013POPC   C3B52485  21.696   3.308   6.801
 4013POPC   C4B52486  21.536   3.240   7.187
 4014POPC   NC352487  24.798  19.416   5.575
 4014POPC   PO452488  24.582  18.886   5.168
 4014POPC   GL152489  24.291  18.976   5.576
 4014POPC   GL252490  24.310  19.306   5.734
 4014POPC   C1A52491  24.149  18.923   6.029
 4014POPC   D2A52492  24.368  18.980   6.420
 4014POPC   C3A52493  24.324  18.802   6.830
 4014POPC   C4A52494  24.203  18.956   7.229
 4014POPC   C1B52495  24.347  19.449   6.171
 4014POPC   C2B52496  24.618  19.394   6.544
 4014POPC   C3B52497  24.464  19.314   6.952
 4014POPC   C4B52498  24.714  19.040   7.165
 4015POPC   NC352499  26.199  34.184   5.574
 4015POPC   PO452500  26.066  33.589   5.359
 4015POPC   GL152501  25.882  33.749   5.729
 4015POPC   GL252502  26.206  33.752   5.848
 4015POPC   C1A52503  25.792  33.859   6.174
 4015POPC   D2A52504  25.963  33.744   6.605
 4015POPC   C3A52505  25.987  33.981   6.962
 4015POPC   C4A52506  26.219  34.058   7.305
 4015POPC   C1B52507  26.236  33.536   6.225
 4015POPC   C2B52508  26.386  33.425   6.644
 4015POPC   C3B52509  26.230  33.509   7.060
 4015POPC   C4B52510  26.157  33.311   7.448
 4016POPC   NC352511  34.747  21.940   5.402
 4016POPC   PO452512  34.814  22.573   5.349
 4016POPC   GL152513  34.701  22.333   5.758
 4016POPC   GL252514  34.323  22.203   5.784
 4016POPC   C1A52515  34.659  22.000   6.100
 4016POPC   D2A52516  34.458  21.998   6.490
 4016POPC   C3A52517  34.680  22.258   6.775
 4016POPC   C4A52518  34.794  22.021   7.114
 4016POPC   C1B52519  34.316  22.411   6.227
 4016POPC   C2B52520  34.156  22.368   6.680
 4016POPC   C3B52521  34.300  22.285   7.112
 4016POPC   C4B52522  34.266  22.489   7.543
 4017POPC   NC352523   1.217  41.800   5.287
 4017POPC   PO452524   1.242  41.115   5.329
 4017POPC   GL152525   1.301  41.413   5.634
 4017POPC   GL252526   0.961  41.563   5.659
 4017POPC   C1A52527   1.345  41.626   6.015
 4017POPC   D2A52528   1.176  41.627   6.439
 4017POPC   C3A52529   1.390  41.549   6.821
 4017POPC   C4A52530   1.380  41.682   7.230
 4017POPC   C1B52531   0.856  41.431   6.069
 4017POPC   C2B52532   0.795  41.177   6.419
 4017POPC   C3B52533   0.804  41.262   6.870
 4017POPC   C4B52534   0.993  41.320   7.268
 4018POPC   NC352535  40.433  12.064   5.385
 4018POPC   PO452536  41.122  12.032   5.365
 4018POPC   GL152537  40.832  11.978   5.712
 4018POPC   GL252538  41.022  11.733   5.873
 4018POPC   C1A52539  40.704  12.040   6.159
 4018POPC   D2A52540  40.976  11.881   6.514
 4018POPC   C3A52541  40.808  11.911   6.940
 4018POPC   C4A52542  40.575  12.164   7.252
 4018POPC   C1B52543  41.177  12.166   6.081
 4018POPC   C2B52544  41.302  12.287   6.495
 4018POPC   C3B52545  41.115  12.414   6.876
 4018POPC   C4B52546  41.142  12.189   7.215
 4019POPC   NC352547   2.467  14.691   5.073
 4019POPC   PO452548   2.795  15.280   5.213
 4019POPC   GL152549   2.920  15.287   5.660
 4019POPC   GL252550   2.893  14.910   5.779
 4019POPC   C1A52551   2.836  15.297   6.131
 4019POPC   D2A52552   2.553  15.359   6.502
 4019POPC   C3A52553   2.673  15.217   6.926
 4019POPC   C4A52554   2.906  15.325   7.260
 4019POPC   C1B52555   2.654  14.761   6.149
 4019POPC   C2B52556   2.560  14.561   6.555
 4019POPC   C3B52557   2.516  14.717   6.965
 4019POPC   C4B52558   2.784  14.780   7.334
 4020POPC   NC352559  19.701   8.453   5.625
 4020POPC   PO452560  19.960   8.989   5.361
 4020POPC   GL152561  19.819   8.962   5.771
 4020POPC   GL252562  20.168   8.921   5.833
 4020POPC   C1A52563  19.606   8.915   6.178
 4020POPC   D2A52564  19.731   9.068   6.559
 4020POPC   C3A52565  19.611   8.972   6.940
 4020POPC   C4A52566  19.623   9.234   7.326
 4020POPC   C1B52567  20.067   8.682   6.180
 4020POPC   C2B52568  19.911   8.601   6.575
 4020POPC   C3B52569  20.059   8.705   6.948
 4020POPC   C4B52570  19.891   8.815   7.318
 4021POPC   NC352571  37.432  29.757   5.478
 4021POPC   PO452572  37.663  30.380   5.185
 4021POPC   GL152573  37.856  30.066   5.677
 4021POPC   GL252574  37.811  29.707   5.796
 4021POPC   C1A52575  37.708  30.106   6.149
 4021POPC   D2A52576  37.586  30.353   6.535
 4021POPC   C3A52577  37.650  30.166   6.950
 4021POPC   C4A52578  37.917  30.051   7.303
 4021POPC   C1B52579  37.515  29.641   6.121
 4021POPC   C2B52580  37.771  29.658   6.491
 4021POPC   C3B52581  37.850  29.676   6.914
 4021POPC   C4B52582  37.568  29.658   7.236
 4022POPC   NC352583  37.812  40.906   5.388
 4022POPC   PO452584  37.734  40.236   5.525
 4022POPC   GL152585  37.736  40.629   5.849
 4022POPC   GL252586  37.932  40.980   5.873
 4022POPC   C1A52587  37.784  40.735   6.320
 4022POPC   D2A52588  37.951  40.520   6.690
 4022POPC   C3A52589  37.775  40.515   7.121
 4022POPC   C4A52590  37.961  40.653   7.492
 4022POPC   C1B52591  37.524  41.099   6.043
 4022POPC   C2B52592  37.387  41.060   6.468
 4022POPC   C3B52593  37.575  40.873   6.827
 4022POPC   C4B52594  37.756  41.033   7.219
 4023POPC   NC352595  18.659   7.455   5.454
 4023POPC   PO452596  19.327   7.312   5.386
 4023POPC   GL152597  19.039   7.351   5.821
 4023POPC   GL252598  18.798   7.077   5.885
 4023POPC   C1A52599  18.925   7.443   6.309
 4023POPC   D2A52600  18.789   7.621   6.738
 4023POPC   C3A52601  19.031   7.489   7.121
 4023POPC   C4A52602  19.166   7.682   7.521
 4023POPC   C1B52603  18.672   6.999   6.339
 4023POPC   C2B52604  18.872   7.106   6.758
 4023POPC   C3B52605  18.870   6.995   7.206
 4023POPC   C4B52606  18.727   6.910   7.659
 4024POPC   NC352607  15.014   9.453   5.520
 4024POPC   PO452608  15.379   9.968   5.243
 4024POPC   GL152609  15.269   9.882   5.657
 4024POPC   GL252610  15.579   9.982   5.744
 4024POPC   C1A52611  15.100   9.780   6.104
 4024POPC   D2A52612  15.043   9.501   6.498
 4024POPC   C3A52613  15.034   9.632   6.957
 4024POPC   C4A52614  15.417   9.640   7.217
 4024POPC   C1B52615  15.430  10.177   6.088
 4024POPC   C2B52616  15.252  10.136   6.477
 4024POPC   C3B52617  15.356  10.034   6.881
 4024POPC   C4B52618  15.347  10.150   7.331
 4025POPC   NC352619   1.828  33.535   5.383
 4025POPC   PO452620   2.420  33.893   5.576
 4025POPC   GL152621   2.024  33.826   5.827
 4025POPC   GL252622   1.786  33.530   5.912
 4025POPC   C1A52623   1.953  33.885   6.294
 4025POPC   D2A52624   1.896  34.139   6.687
 4025POPC   C3A52625   2.075  33.990   7.105
 4025POPC   C4A52626   1.944  33.882   7.550
 4025POPC   C1B52627   1.919  33.369   6.347
 4025POPC   C2B52628   2.023  33.561   6.756
 4025POPC   C3B52629   1.803  33.543   7.162
 4025POPC   C4B52630   1.897  33.381   7.557
 4026POPC   NC352631  21.078  42.222   5.476
 4026POPC   PO452632  20.452  42.497   5.459
 4026POPC   GL152633  20.643  42.312   5.767
 4026POPC   GL252634  20.889  42.555   5.823
 4026POPC   C1A52635  20.569  42.164   6.181
 4026POPC   D2A52636  20.744  42.344   6.572
 4026POPC   C3A52637  20.494  42.375   6.955
 4026POPC   C4A52638  20.675  42.134   7.257
 4026POPC   C1B52639  21.099  42.709   6.205
 4026POPC   C2B52640  21.158  42.671   6.640
 4026POPC   C3B52641  20.870  42.741   6.953
 4026POPC   C4B52642  20.810  42.607   7.367
 4027POPC   NC352643  11.269  35.170   5.558
 4027POPC   PO452644  11.622  35.734   5.649
 4027POPC   GL152645  11.275  35.606   5.911
 4027POPC   GL252646  11.345  35.795   6.222
 4027POPC   C1A52647  10.919  35.470   6.184
 4027POPC   D2A52648  10.870  35.655   6.578
 4027POPC   C3A52649  11.219  35.598   6.816
 4027POPC   C4A52650  11.239  35.394   7.166
 4027POPC   C1B52651  11.360  35.351   6.397
 4027POPC   C2B52652  11.522  35.153   6.784
 4027POPC   C3B52653  11.675  35.116   7.219
 4027POPC   C4B52654  11.742  35.112   7.669
 4028POPC   NC352655  16.959  29.949   5.490
 4028POPC   PO452656  16.330  30.144   5.657
 4028POPC   GL152657  16.672  30.043   5.926
 4028POPC   GL252658  16.780  29.712   5.908
 4028POPC   C1A52659  16.679  30.034   6.384
 4028POPC   D2A52660  16.443  29.908   6.783
 4028POPC   C3A52661  16.802  29.901   7.054
 4028POPC   C4A52662  17.043  30.209   7.254
 4028POPC   C1B52663  17.051  29.488   6.166
 4028POPC   C2B52664  17.240  29.587   6.514
 4028POPC   C3B52665  17.235  29.449   6.921
 4028POPC   C4B52666  17.197  29.697   7.320
 4029POPC   NC352667  44.371  23.615   5.606
 4029POPC   PO452668  44.942  23.776   5.278
 4029POPC   GL152669  44.882  23.674   5.727
 4029POPC   GL252670  44.804  23.310   5.740
 4029POPC   C1A52671  44.656  23.850   6.126
 4029POPC   D2A52672  44.667  23.709   6.560
 4029POPC   C3A52673  44.448  23.856   6.921
 4029POPC   C4A52674  44.733  24.052   7.174
 4029POPC   C1B52675  44.843  23.383   6.182
 4029POPC   C2B52676  44.752  23.210   6.582
 4029POPC   C3B52677  44.780  23.407   6.982
 4029POPC   C4B52678   0.123  23.348   7.200
 4030POPC   NC352679  15.228  23.398   5.255
 4030POPC   PO452680  15.337  24.069   5.329
 4030POPC   GL152681  15.362  23.719   5.672
 4030POPC   GL252682  15.020  23.622   5.702
 4030POPC   C1A52683  15.539  23.545   6.095
 4030POPC   D2A52684  15.500  23.350   6.531
 4030POPC   C3A52685  15.304  23.555   6.926
 4030POPC   C4A52686  15.447  23.929   7.180
 4030POPC   C1B52687  15.080  23.753   6.156
 4030POPC   C2B52688  15.375  23.850   6.504
 4030POPC   C3B52689  15.244  24.178   6.788
 4030POPC   C4B52690  14.951  24.124   7.120
 4031POPC   NC352691   7.104   9.519   5.427
 4031POPC   PO452692   7.593   9.994   5.335
 4031POPC   GL152693   7.468   9.774   5.776
 4031POPC   GL252694   7.282   9.460   5.894
 4031POPC   C1A52695   7.667   9.594   6.184
 4031POPC   D2A52696   7.493   9.484   6.606
 4031POPC   C3A52697   7.639   9.692   7.003
 4031POPC   C4A52698   7.388  10.011   7.239
 4031POPC   C1B52699   7.068   9.542   6.275
 4031POPC   C2B52700   6.916   9.402   6.685
 4031POPC   C3B52701   7.108   9.511   7.055
 4031POPC   C4B52702   6.967   9.747   7.392
 4032POPC   NC352703   3.765  26.976   5.357
 4032POPC   PO452704   3.918  26.303   5.531
 4032POPC   GL152705   3.605  26.567   5.810
 4032POPC   GL252706   3.572  26.932   5.822
 4032POPC   C1A52707   3.452  26.664   6.251
 4032POPC   D2A52708   3.435  26.911   6.605
 4032POPC   C3A52709   3.449  26.764   6.987
 4032POPC   C4A52710   3.508  26.746   7.415
 4032POPC   C1B52711   3.676  27.166   6.208
 4032POPC   C2B52712   3.451  27.415   6.548
 4032POPC   C3B52713   3.336  27.284   6.950
 4032POPC   C4B52714   3.708  27.170   7.156
 4033POPC   NC352715  10.973  34.319   5.488
 4033POPC   PO452716  10.529  34.753   5.356
 4033POPC   GL152717  10.439  34.658   5.786
 4033POPC   GL252718  10.792  34.637   5.824
 4033POPC   C1A52719  10.195  34.645   6.199
 4033POPC   D2A52720  10.149  34.355   6.530
 4033POPC   C3A52721  10.243  34.511   6.946
 4033POPC   C4A52722  10.339  34.765   7.328
 4033POPC   C1B52723  10.679  34.479   6.209
 4033POPC   C2B52724  10.569  34.689   6.570
 4033POPC   C3B52725  10.708  34.728   6.984
 4033POPC   C4B52726  10.656  34.363   7.265
 4034POPC   NC352727  44.436  30.846   5.586
 4034POPC   PO452728  44.993  30.421   5.510
 4034POPC   GL152729  44.816  30.655   5.857
 4034POPC   GL252730  44.482  30.553   6.007
 4034POPC   C1A52731  44.819  30.921   6.221
 4034POPC   D2A52732  44.678  30.902   6.660
 4034POPC   C3A52733  44.989  30.703   6.930
 4034POPC   C4A52734  44.937  30.260   7.100
 4034POPC   C1B52735  44.299  30.887   6.285
 4034POPC   C2B52736  44.167  30.995   6.734
 4034POPC   C3B52737  44.360  30.808   7.136
 4034POPC   C4B52738  44.384  30.831   7.601
 4035POPC   NC352739   2.307  40.669   5.597
 4035POPC   PO452740   2.618  41.153   5.224
 4035POPC   GL152741   2.718  41.022   5.717
 4035POPC   GL252742   2.454  40.951   5.976
 4035POPC   C1A52743   2.874  41.011   6.220
 4035POPC   D2A52744   2.636  40.985   6.651
 4035POPC   C3A52745   2.875  40.850   7.064
 4035POPC   C4A52746   3.015  40.751   7.505
 4035POPC   C1B52747   2.519  40.574   6.238
 4035POPC   C2B52748   2.331  40.358   6.578
 4035POPC   C3B52749   2.441  40.577   6.984
 4035POPC   C4B52750   2.517  40.693   7.460
 4036POPC   NC352751  16.267  20.947   5.528
 4036POPC   PO452752  15.849  20.444   5.362
 4036POPC   GL152753  16.090  20.484   5.753
 4036POPC   GL252754  15.876  20.753   5.829
 4036POPC   C1A52755  16.206  20.616   6.205
 4036POPC   D2A52756  16.247  20.778   6.651
 4036POPC   C3A52757  15.995  20.567   6.984
 4036POPC   C4A52758  15.768  20.245   7.219
 4036POPC   C1B52759  15.843  20.982   6.212
 4036POPC   C2B52760  15.698  20.857   6.596
 4036POPC   C3B52761  15.702  21.020   6.985
 4036POPC   C4B52762  15.641  20.778   7.312
 4037POPC   NC352763  37.724  35.526   5.101
 4037POPC   PO452764  37.322  35.109   5.398
 4037POPC   GL152765  37.697  35.153   5.717
 4037POPC   GL252766  37.843  35.502   5.793
 4037POPC   C1A52767  37.671  35.215   6.178
 4037POPC   D2A52768  37.589  35.497   6.525
 4037POPC   C3A52769  37.599  35.256   6.910
 4037POPC   C4A52770  37.676  35.121   7.323
 4037POPC   C1B52771  38.102  35.473   6.187
 4037POPC   C2B52772  38.052  35.340   6.608
 4037POPC   C3B52773  38.045  35.506   7.024
 4037POPC   C4B52774  37.825  35.635   7.384
 4038POPC   NC352775  16.321  30.518   5.365
 4038POPC   PO452776  17.041  30.495   5.377
 4038POPC   GL152777  16.720  30.538   5.711
 4038POPC   GL252778  16.640  30.897   5.787
 4038POPC   C1A52779  16.608  30.493   6.144
 4038POPC   D2A52780  16.617  30.655   6.542
 4038POPC   C3A52781  16.752  30.357   6.813
 4038POPC   C4A52782  16.738  30.593   7.140
 4038POPC   C1B52783  16.921  30.899   6.174
 4038POPC   C2B52784  16.998  31.048   6.602
 4038POPC   C3B52785  17.126  30.913   7.025
 4038POPC   C4B52786  17.147  30.689   7.444
 4039POPC   NC352787   9.948  26.429   5.296
 4039POPC   PO452788   9.919  25.767   5.493
 4039POPC   GL152789   9.669  26.016   5.722
 4039POPC   GL252790   9.551  25.729   5.935
 4039POPC   C1A52791   9.723  26.210   6.113
 4039POPC   D2A52792   9.498  26.090   6.485
 4039POPC   C3A52793   9.700  26.235   6.879
 4039POPC   C4A52794   9.538  26.183   7.303
 4039POPC   C1B52795   9.850  25.719   6.273
 4039POPC   C2B52796   9.802  25.724   6.723
 4039POPC   C3B52797   9.788  25.766   7.153
 4039POPC   C4B52798  10.004  25.839   7.513
 4040POPC   NC352799  33.518  35.682   5.315
 4040POPC   PO452800  32.990  35.256   5.460
 4040POPC   GL152801  33.012  35.220   5.880
 4040POPC   GL252802  33.087  35.550   5.995
 4040POPC   C1A52803  32.925  35.189   6.314
 4040POPC   D2A52804  32.767  35.004   6.665
 4040POPC   C3A52805  33.002  35.114   6.972
 4040POPC   C4A52806  32.997  35.293   7.368
 4040POPC   C1B52807  33.259  35.668   6.370
 4040POPC   C2B52808  33.050  35.550   6.728
 4040POPC   C3B52809  32.951  35.755   7.111
 4040POPC   C4B52810  33.086  35.763   7.525
 4041POPC   NC352811  18.563   3.777   5.546
 4041POPC   PO452812  18.068   3.331   5.423
 4041POPC   GL152813  18.284   3.373   5.809
 4041POPC   GL252814  18.162   3.727   5.846
 4041POPC   C1A52815  18.515   3.299   6.220
 4041POPC   D2A52816  18.496   3.522   6.569
 4041POPC   C3A52817  18.591   3.311   6.880
 4041POPC   C4A52818  18.483   3.395   7.292
 4041POPC   C1B52819  18.095   3.606   6.258
 4041POPC   C2B52820  18.073   3.809   6.642
 4041POPC   C3B52821  18.185   3.639   6.984
 4041POPC   C4B52822  18.104   3.724   7.404
 4042POPC   NC352823  31.171  44.476   5.493
 4042POPC   PO452824  30.508  44.605   5.572
 4042POPC   GL152825  30.774  44.638   5.963
 4042POPC   GL252826  31.049  44.372   5.977
 4042POPC   C1A52827  30.676  44.461   6.410
 4042POPC   D2A52828  30.691  44.432   6.905
 4042POPC   C3A52829  30.493  44.734   7.223
 4042POPC   C4A52830  30.481  44.680   7.680
 4042POPC   C1B52831  31.165  44.608   6.332
 4042POPC   C2B52832  30.969  44.820   6.671
 4042POPC   C3B52833  30.999  44.834   7.112
 4042POPC   C4B52834  31.140  44.900   7.554
 4043POPC   NC352835  22.597  12.833   5.125
 4043POPC   PO452836  23.189  12.908   5.176
 4043POPC   GL152837  23.056  12.798   5.635
 4043POPC   GL252838  22.688  12.893   5.680
 4043POPC   C1A52839  23.190  12.562   6.060
 4043POPC   D2A52840  23.330  12.678   6.483
 4043POPC   C3A52841  23.325  12.608   6.939
 4043POPC   C4A52842  23.041  12.842   7.222
 4043POPC   C1B52843  22.853  12.932   6.113
 4043POPC   C2B52844  22.892  12.972   6.580
 4043POPC   C3B52845  22.634  12.794   6.931
 4043POPC   C4B52846  22.530  12.938   7.341
 4044POPC   NC352847   8.009  30.358   5.519
 4044POPC   PO452848   8.403  30.913   5.352
 4044POPC   GL152849   8.235  30.770   5.747
 4044POPC   GL252850   7.868  30.781   5.826
 4044POPC   C1A52851   8.317  30.833   6.175
 4044POPC   D2A52852   8.589  30.912   6.521
 4044POPC   C3A52853   8.431  31.053   6.908
 4044POPC   C4A52854   8.410  30.861   7.294
 4044POPC   C1B52855   7.918  30.494   6.196
 4044POPC   C2B52856   8.216  30.470   6.550
 4044POPC   C3B52857   8.168  30.574   6.949
 4044POPC   C4B52858   7.824  30.578   7.208
 4045POPC   NC352859  26.559  40.139   5.383
 4045POPC   PO452860  27.181  39.837   5.504
 4045POPC   GL152861  26.893  40.003   5.757
 4045POPC   GL252862  26.598  39.766   5.741
 4045POPC   C1A52863  26.708  40.197   6.129
 4045POPC   D2A52864  26.852  40.346   6.551
 4045POPC   C3A52865  26.872  40.133   6.953
 4045POPC   C4A52866  26.665  40.308   7.311
 4045POPC   C1B52867  26.774  39.675   6.130
 4045POPC   C2B52868  26.710  39.839   6.534
 4045POPC   C3B52869  26.680  39.647   6.901
 4045POPC   C4B52870  26.999  39.635   7.186
 4046POPC   NC352871   3.904  22.351   5.184
 4046POPC   PO452872   3.236  22.480   5.342
 4046POPC   GL152873   3.590  22.323   5.623
 4046POPC   GL252874   3.543  21.961   5.679
 4046POPC   C1A52875   3.762  22.186   6.056
 4046POPC   D2A52876   3.724  22.324   6.456
 4046POPC   C3A52877   3.881  22.095   6.808
 4046POPC   C4A52878   3.870  22.301   7.188
 4046POPC   C1B52879   3.353  21.870   6.110
 4046POPC   C2B52880   3.447  21.901   6.536
 4046POPC   C3B52881   3.480  21.769   6.945
 4046POPC   C4B52882   3.407  22.054   7.257
 4047POPC   NC352883  25.438  31.121   5.409
 4047POPC   PO452884  25.462  31.857   5.413
 4047POPC   GL152885  25.239  31.719   5.803
 4047POPC   GL252886  25.200  31.332   5.821
 4047POPC   C1A52887  25.348  31.602   6.243
 4047POPC   D2A52888  25.295  31.791   6.655
 4047POPC   C3A52889  25.166  31.615   7.069
 4047POPC   C4A52890  25.311  31.635   7.545
 4047POPC   C1B52891  25.593  31.178   6.038
 4047POPC   C2B52892  25.648  31.195   6.474
 4047POPC   C3B52893  25.413  31.184   6.864
 4047POPC   C4B52894  25.295  31.182   7.305
 4048POPC   NC352895  25.551   2.769   5.443
 4048POPC   PO452896  24.958   2.993   5.400
 4048POPC   GL152897  25.156   2.965   5.764
 4048POPC   GL252898  25.222   2.618   5.799
 4048POPC   C1A52899  25.011   2.903   6.192
 4048POPC   D2A52900  24.818   2.960   6.615
 4048POPC   C3A52901  25.043   2.803   6.955
 4048POPC   C4A52902  25.479   2.810   7.099
 4048POPC   C1B52903  25.338   2.512   6.215
 4048POPC   C2B52904  25.149   2.310   6.568
 4048POPC   C3B52905  25.279   2.333   6.980
 4048POPC   C4B52906  25.155   2.489   7.346
 4049POPC   NC352907  21.552  15.022   5.549
 4049POPC   PO452908  21.236  15.560   5.393
 4049POPC   GL152909  21.292  15.407   5.793
 4049POPC   GL252910  21.636  15.481   5.783
 4049POPC   C1A52911  21.343  15.152   6.197
 4049POPC   D2A52912  21.257  15.299   6.633
 4049POPC   C3A52913  21.142  15.116   7.064
 4049POPC   C4A52914  21.401  15.062   7.435
 4049POPC   C1B52915  21.543  15.615   6.204
 4049POPC   C2B52916  21.698  15.558   6.664
 4049POPC   C3B52917  21.560  15.407   7.062
 4049POPC   C4B52918  21.674  15.461   7.539
 4050POPC   NC352919  38.944  35.817   5.502
 4050POPC   PO452920  39.371  35.247   5.530
 4050POPC   GL152921  39.097  35.403   5.820
 4050POPC   GL252922  39.312  35.620   5.904
 4050POPC   C1A52923  39.081  35.261   6.237
 4050POPC   D2A52924  39.388  35.266   6.581
 4050POPC   C3A52925  39.327  35.023   6.954
 4050POPC   C4A52926  38.940  35.049   7.210
 4050POPC   C1B52927  39.225  35.747   6.327
 4050POPC   C2B52928  38.912  35.617   6.580
 4050POPC   C3B52929  39.067  35.470   6.936
 4050POPC   C4B52930  39.256  35.618   7.306
 4051POPC   NC352931   0.436  20.887   5.360
 4051POPC   PO452932   0.033  20.340   5.368
 4051POPC   GL152933   0.107  20.620   5.719
 4051POPC   GL252934   0.195  20.303   5.907
 4051POPC   C1A52935   0.328  20.758   6.114
 4051POPC   D2A52936   0.209  20.676   6.549
 4051POPC   C3A52937   0.406  20.894   6.906
 4051POPC   C4A52938   0.333  20.775   7.329
 4051POPC   C1B52939   0.632  20.349   6.119
 4051POPC   C2B52940   0.717  20.540   6.524
 4051POPC   C3B52941   0.580  20.431   6.933
 4051POPC   C4B52942   0.771  20.481   7.314
 4052POPC   NC352943  38.456   8.579   5.484
 4052POPC   PO452944  38.829   9.294   5.492
 4052POPC   GL152945  38.585   9.179   5.825
 4052POPC   GL252946  38.664   8.837   5.887
 4052POPC   C1A52947  38.430   9.269   6.233
 4052POPC   D2A52948  38.638   9.289   6.646
 4052POPC   C3A52949  38.380   9.189   6.977
 4052POPC   C4A52950  38.341   8.870   7.230
 4052POPC   C1B52951  38.847   8.957   6.278
 4052POPC   C2B52952  38.762   8.801   6.696
 4052POPC   C3B52953  38.844   8.937   7.097
 4052POPC   C4B52954  38.884   8.554   7.314
 4053POPC   NC352955  27.506  35.985   5.352
 4053POPC   PO452956  27.435  36.702   5.261
 4053POPC   GL152957  27.626  36.404   5.637
 4053POPC   GL252958  27.328  36.254   5.754
 4053POPC   C1A52959  27.868  36.197   6.058
 4053POPC   D2A52960  27.895  35.823   6.398
 4053POPC   C3A52961  28.014  35.889   6.870
 4053POPC   C4A52962  27.837  36.002   7.296
 4053POPC   C1B52963  27.395  36.013   6.107
 4053POPC   C2B52964  27.516  36.197   6.489
 4053POPC   C3B52965  27.538  36.094   6.903
 4053POPC   C4B52966  27.466  35.690   7.136
 4054POPC   NC352967  42.950  42.834   5.425
 4054POPC   PO452968  43.276  42.204   5.241
 4054POPC   GL152969  43.018  42.370   5.607
 4054POPC   GL252970  43.273  42.294   5.812
 4054POPC   C1A52971  42.976  42.588   6.083
 4054POPC   D2A52972  43.214  42.532   6.506
 4054POPC   C3A52973  43.017  42.492   6.932
 4054POPC   C4A52974  42.847  42.114   7.117
 4054POPC   C1B52975  43.373  42.101   6.244
 4054POPC   C2B52976  43.288  42.040   6.726
 4054POPC   C3B52977  43.450  42.251   7.108
 4054POPC   C4B52978  43.414  42.680   7.272
 4055POPC   NC352979  21.116  43.839   5.510
 4055POPC   PO452980  21.683  43.745   5.536
 4055POPC   GL152981  21.510  44.101   5.717
 4055POPC   GL252982  21.758  44.121   5.968
 4055POPC   C1A52983  21.253  44.183   6.079
 4055POPC   D2A52984  21.475  44.170   6.495
 4055POPC   C3A52985  21.194  44.078   6.826
 4055POPC   C4A52986  21.152  44.209   7.213
 4055POPC   C1B52987  21.506  43.742   6.159
 4055POPC   C2B52988  21.415  43.663   6.581
 4055POPC   C3B52989  21.660  43.858   6.896
 4055POPC   C4B52990  21.370  43.741   7.188
 4056POPC   NC352991  26.960  42.146   5.081
 4056POPC   PO452992  26.563  42.562   5.309
 4056POPC   GL152993  26.715  42.465   5.756
 4056POPC   GL252994  26.450  42.346   5.952
 4056POPC   C1A52995  26.891  42.242   6.171
 4056POPC   D2A52996  26.807  41.935   6.529
 4056POPC   C3A52997  26.966  42.107   6.924
 4056POPC   C4A52998  27.200  42.470   7.112
 4056POPC   C1B52999  26.436  42.327   6.415
 4056POPC   C2B53000  26.384  42.590   6.769
 4056POPC   C3B53001  26.682  42.522   7.076
 4056POPC   C4B53002  26.700  42.207   7.360
 4057POPC   NC353003  21.623   5.599   5.389
 4057POPC   PO453004  21.154   6.010   5.065
 4057POPC   GL153005  21.153   5.932   5.549
 4057POPC   GL253006  21.186   5.622   5.703
 4057POPC   C1A53007  21.334   6.115   5.938
 4057POPC   D2A53008  21.389   6.002   6.378
 4057POPC   C3A53009  21.122   6.130   6.719
 4057POPC   C4A53010  21.209   6.102   7.176
 4057POPC   C1B53011  21.492   5.558   6.050
 4057POPC   C2B53012  21.448   5.515   6.504
 4057POPC   C3B53013  21.457   5.771   6.873
 4057POPC   C4B53014  21.572   5.736   7.295
 4058POPC   NC353015  26.491  35.861   5.636
 4058POPC   PO453016  26.941  36.303   5.427
 4058POPC   GL153017  26.799  36.224   5.839
 4058POPC   GL253018  26.947  35.881   5.871
 4058POPC   C1A53019  26.461  36.261   6.169
 4058POPC   D2A53020  26.337  36.125   6.579
 4058POPC   C3A53021  26.640  36.081   6.886
 4058POPC   C4A53022  26.638  35.733   7.173
 4058POPC   C1B53023  26.677  35.813   6.263
 4058POPC   C2B53024  26.703  35.617   6.664
 4058POPC   C3B53025  27.064  35.785   6.837
 4058POPC   C4B53026  27.095  36.073   7.138
 4059POPC   NC353027  42.311  20.310   5.522
 4059POPC   PO453028  42.589  20.852   5.748
 4059POPC   GL153029  42.392  20.863   6.112
 4059POPC   GL253030  42.152  20.652   5.962
 4059POPC   C1A53031  42.553  20.817   6.532
 4059POPC   D2A53032  42.706  20.447   6.729
 4059POPC   C3A53033  42.476  20.503   7.066
 4059POPC   C4A53034  42.495  20.907   7.188
 4059POPC   C1B53035  42.192  20.483   6.401
 4059POPC   C2B53036  42.068  20.695   6.814
 4059POPC   C3B53037  42.037  20.679   7.300
 4059POPC   C4B53038  41.990  20.526   7.771
 4060POPC   NC353039  24.295  36.889   5.404
 4060POPC   PO453040  24.922  36.527   5.507
 4060POPC   GL153041  24.562  36.698   5.803
 4060POPC   GL253042  24.161  36.667   5.840
 4060POPC   C1A53043  24.520  37.026   6.141
 4060POPC   D2A53044  24.690  37.242   6.549
 4060POPC   C3A53045  24.480  37.086   6.959
 4060POPC   C4A53046  24.709  36.969   7.324
 4060POPC   C1B53047  24.312  36.558   6.243
 4060POPC   C2B53048  24.555  36.731   6.595
 4060POPC   C3B53049  24.711  36.558   6.999
 4060POPC   C4B53050  24.556  36.487   7.442
 4061POPC   NC353051   9.825  27.844   5.436
 4061POPC   PO453052   9.118  27.577   5.440
 4061POPC   GL153053   9.498  27.525   5.691
 4061POPC   GL253054   9.546  27.203   5.834
 4061POPC   C1A53055   9.668  27.648   6.106
 4061POPC   D2A53056   9.485  27.703   6.520
 4061POPC   C3A53057   9.651  27.690   6.941
 4061POPC   C4A53058  10.003  27.852   7.205
 4061POPC   C1B53059   9.451  27.213   6.276
 4061POPC   C2B53060   9.691  27.242   6.660
 4061POPC   C3B53061   9.567  27.214   7.105
 4061POPC   C4B53062   9.850  27.388   7.370
 4062POPC   NC353063  39.098  20.128   5.496
 4062POPC   PO453064  39.552  19.643   5.348
 4062POPC   GL153065  39.438  19.805   5.729
 4062POPC   GL253066  39.139  19.656   5.754
 4062POPC   C1A53067  39.335  20.039   6.111
 4062POPC   D2A53068  39.427  19.906   6.541
 4062POPC   C3A53069  39.531  20.138   6.901
 4062POPC   C4A53070  39.330  19.918   7.242
 4062POPC   C1B53071  39.140  19.556   6.211
 4062POPC   C2B53072  39.000  19.590   6.668
 4062POPC   C3B53073  38.916  19.588   7.125
 4062POPC   C4B53074  38.677  19.452   7.510
 4063POPC   NC353075   5.032  21.666   5.674
 4063POPC   PO453076   5.142  22.298   5.418
 4063POPC   GL153077   5.104  22.385   5.825
 4063POPC   GL253078   4.735  22.379   5.827
 4063POPC   C1A53079   5.013  22.364   6.255
 4063POPC   D2A53080   5.101  22.108   6.579
 4063POPC   C3A53081   5.442  22.063   6.824
 4063POPC   C4A53082   5.239  21.975   7.194
 4063POPC   C1B53083   4.523  22.492   6.210
 4063POPC   C2B53084   4.706  22.630   6.616
 4063POPC   C3B53085   4.949  22.486   6.961
 4063POPC   C4B53086   4.838  22.376   7.388
 4064POPC   NC353087  34.563   6.374   5.450
 4064POPC   PO453088  34.902   6.864   5.527
 4064POPC   GL153089  34.613   6.821   5.864
 4064POPC   GL253090  34.317   7.005   5.821
 4064POPC   C1A53091  34.483   6.731   6.311
 4064POPC   D2A53092  34.431   6.746   6.767
 4064POPC   C3A53093  34.306   6.417   7.006
 4064POPC   C4A53094  34.291   6.401   7.428
 4064POPC   C1B53095  34.504   7.229   6.178
 4064POPC   C2B53096  34.705   7.135   6.576
 4064POPC   C3B53097  34.755   7.090   7.003
 4064POPC   C4B53098  34.658   6.737   7.248
 4065POPC   NC353099  29.303  10.894   5.434
 4065POPC   PO453100  29.191  10.261   5.604
 4065POPC   GL153101  28.929  10.497   5.846
 4065POPC   GL253102  29.050  10.840   5.931
 4065POPC   C1A53103  29.018  10.447   6.273
 4065POPC   D2A53104  29.164  10.720   6.552
 4065POPC   C3A53105  28.967  10.647   6.932
 4065POPC   C4A53106  28.988  10.819   7.323
 4065POPC   C1B53107  29.464  10.660   6.125
 4065POPC   C2B53108  29.660  10.524   6.551
 4065POPC   C3B53109  29.500  10.703   6.943
 4065POPC   C4B53110  29.334  10.467   7.270
 4066POPC   NC353111   5.200  24.844   4.967
 4066POPC   PO453112   4.946  24.315   5.395
 4066POPC   GL153113   4.914  24.201   5.804
 4066POPC   GL253114   5.107  24.507   5.884
 4066POPC   C1A53115   4.953  24.204   6.248
 4066POPC   D2A53116   5.145  24.495   6.493
 4066POPC   C3A53117   5.082  24.449   6.899
 4066POPC   C4A53118   5.167  24.549   7.302
 4066POPC   C1B53119   5.458  24.680   6.127
 4066POPC   C2B53120   5.457  24.909   6.530
 4066POPC   C3B53121   5.482  24.813   6.980
 4066POPC   C4B53122   5.522  24.880   7.449
 4067POPC   NC353123  27.549   3.770   5.482
 4067POPC   PO453124  27.594   3.197   5.667
 4067POPC   GL153125  27.631   3.577   5.961
 4067POPC   GL253126  27.838   3.868   5.887
 4067POPC   C1A53127  27.637   3.613   6.397
 4067POPC   D2A53128  27.494   3.272   6.633
 4067POPC   C3A53129  27.341   3.283   7.044
 4067POPC   C4A53130  27.454   3.490   7.411
 4067POPC   C1B53131  28.112   3.719   6.251
 4067POPC   C2B53132  28.024   3.483   6.660
 4067POPC   C3B53133  27.705   3.669   6.931
 4067POPC   C4B53134  27.894   3.721   7.316
 4068POPC   NC353135  38.308   9.566   5.537
 4068POPC   PO453136  38.397  10.236   5.434
 4068POPC   GL153137  38.609   9.966   5.746
 4068POPC   GL253138  38.894   9.719   5.793
 4068POPC   C1A53139  38.406   9.843   6.137
 4068POPC   D2A53140  38.378   9.705   6.539
 4068POPC   C3A53141  38.174   9.873   6.868
 4068POPC   C4A53142  38.345   9.651   7.177
 4068POPC   C1B53143  38.841   9.576   6.232
 4068POPC   C2B53144  39.004   9.639   6.669
 4068POPC   C3B53145  38.927   9.538   7.098
 4068POPC   C4B53146  38.687   9.447   7.479
 4069POPC   NC353147   0.155   6.837   5.470
 4069POPC   PO453148   0.799   6.566   5.408
 4069POPC   GL153149   0.538   6.692   5.762
 4069POPC   GL253150   0.263   6.452   5.824
 4069POPC   C1A53151   0.348   6.827   6.152
 4069POPC   D2A53152   0.164   6.827   6.541
 4069POPC   C3A53153   0.440   6.719   6.852
 4069POPC   C4A53154   0.276   6.603   7.243
 4069POPC   C1B53155   0.618   6.297   6.089
 4069POPC   C2B53156   0.666   6.335   6.545
 4069POPC   C3B53157   0.576   6.228   6.991
 4069POPC   C4B53158   0.638   6.345   7.430
 4070POPC   NC353159   7.059  32.888   5.328
 4070POPC   PO453160   7.606  33.137   5.401
 4070POPC   GL153161   7.409  33.301   5.773
 4070POPC   GL253162   7.199  33.017   5.808
 4070POPC   C1A53163   7.457  33.168   6.221
 4070POPC   D2A53164   7.167  33.149   6.581
 4070POPC   C3A53165   7.399  33.131   6.961
 4070POPC   C4A53166   7.759  32.921   7.126
 4070POPC   C1B53167   7.332  32.688   6.105
 4070POPC   C2B53168   7.302  32.621   6.564
 4070POPC   C3B53169   7.241  32.637   7.026
 4070POPC   C4B53170   7.343  32.871   7.417
 4071POPC   NC353171  33.258  41.600   5.286
 4071POPC   PO453172  32.703  41.760   5.592
 4071POPC   GL153173  32.844  41.461   5.901
 4071POPC   GL253174  33.179  41.497   5.799
 4071POPC   C1A53175  33.035  41.443   6.330
 4071POPC   D2A53176  33.210  41.781   6.604
 4071POPC   C3A53177  33.066  41.777   7.070
 4071POPC   C4A53178  32.872  41.359   7.285
 4071POPC   C1B53179  33.496  41.604   6.118
 4071POPC   C2B53180  33.519  41.371   6.517
 4071POPC   C3B53181  33.274  41.342   6.855
 4071POPC   C4B53182  33.381  41.419   7.236
 4072POPC   NC353183  35.212   0.166   5.335
 4072POPC   PO453184  34.668   0.526   5.356
 4072POPC   GL153185  34.896   0.399   5.749
 4072POPC   GL253186  35.203   0.198   5.847
 4072POPC   C1A53187  34.925   0.433   6.207
 4072POPC   D2A53188  35.245   0.363   6.531
 4072POPC   C3A53189  35.096   0.210   6.897
 4072POPC   C4A53190  34.867   0.385   7.216
 4072POPC   C1B53191  35.494   0.039   6.215
 4072POPC   C2B53192  35.745   0.167   6.612
 4072POPC   C3B53193  35.792   0.372   7.021
 4072POPC   C4B53194  35.912   0.443   7.463
 4073POPC   NC353195   4.706  39.034   5.530
 4073POPC   PO453196   5.415  38.861   5.494
 4073POPC   GL153197   5.112  38.808   5.802
 4073POPC   GL253198   5.099  39.148   5.890
 4073POPC   C1A53199   4.864  38.803   6.200
 4073POPC   D2A53200   4.854  39.091   6.570
 4073POPC   C3A53201   4.940  38.988   7.012
 4073POPC   C4A53202   5.166  39.180   7.377
 4073POPC   C1B53203   5.300  39.258   6.302
 4073POPC   C2B53204   5.341  39.615   6.635
 4073POPC   C3B53205   5.334  39.603   7.101
 4073POPC   C4B53206   5.608  39.453   7.467
 4074POPC   NC353207  29.598  40.536   5.152
 4074POPC   PO453208  29.788  41.045   5.479
 4074POPC   GL153209  30.024  40.833   5.811
 4074POPC   GL253210  30.268  40.554   5.804
 4074POPC   C1A53211  30.205  40.920   6.206
 4074POPC   D2A53212  30.053  40.811   6.609
 4074POPC   C3A53213  29.674  40.873   6.806
 4074POPC   C4A53214  29.844  40.880   7.201
 4074POPC   C1B53215  29.973  40.458   6.180
 4074POPC   C2B53216  29.741  40.397   6.587
 4074POPC   C3B53217  29.970  40.442   6.995
 4074POPC   C4B53218  29.857  40.226   7.381
 4075POPC   NC353219  20.785   2.340   5.385
 4075POPC   PO453220  20.245   1.893   5.448
 4075POPC   GL153221  20.617   1.918   5.696
 4075POPC   GL253222  20.874   1.644   5.736
 4075POPC   C1A53223  20.791   2.169   6.033
 4075POPC   D2A53224  20.981   2.201   6.444
 4075POPC   C3A53225  20.744   2.029   6.768
 4075POPC   C4A53226  20.776   2.068   7.185
 4075POPC   C1B53227  20.629   1.655   6.149
 4075POPC   C2B53228  20.433   1.665   6.591
 4075POPC   C3B53229  20.599   1.566   7.026
 4075POPC   C4B53230  20.881   1.649   7.440
 4076POPC   NC353231  36.311  30.453   5.361
 4076POPC   PO453232  35.853  30.852   5.242
 4076POPC   GL153233  35.966  30.543   5.712
 4076POPC   GL253234  36.312  30.668   5.806
 4076POPC   C1A53235  36.055  30.620   6.228
 4076POPC   D2A53236  36.160  31.033   6.505
 4076POPC   C3A53237  36.052  30.998   6.963
 4076POPC   C4A53238  36.139  30.658   7.250
 4076POPC   C1B53239  36.506  30.846   6.170
 4076POPC   C2B53240  36.556  30.588   6.554
 4076POPC   C3B53241  36.491  30.352   6.967
 4076POPC   C4B53242  36.398  30.244   7.414
 4077POPC   NC353243  27.980  30.646   5.329
 4077POPC   PO453244  27.530  31.090   5.586
 4077POPC   GL153245  27.706  30.726   5.762
 4077POPC   GL253246  27.418  30.580   5.850
 4077POPC   C1A53247  27.873  30.573   6.184
 4077POPC   D2A53248  27.702  30.561   6.632
 4077POPC   C3A53249  27.680  30.932   6.900
 4077POPC   C4A53250  27.462  31.070   7.267
 4077POPC   C1B53251  27.394  30.390   6.239
 4077POPC   C2B53252  27.298  30.177   6.603
 4077POPC   C3B53253  27.343  30.218   7.019
 4077POPC   C4B53254  27.647  30.483   7.143
 4078POPC   NC353255  19.640   7.529   5.634
 4078POPC   PO453256  20.010   6.959   5.427
 4078POPC   GL153257  19.996   7.176   5.854
 4078POPC   GL253258  20.104   7.554   5.888
 4078POPC   C1A53259  19.946   7.255   6.301
 4078POPC   D2A53260  19.780   7.551   6.588
 4078POPC   C3A53261  19.822   7.399   7.008
 4078POPC   C4A53262  19.560   7.402   7.340
 4078POPC   C1B53263  20.191   7.757   6.289
 4078POPC   C2B53264  20.206   7.776   6.742
 4078POPC   C3B53265  20.165   7.748   7.184
 4078POPC   C4B53266  20.007   7.510   7.537
 4079POPC   NC353267  23.648  14.476   5.134
 4079POPC   PO453268  23.955  14.022   5.456
 4079POPC   GL153269  23.840  14.234   5.845
 4079POPC   GL253270  23.511  14.367   5.869
 4079POPC   C1A53271  23.882  14.550   6.165
 4079POPC   D2A53272  23.979  14.586   6.578
 4079POPC   C3A53273  23.789  14.385   6.885
 4079POPC   C4A53274  23.885  14.313   7.295
 4079POPC   C1B53275  23.579  14.118   6.267
 4079POPC   C2B53276  23.404  14.079   6.676
 4079POPC   C3B53277  23.437  14.099   7.113
 4079POPC   C4B53278  23.374  14.138   7.552
 4080POPC   NC353279  33.736  36.284   5.428
 4080POPC   PO453280  33.335  35.870   5.692
 4080POPC   GL153281  33.714  36.024   5.887
 4080POPC   GL253282  33.911  35.751   5.730
 4080POPC   C1A53283  33.964  36.236   6.271
 4080POPC   D2A53284  34.074  36.562   6.631
 4080POPC   C3A53285  34.057  36.378   7.071
 4080POPC   C4A53286  33.814  36.234   7.455
 4080POPC   C1B53287  33.774  35.607   6.177
 4080POPC   C2B53288  33.758  35.753   6.614
 4080POPC   C3B53289  33.825  35.829   7.077
 4080POPC   C4B53290  34.058  35.720   7.456
 4081POPC   NC353291  26.533  37.453   5.444
 4081POPC   PO453292  25.907  37.755   5.354
 4081POPC   GL153293  26.016  37.753   5.783
 4081POPC   GL253294  26.343  37.853   5.883
 4081POPC   C1A53295  25.941  37.903   6.209
 4081POPC   D2A53296  26.188  37.999   6.563
 4081POPC   C3A53297  26.162  37.843   6.967
 4081POPC   C4A53298  26.147  37.591   7.336
 4081POPC   C1B53299  26.402  37.645   6.249
 4081POPC   C2B53300  26.248  37.458   6.618
 4081POPC   C3B53301  26.375  37.136   6.923
 4081POPC   C4B53302  26.414  37.149   7.377
 4082POPC   NC353303  35.772  29.627   5.375
 4082POPC   PO453304  36.350  29.427   5.481
 4082POPC   GL153305  36.237  29.385   5.928
 4082POPC   GL253306  35.967  29.645   5.863
 4082POPC   C1A53307  36.316  29.231   6.401
 4082POPC   D2A53308  36.186  28.989   6.813
 4082POPC   C3A53309  36.238  29.007   7.270
 4082POPC   C4A53310  36.539  28.969   7.619
 4082POPC   C1B53311  35.985  29.643   6.325
 4082POPC   C2B53312  36.031  29.483   6.761
 4082POPC   C3B53313  35.887  29.361   7.186
 4082POPC   C4B53314  35.755  29.474   7.612
 4083POPC   NC353315  20.864  39.597   5.666
 4083POPC   PO453316  21.360  39.253   5.387
 4083POPC   GL153317  21.474  39.182   5.794
 4083POPC   GL253318  21.614  39.508   5.793
 4083POPC   C1A53319  21.459  39.070   6.213
 4083POPC   D2A53320  21.227  39.198   6.563
 4083POPC   C3A53321  21.314  39.156   6.971
 4083POPC   C4A53322  21.141  39.321   7.353
 4083POPC   C1B53323  21.768  39.473   6.212
 4083POPC   C2B53324  21.655  39.561   6.616
 4083POPC   C3B53325  21.726  39.457   7.017
 4083POPC   C4B53326  21.977  39.499   7.323
 4084POPC   NC353327  23.939  40.314   5.457
 4084POPC   PO453328  23.431  40.747   5.324
 4084POPC   GL153329  23.414  40.662   5.796
 4084POPC   GL253330  23.662  40.419   5.900
 4084POPC   C1A53331  23.531  40.872   6.194
 4084POPC   D2A53332  23.742  40.873   6.600
 4084POPC   C3A53333  23.544  40.658   6.936
 4084POPC   C4A53334  23.514  40.914   7.234
 4084POPC   C1B53335  23.985  40.620   6.189
 4084POPC   C2B53336  24.189  40.625   6.583
 4084POPC   C3B53337  24.056  40.721   7.017
 4084POPC   C4B53338  23.913  40.540   7.407
 4085POPC   NC353339  31.241  17.871   5.603
 4085POPC   PO453340  31.501  18.442   5.320
 4085POPC   GL153341  31.592  18.279   5.709
 4085POPC   GL253342  31.250  18.349   5.846
 4085POPC   C1A53343  31.724  18.410   6.131
 4085POPC   D2A53344  31.673  18.545   6.571
 4085POPC   C3A53345  31.537  18.207   6.852
 4085POPC   C4A53346  31.750  18.032   7.216
 4085POPC   C1B53347  30.962  18.423   6.195
 4085POPC   C2B53348  30.960  18.556   6.643
 4085POPC   C3B53349  31.071  18.332   7.033
 4085POPC   C4B53350  31.268  17.907   7.208
 4086POPC   NC353351  37.135  21.163   5.429
 4086POPC   PO453352  37.136  21.761   5.563
 4086POPC   GL153353  37.008  21.454   5.832
 4086POPC   GL253354  36.687  21.570   5.889
 4086POPC   C1A53355  36.969  21.226   6.225
 4086POPC   D2A53356  36.910  21.369   6.634
 4086POPC   C3A53357  37.082  21.129   6.971
 4086POPC   C4A53358  37.291  21.367   7.305
 4086POPC   C1B53359  36.509  21.475   6.271
 4086POPC   C2B53360  36.457  21.119   6.536
 4086POPC   C3B53361  36.549  21.198   6.942
 4086POPC   C4B53362  36.775  21.441   7.260
 4087POPC   NC353363   7.936  33.455   5.361
 4087POPC   PO453364   8.261  33.970   5.596
 4087POPC   GL153365   8.049  33.652   5.827
 4087POPC   GL253366   7.944  33.947   5.986
 4087POPC   C1A53367   7.840  33.527   6.233
 4087POPC   D2A53368   7.842  33.669   6.695
 4087POPC   C3A53369   8.232  33.498   6.903
 4087POPC   C4A53370   8.447  33.592   7.281
 4087POPC   C1B53371   8.408  33.988   6.206
 4087POPC   C2B53372   8.565  34.184   6.585
 4087POPC   C3B53373   8.437  34.016   6.983
 4087POPC   C4B53374   8.021  33.862   7.200
 4088POPC   NC353375  20.774  19.262   5.364
 4088POPC   PO453376  20.060  19.412   5.522
 4088POPC   GL153377  20.383  19.134   5.811
 4088POPC   GL253378  20.780  19.124   5.852
 4088POPC   C1A53379  20.445  18.991   6.255
 4088POPC   D2A53380  20.575  18.831   6.677
 4088POPC   C3A53381  20.437  19.057   7.052
 4088POPC   C4A53382  20.426  18.919   7.494
 4088POPC   C1B53383  20.831  19.333   6.216
 4088POPC   C2B53384  20.764  19.310   6.639
 4088POPC   C3B53385  20.980  19.042   6.941
 4088POPC   C4B53386  21.078  19.170   7.335
 4089POPC   NC353387  16.512   7.293   5.277
 4089POPC   PO453388  17.130   7.391   5.431
 4089POPC   GL153389  16.861   7.288   5.815
 4089POPC   GL253390  16.477   7.301   5.790
 4089POPC   C1A53391  16.679   7.188   6.239
 4089POPC   D2A53392  16.639   7.405   6.633
 4089POPC   C3A53393  16.580   7.204   7.044
 4089POPC   C4A53394  16.874   6.877   7.187
 4089POPC   C1B53395  16.454   7.630   6.132
 4089POPC   C2B53396  16.194   7.588   6.490
 4089POPC   C3B53397  16.289   7.664   6.889
 4089POPC   C4B53398  16.528   7.691   7.256
 4090POPC   NC353399  27.725   9.016   5.545
 4090POPC   PO453400  28.112   8.895   5.025
 4090POPC   GL153401  28.216   8.830   5.514
 4090POPC   GL253402  28.511   9.016   5.632
 4090POPC   C1A53403  28.189   8.875   6.020
 4090POPC   D2A53404  28.322   8.997   6.489
 4090POPC   C3A53405  28.237   8.784   6.926
 4090POPC   C4A53406  28.209   8.938   7.343
 4090POPC   C1B53407  28.579   9.222   6.056
 4090POPC   C2B53408  28.679   9.468   6.426
 4090POPC   C3B53409  28.667   9.466   6.860
 4090POPC   C4B53410  28.615   9.085   7.069
 4091POPC   NC353411  27.233  27.147   5.472
 4091POPC   PO453412  27.741  26.755   5.404
 4091POPC   GL153413  27.668  27.009   5.739
 4091POPC   GL253414  27.431  26.790   5.877
 4091POPC   C1A53415  27.822  27.039   6.159
 4091POPC   D2A53416  27.918  26.810   6.551
 4091POPC   C3A53417  27.706  26.919   6.934
 4091POPC   C4A53418  27.472  26.683   7.263
 4091POPC   C1B53419  27.309  27.093   6.203
 4091POPC   C2B53420  27.081  27.139   6.624
 4091POPC   C3B53421  27.232  27.089   7.074
 4091POPC   C4B53422  27.585  27.168   7.407
 4092POPC   NC353423   1.807  38.174   5.351
 4092POPC   PO453424   2.160  38.751   5.166
 4092POPC   GL153425   2.132  38.484   5.595
 4092POPC   GL253426   1.812  38.558   5.740
 4092POPC   C1A53427   2.232  38.528   6.078
 4092POPC   D2A53428   2.388  38.632   6.533
 4092POPC   C3A53429   2.263  38.465   6.954
 4092POPC   C4A53430   2.145  38.783   7.275
 4092POPC   C1B53431   1.752  38.339   6.137
 4092POPC   C2B53432   1.995  38.236   6.516
 4092POPC   C3B53433   1.967  38.031   6.917
 4092POPC   C4B53434   1.830  38.337   7.258
 4093POPC   NC353435   4.767  37.112   5.521
 4093POPC   PO453436   5.405  36.967   5.436
 4093POPC   GL153437   5.094  36.763   5.738
 4093POPC   GL253438   5.304  36.872   5.990
 4093POPC   C1A53439   4.872  36.752   6.184
 4093POPC   D2A53440   5.017  36.923   6.597
 4093POPC   C3A53441   4.851  36.864   7.008
 4093POPC   C4A53442   4.865  36.811   7.459
 4093POPC   C1B53443   5.530  37.221   6.170
 4093POPC   C2B53444   5.678  37.132   6.545
 4093POPC   C3B53445   5.464  36.993   6.862
 4093POPC   C4B53446   5.272  37.039   7.224
 4094POPC   NC353447  37.372  34.042   5.286
 4094POPC   PO453448  36.735  33.699   5.394
 4094POPC   GL153449  36.883  33.779   5.797
 4094POPC   GL253450  36.929  34.153   5.828
 4094POPC   C1A53451  37.074  33.644   6.189
 4094POPC   D2A53452  37.262  33.944   6.437
 4094POPC   C3A53453  37.013  34.065   6.793
 4094POPC   C4A53454  36.934  33.768   7.124
 4094POPC   C1B53455  36.784  34.070   6.271
 4094POPC   C2B53456  36.423  34.117   6.563
 4094POPC   C3B53457  36.485  34.075   6.997
 4094POPC   C4B53458  36.791  34.232   7.245
 4095POPC   NC353459  41.568  12.116   5.262
 4095POPC   PO453460  41.700  11.565   5.563
 4095POPC   GL153461  41.513  11.868   5.782
 4095POPC   GL253462  41.559  12.214   5.761
 4095POPC   C1A53463  41.429  11.754   6.195
 4095POPC   D2A53464  41.635  11.653   6.528
 4095POPC   C3A53465  41.390  11.824   6.863
 4095POPC   C4A53466  41.615  11.956   7.195
 4095POPC   C1B53467  41.708  12.196   6.192
 4095POPC   C2B53468  41.783  12.152   6.652
 4095POPC   C3B53469  41.614  12.399   7.000
 4095POPC   C4B53470  41.742  12.365   7.463
 4096POPC   NC353471  37.046   7.969   5.333
 4096POPC   PO453472  37.249   8.713   5.376
 4096POPC   GL153473  37.208   8.348   5.711
 4096POPC   GL253474  37.300   8.001   5.790
 4096POPC   C1A53475  36.889   8.221   6.070
 4096POPC   D2A53476  36.815   8.103   6.524
 4096POPC   C3A53477  36.612   8.381   6.793
 4096POPC   C4A53478  36.659   8.508   7.205
 4096POPC   C1B53479  37.358   8.107   6.259
 4096POPC   C2B53480  37.315   8.105   6.729
 4096POPC   C3B53481  37.084   8.048   7.144
 4096POPC   C4B53482  37.227   8.001   7.614
 4097POPC   NC353483   6.851   4.701   5.508
 4097POPC   PO453484   6.619   5.364   5.297
 4097POPC   GL153485   6.553   5.214   5.728
 4097POPC   GL253486   6.476   4.909   5.818
 4097POPC   C1A53487   6.735   5.152   6.176
 4097POPC   D2A53488   7.069   5.084   6.483
 4097POPC   C3A53489   7.015   5.002   6.938
 4097POPC   C4A53490   6.916   5.236   7.306
 4097POPC   C1B53491   6.437   4.741   6.228
 4097POPC   C2B53492   6.595   4.874   6.602
 4097POPC   C3B53493   6.397   4.967   6.962
 4097POPC   C4B53494   6.466   4.916   7.399
 4098POPC   NC353495  40.345  21.274   5.552
 4098POPC   PO453496  39.909  21.518   5.144
 4098POPC   GL153497  39.943  21.595   5.635
 4098POPC   GL253498  39.889  21.315   5.893
 4098POPC   C1A53499  40.144  21.702   6.069
 4098POPC   D2A53500  40.027  21.500   6.473
 4098POPC   C3A53501  40.104  21.712   6.882
 4098POPC   C4A53502  40.028  21.469   7.264
 4098POPC   C1B53503  39.726  21.101   6.273
 4098POPC   C2B53504  39.665  21.106   6.724
 4098POPC   C3B53505  39.883  20.898   7.109
 4098POPC   C4B53506  39.605  20.700   7.438
 4099POPC   NC353507  44.860  14.873   4.999
 4099POPC   PO453508   0.339  15.012   5.490
 4099POPC   GL153509   0.448  15.224   5.878
 4099POPC   GL253510   0.743  15.001   5.931
 4099POPC   C1A53511   0.408  15.238   6.342
 4099POPC   D2A53512   0.123  15.145   6.693
 4099POPC   C3A53513   0.231  15.378   7.070
 4099POPC   C4A53514   0.287  15.270   7.524
 4099POPC   C1B53515   0.866  15.377   6.170
 4099POPC   C2B53516   0.772  15.510   6.597
 4099POPC   C3B53517   0.806  15.364   7.016
 4099POPC   C4B53518   0.617  15.035   7.250
 4100POPC   NC353519  35.661  39.778   5.316
 4100POPC   PO453520  35.939  40.348   5.225
 4100POPC   GL153521  36.049  40.223   5.729
 4100POPC   GL253522  36.432  40.168   5.826
 4100POPC   C1A53523  36.062  39.923   6.135
 4100POPC   D2A53524  35.837  39.875   6.557
 4100POPC   C3A53525  35.997  39.740   6.962
 4100POPC   C4A53526  35.773  39.816   7.327
 4100POPC   C1B53527  36.327  40.328   6.255
 4100POPC   C2B53528  36.274  40.155   6.677
 4100POPC   C3B53529  36.152  40.224   7.114
 4100POPC   C4B53530  36.421  40.156   7.450
 4101POPC   NC353531  39.454  31.007   5.464
 4101POPC   PO453532  38.991  30.539   5.295
 4101POPC   GL153533  39.111  30.577   5.732
 4101POPC   GL253534  38.817  30.362   5.820
 4101POPC   C1A53535  39.360  30.683   6.157
 4101POPC   D2A53536  39.350  30.891   6.590
 4101POPC   C3A53537  39.522  30.735   6.979
 4101POPC   C4A53538  39.496  30.897   7.417
 4101POPC   C1B53539  38.842  30.684   6.152
 4101POPC   C2B53540  39.006  30.492   6.507
 4101POPC   C3B53541  39.062  30.431   6.926
 4101POPC   C4B53542  39.055  30.780   7.182
 4102POPC   NC353543  24.303   0.503   5.442
 4102POPC   PO453544  24.721   0.016   5.500
 4102POPC   GL153545  24.562   0.127   5.899
 4102POPC   GL253546  24.194   0.163   5.860
 4102POPC   C1A53547  24.674   0.489   6.170
 4102POPC   D2A53548  24.601   0.823   6.486
 4102POPC   C3A53549  24.877   0.787   6.829
 4102POPC   C4A53550  24.855   0.521   7.195
 4102POPC   C1B53551  24.239   0.250   6.301
 4102POPC   C2B53552  24.295   0.093   6.720
 4102POPC   C3B53553  24.377   0.273   7.137
 4102POPC   C4B53554  24.420   0.757   7.125
 4103POPC   NC353555   6.567   0.765   5.375
 4103POPC   PO453556   6.201   0.250   5.518
 4103POPC   GL153557   6.422   0.485   5.860
 4103POPC   GL253558   6.770   0.396   5.804
 4103POPC   C1A53559   6.568   0.544   6.330
 4103POPC   D2A53560   6.756   0.872   6.609
 4103POPC   C3A53561   6.560   0.780   7.003
 4103POPC   C4A53562   6.315   0.429   7.142
 4103POPC   C1B53563   6.865   0.152   6.195
 4103POPC   C2B53564   6.653   0.107   6.628
 4103POPC   C3B53565   6.561  44.992   7.063
 4103POPC   C4B53566   6.732  44.752   7.408
 4104POPC   NC353567  10.683   7.848   5.402
 4104POPC   PO453568  10.470   8.435   5.163
 4104POPC   GL153569  10.508   8.390   5.628
 4104POPC   GL253570  10.784   8.599   5.738
 4104POPC   C1A53571  10.583   8.105   6.031
 4104POPC   D2A53572  10.710   7.958   6.473
 4104POPC   C3A53573  10.563   8.053   6.907
 4104POPC   C4A53574  10.804   7.901   7.254
 4104POPC   C1B53575  10.693   8.600   6.172
 4104POPC   C2B53576  10.847   8.476   6.575
 4104POPC   C3B53577  10.794   8.614   6.986
 4104POPC   C4B53578  10.665   8.404   7.338
 4105POPC   NC353579  11.852  21.619   5.474
 4105POPC   PO453580  12.388  21.182   5.453
 4105POPC   GL153581  12.077  21.259   5.763
 4105POPC   GL253582  12.272  21.528   5.833
 4105POPC   C1A53583  11.906  21.389   6.157
 4105POPC   D2A53584  12.072  21.294   6.535
 4105POPC   C3A53585  11.815  21.371   6.826
 4105POPC   C4A53586  11.987  21.323   7.205
 4105POPC   C1B53587  12.481  21.269   6.128
 4105POPC   C2B53588  12.567  21.149   6.538
 4105POPC   C3B53589  12.418  21.297   6.930
 4105POPC   C4B53590  12.469  21.211   7.375
 4106POPC   NC353591  17.322   8.590   5.527
 4106POPC   PO453592  17.800   8.070   5.473
 4106POPC   GL153593  17.521   8.211   5.794
 4106POPC   GL253594  17.801   8.474   5.800
 4106POPC   C1A53595  17.250   8.221   6.195
 4106POPC   D2A53596  17.416   8.058   6.626
 4106POPC   C3A53597  17.291   8.186   7.040
 4106POPC   C4A53598  17.358   7.898   7.391
 4106POPC   C1B53599  17.796   8.196   6.204
 4106POPC   C2B53600  17.835   8.326   6.621
 4106POPC   C3B53601  17.780   8.087   7.008
 4106POPC   C4B53602  17.722   8.254   7.385
 4107POPC   NC353603  26.700   6.147   5.434
 4107POPC   PO453604  27.015   5.580   5.277
 4107POPC   GL153605  26.910   5.719   5.716
 4107POPC   GL253606  26.990   6.053   5.835
 4107POPC   C1A53607  26.684   5.769   6.138
 4107POPC   D2A53608  26.575   5.972   6.557
 4107POPC   C3A53609  26.605   5.781   6.952
 4107POPC   C4A53610  26.780   5.817   7.345
 4107POPC   C1B53611  26.781   6.285   6.193
 4107POPC   C2B53612  26.908   6.377   6.648
 4107POPC   C3B53613  26.845   6.258   7.095
 4107POPC   C4B53614  27.122   6.166   7.454
 4108POPC   NC353615  44.295  40.641   5.590
 4108POPC   PO453616  43.661  40.543   5.534
 4108POPC   GL153617  43.795  40.808   5.890
 4108POPC   GL253618  44.069  41.068   5.819
 4108POPC   C1A53619  43.849  40.659   6.318
 4108POPC   D2A53620  44.061  40.381   6.602
 4108POPC   C3A53621  43.776  40.297   6.950
 4108POPC   C4A53622  43.887  40.465   7.358
 4108POPC   C1B53623  44.282  40.906   6.197
 4108POPC   C2B53624  44.232  40.916   6.640
 4108POPC   C3B53625  43.917  40.814   6.939
 4108POPC   C4B53626  43.905  41.050   7.331
 4109POPC   NC353627  44.089  28.340   5.489
 4109POPC   PO453628  43.441  28.529   5.802
 4109POPC   GL153629  43.762  28.216   5.878
 4109POPC   GL253630  43.571  27.939   5.998
 4109POPC   C1A53631  44.148  28.241   6.130
 4109POPC   D2A53632  44.223  28.424   6.519
 4109POPC   C3A53633  44.240  28.157   6.829
 4109POPC   C4A53634  43.982  28.398   7.088
 4109POPC   C1B53635  43.838  27.931   6.383
 4109POPC   C2B53636  43.716  28.047   6.818
 4109POPC   C3B53637  43.474  28.231   7.160
 4109POPC   C4B53638  43.407  28.278   7.646
 4110POPC   NC353639  34.560  39.702   5.333
 4110POPC   PO453640  34.746  40.394   5.557
 4110POPC   GL153641  34.673  40.129   5.899
 4110POPC   GL253642  34.725  39.764   5.815
 4110POPC   C1A53643  34.489  40.174   6.349
 4110POPC   D2A53644  34.507  39.940   6.758
 4110POPC   C3A53645  34.451  40.115   7.159
 4110POPC   C4A53646  34.658  40.256   7.502
 4110POPC   C1B53647  34.330  39.783   6.061
 4110POPC   C2B53648  34.098  39.850   6.451
 4110POPC   C3B53649  34.075  39.607   6.847
 4110POPC   C4B53650  34.374  39.633   7.210
 4111POPC   NC353651   6.648   2.482   5.188
 4111POPC   PO453652   7.051   2.899   5.476
 4111POPC   GL153653   6.722   2.797   5.808
 4111POPC   GL253654   6.465   2.551   5.719
 4111POPC   C1A53655   6.584   2.830   6.271
 4111POPC   D2A53656   6.771   2.947   6.687
 4111POPC   C3A53657   6.651   2.827   7.095
 4111POPC   C4A53658   6.834   2.858   7.493
 4111POPC   C1B53659   6.369   2.369   6.154
 4111POPC   C2B53660   6.232   2.483   6.597
 4111POPC   C3B53661   6.425   2.363   7.013
 4111POPC   C4B53662   6.591   2.424   7.444
 4112POPC   NC353663  30.021  27.913   4.967
 4112POPC   PO453664  30.000  27.436   5.410
 4112POPC   GL153665  29.738  27.521   5.790
 4112POPC   GL253666  29.973  27.785   5.907
 4112POPC   C1A53667  29.754  27.501   6.267
 4112POPC   D2A53668  29.835  27.220   6.623
 4112POPC   C3A53669  29.818  27.437   7.028
 4112POPC   C4A53670  29.508  27.716   7.190
 4112POPC   C1B53671  30.002  27.921   6.348
 4112POPC   C2B53672  29.847  27.896   6.776
 4112POPC   C3B53673  29.986  27.895   7.216
 4112POPC   C4B53674  29.899  27.910   7.662
 4113POPC   NC353675  40.385   8.118   5.160
 4113POPC   PO453676  40.817   7.903   5.621
 4113POPC   GL153677  40.702   7.910   6.010
 4113POPC   GL253678  40.799   8.221   6.029
 4113POPC   C1A53679  40.834   7.842   6.421
 4113POPC   D2A53680  40.615   8.113   6.696
 4113POPC   C3A53681  40.704   8.051   7.127
 4113POPC   C4A53682  40.667   8.007   7.577
 4113POPC   C1B53683  41.094   8.293   6.332
 4113POPC   C2B53684  41.105   8.283   6.767
 4113POPC   C3B53685  41.052   8.452   7.164
 4113POPC   C4B53686  41.025   8.408   7.625
 4114POPC   NC353687   0.433  37.841   5.178
 4114POPC   PO453688   0.220  37.433   5.627
 4114POPC   GL153689   0.330  37.629   5.956
 4114POPC   GL253690   0.586  37.431   6.019
 4114POPC   C1A53691   0.263  37.595   6.398
 4114POPC   D2A53692   0.124  37.621   6.809
 4114POPC   C3A53693   0.373  37.729   7.157
 4114POPC   C4A53694   0.206  37.747   7.538
 4114POPC   C1B53695   0.696  37.332   6.416
 4114POPC   C2B53696   0.628  37.430   6.818
 4114POPC   C3B53697   0.822  37.446   7.193
 4114POPC   C4B53698   0.664  37.495   7.619
 4115POPC   NC353699   7.740  27.730   5.439
 4115POPC   PO453700   7.206  27.266   5.461
 4115POPC   GL153701   7.432  27.489   5.789
 4115POPC   GL253702   7.370  27.869   5.881
 4115POPC   C1A53703   7.465  27.494   6.234
 4115POPC   D2A53704   7.607  27.507   6.656
 4115POPC   C3A53705   7.324  27.411   7.013
 4115POPC   C4A53706   7.522  27.737   7.272
 4115POPC   C1B53707   7.121  27.857   6.295
 4115POPC   C2B53708   7.210  27.821   6.733
 4115POPC   C3B53709   7.018  27.840   7.109
 4115POPC   C4B53710   7.037  27.647   7.473
 4116POPC   NC353711  14.633  39.970   5.369
 4116POPC   PO453712  15.314  40.117   5.306
 4116POPC   GL153713  15.042  40.017   5.667
 4116POPC   GL253714  15.058  39.657   5.689
 4116POPC   C1A53715  15.047  40.008   6.115
 4116POPC   D2A53716  15.233  40.265   6.414
 4116POPC   C3A53717  15.186  40.161   6.832
 4116POPC   C4A53718  14.906  40.010   7.168
 4116POPC   C1B53719  15.472  39.793   5.899
 4116POPC   C2B53720  15.497  39.810   6.364
 4116POPC   C3B53721  15.308  39.685   6.760
 4116POPC   C4B53722  15.361  39.806   7.211
 4117POPC   NC353723   9.883  29.512   5.451
 4117POPC   PO453724   9.987  30.154   5.292
 4117POPC   GL153725   9.744  30.087   5.663
 4117POPC   GL253726   9.995  29.904   5.784
 4117POPC   C1A53727   9.486  30.038   6.057
 4117POPC   D2A53728   9.429  30.324   6.413
 4117POPC   C3A53729   9.387  30.084   6.833
 4117POPC   C4A53730   9.519  30.094   7.276
 4117POPC   C1B53731   9.956  30.182   6.151
 4117POPC   C2B53732   9.826  30.047   6.565
 4117POPC   C3B53733   9.971  30.215   6.959
 4117POPC   C4B53734  10.031  30.056   7.377
 4118POPC   NC353735   1.703  36.637   5.297
 4118POPC   PO453736   2.295  37.026   5.526
 4118POPC   GL153737   1.908  36.936   5.711
 4118POPC   GL253738   1.911  36.602   5.783
 4118POPC   C1A53739   1.834  36.938   6.163
 4118POPC   D2A53740   2.001  36.768   6.533
 4118POPC   C3A53741   2.132  37.101   6.819
 4118POPC   C4A53742   2.260  37.078   7.234
 4118POPC   C1B53743   1.715  36.440   6.190
 4118POPC   C2B53744   1.486  36.646   6.527
 4118POPC   C3B53745   1.593  36.963   6.815
 4118POPC   C4B53746   1.746  37.123   7.196
 4119POPC   NC353747   5.499  15.379   5.555
 4119POPC   PO453748   5.977  14.999   5.552
 4119POPC   GL153749   5.827  15.156   5.944
 4119POPC   GL253750   5.552  14.950   6.003
 4119POPC   C1A53751   6.001  15.310   6.351
 4119POPC   D2A53752   6.076  15.076   6.760
 4119POPC   C3A53753   5.731  15.221   7.021
 4119POPC   C4A53754   5.566  15.601   7.249
 4119POPC   C1B53755   5.764  14.863   6.400
 4119POPC   C2B53756   5.681  14.688   6.814
 4119POPC   C3B53757   5.832  14.748   7.233
 4119POPC   C4B53758   6.118  15.053   7.396
 4120POPC   NC353759  23.425  37.348   5.579
 4120POPC   PO453760  23.740  37.869   5.339
 4120POPC   GL153761  23.914  37.884   5.771
 4120POPC   GL253762  23.758  38.171   5.905
 4120POPC   C1A53763  23.956  37.751   6.251
 4120POPC   D2A53764  23.878  37.831   6.738
 4120POPC   C3A53765  24.027  37.539   7.097
 4120POPC   C4A53766  23.783  37.337   7.456
 4120POPC   C1B53767  23.482  37.983   6.224
 4120POPC   C2B53768  23.386  38.048   6.665
 4120POPC   C3B53769  23.488  38.011   7.073
 4120POPC   C4B53770  23.484  37.567   7.127
 4121POPC   NC353771  27.595  32.903   5.306
 4121POPC   PO453772  27.844  33.556   5.388
 4121POPC   GL153773  27.898  33.231   5.745
 4121POPC   GL253774  27.898  32.836   5.758
 4121POPC   C1A53775  27.717  33.135   6.168
 4121POPC   D2A53776  27.719  32.946   6.588
 4121POPC   C3A53777  27.555  33.171   6.962
 4121POPC   C4A53778  27.512  33.192   7.425
 4121POPC   C1B53779  27.920  32.594   6.178
 4121POPC   C2B53780  27.982  32.503   6.627
 4121POPC   C3B53781  27.951  32.460   7.056
 4121POPC   C4B53782  27.745  32.781   7.232
 4122POPC   NC353783  26.427  18.637   5.447
 4122POPC   PO453784  25.941  18.164   5.203
 4122POPC   GL153785  26.050  18.334   5.633
 4122POPC   GL253786  25.770  18.389   5.844
 4122POPC   C1A53787  26.155  18.267   6.131
 4122POPC   D2A53788  26.190  18.100   6.560
 4122POPC   C3A53789  26.076  18.333   6.954
 4122POPC   C4A53790  26.079  18.072   7.311
 4122POPC   C1B53791  25.767  18.583   6.244
 4122POPC   C2B53792  25.810  18.677   6.656
 4122POPC   C3B53793  25.637  18.640   7.035
 4122POPC   C4B53794  25.770  18.464   7.382
 4123POPC   NC353795   5.577  31.101   5.412
 4123POPC   PO453796   6.191  31.048   5.148
 4123POPC   GL153797   6.024  30.888   5.564
 4123POPC   GL253798   6.116  31.115   5.802
 4123POPC   C1A53799   5.936  30.673   5.994
 4123POPC   D2A53800   5.996  30.612   6.465
 4123POPC   C3A53801   5.723  30.484   6.815
 4123POPC   C4A53802   5.732  30.444   7.273
 4123POPC   C1B53803   6.320  30.967   6.198
 4123POPC   C2B53804   6.297  30.988   6.646
 4123POPC   C3B53805   6.137  31.207   6.989
 4123POPC   C4B53806   6.029  31.098   7.385
 4124POPC   NC353807  44.251  21.397   5.362
 4124POPC   PO453808  44.926  21.081   5.373
 4124POPC   GL153809  44.657  21.269   5.660
 4124POPC   GL253810  44.345  21.106   5.744
 4124POPC   C1A53811  44.626  21.508   6.029
 4124POPC   D2A53812  44.619  21.379   6.449
 4124POPC   C3A53813  44.773  21.561   6.827
 4124POPC   C4A53814  44.544  21.572   7.206
 4124POPC   C1B53815  44.449  20.990   6.126
 4124POPC   C2B53816  44.220  21.055   6.486
 4124POPC   C3B53817  44.374  21.210   6.858
 4124POPC   C4B53818  44.480  21.042   7.195
 4125POPC   NC353819   7.834  11.373   5.321
 4125POPC   PO453820   7.145  11.523   5.193
 4125POPC   GL153821   7.410  11.405   5.615
 4125POPC   GL253822   7.698  11.103   5.720
 4125POPC   C1A53823   7.492  11.382   6.081
 4125POPC   D2A53824   7.706  11.428   6.487
 4125POPC   C3A53825   7.501  11.352   6.891
 4125POPC   C4A53826   7.440  11.274   7.365
 4125POPC   C1B53827   7.874  11.037   6.167
 4125POPC   C2B53828   7.781  10.950   6.632
 4125POPC   C3B53829   7.650  10.902   7.082
 4125POPC   C4B53830   7.688  10.856   7.572
 4126POPC   NC353831   1.495   4.676   5.391
 4126POPC   PO453832   0.738   4.860   5.349
 4126POPC   GL153833   1.116   4.995   5.630
 4126POPC   GL253834   1.248   5.337   5.791
 4126POPC   C1A53835   1.246   4.934   6.074
 4126POPC   D2A53836   1.106   5.059   6.455
 4126POPC   C3A53837   1.278   4.913   6.829
 4126POPC   C4A53838   1.159   4.890   7.243
 4126POPC   C1B53839   1.433   5.422   6.222
 4126POPC   C2B53840   1.373   5.416   6.687
 4126POPC   C3B53841   1.359   5.332   7.117
 4126POPC   C4B53842   1.352   5.266   7.569
 4127POPC   NC353843  12.820  33.954   5.218
 4127POPC   PO453844  12.649  33.489   5.735
 4127POPC   GL153845  12.907  33.781   5.862
 4127POPC   GL253846  12.835  34.086   5.732
 4127POPC   C1A53847  13.094  33.913   6.195
 4127POPC   D2A53848  13.077  34.128   6.545
 4127POPC   C3A53849  13.177  33.831   6.835
 4127POPC   C4A53850  13.037  33.785   7.241
 4127POPC   C1B53851  12.614  34.094   6.139
 4127POPC   C2B53852  12.648  33.809   6.470
 4127POPC   C3B53853  12.654  33.885   6.890
 4127POPC   C4B53854  12.667  34.168   7.227
 4128POPC   NC353855  38.278  24.873   5.415
 4128POPC   PO453856  38.389  24.247   5.343
 4128POPC   GL153857  38.524  24.253   5.753
 4128POPC   GL253858  38.526  24.609   5.833
 4128POPC   C1A53859  38.402  24.224   6.183
 4128POPC   D2A53860  38.356  24.470   6.537
 4128POPC   C3A53861  38.613  24.429   6.877
 4128POPC   C4A53862  38.603  24.602   7.268
 4128POPC   C1B53863  38.200  24.752   6.136
 4128POPC   C2B53864  38.165  24.955   6.560
 4128POPC   C3B53865  38.215  24.760   6.958
 4128POPC   C4B53866  38.133  24.881   7.381
 4129POPC   NC353867  35.221  38.115   5.667
 4129POPC   PO453868  35.332  38.658   5.264
 4129POPC   GL153869  35.416  38.572   5.732
 4129POPC   GL253870  35.190  38.531   6.034
 4129POPC   C1A53871  35.697  38.654   6.088
 4129POPC   D2A53872  35.769  38.451   6.478
 4129POPC   C3A53873  35.599  38.643   6.859
 4129POPC   C4A53874  35.454  38.564   7.297
 4129POPC   C1B53875  34.967  38.195   6.251
 4129POPC   C2B53876  34.969  38.061   6.635
 4129POPC   C3B53877  35.190  38.277   6.936
 4129POPC   C4B53878  35.002  38.363   7.342
 4130POPC   NC353879  20.491  41.091   5.410
 4130POPC   PO453880  20.852  41.773   5.466
 4130POPC   GL153881  20.512  41.538   5.716
 4130POPC   GL253882  20.407  41.215   5.891
 4130POPC   C1A53883  20.416  41.651   6.158
 4130POPC   D2A53884  20.671  41.798   6.533
 4130POPC   C3A53885  20.416  41.854   6.903
 4130POPC   C4A53886  20.341  41.564   7.220
 4130POPC   C1B53887  20.688  41.139   6.238
 4130POPC   C2B53888  20.784  41.008   6.686
 4130POPC   C3B53889  20.732  41.224   7.102
 4130POPC   C4B53890  20.878  41.656   7.216
 4131POPC   NC353891  12.822  27.932   5.487
 4131POPC   PO453892  12.677  27.292   5.284
 4131POPC   GL153893  12.717  27.466   5.772
 4131POPC   GL253894  13.028  27.452   5.971
 4131POPC   C1A53895  12.714  27.705   6.237
 4131POPC   D2A53896  12.933  27.962   6.556
 4131POPC   C3A53897  12.906  27.760   6.960
 4131POPC   C4A53898  12.924  27.344   7.180
 4131POPC   C1B53899  13.231  27.609   6.319
 4131POPC   C2B53900  13.190  27.376   6.684
 4131POPC   C3B53901  13.372  27.513   6.989
 4131POPC   C4B53902  13.282  27.685   7.331
 4132POPC   NC353903  29.299  31.804   5.431
 4132POPC   PO453904  28.836  31.333   5.324
 4132POPC   GL153905  28.966  31.511   5.737
 4132POPC   GL253906  29.305  31.392   5.747
 4132POPC   C1A53907  29.094  31.683   6.149
 4132POPC   D2A53908  29.057  31.879   6.572
 4132POPC   C3A53909  29.159  31.624   6.952
 4132POPC   C4A53910  29.205  31.722   7.392
 4132POPC   C1B53911  29.319  31.213   6.174
 4132POPC   C2B53912  29.311  31.062   6.606
 4132POPC   C3B53913  29.546  31.238   6.943
 4132POPC   C4B53914  29.520  31.335   7.367
 4133POPC   NC353915  33.000  44.795   5.429
 4133POPC   PO453916  33.304  44.241   5.204
 4133POPC   GL153917  33.085  44.231   5.691
 4133POPC   GL253918  32.777  44.449   5.788
 4133POPC   C1A53919  33.084  44.373   6.195
 4133POPC   D2A53920  33.407  44.613   6.398
 4133POPC   C3A53921  33.258  44.616   6.827
 4133POPC   C4A53922  33.029  44.625   7.246
 4133POPC   C1B53923  32.870  44.815   6.079
 4133POPC   C2B53924  33.026  44.949   6.480
 4133POPC   C3B53925  32.880  44.968   6.900
 4133POPC   C4B53926  32.897   0.125   7.291
 4134POPC   NC353927   4.212  23.389   5.436
 4134POPC   PO453928   4.173  22.738   5.259
 4134POPC   GL153929   4.364  22.913   5.694
 4134POPC   GL253930   4.579  23.228   5.813
 4134POPC   C1A53931   4.290  22.988   6.165
 4134POPC   D2A53932   4.459  23.087   6.597
 4134POPC   C3A53933   4.314  22.888   6.984
 4134POPC   C4A53934   3.871  22.797   7.077
 4134POPC   C1B53935   4.600  23.445   6.256
 4134POPC   C2B53936   4.696  23.524   6.721
 4134POPC   C3B53937   4.424  23.429   7.111
 4134POPC   C4B53938   4.426  23.452   7.589
 4135POPC   NC353939  41.819   8.992   5.552
 4135POPC   PO453940  41.185   8.801   5.661
 4135POPC   GL153941  41.537   8.731   5.913
 4135POPC   GL253942  41.873   8.531   5.805
 4135POPC   C1A53943  41.507   9.005   6.284
 4135POPC   D2A53944  41.355   9.215   6.670
 4135POPC   C3A53945  41.405   8.958   7.055
 4135POPC   C4A53946  41.680   9.048   7.446
 4135POPC   C1B53947  41.951   8.731   6.212
 4135POPC   C2B53948  41.939   9.012   6.558
 4135POPC   C3B53949  42.017   8.923   6.961
 4135POPC   C4B53950  41.804   8.612   7.129
 4136POPC   NC353951  37.995  33.470   5.533
 4136POPC   PO453952  37.439  32.990   5.422
 4136POPC   GL153953  37.561  32.818   5.793
 4136POPC   GL253954  37.877  32.998   5.828
 4136POPC   C1A53955  37.520  32.927   6.229
 4136POPC   D2A53956  37.789  32.918   6.601
 4136POPC   C3A53957  37.592  32.827   6.990
 4136POPC   C4A53958  37.394  33.196   7.175
 4136POPC   C1B53959  37.987  33.186   6.200
 4136POPC   C2B53960  38.025  33.377   6.600
 4136POPC   C3B53961  38.083  33.165   6.963
 4136POPC   C4B53962  37.906  33.064   7.331
 4137POPC   NC353963  41.541  20.072   5.419
 4137POPC   PO453964  42.007  19.596   5.193
 4137POPC   GL153965  41.870  19.737   5.649
 4137POPC   GL253966  42.045  19.474   5.828
 4137POPC   C1A53967  41.682  19.778   6.107
 4137POPC   D2A53968  41.414  19.984   6.460
 4137POPC   C3A53969  41.576  19.961   6.912
 4137POPC   C4A53970  41.361  20.120   7.299
 4137POPC   C1B53971  41.987  19.338   6.244
 4137POPC   C2B53972  41.794  19.508   6.598
 4137POPC   C3B53973  41.882  19.496   7.032
 4137POPC   C4B53974  41.730  19.732   7.381
 4138POPC   NC353975  32.259   9.426   5.286
 4138POPC   PO453976  32.543  10.015   5.559
 4138POPC   GL153977  32.195   9.902   5.835
 4138POPC   GL253978  32.070   9.566   5.868
 4138POPC   C1A53979  32.147   9.933   6.270
 4138POPC   D2A53980  32.413  10.069   6.632
 4138POPC   C3A53981  32.137  10.069   6.985
 4138POPC   C4A53982  31.980   9.910   7.350
 4138POPC   C1B53983  32.282   9.433   6.255
 4138POPC   C2B53984  32.212   9.552   6.662
 4138POPC   C3B53985  32.113   9.503   7.085
 4138POPC   C4B53986  32.295   9.545   7.503
 4139POPC   NC353987  11.140  30.734   5.367
 4139POPC   PO453988  11.639  30.311   5.424
 4139POPC   GL153989  11.496  30.493   5.767
 4139POPC   GL253990  11.181  30.340   5.762
 4139POPC   C1A53991  11.399  30.786   6.102
 4139POPC   D2A53992  11.412  30.983   6.509
 4139POPC   C3A53993  11.139  30.972   6.860
 4139POPC   C4A53994  11.295  30.977   7.265
 4139POPC   C1B53995  11.028  30.447   6.184
 4139POPC   C2B53996  11.143  30.501   6.629
 4139POPC   C3B53997  11.202  30.520   7.080
 4139POPC   C4B53998  11.049  30.603   7.518
 4140POPC   NC353999  16.858   3.789   5.203
 4140POPC   PO454000  16.423   3.324   5.358
 4140POPC   GL154001  16.425   3.572   5.747
 4140POPC   GL254002  16.725   3.746   5.724
 4140POPC   C1A54003  16.332   3.707   6.176
 4140POPC   D2A54004  16.619   3.743   6.532
 4140POPC   C3A54005  16.498   3.654   6.945
 4140POPC   C4A54006  16.848   3.724   7.223
 4140POPC   C1B54007  16.800   3.476   6.106
 4140POPC   C2B54008  16.886   3.236   6.486
 4140POPC   C3B54009  16.997   3.016   6.856
 4140POPC   C4B54010  17.024   3.162   7.279
 4141POPC   NC354011   3.227  34.651   5.220
 4141POPC   PO454012   2.603  34.460   5.302
 4141POPC   GL154013   2.598  34.727   5.651
 4141POPC   GL254014   2.907  34.877   5.808
 4141POPC   C1A54015   2.505  34.662   6.073
 4141POPC   D2A54016   2.559  34.482   6.479
 4141POPC   C3A54017   2.571  34.805   6.768
 4141POPC   C4A54018   2.559  34.790   7.197
 4141POPC   C1B54019   3.007  34.756   6.268
 4141POPC   C2B54020   3.044  34.540   6.701
 4141POPC   C3B54021   2.794  34.360   7.055
 4141POPC   C4B54022   2.456  34.252   7.378
 4142POPC   NC354023  43.036  29.491   5.444
 4142POPC   PO454024  43.312  30.208   5.407
 4142POPC   GL154025  43.099  30.049   5.771
 4142POPC   GL254026  43.326  29.768   5.837
 4142POPC   C1A54027  42.906  29.829   6.150
 4142POPC   D2A54028  43.090  29.718   6.568
 4142POPC   C3A54029  42.927  29.945   6.927
 4142POPC   C4A54030  42.911  30.029   7.360
 4142POPC   C1B54031  43.380  30.020   6.234
 4142POPC   C2B54032  43.486  30.049   6.679
 4142POPC   C3B54033  43.419  29.838   7.090
 4142POPC   C4B54034  43.374  29.943   7.539
 4143POPC   NC354035   1.892   7.255   5.630
 4143POPC   PO454036   1.825   6.706   5.182
 4143POPC   GL154037   1.838   6.756   5.672
 4143POPC   GL254038   2.049   6.556   5.800
 4143POPC   C1A54039   1.943   6.914   6.178
 4143POPC   D2A54040   2.131   6.712   6.584
 4143POPC   C3A54041   2.210   6.880   7.022
 4143POPC   C4A54042   2.204   6.738   7.472
 4143POPC   C1B54043   1.788   6.443   6.137
 4143POPC   C2B54044   1.853   6.273   6.493
 4143POPC   C3B54045   1.734   6.329   6.906
 4143POPC   C4B54046   1.789   6.621   7.214
 4144POPC   NC354047  28.249   7.217   5.637
 4144POPC   PO454048  28.202   6.557   5.395
 4144POPC   GL154049  28.119   6.713   5.779
 4144POPC   GL254050  28.459   6.819   5.873
 4144POPC   C1A54051  28.029   6.890   6.195
 4144POPC   D2A54052  28.196   6.786   6.602
 4144POPC   C3A54053  28.005   6.653   6.981
 4144POPC   C4A54054  28.316   6.770   7.239
 4144POPC   C1B54055  28.350   6.505   6.186
 4144POPC   C2B54056  28.541   6.406   6.564
 4144POPC   C3B54057  28.388   6.300   6.950
 4144POPC   C4B54058  28.169   6.251   7.306
 4145POPC   NC354059  41.397  44.043   5.374
 4145POPC   PO454060  41.744  43.457   5.417
 4145POPC   GL154061  41.528  43.581   5.766
 4145POPC   GL254062  41.189  43.632   5.703
 4145POPC   C1A54063  41.700  43.791   6.139
 4145POPC   D2A54064  41.598  44.035   6.508
 4145POPC   C3A54065  41.487  43.727   6.846
 4145POPC   C4A54066  41.723  43.666   7.227
 4145POPC   C1B54067  41.193  43.863   6.065
 4145POPC   C2B54068  41.125  43.859   6.493
 4145POPC   C3B54069  41.206  44.166   6.824
 4145POPC   C4B54070  41.416  44.075   7.210
 4146POPC   NC354071  27.904   8.003   5.523
 4146POPC   PO454072  27.380   8.245   5.230
 4146POPC   GL154073  27.502   8.205   5.707
 4146POPC   GL254074  27.866   8.461   5.710
 4146POPC   C1A54075  27.405   8.286   6.144
 4146POPC   D2A54076  27.556   8.480   6.520
 4146POPC   C3A54077  27.408   8.259   6.868
 4146POPC   C4A54078  27.300   8.412   7.258
 4146POPC   C1B54079  27.933   8.420   6.128
 4146POPC   C2B54080  28.089   8.514   6.522
 4146POPC   C3B54081  27.930   8.374   6.919
 4146POPC   C4B54082  27.741   8.130   7.237
 4147POPC   NC354083  22.065   3.836   5.474
 4147POPC   PO454084  21.839   3.257   5.383
 4147POPC   GL154085  22.084   3.421   5.769
 4147POPC   GL254086  21.833   3.628   5.921
 4147POPC   C1A54087  22.224   3.599   6.219
 4147POPC   D2A54088  21.904   3.716   6.545
 4147POPC   C3A54089  22.080   3.809   6.968
 4147POPC   C4A54090  22.406   3.709   7.293
 4147POPC   C1B54091  21.902   3.207   6.189
 4147POPC   C2B54092  22.121   3.146   6.533
 4147POPC   C3B54093  22.339   3.379   6.785
 4147POPC   C4B54094  22.138   3.293   7.132
 4148POPC   NC354095  28.826  27.620   5.440
 4148POPC   PO454096  29.246  27.131   5.468
 4148POPC   GL154097  29.194  27.364   5.846
 4148POPC   GL254098  29.167  27.712   5.800
 4148POPC   C1A54099  29.248  27.456   6.287
 4148POPC   D2A54100  29.435  27.570   6.673
 4148POPC   C3A54101  29.115  27.495   6.964
 4148POPC   C4A54102  29.211  27.347   7.370
 4148POPC   C1B54103  28.944  27.847   6.174
 4148POPC   C2B54104  29.067  27.918   6.617
 4148POPC   C3B54105  28.961  27.967   7.065
 4148POPC   C4B54106  28.931  27.765   7.488
 4149POPC   NC354107  35.218  16.799   5.268
 4149POPC   PO454108  34.753  16.237   5.302
 4149POPC   GL154109  35.004  16.524   5.651
 4149POPC   GL254110  35.293  16.321   5.767
 4149POPC   C1A54111  35.301  16.764   6.016
 4149POPC   D2A54112  35.593  16.764   6.411
 4149POPC   C3A54113  35.439  16.820   6.880
 4149POPC   C4A54114  35.067  16.902   7.208
 4149POPC   C1B54115  35.455  16.287   6.211
 4149POPC   C2B54116  35.464  16.304   6.667
 4149POPC   C3B54117  35.764  16.401   6.990
 4149POPC   C4B54118  35.773  16.571   7.375
 4150POPC   NC354119  16.080  23.073   5.353
 4150POPC   PO454120  15.550  22.593   5.410
 4150POPC   GL154121  15.728  22.863   5.758
 4150POPC   GL254122  16.099  22.846   5.817
 4150POPC   C1A54123  15.778  23.065   6.183
 4150POPC   D2A54124  15.695  22.871   6.610
 4150POPC   C3A54125  15.626  23.139   6.988
 4150POPC   C4A54126  15.767  23.015   7.402
 4150POPC   C1B54127  16.277  23.205   6.014
 4150POPC   C2B54128  16.280  23.314   6.461
 4150POPC   C3B54129  16.113  23.159   6.844
 4150POPC   C4B54130  16.299  23.064   7.239
 4151POPC   NC354131  39.484  31.720   5.554
 4151POPC   PO454132  39.002  31.191   5.434
 4151POPC   GL154133  39.076  31.473   5.796
 4151POPC   GL254134  39.415  31.389   5.951
 4151POPC   C1A54135  39.022  31.661   6.221
 4151POPC   D2A54136  39.215  31.649   6.620
 4151POPC   C3A54137  39.019  31.611   7.006
 4151POPC   C4A54138  39.277  31.235   7.069
 4151POPC   C1B54139  39.579  31.730   6.229
 4151POPC   C2B54140  39.689  31.836   6.657
 4151POPC   C3B54141  39.510  31.785   7.048
 4151POPC   C4B54142  39.615  31.774   7.507
 4152POPC   NC354143   6.717  34.765   5.574
 4152POPC   PO454144   6.166  34.450   5.326
 4152POPC   GL154145   6.436  34.251   5.670
 4152POPC   GL254146   6.819  34.201   5.669
 4152POPC   C1A54147   6.474  34.327   6.123
 4152POPC   D2A54148   6.338  34.446   6.569
 4152POPC   C3A54149   6.359  34.322   6.997
 4152POPC   C4A54150   6.434  34.720   7.244
 4152POPC   C1B54151   7.001  34.259   6.085
 4152POPC   C2B54152   6.844  34.414   6.476
 4152POPC   C3B54153   6.817  34.495   6.918
 4152POPC   C4B54154   7.107  34.284   7.174
 4153POPC   NC354155  29.459   0.728   5.603
 4153POPC   PO454156  28.916   0.886   5.252
 4153POPC   GL154157  28.925   1.073   5.661
 4153POPC   GL254158  29.278   1.189   5.698
 4153POPC   C1A54159  28.961   1.226   6.110
 4153POPC   D2A54160  29.132   1.317   6.521
 4153POPC   C3A54161  28.957   1.390   6.932
 4153POPC   C4A54162  29.247   1.467   7.243
 4153POPC   C1B54163  29.452   1.094   6.125
 4153POPC   C2B54164  29.568   1.052   6.542
 4153POPC   C3B54165  29.374   1.052   6.927
 4153POPC   C4B54166  29.449   0.945   7.342
 4154POPC   NC354167  28.447  18.693   5.355
 4154POPC   PO454168  28.754  19.277   5.306
 4154POPC   GL154169  28.691  19.210   5.778
 4154POPC   GL254170  28.396  19.003   5.845
 4154POPC   C1A54171  28.666  19.146   6.261
 4154POPC   D2A54172  28.483  18.901   6.620
 4154POPC   C3A54173  28.337  19.086   7.005
 4154POPC   C4A54174  28.498  19.149   7.406
 4154POPC   C1B54175  28.138  18.970   6.229
 4154POPC   C2B54176  27.949  18.822   6.613
 4154POPC   C3B54177  28.067  18.658   7.023
 4154POPC   C4B54178  28.068  18.865   7.436
 4155POPC   NC354179  15.133  34.289   5.314
 4155POPC   PO454180  14.748  34.839   5.511
 4155POPC   GL154181  15.014  34.514   5.773
 4155POPC   GL254182  15.330  34.418   5.851
 4155POPC   C1A54183  14.991  34.523   6.225
 4155POPC   D2A54184  15.013  34.805   6.561
 4155POPC   C3A54185  14.970  34.520   6.916
 4155POPC   C4A54186  14.974  34.374   7.325
 4155POPC   C1B54187  15.547  34.420   6.229
 4155POPC   C2B54188  15.423  34.472   6.650
 4155POPC   C3B54189  15.373  34.217   6.992
 4155POPC   C4B54190  15.477  34.511   7.258
 4156POPC   NC354191  21.436  18.657   5.159
 4156POPC   PO454192  21.222  19.228   5.502
 4156POPC   GL154193  21.476  19.184   5.872
 4156POPC   GL254194  21.674  18.917   5.912
 4156POPC   C1A54195  21.466  19.074   6.340
 4156POPC   D2A54196  21.484  18.937   6.758
 4156POPC   C3A54197  21.504  19.249   7.083
 4156POPC   C4A54198  21.584  19.377   7.525
 4156POPC   C1B54199  21.708  18.598   6.206
 4156POPC   C2B54200  21.713  18.441   6.604
 4156POPC   C3B54201  21.740  18.567   7.020
 4156POPC   C4B54202  21.350  18.735   7.219
 4157POPC   NC354203  42.292  23.292   5.391
 4157POPC   PO454204  42.053  22.625   5.618
 4157POPC   GL154205  42.248  22.985   5.840
 4157POPC   GL254206  42.058  23.347   5.848
 4157POPC   C1A54207  42.454  22.901   6.214
 4157POPC   D2A54208  42.480  23.046   6.638
 4157POPC   C3A54209  42.395  22.740   6.948
 4157POPC   C4A54210  42.455  22.720   7.383
 4157POPC   C1B54211  41.995  23.194   6.282
 4157POPC   C2B54212  41.952  22.927   6.636
 4157POPC   C3B54213  42.095  23.160   6.975
 4157POPC   C4B54214  42.397  23.279   7.272
 4158POPC   NC354215  15.585  32.135   5.488
 4158POPC   PO454216  16.303  32.183   5.467
 4158POPC   GL154217  15.978  32.329   5.790
 4158POPC   GL254218  15.920  32.003   5.870
 4158POPC   C1A54219  15.735  32.339   6.216
 4158POPC   D2A54220  15.593  32.471   6.664
 4158POPC   C3A54221  15.908  32.413   7.026
 4158POPC   C4A54222  15.926  32.450   7.489
 4158POPC   C1B54223  15.759  31.776   6.223
 4158POPC   C2B54224  15.699  31.968   6.606
 4158POPC   C3B54225  15.524  32.079   6.989
 4158POPC   C4B54226  15.769  31.995   7.327
 4159POPC   NC354227  14.063  17.594   5.580
 4159POPC   PO454228  14.591  17.191   5.465
 4159POPC   GL154229  14.601  17.404   5.833
 4159POPC   GL254230  14.279  17.246   5.912
 4159POPC   C1A54231  14.804  17.741   6.089
 4159POPC   D2A54232  14.735  17.850   6.508
 4159POPC   C3A54233  14.661  17.605   6.859
 4159POPC   C4A54234  14.582  17.848   7.221
 4159POPC   C1B54235  14.330  17.577   6.238
 4159POPC   C2B54236  14.184  17.708   6.653
 4159POPC   C3B54237  14.116  17.655   7.102
 4159POPC   C4B54238  14.180  17.618   7.559
 4160POPC   NC354239   1.686   2.527   5.518
 4160POPC   PO454240   1.910   1.961   5.315
 4160POPC   GL154241   1.843   1.779   5.700
 4160POPC   GL254242   1.994   2.102   5.809
 4160POPC   C1A54243   1.616   1.668   6.089
 4160POPC   D2A54244   1.713   1.759   6.529
 4160POPC   C3A54245   1.675   1.732   6.980
 4160POPC   C4A54246   1.972   1.697   7.332
 4160POPC   C1B54247   2.124   2.286   6.193
 4160POPC   C2B54248   2.011   2.174   6.584
 4160POPC   C3B54249   2.105   1.999   6.949
 4160POPC   C4B54250   1.967   2.196   7.338
 4161POPC   NC354251  37.944  22.966   5.472
 4161POPC   PO454252  37.446  22.596   5.475
 4161POPC   GL154253  37.560  22.838   5.860
 4161POPC   GL254254  37.720  23.175   5.867
 4161POPC   C1A54255  37.731  22.874   6.311
 4161POPC   D2A54256  37.937  22.870   6.747
 4161POPC   C3A54257  37.658  22.974   7.099
 4161POPC   C4A54258  37.488  22.703   7.392
 4161POPC   C1B54259  37.557  23.349   6.222
 4161POPC   C2B54260  37.488  23.211   6.657
 4161POPC   C3B54261  37.438  23.458   7.054
 4161POPC   C4B54262  37.490  23.266   7.552
 4162POPC   NC354263  21.278  30.189   5.248
 4162POPC   PO454264  21.331  29.520   5.279
 4162POPC   GL154265  21.342  29.616   5.727
 4162POPC   GL254266  21.071  29.863   5.672
 4162POPC   C1A54267  21.455  29.594   6.183
 4162POPC   D2A54268  21.297  29.734   6.579
 4162POPC   C3A54269  21.458  29.748   7.007
 4162POPC   C4A54270  21.164  29.760   7.325
 4162POPC   C1B54271  21.253  30.051   6.063
 4162POPC   C2B54272  21.339  30.224   6.495
 4162POPC   C3B54273  21.167  30.166   6.927
 4162POPC   C4B54274  21.321  30.252   7.356
 4163POPC   NC354275  27.214   9.804   5.200
 4163POPC   PO454276  27.834   9.533   5.403
 4163POPC   GL154277  27.535   9.696   5.751
 4163POPC   GL254278  27.190   9.863   5.721
 4163POPC   C1A54279  27.717   9.771   6.162
 4163POPC   D2A54280  27.811   9.869   6.582
 4163POPC   C3A54281  27.801   9.695   6.984
 4163POPC   C4A54282  27.984   9.951   7.314
 4163POPC   C1B54283  27.273  10.026   6.128
 4163POPC   C2B54284  27.303   9.777   6.505
 4163POPC   C3B54285  27.297   9.859   6.928
 4163POPC   C4B54286  27.483   9.946   7.302
 4164POPC   NC354287  17.134  10.562   5.437
 4164POPC   PO454288  17.811  10.385   5.612
 4164POPC   GL154289  17.386  10.325   5.868
 4164POPC   GL254290  17.205  10.632   5.955
 4164POPC   C1A54291  17.307  10.299   6.352
 4164POPC   D2A54292  17.679  10.368   6.638
 4164POPC   C3A54293  17.560  10.543   7.035
 4164POPC   C4A54294  17.504  10.595   7.461
 4164POPC   C1B54295  17.550  10.743   6.279
 4164POPC   C2B54296  17.674  10.918   6.718
 4164POPC   C3B54297  17.601  11.036   7.204
 4164POPC   C4B54298  17.692  11.053   7.672
 4165POPC   NC354299  27.468  10.646   4.888
 4165POPC   PO454300  27.322  10.229   5.403
 4165POPC   GL154301  27.556  10.329   5.754
 4165POPC   GL254302  27.765  10.589   5.650
 4165POPC   C1A54303  27.651  10.425   6.180
 4165POPC   D2A54304  27.461  10.272   6.571
 4165POPC   C3A54305  27.699  10.214   6.935
 4165POPC   C4A54306  27.700  10.415   7.307
 4165POPC   C1B54307  28.003  10.794   5.976
 4165POPC   C2B54308  27.985  10.748   6.429
 4165POPC   C3B54309  27.700  10.719   6.803
 4165POPC   C4B54310  27.830  10.944   7.189
 4166POPC   NC354311  37.093  28.152   5.430
 4166POPC   PO454312  37.015  28.789   5.400
 4166POPC   GL154313  37.092  28.516   5.788
 4166POPC   GL254314  37.159  28.690   6.089
 4166POPC   C1A54315  36.875  28.286   6.174
 4166POPC   D2A54316  37.100  28.382   6.589
 4166POPC   C3A54317  36.919  28.433   6.997
 4166POPC   C4A54318  36.616  28.702   7.172
 4166POPC   C1B54319  37.370  28.247   6.174
 4166POPC   C2B54320  37.532  28.122   6.594
 4166POPC   C3B54321  37.437  28.257   7.055
 4166POPC   C4B54322  37.099  28.161   7.385
 4167POPC   NC354323   6.193  13.853   5.395
 4167POPC   PO454324   5.720  13.547   5.130
 4167POPC   GL154325   5.767  13.651   5.596
 4167POPC   GL254326   6.080  13.459   5.709
 4167POPC   C1A54327   5.747  13.714   6.080
 4167POPC   D2A54328   5.729  13.524   6.527
 4167POPC   C3A54329   5.961  13.750   6.854
 4167POPC   C4A54330   5.888  13.762   7.270
 4167POPC   C1B54331   6.105  13.310   6.133
 4167POPC   C2B54332   6.253  13.451   6.541
 4167POPC   C3B54333   6.151  13.286   6.947
 4167POPC   C4B54334   6.305  13.378   7.336
 4168POPC   NC354335  39.229  19.299   5.362
 4168POPC   PO454336  39.609  18.761   5.430
 4168POPC   GL154337  39.482  19.046   5.777
 4168POPC   GL254338  39.135  19.156   5.844
 4168POPC   C1A54339  39.559  19.198   6.194
 4168POPC   D2A54340  39.468  19.399   6.582
 4168POPC   C3A54341  39.553  19.203   6.967
 4168POPC   C4A54342  39.180  19.163   7.179
 4168POPC   C1B54343  39.032  19.008   6.243
 4168POPC   C2B54344  38.996  19.073   6.674
 4168POPC   C3B54345  38.877  18.811   7.005
 4168POPC   C4B54346  38.737  18.965   7.379
 4169POPC   NC354347   9.161   2.240   5.194
 4169POPC   PO454348   8.974   1.575   5.387
 4169POPC   GL154349   9.003   1.800   5.743
 4169POPC   GL254350   9.281   1.987   5.673
 4169POPC   C1A54351   8.839   1.901   6.159
 4169POPC   D2A54352   8.925   2.234   6.470
 4169POPC   C3A54353   8.684   2.173   6.838
 4169POPC   C4A54354   8.820   1.955   7.203
 4169POPC   C1B54355   9.313   2.079   6.140
 4169POPC   C2B54356   9.226   1.836   6.556
 4169POPC   C3B54357   9.310   1.891   7.020
 4169POPC   C4B54358   9.265   1.721   7.451
 4170POPC   NC354359  15.464  11.311   5.484
 4170POPC   PO454360  16.130  11.249   5.346
 4170POPC   GL154361  15.907  11.140   5.723
 4170POPC   GL254362  15.862  11.484   5.863
 4170POPC   C1A54363  15.931  11.086   6.167
 4170POPC   D2A54364  16.088  11.283   6.558
 4170POPC   C3A54365  15.961  11.110   6.953
 4170POPC   C4A54366  15.893  11.266   7.365
 4170POPC   C1B54367  15.691  11.547   6.326
 4170POPC   C2B54368  15.720  11.562   6.790
 4170POPC   C3B54369  15.494  11.538   7.173
 4170POPC   C4B54370  15.664  11.653   7.607
 4171POPC   NC354371   3.782  22.814   5.512
 4171POPC   PO454372   3.354  23.311   5.256
 4171POPC   GL154373   3.288  23.156   5.703
 4171POPC   GL254374   3.332  22.802   5.728
 4171POPC   C1A54375   3.389  23.090   6.153
 4171POPC   D2A54376   3.600  23.178   6.558
 4171POPC   C3A54377   3.385  23.013   6.917
 4171POPC   C4A54378   3.484  23.060   7.317
 4171POPC   C1B54379   3.455  22.588   6.088
 4171POPC   C2B54380   3.358  22.686   6.509
 4171POPC   C3B54381   3.486  22.478   6.878
 4171POPC   C4B54382   3.423  22.561   7.275
 4172POPC   NC354383  41.661  19.294   5.486
 4172POPC   PO454384  41.404  18.675   5.295
 4172POPC   GL154385  41.496  18.812   5.713
 4172POPC   GL254386  41.729  18.586   5.865
 4172POPC   C1A54387  41.361  18.881   6.145
 4172POPC   D2A54388  41.379  18.820   6.615
 4172POPC   C3A54389  41.446  19.205   6.873
 4172POPC   C4A54390  41.513  19.268   7.320
 4172POPC   C1B54391  41.861  18.829   6.260
 4172POPC   C2B54392  41.929  19.005   6.670
 4172POPC   C3B54393  41.809  18.908   7.091
 4172POPC   C4B54394  41.910  19.000   7.533
 4173POPC   NC354395  27.113  20.024   5.380
 4173POPC   PO454396  26.538  19.722   5.343
 4173POPC   GL154397  26.775  19.869   5.744
 4173POPC   GL254398  27.089  19.672   5.792
 4173POPC   C1A54399  26.967  19.985   6.202
 4173POPC   D2A54400  26.971  19.858   6.663
 4173POPC   C3A54401  26.789  20.061   7.062
 4173POPC   C4A54402  26.562  20.085   7.477
 4173POPC   C1B54403  26.775  19.528   6.116
 4173POPC   C2B54404  26.543  19.649   6.472
 4173POPC   C3B54405  26.600  19.588   6.905
 4173POPC   C4B54406  26.958  19.545   7.174
 4174POPC   NC354407  17.112  26.095   5.533
 4174POPC   PO454408  16.585  25.972   5.134
 4174POPC   GL154409  16.600  26.002   5.599
 4174POPC   GL254410  16.783  25.709   5.704
 4174POPC   C1A54411  16.659  26.166   6.056
 4174POPC   D2A54412  16.520  26.140   6.505
 4174POPC   C3A54413  16.752  26.229   6.882
 4174POPC   C4A54414  16.639  26.487   7.201
 4174POPC   C1B54415  16.982  25.768   6.127
 4174POPC   C2B54416  17.003  25.930   6.533
 4174POPC   C3B54417  16.842  25.739   6.899
 4174POPC   C4B54418  16.576  25.868   7.241
 4175POPC   NC354419  24.910  37.027   5.523
 4175POPC   PO454420  25.527  36.863   5.306
 4175POPC   GL154421  25.500  36.784   5.754
 4175POPC   GL254422  25.446  37.148   5.905
 4175POPC   C1A54423  25.558  36.724   6.231
 4175POPC   D2A54424  25.363  36.948   6.589
 4175POPC   C3A54425  25.497  36.914   7.011
 4175POPC   C4A54426  25.216  36.835   7.360
 4175POPC   C1B54427  25.165  37.320   6.247
 4175POPC   C2B54428  25.182  37.441   6.679
 4175POPC   C3B54429  25.097  37.240   7.072
 4175POPC   C4B54430  25.467  37.281   7.381
 4176POPC   NC354431  22.553  26.387   5.518
 4176POPC   PO454432  22.635  25.723   5.344
 4176POPC   GL154433  22.883  25.937   5.694
 4176POPC   GL254434  23.189  25.802   5.802
 4176POPC   C1A54435  22.938  26.162   6.120
 4176POPC   D2A54436  22.815  26.298   6.559
 4176POPC   C3A54437  22.927  26.114   6.960
 4176POPC   C4A54438  22.689  26.201   7.330
 4176POPC   C1B54439  23.054  25.660   6.196
 4176POPC   C2B54440  23.129  25.758   6.616
 4176POPC   C3B54441  23.231  25.733   7.049
 4176POPC   C4B54442  23.157  25.933   7.459
 4177POPC   NC354443  11.978   8.820   5.452
 4177POPC   PO454444  12.246   9.400   5.399
 4177POPC   GL154445  12.128   9.148   5.791
 4177POPC   GL254446  11.773   9.179   5.839
 4177POPC   C1A54447  12.121   8.973   6.223
 4177POPC   D2A54448  12.401   9.143   6.563
 4177POPC   C3A54449  12.268   9.074   6.998
 4177POPC   C4A54450  12.151   8.678   7.177
 4177POPC   C1B54451  11.595   9.081   6.246
 4177POPC   C2B54452  11.648   8.849   6.645
 4177POPC   C3B54453  11.739   8.975   7.081
 4177POPC   C4B54454  11.852   8.938   7.527
 4178POPC   NC354455  14.165  40.209   5.661
 4178POPC   PO454456  14.277  39.673   5.267
 4178POPC   GL154457  14.553  39.716   5.785
 4178POPC   GL254458  14.564  40.084   5.935
 4178POPC   C1A54459  14.635  39.759   6.290
 4178POPC   D2A54460  14.694  40.133   6.593
 4178POPC   C3A54461  14.415  40.034   6.963
 4178POPC   C4A54462  14.057  39.714   7.065
 4178POPC   C1B54463  14.235  40.105   6.311
 4178POPC   C2B54464  14.020  40.297   6.679
 4178POPC   C3B54465  14.080  40.395   7.099
 4178POPC   C4B54466  14.461  40.422   7.308
 4179POPC   NC354467  38.794  20.706   5.373
 4179POPC   PO454468  38.209  20.755   5.071
 4179POPC   GL154469  38.297  20.821   5.611
 4179POPC   GL254470  38.426  20.527   5.781
 4179POPC   C1A54471  38.323  20.809   6.164
 4179POPC   D2A54472  38.555  20.444   6.453
 4179POPC   C3A54473  38.755  20.501   6.886
 4179POPC   C4A54474  38.555  20.853   7.090
 4179POPC   C1B54475  38.186  20.301   6.119
 4179POPC   C2B54476  38.052  20.481   6.515
 4179POPC   C3B54477  38.249  20.448   6.906
 4179POPC   C4B54478  38.321  20.248   7.298
 4180POPC   NC354479  27.512  11.495   5.414
 4180POPC   PO454480  27.657  10.879   5.241
 4180POPC   GL154481  27.652  11.084   5.704
 4180POPC   GL254482  27.784  11.411   5.844
 4180POPC   C1A54483  27.580  11.018   6.177
 4180POPC   D2A54484  27.759  11.195   6.596
 4180POPC   C3A54485  27.460  11.271   6.958
 4180POPC   C4A54486  27.387  11.312   7.409
 4180POPC   C1B54487  27.585  11.534   6.234
 4180POPC   C2B54488  27.747  11.721   6.608
 4180POPC   C3B54489  27.697  11.722   7.042
 4180POPC   C4B54490  27.860  11.429   7.319
 4181POPC   NC354491  39.418  13.411   5.511
 4181POPC   PO454492  38.825  13.873   5.574
 4181POPC   GL154493  39.028  13.600   5.846
 4181POPC   GL254494  39.301  13.790   5.842
 4181POPC   C1A54495  39.172  13.413   6.226
 4181POPC   D2A54496  39.367  13.325   6.612
 4181POPC   C3A54497  39.156  13.420   6.982
 4181POPC   C4A54498  39.210  13.288   7.397
 4181POPC   C1B54499  39.194  14.005   6.195
 4181POPC   C2B54500  39.257  13.828   6.572
 4181POPC   C3B54501  39.570  13.729   6.858
 4181POPC   C4B54502  39.438  13.762   7.259
 4182POPC   NC354503  39.956  19.719   5.545
 4182POPC   PO454504  40.412  20.159   5.394
 4182POPC   GL154505  40.226  20.094   5.808
 4182POPC   GL254506  39.836  20.103   5.875
 4182POPC   C1A54507  40.182  19.958   6.215
 4182POPC   D2A54508  40.211  20.101   6.596
 4182POPC   C3A54509  40.178  19.935   7.019
 4182POPC   C4A54510  40.405  19.654   7.316
 4182POPC   C1B54511  39.736  19.716   6.163
 4182POPC   C2B54512  39.917  19.666   6.579
 4182POPC   C3B54513  39.731  19.674   6.972
 4182POPC   C4B54514  39.816  19.851   7.365
 4183POPC   NC354515  21.322  13.477   5.053
 4183POPC   PO454516  21.683  13.902   5.365
 4183POPC   GL154517  21.815  13.839   5.808
 4183POPC   GL254518  21.598  14.074   5.946
 4183POPC   C1A54519  21.666  13.557   6.190
 4183POPC   D2A54520  21.291  13.523   6.495
 4183POPC   C3A54521  21.271  13.359   6.927
 4183POPC   C4A54522  21.360  13.359   7.347
 4183POPC   C1B54523  21.550  14.003   6.395
 4183POPC   C2B54524  21.598  13.860   6.817
 4183POPC   C3B54525  21.324  13.837   7.180
 4183POPC   C4B54526  21.044  13.785   7.559
 4184POPC   NC354527  30.265   7.750   5.234
 4184POPC   PO454528  29.699   7.326   5.467
 4184POPC   GL154529  29.914   7.314   5.843
 4184POPC   GL254530  29.957   7.671   5.872
 4184POPC   C1A54531  29.849   7.272   6.281
 4184POPC   D2A54532  29.605   7.231   6.666
 4184POPC   C3A54533  29.903   7.204   7.033
 4184POPC   C4A54534  29.892   7.335   7.496
 4184POPC   C1B54535  30.126   7.752   6.288
 4184POPC   C2B54536  29.995   7.576   6.677
 4184POPC   C3B54537  29.590   7.660   6.920
 4184POPC   C4B54538  29.480   7.620   7.365
 4185POPC   NC354539   9.287  34.322   5.542
 4185POPC   PO454540   8.673  34.726   5.334
 4185POPC   GL154541   8.873  34.574   5.733
 4185POPC   GL254542   8.681  34.297   5.858
 4185POPC   C1A54543   9.125  34.538   6.171
 4185POPC   D2A54544   9.290  34.738   6.584
 4185POPC   C3A54545   9.107  34.604   6.994
 4185POPC   C4A54546   9.275  34.612   7.412
 4185POPC   C1B54547   8.609  34.608   6.194
 4185POPC   C2B54548   8.766  34.655   6.616
 4185POPC   C3B54549   8.583  34.608   7.041
 4185POPC   C4B54550   8.797  34.906   7.339
 4186POPC   NC354551  27.000  34.225   5.648
 4186POPC   PO454552  26.945  34.659   5.156
 4186POPC   GL154553  26.726  34.657   5.667
 4186POPC   GL254554  26.563  34.363   5.868
 4186POPC   C1A54555  26.707  34.823   6.112
 4186POPC   D2A54556  27.057  34.811   6.460
 4186POPC   C3A54557  27.077  34.618   6.891
 4186POPC   C4A54558  26.968  34.871   7.239
 4186POPC   C1B54559  26.692  34.356   6.304
 4186POPC   C2B54560  26.601  34.641   6.636
 4186POPC   C3B54561  26.561  34.619   7.045
 4186POPC   C4B54562  26.743  34.273   7.194
 4187POPC   NC354563  39.777  33.405   5.570
 4187POPC   PO454564  40.174  32.926   5.511
 4187POPC   GL154565  39.965  32.886   5.875
 4187POPC   GL254566  39.772  32.574   5.839
 4187POPC   C1A54567  40.187  32.975   6.277
 4187POPC   D2A54568  40.395  33.228   6.580
 4187POPC   C3A54569  40.073  33.302   6.877
 4187POPC   C4A54570  40.019  33.022   7.199
 4187POPC   C1B54571  39.792  32.670   6.294
 4187POPC   C2B54572  39.871  32.840   6.719
 4187POPC   C3B54573  39.640  32.685   7.114
 4187POPC   C4B54574  39.628  32.813   7.570
 4188POPC   NC354575  13.210  20.130   5.648
 4188POPC   PO454576  13.531  19.617   5.331
 4188POPC   GL154577  13.595  19.793   5.711
 4188POPC   GL254578  13.302  19.624   5.796
 4188POPC   C1A54579  13.739  19.958   6.116
 4188POPC   D2A54580  13.830  19.759   6.521
 4188POPC   C3A54581  13.654  19.854   6.926
 4188POPC   C4A54582  13.914  19.793   7.265
 4188POPC   C1B54583  13.306  19.713   6.222
 4188POPC   C2B54584  13.359  19.536   6.638
 4188POPC   C3B54585  13.181  19.649   7.022
 4188POPC   C4B54586  13.336  19.774   7.381
 4189POPC   NC354587  15.853  30.236   5.677
 4189POPC   PO454588  15.823  30.849   5.440
 4189POPC   GL154589  15.948  30.923   5.834
 4189POPC   GL254590  16.182  30.633   5.853
 4189POPC   C1A54591  15.788  30.814   6.240
 4189POPC   D2A54592  15.632  30.619   6.607
 4189POPC   C3A54593  15.749  30.811   6.998
 4189POPC   C4A54594  15.960  30.507   7.217
 4189POPC   C1B54595  16.298  30.888   6.216
 4189POPC   C2B54596  16.147  30.884   6.663
 4189POPC   C3B54597  16.285  30.892   7.127
 4189POPC   C4B54598  16.312  30.655   7.539
 4190POPC   NC354599  32.605   0.437   5.324
 4190POPC   PO454600  31.987   0.592   5.405
 4190POPC   GL154601  32.084   0.410   5.785
 4190POPC   GL254602  32.403   0.281   5.788
 4190POPC   C1A54603  32.153   0.547   6.208
 4190POPC   D2A54604  32.297   0.468   6.644
 4190POPC   C3A54605  32.010   0.536   7.017
 4190POPC   C4A54606  32.156   0.564   7.470
 4190POPC   C1B54607  32.541   0.174   6.228
 4190POPC   C2B54608  32.429  44.985   6.660
 4190POPC   C3B54609  32.370   0.166   7.088
 4190POPC   C4B54610  32.439   0.147   7.523
 4191POPC   NC354611  20.040  42.702   5.416
 4191POPC   PO454612  19.919  42.105   5.352
 4191POPC   GL154613  19.837  42.330   5.741
 4191POPC   GL254614  20.145  42.487   5.890
 4191POPC   C1A54615  19.688  42.463   6.163
 4191POPC   D2A54616  19.834  42.508   6.596
 4191POPC   C3A54617  19.587  42.244   6.861
 4191POPC   C4A54618  19.443  42.159   7.266
 4191POPC   C1B54619  20.064  42.816   6.211
 4191POPC   C2B54620  19.925  43.016   6.606
 4191POPC   C3B54621  19.904  42.830   7.004
 4191POPC   C4B54622  19.983  42.439   7.144
 4192POPC   NC354623  35.253  22.737   5.224
 4192POPC   PO454624  35.692  22.994   5.579
 4192POPC   GL154625  35.441  22.960   5.862
 4192POPC   GL254626  35.140  22.835   5.729
 4192POPC   C1A54627  35.574  22.973   6.261
 4192POPC   D2A54628  35.511  22.784   6.650
 4192POPC   C3A54629  35.623  23.057   6.971
 4192POPC   C4A54630  35.584  22.889   7.380
 4192POPC   C1B54631  35.043  22.960   6.170
 4192POPC   C2B54632  34.983  22.838   6.581
 4192POPC   C3B54633  35.126  22.937   6.979
 4192POPC   C4B54634  35.082  22.866   7.379
 4193POPC   NC354635  43.250  36.651   5.324
 4193POPC   PO454636  42.828  37.173   5.273
 4193POPC   GL154637  42.994  37.165   5.725
 4193POPC   GL254638  43.288  36.965   5.748
 4193POPC   C1A54639  43.086  37.097   6.200
 4193POPC   D2A54640  42.875  36.918   6.594
 4193POPC   C3A54641  42.914  37.034   7.045
 4193POPC   C4A54642  43.125  36.837   7.426
 4193POPC   C1B54643  43.520  36.823   6.120
 4193POPC   C2B54644  43.378  36.832   6.520
 4193POPC   C3B54645  43.267  36.700   6.879
 4193POPC   C4B54646  43.561  36.794   7.144
 4194POPC   NC354647   9.235   4.504   5.418
 4194POPC   PO454648   8.685   4.796   5.767
 4194POPC   GL154649   8.947   4.416   5.884
 4194POPC   GL254650   9.258   4.218   5.835
 4194POPC   C1A54651   8.973   4.132   6.265
 4194POPC   D2A54652   8.766   4.051   6.674
 4194POPC   C3A54653   8.772   4.290   7.078
 4194POPC   C4A54654   8.941   4.012   7.383
 4194POPC   C1B54655   9.485   4.213   6.239
 4194POPC   C2B54656   9.503   4.302   6.636
 4194POPC   C3B54657   9.255   4.151   6.948
 4194POPC   C4B54658   9.251   4.394   7.303
 4195POPC   NC354659   4.378   7.037   5.488
 4195POPC   PO454660   3.898   6.672   5.206
 4195POPC   GL154661   4.084   6.716   5.725
 4195POPC   GL254662   4.354   6.487   5.815
 4195POPC   C1A54663   4.005   6.523   6.207
 4195POPC   D2A54664   4.109   6.702   6.630
 4195POPC   C3A54665   4.177   6.485   7.035
 4195POPC   C4A54666   4.082   6.769   7.353
 4195POPC   C1B54667   4.412   6.799   6.185
 4195POPC   C2B54668   4.647   6.769   6.608
 4195POPC   C3B54669   4.674   6.622   7.007
 4195POPC   C4B54670   4.618   6.700   7.389
 4196POPC   NC354671  13.144   5.607   5.345
 4196POPC   PO454672  12.838   6.117   5.086
 4196POPC   GL154673  12.758   5.946   5.548
 4196POPC   GL254674  12.726   5.628   5.652
 4196POPC   C1A54675  12.625   6.019   5.990
 4196POPC   D2A54676  12.643   5.894   6.433
 4196POPC   C3A54677  12.781   6.159   6.767
 4196POPC   C4A54678  12.715   6.043   7.197
 4196POPC   C1B54679  12.802   5.536   6.106
 4196POPC   C2B54680  13.029   5.547   6.515
 4196POPC   C3B54681  13.074   5.763   6.929
 4196POPC   C4B54682  13.281   5.859   7.351
 4197POPC   NC354683  20.427   8.925   5.394
 4197POPC   PO454684  21.052   9.019   5.566
 4197POPC   GL154685  20.687   9.131   5.788
 4197POPC   GL254686  20.872   9.334   5.969
 4197POPC   C1A54687  20.479   9.050   6.197
 4197POPC   D2A54688  20.415   8.765   6.545
 4197POPC   C3A54689  20.494   8.969   6.918
 4197POPC   C4A54690  20.549   9.318   7.200
 4197POPC   C1B54691  20.962   9.119   6.328
 4197POPC   C2B54692  20.937   9.138   6.764
 4197POPC   C3B54693  21.082   9.173   7.171
 4197POPC   C4B54694  21.046   9.089   7.627
 4198POPC   NC354695  17.129  28.376   5.267
 4198POPC   PO454696  16.538  28.534   5.372
 4198POPC   GL154697  16.570  28.406   5.853
 4198POPC   GL254698  16.816  28.150   5.948
 4198POPC   C1A54699  16.429  28.284   6.290
 4198POPC   D2A54700  16.763  28.156   6.588
 4198POPC   C3A54701  16.856  28.410   7.002
 4198POPC   C4A54702  17.104  28.405   7.415
 4198POPC   C1B54703  16.588  27.805   6.156
 4198POPC   C2B54704  16.448  27.731   6.577
 4198POPC   C3B54705  16.461  27.981   6.961
 4198POPC   C4B54706  16.387  28.336   7.241
 4199POPC   NC354707  18.216  22.507   5.153
 4199POPC   PO454708  18.180  23.129   5.439
 4199POPC   GL154709  18.168  23.126   5.897
 4199POPC   GL254710  18.504  23.008   6.067
 4199POPC   C1A54711  18.072  23.049   6.336
 4199POPC   D2A54712  18.360  22.843   6.597
 4199POPC   C3A54713  18.321  23.029   6.986
 4199POPC   C4A54714  18.139  22.979   7.361
 4199POPC   C1B54715  18.759  22.658   6.264
 4199POPC   C2B54716  18.700  22.443   6.674
 4199POPC   C3B54717  18.535  22.567   7.096
 4199POPC   C4B54718  18.573  22.776   7.517
 4200POPC   NC354719  12.057  29.235   5.078
 4200POPC   PO454720  12.204  29.030   5.685
 4200POPC   GL154721  12.268  29.338   5.969
 4200POPC   GL254722  11.930  29.424   5.904
 4200POPC   C1A54723  12.117  29.325   6.382
 4200POPC   D2A54724  11.894  29.022   6.627
 4200POPC   C3A54725  12.087  29.010   7.011
 4200POPC   C4A54726  12.345  29.173   7.338
 4200POPC   C1B54727  11.630  29.229   6.198
 4200POPC   C2B54728  11.491  29.356   6.598
 4200POPC   C3B54729  11.720  29.405   6.965
 4200POPC   C4B54730  11.668  29.317   7.406
 4201POPC   NC354731  38.981  28.448   5.252
 4201POPC   PO454732  39.511  28.068   5.241
 4201POPC   GL154733  39.445  28.259   5.672
 4201POPC   GL254734  39.198  28.560   5.734
 4201POPC   C1A54735  39.418  28.320   6.124
 4201POPC   D2A54736  39.468  28.526   6.497
 4201POPC   C3A54737  39.462  28.313   6.900
 4201POPC   C4A54738  39.262  28.444   7.287
 4201POPC   C1B54739  39.029  28.633   6.188
 4201POPC   C2B54740  38.983  28.334   6.473
 4201POPC   C3B54741  38.942  28.344   6.885
 4201POPC   C4B54742  38.705  28.602   7.099
 4202POPC   NC354743  13.828  26.443   5.194
 4202POPC   PO454744  13.686  25.849   5.384
 4202POPC   GL154745  13.723  26.000   5.829
 4202POPC   GL254746  13.637  26.355   5.802
 4202POPC   C1A54747  13.692  25.824   6.283
 4202POPC   D2A54748  13.384  25.843   6.660
 4202POPC   C3A54749  13.466  25.943   7.127
 4202POPC   C4A54750  13.409  25.730   7.517
 4202POPC   C1B54751  13.874  26.308   6.232
 4202POPC   C2B54752  13.690  26.389   6.672
 4202POPC   C3B54753  13.477  26.465   7.113
 4202POPC   C4B54754  13.622  26.295   7.547
 4203POPC   NC354755   3.811   3.847   5.358
 4203POPC   PO454756   3.108   3.681   5.282
 4203POPC   GL154757   3.263   3.656   5.786
 4203POPC   GL254758   3.609   3.768   5.930
 4203POPC   C1A54759   3.317   3.478   6.217
 4203POPC   D2A54760   3.204   3.269   6.602
 4203POPC   C3A54761   3.367   3.479   6.945
 4203POPC   C4A54762   3.359   3.695   7.349
 4203POPC   C1B54763   3.304   3.998   6.225
 4203POPC   C2B54764   3.420   4.032   6.673
 4203POPC   C3B54765   3.689   3.869   7.022
 4203POPC   C4B54766   3.726   4.074   7.459
 4204POPC   NC354767  34.326  10.182   5.012
 4204POPC   PO454768  34.152  10.695   5.450
 4204POPC   GL154769  34.413  10.490   5.789
 4204POPC   GL254770  34.267  10.735   5.977
 4204POPC   C1A54771  34.663  10.433   6.224
 4204POPC   D2A54772  34.738  10.334   6.699
 4204POPC   C3A54773  34.759  10.353   7.174
 4204POPC   C4A54774  34.861  10.768   7.313
 4204POPC   C1B54775  34.192  10.845   6.369
 4204POPC   C2B54776  34.484  10.892   6.662
 4204POPC   C3B54777  34.440  10.719   7.023
 4204POPC   C4B54778  34.133  10.505   7.200
 4205POPC   NC354779  43.725   0.424   5.442
 4205POPC   PO454780  44.369   0.206   5.410
 4205POPC   GL154781  44.132   0.182   5.770
 4205POPC   GL254782  44.008   0.526   5.839
 4205POPC   C1A54783  44.236   0.281   6.205
 4205POPC   D2A54784  43.976   0.564   6.468
 4205POPC   C3A54785  44.123   0.599   6.900
 4205POPC   C4A54786  44.109   0.511   7.337
 4205POPC   C1B54787  43.606   0.570   6.076
 4205POPC   C2B54788  43.425   0.528   6.481
 4205POPC   C3B54789  43.625   0.457   6.884
 4205POPC   C4B54790  43.637   0.677   7.266
 4206POPC   NC354791  16.268  33.604   5.330
 4206POPC   PO454792  16.070  34.263   5.423
 4206POPC   GL154793  16.170  33.983   5.765
 4206POPC   GL254794  15.977  33.711   5.754
 4206POPC   C1A54795  16.275  33.812   6.196
 4206POPC   D2A54796  16.080  33.696   6.595
 4206POPC   C3A54797  16.280  33.826   6.943
 4206POPC   C4A54798  16.061  33.850   7.250
 4206POPC   C1B54799  15.791  33.944   6.136
 4206POPC   C2B54800  15.707  34.049   6.555
 4206POPC   C3B54801  15.670  33.813   6.933
 4206POPC   C4B54802  15.554  33.873   7.370
 4207POPC   NC354803  14.945  41.493   5.368
 4207POPC   PO454804  14.328  41.297   5.288
 4207POPC   GL154805  14.511  41.433   5.731
 4207POPC   GL254806  14.817  41.633   5.860
 4207POPC   C1A54807  14.424  41.329   6.196
 4207POPC   D2A54808  14.149  41.319   6.589
 4207POPC   C3A54809  14.291  41.358   7.011
 4207POPC   C4A54810  14.068  41.522   7.370
 4207POPC   C1B54811  14.693  41.754   6.327
 4207POPC   C2B54812  14.378  41.784   6.676
 4207POPC   C3B54813  14.424  41.851   7.162
 4207POPC   C4B54814  14.762  41.866   7.504
 4208POPC   NC354815  13.604  30.475   5.404
 4208POPC   PO454816  13.900  31.073   5.234
 4208POPC   GL154817  13.791  30.964   5.692
 4208POPC   GL254818  13.491  30.787   5.780
 4208POPC   C1A54819  13.853  30.867   6.150
 4208POPC   D2A54820  13.532  30.705   6.462
 4208POPC   C3A54821  13.611  30.518   6.855
 4208POPC   C4A54822  13.839  30.601   7.217
 4208POPC   C1B54823  13.408  31.070   6.089
 4208POPC   C2B54824  13.309  31.152   6.575
 4208POPC   C3B54825  13.342  30.920   7.007
 4208POPC   C4B54826  13.584  30.950   7.459
 4209POPC   NC354827  42.714  10.539   5.525
 4209POPC   PO454828  42.118  10.325   5.608
 4209POPC   GL154829  42.276  10.635   5.883
 4209POPC   GL254830  42.636  10.646   5.994
 4209POPC   C1A54831  42.270  10.704   6.314
 4209POPC   D2A54832  42.314  10.964   6.641
 4209POPC   C3A54833  42.325  10.780   7.075
 4209POPC   C4A54834  42.080  10.489   7.331
 4209POPC   C1B54835  42.618  10.319   6.301
 4209POPC   C2B54836  42.563  10.481   6.713
 4209POPC   C3B54837  42.629  10.357   7.120
 4209POPC   C4B54838  42.564  10.543   7.506
 4210POPC   NC354839   1.194   2.982   5.389
 4210POPC   PO454840   1.322   2.314   5.362
 4210POPC   GL154841   1.227   2.573   5.745
 4210POPC   GL254842   1.444   2.862   5.828
 4210POPC   C1A54843   1.273   2.508   6.194
 4210POPC   D2A54844   1.226   2.746   6.570
 4210POPC   C3A54845   1.266   2.658   6.990
 4210POPC   C4A54846   1.669   2.737   7.126
 4210POPC   C1B54847   1.135   3.001   6.113
 4210POPC   C2B54848   1.119   3.237   6.491
 4210POPC   C3B54849   0.975   3.103   6.884
 4210POPC   C4B54850   0.761   2.846   7.150
 4211POPC   NC354851   8.043   9.447   5.566
 4211POPC   PO454852   8.395   8.787   5.436
 4211POPC   GL154853   8.169   8.970   5.776
 4211POPC   GL254854   8.234   8.697   5.974
 4211POPC   C1A54855   7.973   9.108   6.200
 4211POPC   D2A54856   7.805   9.049   6.633
 4211POPC   C3A54857   8.013   9.210   6.997
 4211POPC   C4A54858   8.275   9.189   7.383
 4211POPC   C1B54859   7.955   8.573   6.298
 4211POPC   C2B54860   8.031   8.581   6.725
 4211POPC   C3B54861   7.938   8.709   7.107
 4211POPC   C4B54862   8.057   8.758   7.543
 4212POPC   NC354863   3.798  37.252   5.558
 4212POPC   PO454864   3.310  37.733   5.365
 4212POPC   GL154865   3.328  37.577   5.804
 4212POPC   GL254866   3.642  37.430   5.994
 4212POPC   C1A54867   3.379  37.803   6.187
 4212POPC   D2A54868   3.638  37.795   6.521
 4212POPC   C3A54869   3.473  37.665   6.862
 4212POPC   C4A54870   3.540  37.678   7.249
 4212POPC   C1B54871   4.026  37.253   6.174
 4212POPC   C2B54872   4.115  37.095   6.554
 4212POPC   C3B54873   3.972  37.337   6.870
 4212POPC   C4B54874   3.925  37.331   7.249
 4213POPC   NC354875  43.858   4.034   5.203
 4213POPC   PO454876  44.010   4.736   5.323
 4213POPC   GL154877  43.946   4.463   5.709
 4213POPC   GL254878  43.998   4.109   5.683
 4213POPC   C1A54879  43.745   4.359   6.099
 4213POPC   D2A54880  43.612   4.148   6.458
 4213POPC   C3A54881  43.745   4.166   6.872
 4213POPC   C4A54882  43.622   4.125   7.309
 4213POPC   C1B54883  44.186   4.105   6.081
 4213POPC   C2B54884  44.111   4.228   6.476
 4213POPC   C3B54885  44.214   4.392   6.860
 4213POPC   C4B54886  44.139   4.203   7.264
 4214POPC   NC354887  40.298  26.906   5.211
 4214POPC   PO454888  39.791  26.594   5.436
 4214POPC   GL154889  39.981  26.858   5.785
 4214POPC   GL254890  39.899  27.150   5.919
 4214POPC   C1A54891  40.133  26.845   6.258
 4214POPC   D2A54892  40.155  26.645   6.692
 4214POPC   C3A54893  39.953  26.817   7.074
 4214POPC   C4A54894  40.092  26.866   7.524
 4214POPC   C1B54895  39.638  27.014   6.233
 4214POPC   C2B54896  39.762  27.047   6.654
 4214POPC   C3B54897  39.589  27.200   7.043
 4214POPC   C4B54898  39.648  27.162   7.495
 4215POPC   NC354899  30.571   9.971   5.476
 4215POPC   PO454900  31.161   9.596   5.322
 4215POPC   GL154901  30.899   9.653   5.730
 4215POPC   GL254902  30.561   9.467   5.816
 4215POPC   C1A54903  30.900   9.654   6.184
 4215POPC   D2A54904  30.737   9.726   6.595
 4215POPC   C3A54905  31.038   9.616   6.901
 4215POPC   C4A54906  30.942   9.637   7.309
 4215POPC   C1B54907  30.388   9.721   6.195
 4215POPC   C2B54908  30.239   9.845   6.642
 4215POPC   C3B54909  30.453   9.720   7.039
 4215POPC   C4B54910  30.469   9.475   7.413
 4216POPC   NC354911   3.925  20.122   5.522
 4216POPC   PO454912   4.500  19.744   5.421
 4216POPC   GL154913   4.519  19.728   5.860
 4216POPC   GL254914   4.167  19.796   5.903
 4216POPC   C1A54915   4.467  19.837   6.330
 4216POPC   D2A54916   4.154  19.766   6.677
 4216POPC   C3A54917   4.269  19.813   7.111
 4216POPC   C4A54918   4.265  20.055   7.527
 4216POPC   C1B54919   3.978  19.499   6.197
 4216POPC   C2B54920   4.083  19.229   6.519
 4216POPC   C3B54921   4.068  19.324   6.928
 4216POPC   C4B54922   3.808  19.596   7.099
 4217POPC   NC354923  15.749  14.136   5.503
 4217POPC   PO454924  16.241  14.394   5.528
 4217POPC   GL154925  16.075  14.497   5.944
 4217POPC   GL254926  15.719  14.496   5.903
 4217POPC   C1A54927  15.950  14.623   6.381
 4217POPC   D2A54928  15.676  14.511   6.738
 4217POPC   C3A54929  15.875  14.504   7.156
 4217POPC   C4A54930  16.191  14.749   7.403
 4217POPC   C1B54931  15.702  14.185   6.245
 4217POPC   C2B54932  15.554  14.014   6.656
 4217POPC   C3B54933  15.529  14.130   7.087
 4217POPC   C4B54934  15.716  14.120   7.506
 4218POPC   NC354935  25.196  44.928   5.494
 4218POPC   PO454936  25.475   0.577   5.270
 4218POPC   GL154937  25.474   0.354   5.683
 4218POPC   GL254938  25.098   0.328   5.804
 4218POPC   C1A54939  25.476   0.396   6.152
 4218POPC   D2A54940  25.139   0.530   6.438
 4218POPC   C3A54941  25.185   0.354   6.841
 4218POPC   C4A54942  25.354   0.606   7.155
 4218POPC   C1B54943  25.011   0.090   6.185
 4218POPC   C2B54944  24.775   0.165   6.583
 4218POPC   C3B54945  24.837   0.018   7.031
 4218POPC   C4B54946  25.159   0.161   7.358
 4219POPC   NC354947  42.354  24.281   5.063
 4219POPC   PO454948  42.121  23.741   5.403
 4219POPC   GL154949  42.295  23.805   5.835
 4219POPC   GL254950  42.578  24.048   5.868
 4219POPC   C1A54951  42.086  23.846   6.234
 4219POPC   D2A54952  42.090  23.606   6.625
 4219POPC   C3A54953  42.211  23.723   7.047
 4219POPC   C4A54954  42.186  23.742   7.493
 4219POPC   C1B54955  42.607  23.887   6.328
 4219POPC   C2B54956  42.605  23.608   6.722
 4219POPC   C3B54957  42.769  23.612   7.162
 4219POPC   C4B54958  42.646  23.597   7.636
 4220POPC   NC354959   6.882  38.550   5.419
 4220POPC   PO454960   6.254  38.415   5.480
 4220POPC   GL154961   6.470  38.255   5.852
 4220POPC   GL254962   6.832  38.182   5.792
 4220POPC   C1A54963   6.549  38.375   6.296
 4220POPC   D2A54964   6.563  38.232   6.716
 4220POPC   C3A54965   6.542  38.506   7.082
 4220POPC   C4A54966   6.663  38.872   7.332
 4220POPC   C1B54967   6.972  38.099   6.207
 4220POPC   C2B54968   7.026  37.962   6.640
 4220POPC   C3B54969   6.931  38.140   7.058
 4220POPC   C4B54970   7.015  38.054   7.482
 4221POPC   NC354971  36.560  29.888   5.477
 4221POPC   PO454972  35.885  30.085   5.409
 4221POPC   GL154973  36.216  30.111   5.797
 4221POPC   GL254974  36.429  29.850   5.954
 4221POPC   C1A54975  36.176  30.132   6.283
 4221POPC   D2A54976  36.085  30.372   6.677
 4221POPC   C3A54977  36.015  30.157   7.071
 4221POPC   C4A54978  35.715  29.874   7.270
 4221POPC   C1B54979  36.485  29.712   6.369
 4221POPC   C2B54980  36.325  29.897   6.734
 4221POPC   C3B54981  36.255  29.715   7.168
 4221POPC   C4B54982  36.262  29.431   7.569
 4222POPC   NC354983  39.017  34.198   5.452
 4222POPC   PO454984  39.437  33.713   5.462
 4222POPC   GL154985  39.314  33.562   5.814
 4222POPC   GL254986  39.054  33.763   5.859
 4222POPC   C1A54987  39.432  33.571   6.201
 4222POPC   D2A54988  39.265  33.825   6.476
 4222POPC   C3A54989  39.317  33.665   6.875
 4222POPC   C4A54990  39.290  33.561   7.263
 4222POPC   C1B54991  39.129  34.149   6.094
 4222POPC   C2B54992  39.165  34.329   6.513
 4222POPC   C3B54993  39.109  34.143   6.902
 4222POPC   C4B54994  39.372  34.092   7.241
 4223POPC   NC354995  34.045  41.179   5.371
 4223POPC   PO454996  33.786  40.574   5.480
 4223POPC   GL154997  33.810  40.907   5.779
 4223POPC   GL254998  33.543  41.155   5.677
 4223POPC   C1A54999  34.048  40.784   6.148
 4223POPC   D2A55000  34.009  40.624   6.573
 4223POPC   C3A55001  34.143  40.927   6.869
 4223POPC   C4A55002  33.978  40.906   7.286
 4223POPC   C1B55003  33.403  41.095   6.096
 4223POPC   C2B55004  33.603  40.883   6.389
 4223POPC   C3B55005  33.624  40.960   6.826
 4223POPC   C4B55006  33.387  40.916   7.210
 4224POPC   NC355007  27.070   5.128   5.384
 4224POPC   PO455008  26.512   4.806   5.614
 4224POPC   GL155009  26.770   4.967   5.927
 4224POPC   GL255010  26.869   5.284   5.983
 4224POPC   C1A55011  26.796   4.879   6.349
 4224POPC   D2A55012  26.886   5.063   6.733
 4224POPC   C3A55013  26.657   4.900   7.070
 4224POPC   C4A55014  26.657   5.025   7.549
 4224POPC   C1B55015  27.076   5.490   6.346
 4224POPC   C2B55016  27.023   5.559   6.790
 4224POPC   C3B55017  26.861   5.359   7.170
 4224POPC   C4B55018  27.064   5.342   7.571
 4225POPC   NC355019  15.277  36.279   5.382
 4225POPC   PO455020  14.716  36.029   5.667
 4225POPC   GL155021  15.105  36.091   5.822
 4225POPC   GL255022  15.344  35.854   5.664
 4225POPC   C1A55023  15.357  36.384   6.065
 4225POPC   D2A55024  15.451  36.541   6.490
 4225POPC   C3A55025  15.256  36.271   6.787
 4225POPC   C4A55026  14.928  36.317   7.079
 4225POPC   C1B55027  15.330  35.721   6.079
 4225POPC   C2B55028  15.421  35.880   6.474
 4225POPC   C3B55029  15.394  35.779   6.908
 4225POPC   C4B55030  15.329  36.019   7.221
 4226POPC   NC355031  39.649  17.414   5.140
 4226POPC   PO455032  39.366  17.849   5.631
 4226POPC   GL155033  39.339  17.707   6.005
 4226POPC   GL255034  39.151  17.400   5.964
 4226POPC   C1A55035  39.359  17.763   6.421
 4226POPC   D2A55036  39.126  17.555   6.740
 4226POPC   C3A55037  39.264  17.719   7.106
 4226POPC   C4A55038  39.156  17.742   7.494
 4226POPC   C1B55039  39.475  17.264   6.262
 4226POPC   C2B55040  39.600  17.344   6.645
 4226POPC   C3B55041  39.441  17.243   7.019
 4226POPC   C4B55042  39.570  17.374   7.399
 4227POPC   NC355043  32.105  17.840   5.529
 4227POPC   PO455044  32.498  17.266   5.418
 4227POPC   GL155045  32.180  17.367   5.729
 4227POPC   GL255046  31.916  17.100   5.788
 4227POPC   C1A55047  32.325  17.634   6.101
 4227POPC   D2A55048  32.593  17.708   6.464
 4227POPC   C3A55049  32.381  17.804   6.842
 4227POPC   C4A55050  32.149  17.729   7.196
 4227POPC   C1B55051  32.157  17.142   6.187
 4227POPC   C2B55052  32.188  17.400   6.547
 4227POPC   C3B55053  32.144  17.296   6.963
 4227POPC   C4B55054  31.975  17.210   7.391
 4228POPC   NC355055  11.494  23.524   5.655
 4228POPC   PO455056  11.085  23.999   5.507
 4228POPC   GL155057  11.145  23.839   5.868
 4228POPC   GL255058  11.028  23.502   5.871
 4228POPC   C1A55059  11.214  23.792   6.291
 4228POPC   D2A55060  11.399  23.678   6.647
 4228POPC   C3A55061  11.144  23.623   7.019
 4228POPC   C4A55062  11.053  23.946   7.356
 4228POPC   C1B55063  11.181  23.237   6.215
 4228POPC   C2B55064  11.287  23.176   6.657
 4228POPC   C3B55065  11.601  23.326   6.960
 4228POPC   C4B55066  11.658  23.169   7.354
 4229POPC   NC355067  40.848  29.889   5.469
 4229POPC   PO455068  40.305  29.588   5.727
 4229POPC   GL155069  40.677  29.748   5.915
 4229POPC   GL255070  40.824  30.127   5.921
 4229POPC   C1A55071  40.976  29.662   6.167
 4229POPC   D2A55072  41.063  29.685   6.591
 4229POPC   C3A55073  40.746  29.901   6.822
 4229POPC   C4A55074  40.834  29.850   7.222
 4229POPC   C1B55075  41.018  30.170   6.356
 4229POPC   C2B55076  41.067  30.296   6.806
 4229POPC   C3B55077  41.078  30.296   7.275
 4229POPC   C4B55078  41.239  30.231   7.717
 4230POPC   NC355079  38.359  14.035   5.575
 4230POPC   PO455080  38.226  13.451   5.190
 4230POPC   GL155081  38.100  13.610   5.656
 4230POPC   GL255082  38.432  13.630   5.856
 4230POPC   C1A55083  38.010  13.645   6.131
 4230POPC   D2A55084  38.226  13.548   6.534
 4230POPC   C3A55085  38.217  13.849   6.873
 4230POPC   C4A55086  38.013  13.824   7.281
 4230POPC   C1B55087  38.654  13.491   6.209
 4230POPC   C2B55088  38.800  13.582   6.617
 4230POPC   C3B55089  38.685  13.638   7.043
 4230POPC   C4B55090  38.954  13.733   7.410
 4231POPC   NC355091   1.533  29.323   5.417
 4231POPC   PO455092   0.942  29.058   5.494
 4231POPC   GL155093   1.228  29.161   5.870
 4231POPC   GL255094   1.437  29.490   5.902
 4231POPC   C1A55095   1.264  28.981   6.319
 4231POPC   D2A55096   1.135  28.829   6.737
 4231POPC   C3A55097   1.289  29.019   7.157
 4231POPC   C4A55098   1.097  28.973   7.585
 4231POPC   C1B55099   1.127  29.479   6.272
 4231POPC   C2B55100   1.208  29.369   6.723
 4231POPC   C3B55101   1.405  29.520   7.118
 4231POPC   C4B55102   1.296  29.441   7.550
 4232POPC   NC355103   8.495  13.767   5.047
 4232POPC   PO455104   8.141  13.411   5.391
 4232POPC   GL155105   8.281  13.452   5.843
 4232POPC   GL255106   8.006  13.692   5.916
 4232POPC   C1A55107   8.351  13.643   6.292
 4232POPC   D2A55108   8.118  13.629   6.713
 4232POPC   C3A55109   8.448  13.656   7.066
 4232POPC   C4A55110   8.485  13.770   7.523
 4232POPC   C1B55111   7.898  13.410   6.263
 4232POPC   C2B55112   7.632  13.390   6.637
 4232POPC   C3B55113   7.739  13.473   7.073
 4232POPC   C4B55114   7.981  13.846   7.185
 4233POPC   NC355115  15.670  26.978   5.446
 4233POPC   PO455116  15.234  26.448   5.375
 4233POPC   GL155117  15.259  26.716   5.746
 4233POPC   GL255118  15.101  27.065   5.738
 4233POPC   C1A55119  15.205  26.651   6.200
 4233POPC   D2A55120  15.158  26.854   6.599
 4233POPC   C3A55121  15.370  26.707   6.965
 4233POPC   C4A55122  15.226  26.686   7.368
 4233POPC   C1B55123  15.339  27.151   6.123
 4233POPC   C2B55124  15.408  27.297   6.555
 4233POPC   C3B55125  15.265  27.227   6.942
 4233POPC   C4B55126  15.442  27.133   7.309
 4234POPC   NC355127  31.890  11.485   5.272
 4234POPC   PO455128  31.356  11.159   5.521
 4234POPC   GL155129  31.425  11.252   5.890
 4234POPC   GL255130  31.749  11.410   5.816
 4234POPC   C1A55131  31.615  11.123   6.247
 4234POPC   D2A55132  31.781  11.261   6.586
 4234POPC   C3A55133  31.574  11.151   6.935
 4234POPC   C4A55134  31.390  11.047   7.306
 4234POPC   C1B55135  31.888  11.653   6.162
 4234POPC   C2B55136  31.927  11.754   6.582
 4234POPC   C3B55137  31.615  11.667   6.885
 4234POPC   C4B55138  31.663  11.481   7.300
 4235POPC   NC355139  43.156   9.647   5.431
 4235POPC   PO455140  43.411  10.161   5.737
 4235POPC   GL155141  43.257   9.797   5.930
 4235POPC   GL255142  42.901   9.728   5.868
 4235POPC   C1A55143  43.315   9.538   6.313
 4235POPC   D2A55144  43.159   9.675   6.734
 4235POPC   C3A55145  43.368   9.828   7.086
 4235POPC   C4A55146  43.429   9.434   7.233
 4235POPC   C1B55147  42.880   9.839   6.324
 4235POPC   C2B55148  42.792  10.024   6.755
 4235POPC   C3B55149  42.859   9.904   7.210
 4235POPC   C4B55150  42.875  10.167   7.611
 4236POPC   NC355151  31.744  31.419   5.379
 4236POPC   PO455152  31.219  31.827   5.360
 4236POPC   GL155153  31.435  31.691   5.706
 4236POPC   GL255154  31.333  31.352   5.691
 4236POPC   C1A55155  31.363  31.741   6.149
 4236POPC   D2A55156  31.543  31.554   6.530
 4236POPC   C3A55157  31.364  31.622   6.941
 4236POPC   C4A55158  31.467  31.552   7.378
 4236POPC   C1B55159  31.461  31.242   6.095
 4236POPC   C2B55160  31.238  31.122   6.454
 4236POPC   C3B55161  31.374  31.116   6.849
 4236POPC   C4B55162  31.213  31.115   7.229
 4237POPC   NC355163  33.604  40.197   5.287
 4237POPC   PO455164  34.120  39.866   5.401
 4237POPC   GL155165  33.745  39.955   5.740
 4237POPC   GL255166  33.547  40.272   5.822
 4237POPC   C1A55167  33.639  39.827   6.201
 4237POPC   D2A55168  33.660  39.978   6.657
 4237POPC   C3A55169  34.004  40.151   6.881
 4237POPC   C4A55170  33.985  39.911   7.252
 4237POPC   C1B55171  33.669  40.351   6.259
 4237POPC   C2B55172  33.534  40.471   6.672
 4237POPC   C3B55173  33.683  40.518   7.063
 4237POPC   C4B55174  33.612  40.205   7.291
 4238POPC   NC355175  42.135  11.450   5.436
 4238POPC   PO455176  42.445  10.904   5.466
 4238POPC   GL155177  42.536  11.118   5.837
 4238POPC   GL255178  42.472  11.464   5.847
 4238POPC   C1A55179  42.653  11.080   6.267
 4238POPC   D2A55180  42.832  11.145   6.671
 4238POPC   C3A55181  42.507  11.259   6.993
 4238POPC   C4A55182  42.360  11.607   7.176
 4238POPC   C1B55183  42.210  11.340   6.214
 4238POPC   C2B55184  42.182  11.504   6.631
 4238POPC   C3B55185  41.912  11.642   6.947
 4238POPC   C4B55186  41.875  11.470   7.345
 4239POPC   NC355187  23.913  25.670   5.251
 4239POPC   PO455188  23.456  25.258   5.258
 4239POPC   GL155189  23.569  25.465   5.688
 4239POPC   GL255190  23.857  25.698   5.766
 4239POPC   C1A55191  23.543  25.522   6.160
 4239POPC   D2A55192  23.430  25.201   6.487
 4239POPC   C3A55193  23.294  25.249   6.920
 4239POPC   C4A55194  23.422  25.379   7.348
 4239POPC   C1B55195  23.938  25.898   6.185
 4239POPC   C2B55196  23.943  25.701   6.615
 4239POPC   C3B55197  23.752  25.689   7.044
 4239POPC   C4B55198  23.914  25.499   7.436
 4240POPC   NC355199  12.957  10.851   5.382
 4240POPC   PO455200  12.802  10.215   5.564
 4240POPC   GL155201  13.072  10.497   5.756
 4240POPC   GL255202  12.869  10.786   5.878
 4240POPC   C1A55203  13.151  10.465   6.179
 4240POPC   D2A55204  12.979  10.697   6.522
 4240POPC   C3A55205  13.120  10.641   6.912
 4240POPC   C4A55206  12.898  10.364   7.135
 4240POPC   C1B55207  12.626  10.509   6.167
 4240POPC   C2B55208  12.474  10.486   6.611
 4240POPC   C3B55209  12.597  10.753   6.929
 4240POPC   C4B55210  12.413  10.743   7.309
 4241POPC   NC355211  39.568  35.656   5.422
 4241POPC   PO455212  40.003  35.252   5.194
 4241POPC   GL155213  40.111  35.209   5.644
 4241POPC   GL255214  39.849  35.430   5.789
 4241POPC   C1A55215  40.145  35.141   6.114
 4241POPC   D2A55216  39.914  35.112   6.504
 4241POPC   C3A55217  40.052  35.217   6.894
 4241POPC   C4A55218  39.888  35.078   7.299
 4241POPC   C1B55219  39.689  35.482   6.206
 4241POPC   C2B55220  39.722  35.645   6.615
 4241POPC   C3B55221  39.630  35.453   7.029
 4241POPC   C4B55222  39.734  35.525   7.493
 4242POPC   NC355223  22.611  31.136   4.969
 4242POPC   PO455224  22.840  31.586   5.478
 4242POPC   GL155225  23.002  31.497   5.861
 4242POPC   GL255226  22.999  31.169   5.788
 4242POPC   C1A55227  22.905  31.567   6.291
 4242POPC   D2A55228  22.856  31.344   6.674
 4242POPC   C3A55229  22.905  31.608   7.022
 4242POPC   C4A55230  23.144  31.680   7.381
 4242POPC   C1B55231  23.040  31.089   6.216
 4242POPC   C2B55232  23.319  31.146   6.550
 4242POPC   C3B55233  23.290  31.271   6.989
 4242POPC   C4B55234  23.197  31.176   7.419
 4243POPC   NC355235   0.278  30.813   5.426
 4243POPC   PO455236   0.841  30.583   5.266
 4243POPC   GL155237   0.580  30.427   5.648
 4243POPC   GL255238   0.331  30.654   5.885
 4243POPC   C1A55239   0.717  30.462   6.096
 4243POPC   D2A55240   0.431  30.581   6.464
 4243POPC   C3A55241   0.403  30.376   6.877
 4243POPC   C4A55242   0.327  30.528   7.319
 4243POPC   C1B55243   0.568  30.963   6.145
 4243POPC   C2B55244   0.517  31.089   6.580
 4243POPC   C3B55245   0.536  30.885   6.982
 4243POPC   C4B55246   0.610  31.141   7.317
 4244POPC   NC355247  30.827  15.239   5.385
 4244POPC   PO455248  30.280  15.193   5.463
 4244POPC   GL155249  30.603  15.000   5.786
 4244POPC   GL255250  30.479  14.727   5.997
 4244POPC   C1A55251  30.909  14.930   6.165
 4244POPC   D2A55252  30.912  15.118   6.607
 4244POPC   C3A55253  30.815  15.045   7.051
 4244POPC   C4A55254  31.030  15.281   7.381
 4244POPC   C1B55255  30.443  15.072   6.320
 4244POPC   C2B55256  30.410  15.196   6.770
 4244POPC   C3B55257  30.302  15.130   7.207
 4244POPC   C4B55258  30.174  15.205   7.636
 4245POPC   NC355259  27.333  27.858   5.073
 4245POPC   PO455260  27.780  27.713   5.500
 4245POPC   GL155261  27.785  27.508   5.873
 4245POPC   GL255262  28.045  27.703   5.963
 4245POPC   C1A55263  27.632  27.527   6.298
 4245POPC   D2A55264  27.326  27.598   6.628
 4245POPC   C3A55265  27.428  27.559   7.056
 4245POPC   C4A55266  27.569  27.710   7.449
 4245POPC   C1B55267  27.899  27.991   6.307
 4245POPC   C2B55268  27.731  27.942   6.726
 4245POPC   C3B55269  27.920  27.721   7.073
 4245POPC   C4B55270  28.110  27.802   7.476
 4246POPC   NC355271  39.085  39.947   5.236
 4246POPC   PO455272  39.691  39.591   5.143
 4246POPC   GL155273  39.512  39.816   5.546
 4246POPC   GL255274  39.513  40.200   5.621
 4246POPC   C1A55275  39.384  39.860   6.007
 4246POPC   D2A55276  39.420  39.654   6.421
 4246POPC   C3A55277  39.387  39.850   6.839
 4246POPC   C4A55278  39.324  39.904   7.271
 4246POPC   C1B55279  39.488  40.374   6.069
 4246POPC   C2B55280  39.404  40.254   6.515
 4246POPC   C3B55281  39.276  40.349   6.976
 4246POPC   C4B55282  39.514  40.347   7.394
 4247POPC   NC355283  30.831  37.219   5.494
 4247POPC   PO455284  30.201  37.105   5.292
 4247POPC   GL155285  30.374  37.029   5.736
 4247POPC   GL255286  30.481  36.678   5.738
 4247POPC   C1A55287  30.584  37.092   6.194
 4247POPC   D2A55288  30.904  36.865   6.514
 4247POPC   C3A55289  30.912  37.021   6.951
 4247POPC   C4A55290  30.837  37.212   7.357
 4247POPC   C1B55291  30.607  36.595   6.147
 4247POPC   C2B55292  30.422  36.740   6.545
 4247POPC   C3B55293  30.561  36.641   6.932
 4247POPC   C4B55294  30.742  36.711   7.318
 4248POPC   NC355295  42.546   9.272   5.289
 4248POPC   PO455296  42.185   8.743   5.433
 4248POPC   GL155297  42.381   8.984   5.728
 4248POPC   GL255298  42.658   8.730   5.782
 4248POPC   C1A55299  42.191   9.179   6.096
 4248POPC   D2A55300  42.383   9.250   6.503
 4248POPC   C3A55301  42.130   9.422   6.852
 4248POPC   C4A55302  42.073   9.297   7.295
 4248POPC   C1B55303  42.459   8.762   6.222
 4248POPC   C2B55304  42.496   8.797   6.690
 4248POPC   C3B55305  42.530   8.979   7.127
 4248POPC   C4B55306  42.636   8.796   7.547
 4249POPC   NC355307  12.339  10.189   5.492
 4249POPC   PO455308  12.492  10.836   5.474
 4249POPC   GL155309  12.227  10.570   5.821
 4249POPC   GL255310  11.821  10.459   5.840
 4249POPC   C1A55311  12.116  10.493   6.250
 4249POPC   D2A55312  11.869  10.666   6.562
 4249POPC   C3A55313  12.043  10.605   6.941
 4249POPC   C4A55314  11.915  10.806   7.301
 4249POPC   C1B55315  11.710  10.190   6.246
 4249POPC   C2B55316  11.928  10.167   6.688
 4249POPC   C3B55317  11.836  10.200   7.148
 4249POPC   C4B55318  11.617  10.430   7.461
 4250POPC   NC355319  20.101   6.523   5.265
 4250POPC   PO455320  20.676   6.224   5.499
 4250POPC   GL155321  20.716   6.297   5.916
 4250POPC   GL255322  20.551   6.627   5.841
 4250POPC   C1A55323  20.524   6.383   6.320
 4250POPC   D2A55324  20.785   6.499   6.655
 4250POPC   C3A55325  20.730   6.297   7.042
 4250POPC   C4A55326  20.395   6.374   7.304
 4250POPC   C1B55327  20.709   6.838   6.196
 4250POPC   C2B55328  20.524   6.922   6.578
 4250POPC   C3B55329  20.791   6.934   6.932
 4250POPC   C4B55330  20.775   6.732   7.314
 4251POPC   NC355331  17.922  41.833   5.383
 4251POPC   PO455332  18.487  41.516   5.492
 4251POPC   GL155333  18.293  41.602   5.852
 4251POPC   GL255334  17.948  41.513   5.782
 4251POPC   C1A55335  18.488  41.606   6.238
 4251POPC   D2A55336  18.335  41.408   6.588
 4251POPC   C3A55337  18.495  41.508   6.991
 4251POPC   C4A55338  18.494  41.353   7.434
 4251POPC   C1B55339  17.948  41.461   6.245
 4251POPC   C2B55340  17.856  41.410   6.728
 4251POPC   C3B55341  17.998  41.505   7.143
 4251POPC   C4B55342  18.150  41.710   7.516
 4252POPC   NC355343  37.377   7.312   5.308
 4252POPC   PO455344  38.068   7.334   5.358
 4252POPC   GL155345  37.841   7.213   5.707
 4252POPC   GL255346  37.631   7.472   5.734
 4252POPC   C1A55347  37.816   7.305   6.172
 4252POPC   D2A55348  37.691   7.171   6.572
 4252POPC   C3A55349  37.776   7.374   6.938
 4252POPC   C4A55350  38.093   7.212   7.160
 4252POPC   C1B55351  37.436   7.620   6.098
 4252POPC   C2B55352  37.547   7.665   6.524
 4252POPC   C3B55353  37.337   7.643   6.923
 4252POPC   C4B55354  37.391   7.541   7.338
 4253POPC   NC355355  13.201  10.002   5.493
 4253POPC   PO455356  12.572   9.865   5.220
 4253POPC   GL155357  12.529   9.797   5.732
 4253POPC   GL255358  12.498   9.480   5.860
 4253POPC   C1A55359  12.693   9.960   6.155
 4253POPC   D2A55360  12.869  10.183   6.514
 4253POPC   C3A55361  12.847   9.938   6.869
 4253POPC   C4A55362  12.723   9.914   7.285
 4253POPC   C1B55363  12.774   9.456   6.178
 4253POPC   C2B55364  12.692   9.563   6.563
 4253POPC   C3B55365  12.613   9.486   6.980
 4253POPC   C4B55366  13.022   9.498   7.165
 4254POPC   NC355367  11.288  39.221   5.094
 4254POPC   PO455368  11.900  39.178   5.317
 4254POPC   GL155369  11.543  39.310   5.627
 4254POPC   GL255370  11.399  39.010   5.768
 4254POPC   C1A55371  11.368  39.422   6.073
 4254POPC   D2A55372  11.166  39.264   6.487
 4254POPC   C3A55373  11.283  39.424   6.915
 4254POPC   C4A55374  11.628  39.406   7.219
 4254POPC   C1B55375  11.580  38.977   6.205
 4254POPC   C2B55376  11.668  39.170   6.632
 4254POPC   C3B55377  11.612  38.949   7.013
 4254POPC   C4B55378  11.183  38.985   7.176
 4255POPC   NC355379  29.774  25.264   5.406
 4255POPC   PO455380  30.237  25.697   5.433
 4255POPC   GL155381  30.229  25.394   5.762
 4255POPC   GL255382  29.937  25.218   5.882
 4255POPC   C1A55383  30.276  25.409   6.202
 4255POPC   D2A55384  30.107  25.642   6.563
 4255POPC   C3A55385  30.017  25.539   7.003
 4255POPC   C4A55386  29.736  25.397   7.341
 4255POPC   C1B55387  29.924  25.093   6.331
 4255POPC   C2B55388  30.153  25.141   6.721
 4255POPC   C3B55389  29.964  25.018   7.122
 4255POPC   C4B55390  29.606  24.886   7.390
 4256POPC   NC355391  13.340  34.732   5.215
 4256POPC   PO455392  13.919  34.429   5.439
 4256POPC   GL155393  13.702  34.600   5.757
 4256POPC   GL255394  13.976  34.729   5.921
 4256POPC   C1A55395  13.508  34.601   6.168
 4256POPC   D2A55396  13.648  34.814   6.535
 4256POPC   C3A55397  13.561  34.670   6.919
 4256POPC   C4A55398  13.469  34.514   7.313
 4256POPC   C1B55399  14.026  34.316   6.121
 4256POPC   C2B55400  14.130  34.202   6.538
 4256POPC   C3B55401  14.075  34.514   6.848
 4256POPC   C4B55402  13.976  34.518   7.259
 4257POPC   NC355403  39.325  27.648   5.358
 4257POPC   PO455404  39.881  27.260   5.428
 4257POPC   GL155405  39.476  27.384   5.769
 4257POPC   GL255406  39.392  27.747   5.855
 4257POPC   C1A55407  39.228  27.344   6.179
 4257POPC   D2A55408  38.951  27.482   6.524
 4257POPC   C3A55409  39.097  27.440   6.938
 4257POPC   C4A55410  39.272  27.487   7.337
 4257POPC   C1B55411  39.302  27.848   6.281
 4257POPC   C2B55412  39.188  27.920   6.695
 4257POPC   C3B55413  39.129  27.956   7.152
 4257POPC   C4B55414  39.467  28.010   7.459
 4258POPC   NC355415  37.482  28.766   5.353
 4258POPC   PO455416  37.774  29.437   5.349
 4258POPC   GL155417  37.595  29.223   5.691
 4258POPC   GL255418  37.939  29.147   5.774
 4258POPC   C1A55419  37.579  29.135   6.139
 4258POPC   D2A55420  37.329  29.317   6.470
 4258POPC   C3A55421  37.511  29.302   6.853
 4258POPC   C4A55422  37.443  29.171   7.265
 4258POPC   C1B55423  38.049  29.355   6.170
 4258POPC   C2B55424  38.116  29.282   6.629
 4258POPC   C3B55425  37.971  29.196   7.069
 4258POPC   C4B55426  38.014  29.481   7.377
 4259POPC   NC355427   2.549  19.471   5.561
 4259POPC   PO455428   2.700  20.095   5.182
 4259POPC   GL155429   2.988  19.894   5.625
 4259POPC   GL255430   2.988  19.533   5.814
 4259POPC   C1A55431   3.000  19.930   6.108
 4259POPC   D2A55432   3.038  19.738   6.543
 4259POPC   C3A55433   2.816  19.953   6.918
 4259POPC   C4A55434   2.417  19.914   7.147
 4259POPC   C1B55435   2.669  19.558   6.223
 4259POPC   C2B55436   2.558  19.567   6.702
 4259POPC   C3B55437   2.733  19.511   7.142
 4259POPC   C4B55438   2.990  19.467   7.508
 4260POPC   NC355439  38.278  23.591   4.951
 4260POPC   PO455440  38.720  23.313   5.462
 4260POPC   GL155441  38.621  23.461   5.886
 4260POPC   GL255442  38.409  23.761   5.905
 4260POPC   C1A55443  38.509  23.478   6.364
 4260POPC   D2A55444  38.253  23.707   6.705
 4260POPC   C3A55445  38.304  23.667   7.150
 4260POPC   C4A55446  38.636  23.484   7.402
 4260POPC   C1B55447  38.776  23.882   6.130
 4260POPC   C2B55448  38.657  23.988   6.561
 4260POPC   C3B55449  38.749  23.817   6.955
 4260POPC   C4B55450  38.607  24.085   7.265
 4261POPC   NC355451  40.282  32.478   5.427
 4261POPC   PO455452  39.717  32.062   5.301
 4261POPC   GL155453  39.815  32.049   5.779
 4261POPC   GL255454  40.121  32.189   5.810
 4261POPC   C1A55455  39.894  32.140   6.268
 4261POPC   D2A55456  39.754  32.345   6.681
 4261POPC   C3A55457  39.842  32.189   7.077
 4261POPC   C4A55458  40.034  32.056   7.465
 4261POPC   C1B55459  40.256  32.493   6.113
 4261POPC   C2B55460  40.244  32.451   6.560
 4261POPC   C3B55461  40.206  32.571   6.995
 4261POPC   C4B55462  40.036  32.557   7.403
 4262POPC   NC355463  18.198  37.908   5.349
 4262POPC   PO455464  18.708  37.486   5.514
 4262POPC   GL155465  18.444  37.695   5.864
 4262POPC   GL255466  18.368  38.032   5.833
 4262POPC   C1A55467  18.388  37.582   6.291
 4262POPC   D2A55468  18.166  37.668   6.651
 4262POPC   C3A55469  18.454  37.506   6.978
 4262POPC   C4A55470  18.385  37.368   7.414
 4262POPC   C1B55471  18.300  38.082   6.295
 4262POPC   C2B55472  18.525  38.011   6.688
 4262POPC   C3B55473  18.319  37.982   7.077
 4262POPC   C4B55474  17.863  38.017   7.173
 4263POPC   NC355475  38.508  16.249   5.441
 4263POPC   PO455476  38.146  15.735   5.483
 4263POPC   GL155477  38.374  15.852   5.861
 4263POPC   GL255478  38.585  16.181   5.928
 4263POPC   C1A55479  38.256  15.973   6.273
 4263POPC   D2A55480  38.163  15.887   6.672
 4263POPC   C3A55481  38.342  16.104   6.988
 4263POPC   C4A55482  38.244  15.854   7.330
 4263POPC   C1B55483  38.784  16.057   6.313
 4263POPC   C2B55484  38.664  15.782   6.660
 4263POPC   C3B55485  38.673  15.678   7.088
 4263POPC   C4B55486  38.738  16.053   7.319
 4264POPC   NC355487  39.426  32.485   5.398
 4264POPC   PO455488  39.035  31.998   5.639
 4264POPC   GL155489  39.335  32.254   5.860
 4264POPC   GL255490  39.264  32.616   5.880
 4264POPC   C1A55491  39.412  32.346   6.283
 4264POPC   D2A55492  39.280  32.150   6.621
 4264POPC   C3A55493  39.333  32.296   6.990
 4264POPC   C4A55494  39.200  32.081   7.298
 4264POPC   C1B55495  38.987  32.727   6.231
 4264POPC   C2B55496  38.943  32.554   6.655
 4264POPC   C3B55497  39.048  32.713   7.061
 4264POPC   C4B55498  39.152  32.559   7.495
 4265POPC   NC355499  11.015  32.572   5.302
 4265POPC   PO455500  11.461  32.045   5.418
 4265POPC   GL155501  11.375  31.973   5.809
 4265POPC   GL255502  11.140  32.223   5.807
 4265POPC   C1A55503  11.445  32.173   6.213
 4265POPC   D2A55504  11.237  32.141   6.620
 4265POPC   C3A55505  11.487  32.167   6.963
 4265POPC   C4A55506  11.481  32.458   7.293
 4265POPC   C1B55507  10.947  32.320   6.233
 4265POPC   C2B55508  10.917  32.570   6.616
 4265POPC   C3B55509  10.987  32.397   7.036
 4265POPC   C4B55510  10.996  32.511   7.465
 4266POPC   NC355511   2.741  43.464   5.372
 4266POPC   PO455512   2.931  42.794   5.268
 4266POPC   GL155513   2.884  43.035   5.676
 4266POPC   GL255514   2.539  43.121   5.724
 4266POPC   C1A55515   2.891  43.352   6.034
 4266POPC   D2A55516   2.665  43.469   6.398
 4266POPC   C3A55517   2.841  43.472   6.845
 4266POPC   C4A55518   3.031  43.276   7.236
 4266POPC   C1B55519   2.691  42.912   6.141
 4266POPC   C2B55520   2.874  43.024   6.549
 4266POPC   C3B55521   2.692  42.982   6.973
 4266POPC   C4B55522   2.792  42.656   7.262
 4267POPC   NC355523  24.651   4.798   5.329
 4267POPC   PO455524  24.409   5.395   5.126
 4267POPC   GL155525  24.372   5.137   5.578
 4267POPC   GL255526  24.724   5.160   5.711
 4267POPC   C1A55527  24.169   4.999   6.008
 4267POPC   D2A55528  24.210   5.162   6.482
 4267POPC   C3A55529  24.025   5.183   6.929
 4267POPC   C4A55530  24.122   5.203   7.390
 4267POPC   C1B55531  24.619   5.183   6.144
 4267POPC   C2B55532  24.732   5.065   6.548
 4267POPC   C3B55533  24.567   5.134   6.969
 4267POPC   C4B55534  24.456   4.829   7.292
 4268POPC   NC355535  40.002  15.685   5.298
 4268POPC   PO455536  39.943  16.269   5.452
 4268POPC   GL155537  40.132  16.029   5.780
 4268POPC   GL255538  40.090  15.674   5.795
 4268POPC   C1A55539  40.033  16.122   6.209
 4268POPC   D2A55540  39.872  16.410   6.533
 4268POPC   C3A55541  39.840  16.222   6.937
 4268POPC   C4A55542  40.043  15.864   7.106
 4268POPC   C1B55543  39.793  15.663   6.148
 4268POPC   C2B55544  39.705  15.892   6.536
 4268POPC   C3B55545  39.563  15.770   6.933
 4268POPC   C4B55546  39.656  15.605   7.344
 4269POPC   NC355547  12.005  32.556   5.160
 4269POPC   PO455548  12.231  32.001   5.242
 4269POPC   GL155549  12.064  32.193   5.621
 4269POPC   GL255550  12.410  32.232   5.739
 4269POPC   C1A55551  11.976  32.106   6.087
 4269POPC   D2A55552  11.826  32.238   6.530
 4269POPC   C3A55553  12.153  32.121   6.869
 4269POPC   C4A55554  12.276  31.791   7.217
 4269POPC   C1B55555  12.467  32.460   6.136
 4269POPC   C2B55556  12.588  32.396   6.568
 4269POPC   C3B55557  12.404  32.594   6.919
 4269POPC   C4B55558  12.182  32.582   7.260
 4270POPC   NC355559  41.674  37.288   5.444
 4270POPC   PO455560  41.265  37.760   5.373
 4270POPC   GL155561  41.484  37.805   5.776
 4270POPC   GL255562  41.822  37.706   5.695
 4270POPC   C1A55563  41.567  37.807   6.241
 4270POPC   D2A55564  41.528  37.453   6.547
 4270POPC   C3A55565  41.650  37.606   6.955
 4270POPC   C4A55566  41.462  37.913   7.196
 4270POPC   C1B55567  41.842  37.427   6.080
 4270POPC   C2B55568  42.035  37.484   6.486
 4270POPC   C3B55569  42.100  37.361   6.949
 4270POPC   C4B55570  42.001  37.533   7.370
 4271POPC   NC355571  40.885  41.151   5.355
 4271POPC   PO455572  40.468  41.641   5.494
 4271POPC   GL155573  40.792  41.429   5.802
 4271POPC   GL255574  41.090  41.189   5.823
 4271POPC   C1A55575  40.922  41.552   6.227
 4271POPC   D2A55576  40.587  41.586   6.516
 4271POPC   C3A55577  40.692  41.653   6.958
 4271POPC   C4A55578  40.607  41.721   7.407
 4271POPC   C1B55579  41.108  41.076   6.255
 4271POPC   C2B55580  40.950  41.226   6.681
 4271POPC   C3B55581  41.087  41.338   7.113
 4271POPC   C4B55582  40.926  41.373   7.522
 4272POPC   NC355583  31.898  16.410   4.991
 4272POPC   PO455584  31.683  16.870   5.329
 4272POPC   GL155585  31.608  16.685   5.795
 4272POPC   GL255586  31.323  16.823   6.017
 4272POPC   C1A55587  31.594  16.486   6.261
 4272POPC   D2A55588  31.523  16.711   6.648
 4272POPC   C3A55589  31.462  16.518   7.068
 4272POPC   C4A55590  31.145  16.547   7.430
 4272POPC   C1B55591  31.657  17.019   6.215
 4272POPC   C2B55592  31.729  17.209   6.597
 4272POPC   C3B55593  31.720  17.020   6.993
 4272POPC   C4B55594  31.526  16.927   7.381
 4273POPC   NC355595  43.027  26.767   5.488
 4273POPC   PO455596  43.615  26.468   5.357
 4273POPC   GL155597  43.493  26.738   5.796
 4273POPC   GL255598  43.154  26.935   5.936
 4273POPC   C1A55599  43.415  26.748   6.289
 4273POPC   D2A55600  43.229  26.614   6.660
 4273POPC   C3A55601  43.160  26.875   6.987
 4273POPC   C4A55602  43.217  26.912   7.398
 4273POPC   C1B55603  42.834  26.705   6.134
 4273POPC   C2B55604  42.691  26.540   6.515
 4273POPC   C3B55605  42.646  26.800   6.893
 4273POPC   C4B55606  42.779  27.183   7.157
 4274POPC   NC355607  20.534  21.768   5.317
 4274POPC   PO455608  21.121  21.861   5.482
 4274POPC   GL155609  20.945  21.916   5.856
 4274POPC   GL255610  20.575  21.950   5.834
 4274POPC   C1A55611  20.934  22.139   6.235
 4274POPC   D2A55612  20.746  21.969   6.589
 4274POPC   C3A55613  20.791  22.136   7.011
 4274POPC   C4A55614  20.903  22.048   7.435
 4274POPC   C1B55615  20.441  22.257   6.162
 4274POPC   C2B55616  20.396  22.368   6.602
 4274POPC   C3B55617  20.294  22.257   7.046
 4274POPC   C4B55618  20.533  22.370   7.437
 4275POPC   NC355619   7.675  44.448   5.525
 4275POPC   PO455620   8.163  44.842   5.451
 4275POPC   GL155621   8.306  44.936   5.887
 4275POPC   GL255622   8.409  44.624   5.958
 4275POPC   C1A55623   8.343  44.998   6.338
 4275POPC   D2A55624   8.395  44.699   6.681
 4275POPC   C3A55625   8.156  44.794   7.037
 4275POPC   C4A55626   8.186  44.999   7.426
 4275POPC   C1B55627   8.735  44.560   6.280
 4275POPC   C2B55628   8.833  44.342   6.675
 4275POPC   C3B55629   8.745  44.457   7.126
 4275POPC   C4B55630   8.382  44.510   7.438
 4276POPC   NC355631  43.632   4.934   5.084
 4276POPC   PO455632  43.010   4.757   5.351
 4276POPC   GL155633  43.120   4.909   5.769
 4276POPC   GL255634  43.117   5.288   5.800
 4276POPC   C1A55635  43.250   4.900   6.226
 4276POPC   D2A55636  43.111   5.003   6.677
 4276POPC   C3A55637  43.195   4.840   7.115
 4276POPC   C4A55638  43.532   4.820   7.450
 4276POPC   C1B55639  42.906   5.507   6.154
 4276POPC   C2B55640  43.019   5.518   6.600
 4276POPC   C3B55641  43.167   5.365   7.028
 4276POPC   C4B55642  42.878   5.320   7.387
 4277POPC   NC355643   8.819  31.160   5.455
 4277POPC   PO455644   9.346  31.529   5.401
 4277POPC   GL155645   9.118  31.572   5.761
 4277POPC   GL255646   9.102  31.248   5.898
 4277POPC   C1A55647   8.925  31.686   6.153
 4277POPC   D2A55648   8.736  31.464   6.480
 4277POPC   C3A55649   8.862  31.645   6.854
 4277POPC   C4A55650   8.628  31.717   7.206
 4277POPC   C1B55651   9.199  31.272   6.350
 4277POPC   C2B55652   9.020  31.130   6.733
 4277POPC   C3B55653   8.917  31.221   7.178
 4277POPC   C4B55654   9.158  31.091   7.590
 4278POPC   NC355655  16.204  27.785   4.984
 4278POPC   PO455656  15.858  28.029   5.438
 4278POPC   GL155657  16.035  27.911   5.821
 4278POPC   GL255658  15.693  27.773   5.861
 4278POPC   C1A55659  16.086  27.667   6.188
 4278POPC   D2A55660  15.964  27.421   6.527
 4278POPC   C3A55661  16.224  27.386   6.892
 4278POPC   C4A55662  16.153  27.513   7.304
 4278POPC   C1B55663  15.556  27.657   6.236
 4278POPC   C2B55664  15.603  27.771   6.657
 4278POPC   C3B55665  15.708  27.486   6.977
 4278POPC   C4B55666  15.663  27.574   7.395
 4279POPC   NC355667   2.945  35.740   5.260
 4279POPC   PO455668   2.933  36.380   5.518
 4279POPC   GL155669   3.016  36.320   5.934
 4279POPC   GL255670   3.278  36.076   5.895
 4279POPC   C1A55671   2.785  36.307   6.334
 4279POPC   D2A55672   2.603  35.910   6.524
 4279POPC   C3A55673   2.587  35.896   6.978
 4279POPC   C4A55674   2.407  36.287   7.172
 4279POPC   C1B55675   3.139  35.937   6.305
 4279POPC   C2B55676   3.049  36.039   6.749
 4279POPC   C3B55677   2.893  36.346   7.019
 4279POPC   C4B55678   2.853  36.347   7.463
 4280POPC   NC355679  19.570  44.963   5.440
 4280POPC   PO455680  19.905  44.423   5.490
 4280POPC   GL155681  19.801  44.653   5.821
 4280POPC   GL255682  19.484  44.527   5.834
 4280POPC   C1A55683  19.829  44.854   6.216
 4280POPC   D2A55684  19.688  44.692   6.605
 4280POPC   C3A55685  19.668  44.887   6.978
 4280POPC   C4A55686  19.962  44.726   7.247
 4280POPC   C1B55687  19.323  44.719   6.218
 4280POPC   C2B55688  19.184  44.643   6.645
 4280POPC   C3B55689  19.438  44.413   6.966
 4280POPC   C4B55690  19.549  44.514   7.387
 4281POPC   NC355691  38.559   6.238   5.344
 4281POPC   PO455692  38.829   5.724   5.464
 4281POPC   GL155693  38.499   5.985   5.776
 4281POPC   GL255694  38.122   6.070   5.837
 4281POPC   C1A55695  38.502   6.153   6.204
 4281POPC   D2A55696  38.540   5.921   6.610
 4281POPC   C3A55697  38.531   6.084   7.058
 4281POPC   C4A55698  38.495   5.820   7.454
 4281POPC   C1B55699  38.069   5.927   6.318
 4281POPC   C2B55700  38.093   6.107   6.759
 4281POPC   C3B55701  38.052   5.972   7.213
 4281POPC   C4B55702  37.938   5.904   7.664
 4282POPC   NC355703   7.908   5.834   5.423
 4282POPC   PO455704   8.604   5.698   5.468
 4282POPC   GL155705   8.356   5.939   5.823
 4282POPC   GL255706   7.984   5.993   5.911
 4282POPC   C1A55707   8.245   5.736   6.234
 4282POPC   D2A55708   8.375   5.733   6.616
 4282POPC   C3A55709   8.263   5.946   6.953
 4282POPC   C4A55710   8.590   6.031   7.228
 4282POPC   C1B55711   8.114   6.218   6.307
 4282POPC   C2B55712   7.893   6.270   6.673
 4282POPC   C3B55713   7.801   6.206   7.076
 4282POPC   C4B55714   8.148   6.293   7.298
 4283POPC   NC355715   3.807  41.812   5.427
 4283POPC   PO455716   3.333  41.559   5.450
 4283POPC   GL155717   3.135  41.684   5.842
 4283POPC   GL255718   3.438  41.846   5.946
 4283POPC   C1A55719   3.041  41.522   6.264
 4283POPC   D2A55720   3.168  41.267   6.639
 4283POPC   C3A55721   3.370  41.442   7.019
 4283POPC   C4A55722   3.476  41.490   7.454
 4283POPC   C1B55723   3.547  41.624   6.357
 4283POPC   C2B55724   3.788  41.602   6.775
 4283POPC   C3B55725   3.853  41.758   7.215
 4283POPC   C4B55726   3.821  41.790   7.686
 4284POPC   NC355727  29.330  21.108   5.354
 4284POPC   PO455728  28.929  21.605   5.378
 4284POPC   GL155729  29.142  21.354   5.774
 4284POPC   GL255730  29.225  20.978   5.853
 4284POPC   C1A55731  29.375  21.381   6.195
 4284POPC   D2A55732  29.319  21.198   6.643
 4284POPC   C3A55733  29.289  21.438   7.042
 4284POPC   C4A55734  29.089  21.605   7.451
 4284POPC   C1B55735  28.972  21.068   6.253
 4284POPC   C2B55736  28.817  20.991   6.699
 4284POPC   C3B55737  28.862  21.156   7.155
 4284POPC   C4B55738  28.929  21.155   7.630
 4285POPC   NC355739  18.928  19.832   5.337
 4285POPC   PO455740  18.735  20.333   5.064
 4285POPC   GL155741  19.040  20.259   5.578
 4285POPC   GL255742  19.002  19.893   5.815
 4285POPC   C1A55743  19.152  20.276   6.077
 4285POPC   D2A55744  18.850  20.022   6.371
 4285POPC   C3A55745  18.887  19.969   6.839
 4285POPC   C4A55746  19.286  19.946   7.054
 4285POPC   C1B55747  19.000  19.568   6.152
 4285POPC   C2B55748  19.145  19.623   6.566
 4285POPC   C3B55749  19.085  19.486   6.983
 4285POPC   C4B55750  19.479  19.439   7.157
 4286POPC   NC355751   1.644   7.149   5.200
 4286POPC   PO455752   2.046   7.650   5.426
 4286POPC   GL155753   2.158   7.720   5.833
 4286POPC   GL255754   1.817   7.879   5.824
 4286POPC   C1A55755   2.241   7.420   6.207
 4286POPC   D2A55756   1.976   7.296   6.603
 4286POPC   C3A55757   2.144   7.406   7.051
 4286POPC   C4A55758   2.342   7.245   7.465
 4286POPC   C1B55759   1.797   7.698   6.225
 4286POPC   C2B55760   1.739   7.919   6.592
 4286POPC   C3B55761   1.474   7.872   6.943
 4286POPC   C4B55762   1.577   7.541   7.237
 4287POPC   NC355763  36.324  31.071   5.226
 4287POPC   PO455764  35.923  31.017   5.769
 4287POPC   GL155765  36.268  31.297   5.854
 4287POPC   GL255766  36.178  31.675   5.881
 4287POPC   C1A55767  36.548  31.357   6.203
 4287POPC   D2A55768  36.612  31.314   6.652
 4287POPC   C3A55769  36.318  31.464   6.960
 4287POPC   C4A55770  36.340  31.490   7.397
 4287POPC   C1B55771  36.023  31.511   6.275
 4287POPC   C2B55772  35.734  31.407   6.601
 4287POPC   C3B55773  35.786  31.457   7.046
 4287POPC   C4B55774  35.892  31.231   7.417
 4288POPC   NC355775  22.607  29.472   5.433
 4288POPC   PO455776  22.088  29.863   5.364
 4288POPC   GL155777  22.179  29.756   5.773
 4288POPC   GL255778  21.858  29.610   5.842
 4288POPC   C1A55779  22.278  29.921   6.187
 4288POPC   D2A55780  22.176  30.094   6.588
 4288POPC   C3A55781  22.427  30.005   6.915
 4288POPC   C4A55782  22.291  30.109   7.282
 4288POPC   C1B55783  21.958  29.496   6.225
 4288POPC   C2B55784  21.832  29.689   6.585
 4288POPC   C3B55785  21.981  29.770   6.986
 4288POPC   C4B55786  21.785  30.088   7.223
 4289POPC   NC355787  43.635  10.312   5.365
 4289POPC   PO455788  43.071  10.695   5.294
 4289POPC   GL155789  43.135  10.598   5.788
 4289POPC   GL255790  42.947  10.258   5.912
 4289POPC   C1A55791  43.089  10.784   6.217
 4289POPC   D2A55792  43.042  10.648   6.650
 4289POPC   C3A55793  42.882  10.779   7.035
 4289POPC   C4A55794  43.062  10.651   7.457
 4289POPC   C1B55795  43.146  10.271   6.316
 4289POPC   C2B55796  43.278  10.189   6.718
 4289POPC   C3B55797  43.149  10.304   7.106
 4289POPC   C4B55798  43.362  10.230   7.511
 4290POPC   NC355799   7.147  33.906   5.298
 4290POPC   PO455800   7.802  33.906   5.298
 4290POPC   GL155801   7.551  33.817   5.654
 4290POPC   GL255802   7.411  34.146   5.689
 4290POPC   C1A55803   7.248  33.767   6.010
 4290POPC   D2A55804   7.376  33.621   6.417
 4290POPC   C3A55805   7.263  33.628   6.823
 4290POPC   C4A55806   7.553  33.606   7.154
 4290POPC   C1B55807   7.514  34.181   6.107
 4290POPC   C2B55808   7.302  34.118   6.489
 4290POPC   C3B55809   7.489  34.080   6.875
 4290POPC   C4B55810   7.590  34.124   7.284
 4291POPC   NC355811  35.517  33.445   5.529
 4291POPC   PO455812  35.134  33.981   5.380
 4291POPC   GL155813  35.234  33.776   5.797
 4291POPC   GL255814  35.135  33.461   5.932
 4291POPC   C1A55815  35.451  33.755   6.218
 4291POPC   D2A55816  35.655  33.646   6.588
 4291POPC   C3A55817  35.586  33.860   6.970
 4291POPC   C4A55818  35.563  33.650   7.346
 4291POPC   C1B55819  35.139  33.409   6.431
 4291POPC   C2B55820  35.158  33.602   6.871
 4291POPC   C3B55821  35.137  33.945   7.208
 4291POPC   C4B55822  35.147  33.826   7.630
 4292POPC   NC355823  23.069  36.005   5.231
 4292POPC   PO455824  23.173  36.544   5.409
 4292POPC   GL155825  23.049  36.264   5.796
 4292POPC   GL255826  22.703  36.067   5.863
 4292POPC   C1A55827  22.945  36.254   6.261
 4292POPC   D2A55828  23.128  36.071   6.630
 4292POPC   C3A55829  22.967  36.227   7.023
 4292POPC   C4A55830  23.082  36.107   7.427
 4292POPC   C1B55831  22.718  35.793   6.271
 4292POPC   C2B55832  22.682  35.843   6.741
 4292POPC   C3B55833  22.715  35.804   7.205
 4292POPC   C4B55834  22.628  35.999   7.629
 4293POPC   NC355835  21.609  16.830   5.371
 4293POPC   PO455836  21.027  16.521   5.570
 4293POPC   GL155837  21.342  16.745   5.806
 4293POPC   GL255838  21.714  16.692   5.852
 4293POPC   C1A55839  21.286  16.642   6.227
 4293POPC   D2A55840  20.982  16.727   6.556
 4293POPC   C3A55841  21.179  16.565   6.879
 4293POPC   C4A55842  21.071  16.629   7.275
 4293POPC   C1B55843  21.831  16.467   6.217
 4293POPC   C2B55844  21.593  16.385   6.576
 4293POPC   C3B55845  21.674  16.662   6.880
 4293POPC   C4B55846  21.529  16.845   7.225
 4294POPC   NC355847  24.724  26.176   5.298
 4294POPC   PO455848  25.306  26.417   5.118
 4294POPC   GL155849  25.343  26.354   5.607
 4294POPC   GL255850  25.043  26.242   5.710
 4294POPC   C1A55851  25.355  26.411   6.133
 4294POPC   D2A55852  25.268  26.446   6.648
 4294POPC   C3A55853  25.434  26.133   7.013
 4294POPC   C4A55854  25.484  26.098   7.495
 4294POPC   C1B55855  24.961  26.065   6.123
 4294POPC   C2B55856  24.818  26.166   6.548
 4294POPC   C3B55857  24.924  26.134   6.977
 4294POPC   C4B55858  24.722  25.831   7.251
 4295POPC   NC355859  12.638   6.406   5.404
 4295POPC   PO455860  13.255   6.066   5.515
 4295POPC   GL155861  12.993   6.344   5.832
 4295POPC   GL255862  12.700   6.598   5.859
 4295POPC   C1A55863  12.805   6.386   6.297
 4295POPC   D2A55864  12.644   6.676   6.619
 4295POPC   C3A55865  12.812   6.601   7.040
 4295POPC   C4A55866  13.167   6.332   7.146
 4295POPC   C1B55867  12.882   6.880   6.173
 4295POPC   C2B55868  13.008   7.078   6.538
 4295POPC   C3B55869  12.791   7.095   6.890
 4295POPC   C4B55870  12.906   7.067   7.289
 4296POPC   NC355871   7.344   8.743   5.503
 4296POPC   PO455872   7.590   9.355   5.492
 4296POPC   GL155873   7.614   9.063   5.840
 4296POPC   GL255874   7.724   8.713   5.855
 4296POPC   C1A55875   7.442   9.076   6.262
 4296POPC   D2A55876   7.247   9.033   6.684
 4296POPC   C3A55877   7.492   9.188   7.028
 4296POPC   C4A55878   7.715   9.080   7.367
 4296POPC   C1B55879   7.436   8.553   6.169
 4296POPC   C2B55880   7.516   8.624   6.602
 4296POPC   C3B55881   7.429   8.683   7.037
 4296POPC   C4B55882   7.602   8.437   7.363
 4297POPC   NC355883   0.247  32.489   5.475
 4297POPC   PO455884   0.835  32.081   5.548
 4297POPC   GL155885   0.633  32.415   5.806
 4297POPC   GL255886   0.335  32.217   5.888
 4297POPC   C1A55887   0.378  32.649   6.163
 4297POPC   D2A55888   0.531  32.584   6.605
 4297POPC   C3A55889   0.277  32.487   7.007
 4297POPC   C4A55890   0.180  32.475   7.476
 4297POPC   C1B55891   0.576  32.191   6.257
 4297POPC   C2B55892   0.305  32.127   6.617
 4297POPC   C3B55893   0.240  31.977   7.029
 4297POPC   C4B55894   0.233  31.967   7.476
 4298POPC   NC355895  16.278  29.649   5.414
 4298POPC   PO455896  15.978  30.194   5.237
 4298POPC   GL155897  15.960  29.779   5.750
 4298POPC   GL255898  16.251  29.741   5.987
 4298POPC   C1A55899  15.797  29.733   6.220
 4298POPC   D2A55900  15.940  29.648   6.643
 4298POPC   C3A55901  15.855  30.006   6.902
 4298POPC   C4A55902  15.946  30.019   7.321
 4298POPC   C1B55903  16.165  30.096   6.344
 4298POPC   C2B55904  16.219  30.365   6.761
 4298POPC   C3B55905  16.395  30.239   7.190
 4298POPC   C4B55906  16.349  30.133   7.629
 4299POPC   NC355907  11.849  37.991   5.273
 4299POPC   PO455908  12.029  37.380   5.432
 4299POPC   GL155909  12.136  37.622   5.783
 4299POPC   GL255910  12.133  37.971   5.703
 4299POPC   C1A55911  11.957  37.751   6.170
 4299POPC   D2A55912  12.143  37.584   6.569
 4299POPC   C3A55913  12.382  37.761   6.886
 4299POPC   C4A55914  12.124  37.599   7.214
 4299POPC   C1B55915  12.300  38.114   6.101
 4299POPC   C2B55916  12.110  38.099   6.525
 4299POPC   C3B55917  11.909  37.954   6.884
 4299POPC   C4B55918  12.136  38.091   7.232
 4300POPC   NC355919   5.316  18.927   5.006
 4300POPC   PO455920   4.906  19.278   5.422
 4300POPC   GL155921   4.809  19.295   5.816
 4300POPC   GL255922   4.662  18.970   5.888
 4300POPC   C1A55923   5.053  19.180   6.185
 4300POPC   D2A55924   5.208  19.020   6.585
 4300POPC   C3A55925   4.972  19.139   6.941
 4300POPC   C4A55926   5.032  19.484   7.191
 4300POPC   C1B55927   4.626  18.845   6.352
 4300POPC   C2B55928   4.843  18.673   6.747
 4300POPC   C3B55929   5.118  18.613   7.133
 4300POPC   C4B55930   5.184  18.551   7.599
 4301POPC   NC355931  26.945  29.451   5.280
 4301POPC   PO455932  26.604  28.874   5.434
 4301POPC   GL155933  26.919  29.106   5.661
 4301POPC   GL255934  26.717  29.371   5.739
 4301POPC   C1A55935  27.102  29.134   6.071
 4301POPC   D2A55936  26.904  29.030   6.476
 4301POPC   C3A55937  26.962  29.270   6.785
 4301POPC   C4A55938  27.089  29.040   7.131
 4301POPC   C1B55939  26.590  29.112   6.104
 4301POPC   C2B55940  26.341  29.089   6.481
 4301POPC   C3B55941  26.518  29.022   6.882
 4301POPC   C4B55942  26.629  28.937   7.318
 4302POPC   NC355943  14.615   5.300   5.511
 4302POPC   PO455944  14.341   5.961   5.417
 4302POPC   GL155945  14.275   5.745   5.822
 4302POPC   GL255946  14.585   5.666   5.867
 4302POPC   C1A55947  14.070   5.785   6.254
 4302POPC   D2A55948  14.064   5.591   6.672
 4302POPC   C3A55949  14.291   5.689   7.054
 4302POPC   C4A55950  14.069   5.417   7.316
 4302POPC   C1B55951  14.525   5.994   6.173
 4302POPC   C2B55952  14.494   5.904   6.589
 4302POPC   C3B55953  14.563   6.097   6.960
 4302POPC   C4B55954  14.305   6.201   7.292
 4303POPC   NC355955  19.166   9.849   5.443
 4303POPC   PO455956  18.972   9.210   5.293
 4303POPC   GL155957  18.984   9.472   5.741
 4303POPC   GL255958  18.722   9.732   5.799
 4303POPC   C1A55959  19.097   9.721   6.158
 4303POPC   D2A55960  19.293   9.867   6.580
 4303POPC   C3A55961  19.078   9.824   7.005
 4303POPC   C4A55962  19.273  10.021   7.371
 4303POPC   C1B55963  18.691   9.415   6.167
 4303POPC   C2B55964  18.838   9.440   6.643
 4303POPC   C3B55965  18.698   9.457   7.115
 4303POPC   C4B55966  18.712   9.402   7.592
 4304POPC   NC355967  12.197  39.538   5.365
 4304POPC   PO455968  11.934  40.175   5.386
 4304POPC   GL155969  12.061  39.909   5.766
 4304POPC   GL255970  11.776  39.881   5.988
 4304POPC   C1A55971  12.229  39.761   6.198
 4304POPC   D2A55972  12.029  39.718   6.602
 4304POPC   C3A55973  12.140  39.845   7.033
 4304POPC   C4A55974  11.879  39.946   7.397
 4304POPC   C1B55975  11.941  40.175   6.319
 4304POPC   C2B55976  11.910  40.198   6.767
 4304POPC   C3B55977  12.118  40.352   7.175
 4304POPC   C4B55978  12.136  40.332   7.678
 4305POPC   NC355979  44.903  37.156   5.446
 4305POPC   PO455980  44.274  37.016   5.322
 4305POPC   GL155981  44.326  36.923   5.775
 4305POPC   GL255982  44.417  36.595   5.807
 4305POPC   C1A55983  44.478  36.979   6.230
 4305POPC   D2A55984  44.799  36.834   6.557
 4305POPC   C3A55985  44.802  37.089   6.942
 4305POPC   C4A55986  44.527  37.144   7.259
 4305POPC   C1B55987  44.547  36.462   6.229
 4305POPC   C2B55988  44.452  36.445   6.683
 4305POPC   C3B55989  44.523  36.622   7.120
 4305POPC   C4B55990  44.487  36.749   7.590
 4306POPC   NC355991   5.526  11.970   5.402
 4306POPC   PO455992   4.911  12.131   5.503
 4306POPC   GL155993   5.058  12.183   5.898
 4306POPC   GL255994   5.100  11.833   5.934
 4306POPC   C1A55995   5.103  12.111   6.354
 4306POPC   D2A55996   5.048  11.773   6.673
 4306POPC   C3A55997   5.367  11.821   6.963
 4306POPC   C4A55998   5.409  12.246   7.047
 4306POPC   C1B55999   4.720  11.797   6.225
 4306POPC   C2B56000   4.551  11.670   6.661
 4306POPC   C3B56001   4.588  11.813   7.080
 4306POPC   C4B56002   4.944  12.016   7.177
 4307POPC   NC356003   5.825   8.035   5.295
 4307POPC   PO456004   5.622   8.677   5.292
 4307POPC   GL156005   5.594   8.323   5.646
 4307POPC   GL256006   5.667   7.922   5.751
 4307POPC   C1A56007   5.840   8.338   6.031
 4307POPC   D2A56008   6.103   8.362   6.372
 4307POPC   C3A56009   5.925   8.390   6.764
 4307POPC   C4A56010   6.102   8.524   7.112
 4307POPC   C1B56011   5.889   7.821   6.134
 4307POPC   C2B56012   5.718   7.985   6.513
 4307POPC   C3B56013   5.875   7.917   6.922
 4307POPC   C4B56014   5.887   8.091   7.312
 4308POPC   NC356015   3.410  17.670   5.487
 4308POPC   PO456016   3.970  17.356   5.534
 4308POPC   GL156017   3.841  17.611   5.905
 4308POPC   GL256018   3.470  17.600   5.980
 4308POPC   C1A56019   3.765  17.575   6.384
 4308POPC   D2A56020   3.479  17.602   6.715
 4308POPC   C3A56021   3.747  17.614   7.050
 4308POPC   C4A56022   3.846  17.773   7.481
 4308POPC   C1B56023   3.211  17.274   6.154
 4308POPC   C2B56024   3.033  17.270   6.543
 4308POPC   C3B56025   3.226  17.204   6.943
 4308POPC   C4B56026   3.434  17.163   7.313
 4309POPC   NC356027  33.226  31.740   5.438
 4309POPC   PO456028  32.772  31.267   5.444
 4309POPC   GL156029  32.753  31.342   5.860
 4309POPC   GL256030  32.739  31.679   5.877
 4309POPC   C1A56031  32.775  31.286   6.307
 4309POPC   D2A56032  32.976  31.395   6.721
 4309POPC   C3A56033  33.243  31.475   7.098
 4309POPC   C4A56034  33.292  31.877   7.268
 4309POPC   C1B56035  32.490  31.747   6.245
 4309POPC   C2B56036  32.640  31.863   6.657
 4309POPC   C3B56037  32.796  31.758   7.060
 4309POPC   C4B56038  32.891  31.623   7.485
 4310POPC   NC356039  21.178  44.832   5.406
 4310POPC   PO456040  21.683  44.450   5.381
 4310POPC   GL156041  21.533  44.632   5.769
 4310POPC   GL256042  21.342  44.933   5.879
 4310POPC   C1A56043  21.496  44.603   6.218
 4310POPC   D2A56044  21.395  44.809   6.563
 4310POPC   C3A56045  21.358  44.552   6.874
 4310POPC   C4A56046  21.530  44.546   7.238
 4310POPC   C1B56047  21.016  44.873   6.194
 4310POPC   C2B56048  20.925   0.035   6.617
 4310POPC   C3B56049  21.160   0.001   7.012
 4310POPC   C4B56050  21.167  44.837   7.467
 4311POPC   NC356051  27.067  38.285   5.594
 4311POPC   PO456052  26.963  38.895   5.498
 4311POPC   GL156053  26.761  38.671   5.833
 4311POPC   GL256054  26.520  38.414   5.716
 4311POPC   C1A56055  26.832  38.690   6.283
 4311POPC   D2A56056  27.154  38.788   6.616
 4311POPC   C3A56057  27.128  38.656   7.071
 4311POPC   C4A56058  27.022  38.653   7.538
 4311POPC   C1B56059  26.628  38.226   6.113
 4311POPC   C2B56060  26.566  38.315   6.528
 4311POPC   C3B56061  26.612  38.114   6.928
 4311POPC   C4B56062  26.812  38.290   7.270
 4312POPC   NC356063   6.960  31.319   5.309
 4312POPC   PO456064   7.675  31.469   5.355
 4312POPC   GL156065   7.582  31.505   5.795
 4312POPC   GL256066   7.238  31.466   5.920
 4312POPC   C1A56067   7.694  31.698   6.177
 4312POPC   D2A56068   7.770  31.539   6.600
 4312POPC   C3A56069   7.552  31.756   6.934
 4312POPC   C4A56070   7.504  31.531   7.290
 4312POPC   C1B56071   7.104  31.418   6.370
 4312POPC   C2B56072   6.922  31.681   6.721
 4312POPC   C3B56073   6.862  31.666   7.162
 4312POPC   C4B56074   7.065  31.599   7.563
 4313POPC   NC356075  23.057   3.714   5.469
 4313POPC   PO456076  22.492   4.005   5.500
 4313POPC   GL156077  22.625   3.622   5.815
 4313POPC   GL256078  22.988   3.442   5.890
 4313POPC   C1A56079  22.738   3.645   6.273
 4313POPC   D2A56080  22.663   3.980   6.559
 4313POPC   C3A56081  22.709   3.744   6.905
 4313POPC   C4A56082  23.043   3.623   7.144
 4313POPC   C1B56083  23.255   3.504   6.294
 4313POPC   C2B56084  23.355   3.343   6.732
 4313POPC   C3B56085  23.197   3.142   7.137
 4313POPC   C4B56086  23.280   3.286   7.564
 4314POPC   NC356087  24.883  10.016   5.339
 4314POPC   PO456088  25.315   9.391   5.329
 4314POPC   GL156089  25.099   9.644   5.655
 4314POPC   GL256090  25.202  10.011   5.739
 4314POPC   C1A56091  25.048   9.694   6.112
 4314POPC   D2A56092  25.290   9.788   6.488
 4314POPC   C3A56093  25.130   9.638   6.900
 4314POPC   C4A56094  25.391   9.640   7.250
 4314POPC   C1B56095  24.917  10.203   6.067
 4314POPC   C2B56096  25.006  10.216   6.504
 4314POPC   C3B56097  25.254  10.115   6.881
 4314POPC   C4B56098  25.098  10.081   7.268
 4315POPC   NC356099   9.947  42.535   5.171
 4315POPC   PO456100   9.936  41.904   5.412
 4315POPC   GL156101   9.862  42.282   5.693
 4315POPC   GL256102  10.149  42.198   5.890
 4315POPC   C1A56103   9.760  42.560   6.090
 4315POPC   D2A56104   9.550  42.701   6.545
 4315POPC   C3A56105   9.651  42.502   6.984
 4315POPC   C4A56106   9.571  42.228   7.366
 4315POPC   C1B56107   9.931  42.090   6.226
 4315POPC   C2B56108   9.734  42.178   6.598
 4315POPC   C3B56109   9.828  41.989   6.983
 4315POPC   C4B56110  10.074  42.183   7.286
 4316POPC   NC356111   3.684   7.686   5.543
 4316POPC   PO456112   3.156   7.246   5.399
 4316POPC   GL156113   3.185   7.359   5.859
 4316POPC   GL256114   3.402   7.651   5.995
 4316POPC   C1A56115   3.268   7.252   6.314
 4316POPC   D2A56116   3.458   7.376   6.700
 4316POPC   C3A56117   3.538   7.142   7.076
 4316POPC   C4A56118   3.358   7.239   7.490
 4316POPC   C1B56119   3.750   7.391   6.221
 4316POPC   C2B56120   3.914   7.192   6.621
 4316POPC   C3B56121   3.926   7.458   6.994
 4316POPC   C4B56122   3.680   7.611   7.364
 4317POPC   NC356123  28.167   9.350   5.118
 4317POPC   PO456124  28.823   9.560   5.254
 4317POPC   GL156125  28.602   9.591   5.671
 4317POPC   GL256126  28.258   9.458   5.677
 4317POPC   C1A56127  28.416   9.764   6.081
 4317POPC   D2A56128  28.485   9.959   6.502
 4317POPC   C3A56129  28.276   9.841   6.868
 4317POPC   C4A56130  28.515   9.809   7.213
 4317POPC   C1B56131  28.059   9.371   6.088
 4317POPC   C2B56132  28.138   9.480   6.507
 4317POPC   C3B56133  28.169   9.311   6.911
 4317POPC   C4B56134  28.127   9.444   7.303
 4318POPC   NC356135  13.323  28.781   5.405
 4318POPC   PO456136  13.910  28.337   5.469
 4318POPC   GL156137  13.746  28.254   5.872
 4318POPC   GL256138  13.472  28.476   5.853
 4318POPC   C1A56139  13.892  28.324   6.283
 4318POPC   D2A56140  13.877  28.490   6.720
 4318POPC   C3A56141  13.765  28.212   7.046
 4318POPC   C4A56142  13.509  28.109   7.400
 4318POPC   C1B56143  13.488  28.645   6.286
 4318POPC   C2B56144  13.368  28.656   6.723
 4318POPC   C3B56145  13.610  28.804   7.066
 4318POPC   C4B56146  13.682  28.594   7.412
 4319POPC   NC356147  35.119  19.776   5.460
 4319POPC   PO456148  35.852  19.853   5.484
 4319POPC   GL156149  35.534  19.809   5.855
 4319POPC   GL256150  35.169  19.974   5.920
 4319POPC   C1A56151  35.497  20.034   6.288
 4319POPC   D2A56152  35.238  20.146   6.628
 4319POPC   C3A56153  35.508  20.016   6.935
 4319POPC   C4A56154  35.539  19.602   7.118
 4319POPC   C1B56155  35.175  19.615   6.200
 4319POPC   C2B56156  35.232  19.524   6.634
 4319POPC   C3B56157  35.070  19.721   6.998
 4319POPC   C4B56158  35.065  19.484   7.371
 4320POPC   NC356159   8.050  20.455   5.380
 4320POPC   PO456160   7.897  20.998   5.638
 4320POPC   GL156161   8.133  20.704   5.830
 4320POPC   GL256162   7.940  20.408   5.891
 4320POPC   C1A56163   8.194  20.678   6.276
 4320POPC   D2A56164   8.396  20.629   6.684
 4320POPC   C3A56165   8.141  20.670   7.078
 4320POPC   C4A56166   8.199  20.532   7.512
 4320POPC   C1B56167   7.737  20.382   6.310
 4320POPC   C2B56168   7.810  20.442   6.765
 4320POPC   C3B56169   7.802  20.236   7.219
 4320POPC   C4B56170   7.982  20.070   7.632
 4321POPC   NC356171  12.090   7.036   5.323
 4321POPC   PO456172  12.495   7.503   5.380
 4321POPC   GL156173  12.312   7.362   5.795
 4321POPC   GL256174  12.471   7.061   5.907
 4321POPC   C1A56175  12.151   7.483   6.231
 4321POPC   D2A56176  11.953   7.300   6.607
 4321POPC   C3A56177  11.975   7.535   6.989
 4321POPC   C4A56178  11.673   7.555   7.344
 4321POPC   C1B56179  12.347   7.014   6.367
 4321POPC   C2B56180  12.295   6.990   6.836
 4321POPC   C3B56181  12.372   7.157   7.243
 4321POPC   C4B56182  12.218   7.300   7.653
 4322POPC   NC356183  36.856  10.041   5.439
 4322POPC   PO456184  37.184   9.460   5.312
 4322POPC   GL156185  36.995   9.537   5.768
 4322POPC   GL256186  36.827   9.865   5.903
 4322POPC   C1A56187  37.058   9.593   6.249
 4322POPC   D2A56188  37.124   9.876   6.598
 4322POPC   C3A56189  36.931   9.750   6.993
 4322POPC   C4A56190  37.154   9.519   7.300
 4322POPC   C1B56191  37.173  10.143   6.102
 4322POPC   C2B56192  37.335  10.340   6.512
 4322POPC   C3B56193  37.321  10.234   6.961
 4322POPC   C4B56194  37.094  10.041   7.369
 4323POPC   NC356195   3.393  26.326   5.432
 4323POPC   PO456196   3.492  25.661   5.338
 4323POPC   GL156197   3.359  25.773   5.769
 4323POPC   GL256198   3.631  25.997   5.804
 4323POPC   C1A56199   3.513  25.764   6.230
 4323POPC   D2A56200   3.892  25.867   6.509
 4323POPC   C3A56201   3.735  25.880   6.916
 4323POPC   C4A56202   3.599  25.869   7.328
 4323POPC   C1B56203   3.709  26.238   6.206
 4323POPC   C2B56204   3.625  26.369   6.685
 4323POPC   C3B56205   3.695  26.339   7.173
 4323POPC   C4B56206   3.795  26.234   7.648
 4324POPC   NC356207  44.090  36.580   5.332
 4324POPC   PO456208  43.568  37.091   5.349
 4324POPC   GL156209  43.819  37.002   5.734
 4324POPC   GL256210  43.865  36.662   5.770
 4324POPC   C1A56211  44.003  37.155   6.138
 4324POPC   D2A56212  44.161  37.257   6.584
 4324POPC   C3A56213  43.883  37.156   6.920
 4324POPC   C4A56214  43.767  37.237   7.334
 4324POPC   C1B56215  44.055  36.645   6.161
 4324POPC   C2B56216  43.898  36.800   6.523
 4324POPC   C3B56217  44.023  36.674   6.904
 4324POPC   C4B56218  44.052  36.786   7.312
 4325POPC   NC356219   9.155  26.453   5.044
 4325POPC   PO456220   8.811  26.990   5.176
 4325POPC   GL156221   8.863  26.669   5.541
 4325POPC   GL256222   9.176  26.464   5.575
 4325POPC   C1A56223   8.865  26.643   6.016
 4325POPC   D2A56224   8.989  26.957   6.338
 4325POPC   C3A56225   8.964  26.827   6.765
 4325POPC   C4A56226   8.821  26.917   7.172
 4325POPC   C1B56227   9.237  26.302   6.024
 4325POPC   C2B56228   9.118  26.445   6.429
 4325POPC   C3B56229   9.212  26.372   6.850
 4325POPC   C4B56230   9.154  26.533   7.232
 4326POPC   NC356231  35.156  15.585   5.537
 4326POPC   PO456232  35.646  15.045   5.522
 4326POPC   GL156233  35.384  15.083   5.882
 4326POPC   GL256234  35.688  15.037   6.043
 4326POPC   C1A56235  35.118  15.094   6.240
 4326POPC   D2A56236  35.001  15.221   6.630
 4326POPC   C3A56237  35.100  14.987   7.007
 4326POPC   C4A56238  35.285  15.084   7.405
 4326POPC   C1B56239  35.575  14.994   6.433
 4326POPC   C2B56240  35.522  15.226   6.762
 4326POPC   C3B56241  35.693  15.030   7.089
 4326POPC   C4B56242  35.789  15.111   7.495
 4327POPC   NC356243  14.563  22.904   5.023
 4327POPC   PO456244  14.194  22.970   5.525
 4327POPC   GL156245  14.398  22.944   5.878
 4327POPC   GL256246  14.485  22.625   5.903
 4327POPC   C1A56247  14.542  23.070   6.277
 4327POPC   D2A56248  14.719  23.284   6.622
 4327POPC   C3A56249  14.464  23.199   6.967
 4327POPC   C4A56250  14.565  23.068   7.353
 4327POPC   C1B56251  14.197  22.644   6.260
 4327POPC   C2B56252  14.240  22.784   6.696
 4327POPC   C3B56253  14.531  22.687   7.031
 4327POPC   C4B56254  14.478  22.492   7.423
 4328POPC   NC356255  43.370  19.599   5.334
 4328POPC   PO456256  42.795  20.059   5.176
 4328POPC   GL156257  42.899  19.899   5.619
 4328POPC   GL256258  43.251  19.974   5.697
 4328POPC   C1A56259  42.912  19.750   6.086
 4328POPC   D2A56260  43.047  19.526   6.479
 4328POPC   C3A56261  43.014  19.753   6.868
 4328POPC   C4A56262  43.044  19.905   7.281
 4328POPC   C1B56263  43.177  20.201   6.107
 4328POPC   C2B56264  43.079  20.140   6.536
 4328POPC   C3B56265  43.246  20.235   6.950
 4328POPC   C4B56266  43.481  20.175   7.347
 4329POPC   NC356267   4.851  31.019   5.383
 4329POPC   PO456268   5.404  30.717   5.592
 4329POPC   GL156269   5.015  30.668   5.793
 4329POPC   GL256270   4.934  31.001   5.905
 4329POPC   C1A56271   4.917  30.496   6.206
 4329POPC   D2A56272   5.080  30.330   6.615
 4329POPC   C3A56273   5.239  30.490   7.018
 4329POPC   C4A56274   5.008  30.379   7.380
 4329POPC   C1B56275   5.230  30.909   6.259
 4329POPC   C2B56276   5.287  30.899   6.706
 4329POPC   C3B56277   5.087  30.969   7.114
 4329POPC   C4B56278   5.213  30.848   7.504
 4330POPC   NC356279  14.986  29.768   5.507
 4330POPC   PO456280  14.404  29.811   5.269
 4330POPC   GL156281  14.503  30.045   5.617
 4330POPC   GL256282  14.579  29.720   5.804
 4330POPC   C1A56283  14.403  30.168   6.063
 4330POPC   D2A56284  14.324  30.006   6.498
 4330POPC   C3A56285  14.448  30.142   6.917
 4330POPC   C4A56286  14.658  30.022   7.313
 4330POPC   C1B56287  14.348  29.594   6.169
 4330POPC   C2B56288  14.484  29.539   6.593
 4330POPC   C3B56289  14.458  29.644   6.999
 4330POPC   C4B56290  14.559  29.544   7.436
 4331POPC   NC356291  29.204  34.187   5.472
 4331POPC   PO456292  28.835  33.601   5.512
 4331POPC   GL156293  29.186  33.614   5.777
 4331POPC   GL256294  29.263  33.967   5.928
 4331POPC   C1A56295  29.168  33.519   6.198
 4331POPC   D2A56296  28.960  33.741   6.521
 4331POPC   C3A56297  28.882  33.510   6.885
 4331POPC   C4A56298  28.824  33.752   7.228
 4331POPC   C1B56299  29.607  34.004   6.221
 4331POPC   C2B56300  29.505  33.719   6.547
 4331POPC   C3B56301  29.334  33.704   6.956
 4331POPC   C4B56302  29.533  33.964   7.232
 4332POPC   NC356303  39.758  43.392   5.015
 4332POPC   PO456304  39.953  42.912   5.394
 4332POPC   GL156305  40.019  42.975   5.867
 4332POPC   GL256306  39.845  42.710   6.094
 4332POPC   C1A56307  39.924  43.204   6.232
 4332POPC   D2A56308  39.558  43.165   6.487
 4332POPC   C3A56309  39.618  43.364   6.857
 4332POPC   C4A56310  39.940  43.313   7.146
 4332POPC   C1B56311  40.137  42.760   6.395
 4332POPC   C2B56312  39.937  42.927   6.759
 4332POPC   C3B56313  39.954  42.822   7.177
 4332POPC   C4B56314  40.111  42.990   7.545
 4333POPC   NC356315  15.347  22.201   5.233
 4333POPC   PO456316  14.851  22.665   5.315
 4333POPC   GL156317  15.027  22.404   5.666
 4333POPC   GL256318  15.122  22.034   5.690
 4333POPC   C1A56319  15.056  22.317   6.119
 4333POPC   D2A56320  14.977  22.093   6.516
 4333POPC   C3A56321  15.037  22.335   6.912
 4333POPC   C4A56322  15.235  22.263   7.315
 4333POPC   C1B56323  15.244  21.829   6.103
 4333POPC   C2B56324  15.313  21.709   6.535
 4333POPC   C3B56325  15.386  21.933   6.931
 4333POPC   C4B56326  15.403  21.778   7.339
 4334POPC   NC356327  23.419   6.894   5.467
 4334POPC   PO456328  23.969   6.512   5.604
 4334POPC   GL156329  23.694   6.779   5.877
 4334POPC   GL256330  23.552   6.486   6.057
 4334POPC   C1A56331  23.530   6.950   6.278
 4334POPC   D2A56332  23.686   6.806   6.660
 4334POPC   C3A56333  23.453   6.734   7.031
 4334POPC   C4A56334  23.682   6.826   7.406
 4334POPC   C1B56335  23.969   6.601   6.277
 4334POPC   C2B56336  24.136   6.548   6.703
 4334POPC   C3B56337  23.922   6.460   7.109
 4334POPC   C4B56338  23.911   6.070   7.434
 4335POPC   NC356339  35.638  44.194   5.170
 4335POPC   PO456340  35.142  44.657   5.459
 4335POPC   GL156341  35.131  44.673   5.926
 4335POPC   GL256342  34.864  44.879   6.066
 4335POPC   C1A56343  35.412  44.524   6.275
 4335POPC   D2A56344  35.496  44.273   6.679
 4335POPC   C3A56345  35.310  44.449   7.091
 4335POPC   C4A56346  35.373  44.557   7.543
 4335POPC   C1B56347  35.053  44.870   6.450
 4335POPC   C2B56348  35.396  44.805   6.704
 4335POPC   C3B56349  35.503  44.937   7.077
 4335POPC   C4B56350  35.152  44.977   7.372
 4336POPC   NC356351  29.275  19.244   5.227
 4336POPC   PO456352  29.685  19.138   5.715
 4336POPC   GL156353  29.259  19.286   5.819
 4336POPC   GL256354  29.081  19.533   5.631
 4336POPC   C1A56355  29.169  19.278   6.267
 4336POPC   D2A56356  29.038  19.048   6.631
 4336POPC   C3A56357  29.362  19.086   6.951
 4336POPC   C4A56358  29.453  19.435   7.183
 4336POPC   C1B56359  28.846  19.603   6.048
 4336POPC   C2B56360  28.829  19.560   6.547
 4336POPC   C3B56361  28.819  19.346   6.978
 4336POPC   C4B56362  28.919  19.450   7.428
 4337POPC   NC356363  29.748  37.254   5.314
 4337POPC   PO456364  29.717  36.601   5.112
 4337POPC   GL156365  29.773  36.824   5.559
 4337POPC   GL256366  29.980  36.650   5.785
 4337POPC   C1A56367  29.707  37.100   5.970
 4337POPC   D2A56368  29.675  37.316   6.430
 4337POPC   C3A56369  29.604  37.117   6.840
 4337POPC   C4A56370  29.768  36.993   7.247
 4337POPC   C1B56371  30.116  36.855   6.143
 4337POPC   C2B56372  29.937  36.869   6.543
 4337POPC   C3B56373  30.130  37.048   6.885
 4337POPC   C4B56374  30.306  36.965   7.266
 4338POPC   NC356375  44.469  18.049   5.394
 4338POPC   PO456376  44.624  18.610   5.570
 4338POPC   GL156377  44.549  18.351   5.820
 4338POPC   GL256378  44.805  18.116   5.782
 4338POPC   C1A56379  44.446  18.304   6.211
 4338POPC   D2A56380  44.582  18.480   6.572
 4338POPC   C3A56381  44.443  18.231   6.891
 4338POPC   C4A56382  44.498  18.250   7.305
 4338POPC   C1B56383  44.961  18.244   6.179
 4338POPC   C2B56384  44.942  18.091   6.612
 4338POPC   C3B56385  44.934  18.240   7.048
 4338POPC   C4B56386  44.877  18.603   7.396
 4339POPC   NC356387  27.411   0.292   5.403
 4339POPC   PO456388  27.217   0.944   5.634
 4339POPC   GL156389  27.394   0.549   5.853
 4339POPC   GL256390  27.265   0.167   5.859
 4339POPC   C1A56391  27.725   0.478   6.167
 4339POPC   D2A56392  27.886   0.658   6.539
 4339POPC   C3A56393  27.855   0.401   6.876
 4339POPC   C4A56394  27.637   0.489   7.203
 4339POPC   C1B56395  27.500   0.016   6.166
 4339POPC   C2B56396  27.515   0.196   6.551
 4339POPC   C3B56397  27.462   0.074   6.952
 4339POPC   C4B56398  27.388   0.095   7.401
 4340POPC   NC356399   7.626  10.422   5.475
 4340POPC   PO456400   7.201  10.920   5.550
 4340POPC   GL156401   7.414  10.707   5.899
 4340POPC   GL256402   7.774  10.593   5.922
 4340POPC   C1A56403   7.479  10.629   6.333
 4340POPC   D2A56404   7.268  10.370   6.623
 4340POPC   C3A56405   7.292  10.525   7.050
 4340POPC   C4A56406   7.226  10.781   7.387
 4340POPC   C1B56407   7.626  10.179   6.114
 4340POPC   C2B56408   7.731   9.993   6.514
 4340POPC   C3B56409   7.690  10.213   6.881
 4340POPC   C4B56410   7.751  10.435   7.232
 4341POPC   NC356411  33.636  10.766   5.380
 4341POPC   PO456412  33.883  10.124   5.163
 4341POPC   GL156413  33.668  10.247   5.560
 4341POPC   GL256414  33.910  10.387   5.762
 4341POPC   C1A56415  33.520  10.187   6.001
 4341POPC   D2A56416  33.743  10.103   6.405
 4341POPC   C3A56417  33.777  10.307   6.850
 4341POPC   C4A56418  33.597  10.271   7.272
 4341POPC   C1B56419  33.772  10.644   6.085
 4341POPC   C2B56420  33.713  10.705   6.510
 4341POPC   C3B56421  33.943  10.835   6.857
 4341POPC   C4B56422  33.724  10.767   7.248
 4342POPC   NC356423   8.354   2.418   5.189
 4342POPC   PO456424   8.210   1.698   5.247
 4342POPC   GL156425   8.194   2.054   5.608
 4342POPC   GL256426   8.518   2.116   5.789
 4342POPC   C1A56427   8.101   2.050   6.111
 4342POPC   D2A56428   8.372   1.850   6.461
 4342POPC   C3A56429   8.164   1.786   6.886
 4342POPC   C4A56430   7.980   1.943   7.284
 4342POPC   C1B56431   8.511   2.304   6.199
 4342POPC   C2B56432   8.232   2.312   6.599
 4342POPC   C3B56433   8.240   2.333   7.046
 4342POPC   C4B56434   8.007   2.439   7.410
 4343POPC   NC356435  25.212   6.909   5.309
 4343POPC   PO456436  25.571   6.449   5.557
 4343POPC   GL156437  25.292   6.727   5.819
 4343POPC   GL256438  25.305   6.438   6.059
 4343POPC   C1A56439  25.073   6.827   6.248
 4343POPC   D2A56440  25.024   6.462   6.536
 4343POPC   C3A56441  25.111   6.495   6.983
 4343POPC   C4A56442  25.185   6.627   7.423
 4343POPC   C1B56443  25.585   6.788   6.236
 4343POPC   C2B56444  25.503   6.947   6.642
 4343POPC   C3B56445  25.512   6.815   7.055
 4343POPC   C4B56446  25.698   6.759   7.460
 4344POPC   NC356447  40.331  31.484   5.526
 4344POPC   PO456448  41.129  31.765   5.426
 4344POPC   GL156449  40.980  31.662   5.801
 4344POPC   GL256450  40.765  31.416   5.802
 4344POPC   C1A56451  41.165  31.397   6.139
 4344POPC   D2A56452  41.318  31.521   6.538
 4344POPC   C3A56453  41.075  31.425   6.912
 4344POPC   C4A56454  40.944  31.568   7.318
 4344POPC   C1B56455  40.707  31.601   6.222
 4344POPC   C2B56456  40.555  31.463   6.606
 4344POPC   C3B56457  40.618  31.711   6.946
 4344POPC   C4B56458  40.453  31.822   7.319
 4345POPC   NC356459  25.684  11.320   5.557
 4345POPC   PO456460  24.990  11.301   5.549
 4345POPC   GL156461  25.271  11.273   5.915
 4345POPC   GL256462  25.400  10.968   5.841
 4345POPC   C1A56463  25.319  11.320   6.392
 4345POPC   D2A56464  25.160  11.100   6.782
 4345POPC   C3A56465  25.214  11.354   7.160
 4345POPC   C4A56466  25.207  11.358   7.607
 4345POPC   C1B56467  25.672  11.023   6.190
 4345POPC   C2B56468  25.646  10.973   6.638
 4345POPC   C3B56469  25.611  11.001   7.078
 4345POPC   C4B56470  25.576  11.012   7.540
 4346POPC   NC356471  44.497   5.094   5.387
 4346POPC   PO456472  44.931   4.642   5.693
 4346POPC   GL156473  44.639   4.898   5.870
 4346POPC   GL256474  44.255   4.885   5.770
 4346POPC   C1A56475  44.797   5.178   6.203
 4346POPC   D2A56476  44.643   5.397   6.549
 4346POPC   C3A56477  44.688   5.269   6.965
 4346POPC   C4A56478  44.909   5.009   7.224
 4346POPC   C1B56479  44.293   5.149   6.142
 4346POPC   C2B56480  44.151   5.080   6.551
 4346POPC   C3B56481  44.325   4.894   6.903
 4346POPC   C4B56482  44.417   4.972   7.323
 4347POPC   NC356483  13.628  18.475   5.389
 4347POPC   PO456484  13.881  17.861   5.251
 4347POPC   GL156485  13.801  18.098   5.718
 4347POPC   GL256486  13.459  18.273   5.828
 4347POPC   C1A56487  13.831  18.458   6.087
 4347POPC   D2A56488  13.834  18.713   6.493
 4347POPC   C3A56489  13.590  18.622   6.883
 4347POPC   C4A56490  13.703  18.454   7.301
 4347POPC   C1B56491  13.444  18.075   6.243
 4347POPC   C2B56492  13.403  18.161   6.718
 4347POPC   C3B56493  13.459  18.030   7.166
 4347POPC   C4B56494  13.787  17.951   7.508
 4348POPC   NC356495  18.310  27.062   5.407
 4348POPC   PO456496  18.372  26.423   5.155
 4348POPC   GL156497  18.307  26.564   5.643
 4348POPC   GL256498  18.081  26.819   5.816
 4348POPC   C1A56499  18.517  26.758   6.052
 4348POPC   D2A56500  18.425  26.983   6.438
 4348POPC   C3A56501  18.391  26.817   6.849
 4348POPC   C4A56502  18.538  26.889   7.251
 4348POPC   C1B56503  17.951  27.064   6.204
 4348POPC   C2B56504  17.962  27.091   6.649
 4348POPC   C3B56505  17.832  27.113   7.054
 4348POPC   C4B56506  18.055  26.892   7.360
 4349POPC   NC356507  44.614   9.238   5.144
 4349POPC   PO456508  44.546   9.857   5.104
 4349POPC   GL156509  44.588   9.742   5.679
 4349POPC   GL256510  44.701   9.461   5.822
 4349POPC   C1A56511  44.325   9.758   6.093
 4349POPC   D2A56512  44.120   9.784   6.529
 4349POPC   C3A56513  44.359   9.784   6.929
 4349POPC   C4A56514  44.413   9.521   7.298
 4349POPC   C1B56515  44.570   9.305   6.216
 4349POPC   C2B56516  44.658   9.483   6.629
 4349POPC   C3B56517  44.839   9.500   7.034
 4349POPC   C4B56518  44.809   9.900   7.232
 4350POPC   NC356519   1.697  42.246   5.361
 4350POPC   PO456520   1.058  42.246   5.293
 4350POPC   GL156521   1.194  42.144   5.710
 4350POPC   GL256522   1.533  42.100   5.825
 4350POPC   C1A56523   1.097  42.048   6.142
 4350POPC   D2A56524   1.290  42.140   6.536
 4350POPC   C3A56525   1.065  42.366   6.871
 4350POPC   C4A56526   0.777  42.233   7.185
 4350POPC   C1B56527   1.689  41.980   6.225
 4350POPC   C2B56528   1.746  41.890   6.674
 4350POPC   C3B56529   1.519  42.140   6.996
 4350POPC   C4B56530   1.432  42.548   7.199
 4351POPC   NC356531  24.092  37.573   5.346
 4351POPC   PO456532  24.586  37.222   5.256
 4351POPC   GL156533  24.390  37.342   5.704
 4351POPC   GL256534  24.405  37.734   5.713
 4351POPC   C1A56535  24.429  37.531   6.178
 4351POPC   D2A56536  24.271  37.525   6.627
 4351POPC   C3A56537  24.571  37.586   6.971
 4351POPC   C4A56538  24.693  37.505   7.391
 4351POPC   C1B56539  24.349  38.041   6.060
 4351POPC   C2B56540  24.397  38.001   6.467
 4351POPC   C3B56541  24.366  38.090   6.877
 4351POPC   C4B56542  24.333  37.927   7.273
 4352POPC   NC356543  28.306  19.330   5.462
 4352POPC   PO456544  28.338  19.980   5.405
 4352POPC   GL156545  28.448  19.764   5.785
 4352POPC   GL256546  28.154  19.843   5.926
 4352POPC   C1A56547  28.478  19.847   6.303
 4352POPC   D2A56548  28.336  20.001   6.701
 4352POPC   C3A56549  28.643  20.036   6.987
 4352POPC   C4A56550  28.560  19.977   7.362
 4352POPC   C1B56551  28.275  19.438   6.128
 4352POPC   C2B56552  28.339  19.408   6.595
 4352POPC   C3B56553  28.380  19.589   7.036
 4352POPC   C4B56554  28.071  19.449   7.325
 4353POPC   NC356555  40.455  17.993   5.022
 4353POPC   PO456556  40.187  18.408   5.507
 4353POPC   GL156557  39.992  18.164   5.838
 4353POPC   GL256558  40.250  17.953   6.017
 4353POPC   C1A56559  39.646  18.170   6.165
 4353POPC   D2A56560  39.564  18.324   6.595
 4353POPC   C3A56561  39.813  18.198   6.970
 4353POPC   C4A56562  39.632  17.994   7.380
 4353POPC   C1B56563  40.126  18.247   6.319
 4353POPC   C2B56564  40.288  18.386   6.686
 4353POPC   C3B56565  40.302  18.411   7.103
 4353POPC   C4B56566  40.075  18.271   7.411
 4354POPC   NC356567  19.932  17.815   5.350
 4354POPC   PO456568  20.190  17.179   5.345
 4354POPC   GL156569  19.984  17.428   5.685
 4354POPC   GL256570  19.856  17.160   5.843
 4354POPC   C1A56571  19.861  17.634   6.091
 4354POPC   D2A56572  19.623  17.467   6.497
 4354POPC   C3A56573  19.787  17.501   6.937
 4354POPC   C4A56574  19.913  17.640   7.372
 4354POPC   C1B56575  19.992  17.186   6.263
 4354POPC   C2B56576  19.946  17.085   6.654
 4354POPC   C3B56577  20.084  17.108   7.057
 4354POPC   C4B56578  19.669  17.010   7.093
 4355POPC   NC356579  18.908  29.703   5.593
 4355POPC   PO456580  19.326  30.177   5.363
 4355POPC   GL156581  19.101  30.131   5.763
 4355POPC   GL256582  18.870  30.371   5.912
 4355POPC   C1A56583  19.188  29.891   6.141
 4355POPC   D2A56584  19.258  29.672   6.508
 4355POPC   C3A56585  19.120  29.840   6.923
 4355POPC   C4A56586  19.249  29.893   7.350
 4355POPC   C1B56587  18.789  30.150   6.315
 4355POPC   C2B56588  18.721  29.775   6.595
 4355POPC   C3B56589  18.715  29.528   6.986
 4355POPC   C4B56590  18.755  29.693   7.403
 4356POPC   NC356591  20.072   9.443   5.322
 4356POPC   PO456592  19.641   9.933   5.440
 4356POPC   GL156593  19.809   9.855   5.861
 4356POPC   GL256594  19.997   9.550   5.833
 4356POPC   C1A56595  19.756   9.692   6.297
 4356POPC   D2A56596  19.777   9.542   6.729
 4356POPC   C3A56597  19.597   9.818   7.019
 4356POPC   C4A56598  19.750  10.198   7.210
 4356POPC   C1B56599  20.010   9.263   6.176
 4356POPC   C2B56600  20.200   9.234   6.592
 4356POPC   C3B56601  20.066   9.240   7.024
 4356POPC   C4B56602  20.042   9.653   7.219
 4357POPC   NC356603  32.540  11.808   5.474
 4357POPC   PO456604  31.942  11.939   5.238
 4357POPC   GL156605  32.075  11.835   5.706
 4357POPC   GL256606  32.270  12.122   5.785
 4357POPC   C1A56607  32.383  11.761   6.124
 4357POPC   D2A56608  32.595  11.732   6.555
 4357POPC   C3A56609  32.325  11.931   6.876
 4357POPC   C4A56610  31.973  11.883   7.155
 4357POPC   C1B56611  32.583  12.273   6.089
 4357POPC   C2B56612  32.665  12.467   6.506
 4357POPC   C3B56613  32.684  12.340   6.926
 4357POPC   C4B56614  32.324  12.340   7.223
 4358POPC   NC356615   8.197  20.972   5.294
 4358POPC   PO456616   8.079  21.610   5.351
 4358POPC   GL156617   8.144  21.413   5.786
 4358POPC   GL256618   8.384  21.137   5.734
 4358POPC   C1A56619   7.941  21.346   6.223
 4358POPC   D2A56620   7.805  21.397   6.662
 4358POPC   C3A56621   8.165  21.506   6.896
 4358POPC   C4A56622   8.285  21.438   7.319
 4358POPC   C1B56623   8.414  21.143   6.178
 4358POPC   C2B56624   8.246  21.101   6.598
 4358POPC   C3B56625   8.443  21.075   7.014
 4358POPC   C4B56626   8.533  20.979   7.464
 4359POPC   NC356627  32.015  39.634   5.399
 4359POPC   PO456628  32.427  40.134   5.425
 4359POPC   GL156629  32.323  39.870   5.762
 4359POPC   GL256630  32.001  40.047   5.785
 4359POPC   C1A56631  32.272  39.916   6.210
 4359POPC   D2A56632  32.263  40.214   6.551
 4359POPC   C3A56633  32.242  39.958   6.903
 4359POPC   C4A56634  32.413  39.816   7.256
 4359POPC   C1B56635  32.097  40.388   6.090
 4359POPC   C2B56636  31.909  40.575   6.490
 4359POPC   C3B56637  31.924  40.366   6.898
 4359POPC   C4B56638  32.231  40.322   7.252
 4360POPC   NC356639  34.507  18.222   5.266
 4360POPC   PO456640  35.063  18.176   5.585
 4360POPC   GL156641  34.687  18.290   5.783
 4360POPC   GL256642  34.797  18.619   5.870
 4360POPC   C1A56643  34.364  18.431   6.111
 4360POPC   D2A56644  34.235  18.347   6.560
 4360POPC   C3A56645  34.504  18.438   6.929
 4360POPC   C4A56646  34.745  18.164   7.192
 4360POPC   C1B56647  34.870  18.397   6.270
 4360POPC   C2B56648  34.950  18.300   6.687
 4360POPC   C3B56649  35.184  18.321   7.034
 4360POPC   C4B56650  35.121  18.464   7.497
 4361POPC   NC356651   7.930  23.139   5.301
 4361POPC   PO456652   8.027  22.526   5.504
 4361POPC   GL156653   8.123  22.626   5.892
 4361POPC   GL256654   8.218  22.970   5.805
 4361POPC   C1A56655   8.446  22.719   6.204
 4361POPC   D2A56656   8.598  22.968   6.531
 4361POPC   C3A56657   8.436  22.987   6.956
 4361POPC   C4A56658   8.597  22.705   7.206
 4361POPC   C1B56659   7.997  22.985   6.220
 4361POPC   C2B56660   8.039  22.902   6.629
 4361POPC   C3B56661   7.874  23.090   6.985
 4361POPC   C4B56662   7.992  23.143   7.420
 4362POPC   NC356663  11.562  20.187   5.539
 4362POPC   PO456664  11.469  20.825   5.285
 4362POPC   GL156665  11.315  20.611   5.717
 4362POPC   GL256666  11.109  20.342   5.910
 4362POPC   C1A56667  11.217  20.778   6.141
 4362POPC   D2A56668  11.207  20.714   6.561
 4362POPC   C3A56669  11.225  20.402   6.884
 4362POPC   C4A56670  11.463  20.505   7.251
 4362POPC   C1B56671  11.461  20.337   6.196
 4362POPC   C2B56672  11.546  20.134   6.562
 4362POPC   C3B56673  11.723  20.210   6.934
 4362POPC   C4B56674  11.674  20.042   7.338
 4363POPC   NC356675  23.374   0.391   5.426
 4363POPC   PO456676  23.949   0.169   5.394
 4363POPC   GL156677  23.750   0.442   5.775
 4363POPC   GL256678  23.420   0.673   5.834
 4363POPC   C1A56679  23.779   0.543   6.221
 4363POPC   D2A56680  24.094   0.680   6.544
 4363POPC   C3A56681  23.981   0.548   6.947
 4363POPC   C4A56682  23.715   0.424   7.259
 4363POPC   C1B56683  23.283   0.381   6.146
 4363POPC   C2B56684  23.324   0.457   6.556
 4363POPC   C3B56685  23.330   0.312   6.954
 4363POPC   C4B56686  23.255   0.575   7.317
 4364POPC   NC356687  21.220   7.307   5.309
 4364POPC   PO456688  21.671   7.717   5.514
 4364POPC   GL156689  21.419   7.479   5.827
 4364POPC   GL256690  21.261   7.145   5.781
 4364POPC   C1A56691  21.252   7.661   6.227
 4364POPC   D2A56692  21.352   7.582   6.666
 4364POPC   C3A56693  21.282   7.784   7.054
 4364POPC   C4A56694  21.336   7.472   7.396
 4364POPC   C1B56695  21.372   7.020   6.210
 4364POPC   C2B56696  21.557   7.111   6.613
 4364POPC   C3B56697  21.346   7.117   6.994
 4364POPC   C4B56698  21.278   6.924   7.369
 4365POPC   NC356699  42.679  36.019   5.618
 4365POPC   PO456700  43.278  35.835   5.455
 4365POPC   GL156701  43.165  36.108   5.780
 4365POPC   GL256702  43.245  36.456   5.804
 4365POPC   C1A56703  43.207  36.097   6.205
 4365POPC   D2A56704  43.348  36.326   6.525
 4365POPC   C3A56705  43.163  36.169   6.890
 4365POPC   C4A56706  43.235  36.372   7.260
 4365POPC   C1B56707  42.977  36.566   6.166
 4365POPC   C2B56708  42.832  36.418   6.584
 4365POPC   C3B56709  42.790  36.530   7.019
 4365POPC   C4B56710  42.772  36.406   7.455
 4366POPC   NC356711   1.950   3.293   5.457
 4366POPC   PO456712   2.379   3.703   5.213
 4366POPC   GL156713   2.194   3.697   5.705
 4366POPC   GL256714   1.852   3.613   5.848
 4366POPC   C1A56715   2.231   3.580   6.183
 4366POPC   D2A56716   2.066   3.394   6.562
 4366POPC   C3A56717   1.769   3.563   6.834
 4366POPC   C4A56718   1.947   3.619   7.217
 4366POPC   C1B56719   1.855   3.222   6.120
 4366POPC   C2B56720   1.615   3.086   6.458
 4366POPC   C3B56721   1.484   3.135   6.875
 4366POPC   C4B56722   1.624   3.244   7.288
 4367POPC   NC356723  43.243  24.479   4.931
 4367POPC   PO456724  43.274  24.462   5.585
 4367POPC   GL156725  42.906  24.459   5.849
 4367POPC   GL256726  42.769  24.781   5.885
 4367POPC   C1A56727  42.842  24.440   6.304
 4367POPC   D2A56728  43.005  24.201   6.655
 4367POPC   C3A56729  43.313  24.377   6.941
 4367POPC   C4A56730  43.057  24.564   7.249
 4367POPC   C1B56731  43.069  24.896   6.202
 4367POPC   C2B56732  43.170  24.767   6.630
 4367POPC   C3B56733  43.347  24.959   7.006
 4367POPC   C4B56734  43.527  24.703   7.287
 4368POPC   NC356735   1.390  25.232   5.284
 4368POPC   PO456736   1.254  25.760   5.658
 4368POPC   GL156737   1.240  25.288   5.781
 4368POPC   GL256738   1.040  24.993   5.625
 4368POPC   C1A56739   1.408  25.053   6.149
 4368POPC   D2A56740   1.556  25.260   6.523
 4368POPC   C3A56741   1.265  25.265   6.871
 4368POPC   C4A56742   1.487  25.155   7.223
 4368POPC   C1B56743   0.890  25.022   6.066
 4368POPC   C2B56744   1.028  24.907   6.516
 4368POPC   C3B56745   0.855  24.935   6.940
 4368POPC   C4B56746   0.845  25.229   7.291
 4369POPC   NC356747  17.330   7.824   5.497
 4369POPC   PO456748  17.829   7.313   5.632
 4369POPC   GL156749  17.670   7.657   5.827
 4369POPC   GL256750  17.354   7.454   5.886
 4369POPC   C1A56751  17.486   7.778   6.221
 4369POPC   D2A56752  17.506   7.534   6.578
 4369POPC   C3A56753  17.399   7.647   6.966
 4369POPC   C4A56754  17.541   7.420   7.357
 4369POPC   C1B56755  17.160   7.307   6.299
 4369POPC   C2B56756  17.093   7.245   6.785
 4369POPC   C3B56757  17.042   7.356   7.244
 4369POPC   C4B56758  17.052   7.053   7.630
 4370POPC   NC356759   4.602  25.522   5.020
 4370POPC   PO456760   3.954  25.344   5.251
 4370POPC   GL156761   4.244  25.263   5.657
 4370POPC   GL256762   4.611  25.271   5.565
 4370POPC   C1A56763   4.390  25.128   6.130
 4370POPC   D2A56764   4.435  24.973   6.599
 4370POPC   C3A56765   4.182  25.193   6.932
 4370POPC   C4A56766   3.893  25.450   7.191
 4370POPC   C1B56767   4.799  25.415   5.966
 4370POPC   C2B56768   4.746  25.400   6.417
 4370POPC   C3B56769   4.699  25.341   6.838
 4370POPC   C4B56770   4.587  25.280   7.237
 4371POPC   NC356771  44.569  29.406   5.302
 4371POPC   PO456772  44.331  28.820   5.474
 4371POPC   GL156773  44.638  28.965   5.769
 4371POPC   GL256774  44.515  29.290   5.787
 4371POPC   C1A56775  44.880  28.989   6.175
 4371POPC   D2A56776   0.110  29.011   6.594
 4371POPC   C3A56777  44.934  28.849   6.989
 4371POPC   C4A56778  44.828  29.110   7.375
 4371POPC   C1B56779  44.419  29.222   6.200
 4371POPC   C2B56780  44.556  29.117   6.584
 4371POPC   C3B56781  44.486  29.094   6.984
 4371POPC   C4B56782  44.469  29.417   7.232
 4372POPC   NC356783  37.338  20.381   5.508
 4372POPC   PO456784  36.647  20.435   5.314
 4372POPC   GL156785  36.904  20.611   5.695
 4372POPC   GL256786  36.835  20.951   5.803
 4372POPC   C1A56787  37.153  20.614   6.116
 4372POPC   D2A56788  37.178  20.379   6.525
 4372POPC   C3A56789  37.172  20.568   6.947
 4372POPC   C4A56790  37.044  20.510   7.390
 4372POPC   C1B56791  36.669  20.807   6.185
 4372POPC   C2B56792  36.876  20.819   6.602
 4372POPC   C3B56793  36.710  20.735   7.045
 4372POPC   C4B56794  36.420  20.925   7.334
 4373POPC   NC356795  29.275  41.869   5.472
 4373POPC   PO456796  28.859  41.393   5.603
 4373POPC   GL156797  29.123  41.632   5.901
 4373POPC   GL256798  29.512  41.524   5.825
 4373POPC   C1A56799  29.005  41.869   6.297
 4373POPC   D2A56800  28.821  41.668   6.663
 4373POPC   C3A56801  29.029  41.568   7.063
 4373POPC   C4A56802  28.873  41.462   7.469
 4373POPC   C1B56803  29.473  41.631   6.267
 4373POPC   C2B56804  29.345  41.752   6.674
 4373POPC   C3B56805  29.478  41.838   7.099
 4373POPC   C4B56806  29.252  41.999   7.426
 4374POPC   NC356807   5.760  10.549   5.504
 4374POPC   PO456808   6.412  10.803   5.503
 4374POPC   GL156809   6.114  10.674   5.848
 4374POPC   GL256810   6.029  10.328   5.883
 4374POPC   C1A56811   5.928  10.637   6.269
 4374POPC   D2A56812   5.928  10.332   6.607
 4374POPC   C3A56813   5.854  10.544   6.995
 4374POPC   C4A56814   5.759  10.936   7.153
 4374POPC   C1B56815   5.674  10.200   6.167
 4374POPC   C2B56816   5.427  10.243   6.573
 4374POPC   C3B56817   5.589  10.108   6.991
 4374POPC   C4B56818   5.785  10.213   7.380
 4375POPC   NC356819  40.005  31.727   5.098
 4375POPC   PO456820  39.849  31.417   5.646
 4375POPC   GL156821  40.074  31.637   5.958
 4375POPC   GL256822  40.298  31.384   6.037
 4375POPC   C1A56823  40.103  31.662   6.411
 4375POPC   D2A56824  40.183  31.951   6.739
 4375POPC   C3A56825  40.020  31.712   7.066
 4375POPC   C4A56826  39.751  31.369   7.203
 4375POPC   C1B56827  39.877  31.214   6.240
 4375POPC   C2B56828  39.708  31.302   6.642
 4375POPC   C3B56829  40.105  31.257   6.818
 4375POPC   C4B56830  40.353  31.325   7.165
 4376POPC   NC356831  41.648  30.388   5.557
 4376POPC   PO456832  41.222  30.852   5.590
 4376POPC   GL156833  41.259  30.479   5.871
 4376POPC   GL256834  41.023  30.589   6.046
 4376POPC   C1A56835  41.488  30.360   6.221
 4376POPC   D2A56836  41.561  30.560   6.615
 4376POPC   C3A56837  41.530  30.397   7.021
 4376POPC   C4A56838  41.481  30.591   7.404
 4376POPC   C1B56839  41.347  30.892   6.219
 4376POPC   C2B56840  41.501  31.056   6.597
 4376POPC   C3B56841  41.619  30.924   7.007
 4376POPC   C4B56842  41.265  31.047   7.230
 4377POPC   NC356843  42.762  38.477   5.288
 4377POPC   PO456844  43.439  38.712   5.210
 4377POPC   GL156845  43.158  38.712   5.626
 4377POPC   GL256846  42.808  38.859   5.677
 4377POPC   C1A56847  42.954  38.443   5.991
 4377POPC   D2A56848  42.953  38.130   6.376
 4377POPC   C3A56849  43.141  38.311   6.790
 4377POPC   C4A56850  43.497  38.412   7.126
 4377POPC   C1B56851  42.610  38.818   6.088
 4377POPC   C2B56852  42.729  38.618   6.480
 4377POPC   C3B56853  42.767  38.651   6.933
 4377POPC   C4B56854  43.083  38.719   7.259
 4378POPC   NC356855  32.801  38.266   5.420
 4378POPC   PO456856  32.829  38.945   5.413
 4378POPC   GL156857  32.957  38.667   5.814
 4378POPC   GL256858  33.005  38.302   5.868
 4378POPC   C1A56859  33.191  38.600   6.227
 4378POPC   D2A56860  33.252  38.362   6.616
 4378POPC   C3A56861  33.254  38.636   6.962
 4378POPC   C4A56862  33.197  38.739   7.399
 4378POPC   C1B56863  33.117  38.062   6.213
 4378POPC   C2B56864  32.992  37.857   6.594
 4378POPC   C3B56865  32.864  38.126   6.910
 4378POPC   C4B56866  33.052  38.267   7.253
 4379POPC   NC356867  35.613   2.885   5.325
 4379POPC   PO456868  34.987   2.838   5.419
 4379POPC   GL156869  35.251   2.951   5.823
 4379POPC   GL256870  35.536   2.717   5.871
 4379POPC   C1A56871  35.400   2.931   6.319
 4379POPC   D2A56872  35.484   2.678   6.723
 4379POPC   C3A56873  35.370   2.817   7.138
 4379POPC   C4A56874  35.107   2.769   7.491
 4379POPC   C1B56875  35.711   2.507   6.284
 4379POPC   C2B56876  35.901   2.384   6.719
 4379POPC   C3B56877  35.696   2.386   7.136
 4379POPC   C4B56878  35.628   2.596   7.548
 4380POPC   NC356879  39.468   7.994   5.452
 4380POPC   PO456880  38.972   8.452   5.558
 4380POPC   GL156881  39.106   8.109   5.841
 4380POPC   GL256882  39.397   8.307   5.892
 4380POPC   C1A56883  39.032   8.041   6.302
 4380POPC   D2A56884  38.911   8.250   6.723
 4380POPC   C3A56885  39.196   8.190   7.090
 4380POPC   C4A56886  39.268   8.309   7.550
 4380POPC   C1B56887  39.561   8.040   6.212
 4380POPC   C2B56888  39.674   8.037   6.634
 4380POPC   C3B56889  39.665   7.918   7.048
 4380POPC   C4B56890  39.428   7.867   7.414
 4381POPC   NC356891   2.217  35.647   5.643
 4381POPC   PO456892   2.065  36.302   5.353
 4381POPC   GL156893   2.018  36.114   5.769
 4381POPC   GL256894   1.686  35.976   5.732
 4381POPC   C1A56895   2.223  36.339   6.147
 4381POPC   D2A56896   2.341  36.381   6.588
 4381POPC   C3A56897   2.155  36.053   6.787
 4381POPC   C4A56898   1.876  35.892   7.095
 4381POPC   C1B56899   1.729  35.742   6.158
 4381POPC   C2B56900   1.713  35.884   6.596
 4381POPC   C3B56901   1.731  36.318   6.843
 4381POPC   C4B56902   2.034  36.625   7.034
 4382POPC   NC356903  35.783  24.159   5.051
 4382POPC   PO456904  36.031  23.589   5.271
 4382POPC   GL156905  36.099  23.668   5.697
 4382POPC   GL256906  35.755  23.663   5.763
 4382POPC   C1A56907  36.316  23.666   6.096
 4382POPC   D2A56908  36.282  23.485   6.502
 4382POPC   C3A56909  36.178  23.774   6.846
 4382POPC   C4A56910  36.397  23.842   7.217
 4382POPC   C1B56911  35.838  23.426   6.157
 4382POPC   C2B56912  35.714  23.521   6.595
 4382POPC   C3B56913  35.714  23.570   7.036
 4382POPC   C4B56914  35.848  23.315   7.366
 4383POPC   NC356915  34.926  23.682   5.246
 4383POPC   PO456916  34.371  23.388   5.463
 4383POPC   GL156917  34.478  23.722   5.746
 4383POPC   GL256918  34.726  23.981   5.624
 4383POPC   C1A56919  34.403  23.651   6.195
 4383POPC   D2A56920  34.300  23.454   6.595
 4383POPC   C3A56921  34.478  23.646   6.960
 4383POPC   C4A56922  34.829  23.558   7.232
 4383POPC   C1B56923  34.838  23.927   6.076
 4383POPC   C2B56924  34.697  23.925   6.509
 4383POPC   C3B56925  34.888  23.928   6.878
 4383POPC   C4B56926  34.816  24.092   7.291
 4384POPC   NC356927  33.853   1.366   5.372
 4384POPC   PO456928  33.913   0.685   5.334
 4384POPC   GL156929  33.888   0.928   5.771
 4384POPC   GL256930  33.887   1.287   5.860
 4384POPC   C1A56931  33.673   1.030   6.221
 4384POPC   D2A56932  33.709   1.268   6.612
 4384POPC   C3A56933  33.695   1.054   6.978
 4384POPC   C4A56934  33.959   1.035   7.352
 4384POPC   C1B56935  34.006   1.447   6.243
 4384POPC   C2B56936  34.182   1.468   6.667
 4384POPC   C3B56937  33.967   1.475   7.058
 4384POPC   C4B56938  34.138   1.606   7.429
 4385POPC   NC356939  10.947  38.407   5.307
 4385POPC   PO456940  10.313  38.245   5.381
 4385POPC   GL156941  10.607  38.375   5.730
 4385POPC   GL256942  10.697  38.723   5.851
 4385POPC   C1A56943  10.481  38.367   6.167
 4385POPC   D2A56944  10.628  38.319   6.577
 4385POPC   C3A56945  10.375  38.481   6.878
 4385POPC   C4A56946  10.200  38.516   7.260
 4385POPC   C1B56947  10.883  38.708   6.296
 4385POPC   C2B56948  10.818  38.773   6.761
 4385POPC   C3B56949  10.694  38.800   7.211
 4385POPC   C4B56950  10.920  38.884   7.619
 4386POPC   NC356951  32.583  23.573   5.282
 4386POPC   PO456952  32.037  23.878   5.429
 4386POPC   GL156953  32.062  23.615   5.812
 4386POPC   GL256954  32.356  23.378   5.779
 4386POPC   C1A56955  32.178  23.558   6.262
 4386POPC   D2A56956  32.236  23.769   6.655
 4386POPC   C3A56957  31.975  23.608   6.946
 4386POPC   C4A56958  32.099  23.538   7.337
 4386POPC   C1B56959  32.610  23.292   6.159
 4386POPC   C2B56960  32.618  23.448   6.572
 4386POPC   C3B56961  32.480  23.411   7.009
 4386POPC   C4B56962  32.567  23.400   7.497
 4387POPC   NC356963  21.896   7.221   5.464
 4387POPC   PO456964  22.559   7.440   5.374
 4387POPC   GL156965  22.317   7.307   5.769
 4387POPC   GL256966  22.011   7.485   5.880
 4387POPC   C1A56967  22.367   7.263   6.217
 4387POPC   D2A56968  22.218   7.166   6.625
 4387POPC   C3A56969  22.436   7.305   6.958
 4387POPC   C4A56970  22.178   7.347   7.266
 4387POPC   C1B56971  21.747   7.455   6.240
 4387POPC   C2B56972  21.861   7.532   6.654
 4387POPC   C3B56973  21.724   7.488   7.057
 4387POPC   C4B56974  21.726   7.844   7.326
 4388POPC   NC356975  11.083  33.498   5.418
 4388POPC   PO456976  11.293  34.123   5.222
 4388POPC   GL156977  11.339  33.909   5.651
 4388POPC   GL256978  11.477  33.594   5.721
 4388POPC   C1A56979  11.386  33.872   6.144
 4388POPC   D2A56980  11.552  33.932   6.600
 4388POPC   C3A56981  11.285  33.751   6.952
 4388POPC   C4A56982  10.966  33.964   7.214
 4388POPC   C1B56983  11.702  33.468   6.105
 4388POPC   C2B56984  11.826  33.502   6.552
 4388POPC   C3B56985  11.624  33.346   6.967
 4388POPC   C4B56986  11.429  33.460   7.386
 4389POPC   NC356987   1.784  24.322   5.417
 4389POPC   PO456988   2.400  24.545   5.130
 4389POPC   GL156989   2.260  24.483   5.651
 4389POPC   GL256990   2.080  24.256   5.847
 4389POPC   C1A56991   2.356  24.487   6.173
 4389POPC   D2A56992   2.038  24.539   6.524
 4389POPC   C3A56993   2.111  24.493   6.949
 4389POPC   C4A56994   1.836  24.797   7.110
 4389POPC   C1B56995   1.771  24.319   6.145
 4389POPC   C2B56996   1.669  24.190   6.578
 4389POPC   C3B56997   1.658  24.280   7.007
 4389POPC   C4B56998   1.771  24.079   7.396
 4390POPC   NC356999   3.105  13.961   5.378
 4390POPC   PO457000   2.569  14.310   5.294
 4390POPC   GL157001   2.709  14.382   5.739
 4390POPC   GL257002   2.977  14.149   5.829
 4390POPC   C1A57003   2.588  14.215   6.164
 4390POPC   D2A57004   2.830  14.101   6.543
 4390POPC   C3A57005   2.599  14.063   6.940
 4390POPC   C4A57006   2.507  14.325   7.295
 4390POPC   C1B57007   3.064  14.419   6.178
 4390POPC   C2B57008   3.209  14.511   6.576
 4390POPC   C3B57009   2.968  14.449   6.934
 4390POPC   C4B57010   2.979  14.204   7.280
 4391POPC   NC357011   4.384   1.593   5.356
 4391POPC   PO457012   4.108   2.168   5.499
 4391POPC   GL157013   4.288   1.914   5.861
 4391POPC   GL257014   4.633   1.824   5.771
 4391POPC   C1A57015   4.385   2.012   6.325
 4391POPC   D2A57016   4.317   2.350   6.654
 4391POPC   C3A57017   4.263   2.157   7.050
 4391POPC   C4A57018   3.951   1.816   7.131
 4391POPC   C1B57019   4.695   1.633   6.165
 4391POPC   C2B57020   4.826   1.754   6.567
 4391POPC   C3B57021   4.441   1.744   6.792
 4391POPC   C4B57022   4.435   1.696   7.224
 4392POPC   NC357023  22.780  19.287   5.560
 4392POPC   PO457024  23.362  19.011   5.363
 4392POPC   GL157025  23.196  18.989   5.787
 4392POPC   GL257026  22.851  18.875   5.840
 4392POPC   C1A57027  23.208  19.126   6.225
 4392POPC   D2A57028  23.370  19.151   6.633
 4392POPC   C3A57029  23.013  19.223   6.936
 4392POPC   C4A57030  23.038  19.339   7.363
 4392POPC   C1B57031  22.715  19.012   6.241
 4392POPC   C2B57032  22.935  18.851   6.581
 4392POPC   C3B57033  22.886  18.668   6.954
 4392POPC   C4B57034  22.853  18.859   7.326
 4393POPC   NC357035  12.824  32.009   5.332
 4393POPC   PO457036  12.650  32.679   5.521
 4393POPC   GL157037  12.903  32.400   5.791
 4393POPC   GL257038  13.031  32.027   5.790
 4393POPC   C1A57039  12.988  32.438   6.224
 4393POPC   D2A57040  13.112  32.603   6.639
 4393POPC   C3A57041  12.880  32.430   6.995
 4393POPC   C4A57042  12.541  32.218   7.229
 4393POPC   C1B57043  13.195  31.985   6.207
 4393POPC   C2B57044  13.042  32.080   6.596
 4393POPC   C3B57045  13.225  32.073   6.970
 4393POPC   C4B57046  12.988  32.037   7.341
 4394POPC   NC357047  16.095  23.794   5.344
 4394POPC   PO457048  15.648  23.258   5.432
 4394POPC   GL157049  15.902  23.514   5.727
 4394POPC   GL257050  15.821  23.916   5.747
 4394POPC   C1A57051  16.060  23.658   6.130
 4394POPC   D2A57052  15.884  23.724   6.532
 4394POPC   C3A57053  16.127  23.678   6.891
 4394POPC   C4A57054  15.965  23.467   7.247
 4394POPC   C1B57055  15.721  24.047   6.150
 4394POPC   C2B57056  15.831  24.243   6.514
 4394POPC   C3B57057  15.770  24.251   6.922
 4394POPC   C4B57058  15.968  24.013   7.246
 4395POPC   NC357059   1.883  32.722   5.301
 4395POPC   PO457060   2.222  33.283   5.217
 4395POPC   GL157061   2.098  33.109   5.621
 4395POPC   GL257062   1.756  33.091   5.647
 4395POPC   C1A57063   2.210  33.052   6.053
 4395POPC   D2A57064   2.361  32.866   6.439
 4395POPC   C3A57065   2.112  33.048   6.788
 4395POPC   C4A57066   2.233  33.240   7.184
 4395POPC   C1B57067   1.686  32.993   6.074
 4395POPC   C2B57068   1.652  32.941   6.526
 4395POPC   C3B57069   1.602  32.718   6.915
 4395POPC   C4B57070   1.769  33.012   7.196
 4396POPC   NC357071  29.441  44.938   5.553
 4396POPC   PO457072  29.046  44.374   5.485
 4396POPC   GL157073  29.150  44.585   5.837
 4396POPC   GL257074  28.994  44.932   5.844
 4396POPC   C1A57075  28.970  44.491   6.231
 4396POPC   D2A57076  28.869  44.486   6.642
 4396POPC   C3A57077  29.188  44.544   6.937
 4396POPC   C4A57078  29.140  44.413   7.351
 4396POPC   C1B57079  29.244  44.923   6.205
 4396POPC   C2B57080  29.023  44.951   6.567
 4396POPC   C3B57081  29.205   0.057   6.903
 4396POPC   C4B57082  29.139  44.927   7.304
 4397POPC   NC357083  13.516  17.580   5.137
 4397POPC   PO457084  13.832  17.194   5.547
 4397POPC   GL157085  13.655  17.454   5.846
 4397POPC   GL257086  13.786  17.209   6.046
 4397POPC   C1A57087  13.402  17.503   6.196
 4397POPC   D2A57088  13.348  17.678   6.570
 4397POPC   C3A57089  13.667  17.658   6.837
 4397POPC   C4A57090  13.627  17.559   7.257
 4397POPC   C1B57091  13.965  17.242   6.409
 4397POPC   C2B57092  13.632  17.122   6.643
 4397POPC   C3B57093  13.642  17.116   7.042
 4397POPC   C4B57094  14.002  17.199   7.317
 4398POPC   NC357095  15.460  39.637   5.140
 4398POPC   PO457096  14.985  39.195   5.242
 4398POPC   GL157097  15.107  39.112   5.687
 4398POPC   GL257098  15.418  39.282   5.711
 4398POPC   C1A57099  15.298  38.868   6.059
 4398POPC   D2A57100  15.281  38.727   6.501
 4398POPC   C3A57101  15.076  38.965   6.827
 4398POPC   C4A57102  15.192  38.943   7.275
 4398POPC   C1B57103  15.306  39.375   6.141
 4398POPC   C2B57104  15.504  39.247   6.526
 4398POPC   C3B57105  15.467  39.262   6.977
 4398POPC   C4B57106  15.042  39.399   7.124
 4399POPC   NC357107   6.057   6.546   5.234
 4399POPC   PO457108   5.530   7.016   5.294
 4399POPC   GL157109   5.689   6.795   5.700
 4399POPC   GL257110   6.072   6.792   5.687
 4399POPC   C1A57111   5.732   6.892   6.187
 4399POPC   D2A57112   5.660   7.045   6.653
 4399POPC   C3A57113   5.629   6.815   7.106
 4399POPC   C4A57114   5.570   6.665   7.586
 4399POPC   C1B57115   6.242   6.841   6.078
 4399POPC   C2B57116   6.122   6.744   6.497
 4399POPC   C3B57117   6.104   6.668   6.949
 4399POPC   C4B57118   6.035   6.647   7.385
 4400POPC   NC357119  39.759  10.286   5.145
 4400POPC   PO457120  40.005  10.868   5.431
 4400POPC   GL157121  40.259  10.811   5.769
 4400POPC   GL257122  40.339  10.466   5.782
 4400POPC   C1A57123  40.063  10.734   6.170
 4400POPC   D2A57124  39.933  10.435   6.474
 4400POPC   C3A57125  39.937  10.659   6.810
 4400POPC   C4A57126  39.989  10.632   7.229
 4400POPC   C1B57127  40.455  10.203   6.139
 4400POPC   C2B57128  40.332  10.094   6.553
 4400POPC   C3B57129  40.248  10.276   6.942
 4400POPC   C4B57130  40.362  10.092   7.340
 4401POPC   NC357131  23.374  26.556   5.445
 4401POPC   PO457132  23.517  25.869   5.390
 4401POPC   GL157133  23.583  26.129   5.801
 4401POPC   GL257134  23.838  26.384   5.898
 4401POPC   C1A57135  23.434  26.034   6.235
 4401POPC   D2A57136  23.566  26.034   6.684
 4401POPC   C3A57137  23.490  26.163   7.122
 4401POPC   C4A57138  23.672  25.938   7.499
 4401POPC   C1B57139  23.790  26.396   6.369
 4401POPC   C2B57140  23.812  26.460   6.847
 4401POPC   C3B57141  24.004  26.201   7.209
 4401POPC   C4B57142  24.045  26.306   7.679
 4402POPC   NC357143  21.163  22.894   5.383
 4402POPC   PO457144  21.660  22.468   5.211
 4402POPC   GL157145  21.658  22.638   5.686
 4402POPC   GL257146  21.571  23.004   5.721
 4402POPC   C1A57147  21.424  22.726   6.117
 4402POPC   D2A57148  21.525  22.934   6.517
 4402POPC   C3A57149  21.279  22.801   6.858
 4402POPC   C4A57150  21.425  22.840   7.253
 4402POPC   C1B57151  21.580  23.267   6.110
 4402POPC   C2B57152  21.599  23.479   6.539
 4402POPC   C3B57153  21.514  23.265   6.937
 4402POPC   C4B57154  21.101  23.239   7.123
 4403POPC   NC357155   0.909  42.748   5.365
 4403POPC   PO457156   1.499  43.122   5.490
 4403POPC   GL157157   1.467  42.934   5.857
 4403POPC   GL257158   1.474  42.605   5.704
 4403POPC   C1A57159   1.305  43.053   6.286
 4403POPC   D2A57160   0.988  43.266   6.559
 4403POPC   C3A57161   1.149  43.392   6.953
 4403POPC   C4A57162   1.072  43.305   7.379
 4403POPC   C1B57163   1.321  42.518   6.134
 4403POPC   C2B57164   1.419  42.641   6.577
 4403POPC   C3B57165   1.184  42.881   6.889
 4403POPC   C4B57166   0.981  42.805   7.267
 4404POPC   NC357167  43.473  25.955   5.408
 4404POPC   PO457168  42.824  26.261   5.539
 4404POPC   GL157169  43.091  25.992   5.772
 4404POPC   GL257170  43.304  26.272   5.787
 4404POPC   C1A57171  43.398  25.885   6.103
 4404POPC   D2A57172  43.341  25.754   6.516
 4404POPC   C3A57173  43.388  25.906   6.927
 4404POPC   C4A57174  42.991  25.883   7.139
 4404POPC   C1B57175  43.138  26.304   6.234
 4404POPC   C2B57176  43.018  26.162   6.686
 4404POPC   C3B57177  43.073  26.390   7.141
 4404POPC   C4B57178  43.114  26.486   7.648
 4405POPC   NC357179  30.259  26.118   5.244
 4405POPC   PO457180  30.828  25.958   5.516
 4405POPC   GL157181  30.472  25.902   5.827
 4405POPC   GL257182  30.173  26.131   5.760
 4405POPC   C1A57183  30.493  25.864   6.268
 4405POPC   D2A57184  30.857  25.881   6.551
 4405POPC   C3A57185  30.720  25.950   6.991
 4405POPC   C4A57186  30.815  25.908   7.457
 4405POPC   C1B57187  30.420  26.345   6.096
 4405POPC   C2B57188  30.618  26.335   6.521
 4405POPC   C3B57189  30.715  26.476   6.955
 4405POPC   C4B57190  30.554  26.330   7.327
 4406POPC   NC357191   2.291  34.986   5.325
 4406POPC   PO457192   1.814  35.522   5.453
 4406POPC   GL157193   1.985  35.172   5.719
 4406POPC   GL257194   2.072  35.381   6.039
 4406POPC   C1A57195   2.040  34.895   6.093
 4406POPC   D2A57196   2.042  35.133   6.497
 4406POPC   C3A57197   2.126  35.047   6.914
 4406POPC   C4A57198   1.926  35.248   7.290
 4406POPC   C1B57199   2.157  35.628   6.432
 4406POPC   C2B57200   2.199  35.552   6.877
 4406POPC   C3B57201   2.262  35.640   7.311
 4406POPC   C4B57202   2.281  35.578   7.788
 4407POPC   NC357203  35.251  18.754   5.075
 4407POPC   PO457204  35.343  19.322   5.434
 4407POPC   GL157205  35.482  19.181   5.810
 4407POPC   GL257206  35.163  19.188   5.909
 4407POPC   C1A57207  35.549  19.238   6.251
 4407POPC   D2A57208  35.594  19.069   6.651
 4407POPC   C3A57209  35.333  19.145   6.996
 4407POPC   C4A57210  35.509  19.205   7.404
 4407POPC   C1B57211  35.080  18.901   6.219
 4407POPC   C2B57212  35.108  18.802   6.651
 4407POPC   C3B57213  34.964  18.764   7.048
 4407POPC   C4B57214  35.077  18.955   7.409
 4408POPC   NC357215  32.363  14.567   5.364
 4408POPC   PO457216  32.556  13.997   5.549
 4408POPC   GL157217  32.442  14.196   5.927
 4408POPC   GL257218  32.205  14.429   5.852
 4408POPC   C1A57219  32.477  14.375   6.351
 4408POPC   D2A57220  32.585  14.283   6.775
 4408POPC   C3A57221  32.417  14.555   7.071
 4408POPC   C4A57222  32.349  14.373   7.447
 4408POPC   C1B57223  32.002  14.242   6.242
 4408POPC   C2B57224  32.087  14.385   6.693
 4408POPC   C3B57225  31.926  14.354   7.122
 4408POPC   C4B57226  31.872  14.406   7.598
 4409POPC   NC357227  29.087  33.203   5.402
 4409POPC   PO457228  28.914  32.508   5.256
 4409POPC   GL157229  29.040  32.797   5.713
 4409POPC   GL257230  28.893  33.145   5.856
 4409POPC   C1A57231  29.257  32.955   6.135
 4409POPC   D2A57232  29.435  33.206   6.517
 4409POPC   C3A57233  29.290  33.156   6.942
 4409POPC   C4A57234  29.169  33.328   7.331
 4409POPC   C1B57235  28.746  33.016   6.260
 4409POPC   C2B57236  28.994  32.894   6.588
 4409POPC   C3B57237  28.940  32.743   6.979
 4409POPC   C4B57238  28.784  32.983   7.322
 4410POPC   NC357239  31.218  39.739   5.663
 4410POPC   PO457240  31.466  40.364   5.582
 4410POPC   GL157241  31.503  40.128   5.964
 4410POPC   GL257242  31.613  39.774   5.976
 4410POPC   C1A57243  31.780  40.085   6.335
 4410POPC   D2A57244  31.819  39.822   6.664
 4410POPC   C3A57245  31.516  39.992   6.904
 4410POPC   C4A57246  31.391  40.067   7.293
 4410POPC   C1B57247  31.344  39.785   6.384
 4410POPC   C2B57248  31.230  39.565   6.797
 4410POPC   C3B57249  31.130  39.634   7.250
 4410POPC   C4B57250  31.101  39.794   7.691
 4411POPC   NC357251  28.680   6.664   5.430
 4411POPC   PO457252  29.363   6.795   5.383
 4411POPC   GL157253  29.100   6.671   5.754
 4411POPC   GL257254  29.066   7.010   5.878
 4411POPC   C1A57255  28.838   6.658   6.169
 4411POPC   D2A57256  28.948   6.701   6.608
 4411POPC   C3A57257  28.757   6.660   7.026
 4411POPC   C4A57258  28.752   6.853   7.475
 4411POPC   C1B57259  29.275   6.942   6.299
 4411POPC   C2B57260  29.444   6.761   6.722
 4411POPC   C3B57261  29.247   6.524   7.042
 4411POPC   C4B57262  29.325   6.249   7.409
 4412POPC   NC357263   2.765   0.886   5.379
 4412POPC   PO457264   2.607   0.199   5.383
 4412POPC   GL157265   2.637   0.453   5.735
 4412POPC   GL257266   2.965   0.455   5.744
 4412POPC   C1A57267   2.608   0.631   6.151
 4412POPC   D2A57268   2.346   0.461   6.487
 4412POPC   C3A57269   2.482   0.590   6.880
 4412POPC   C4A57270   2.677   0.521   7.243
 4412POPC   C1B57271   3.063   0.388   6.155
 4412POPC   C2B57272   2.848   0.355   6.535
 4412POPC   C3B57273   3.021   0.398   6.894
 4412POPC   C4B57274   3.191   0.496   7.278
 4413POPC   NC357275   1.271  39.689   5.413
 4413POPC   PO457276   1.016  40.344   5.195
 4413POPC   GL157277   1.054  40.135   5.655
 4413POPC   GL257278   1.403  40.058   5.769
 4413POPC   C1A57279   1.005  39.992   6.120
 4413POPC   D2A57280   0.973  40.137   6.560
 4413POPC   C3A57281   0.926  39.885   6.926
 4413POPC   C4A57282   1.036  40.141   7.290
 4413POPC   C1B57283   1.509  40.006   6.213
 4413POPC   C2B57284   1.396  39.844   6.593
 4413POPC   C3B57285   1.437  40.036   6.979
 4413POPC   C4B57286   1.741  40.008   7.280
 4414POPC   NC357287  14.163  31.290   5.555
 4414POPC   PO457288  14.651  31.643   5.568
 4414POPC   GL157289  14.546  31.445   5.922
 4414POPC   GL257290  14.203  31.577   5.993
 4414POPC   C1A57291  14.595  31.590   6.350
 4414POPC   D2A57292  14.694  31.836   6.723
 4414POPC   C3A57293  14.613  31.591   7.089
 4414POPC   C4A57294  14.510  31.251   7.365
 4414POPC   C1B57295  14.241  31.191   6.244
 4414POPC   C2B57296  14.360  31.061   6.657
 4414POPC   C3B57297  14.126  31.135   7.025
 4414POPC   C4B57298  14.086  31.549   7.175
 4415POPC   NC357299  28.511  11.500   5.370
 4415POPC   PO457300  28.406  12.175   5.317
 4415POPC   GL157301  28.222  12.050   5.713
 4415POPC   GL257302  28.233  11.708   5.846
 4415POPC   C1A57303  28.277  12.187   6.153
 4415POPC   D2A57304  28.169  12.015   6.553
 4415POPC   C3A57305  28.331  12.106   6.971
 4415POPC   C4A57306  28.197  11.787   7.209
 4415POPC   C1B57307  28.524  11.743   6.222
 4415POPC   C2B57308  28.681  11.880   6.644
 4415POPC   C3B57309  28.655  11.679   7.059
 4415POPC   C4B57310  28.645  11.737   7.530
 4416POPC   NC357311  36.855  23.770   5.206
 4416POPC   PO457312  37.281  23.297   5.588
 4416POPC   GL157313  36.893  23.527   5.679
 4416POPC   GL257314  36.558  23.361   5.729
 4416POPC   C1A57315  36.810  23.804   6.033
 4416POPC   D2A57316  36.767  23.770   6.481
 4416POPC   C3A57317  37.103  23.914   6.756
 4416POPC   C4A57318  36.910  23.873   7.127
 4416POPC   C1B57319  36.693  23.303   6.198
 4416POPC   C2B57320  36.720  23.262   6.694
 4416POPC   C3B57321  36.701  23.406   7.157
 4416POPC   C4B57322  36.808  23.272   7.620
 4417POPC   NC357323  14.898  14.408   5.054
 4417POPC   PO457324  15.298  14.071   5.451
 4417POPC   GL157325  15.240  14.318   5.836
 4417POPC   GL257326  14.943  14.543   5.805
 4417POPC   C1A57327  15.186  14.247   6.298
 4417POPC   D2A57328  15.040  14.058   6.709
 4417POPC   C3A57329  15.045  14.293   7.093
 4417POPC   C4A57330  15.294  14.409   7.460
 4417POPC   C1B57331  14.875  14.666   6.248
 4417POPC   C2B57332  15.106  14.599   6.667
 4417POPC   C3B57333  15.324  14.709   7.054
 4417POPC   C4B57334  15.462  14.999   7.334
 4418POPC   NC357335  28.777  37.389   5.513
 4418POPC   PO457336  28.289  37.758   5.248
 4418POPC   GL157337  28.270  37.736   5.771
 4418POPC   GL257338  28.069  38.005   5.953
 4418POPC   C1A57339  28.111  37.606   6.244
 4418POPC   D2A57340  27.989  37.857   6.643
 4418POPC   C3A57341  28.038  37.657   7.071
 4418POPC   C4A57342  27.971  37.778   7.508
 4418POPC   C1B57343  28.389  38.077   6.318
 4418POPC   C2B57344  28.485  38.044   6.791
 4418POPC   C3B57345  28.549  37.739   7.149
 4418POPC   C4B57346  28.682  37.467   7.487
 4419POPC   NC357347   6.186   3.265   5.559
 4419POPC   PO457348   6.735   3.623   5.273
 4419POPC   GL157349   6.691   3.475   5.728
 4419POPC   GL257350   6.977   3.285   5.866
 4419POPC   C1A57351   6.502   3.395   6.175
 4419POPC   D2A57352   6.295   3.175   6.537
 4419POPC   C3A57353   6.433   3.286   6.951
 4419POPC   C4A57354   6.384   3.633   7.211
 4419POPC   C1B57355   6.950   3.659   6.169
 4419POPC   C2B57356   6.719   3.764   6.569
 4419POPC   C3B57357   6.840   3.664   6.992
 4419POPC   C4B57358   6.882   3.269   7.207
 4420POPC   NC357359  16.292  10.028   5.370
 4420POPC   PO457360  16.954  10.139   5.328
 4420POPC   GL157361  16.807  10.319   5.750
 4420POPC   GL257362  16.445  10.403   5.716
 4420POPC   C1A57363  16.731  10.608   6.138
 4420POPC   D2A57364  16.514  10.654   6.550
 4420POPC   C3A57365  16.693  10.715   6.961
 4420POPC   C4A57366  17.073  10.760   7.185
 4420POPC   C1B57367  16.462  10.190   6.102
 4420POPC   C2B57368  16.688  10.190   6.454
 4420POPC   C3B57369  16.598  10.230   6.864
 4420POPC   C4B57370  16.691  10.134   7.277
 4421POPC   NC357371  11.642   2.382   5.080
 4421POPC   PO457372  11.193   2.830   5.213
 4421POPC   GL157373  11.201   2.803   5.678
 4421POPC   GL257374  10.864   2.893   5.792
 4421POPC   C1A57375  11.480   2.857   6.060
 4421POPC   D2A57376  11.607   2.609   6.435
 4421POPC   C3A57377  11.486   2.715   6.866
 4421POPC   C4A57378  11.467   2.792   7.318
 4421POPC   C1B57379  11.040   2.621   6.168
 4421POPC   C2B57380  11.021   2.683   6.635
 4421POPC   C3B57381  11.008   2.702   7.100
 4421POPC   C4B57382  10.724   2.738   7.448
 4422POPC   NC357383  25.513  17.169   5.412
 4422POPC   PO457384  25.235  16.626   5.357
 4422POPC   GL157385  25.158  16.906   5.756
 4422POPC   GL257386  25.364  17.199   5.915
 4422POPC   C1A57387  25.161  16.874   6.245
 4422POPC   D2A57388  25.287  16.867   6.703
 4422POPC   C3A57389  25.160  16.649   7.099
 4422POPC   C4A57390  25.205  16.929   7.441
 4422POPC   C1B57391  25.571  17.210   6.375
 4422POPC   C2B57392  25.773  16.983   6.758
 4422POPC   C3B57393  25.627  16.855   7.172
 4422POPC   C4B57394  25.571  16.550   7.502
 4423POPC   NC357395  33.524  19.439   5.345
 4423POPC   PO457396  33.698  20.104   5.299
 4423POPC   GL157397  33.700  19.832   5.665
 4423POPC   GL257398  33.688  20.123   5.823
 4423POPC   C1A57399  33.669  19.729   6.147
 4423POPC   D2A57400  33.848  19.586   6.556
 4423POPC   C3A57401  33.606  19.471   6.936
 4423POPC   C4A57402  33.609  19.486   7.394
 4423POPC   C1B57403  33.878  20.195   6.208
 4423POPC   C2B57404  33.775  20.097   6.614
 4423POPC   C3B57405  33.698  20.154   7.041
 4423POPC   C4B57406  33.356  19.920   7.202
 4424POPC   NC357407   1.138  31.017   5.335
 4424POPC   PO457408   1.416  30.456   5.441
 4424POPC   GL157409   1.104  30.507   5.754
 4424POPC   GL257410   0.870  30.829   5.728
 4424POPC   C1A57411   1.201  30.375   6.177
 4424POPC   D2A57412   1.464  30.343   6.540
 4424POPC   C3A57413   1.200  30.512   6.863
 4424POPC   C4A57414   1.062  30.761   7.241
 4424POPC   C1B57415   1.074  30.905   6.093
 4424POPC   C2B57416   0.948  30.754   6.469
 4424POPC   C3B57417   1.006  30.988   6.804
 4424POPC   C4B57418   1.062  31.273   7.131
 4425POPC   NC357419  16.196   4.429   5.363
 4425POPC   PO457420  15.725   4.039   5.410
 4425POPC   GL157421  15.988   4.149   5.759
 4425POPC   GL257422  15.847   4.458   5.901
 4425POPC   C1A57423  16.166   4.219   6.195
 4425POPC   D2A57424  16.057   4.453   6.571
 4425POPC   C3A57425  16.089   4.221   6.955
 4425POPC   C4A57426  16.359   4.042   7.253
 4425POPC   C1B57427  15.683   4.679   6.284
 4425POPC   C2B57428  15.738   4.854   6.682
 4425POPC   C3B57429  15.772   4.606   7.007
 4425POPC   C4B57430  15.996   4.534   7.361
 4426POPC   NC357431  43.433  11.885   5.519
 4426POPC   PO457432  44.086  12.071   5.319
 4426POPC   GL157433  43.901  11.988   5.715
 4426POPC   GL257434  43.844  12.321   5.764
 4426POPC   C1A57435  43.732  11.759   6.084
 4426POPC   D2A57436  43.704  11.937   6.494
 4426POPC   C3A57437  43.663  11.753   6.874
 4426POPC   C4A57438  43.933  11.607   7.184
 4426POPC   C1B57439  43.579  12.257   6.110
 4426POPC   C2B57440  43.478  12.417   6.498
 4426POPC   C3B57441  43.550  12.267   6.876
 4426POPC   C4B57442  43.830  12.345   7.133
 4427POPC   NC357443  41.414  29.521   5.264
 4427POPC   PO457444  41.236  30.158   5.463
 4427POPC   GL157445  41.300  29.922   5.810
 4427POPC   GL257446  41.658  29.890   5.751
 4427POPC   C1A57447  41.431  29.845   6.245
 4427POPC   D2A57448  41.490  30.053   6.629
 4427POPC   C3A57449  41.321  29.896   6.987
 4427POPC   C4A57450  41.625  29.618   7.066
 4427POPC   C1B57451  41.913  29.868   6.126
 4427POPC   C2B57452  42.044  30.016   6.543
 4427POPC   C3B57453  41.916  30.061   6.957
 4427POPC   C4B57454  42.038  29.828   7.285
 4428POPC   NC357455   0.135  16.526   5.116
 4428POPC   PO457456   0.095  16.128   5.700
 4428POPC   GL157457   0.348  16.473   5.888
 4428POPC   GL257458   0.459  16.799   5.740
 4428POPC   C1A57459   0.250  16.750   6.233
 4428POPC   D2A57460   0.061  16.710   6.627
 4428POPC   C3A57461   0.397  16.551   6.857
 4428POPC   C4A57462   0.378  16.629   7.245
 4428POPC   C1B57463   0.736  16.880   6.111
 4428POPC   C2B57464   0.646  16.906   6.577
 4428POPC   C3B57465   0.804  16.867   7.047
 4428POPC   C4B57466   0.680  17.008   7.479
 4429POPC   NC357467  22.487   5.302   5.568
 4429POPC   PO457468  21.998   4.876   5.397
 4429POPC   GL157469  22.143   5.016   5.825
 4429POPC   GL257470  22.478   4.934   5.978
 4429POPC   C1A57471  22.141   5.290   6.211
 4429POPC   D2A57472  21.866   5.251   6.567
 4429POPC   C3A57473  21.914   5.436   6.967
 4429POPC   C4A57474  22.166   5.161   7.199
 4429POPC   C1B57475  22.211   4.780   6.304
 4429POPC   C2B57476  22.269   4.863   6.750
 4429POPC   C3B57477  22.309   4.674   7.174
 4429POPC   C4B57478  22.228   4.686   7.628
 4430POPC   NC357479  11.312  18.505   5.149
 4430POPC   PO457480  11.225  18.034   5.547
 4430POPC   GL157481  11.196  18.457   5.764
 4430POPC   GL257482  11.456  18.691   5.631
 4430POPC   C1A57483  11.161  18.509   6.266
 4430POPC   D2A57484  11.138  18.397   6.761
 4430POPC   C3A57485  11.353  18.049   7.063
 4430POPC   C4A57486  11.370  17.654   7.378
 4430POPC   C1B57487  11.615  18.517   6.044
 4430POPC   C2B57488  11.625  18.594   6.486
 4430POPC   C3B57489  11.605  18.497   6.921
 4430POPC   C4B57490  11.280  18.620   7.226
 4431POPC   NC357491   2.594  42.476   5.335
 4431POPC   PO457492   2.620  41.881   5.533
 4431POPC   GL157493   2.574  42.242   5.855
 4431POPC   GL257494   2.451  42.587   5.820
 4431POPC   C1A57495   2.690  42.414   6.304
 4431POPC   D2A57496   2.863  42.549   6.741
 4431POPC   C3A57497   3.046  42.261   7.092
 4431POPC   C4A57498   3.107  42.372   7.540
 4431POPC   C1B57499   2.262  42.670   6.247
 4431POPC   C2B57500   2.334  42.576   6.684
 4431POPC   C3B57501   2.308  42.641   7.130
 4431POPC   C4B57502   2.411  42.374   7.453
 4432POPC   NC357503  28.898  40.943   5.504
 4432POPC   PO457504  29.233  40.734   4.950
 4432POPC   GL157505  29.349  40.733   5.552
 4432POPC   GL257506  29.059  40.669   5.891
 4432POPC   C1A57507  29.523  40.726   6.045
 4432POPC   D2A57508  29.255  40.512   6.399
 4432POPC   C3A57509  29.202  40.643   6.857
 4432POPC   C4A57510  29.493  40.500   7.144
 4432POPC   C1B57511  29.102  40.997   6.280
 4432POPC   C2B57512  29.063  41.126   6.767
 4432POPC   C3B57513  28.853  41.001   7.202
 4432POPC   C4B57514  28.867  41.004   7.713
 4433POPC   NC357515  14.767  26.548   5.444
 4433POPC   PO457516  14.545  27.133   5.611
 4433POPC   GL157517  14.460  26.783   5.842
 4433POPC   GL257518  14.775  26.697   5.931
 4433POPC   C1A57519  14.384  26.596   6.242
 4433POPC   D2A57520  14.644  26.673   6.602
 4433POPC   C3A57521  14.403  26.726   6.959
 4433POPC   C4A57522  14.217  26.811   7.367
 4433POPC   C1B57523  14.823  27.034   6.240
 4433POPC   C2B57524  14.773  27.177   6.685
 4433POPC   C3B57525  14.869  26.936   7.060
 4433POPC   C4B57526  14.707  26.736   7.427
 4434POPC   NC357527  22.195  31.782   5.332
 4434POPC   PO457528  22.162  32.357   5.508
 4434POPC   GL157529  22.110  32.080   5.889
 4434POPC   GL257530  21.961  31.768   5.815
 4434POPC   C1A57531  22.087  32.119   6.360
 4434POPC   D2A57532  22.393  32.273   6.662
 4434POPC   C3A57533  22.317  32.415   7.097
 4434POPC   C4A57534  22.487  32.311   7.524
 4434POPC   C1B57535  22.012  31.618   6.247
 4434POPC   C2B57536  22.099  31.717   6.700
 4434POPC   C3B57537  22.006  31.992   7.072
 4434POPC   C4B57538  21.691  31.933   7.451
 4435POPC   NC357539  22.383  15.443   5.463
 4435POPC   PO457540  21.954  14.865   5.365
 4435POPC   GL157541  22.149  15.072   5.762
 4435POPC   GL257542  22.132  15.411   5.892
 4435POPC   C1A57543  22.369  15.051   6.188
 4435POPC   D2A57544  22.581  14.979   6.611
 4435POPC   C3A57545  22.295  14.959   6.984
 4435POPC   C4A57546  21.930  15.097   7.207
 4435POPC   C1B57547  22.002  15.434   6.274
 4435POPC   C2B57548  22.163  15.275   6.624
 4435POPC   C3B57549  22.278  15.453   7.010
 4435POPC   C4B57550  21.972  15.667   7.156
 4436POPC   NC357551  31.880  42.092   5.397
 4436POPC   PO457552  32.419  42.407   5.176
 4436POPC   GL157553  32.258  42.339   5.655
 4436POPC   GL257554  32.193  42.649   5.897
 4436POPC   C1A57555  32.390  42.190   6.085
 4436POPC   D2A57556  32.298  42.057   6.528
 4436POPC   C3A57557  32.486  42.201   6.923
 4436POPC   C4A57558  32.340  42.068   7.342
 4436POPC   C1B57559  31.922  42.585   6.271
 4436POPC   C2B57560  31.790  42.346   6.629
 4436POPC   C3B57561  31.937  42.304   7.069
 4436POPC   C4B57562  32.043  42.651   7.321
 4437POPC   NC357563  40.672  10.612   5.390
 4437POPC   PO457564  40.965  10.037   5.525
 4437POPC   GL157565  40.847  10.342   5.822
 4437POPC   GL257566  40.888  10.712   5.835
 4437POPC   C1A57567  40.959  10.386   6.238
 4437POPC   D2A57568  40.942  10.618   6.597
 4437POPC   C3A57569  40.740  10.364   6.862
 4437POPC   C4A57570  40.870  10.213   7.250
 4437POPC   C1B57571  40.578  10.721   6.153
 4437POPC   C2B57572  40.417  10.605   6.535
 4437POPC   C3B57573  40.453  10.788   6.926
 4437POPC   C4B57574  40.505  10.576   7.267
 4438POPC   NC357575  14.694   7.923   5.324
 4438POPC   PO457576  14.101   8.250   5.280
 4438POPC   GL157577  14.223   8.359   5.704
 4438POPC   GL257578  14.569   8.247   5.724
 4438POPC   C1A57579  14.041   8.424   6.117
 4438POPC   D2A57580  13.943   8.113   6.405
 4438POPC   C3A57581  13.896   8.116   6.864
 4438POPC   C4A57582  13.987   8.352   7.232
 4438POPC   C1B57583  14.394   8.039   6.119
 4438POPC   C2B57584  14.353   7.865   6.571
 4438POPC   C3B57585  14.403   8.084   6.962
 4438POPC   C4B57586  14.544   8.509   7.134
 4439POPC   NC357587  23.195  21.854   5.379
 4439POPC   PO457588  22.568  21.412   5.426
 4439POPC   GL157589  22.823  21.335   5.822
 4439POPC   GL257590  22.939  21.632   5.904
 4439POPC   C1A57591  22.945  21.216   6.280
 4439POPC   D2A57592  22.913  21.480   6.618
 4439POPC   C3A57593  23.122  21.425   6.992
 4439POPC   C4A57594  23.276  21.396   7.384
 4439POPC   C1B57595  22.546  21.537   6.212
 4439POPC   C2B57596  22.426  21.696   6.620
 4439POPC   C3B57597  22.622  21.595   7.023
 4439POPC   C4B57598  22.769  21.400   7.363
 4440POPC   NC357599  26.097  19.577   5.344
 4440POPC   PO457600  25.710  20.092   5.246
 4440POPC   GL157601  25.858  19.901   5.678
 4440POPC   GL257602  26.231  19.871   5.741
 4440POPC   C1A57603  25.873  19.635   6.097
 4440POPC   D2A57604  25.636  19.602   6.529
 4440POPC   C3A57605  25.861  19.617   6.974
 4440POPC   C4A57606  26.208  19.401   7.162
 4440POPC   C1B57607  26.266  19.960   6.183
 4440POPC   C2B57608  26.118  19.874   6.623
 4440POPC   C3B57609  26.242  19.950   7.079
 4440POPC   C4B57610  26.094  20.282   7.403
 4441POPC   NC357611   8.864   6.895   5.310
 4441POPC   PO457612   9.242   6.430   5.390
 4441POPC   GL157613   8.995   6.600   5.723
 4441POPC   GL257614   9.147   6.928   5.760
 4441POPC   C1A57615   8.977   6.487   6.171
 4441POPC   D2A57616   8.779   6.603   6.579
 4441POPC   C3A57617   8.910   6.365   6.959
 4441POPC   C4A57618   9.120   6.627   7.253
 4441POPC   C1B57619   8.962   6.993   6.187
 4441POPC   C2B57620   9.089   7.105   6.619
 4441POPC   C3B57621   9.349   7.067   7.037
 4441POPC   C4B57622   9.318   6.999   7.538
 4442POPC   NC357623   8.416  26.993   5.446
 4442POPC   PO457624   7.898  26.614   5.337
 4442POPC   GL157625   7.995  26.859   5.750
 4442POPC   GL257626   7.805  27.155   5.864
 4442POPC   C1A57627   8.012  26.870   6.225
 4442POPC   D2A57628   8.282  26.886   6.590
 4442POPC   C3A57629   8.080  26.876   6.981
 4442POPC   C4A57630   8.347  26.761   7.326
 4442POPC   C1B57631   7.953  27.369   6.259
 4442POPC   C2B57632   8.088  27.354   6.688
 4442POPC   C3B57633   7.833  27.336   7.091
 4442POPC   C4B57634   7.790  26.995   7.386
 4443POPC   NC357635  44.856  19.003   5.546
 4443POPC   PO457636  44.179  19.192   5.520
 4443POPC   GL157637  44.430  19.004   5.841
 4443POPC   GL257638  44.776  19.140   6.014
 4443POPC   C1A57639  44.429  18.852   6.236
 4443POPC   D2A57640  44.694  18.989   6.550
 4443POPC   C3A57641  44.453  18.881   6.890
 4443POPC   C4A57642  44.385  18.766   7.300
 4443POPC   C1B57643  44.917  18.743   6.150
 4443POPC   C2B57644   0.075  18.598   6.517
 4443POPC   C3B57645  44.937  18.710   6.898
 4443POPC   C4B57646  44.871  19.058   7.139
 4444POPC   NC357647  42.160  35.595   5.137
 4444POPC   PO457648  42.516  35.199   5.580
 4444POPC   GL157649  42.296  35.319   5.940
 4444POPC   GL257650  42.110  35.597   5.812
 4444POPC   C1A57651  42.468  35.575   6.304
 4444POPC   D2A57652  42.672  35.513   6.754
 4444POPC   C3A57653  42.693  35.215   7.137
 4444POPC   C4A57654  42.452  35.283   7.546
 4444POPC   C1B57655  41.958  35.541   6.261
 4444POPC   C2B57656  42.146  35.567   6.688
 4444POPC   C3B57657  42.288  35.602   7.113
 4444POPC   C4B57658  42.012  35.304   7.288
 4445POPC   NC357659  24.089  16.766   5.046
 4445POPC   PO457660  23.545  16.720   5.464
 4445POPC   GL157661  23.688  16.660   5.840
 4445POPC   GL257662  23.953  16.426   5.757
 4445POPC   C1A57663  23.660  16.880   6.226
 4445POPC   D2A57664  23.397  16.891   6.599
 4445POPC   C3A57665  23.529  16.761   7.023
 4445POPC   C4A57666  23.860  16.854   7.318
 4445POPC   C1B57667  23.866  16.388   6.206
 4445POPC   C2B57668  23.779  16.525   6.581
 4445POPC   C3B57669  23.973  16.484   6.926
 4445POPC   C4B57670  23.790  16.290   7.230
 4446POPC   NC357671   3.522  28.643   5.365
 4446POPC   PO457672   3.770  29.230   5.249
 4446POPC   GL157673   3.695  29.118   5.702
 4446POPC   GL257674   3.712  28.770   5.825
 4446POPC   C1A57675   3.434  29.147   6.087
 4446POPC   D2A57676   3.485  28.966   6.502
 4446POPC   C3A57677   3.580  29.192   6.867
 4446POPC   C4A57678   3.387  29.117   7.250
 4446POPC   C1B57679   3.912  28.834   6.238
 4446POPC   C2B57680   3.917  28.748   6.722
 4446POPC   C3B57681   3.893  28.842   7.174
 4446POPC   C4B57682   3.935  28.950   7.637
 4447POPC   NC357683   9.481   1.583   5.336
 4447POPC   PO457684   9.674   2.272   5.376
 4447POPC   GL157685   9.757   2.098   5.809
 4447POPC   GL257686   9.997   2.268   6.024
 4447POPC   C1A57687   9.750   1.824   6.146
 4447POPC   D2A57688   9.707   1.689   6.547
 4447POPC   C3A57689   9.846   1.895   6.891
 4447POPC   C4A57690   9.740   1.747   7.285
 4447POPC   C1B57691   9.882   2.254   6.453
 4447POPC   C2B57692   9.973   2.420   6.861
 4447POPC   C3B57693   9.866   2.244   7.267
 4447POPC   C4B57694  10.076   2.174   7.645
 4448POPC   NC357695   9.081  39.680   5.429
 4448POPC   PO457696   9.228  40.302   5.496
 4448POPC   GL157697   9.068  40.049   5.830
 4448POPC   GL257698   9.293  40.225   6.038
 4448POPC   C1A57699   8.959  39.877   6.257
 4448POPC   D2A57700   8.964  40.007   6.712
 4448POPC   C3A57701   8.896  39.798   7.123
 4448POPC   C4A57702   9.029  39.824   7.559
 4448POPC   C1B57703   9.407  40.061   6.423
 4448POPC   C2B57704   9.402  40.232   6.826
 4448POPC   C3B57705   9.163  40.231   7.194
 4448POPC   C4B57706   9.180  40.374   7.632
 4449POPC   NC357707  38.243  26.117   5.253
 4449POPC   PO457708  38.882  25.840   5.217
 4449POPC   GL157709  38.656  26.077   5.621
 4449POPC   GL257710  38.269  26.211   5.747
 4449POPC   C1A57711  38.583  26.062   6.106
 4449POPC   D2A57712  38.534  26.152   6.551
 4449POPC   C3A57713  38.364  25.850   6.864
 4449POPC   C4A57714  38.461  25.913   7.301
 4449POPC   C1B57715  38.117  26.354   6.190
 4449POPC   C2B57716  38.042  26.270   6.657
 4449POPC   C3B57717  38.343  26.340   7.000
 4449POPC   C4B57718  38.274  26.502   7.369
 4450POPC   NC357719  18.033   0.182   5.209
 4450POPC   PO457720  18.359   0.633   5.386
 4450POPC   GL157721  18.439   0.521   5.841
 4450POPC   GL257722  18.542   0.161   5.909
 4450POPC   C1A57723  18.534   0.527   6.305
 4450POPC   D2A57724  18.266   0.580   6.682
 4450POPC   C3A57725  18.384   0.426   7.103
 4450POPC   C4A57726  18.595   0.571   7.505
 4450POPC   C1B57727  18.135   0.208   6.107
 4450POPC   C2B57728  17.900   0.256   6.483
 4450POPC   C3B57729  17.948   0.220   6.922
 4450POPC   C4B57730  17.803   0.445   7.248
 4451POPC   NC357731  21.685  20.584   5.264
 4451POPC   PO457732  22.093  20.362   5.725
 4451POPC   GL157733  21.959  20.455   6.083
 4451POPC   GL257734  21.857  20.118   6.148
 4451POPC   C1A57735  22.181  20.721   6.355
 4451POPC   D2A57736  22.083  20.912   6.724
 4451POPC   C3A57737  22.448  20.715   6.842
 4451POPC   C4A57738  22.626  20.652   7.196
 4451POPC   C1B57739  22.251  20.199   6.400
 4451POPC   C2B57740  22.131  20.340   6.779
 4451POPC   C3B57741  22.096  20.509   7.176
 4451POPC   C4B57742  22.068  20.299   7.599
 4452POPC   NC357743  30.842  33.437   5.498
 4452POPC   PO457744  30.359  33.879   5.399
 4452POPC   GL157745  30.439  33.624   5.757
 4452POPC   GL257746  30.758  33.832   5.805
 4452POPC   C1A57747  30.591  33.562   6.191
 4452POPC   D2A57748  30.507  33.799   6.544
 4452POPC   C3A57749  30.681  33.650   6.889
 4452POPC   C4A57750  30.572  33.701   7.308
 4452POPC   C1B57751  31.033  34.056   6.118
 4452POPC   C2B57752  31.059  33.936   6.552
 4452POPC   C3B57753  31.107  33.907   6.995
 4452POPC   C4B57754  31.082  33.613   7.335
 4453POPC   NC357755  21.071  29.229   5.555
 4453POPC   PO457756  20.360  29.281   5.262
 4453POPC   GL157757  20.571  29.169   5.640
 4453POPC   GL257758  20.676  29.519   5.753
 4453POPC   C1A57759  20.644  29.118   6.103
 4453POPC   D2A57760  20.489  29.290   6.485
 4453POPC   C3A57761  20.633  29.156   6.886
 4453POPC   C4A57762  20.415  29.104   7.256
 4453POPC   C1B57763  20.955  29.557   6.113
 4453POPC   C2B57764  21.054  29.297   6.474
 4453POPC   C3B57765  21.064  29.414   6.913
 4453POPC   C4B57766  20.907  29.312   7.323
 4454POPC   NC357767  22.239  17.246   5.468
 4454POPC   PO457768  22.051  17.849   5.401
 4454POPC   GL157769  22.042  17.574   5.820
 4454POPC   GL257770  22.407  17.469   5.924
 4454POPC   C1A57771  21.983  17.506   6.291
 4454POPC   D2A57772  22.260  17.627   6.699
 4454POPC   C3A57773  22.152  17.639   7.182
 4454POPC   C4A57774  22.028  17.784   7.640
 4454POPC   C1B57775  22.395  17.212   6.330
 4454POPC   C2B57776  22.467  17.145   6.768
 4454POPC   C3B57777  22.448  17.186   7.205
 4454POPC   C4B57778  22.201  17.297   7.564
 4455POPC   NC357779  41.172  38.170   5.536
 4455POPC   PO457780  41.464  38.732   5.248
 4455POPC   GL157781  41.641  38.687   5.686
 4455POPC   GL257782  41.582  38.335   5.851
 4455POPC   C1A57783  41.518  38.751   6.135
 4455POPC   D2A57784  41.701  38.827   6.537
 4455POPC   C3A57785  41.546  38.532   6.864
 4455POPC   C4A57786  41.491  38.397   7.360
 4455POPC   C1B57787  41.606  38.300   6.341
 4455POPC   C2B57788  41.636  38.063   6.719
 4455POPC   C3B57789  41.873  38.178   7.117
 4455POPC   C4B57790  41.825  38.000   7.550
 4456POPC   NC357791   3.847   4.570   5.350
 4456POPC   PO457792   3.485   4.065   5.570
 4456POPC   GL157793   3.557   4.354   5.820
 4456POPC   GL257794   3.215   4.457   5.839
 4456POPC   C1A57795   3.754   4.247   6.194
 4456POPC   D2A57796   3.920   4.156   6.564
 4456POPC   C3A57797   3.854   4.326   6.961
 4456POPC   C4A57798   3.416   4.313   7.119
 4456POPC   C1B57799   3.339   4.537   6.269
 4456POPC   C2B57800   3.506   4.572   6.678
 4456POPC   C3B57801   3.638   4.759   7.103
 4456POPC   C4B57802   3.308   4.753   7.443
 4457POPC   NC357803  19.303  27.157   5.460
 4457POPC   PO457804  19.326  27.901   5.397
 4457POPC   GL157805  19.115  27.744   5.779
 4457POPC   GL257806  18.930  27.440   5.726
 4457POPC   C1A57807  18.857  27.734   6.156
 4457POPC   D2A57808  18.770  27.923   6.564
 4457POPC   C3A57809  18.910  27.651   6.884
 4457POPC   C4A57810  19.240  27.420   7.111
 4457POPC   C1B57811  18.849  27.190   6.111
 4457POPC   C2B57812  18.936  27.035   6.526
 4457POPC   C3B57813  18.816  27.143   6.911
 4457POPC   C4B57814  18.711  27.383   7.278
 4458POPC   NC357815  44.219   7.177   5.129
 4458POPC   PO457816  43.974   6.539   5.188
 4458POPC   GL157817  43.779   6.520   5.708
 4458POPC   GL257818  43.729   6.843   5.791
 4458POPC   C1A57819  43.957   6.416   6.163
 4458POPC   D2A57820  43.862   6.518   6.583
 4458POPC   C3A57821  44.193   6.493   6.899
 4458POPC   C4A57822  44.136   6.629   7.345
 4458POPC   C1B57823  43.911   6.913   6.184
 4458POPC   C2B57824  43.737   7.003   6.594
 4458POPC   C3B57825  43.890   6.886   6.969
 4458POPC   C4B57826  43.737   6.941   7.365
 4459POPC   NC357827  26.624  27.229   5.138
 4459POPC   PO457828  26.973  26.752   5.480
 4459POPC   GL157829  26.930  26.920   5.864
 4459POPC   GL257830  26.704  27.165   5.920
 4459POPC   C1A57831  26.927  26.766   6.276
 4459POPC   D2A57832  26.665  26.734   6.613
 4459POPC   C3A57833  26.743  26.928   6.982
 4459POPC   C4A57834  26.822  26.697   7.332
 4459POPC   C1B57835  26.421  27.037   6.252
 4459POPC   C2B57836  26.343  27.135   6.688
 4459POPC   C3B57837  26.249  26.952   7.102
 4459POPC   C4B57838  26.448  27.039   7.506
 4460POPC   NC357839  16.866  23.158   5.303
 4460POPC   PO457840  16.378  22.613   5.388
 4460POPC   GL157841  16.602  22.918   5.672
 4460POPC   GL257842  16.987  23.022   5.762
 4460POPC   C1A57843  16.641  22.849   6.107
 4460POPC   D2A57844  16.726  22.670   6.483
 4460POPC   C3A57845  16.529  22.853   6.825
 4460POPC   C4A57846  16.719  22.716   7.205
 4460POPC   C1B57847  16.942  23.263   6.096
 4460POPC   C2B57848  16.834  23.190   6.506
 4460POPC   C3B57849  17.009  23.016   6.878
 4460POPC   C4B57850  16.916  23.243   7.246
 4461POPC   NC357851  31.596  12.208   5.391
 4461POPC   PO457852  32.072  12.568   5.630
 4461POPC   GL157853  31.771  12.269   5.900
 4461POPC   GL257854  31.581  11.923   5.859
 4461POPC   C1A57855  31.631  12.113   6.339
 4461POPC   D2A57856  31.776  12.208   6.791
 4461POPC   C3A57857  31.481  12.122   7.106
 4461POPC   C4A57858  31.088  12.283   7.222
 4461POPC   C1B57859  31.376  11.640   6.206
 4461POPC   C2B57860  31.179  11.537   6.623
 4461POPC   C3B57861  31.178  11.483   7.098
 4461POPC   C4B57862  31.213  11.828   7.420
 4462POPC   NC357863  35.933  34.929   5.463
 4462POPC   PO457864  36.118  34.157   5.370
 4462POPC   GL157865  36.158  34.449   5.755
 4462POPC   GL257866  36.212  34.814   5.886
 4462POPC   C1A57867  36.086  34.426   6.214
 4462POPC   D2A57868  36.222  34.655   6.583
 4462POPC   C3A57869  36.104  34.409   6.932
 4462POPC   C4A57870  35.950  34.111   7.211
 4462POPC   C1B57871  35.909  34.919   6.229
 4462POPC   C2B57872  35.685  34.736   6.562
 4462POPC   C3B57873  35.847  34.858   6.947
 4462POPC   C4B57874  36.212  34.862   7.164
 4463POPC   NC357875   0.082  38.726   5.633
 4463POPC   PO457876  44.754  39.342   5.462
 4463POPC   GL157877  44.752  39.231   5.848
 4463POPC   GL257878  44.666  38.892   5.886
 4463POPC   C1A57879  44.517  39.308   6.191
 4463POPC   D2A57880  44.417  39.529   6.548
 4463POPC   C3A57881  44.466  39.321   6.928
 4463POPC   C4A57882  44.621  39.412   7.342
 4463POPC   C1B57883  44.942  39.003   6.272
 4463POPC   C2B57884  44.838  38.971   6.724
 4463POPC   C3B57885  44.758  38.967   7.167
 4463POPC   C4B57886  44.334  38.996   7.328
 4464POPC   NC357887  42.470  33.932   5.327
 4464POPC   PO457888  42.467  33.333   5.588
 4464POPC   GL157889  42.244  33.697   5.768
 4464POPC   GL257890  42.509  33.930   5.824
 4464POPC   C1A57891  42.184  33.877   6.201
 4464POPC   D2A57892  42.122  33.673   6.583
 4464POPC   C3A57893  42.218  33.901   6.934
 4464POPC   C4A57894  42.240  33.637   7.252
 4464POPC   C1B57895  42.610  34.189   6.172
 4464POPC   C2B57896  42.533  34.274   6.589
 4464POPC   C3B57897  42.681  34.106   6.943
 4464POPC   C4B57898  42.693  33.948   7.307
 4465POPC   NC357899   3.668  10.443   5.287
 4465POPC   PO457900   3.424  11.052   5.533
 4465POPC   GL157901   3.498  10.589   5.783
 4465POPC   GL257902   3.795  10.341   5.799
 4465POPC   C1A57903   3.463  10.384   6.220
 4465POPC   D2A57904   3.572  10.486   6.664
 4465POPC   C3A57905   3.352  10.384   7.044
 4465POPC   C4A57906   3.177  10.661   7.366
 4465POPC   C1B57907   3.798  10.019   6.138
 4465POPC   C2B57908   3.628   9.969   6.556
 4465POPC   C3B57909   3.780  10.078   6.940
 4465POPC   C4B57910   3.738  10.221   7.327
 4466POPC   NC357911  40.713  34.878   5.582
 4466POPC   PO457912  41.078  34.256   5.439
 4466POPC   GL157913  40.860  34.421   5.808
 4466POPC   GL257914  40.496  34.351   5.824
 4466POPC   C1A57915  40.918  34.586   6.252
 4466POPC   D2A57916  40.814  34.368   6.638
 4466POPC   C3A57917  40.915  34.429   7.064
 4466POPC   C4A57918  40.775  34.300   7.453
 4466POPC   C1B57919  40.428  34.678   6.120
 4466POPC   C2B57920  40.338  34.704   6.522
 4466POPC   C3B57921  40.472  34.667   6.928
 4466POPC   C4B57922  40.380  34.980   7.174
 4467POPC   NC357923  18.069  40.323   5.344
 4467POPC   PO457924  18.297  39.695   5.586
 4467POPC   GL157925  18.154  40.052   5.767
 4467POPC   GL257926  18.410  40.301   5.757
 4467POPC   C1A57927  18.035  40.243   6.144
 4467POPC   D2A57928  18.085  40.041   6.534
 4467POPC   C3A57929  17.899  40.122   6.930
 4467POPC   C4A57930  18.063  39.749   7.153
 4467POPC   C1B57931  18.521  40.071   6.171
 4467POPC   C2B57932  18.558  40.227   6.600
 4467POPC   C3B57933  18.414  40.093   6.985
 4467POPC   C4B57934  18.417  40.357   7.271
 4468POPC   NC357935  14.424  22.472   5.437
 4468POPC   PO457936  14.735  21.819   5.409
 4468POPC   GL157937  14.602  22.115   5.769
 4468POPC   GL257938  14.231  22.117   5.782
 4468POPC   C1A57939  14.561  22.262   6.217
 4468POPC   D2A57940  14.627  22.465   6.582
 4468POPC   C3A57941  14.543  22.189   6.940
 4468POPC   C4A57942  14.749  22.071   7.286
 4468POPC   C1B57943  14.101  22.066   6.213
 4468POPC   C2B57944  14.141  22.268   6.606
 4468POPC   C3B57945  14.082  22.393   7.026
 4468POPC   C4B57946  14.073  22.076   7.318
 4469POPC   NC357947   6.453  33.339   5.345
 4469POPC   PO457948   6.567  32.682   5.352
 4469POPC   GL157949   6.762  32.757   5.750
 4469POPC   GL257950   6.553  33.026   5.823
 4469POPC   C1A57951   6.872  32.865   6.200
 4469POPC   D2A57952   6.785  32.798   6.622
 4469POPC   C3A57953   6.842  32.969   7.012
 4469POPC   C4A57954   6.740  32.605   7.219
 4469POPC   C1B57955   6.492  33.222   6.226
 4469POPC   C2B57956   6.398  33.133   6.630
 4469POPC   C3B57957   6.329  33.093   7.029
 4469POPC   C4B57958   6.538  33.367   7.301
 4470POPC   NC357959  34.403  43.607   5.346
 4470POPC   PO457960  34.640  42.982   5.425
 4470POPC   GL157961  34.478  43.069   5.822
 4470POPC   GL257962  34.273  43.401   5.786
 4470POPC   C1A57963  34.635  42.877   6.239
 4470POPC   D2A57964  34.738  42.718   6.698
 4470POPC   C3A57965  34.757  43.003   7.036
 4470POPC   C4A57966  34.911  43.451   7.041
 4470POPC   C1B57967  34.290  43.287   6.216
 4470POPC   C2B57968  34.349  43.116   6.592
 4470POPC   C3B57969  34.415  43.368   6.901
 4470POPC   C4B57970  34.238  43.308   7.251
 4471POPC   NC357971  22.969  30.294   5.382
 4471POPC   PO457972  22.619  30.698   5.088
 4471POPC   GL157973  22.857  30.719   5.605
 4471POPC   GL257974  23.185  30.679   5.778
 4471POPC   C1A57975  22.805  30.631   6.127
 4471POPC   D2A57976  22.649  30.902   6.490
 4471POPC   C3A57977  22.783  30.890   6.944
 4471POPC   C4A57978  22.908  30.455   7.075
 4471POPC   C1B57979  23.307  30.658   6.218
 4471POPC   C2B57980  23.121  30.698   6.634
 4471POPC   C3B57981  23.290  30.773   7.061
 4471POPC   C4B57982  23.286  30.667   7.507
 4472POPC   NC357983  11.976  42.272   5.221
 4472POPC   PO457984  12.071  42.918   5.505
 4472POPC   GL157985  11.922  42.584   5.827
 4472POPC   GL257986  12.049  42.259   5.745
 4472POPC   C1A57987  11.740  42.426   6.257
 4472POPC   D2A57988  11.977  42.331   6.657
 4472POPC   C3A57989  11.961  42.527   7.093
 4472POPC   C4A57990  12.205  42.532   7.517
 4472POPC   C1B57991  11.943  41.977   6.113
 4472POPC   C2B57992  11.746  41.872   6.546
 4472POPC   C3B57993  11.792  41.841   7.024
 4472POPC   C4B57994  11.966  42.100   7.374
 4473POPC   NC357995  42.425  19.787   5.069
 4473POPC   PO457996  42.355  19.882   5.690
 4473POPC   GL157997  42.352  20.174   5.996
 4473POPC   GL257998  42.001  20.160   5.991
 4473POPC   C1A57999  42.639  20.204   6.280
 4473POPC   D2A58000  42.631  19.867   6.566
 4473POPC   C3A58001  42.564  20.017   6.993
 4473POPC   C4A58002  42.225  19.832   7.263
 4473POPC   C1B58003  42.154  19.830   6.315
 4473POPC   C2B58004  42.132  19.867   6.740
 4473POPC   C3B58005  42.055  20.211   6.968
 4473POPC   C4B58006  41.876  20.214   7.339
 4474POPC   NC358007  32.478  32.402   5.492
 4474POPC   PO458008  31.986  31.852   5.431
 4474POPC   GL158009  32.071  32.152   5.707
 4474POPC   GL258010  32.395  32.047   5.833
 4474POPC   C1A58011  32.044  32.238   6.133
 4474POPC   D2A58012  32.206  32.092   6.496
 4474POPC   C3A58013  31.962  32.171   6.850
 4474POPC   C4A58014  32.042  32.025   7.230
 4474POPC   C1B58015  32.535  32.345   6.161
 4474POPC   C2B58016  32.682  32.365   6.581
 4474POPC   C3B58017  32.473  32.237   6.954
 4474POPC   C4B58018  32.300  32.441   7.289
 4475POPC   NC358019  26.493  27.775   5.507
 4475POPC   PO458020  27.026  27.475   5.196
 4475POPC   GL158021  26.953  27.542   5.690
 4475POPC   GL258022  26.746  27.794   5.927
 4475POPC   C1A58023  27.092  27.550   6.163
 4475POPC   D2A58024  26.888  27.834   6.492
 4475POPC   C3A58025  26.890  27.677   6.928
 4475POPC   C4A58026  27.041  27.755   7.338
 4475POPC   C1B58027  26.568  27.528   6.253
 4475POPC   C2B58028  26.426  27.632   6.677
 4475POPC   C3B58029  26.424  27.437   7.088
 4475POPC   C4B58030  26.455  27.584   7.498
 4476POPC   NC358031  19.082   2.486   5.583
 4476POPC   PO458032  19.309   1.895   5.235
 4476POPC   GL158033  19.028   1.973   5.607
 4476POPC   GL258034  19.306   2.057   5.814
 4476POPC   C1A58035  18.881   2.026   6.075
 4476POPC   D2A58036  18.973   1.905   6.521
 4476POPC   C3A58037  18.863   2.086   6.926
 4476POPC   C4A58038  18.698   1.974   7.362
 4476POPC   C1B58039  19.339   2.210   6.249
 4476POPC   C2B58040  19.458   2.016   6.663
 4476POPC   C3B58041  19.319   1.879   7.035
 4476POPC   C4B58042  19.173   1.813   7.428
 4477POPC   NC358043   0.526   1.931   5.386
 4477POPC   PO458044  44.866   1.831   5.387
 4477POPC   GL158045   0.059   1.917   5.817
 4477POPC   GL258046   0.406   1.889   5.886
 4477POPC   C1A58047   0.121   1.903   6.318
 4477POPC   D2A58048   0.382   1.976   6.712
 4477POPC   C3A58049   0.265   2.067   7.175
 4477POPC   C4A58050   0.184   2.206   7.617
 4477POPC   C1B58051   0.639   1.718   6.258
 4477POPC   C2B58052   0.657   1.541   6.661
 4477POPC   C3B58053   0.703   1.723   7.087
 4477POPC   C4B58054   0.528   1.776   7.508
 4478POPC   NC358055  19.984   5.276   5.568
 4478POPC   PO458056  19.475   4.843   5.298
 4478POPC   GL158057  19.587   4.856   5.772
 4478POPC   GL258058  19.962   4.855   5.871
 4478POPC   C1A58059  19.578   5.024   6.219
 4478POPC   D2A58060  19.642   4.846   6.634
 4478POPC   C3A58061  19.854   5.077   6.940
 4478POPC   C4A58062  19.622   5.052   7.327
 4478POPC   C1B58063  20.097   5.095   6.214
 4478POPC   C2B58064  19.924   5.392   6.494
 4478POPC   C3B58065  20.161   5.570   6.804
 4478POPC   C4B58066  20.235   5.352   7.172
 4479POPC   NC358067  37.061  33.291   5.395
 4479POPC   PO458068  36.738  32.699   5.387
 4479POPC   GL158069  37.019  32.826   5.787
 4479POPC   GL258070  37.154  33.127   5.861
 4479POPC   C1A58071  37.015  32.734   6.255
 4479POPC   D2A58072  36.659  32.779   6.564
 4479POPC   C3A58073  36.723  32.757   7.048
 4479POPC   C4A58074  37.115  32.777   7.219
 4479POPC   C1B58075  36.827  33.198   6.140
 4479POPC   C2B58076  36.970  33.221   6.559
 4479POPC   C3B58077  36.902  33.241   6.989
 4479POPC   C4B58078  36.780  33.334   7.395
 4480POPC   NC358079   4.461  37.886   5.150
 4480POPC   PO458080   4.225  37.331   5.393
 4480POPC   GL158081   4.414  37.519   5.766
 4480POPC   GL258082   4.116  37.722   5.748
 4480POPC   C1A58083   4.524  37.637   6.220
 4480POPC   D2A58084   4.689  37.789   6.657
 4480POPC   C3A58085   4.448  37.626   7.038
 4480POPC   C4A58086   4.447  37.663   7.519
 4480POPC   C1B58087   3.999  37.765   6.165
 4480POPC   C2B58088   4.153  37.707   6.577
 4480POPC   C3B58089   3.981  37.844   6.957
 4480POPC   C4B58090   3.996  37.853   7.384
 4481POPC   NC358091  17.485  34.945   5.314
 4481POPC   PO458092  17.442  34.225   5.298
 4481POPC   GL158093  17.279  34.485   5.666
 4481POPC   GL258094  17.481  34.760   5.804
 4481POPC   C1A58095  17.179  34.389   6.111
 4481POPC   D2A58096  17.283  34.531   6.521
 4481POPC   C3A58097  17.435  34.352   6.877
 4481POPC   C4A58098  17.392  34.646   7.201
 4481POPC   C1B58099  17.658  34.593   6.181
 4481POPC   C2B58100  17.850  34.517   6.584
 4481POPC   C3B58101  17.862  34.648   7.020
 4481POPC   C4B58102  17.868  34.841   7.412
 4482POPC   NC358103  31.808  37.908   5.382
 4482POPC   PO458104  31.147  37.543   5.340
 4482POPC   GL158105  31.428  37.586   5.678
 4482POPC   GL258106  31.361  37.913   5.760
 4482POPC   C1A58107  31.487  37.597   6.146
 4482POPC   D2A58108  31.741  37.743   6.515
 4482POPC   C3A58109  31.620  37.597   6.942
 4482POPC   C4A58110  31.245  37.421   7.110
 4482POPC   C1B58111  31.606  38.095   6.110
 4482POPC   C2B58112  31.510  38.209   6.541
 4482POPC   C3B58113  31.587  38.141   6.964
 4482POPC   C4B58114  31.278  37.972   7.225
 4483POPC   NC358115  38.989  33.480   5.427
 4483POPC   PO458116  39.180  32.889   5.414
 4483POPC   GL158117  39.383  33.076   5.741
 4483POPC   GL258118  39.027  33.125   5.851
 4483POPC   C1A58119  39.412  33.030   6.199
 4483POPC   D2A58120  39.378  32.814   6.613
 4483POPC   C3A58121  39.425  33.120   6.974
 4483POPC   C4A58122  39.232  33.061   7.375
 4483POPC   C1B58123  38.942  33.360   6.202
 4483POPC   C2B58124  39.080  33.272   6.607
 4483POPC   C3B58125  38.917  33.281   7.025
 4483POPC   C4B58126  38.856  33.398   7.476
 4484POPC   NC358127  37.921  21.225   5.463
 4484POPC   PO458128  37.735  21.789   5.258
 4484POPC   GL158129  37.573  21.520   5.670
 4484POPC   GL258130  37.865  21.483   5.914
 4484POPC   C1A58131  37.463  21.247   6.075
 4484POPC   D2A58132  37.451  21.338   6.549
 4484POPC   C3A58133  37.593  21.104   6.938
 4484POPC   C4A58134  37.429  20.864   7.292
 4484POPC   C1B58135  38.036  21.353   6.317
 4484POPC   C2B58136  37.952  21.421   6.751
 4484POPC   C3B58137  37.746  21.586   7.123
 4484POPC   C4B58138  37.739  21.388   7.536
 4485POPC   NC358139  26.788  41.970   5.593
 4485POPC   PO458140  26.591  41.325   5.426
 4485POPC   GL158141  26.827  41.367   5.793
 4485POPC   GL258142  27.133  41.504   5.659
 4485POPC   C1A58143  26.667  41.466   6.234
 4485POPC   D2A58144  26.459  41.415   6.665
 4485POPC   C3A58145  26.693  41.650   7.018
 4485POPC   C4A58146  26.718  41.713   7.515
 4485POPC   C1B58147  27.184  41.593   6.115
 4485POPC   C2B58148  27.308  41.719   6.549
 4485POPC   C3B58149  27.212  41.648   6.967
 4485POPC   C4B58150  27.191  41.586   7.419
 4486POPC   NC358151  33.959  38.565   5.323
 4486POPC   PO458152  33.324  38.360   5.471
 4486POPC   GL158153  33.526  38.506   5.853
 4486POPC   GL258154  33.896  38.493   5.833
 4486POPC   C1A58155  33.646  38.294   6.243
 4486POPC   D2A58156  33.929  38.160   6.570
 4486POPC   C3A58157  33.697  38.340   6.898
 4486POPC   C4A58158  33.564  38.362   7.291
 4486POPC   C1B58159  33.857  38.773   6.203
 4486POPC   C2B58160  34.005  38.667   6.609
 4486POPC   C3B58161  34.186  38.443   6.937
 4486POPC   C4B58162  34.047  38.576   7.321
 4487POPC   NC358163  11.554   8.365   5.422
 4487POPC   PO458164  11.164   7.879   5.500
 4487POPC   GL158165  11.164   8.256   5.765
 4487POPC   GL258166  11.471   8.420   5.920
 4487POPC   C1A58167  11.079   8.208   6.197
 4487POPC   D2A58168  11.222   7.994   6.577
 4487POPC   C3A58169  11.092   8.195   6.949
 4487POPC   C4A58170  11.165   8.418   7.341
 4487POPC   C1B58171  11.561   7.997   6.121
 4487POPC   C2B58172  11.761   7.849   6.517
 4487POPC   C3B58173  11.549   7.841   6.937
 4487POPC   C4B58174  11.349   7.965   7.327
 4488POPC   NC358175   2.807  21.131   5.301
 4488POPC   PO458176   2.744  21.725   5.235
 4488POPC   GL158177   2.556  21.351   5.650
 4488POPC   GL258178   2.913  21.312   5.798
 4488POPC   C1A58179   2.512  21.269   6.125
 4488POPC   D2A58180   2.562  21.540   6.509
 4488POPC   C3A58181   2.641  21.316   6.865
 4488POPC   C4A58182   2.674  21.398   7.267
 4488POPC   C1B58183   3.018  21.374   6.276
 4488POPC   C2B58184   3.060  21.589   6.708
 4488POPC   C3B58185   2.993  21.763   7.145
 4488POPC   C4B58186   2.673  21.895   7.449
 4489POPC   NC358187  19.579  19.520   5.617
 4489POPC   PO458188  19.655  18.990   5.102
 4489POPC   GL158189  19.558  18.996   5.610
 4489POPC   GL258190  19.879  19.019   5.785
 4489POPC   C1A58191  19.557  18.815   6.087
 4489POPC   D2A58192  19.545  19.007   6.517
 4489POPC   C3A58193  19.733  18.869   6.877
 4489POPC   C4A58194  19.670  18.984   7.283
 4489POPC   C1B58195  19.954  19.179   6.192
 4489POPC   C2B58196  20.085  19.133   6.608
 4489POPC   C3B58197  19.963  19.307   7.003
 4489POPC   C4B58198  20.075  19.257   7.432
 4490POPC   NC358199  34.244  34.556   5.757
 4490POPC   PO458200  33.673  34.755   5.456
 4490POPC   GL158201  33.730  34.526   5.850
 4490POPC   GL258202  33.669  34.151   5.776
 4490POPC   C1A58203  33.833  34.654   6.288
 4490POPC   D2A58204  33.746  34.838   6.687
 4490POPC   C3A58205  34.019  34.818   7.033
 4490POPC   C4A58206  34.005  34.745   7.513
 4490POPC   C1B58207  33.475  34.159   6.190
 4490POPC   C2B58208  33.485  34.381   6.582
 4490POPC   C3B58209  33.710  34.403   6.990
 4490POPC   C4B58210  33.571  34.523   7.370
 4491POPC   NC358211  43.819  43.801   5.250
 4491POPC   PO458212  43.839  44.458   5.181
 4491POPC   GL158213  43.799  44.194   5.601
 4491POPC   GL258214  44.058  43.993   5.680
 4491POPC   C1A58215  43.568  44.028   6.014
 4491POPC   D2A58216  43.687  44.069   6.466
 4491POPC   C3A58217  43.642  43.813   6.847
 4491POPC   C4A58218  43.840  44.120   7.128
 4491POPC   C1B58219  44.043  43.867   6.107
 4491POPC   C2B58220  44.043  43.682   6.515
 4491POPC   C3B58221  44.167  43.765   6.909
 4491POPC   C4B58222  44.034  43.667   7.293
 4492POPC   NC358223  19.649  29.839   5.407
 4492POPC   PO458224  20.101  30.176   5.401
 4492POPC   GL158225  19.974  30.051   5.843
 4492POPC   GL258226  19.605  30.083   5.848
 4492POPC   C1A58227  19.805  30.213   6.299
 4492POPC   D2A58228  19.805  30.251   6.770
 4492POPC   C3A58229  19.982  29.932   7.051
 4492POPC   C4A58230  19.767  29.944   7.405
 4492POPC   C1B58231  19.672  29.724   6.167
 4492POPC   C2B58232  19.736  29.751   6.635
 4492POPC   C3B58233  19.561  29.620   7.045
 4492POPC   C4B58234  19.575  29.492   7.518
 4493POPC   NC358235  32.815  39.772   5.425
 4493POPC   PO458236  33.169  40.326   5.375
 4493POPC   GL158237  33.073  40.109   5.729
 4493POPC   GL258238  32.753  40.149   5.807
 4493POPC   C1A58239  33.150  40.054   6.160
 4493POPC   D2A58240  33.181  39.890   6.554
 4493POPC   C3A58241  33.259  40.018   6.983
 4493POPC   C4A58242  33.460  39.709   7.271
 4493POPC   C1B58243  32.669  40.278   6.210
 4493POPC   C2B58244  32.688  39.956   6.527
 4493POPC   C3B58245  32.750  40.062   6.932
 4493POPC   C4B58246  32.758  40.315   7.277
 4494POPC   NC358247   3.099  22.935   5.286
 4494POPC   PO458248   2.562  22.708   5.236
 4494POPC   GL158249   2.719  22.954   5.641
 4494POPC   GL258250   2.854  22.657   5.673
 4494POPC   C1A58251   2.889  23.211   6.059
 4494POPC   D2A58252   3.076  23.252   6.528
 4494POPC   C3A58253   2.773  23.136   6.875
 4494POPC   C4A58254   2.573  23.101   7.278
 4494POPC   C1B58255   2.965  22.707   6.090
 4494POPC   C2B58256   2.852  22.786   6.497
 4494POPC   C3B58257   3.001  22.672   6.920
 4494POPC   C4B58258   3.005  22.824   7.343
 4495POPC   NC358259  44.179  14.258   5.396
 4495POPC   PO458260  43.484  14.172   5.496
 4495POPC   GL158261  43.820  14.276   5.751
 4495POPC   GL258262  43.710  14.052   5.981
 4495POPC   C1A58263  44.051  14.375   6.142
 4495POPC   D2A58264  43.856  14.411   6.542
 4495POPC   C3A58265  43.939  14.170   6.893
 4495POPC   C4A58266  44.046  14.426   7.199
 4495POPC   C1B58267  43.513  14.466   6.134
 4495POPC   C2B58268  43.402  14.633   6.559
 4495POPC   C3B58269  43.508  14.459   6.992
 4495POPC   C4B58270  43.637  14.148   7.329
 4496POPC   NC358271  39.966   7.228   5.408
 4496POPC   PO458272  39.879   7.852   5.642
 4496POPC   GL158273  40.029   7.509   5.874
 4496POPC   GL258274  39.781   7.231   5.894
 4496POPC   C1A58275  39.921   7.506   6.313
 4496POPC   D2A58276  39.720   7.526   6.695
 4496POPC   C3A58277  39.977   7.511   7.068
 4496POPC   C4A58278  40.181   7.185   7.284
 4496POPC   C1B58279  39.545   7.132   6.297
 4496POPC   C2B58280  39.443   7.096   6.742
 4496POPC   C3B58281  39.733   7.061   7.075
 4496POPC   C4B58282  39.769   6.955   7.545
 4497POPC   NC358283  10.911  14.128   5.303
 4497POPC   PO458284  10.266  14.502   5.416
 4497POPC   GL158285  10.501  14.448   5.790
 4497POPC   GL258286  10.544  14.116   5.789
 4497POPC   C1A58287  10.583  14.684   6.171
 4497POPC   D2A58288  10.715  14.536   6.566
 4497POPC   C3A58289  10.564  14.614   6.987
 4497POPC   C4A58290  10.779  14.447   7.335
 4497POPC   C1B58291  10.424  14.198   6.272
 4497POPC   C2B58292  10.412  14.176   6.741
 4497POPC   C3B58293  10.369  14.168   7.180
 4497POPC   C4B58294  10.351  14.323   7.595
 4498POPC   NC358295  21.008  26.907   5.531
 4498POPC   PO458296  20.444  26.654   5.320
 4498POPC   GL158297  20.506  26.800   5.753
 4498POPC   GL258298  20.759  26.572   5.857
 4498POPC   C1A58299  20.720  27.017   6.134
 4498POPC   D2A58300  20.692  27.196   6.588
 4498POPC   C3A58301  20.716  26.908   6.933
 4498POPC   C4A58302  20.865  26.669   7.282
 4498POPC   C1B58303  20.538  26.564   6.261
 4498POPC   C2B58304  20.611  26.454   6.678
 4498POPC   C3B58305  20.346  26.551   7.015
 4498POPC   C4B58306  20.414  26.454   7.403
 4499POPC   NC358307  43.830  12.450   5.262
 4499POPC   PO458308  44.008  13.068   5.286
 4499POPC   GL158309  43.879  12.830   5.642
 4499POPC   GL258310  44.178  12.741   5.846
 4499POPC   C1A58311  43.697  12.756   6.059
 4499POPC   D2A58312  43.555  12.919   6.455
 4499POPC   C3A58313  43.792  12.762   6.797
 4499POPC   C4A58314  43.686  12.818   7.211
 4499POPC   C1B58315  44.100  13.083   6.185
 4499POPC   C2B58316  44.220  13.256   6.593
 4499POPC   C3B58317  44.160  13.122   7.038
 4499POPC   C4B58318  44.190  12.685   7.194
 4500POPC   NC358319  30.251  34.305   5.531
 4500POPC   PO458320  29.700  34.631   5.412
 4500POPC   GL158321  29.971  34.714   5.834
 4500POPC   GL258322  30.282  34.564   5.984
 4500POPC   C1A58323  29.954  34.807   6.309
 4500POPC   D2A58324  29.738  34.640   6.708
 4500POPC   C3A58325  30.010  34.773   7.057
 4500POPC   C4A58326  30.296  35.099   6.998
 4500POPC   C1B58327  30.081  34.318   6.291
 4500POPC   C2B58328  30.173  34.357   6.722
 4500POPC   C3B58329  29.939  34.267   7.070
 4500POPC   C4B58330  30.205  34.415   7.378
 4501POPC   NC358331   4.974  44.733   5.381
 4501POPC   PO458332   5.246  44.176   5.546
 4501POPC   GL158333   5.186  44.616   5.827
 4501POPC   GL258334   4.891  44.909   5.838
 4501POPC   C1A58335   5.104  44.762   6.282
 4501POPC   D2A58336   4.825  44.791   6.665
 4501POPC   C3A58337   4.929  44.585   7.104
 4501POPC   C4A58338   4.820  44.392   7.533
 4501POPC   C1B58339   4.858   0.206   6.187
 4501POPC   C2B58340   4.942   0.294   6.630
 4501POPC   C3B58341   4.934   0.116   7.073
 4501POPC   C4B58342   5.199  44.896   7.425
 4502POPC   NC358343   9.170  27.090   5.495
 4502POPC   PO458344   9.543  26.661   5.184
 4502POPC   GL158345   9.611  26.718   5.635
 4502POPC   GL258346   9.930  26.832   5.755
 4502POPC   C1A58347   9.444  26.751   6.059
 4502POPC   D2A58348   9.607  26.606   6.447
 4502POPC   C3A58349   9.480  26.800   6.802
 4502POPC   C4A58350   9.616  26.708   7.202
 4502POPC   C1B58351   9.907  26.977   6.195
 4502POPC   C2B58352  10.053  26.884   6.618
 4502POPC   C3B58353  10.097  27.025   7.044
 4502POPC   C4B58354  10.018  26.870   7.439
 4503POPC   NC358355  18.214  43.427   5.308
 4503POPC   PO458356  18.453  44.072   5.395
 4503POPC   GL158357  18.362  44.105   5.814
 4503POPC   GL258358  18.461  43.738   5.839
 4503POPC   C1A58359  18.459  44.051   6.263
 4503POPC   D2A58360  18.238  43.807   6.583
 4503POPC   C3A58361  18.226  43.967   7.013
 4503POPC   C4A58362  17.824  43.977   7.272
 4503POPC   C1B58363  18.514  43.479   6.209
 4503POPC   C2B58364  18.400  43.296   6.609
 4503POPC   C3B58365  18.287  43.448   7.012
 4503POPC   C4B58366  18.177  43.634   7.414
 4504POPC   NC358367   9.997  23.874   5.399
 4504POPC   PO458368   9.404  23.479   5.386
 4504POPC   GL158369   9.633  23.687   5.748
 4504POPC   GL258370   9.941  23.517   5.790
 4504POPC   C1A58371   9.821  23.919   6.121
 4504POPC   D2A58372   9.736  24.106   6.534
 4504POPC   C3A58373   9.775  23.886   6.909
 4504POPC   C4A58374   9.785  23.931   7.330
 4504POPC   C1B58375   9.903  23.302   6.219
 4504POPC   C2B58376   9.834  23.441   6.682
 4504POPC   C3B58377   9.799  23.415   7.162
 4504POPC   C4B58378   9.829  23.534   7.619
 4505POPC   NC358379  17.044   6.448   5.234
 4505POPC   PO458380  16.665   6.902   5.493
 4505POPC   GL158381  16.780   6.787   5.905
 4505POPC   GL258382  16.984   6.501   5.785
 4505POPC   C1A58383  16.633   6.700   6.335
 4505POPC   D2A58384  16.738   6.852   6.691
 4505POPC   C3A58385  16.615   6.524   6.954
 4505POPC   C4A58386  16.379   6.537   7.307
 4505POPC   C1B58387  17.112   6.577   6.219
 4505POPC   C2B58388  17.237   6.839   6.491
 4505POPC   C3B58389  17.201   6.663   6.848
 4505POPC   C4B58390  17.163   6.426   7.208
 4506POPC   NC358391  43.607  14.632   5.389
 4506POPC   PO458392  43.046  14.474   5.256
 4506POPC   GL158393  43.089  14.486   5.768
 4506POPC   GL258394  43.189  14.147   5.919
 4506POPC   C1A58395  42.979  14.682   6.229
 4506POPC   D2A58396  42.946  14.873   6.698
 4506POPC   C3A58397  42.979  14.633   7.131
 4506POPC   C4A58398  42.879  14.514   7.609
 4506POPC   C1B58399  43.134  14.205   6.331
 4506POPC   C2B58400  43.082  14.288   6.741
 4506POPC   C3B58401  43.159  14.078   7.090
 4506POPC   C4B58402  43.171  14.121   7.522
 4507POPC   NC358403  29.755  24.466   5.428
 4507POPC   PO458404  30.157  24.983   5.401
 4507POPC   GL158405  30.109  24.727   5.822
 4507POPC   GL258406  30.089  24.345   5.859
 4507POPC   C1A58407  29.924  24.589   6.260
 4507POPC   D2A58408  29.839  24.729   6.710
 4507POPC   C3A58409  29.927  24.485   7.103
 4507POPC   C4A58410  30.306  24.299   7.282
 4507POPC   C1B58411  30.174  24.084   6.280
 4507POPC   C2B58412  30.142  24.122   6.774
 4507POPC   C3B58413  29.839  23.937   7.094
 4507POPC   C4B58414  29.515  23.904   7.453
 4508POPC   NC358415  26.382  30.181   5.388
 4508POPC   PO458416  25.743  29.776   5.421
 4508POPC   GL158417  26.059  29.934   5.743
 4508POPC   GL258418  26.373  29.762   5.702
 4508POPC   C1A58419  25.985  30.108   6.179
 4508POPC   D2A58420  25.888  30.285   6.572
 4508POPC   C3A58421  25.792  30.010   6.880
 4508POPC   C4A58422  25.762  29.969   7.284
 4508POPC   C1B58423  26.467  29.982   6.115
 4508POPC   C2B58424  26.389  30.211   6.520
 4508POPC   C3B58425  26.285  30.057   6.932
 4508POPC   C4B58426  26.310  29.801   7.332
 4509POPC   NC358427   7.067  28.324   5.271
 4509POPC   PO458428   6.375  28.345   5.490
 4509POPC   GL158429   6.611  28.219   5.854
 4509POPC   GL258430   6.888  28.464   5.865
 4509POPC   C1A58431   6.742  28.224   6.296
 4509POPC   D2A58432   6.663  28.465   6.687
 4509POPC   C3A58433   6.644  28.298   7.124
 4509POPC   C4A58434   6.698  28.052   7.523
 4509POPC   C1B58435   6.935  28.696   6.274
 4509POPC   C2B58436   7.093  28.781   6.694
 4509POPC   C3B58437   6.862  28.764   7.072
 4509POPC   C4B58438   6.913  28.530   7.494
 4510POPC   NC358439   6.980  44.983   5.045
 4510POPC   PO458440   7.234  44.529   5.504
 4510POPC   GL158441   7.443  44.814   5.855
 4510POPC   GL258442   7.772  44.978   5.781
 4510POPC   C1A58443   7.436  44.908   6.338
 4510POPC   D2A58444   7.428   0.113   6.766
 4510POPC   C3A58445   7.153  44.919   7.078
 4510POPC   C4A58446   7.199  44.537   7.330
 4510POPC   C1B58447   7.903  44.749   6.164
 4510POPC   C2B58448   7.794  44.633   6.605
 4510POPC   C3B58449   7.647  44.703   7.034
 4510POPC   C4B58450   7.860  44.564   7.427
 4511POPC   NC358451  34.039  11.620   5.236
 4511POPC   PO458452  33.495  11.261   5.301
 4511POPC   GL158453  33.736  11.354   5.673
 4511POPC   GL258454  33.898  11.039   5.742
 4511POPC   C1A58455  33.608  11.509   6.095
 4511POPC   D2A58456  33.583  11.654   6.522
 4511POPC   C3A58457  33.929  11.625   6.818
 4511POPC   C4A58458  33.818  11.743   7.224
 4511POPC   C1B58459  34.053  11.258   6.094
 4511POPC   C2B58460  33.828  11.208   6.481
 4511POPC   C3B58461  33.604  11.227   6.853
 4511POPC   C4B58462  33.836  11.246   7.201
 4512POPC   NC358463  10.412  44.092   5.178
 4512POPC   PO458464  10.044  43.624   5.524
 4512POPC   GL158465  10.310  43.742   5.806
 4512POPC   GL258466  10.405  44.068   5.692
 4512POPC   C1A58467  10.480  43.617   6.192
 4512POPC   D2A58468  10.593  43.383   6.550
 4512POPC   C3A58469  10.534  43.603   6.941
 4512POPC   C4A58470  10.501  43.761   7.361
 4512POPC   C1B58471  10.482  44.142   6.134
 4512POPC   C2B58472  10.368  43.985   6.558
 4512POPC   C3B58473  10.398  44.128   6.991
 4512POPC   C4B58474  10.800  44.276   7.190
 4513POPC   NC358475  19.815  19.420   5.128
 4513POPC   PO458476  19.593  19.942   5.399
 4513POPC   GL158477  19.555  20.041   5.790
 4513POPC   GL258478  19.926  20.130   5.784
 4513POPC   C1A58479  19.533  19.838   6.201
 4513POPC   D2A58480  19.840  19.638   6.506
 4513POPC   C3A58481  19.780  19.788   6.923
 4513POPC   C4A58482  19.886  19.713   7.338
 4513POPC   C1B58483  20.070  20.034   6.235
 4513POPC   C2B58484  20.142  20.064   6.697
 4513POPC   C3B58485  20.167  20.106   7.156
 4513POPC   C4B58486  20.062  20.159   7.638
 4514POPC   NC358487  21.746  14.366   5.351
 4514POPC   PO458488  21.188  14.754   5.537
 4514POPC   GL158489  21.498  14.566   5.824
 4514POPC   GL258490  21.823  14.655   5.809
 4514POPC   C1A58491  21.651  14.497   6.278
 4514POPC   D2A58492  21.699  14.361   6.733
 4514POPC   C3A58493  21.355  14.325   7.035
 4514POPC   C4A58494  20.929  14.186   7.219
 4514POPC   C1B58495  21.836  14.966   6.172
 4514POPC   C2B58496  21.700  15.034   6.620
 4514POPC   C3B58497  21.564  14.807   7.005
 4514POPC   C4B58498  21.654  14.605   7.412
 4515POPC   NC358499  34.923   0.929   5.441
 4515POPC   PO458500  34.319   1.290   5.376
 4515POPC   GL158501  34.373   1.251   5.788
 4515POPC   GL258502  34.670   1.322   5.868
 4515POPC   C1A58503  34.237   1.001   6.139
 4515POPC   D2A58504  34.131   0.949   6.578
 4515POPC   C3A58505  34.312   1.053   6.977
 4515POPC   C4A58506  34.468   1.167   7.386
 4515POPC   C1B58507  34.521   1.383   6.295
 4515POPC   C2B58508  34.668   1.280   6.701
 4515POPC   C3B58509  34.541   1.548   7.056
 4515POPC   C4B58510  34.650   1.609   7.528
 4516POPC   NC358511  19.881  23.943   5.410
 4516POPC   PO458512  19.261  23.504   5.583
 4516POPC   GL158513  19.616  23.607   5.838
 4516POPC   GL258514  19.967  23.578   5.762
 4516POPC   C1A58515  19.768  23.490   6.248
 4516POPC   D2A58516  19.679  23.499   6.692
 4516POPC   C3A58517  19.757  23.870   6.929
 4516POPC   C4A58518  19.836  23.557   7.216
 4516POPC   C1B58519  20.182  23.791   6.100
 4516POPC   C2B58520  20.080  23.803   6.540
 4516POPC   C3B58521  20.255  23.722   6.963
 4516POPC   C4B58522  20.389  23.992   7.333
 4517POPC   NC358523   6.947  11.086   5.161
 4517POPC   PO458524   6.500  11.497   5.523
 4517POPC   GL158525   6.648  11.462   5.944
 4517POPC   GL258526   6.997  11.420   5.941
 4517POPC   C1A58527   6.696  11.318   6.375
 4517POPC   D2A58528   6.612  11.057   6.764
 4517POPC   C3A58529   6.529  11.342   7.116
 4517POPC   C4A58530   6.422  11.377   7.552
 4517POPC   C1B58531   7.112  11.029   6.223
 4517POPC   C2B58532   7.230  10.921   6.666
 4517POPC   C3B58533   7.064  11.088   7.028
 4517POPC   C4B58534   6.993  11.491   7.213
 4518POPC   NC358535  37.506  34.704   5.497
 4518POPC   PO458536  38.164  34.853   5.374
 4518POPC   GL158537  37.950  34.702   5.767
 4518POPC   GL258538  37.868  34.342   5.798
 4518POPC   C1A58539  37.679  34.704   6.153
 4518POPC   D2A58540  37.747  34.891   6.567
 4518POPC   C3A58541  37.675  34.692   6.952
 4518POPC   C4A58542  37.537  34.609   7.339
 4518POPC   C1B58543  37.681  34.185   6.192
 4518POPC   C2B58544  37.526  34.357   6.590
 4518POPC   C3B58545  37.562  34.181   7.013
 4518POPC   C4B58546  37.830  34.137   7.386
 4519POPC   NC358547  37.233  30.131   5.145
 4519POPC   PO458548  36.725  30.346   5.530
 4519POPC   GL158549  36.807  30.173   5.857
 4519POPC   GL258550  37.026  29.937   5.789
 4519POPC   C1A58551  36.687  30.166   6.271
 4519POPC   D2A58552  36.835  30.090   6.657
 4519POPC   C3A58553  36.716  29.910   7.040
 4519POPC   C4A58554  36.908  30.207   7.315
 4519POPC   C1B58555  37.195  30.113   6.194
 4519POPC   C2B58556  37.328  29.905   6.555
 4519POPC   C3B58557  37.214  29.894   6.972
 4519POPC   C4B58558  37.049  29.632   7.293
 4520POPC   NC358559  16.481  24.712   5.434
 4520POPC   PO458560  17.044  24.305   5.223
 4520POPC   GL158561  16.922  24.308   5.664
 4520POPC   GL258562  16.628  24.099   5.780
 4520POPC   C1A58563  16.920  24.408   6.114
 4520POPC   D2A58564  16.815  24.435   6.559
 4520POPC   C3A58565  17.100  24.308   6.901
 4520POPC   C4A58566  17.148  24.582   7.238
 4520POPC   C1B58567  16.483  24.129   6.234
 4520POPC   C2B58568  16.348  24.254   6.673
 4520POPC   C3B58569  16.580  24.272   7.086
 4520POPC   C4B58570  16.458  24.020   7.464
 4521POPC   NC358571  44.185  18.726   5.440
 4521POPC   PO458572  43.730  19.284   5.257
 4521POPC   GL158573  43.728  19.132   5.728
 4521POPC   GL258574  43.782  18.799   5.736
 4521POPC   C1A58575  43.891  19.114   6.166
 4521POPC   D2A58576  44.037  18.916   6.562
 4521POPC   C3A58577  44.004  19.125   6.951
 4521POPC   C4A58578  43.765  19.344   7.238
 4521POPC   C1B58579  43.522  18.756   6.081
 4521POPC   C2B58580  43.618  18.630   6.483
 4521POPC   C3B58581  43.593  18.792   6.894
 4521POPC   C4B58582  43.546  18.524   7.230
 4522POPC   NC358583  20.691  23.382   5.258
 4522POPC   PO458584  20.434  24.016   5.312
 4522POPC   GL158585  20.676  23.761   5.622
 4522POPC   GL258586  20.921  23.931   5.801
 4522POPC   C1A58587  20.654  23.551   6.045
 4522POPC   D2A58588  20.546  23.627   6.477
 4522POPC   C3A58589  20.670  23.398   6.840
 4522POPC   C4A58590  20.703  23.525   7.262
 4522POPC   C1B58591  20.834  23.987   6.202
 4522POPC   C2B58592  20.818  24.060   6.604
 4522POPC   C3B58593  20.720  23.918   6.944
 4522POPC   C4B58594  20.934  23.952   7.328
 4523POPC   NC358595   7.113  30.339   5.432
 4523POPC   PO458596   6.994  29.626   5.417
 4523POPC   GL158597   7.276  29.738   5.772
 4523POPC   GL258598   7.657  29.631   5.755
 4523POPC   C1A58599   7.175  29.852   6.214
 4523POPC   D2A58600   7.226  29.623   6.619
 4523POPC   C3A58601   7.306  29.820   7.021
 4523POPC   C4A58602   7.074  30.211   7.028
 4523POPC   C1B58603   7.778  29.950   6.090
 4523POPC   C2B58604   7.902  30.060   6.547
 4523POPC   C3B58605   7.740  30.113   6.979
 4523POPC   C4B58606   7.748  29.848   7.341
 4524POPC   NC358607  28.101  29.138   5.555
 4524POPC   PO458608  28.672  29.432   5.674
 4524POPC   GL158609  28.646  29.142   5.987
 4524POPC   GL258610  28.298  29.042   6.015
 4524POPC   C1A58611  28.585  28.992   6.430
 4524POPC   D2A58612  28.311  29.169   6.748
 4524POPC   C3A58613  28.586  29.188   7.104
 4524POPC   C4A58614  28.648  28.982   7.510
 4524POPC   C1B58615  27.980  29.310   6.210
 4524POPC   C2B58616  27.840  29.434   6.583
 4524POPC   C3B58617  27.921  29.389   7.014
 4524POPC   C4B58618  28.112  29.071   7.284
 4525POPC   NC358619  25.132  44.019   5.225
 4525POPC   PO458620  25.734  43.851   5.551
 4525POPC   GL158621  25.364  43.806   5.772
 4525POPC   GL258622  25.092  44.052   5.755
 4525POPC   C1A58623  25.262  43.876   6.199
 4525POPC   D2A58624  25.041  43.782   6.567
 4525POPC   C3A58625  25.210  43.894   6.975
 4525POPC   C4A58626  25.439  43.654   7.318
 4525POPC   C1B58627  24.993  44.303   6.165
 4525POPC   C2B58628  25.233  44.296   6.560
 4525POPC   C3B58629  25.174  44.421   6.998
 4525POPC   C4B58630  25.022  44.202   7.356
 4526POPC   NC358631  13.024  23.384   5.034
 4526POPC   PO458632  12.738  23.965   5.226
 4526POPC   GL158633  12.676  23.861   5.704
 4526POPC   GL258634  12.386  24.035   5.854
 4526POPC   C1A58635  12.712  23.721   6.175
 4526POPC   D2A58636  12.850  23.544   6.609
 4526POPC   C3A58637  12.740  23.709   7.031
 4526POPC   C4A58638  12.841  23.685   7.486
 4526POPC   C1B58639  12.367  24.110   6.288
 4526POPC   C2B58640  12.587  24.050   6.663
 4526POPC   C3B58641  12.502  24.197   7.067
 4526POPC   C4B58642  12.442  23.975   7.401
 4527POPC   NC358643   3.556  43.543   5.486
 4527POPC   PO458644   3.753  44.130   5.388
 4527POPC   GL158645   3.437  44.056   5.753
 4527POPC   GL258646   3.338  43.749   5.913
 4527POPC   C1A58647   3.308  44.212   6.147
 4527POPC   D2A58648   3.640  44.226   6.484
 4527POPC   C3A58649   3.606  44.092   6.930
 4527POPC   C4A58650   3.371  44.179   7.285
 4527POPC   C1B58651   3.446  43.762   6.348
 4527POPC   C2B58652   3.256  43.759   6.750
 4527POPC   C3B58653   3.394  43.655   7.167
 4527POPC   C4B58654   3.587  43.800   7.570
 4528POPC   NC358655  36.612  27.370   5.310
 4528POPC   PO458656  36.037  27.576   5.264
 4528POPC   GL158657  36.035  27.494   5.733
 4528POPC   GL258658  36.381  27.542   5.853
 4528POPC   C1A58659  36.005  27.646   6.197
 4528POPC   D2A58660  36.069  27.488   6.651
 4528POPC   C3A58661  36.004  27.672   7.069
 4528POPC   C4A58662  35.671  27.819   7.318
 4528POPC   C1B58663  36.429  27.340   6.289
 4528POPC   C2B58664  36.464  27.155   6.741
 4528POPC   C3B58665  36.228  27.181   7.146
 4528POPC   C4B58666  36.156  26.943   7.540
 4529POPC   NC358667   3.394  32.520   5.146
 4529POPC   PO458668   3.339  31.939   5.437
 4529POPC   GL158669   3.622  32.059   5.780
 4529POPC   GL258670   3.628  32.400   5.787
 4529POPC   C1A58671   3.761  32.185   6.243
 4529POPC   D2A58672   3.948  32.426   6.610
 4529POPC   C3A58673   3.853  32.280   7.035
 4529POPC   C4A58674   3.577  32.136   7.415
 4529POPC   C1B58675   3.354  32.517   6.150
 4529POPC   C2B58676   3.458  32.584   6.562
 4529POPC   C3B58677   3.368  32.380   6.945
 4529POPC   C4B58678   3.313  32.547   7.335
 4530POPC   NC358679  13.614  22.663   5.084
 4530POPC   PO458680  13.768  22.069   5.445
 4530POPC   GL158681  13.710  22.021   5.876
 4530POPC   GL258682  13.482  22.297   5.901
 4530POPC   C1A58683  13.602  21.909   6.302
 4530POPC   D2A58684  13.501  21.720   6.691
 4530POPC   C3A58685  13.679  21.958   6.984
 4530POPC   C4A58686  13.601  22.282   7.211
 4530POPC   C1B58687  13.708  22.409   6.257
 4530POPC   C2B58688  13.644  22.395   6.683
 4530POPC   C3B58689  13.684  22.708   6.978
 4530POPC   C4B58690  13.567  22.749   7.422
 4531POPC   NC358691  10.513  36.535   5.325
 4531POPC   PO458692  10.121  36.006   5.346
 4531POPC   GL158693  10.263  36.247   5.699
 4531POPC   GL258694  10.638  36.246   5.725
 4531POPC   C1A58695  10.377  36.282   6.145
 4531POPC   D2A58696  10.352  36.355   6.568
 4531POPC   C3A58697  10.506  36.228   6.956
 4531POPC   C4A58698  10.293  36.028   7.265
 4531POPC   C1B58699  10.682  35.898   6.039
 4531POPC   C2B58700  10.428  35.833   6.417
 4531POPC   C3B58701  10.390  35.693   6.851
 4531POPC   C4B58702  10.718  35.646   7.135
 4532POPC   NC358703  19.749  31.245   5.362
 4532POPC   PO458704  20.008  31.850   5.509
 4532POPC   GL158705  19.850  31.528   5.781
 4532POPC   GL258706  20.166  31.548   5.942
 4532POPC   C1A58707  19.816  31.333   6.213
 4532POPC   D2A58708  20.076  31.431   6.579
 4532POPC   C3A58709  19.836  31.444   6.946
 4532POPC   C4A58710  19.733  31.174   7.241
 4532POPC   C1B58711  19.984  31.833   6.289
 4532POPC   C2B58712  19.799  31.911   6.728
 4532POPC   C3B58713  19.980  31.884   7.182
 4532POPC   C4B58714  20.012  31.972   7.669
 4533POPC   NC358715   8.658   9.130   5.299
 4533POPC   PO458716   9.293   8.899   5.311
 4533POPC   GL158717   9.135   8.893   5.763
 4533POPC   GL258718   8.758   8.869   5.817
 4533POPC   C1A58719   9.146   9.016   6.210
 4533POPC   D2A58720   8.813   8.993   6.509
 4533POPC   C3A58721   8.877   9.039   6.943
 4533POPC   C4A58722   9.084   8.717   7.164
 4533POPC   C1B58723   8.496   9.133   6.127
 4533POPC   C2B58724   8.331   9.149   6.584
 4533POPC   C3B58725   8.403   8.875   6.978
 4533POPC   C4B58726   8.642   8.836   7.394
 4534POPC   NC358727   9.011   0.701   5.375
 4534POPC   PO458728   8.605   0.255   5.605
 4534POPC   GL158729   9.006   0.355   5.760
 4534POPC   GL258730   8.856   0.682   5.842
 4534POPC   C1A58731   9.271   0.268   6.130
 4534POPC   D2A58732   9.148   0.400   6.576
 4534POPC   C3A58733   9.239   0.201   6.933
 4534POPC   C4A58734   9.044   0.219   7.324
 4534POPC   C1B58735   8.845   0.549   6.205
 4534POPC   C2B58736   8.636   0.479   6.569
 4534POPC   C3B58737   8.798   0.495   6.970
 4534POPC   C4B58738   8.803   0.659   7.379
 4535POPC   NC358739   8.202   3.705   5.214
 4535POPC   PO458740   8.607   3.228   5.385
 4535POPC   GL158741   8.274   3.458   5.665
 4535POPC   GL258742   8.250   3.822   5.727
 4535POPC   C1A58743   8.089   3.474   6.088
 4535POPC   D2A58744   8.304   3.287   6.430
 4535POPC   C3A58745   8.086   3.314   6.826
 4535POPC   C4A58746   7.963   3.663   7.105
 4535POPC   C1B58747   8.367   3.910   6.202
 4535POPC   C2B58748   8.303   3.811   6.662
 4535POPC   C3B58749   8.500   3.854   7.083
 4535POPC   C4B58750   8.398   3.596   7.401
 4536POPC   NC358751   0.481   9.345   5.420
 4536POPC   PO458752   0.132   8.715   5.469
 4536POPC   GL158753   0.517   8.892   5.718
 4536POPC   GL258754   0.531   9.202   5.892
 4536POPC   C1A58755   0.817   8.860   6.098
 4536POPC   D2A58756   0.691   9.065   6.520
 4536POPC   C3A58757   0.400   8.840   6.812
 4536POPC   C4A58758   0.567   8.861   7.243
 4536POPC   C1B58759   0.398   9.381   6.255
 4536POPC   C2B58760   0.188   9.338   6.663
 4536POPC   C3B58761   0.295   9.268   7.093
 4536POPC   C4B58762   0.149   9.128   7.486
 4537POPC   NC358763  33.484  16.021   5.416
 4537POPC   PO458764  34.133  16.060   5.475
 4537POPC   GL158765  33.914  15.928   5.876
 4537POPC   GL258766  33.574  15.718   5.863
 4537POPC   C1A58767  34.158  15.758   6.249
 4537POPC   D2A58768  34.059  15.729   6.679
 4537POPC   C3A58769  33.828  16.099   6.775
 4537POPC   C4A58770  33.801  16.350   7.137
 4537POPC   C1B58771  33.650  15.780   6.327
 4537POPC   C2B58772  33.566  15.542   6.700
 4537POPC   C3B58773  33.387  15.630   7.083
 4537POPC   C4B58774  33.822  15.775   7.200
 4538POPC   NC358775  30.009  23.503   5.513
 4538POPC   PO458776  30.146  24.167   5.390
 4538POPC   GL158777  30.221  23.858   5.795
 4538POPC   GL258778  29.876  23.804   5.913
 4538POPC   C1A58779  30.206  23.549   6.192
 4538POPC   D2A58780  30.045  23.439   6.626
 4538POPC   C3A58781  30.253  23.506   6.973
 4538POPC   C4A58782  30.328  23.819   7.199
 4538POPC   C1B58783  29.693  23.546   6.268
 4538POPC   C2B58784  29.545  23.470   6.720
 4538POPC   C3B58785  29.579  23.480   7.179
 4538POPC   C4B58786  29.685  23.459   7.642
 4539POPC   NC358787  36.052  35.670   5.257
 4539POPC   PO458788  36.385  35.064   5.454
 4539POPC   GL158789  36.185  35.350   5.725
 4539POPC   GL258790  35.922  35.250   5.863
 4539POPC   C1A58791  36.238  35.400   6.199
 4539POPC   D2A58792  36.233  35.189   6.598
 4539POPC   C3A58793  36.480  35.409   6.901
 4539POPC   C4A58794  36.415  35.303   7.296
 4539POPC   C1B58795  35.701  35.428   6.211
 4539POPC   C2B58796  35.731  35.257   6.629
 4539POPC   C3B58797  35.956  35.367   7.013
 4539POPC   C4B58798  35.892  35.181   7.389
 4540POPC   NC358799   4.579  12.437   5.454
 4540POPC   PO458800   3.961  12.137   5.319
 4540POPC   GL158801   4.172  11.927   5.645
 4540POPC   GL258802   4.486  12.066   5.816
 4540POPC   C1A58803   4.029  11.917   6.059
 4540POPC   D2A58804   4.292  12.025   6.387
 4540POPC   C3A58805   4.211  12.076   6.791
 4540POPC   C4A58806   4.124  12.132   7.198
 4540POPC   C1B58807   4.657  12.327   6.180
 4540POPC   C2B58808   4.700  12.236   6.638
 4540POPC   C3B58809   4.794  12.469   7.002
 4540POPC   C4B58810   4.561  12.368   7.370
 4541POPC   NC358811   6.151  33.988   5.300
 4541POPC   PO458812   6.767  33.655   5.236
 4541POPC   GL158813   6.609  33.744   5.618
 4541POPC   GL258814   6.798  33.461   5.733
 4541POPC   C1A58815   6.687  33.844   6.066
 4541POPC   D2A58816   6.583  33.980   6.499
 4541POPC   C3A58817   6.889  33.985   6.803
 4541POPC   C4A58818   6.773  33.834   7.199
 4541POPC   C1B58819   6.975  33.360   6.111
 4541POPC   C2B58820   6.867  33.556   6.465
 4541POPC   C3B58821   6.773  33.451   6.856
 4541POPC   C4B58822   7.049  33.398   7.226
 4542POPC   NC358823   5.952  27.177   5.416
 4542POPC   PO458824   5.442  26.650   5.364
 4542POPC   GL158825   5.561  26.966   5.722
 4542POPC   GL258826   5.901  26.870   5.829
 4542POPC   C1A58827   5.722  27.252   6.087
 4542POPC   D2A58828   5.847  27.348   6.520
 4542POPC   C3A58829   5.790  27.011   6.791
 4542POPC   C4A58830   6.002  26.814   7.115
 4542POPC   C1B58831   6.006  26.856   6.285
 4542POPC   C2B58832   6.083  26.587   6.647
 4542POPC   C3B58833   6.341  26.438   6.971
 4542POPC   C4B58834   6.360  26.577   7.378
 4543POPC   NC358835   9.322  10.892   5.287
 4543POPC   PO458836   8.931  10.382   5.339
 4543POPC   GL158837   8.966  10.719   5.683
 4543POPC   GL258838   9.265  10.748   5.859
 4543POPC   C1A58839   8.823  10.763   6.158
 4543POPC   D2A58840   8.972  10.667   6.613
 4543POPC   C3A58841   8.965  10.299   6.875
 4543POPC   C4A58842   8.895  10.273   7.358
 4543POPC   C1B58843   9.377  10.742   6.312
 4543POPC   C2B58844   9.508  10.637   6.748
 4543POPC   C3B58845   9.362  10.455   7.144
 4543POPC   C4B58846   9.020  10.728   7.189
 4544POPC   NC358847  27.183   1.412   5.671
 4544POPC   PO458848  26.644   1.317   5.411
 4544POPC   GL158849  26.774   1.210   5.869
 4544POPC   GL258850  26.677   1.520   5.885
 4544POPC   C1A58851  26.912   1.271   6.308
 4544POPC   D2A58852  26.647   1.176   6.668
 4544POPC   C3A58853  26.895   1.007   7.002
 4544POPC   C4A58854  26.869   0.772   7.376
 4544POPC   C1B58855  26.453   1.475   6.264
 4544POPC   C2B58856  26.612   1.681   6.645
 4544POPC   C3B58857  26.849   1.499   7.025
 4544POPC   C4B58858  26.659   1.235   7.377
 4545POPC   NC358859   3.113  24.487   5.515
 4545POPC   PO458860   2.566  24.865   5.558
 4545POPC   GL158861   2.742  24.643   5.857
 4545POPC   GL258862   2.711  24.303   5.812
 4545POPC   C1A58863   2.799  24.785   6.254
 4545POPC   D2A58864   2.942  24.599   6.598
 4545POPC   C3A58865   2.611  24.558   6.859
 4545POPC   C4A58866   2.806  24.549   7.223
 4545POPC   C1B58867   2.853  24.256   6.222
 4545POPC   C2B58868   2.712  24.107   6.615
 4545POPC   C3B58869   2.583  24.050   7.027
 4545POPC   C4B58870   2.391  24.261   7.355
 4546POPC   NC358871  21.672  27.741   5.444
 4546POPC   PO458872  22.298  27.503   5.456
 4546POPC   GL158873  22.242  27.695   5.828
 4546POPC   GL258874  22.036  27.938   5.736
 4546POPC   C1A58875  22.137  27.584   6.267
 4546POPC   D2A58876  22.376  27.410   6.628
 4546POPC   C3A58877  22.204  27.530   7.040
 4546POPC   C4A58878  22.356  27.635   7.470
 4546POPC   C1B58879  21.840  28.011   6.126
 4546POPC   C2B58880  21.898  27.931   6.577
 4546POPC   C3B58881  21.947  27.971   7.024
 4546POPC   C4B58882  21.862  27.791   7.462
 4547POPC   NC358883  25.539   9.022   5.571
 4547POPC   PO458884  24.997   8.689   5.356
 4547POPC   GL158885  25.128   8.765   5.739
 4547POPC   GL258886  25.042   9.118   5.705
 4547POPC   C1A58887  25.163   8.602   6.149
 4547POPC   D2A58888  25.387   8.738   6.503
 4547POPC   C3A58889  25.188   8.758   6.899
 4547POPC   C4A58890  25.351   8.745   7.324
 4547POPC   C1B58891  25.165   9.129   6.121
 4547POPC   C2B58892  25.265   9.265   6.519
 4547POPC   C3B58893  25.420   9.215   6.918
 4547POPC   C4B58894  25.108   9.206   7.229
 4548POPC   NC358895  33.332  18.489   5.631
 4548POPC   PO458896  33.894  18.349   5.307
 4548POPC   GL158897  33.897  18.125   5.748
 4548POPC   GL258898  33.530  18.064   5.848
 4548POPC   C1A58899  33.889  18.183   6.201
 4548POPC   D2A58900  33.765  18.530   6.478
 4548POPC   C3A58901  33.825  18.396   6.915
 4548POPC   C4A58902  33.565  18.543   7.246
 4548POPC   C1B58903  33.370  18.180   6.249
 4548POPC   C2B58904  33.413  18.202   6.696
 4548POPC   C3B58905  33.410  18.073   7.129
 4548POPC   C4B58906  33.782  18.112   7.403
 4549POPC   NC358907  13.787  11.020   5.567
 4549POPC   PO458908  13.689  11.686   5.508
 4549POPC   GL158909  13.519  11.400   5.816
 4549POPC   GL258910  13.293  11.100   5.764
 4549POPC   C1A58911  13.586  11.357   6.242
 4549POPC   D2A58912  13.842  11.388   6.620
 4549POPC   C3A58913  13.593  11.271   6.930
 4549POPC   C4A58914  13.433  11.400   7.278
 4549POPC   C1B58915  13.258  10.958   6.178
 4549POPC   C2B58916  13.511  10.844   6.521
 4549POPC   C3B58917  13.622  10.764   6.931
 4549POPC   C4B58918  13.392  10.900   7.280
 4550POPC   NC358919  33.245  33.291   5.482
 4550POPC   PO458920  32.809  32.755   5.527
 4550POPC   GL158921  33.108  32.923   5.818
 4550POPC   GL258922  32.895  33.221   5.885
 4550POPC   C1A58923  33.203  33.071   6.235
 4550POPC   D2A58924  33.027  33.243   6.611
 4550POPC   C3A58925  33.188  33.123   7.004
 4550POPC   C4A58926  33.434  33.412   7.212
 4550POPC   C1B58927  32.636  33.186   6.291
 4550POPC   C2B58928  32.536  33.246   6.756
 4550POPC   C3B58929  32.697  33.107   7.141
 4550POPC   C4B58930  32.899  32.693   7.151
 4551POPC   NC358931  10.129  33.784   5.505
 4551POPC   PO458932  10.789  33.814   5.582
 4551POPC   GL158933  10.480  33.750   5.872
 4551POPC   GL258934  10.370  34.120   5.834
 4551POPC   C1A58935  10.570  33.564   6.272
 4551POPC   D2A58936  10.946  33.561   6.506
 4551POPC   C3A58937  10.758  33.665   6.865
 4551POPC   C4A58938  10.436  33.505   7.100
 4551POPC   C1B58939  10.440  34.049   6.273
 4551POPC   C2B58940  10.568  34.134   6.713
 4551POPC   C3B58941  10.334  34.026   7.081
 4551POPC   C4B58942  10.188  34.245   7.466
 4552POPC   NC358943  18.449   1.072   5.421
 4552POPC   PO458944  18.107   1.587   5.545
 4552POPC   GL158945  18.346   1.339   5.854
 4552POPC   GL258946  18.134   1.060   5.837
 4552POPC   C1A58947  18.488   1.089   6.231
 4552POPC   D2A58948  18.619   0.959   6.656
 4552POPC   C3A58949  18.470   1.243   7.017
 4552POPC   C4A58950  18.218   1.278   7.410
 4552POPC   C1B58951  17.982   1.194   6.258
 4552POPC   C2B58952  18.107   1.094   6.680
 4552POPC   C3B58953  18.118   0.863   7.092
 4552POPC   C4B58954  17.905   0.891   7.481
 4553POPC   NC358955   0.196  18.067   5.458
 4553POPC   PO458956   0.433  18.626   5.050
 4553POPC   GL158957   0.427  18.703   5.555
 4553POPC   GL258958   0.767  18.644   5.742
 4553POPC   C1A58959   0.367  18.527   6.028
 4553POPC   D2A58960   0.461  18.219   6.388
 4553POPC   C3A58961   0.404  18.162   6.833
 4553POPC   C4A58962   0.375  18.337   7.287
 4553POPC   C1B58963   0.877  18.463   6.200
 4553POPC   C2B58964   0.874  18.410   6.698
 4553POPC   C3B58965   0.847  18.546   7.173
 4553POPC   C4B58966   0.760  18.385   7.626
 4554POPC   NC358967   4.470  24.168   5.524
 4554POPC   PO458968   4.177  23.731   5.136
 4554POPC   GL158969   4.049  23.807   5.668
 4554POPC   GL258970   4.147  23.506   5.909
 4554POPC   C1A58971   4.180  23.927   6.154
 4554POPC   D2A58972   4.555  23.978   6.473
 4554POPC   C3A58973   4.474  23.955   6.931
 4554POPC   C4A58974   4.384  23.891   7.364
 4554POPC   C1B58975   4.034  23.432   6.313
 4554POPC   C2B58976   4.178  23.667   6.638
 4554POPC   C3B58977   3.988  23.741   7.006
 4554POPC   C4B58978   3.840  23.322   7.068
 4555POPC   NC358979  38.871  21.519   5.567
 4555POPC   PO458980  38.203  21.587   5.561
 4555POPC   GL158981  38.377  21.340   5.880
 4555POPC   GL258982  38.572  21.628   5.960
 4555POPC   C1A58983  38.558  21.263   6.301
 4555POPC   D2A58984  38.432  21.208   6.720
 4555POPC   C3A58985  38.104  20.937   6.802
 4555POPC   C4A58986  38.038  21.137   7.197
 4555POPC   C1B58987  38.904  21.652   6.251
 4555POPC   C2B58988  38.878  21.895   6.639
 4555POPC   C3B58989  38.754  21.740   7.024
 4555POPC   C4B58990  38.642  21.344   7.193
 4556POPC   NC358991  22.964  37.938   5.099
 4556POPC   PO458992  22.970  37.496   5.636
 4556POPC   GL158993  23.002  37.868   5.944
 4556POPC   GL258994  22.678  38.066   6.001
 4556POPC   C1A58995  23.012  37.791   6.399
 4556POPC   D2A58996  22.795  37.553   6.744
 4556POPC   C3A58997  22.994  37.366   7.104
 4556POPC   C4A58998  22.923  37.400   7.558
 4556POPC   C1B58999  22.886  38.283   6.379
 4556POPC   C2B59000  22.886  38.067   6.822
 4556POPC   C3B59001  23.007  37.851   7.244
 4556POPC   C4B59002  23.006  38.097   7.662
 4557POPC   NC359003  19.464  24.845   5.304
 4557POPC   PO459004  19.960  25.307   5.348
 4557POPC   GL159005  19.900  25.267   5.779
 4557POPC   GL259006  19.635  25.464   5.841
 4557POPC   C1A59007  19.856  25.084   6.213
 4557POPC   D2A59008  19.672  25.035   6.637
 4557POPC   C3A59009  19.925  25.233   6.943
 4557POPC   C4A59010  19.874  25.153   7.413
 4557POPC   C1B59011  19.454  25.428   6.285
 4557POPC   C2B59012  19.494  25.518   6.756
 4557POPC   C3B59013  19.538  25.445   7.199
 4557POPC   C4B59014  19.493  25.538   7.673
 4558POPC   NC359015  13.101  32.760   5.435
 4558POPC   PO459016  12.711  33.352   5.263
 4558POPC   GL159017  12.880  33.060   5.757
 4558POPC   GL259018  13.202  33.153   5.940
 4558POPC   C1A59019  12.811  32.907   6.173
 4558POPC   D2A59020  12.575  32.920   6.537
 4558POPC   C3A59021  12.786  32.929   6.911
 4558POPC   C4A59022  12.517  32.972   7.252
 4558POPC   C1B59023  12.950  33.412   6.282
 4558POPC   C2B59024  12.877  33.413   6.747
 4558POPC   C3B59025  12.903  33.317   7.216
 4558POPC   C4B59026  13.045  33.455   7.652
 4559POPC   NC359027  33.352  40.694   5.572
 4559POPC   PO459028  32.853  41.039   5.426
 4559POPC   GL159029  33.010  40.979   5.809
 4559POPC   GL259030  32.937  40.622   5.846
 4559POPC   C1A59031  32.889  40.960   6.235
 4559POPC   D2A59032  33.138  40.910   6.596
 4559POPC   C3A59033  32.925  40.988   6.955
 4559POPC   C4A59034  32.882  40.830   7.359
 4559POPC   C1B59035  33.196  40.558   6.204
 4559POPC   C2B59036  33.057  40.368   6.578
 4559POPC   C3B59037  33.117  40.519   6.978
 4559POPC   C4B59038  33.226  40.472   7.402
 4560POPC   NC359039  19.203  23.929   5.438
 4560POPC   PO459040  18.545  24.059   5.407
 4560POPC   GL159041  18.789  23.792   5.744
 4560POPC   GL259042  18.564  23.493   5.870
 4560POPC   C1A59043  19.180  23.940   6.076
 4560POPC   D2A59044  19.299  23.691   6.427
 4560POPC   C3A59045  19.261  23.784   6.887
 4560POPC   C4A59046  19.428  23.830   7.339
 4560POPC   C1B59047  18.814  23.616   6.220
 4560POPC   C2B59048  18.825  23.565   6.661
 4560POPC   C3B59049  18.902  23.464   7.053
 4560POPC   C4B59050  18.880  23.814   7.269
 4561POPC   NC359051  22.892  44.300   5.493
 4561POPC   PO459052  23.156  44.992   5.470
 4561POPC   GL159053  22.959  44.784   5.842
 4561POPC   GL259054  22.979  44.412   5.968
 4561POPC   C1A59055  23.118  44.811   6.265
 4561POPC   D2A59056  23.369  44.935   6.602
 4561POPC   C3A59057  23.178  44.812   6.938
 4561POPC   C4A59058  22.816  44.707   6.990
 4561POPC   C1B59059  22.735  44.404   6.320
 4561POPC   C2B59060  22.696  44.270   6.760
 4561POPC   C3B59061  22.679  44.306   7.253
 4561POPC   C4B59062  22.695  44.317   7.742
 4562POPC   NC359063   6.278  22.327   5.506
 4562POPC   PO459064   6.860  22.199   5.125
 4562POPC   GL159065   6.966  22.144   5.641
 4562POPC   GL259066   6.713  22.316   5.883
 4562POPC   C1A59067   6.982  21.917   6.054
 4562POPC   D2A59068   7.060  22.046   6.488
 4562POPC   C3A59069   6.726  22.159   6.824
 4562POPC   C4A59070   6.855  22.240   7.257
 4562POPC   C1B59071   6.648  22.333   6.319
 4562POPC   C2B59072   6.307  22.172   6.542
 4562POPC   C3B59073   6.147  22.254   6.917
 4562POPC   C4B59074   6.349  22.282   7.282
 4563POPC   NC359075  23.795  30.850   5.286
 4563POPC   PO459076  23.431  30.346   5.485
 4563POPC   GL159077  23.706  30.622   5.762
 4563POPC   GL259078  24.049  30.585   5.666
 4563POPC   C1A59079  23.802  30.783   6.192
 4563POPC   D2A59080  23.635  30.725   6.632
 4563POPC   C3A59081  23.736  31.014   6.989
 4563POPC   C4A59082  23.672  31.006   7.439
 4563POPC   C1B59083  24.105  30.371   6.070
 4563POPC   C2B59084  24.098  30.360   6.528
 4563POPC   C3B59085  24.023  30.555   6.920
 4563POPC   C4B59086  23.718  30.545   7.236
 4564POPC   NC359087  42.289  31.753   5.336
 4564POPC   PO459088  42.582  31.149   5.347
 4564POPC   GL159089  42.367  31.389   5.728
 4564POPC   GL259090  42.064  31.639   5.795
 4564POPC   C1A59091  42.428  31.325   6.205
 4564POPC   D2A59092  42.511  31.093   6.604
 4564POPC   C3A59093  42.420  31.199   7.062
 4564POPC   C4A59094  42.355  31.337   7.507
 4564POPC   C1B59095  42.106  31.720   6.254
 4564POPC   C2B59096  42.340  31.622   6.664
 4564POPC   C3B59097  42.301  31.695   7.131
 4564POPC   C4B59098  42.198  31.806   7.577
 4565POPC   NC359099  43.509  39.131   5.410
 4565POPC   PO459100  42.907  39.399   5.525
 4565POPC   GL159101  43.142  39.225   5.791
 4565POPC   GL259102  43.298  39.535   5.827
 4565POPC   C1A59103  43.126  38.943   6.156
 4565POPC   D2A59104  43.199  38.821   6.607
 4565POPC   C3A59105  43.030  39.095   6.912
 4565POPC   C4A59106  42.704  39.080   7.222
 4565POPC   C1B59107  43.006  39.454   6.233
 4565POPC   C2B59108  42.953  39.566   6.691
 4565POPC   C3B59109  42.903  39.535   7.129
 4565POPC   C4B59110  43.212  39.593   7.343
 4566POPC   NC359111  19.067  22.236   5.256
 4566POPC   PO459112  19.602  22.565   5.571
 4566POPC   GL159113  19.224  22.383   5.865
 4566POPC   GL259114  18.993  22.077   5.741
 4566POPC   C1A59115  19.195  22.327   6.311
 4566POPC   D2A59116  19.463  22.417   6.678
 4566POPC   C3A59117  19.194  22.245   6.988
 4566POPC   C4A59118  19.401  21.866   7.148
 4566POPC   C1B59119  18.742  22.113   6.130
 4566POPC   C2B59120  18.821  21.951   6.561
 4566POPC   C3B59121  18.909  21.813   6.988
 4566POPC   C4B59122  18.988  21.994   7.423
 4567POPC   NC359123  21.470  12.180   5.442
 4567POPC   PO459124  20.888  12.287   5.263
 4567POPC   GL159125  21.139  12.310   5.779
 4567POPC   GL259126  21.283  11.937   5.846
 4567POPC   C1A59127  21.549  12.224   6.137
 4567POPC   D2A59128  21.506  11.981   6.563
 4567POPC   C3A59129  21.620  12.177   6.972
 4567POPC   C4A59130  21.611  11.996   7.359
 4567POPC   C1B59131  21.093  12.007   6.248
 4567POPC   C2B59132  20.964  11.944   6.670
 4567POPC   C3B59133  21.218  11.855   7.022
 4567POPC   C4B59134  21.115  11.975   7.433
 4568POPC   NC359135  38.841  16.773   5.496
 4568POPC   PO459136  39.217  17.281   5.419
 4568POPC   GL159137  39.350  16.961   5.762
 4568POPC   GL259138  39.469  16.592   5.731
 4568POPC   C1A59139  39.167  16.852   6.172
 4568POPC   D2A59140  39.089  17.055   6.581
 4568POPC   C3A59141  39.085  16.849   6.984
 4568POPC   C4A59142  39.307  16.861   7.391
 4568POPC   C1B59143  39.443  16.406   6.165
 4568POPC   C2B59144  39.400  16.609   6.584
 4568POPC   C3B59145  39.353  16.410   6.989
 4568POPC   C4B59146  39.083  16.416   7.339
 4569POPC   NC359147  20.761   5.794   5.211
 4569POPC   PO459148  20.107   5.965   5.375
 4569POPC   GL159149  20.309   5.734   5.772
 4569POPC   GL259150  20.677   5.763   5.755
 4569POPC   C1A59151  20.445   5.813   6.243
 4569POPC   D2A59152  20.543   6.007   6.665
 4569POPC   C3A59153  20.407   5.898   7.101
 4569POPC   C4A59154  20.562   5.646   7.421
 4569POPC   C1B59155  20.949   5.816   6.126
 4569POPC   C2B59156  20.950   5.653   6.548
 4569POPC   C3B59157  20.880   5.740   6.978
 4569POPC   C4B59158  21.064   5.650   7.351
 4570POPC   NC359159  43.100  28.494   5.483
 4570POPC   PO459160  43.087  27.842   5.529
 4570POPC   GL159161  43.096  28.136   5.873
 4570POPC   GL259162  42.778  28.296   5.841
 4570POPC   C1A59163  43.238  28.237   6.330
 4570POPC   D2A59164  43.549  28.498   6.595
 4570POPC   C3A59165  43.294  28.709   6.915
 4570POPC   C4A59166  43.098  28.544   7.302
 4570POPC   C1B59167  42.732  28.090   6.234
 4570POPC   C2B59168  42.887  27.963   6.612
 4570POPC   C3B59169  42.827  28.183   6.993
 4570POPC   C4B59170  42.618  28.304   7.387
 4571POPC   NC359171   0.005  36.188   5.428
 4571POPC   PO459172  44.295  36.205   5.513
 4571POPC   GL159173  44.608  36.104   5.744
 4571POPC   GL259174  44.401  35.934   5.938
 4571POPC   C1A59175  44.875  36.085   6.094
 4571POPC   D2A59176  44.939  36.204   6.509
 4571POPC   C3A59177  44.805  35.900   6.810
 4571POPC   C4A59178  44.633  36.094   7.182
 4571POPC   C1B59179  44.294  36.026   6.328
 4571POPC   C2B59180  44.294  35.953   6.752
 4571POPC   C3B59181  44.155  36.218   7.058
 4571POPC   C4B59182  44.250  36.319   7.443
 4572POPC   NC359183   0.165  42.877   5.481
 4572POPC   PO459184   0.691  43.355   5.402
 4572POPC   GL159185   0.512  43.356   5.818
 4572POPC   GL259186   0.173  43.240   5.827
 4572POPC   C1A59187   0.460  43.200   6.263
 4572POPC   D2A59188   0.464  43.174   6.725
 4572POPC   C3A59189   0.649  43.327   7.092
 4572POPC   C4A59190   0.446  43.209   7.470
 4572POPC   C1B59191   0.039  42.882   6.127
 4572POPC   C2B59192   0.018  42.653   6.525
 4572POPC   C3B59193   0.092  42.816   6.946
 4572POPC   C4B59194   0.509  42.825   7.121
 4573POPC   NC359195  23.238  24.002   5.299
 4573POPC   PO459196  22.686  23.777   5.471
 4573POPC   GL159197  22.814  23.893   5.880
 4573POPC   GL259198  23.158  23.899   5.802
 4573POPC   C1A59199  22.890  23.536   6.210
 4573POPC   D2A59200  22.962  23.282   6.609
 4573POPC   C3A59201  22.903  23.491   7.002
 4573POPC   C4A59202  22.812  23.781   7.333
 4573POPC   C1B59203  23.215  23.934   6.236
 4573POPC   C2B59204  23.135  23.756   6.617
 4573POPC   C3B59205  23.161  23.937   7.000
 4573POPC   C4B59206  23.167  24.166   7.367
 4574POPC   NC359207   6.449   7.200   5.430
 4574POPC   PO459208   6.874   7.721   5.508
 4574POPC   GL159209   6.669   7.492   5.843
 4574POPC   GL259210   6.600   7.160   5.932
 4574POPC   C1A59211   6.506   7.603   6.222
 4574POPC   D2A59212   6.731   7.679   6.576
 4574POPC   C3A59213   6.468   7.577   6.920
 4574POPC   C4A59214   6.592   7.659   7.336
 4574POPC   C1B59215   6.534   7.111   6.410
 4574POPC   C2B59216   6.216   7.160   6.762
 4574POPC   C3B59217   6.278   7.146   7.199
 4574POPC   C4B59218   6.668   7.166   7.457
 4575POPC   NC359219  39.765  11.934   5.540
 4575POPC   PO459220  40.235  12.487   5.447
 4575POPC   GL159221  40.007  12.324   5.788
 4575POPC   GL259222  40.219  12.011   5.845
 4575POPC   C1A59223  39.867  12.139   6.181
 4575POPC   D2A59224  39.838  11.991   6.580
 4575POPC   C3A59225  39.993  12.243   6.907
 4575POPC   C4A59226  39.912  12.024   7.247
 4575POPC   C1B59227  40.270  11.808   6.249
 4575POPC   C2B59228  40.358  11.968   6.666
 4575POPC   C3B59229  40.311  11.761   7.078
 4575POPC   C4B59230  40.278  11.807   7.553
 4576POPC   NC359231  17.730  33.132   5.564
 4576POPC   PO459232  17.193  32.882   5.266
 4576POPC   GL159233  17.339  32.837   5.758
 4576POPC   GL259234  17.630  32.684   5.837
 4576POPC   C1A59235  17.586  33.046   6.192
 4576POPC   D2A59236  17.537  33.314   6.546
 4576POPC   C3A59237  17.518  33.093   6.919
 4576POPC   C4A59238  17.776  32.922   7.209
 4576POPC   C1B59239  17.276  32.655   6.214
 4576POPC   C2B59240  17.400  32.685   6.641
 4576POPC   C3B59241  17.384  32.602   7.090
 4576POPC   C4B59242  17.370  32.832   7.495
 4577POPC   NC359243   7.136  25.529   5.389
 4577POPC   PO459244   7.583  25.026   5.415
 4577POPC   GL159245   7.459  25.161   5.810
 4577POPC   GL259246   7.151  25.335   5.857
 4577POPC   C1A59247   7.521  25.288   6.244
 4577POPC   D2A59248   7.410  25.554   6.593
 4577POPC   C3A59249   7.638  25.548   7.000
 4577POPC   C4A59250   7.744  25.136   7.236
 4577POPC   C1B59251   7.064  25.041   6.182
 4577POPC   C2B59252   7.235  24.961   6.595
 4577POPC   C3B59253   7.295  25.161   6.968
 4577POPC   C4B59254   7.099  25.479   7.163
 4578POPC   NC359255   9.185  12.471   5.522
 4578POPC   PO459256   8.773  11.861   5.496
 4578POPC   GL159257   8.947  12.105   5.779
 4578POPC   GL259258   8.639  12.321   5.804
 4578POPC   C1A59259   9.205  12.115   6.157
 4578POPC   D2A59260   9.364  12.051   6.578
 4578POPC   C3A59261   9.225  12.278   6.949
 4578POPC   C4A59262   9.082  12.083   7.321
 4578POPC   C1B59263   8.687  12.101   6.199
 4578POPC   C2B59264   8.850  12.205   6.580
 4578POPC   C3B59265   8.763  12.015   6.934
 4578POPC   C4B59266   8.579  12.018   7.328
 4579POPC   NC359267  19.855  27.990   5.482
 4579POPC   PO459268  19.995  28.630   5.254
 4579POPC   GL159269  19.923  28.469   5.668
 4579POPC   GL259270  19.583  28.609   5.717
 4579POPC   C1A59271  20.089  28.257   6.073
 4579POPC   D2A59272  20.281  28.363   6.492
 4579POPC   C3A59273  20.065  28.414   6.857
 4579POPC   C4A59274  20.113  28.310   7.271
 4579POPC   C1B59275  19.812  28.676   6.120
 4579POPC   C2B59276  19.713  28.620   6.545
 4579POPC   C3B59277  19.595  28.599   6.968
 4579POPC   C4B59278  19.555  28.294   7.276
 4580POPC   NC359279  18.181  28.053   5.445
 4580POPC   PO459280  18.048  28.738   5.566
 4580POPC   GL159281  18.307  28.462   5.795
 4580POPC   GL259282  18.026  28.255   5.903
 4580POPC   C1A59283  18.498  28.557   6.191
 4580POPC   D2A59284  18.628  28.396   6.608
 4580POPC   C3A59285  18.323  28.349   6.864
 4580POPC   C4A59286  18.282  28.314   7.230
 4580POPC   C1B59287  17.694  28.131   6.201
 4580POPC   C2B59288  17.651  27.970   6.614
 4580POPC   C3B59289  17.888  28.085   6.961
 4580POPC   C4B59290  18.062  27.884   7.323
 4581POPC   NC359291  30.665  25.529   5.498
 4581POPC   PO459292  31.150  25.100   5.386
 4581POPC   GL159293  30.916  25.117   5.783
 4581POPC   GL259294  30.586  25.007   5.666
 4581POPC   C1A59295  30.784  25.417   6.150
 4581POPC   D2A59296  30.591  25.451   6.583
 4581POPC   C3A59297  30.881  25.471   6.895
 4581POPC   C4A59298  30.661  25.474   7.245
 4581POPC   C1B59299  30.521  24.977   6.089
 4581POPC   C2B59300  30.763  24.993   6.461
 4581POPC   C3B59301  30.652  25.022   6.878
 4581POPC   C4B59302  30.878  25.019   7.243
 4582POPC   NC359303   2.963  31.687   5.507
 4582POPC   PO459304   2.516  31.259   5.171
 4582POPC   GL159305   2.554  31.270   5.625
 4582POPC   GL259306   2.857  31.140   5.650
 4582POPC   C1A59307   2.500  31.415   6.070
 4582POPC   D2A59308   2.306  31.399   6.502
 4582POPC   C3A59309   2.548  31.632   6.829
 4582POPC   C4A59310   2.842  31.589   7.177
 4582POPC   C1B59311   2.894  31.080   6.052
 4582POPC   C2B59312   2.787  31.102   6.478
 4582POPC   C3B59313   2.846  31.128   6.906
 4582POPC   C4B59314   3.034  30.877   7.193
 4583POPC   NC359315  10.865  36.921   5.517
 4583POPC   PO459316  10.149  36.748   5.492
 4583POPC   GL159317  10.431  36.727   5.822
 4583POPC   GL259318  10.462  37.073   5.823
 4583POPC   C1A59319  10.559  36.762   6.257
 4583POPC   D2A59320  10.320  36.849   6.627
 4583POPC   C3A59321  10.543  36.758   6.970
 4583POPC   C4A59322  10.698  36.586   7.341
 4583POPC   C1B59323  10.229  37.149   6.213
 4583POPC   C2B59324  10.299  37.358   6.609
 4583POPC   C3B59325  10.118  37.188   6.967
 4583POPC   C4B59326  10.320  37.029   7.334
 4584POPC   NC359327   5.519   7.444   5.534
 4584POPC   PO459328   4.828   7.213   5.395
 4584POPC   GL159329   5.055   7.426   5.733
 4584POPC   GL259330   5.250   7.121   5.847
 4584POPC   C1A59331   5.076   7.518   6.196
 4584POPC   D2A59332   4.813   7.603   6.600
 4584POPC   C3A59333   4.943   7.577   7.018
 4584POPC   C4A59334   5.000   7.490   7.463
 4584POPC   C1B59335   5.243   7.041   6.311
 4584POPC   C2B59336   5.052   7.153   6.708
 4584POPC   C3B59337   5.297   7.214   7.098
 4584POPC   C4B59338   5.356   7.133   7.551
 4585POPC   NC359339  23.997  22.352   5.049
 4585POPC   PO459340  23.454  22.358   5.249
 4585POPC   GL159341  23.347  22.233   5.738
 4585POPC   GL259342  23.411  21.868   5.840
 4585POPC   C1A59343  23.327  22.171   6.231
 4585POPC   D2A59344  23.617  22.207   6.616
 4585POPC   C3A59345  23.449  22.227   7.055
 4585POPC   C4A59346  23.702  22.324   7.429
 4585POPC   C1B59347  23.729  21.839   6.211
 4585POPC   C2B59348  23.858  21.754   6.658
 4585POPC   C3B59349  23.926  22.005   7.070
 4585POPC   C4B59350  23.989  21.894   7.529
 4586POPC   NC359351  33.230  32.503   5.524
 4586POPC   PO459352  32.768  32.003   5.453
 4586POPC   GL159353  32.903  32.196   5.823
 4586POPC   GL259354  33.258  32.233   5.947
 4586POPC   C1A59355  32.927  32.017   6.251
 4586POPC   D2A59356  33.154  31.898   6.629
 4586POPC   C3A59357  33.053  32.204   6.919
 4586POPC   C4A59358  32.846  32.208   7.299
 4586POPC   C1B59359  33.003  32.558   6.187
 4586POPC   C2B59360  33.044  32.734   6.614
 4586POPC   C3B59361  33.342  32.643   6.918
 4586POPC   C4B59362  33.363  32.387   7.297
 4587POPC   NC359363  39.464  15.027   5.630
 4587POPC   PO459364  39.995  15.227   5.243
 4587POPC   GL159365  39.951  15.191   5.698
 4587POPC   GL259366  40.260  15.185   5.896
 4587POPC   C1A59367  39.850  15.143   6.160
 4587POPC   D2A59368  40.098  15.109   6.528
 4587POPC   C3A59369  39.895  14.877   6.859
 4587POPC   C4A59370  40.017  14.755   7.266
 4587POPC   C1B59371  40.296  15.535   6.234
 4587POPC   C2B59372  40.104  15.600   6.639
 4587POPC   C3B59373  39.988  15.369   6.994
 4587POPC   C4B59374  40.016  15.253   7.429
 4588POPC   NC359375  34.926  32.034   5.490
 4588POPC   PO459376  34.412  32.443   5.481
 4588POPC   GL159377  34.516  32.389   5.894
 4588POPC   GL259378  34.877  32.455   5.855
 4588POPC   C1A59379  34.346  32.139   6.258
 4588POPC   D2A59380  34.166  32.136   6.696
 4588POPC   C3A59381  34.511  32.019   6.959
 4588POPC   C4A59382  34.604  32.422   7.103
 4588POPC   C1B59383  34.889  32.222   6.231
 4588POPC   C2B59384  34.831  32.411   6.629
 4588POPC   C3B59385  35.010  32.667   6.970
 4588POPC   C4B59386  34.952  32.547   7.432
 4589POPC   NC359387  18.955  20.615   4.795
 4589POPC   PO459388  19.053  20.783   5.453
 4589POPC   GL159389  18.966  20.761   5.894
 4589POPC   GL259390  19.235  20.976   6.006
 4589POPC   C1A59391  18.875  20.625   6.351
 4589POPC   D2A59392  19.182  20.355   6.625
 4589POPC   C3A59393  19.254  20.464   7.066
 4589POPC   C4A59394  18.846  20.377   7.193
 4589POPC   C1B59395  19.358  20.711   6.288
 4589POPC   C2B59396  19.544  20.715   6.653
 4589POPC   C3B59397  19.576  20.990   6.946
 4589POPC   C4B59398  19.371  21.072   7.325
 4590POPC   NC359399  13.345  29.532   5.195
 4590POPC   PO459400  12.841  29.794   5.582
 4590POPC   GL159401  13.050  30.069   5.846
 4590POPC   GL259402  13.169  30.390   5.695
 4590POPC   C1A59403  12.955  29.953   6.282
 4590POPC   D2A59404  12.528  29.924   6.452
 4590POPC   C3A59405  12.514  30.070   6.873
 4590POPC   C4A59406  12.504  29.867   7.248
 4590POPC   C1B59407  13.329  30.393   6.121
 4590POPC   C2B59408  13.382  30.155   6.517
 4590POPC   C3B59409  13.391  30.062   6.964
 4590POPC   C4B59410  12.969  30.064   7.171
 4591POPC   NC359411  18.227  30.300   5.599
 4591POPC   PO459412  18.577  30.838   5.314
 4591POPC   GL159413  18.531  30.701   5.719
 4591POPC   GL259414  18.183  30.744   5.835
 4591POPC   C1A59415  18.552  30.757   6.169
 4591POPC   D2A59416  18.318  30.766   6.549
 4591POPC   C3A59417  18.559  30.643   6.896
 4591POPC   C4A59418  18.482  30.843   7.258
 4591POPC   C1B59419  17.910  30.667   6.218
 4591POPC   C2B59420  17.861  30.507   6.652
 4591POPC   C3B59421  18.058  30.604   7.065
 4591POPC   C4B59422  17.954  30.884   7.413
 4592POPC   NC359423   0.499  22.679   5.417
 4592POPC   PO459424  44.934  23.009   5.335
 4592POPC   GL159425   0.257  23.012   5.746
 4592POPC   GL259426   0.273  22.669   5.884
 4592POPC   C1A59427   0.548  23.071   6.171
 4592POPC   D2A59428   0.729  23.136   6.629
 4592POPC   C3A59429   0.527  23.089   7.067
 4592POPC   C4A59430   0.698  23.210   7.508
 4592POPC   C1B59431   0.069  22.934   6.212
 4592POPC   C2B59432   0.223  23.035   6.617
 4592POPC   C3B59433   0.024  22.912   6.974
 4592POPC   C4B59434   0.111  22.655   7.308
 4593POPC   NC359435  44.587   8.918   5.559
 4593POPC   PO459436   0.003   9.418   5.375
 4593POPC   GL159437   0.036   9.093   5.789
 4593POPC   GL259438  44.885   8.722   5.904
 4593POPC   C1A59439   0.016   9.042   6.261
 4593POPC   D2A59440  44.730   8.993   6.605
 4593POPC   C3A59441  44.901   8.968   6.979
 4593POPC   C4A59442  44.675   9.077   7.332
 4593POPC   C1B59443  44.571   8.691   6.218
 4593POPC   C2B59444  44.449   8.564   6.637
 4593POPC   C3B59445  44.476   8.671   7.071
 4593POPC   C4B59446  44.420   8.665   7.508
 4594POPC   NC359447  44.837   8.352   5.458
 4594POPC   PO459448  44.663   7.710   5.290
 4594POPC   GL159449  44.699   7.876   5.746
 4594POPC   GL259450  44.672   8.210   5.892
 4594POPC   C1A59451  44.631   7.828   6.207
 4594POPC   D2A59452  44.646   8.083   6.573
 4594POPC   C3A59453  44.619   7.908   6.948
 4594POPC   C4A59454  44.660   8.174   7.305
 4594POPC   C1B59455  44.938   8.290   6.217
 4594POPC   C2B59456  44.979   8.566   6.535
 4594POPC   C3B59457  44.913   8.433   6.936
 4594POPC   C4B59458  44.919   8.612   7.351
 4595POPC   NC359459  10.589  39.779   5.288
 4595POPC   PO459460  10.210  40.147   5.599
 4595POPC   GL159461  10.537  39.968   5.809
 4595POPC   GL259462  10.395  39.686   5.818
 4595POPC   C1A59463  10.772  39.839   6.210
 4595POPC   D2A59464  11.058  39.801   6.596
 4595POPC   C3A59465  10.909  39.794   7.008
 4595POPC   C4A59466  10.535  39.902   7.196
 4595POPC   C1B59467  10.232  39.794   6.245
 4595POPC   C2B59468  10.277  39.859   6.715
 4595POPC   C3B59469  10.077  39.724   7.092
 4595POPC   C4B59470  10.316  39.490   7.402
 4596POPC   NC359471  10.182   4.204   5.570
 4596POPC   PO459472   9.652   4.620   5.581
 4596POPC   GL159473   9.843   4.498   5.906
 4596POPC   GL259474   9.773   4.164   5.852
 4596POPC   C1A59475   9.862   4.632   6.314
 4596POPC   D2A59476   9.975   4.530   6.732
 4596POPC   C3A59477   9.652   4.575   7.048
 4596POPC   C4A59478   9.712   4.444   7.521
 4596POPC   C1B59479  10.007   4.140   6.259
 4596POPC   C2B59480  10.148   4.042   6.670
 4596POPC   C3B59481   9.871   4.112   7.038
 4596POPC   C4B59482   9.544   3.975   7.332
 4597POPC   NC359483  39.524  26.973   5.475
 4597POPC   PO459484  39.264  26.385   5.437
 4597POPC   GL159485  39.389  26.583   5.846
 4597POPC   GL259486  39.247  26.927   5.883
 4597POPC   C1A59487  39.262  26.680   6.312
 4597POPC   D2A59488  39.231  27.024   6.618
 4597POPC   C3A59489  39.214  26.850   7.031
 4597POPC   C4A59490  39.490  26.651   7.302
 4597POPC   C1B59491  38.862  26.994   6.102
 4597POPC   C2B59492  38.734  27.012   6.496
 4597POPC   C3B59493  38.748  27.059   6.908
 4597POPC   C4B59494  38.895  27.127   7.321
 4598POPC   NC359495   2.008   1.374   5.368
 4598POPC   PO459496   1.933   0.762   5.508
 4598POPC   GL159497   2.044   1.031   5.827
 4598POPC   GL259498   1.804   1.269   5.829
 4598POPC   C1A59499   2.182   1.223   6.206
 4598POPC   D2A59500   1.987   1.309   6.597
 4598POPC   C3A59501   2.178   1.404   6.967
 4598POPC   C4A59502   2.151   1.240   7.391
 4598POPC   C1B59503   1.627   1.185   6.251
 4598POPC   C2B59504   1.489   1.315   6.693
 4598POPC   C3B59505   1.710   1.241   7.095
 4598POPC   C4B59506   1.662   1.354   7.562
 4599POPC   NC359507  38.320  38.063   5.446
 4599POPC   PO459508  38.785  38.563   5.463
 4599POPC   GL159509  38.523  38.602   5.861
 4599POPC   GL259510  38.210  38.397   5.829
 4599POPC   C1A59511  38.286  38.653   6.267
 4599POPC   D2A59512  38.146  38.709   6.692
 4599POPC   C3A59513  38.488  38.697   6.965
 4599POPC   C4A59514  38.532  38.399   7.281
 4599POPC   C1B59515  38.347  38.143   6.175
 4599POPC   C2B59516  38.288  38.191   6.622
 4599POPC   C3B59517  38.327  37.980   7.011
 4599POPC   C4B59518  38.149  38.057   7.412
 4600POPC   NC359519   3.962  11.680   5.209
 4600POPC   PO459520   4.482  11.298   5.475
 4600POPC   GL159521   4.381  11.500   5.859
 4600POPC   GL259522   4.277  11.173   5.935
 4600POPC   C1A59523   4.227  11.511   6.306
 4600POPC   D2A59524   4.185  11.318   6.718
 4600POPC   C3A59525   4.120  11.610   7.027
 4600POPC   C4A59526   4.220  11.713   7.457
 4600POPC   C1B59527   4.114  10.984   6.310
 4600POPC   C2B59528   3.945  10.848   6.713
 4600POPC   C3B59529   3.941  11.069   7.103
 4600POPC   C4B59530   4.269  11.225   7.342
 4601POPC   NC359531  13.767  37.064   5.325
 4601POPC   PO459532  13.377  36.579   5.264
 4601POPC   GL159533  13.462  36.770   5.640
 4601POPC   GL259534  13.802  36.760   5.727
 4601POPC   C1A59535  13.465  36.804   6.083
 4601POPC   D2A59536  13.377  36.762   6.477
 4601POPC   C3A59537  13.538  36.942   6.801
 4601POPC   C4A59538  13.395  36.917   7.197
 4601POPC   C1B59539  13.976  36.984   6.050
 4601POPC   C2B59540  13.957  36.877   6.490
 4601POPC   C3B59541  14.044  36.990   6.919
 4601POPC   C4B59542  13.989  36.905   7.378
 4602POPC   NC359543  17.745   3.232   5.103
 4602POPC   PO459544  17.237   2.832   5.460
 4602POPC   GL159545  17.528   2.712   5.777
 4602POPC   GL259546  17.776   2.464   5.655
 4602POPC   C1A59547  17.577   2.961   6.182
 4602POPC   D2A59548  17.405   3.154   6.570
 4602POPC   C3A59549  17.489   3.040   7.015
 4602POPC   C4A59550  17.431   2.685   7.299
 4602POPC   C1B59551  17.829   2.514   6.130
 4602POPC   C2B59552  17.892   2.737   6.558
 4602POPC   C3B59553  17.858   2.640   7.018
 4602POPC   C4B59554  17.891   2.860   7.457
 4603POPC   NC359555  41.813   7.726   5.259
 4603POPC   PO459556  41.446   7.199   5.352
 4603POPC   GL159557  41.464   7.422   5.760
 4603POPC   GL259558  41.764   7.639   5.833
 4603POPC   C1A59559  41.409   7.355   6.202
 4603POPC   D2A59560  41.621   7.402   6.594
 4603POPC   C3A59561  41.377   7.280   6.955
 4603POPC   C4A59562  41.478   7.333   7.374
 4603POPC   C1B59563  41.905   7.249   6.090
 4603POPC   C2B59564  41.732   6.925   6.398
 4603POPC   C3B59565  41.677   6.892   6.850
 4603POPC   C4B59566  41.927   7.051   7.212
 4604POPC   NC359567  44.099  19.657   5.553
 4604POPC   PO459568  44.689  19.279   5.192
 4604POPC   GL159569  44.787  19.500   5.633
 4604POPC   GL259570  44.504  19.524   5.799
 4604POPC   C1A59571  44.839  19.611   6.164
 4604POPC   D2A59572  44.848  19.480   6.640
 4604POPC   C3A59573  44.790  19.799   7.016
 4604POPC   C4A59574  44.799  20.258   7.149
 4604POPC   C1B59575  44.347  19.372   6.202
 4604POPC   C2B59576  44.342  19.341   6.636
 4604POPC   C3B59577  44.467  19.380   7.058
 4604POPC   C4B59578  44.378  19.671   7.399
 4605POPC   NC359579  25.882   0.370   5.299
 4605POPC   PO459580  26.267  44.916   4.997
 4605POPC   GL159581  26.200   0.063   5.512
 4605POPC   GL259582  26.397   0.371   5.611
 4605POPC   C1A59583  25.957   0.286   5.942
 4605POPC   D2A59584  25.979   0.481   6.379
 4605POPC   C3A59585  25.685   0.410   6.749
 4605POPC   C4A59586  25.671   0.227   7.213
 4605POPC   C1B59587  26.391   0.517   6.041
 4605POPC   C2B59588  26.562   0.365   6.433
 4605POPC   C3B59589  26.285   0.276   6.773
 4605POPC   C4B59590  26.056   0.554   7.073
 4606POPC   NC359591  41.291  18.346   5.594
 4606POPC   PO459592  41.773  17.984   5.380
 4606POPC   GL159593  41.831  18.076   5.831
 4606POPC   GL259594  41.493  18.093   5.975
 4606POPC   C1A59595  41.901  18.025   6.299
 4606POPC   D2A59596  41.974  17.896   6.723
 4606POPC   C3A59597  41.798  18.061   7.115
 4606POPC   C4A59598  41.951  18.119   7.539
 4606POPC   C1B59599  41.554  18.405   6.300
 4606POPC   C2B59600  41.626  18.368   6.732
 4606POPC   C3B59601  41.288  18.445   7.015
 4606POPC   C4B59602  41.255  18.838   7.183
 4607POPC   NC359603   6.013   1.387   5.409
 4607POPC   PO459604   5.771   0.932   5.051
 4607POPC   GL159605   5.943   0.933   5.580
 4607POPC   GL259606   5.707   1.097   5.736
 4607POPC   C1A59607   6.009   1.254   6.070
 4607POPC   D2A59608   6.012   1.555   6.463
 4607POPC   C3A59609   5.836   1.509   6.890
 4607POPC   C4A59610   5.837   1.267   7.282
 4607POPC   C1B59611   5.489   1.021   6.121
 4607POPC   C2B59612   5.649   1.164   6.521
 4607POPC   C3B59613   5.596   0.993   6.932
 4607POPC   C4B59614   5.541   0.864   7.368
 4608POPC   NC359615  25.490  37.565   5.396
 4608POPC   PO459616  24.875  37.482   5.663
 4608POPC   GL159617  25.148  37.708   5.920
 4608POPC   GL259618  25.511  37.708   5.897
 4608POPC   C1A59619  24.915  37.830   6.272
 4608POPC   D2A59620  24.880  37.852   6.677
 4608POPC   C3A59621  25.255  37.934   6.896
 4608POPC   C4A59622  25.168  37.692   7.257
 4608POPC   C1B59623  25.440  37.815   6.339
 4608POPC   C2B59624  25.714  37.772   6.680
 4608POPC   C3B59625  25.672  37.675   7.127
 4608POPC   C4B59626  25.551  37.763   7.585
 4609POPC   NC359627   5.720   2.279   5.067
 4609POPC   PO459628   6.089   2.860   5.245
 4609POPC   GL159629   5.985   2.743   5.722
 4609POPC   GL259630   5.802   2.449   5.918
 4609POPC   C1A59631   6.068   2.812   6.189
 4609POPC   D2A59632   5.889   2.883   6.616
 4609POPC   C3A59633   6.151   2.853   6.984
 4609POPC   C4A59634   6.281   2.813   7.452
 4609POPC   C1B59635   5.695   2.478   6.359
 4609POPC   C2B59636   5.659   2.471   6.795
 4609POPC   C3B59637   5.543   2.732   7.131
 4609POPC   C4B59638   5.510   2.428   7.502
 4610POPC   NC359639  35.717  25.790   5.375
 4610POPC   PO459640  35.978  26.368   5.426
 4610POPC   GL159641  36.019  26.001   5.780
 4610POPC   GL259642  36.235  25.701   5.757
 4610POPC   C1A59643  36.093  25.913   6.263
 4610POPC   D2A59644  36.218  26.100   6.699
 4610POPC   C3A59645  35.968  26.130   7.121
 4610POPC   C4A59646  35.948  26.418   7.521
 4610POPC   C1B59647  36.531  25.676   6.117
 4610POPC   C2B59648  36.526  25.698   6.578
 4610POPC   C3B59649  36.395  25.748   7.025
 4610POPC   C4B59650  36.597  25.748   7.415
 4611POPC   NC359651  10.555  32.900   5.316
 4611POPC   PO459652  11.015  32.726   5.739
 4611POPC   GL159653  10.817  33.087   5.784
 4611POPC   GL259654  10.489  32.958   5.810
 4611POPC   C1A59655  10.761  33.102   6.222
 4611POPC   D2A59656  10.491  32.906   6.480
 4611POPC   C3A59657  10.614  33.098   6.824
 4611POPC   C4A59658  10.826  32.872   7.130
 4611POPC   C1B59659  10.259  33.198   6.101
 4611POPC   C2B59660  10.118  33.249   6.533
 4611POPC   C3B59661  10.109  32.941   6.875
 4611POPC   C4B59662  10.351  33.022   7.247
 4612POPC   NC359663  43.084  16.367   5.360
 4612POPC   PO459664  42.747  15.804   5.473
 4612POPC   GL159665  42.845  15.930   5.851
 4612POPC   GL259666  42.797  16.292   5.796
 4612POPC   C1A59667  43.050  15.737   6.214
 4612POPC   D2A59668  43.356  15.888   6.521
 4612POPC   C3A59669  43.238  15.790   6.923
 4612POPC   C4A59670  43.013  15.784   7.290
 4612POPC   C1B59671  43.044  16.270   6.184
 4612POPC   C2B59672  42.886  16.091   6.552
 4612POPC   C3B59673  42.938  16.206   6.955
 4612POPC   C4B59674  43.034  16.320   7.344
 4613POPC   NC359675  42.971  31.394   5.287
 4613POPC   PO459676  43.381  31.828   5.511
 4613POPC   GL159677  43.253  31.464   5.744
 4613POPC   GL259678  42.886  31.424   5.785
 4613POPC   C1A59679  43.226  31.455   6.192
 4613POPC   D2A59680  42.991  31.370   6.531
 4613POPC   C3A59681  43.258  31.427   6.879
 4613POPC   C4A59682  43.274  31.281   7.265
 4613POPC   C1B59683  42.771  31.699   6.107
 4613POPC   C2B59684  42.808  31.846   6.519
 4613POPC   C3B59685  42.799  31.679   6.933
 4613POPC   C4B59686  43.122  31.800   7.203
 4614POPC   NC359687  43.966  37.344   5.397
 4614POPC   PO459688  43.970  37.965   5.404
 4614POPC   GL159689  43.995  37.684   5.791
 4614POPC   GL259690  44.272  37.432   5.789
 4614POPC   C1A59691  43.855  37.680   6.231
 4614POPC   D2A59692  43.483  37.787   6.491
 4614POPC   C3A59693  43.518  37.935   6.898
 4614POPC   C4A59694  43.564  37.698   7.257
 4614POPC   C1B59695  44.352  37.548   6.217
 4614POPC   C2B59696  44.233  37.828   6.551
 4614POPC   C3B59697  43.967  37.688   6.867
 4614POPC   C4B59698  44.173  37.495   7.177
 4615POPC   NC359699  40.427  12.922   5.438
 4615POPC   PO459700  39.862  13.210   5.475
 4615POPC   GL159701  40.035  12.947   5.825
 4615POPC   GL259702  39.726  12.828   6.010
 4615POPC   C1A59703  40.172  12.661   6.159
 4615POPC   D2A59704  39.888  12.571   6.516
 4615POPC   C3A59705  39.934  12.797   6.919
 4615POPC   C4A59706  39.996  12.616   7.302
 4615POPC   C1B59707  39.730  13.234   6.210
 4615POPC   C2B59708  39.872  13.379   6.637
 4615POPC   C3B59709  39.669  13.246   7.053
 4615POPC   C4B59710  39.570  12.899   7.330
 4616POPC   NC359711  32.721   8.080   5.014
 4616POPC   PO459712  32.137   8.230   5.333
 4616POPC   GL159713  31.982   8.164   5.718
 4616POPC   GL259714  32.299   8.065   5.828
 4616POPC   C1A59715  31.965   8.356   6.123
 4616POPC   D2A59716  31.907   8.337   6.573
 4616POPC   C3A59717  32.227   8.343   6.878
 4616POPC   C4A59718  32.264   8.077   7.216
 4616POPC   C1B59719  32.428   8.186   6.247
 4616POPC   C2B59720  32.623   8.114   6.651
 4616POPC   C3B59721  32.737   8.210   7.069
 4616POPC   C4B59722  32.610   8.341   7.490
 4617POPC   NC359723  38.860  43.199   5.466
 4617POPC   PO459724  38.169  43.168   5.566
 4617POPC   GL159725  38.298  43.017   5.894
 4617POPC   GL259726  38.237  42.683   5.881
 4617POPC   C1A59727  38.512  42.982   6.269
 4617POPC   D2A59728  38.668  43.123   6.640
 4617POPC   C3A59729  38.456  43.148   7.010
 4617POPC   C4A59730  38.379  43.469   7.243
 4617POPC   C1B59731  38.045  42.765   6.254
 4617POPC   C2B59732  38.113  43.000   6.605
 4617POPC   C3B59733  38.238  42.720   6.886
 4617POPC   C4B59734  38.120  42.539   7.224
 4618POPC   NC359735  41.050   4.648   5.387
 4618POPC   PO459736  40.407   4.474   5.544
 4618POPC   GL159737  40.574   4.703   5.899
 4618POPC   GL259738  40.911   4.687   5.891
 4618POPC   C1A59739  40.702   4.546   6.346
 4618POPC   D2A59740  40.994   4.318   6.663
 4618POPC   C3A59741  40.816   4.078   7.015
 4618POPC   C4A59742  40.682   4.198   7.427
 4618POPC   C1B59743  41.000   4.960   6.253
 4618POPC   C2B59744  40.934   4.833   6.708
 4618POPC   C3B59745  40.921   4.574   7.110
 4618POPC   C4B59746  41.132   4.526   7.536
 4619POPC   NC359747  10.240  31.964   5.156
 4619POPC   PO459748   9.850  32.374   5.578
 4619POPC   GL159749   9.778  32.068   5.917
 4619POPC   GL259750  10.026  32.306   6.078
 4619POPC   C1A59751   9.841  31.929   6.361
 4619POPC   D2A59752  10.148  31.984   6.708
 4619POPC   C3A59753   9.986  31.889   7.101
 4619POPC   C4A59754   9.576  31.855   7.101
 4619POPC   C1B59755   9.618  32.451   6.210
 4619POPC   C2B59756   9.518  32.288   6.596
 4619POPC   C3B59757   9.817  32.359   6.917
 4619POPC   C4B59758   9.662  32.306   7.307
 4620POPC   NC359759  10.064  29.317   4.977
 4620POPC   PO459760   9.482  29.292   5.337
 4620POPC   GL159761   9.719  29.235   5.813
 4620POPC   GL259762   9.574  29.560   5.870
 4620POPC   C1A59763   9.942  29.155   6.225
 4620POPC   D2A59764   9.871  29.012   6.669
 4620POPC   C3A59765   9.880  29.250   7.035
 4620POPC   C4A59766   9.863  29.158   7.478
 4620POPC   C1B59767   9.854  29.658   6.197
 4620POPC   C2B59768   9.897  29.541   6.616
 4620POPC   C3B59769   9.812  29.744   7.015
 4620POPC   C4B59770   9.638  29.612   7.402
 4621POPC   NC359771  15.464  21.543   5.542
 4621POPC   PO459772  15.027  21.027   5.416
 4621POPC   GL159773  15.198  21.207   5.782
 4621POPC   GL259774  14.992  21.516   5.772
 4621POPC   C1A59775  15.423  21.279   6.186
 4621POPC   D2A59776  15.230  21.131   6.586
 4621POPC   C3A59777  15.275  21.373   6.963
 4621POPC   C4A59778  15.453  21.275   7.355
 4621POPC   C1B59779  14.936  21.367   6.187
 4621POPC   C2B59780  14.835  21.475   6.589
 4621POPC   C3B59781  14.925  21.752   6.910
 4621POPC   C4B59782  14.934  21.604   7.325
 4622POPC   NC359783  16.720  31.989   5.528
 4622POPC   PO459784  16.630  32.670   5.534
 4622POPC   GL159785  16.478  32.432   5.900
 4622POPC   GL259786  16.686  32.150   6.006
 4622POPC   C1A59787  16.271  32.237   6.285
 4622POPC   D2A59788  16.491  32.132   6.698
 4622POPC   C3A59789  16.431  32.460   7.024
 4622POPC   C4A59790  16.436  32.498   7.509
 4622POPC   C1B59791  16.815  32.438   6.335
 4622POPC   C2B59792  16.899  32.623   6.757
 4622POPC   C3B59793  16.914  32.425   7.151
 4622POPC   C4B59794  16.779  31.963   7.158
 4623POPC   NC359795   8.855   6.154   5.409
 4623POPC   PO459796   9.554   5.924   5.250
 4623POPC   GL159797   9.215   5.894   5.609
 4623POPC   GL259798   9.220   6.151   5.818
 4623POPC   C1A59799   8.978   5.776   6.052
 4623POPC   D2A59800   9.151   5.772   6.499
 4623POPC   C3A59801   8.858   5.680   6.863
 4623POPC   C4A59802   8.858   5.553   7.296
 4623POPC   C1B59803   9.404   6.185   6.218
 4623POPC   C2B59804   9.321   6.249   6.644
 4623POPC   C3B59805   9.272   5.983   6.973
 4623POPC   C4B59806   9.117   6.005   7.370
 4624POPC   NC359807  27.895  37.856   5.454
 4624POPC   PO459808  27.269  37.951   5.377
 4624POPC   GL159809  27.468  37.838   5.797
 4624POPC   GL259810  27.750  37.596   5.865
 4624POPC   C1A59811  27.553  37.816   6.261
 4624POPC   D2A59812  27.375  37.874   6.651
 4624POPC   C3A59813  27.516  37.674   7.030
 4624POPC   C4A59814  27.468  37.762   7.458
 4624POPC   C1B59815  27.683  37.304   6.195
 4624POPC   C2B59816  27.726  37.417   6.620
 4624POPC   C3B59817  27.770  37.207   6.999
 4624POPC   C4B59818  27.738  37.323   7.430
 4625POPC   NC359819  19.205   5.256   5.335
 4625POPC   PO459820  18.803   4.765   5.341
 4625POPC   GL159821  19.038   4.882   5.719
 4625POPC   GL259822  18.971   5.231   5.785
 4625POPC   C1A59823  19.074   4.896   6.199
 4625POPC   D2A59824  19.126   4.746   6.638
 4625POPC   C3A59825  18.977   4.991   6.974
 4625POPC   C4A59826  19.115   4.975   7.381
 4625POPC   C1B59827  19.124   5.412   6.155
 4625POPC   C2B59828  19.067   5.324   6.573
 4625POPC   C3B59829  19.386   5.296   6.872
 4625POPC   C4B59830  19.248   5.446   7.235
 4626POPC   NC359831  43.980   8.744   5.451
 4626POPC   PO459832  44.335   9.317   5.520
 4626POPC   GL159833  44.150   9.215   5.920
 4626POPC   GL259834  44.209   8.868   5.895
 4626POPC   C1A59835  43.767   9.205   6.236
 4626POPC   D2A59836  43.483   9.074   6.604
 4626POPC   C3A59837  43.722   9.070   7.001
 4626POPC   C4A59838  44.183   9.090   7.117
 4626POPC   C1B59839  43.993   8.704   6.207
 4626POPC   C2B59840  43.992   8.880   6.581
 4626POPC   C3B59841  43.983   8.641   6.881
 4626POPC   C4B59842  43.963   8.663   7.279
 4627POPC   NC359843  19.010  18.048   5.352
 4627POPC   PO459844  19.537  18.506   5.463
 4627POPC   GL159845  19.222  18.317   5.718
 4627POPC   GL259846  19.132  18.588   5.898
 4627POPC   C1A59847  19.007  18.130   6.078
 4627POPC   D2A59848  18.838  18.000   6.497
 4627POPC   C3A59849  19.036  18.131   6.871
 4627POPC   C4A59850  18.957  18.043   7.299
 4627POPC   C1B59851  18.839  18.617   6.197
 4627POPC   C2B59852  18.996  18.608   6.590
 4627POPC   C3B59853  18.856  18.597   6.992
 4627POPC   C4B59854  19.098  18.593   7.326
 4628POPC   NC359855   5.048  28.680   5.572
 4628POPC   PO459856   5.254  29.255   5.279
 4628POPC   GL159857   5.183  29.205   5.718
 4628POPC   GL259858   5.013  29.503   5.818
 4628POPC   C1A59859   5.041  29.066   6.136
 4628POPC   D2A59860   4.835  29.292   6.488
 4628POPC   C3A59861   5.022  29.272   6.900
 4628POPC   C4A59862   4.843  29.200   7.294
 4628POPC   C1B59863   5.229  29.520   6.193
 4628POPC   C2B59864   5.401  29.314   6.565
 4628POPC   C3B59865   5.462  29.528   6.959
 4628POPC   C4B59866   5.199  29.562   7.299
 4629POPC   NC359867   4.501  38.065   5.667
 4629POPC   PO459868   3.963  38.292   5.308
 4629POPC   GL159869   4.139  38.458   5.757
 4629POPC   GL259870   4.106  38.217   5.959
 4629POPC   C1A59871   4.378  38.617   6.188
 4629POPC   D2A59872   4.519  38.676   6.661
 4629POPC   C3A59873   4.183  38.578   6.976
 4629POPC   C4A59874   3.955  38.362   7.289
 4629POPC   C1B59875   4.344  38.117   6.314
 4629POPC   C2B59876   4.353  38.170   6.728
 4629POPC   C3B59877   4.402  38.118   7.132
 4629POPC   C4B59878   4.379  38.155   7.529
 4630POPC   NC359879  36.665  25.526   5.492
 4630POPC   PO459880  36.841  24.929   5.475
 4630POPC   GL159881  37.000  25.094   5.880
 4630POPC   GL259882  36.962  25.469   5.915
 4630POPC   C1A59883  37.226  24.988   6.278
 4630POPC   D2A59884  37.275  24.887   6.741
 4630POPC   C3A59885  37.010  25.013   7.064
 4630POPC   C4A59886  36.734  25.109   7.453
 4630POPC   C1B59887  36.875  25.349   6.346
 4630POPC   C2B59888  36.919  25.407   6.765
 4630POPC   C3B59889  36.972  25.502   7.208
 4630POPC   C4B59890  36.966  25.495   7.706
 4631POPC   NC359891  12.796  11.801   5.168
 4631POPC   PO459892  13.033  12.178   5.662
 4631POPC   GL159893  12.787  11.984   5.978
 4631POPC   GL259894  12.575  11.686   5.907
 4631POPC   C1A59895  12.796  12.129   6.413
 4631POPC   D2A59896  13.149  12.164   6.711
 4631POPC   C3A59897  13.045  12.283   7.138
 4631POPC   C4A59898  13.094  12.188   7.580
 4631POPC   C1B59899  12.682  11.629   6.331
 4631POPC   C2B59900  12.926  11.703   6.678
 4631POPC   C3B59901  12.737  11.905   6.994
 4631POPC   C4B59902  12.696  11.923   7.429
 4632POPC   NC359903  32.364  38.883   5.353
 4632POPC   PO459904  32.342  38.236   5.330
 4632POPC   GL159905  32.375  38.244   5.776
 4632POPC   GL259906  32.454  38.579   5.852
 4632POPC   C1A59907  32.203  38.280   6.213
 4632POPC   D2A59908  32.334  38.524   6.600
 4632POPC   C3A59909  32.070  38.662   6.926
 4632POPC   C4A59910  32.025  38.340   7.195
 4632POPC   C1B59911  32.697  38.449   6.246
 4632POPC   C2B59912  32.822  38.628   6.669
 4632POPC   C3B59913  32.733  38.666   7.131
 4632POPC   C4B59914  32.738  38.968   7.496
 4633POPC   NC359915  14.176  18.224   5.205
 4633POPC   PO459916  14.803  18.145   5.406
 4633POPC   GL159917  14.668  18.157   5.822
 4633POPC   GL259918  14.411  17.902   5.803
 4633POPC   C1A59919  14.617  18.288   6.261
 4633POPC   D2A59920  14.381  18.192   6.661
 4633POPC   C3A59921  14.586  18.326   7.041
 4633POPC   C4A59922  14.646  18.691   7.259
 4633POPC   C1B59923  14.159  18.055   6.149
 4633POPC   C2B59924  13.882  18.114   6.501
 4633POPC   C3B59925  13.903  18.125   6.933
 4633POPC   C4B59926  14.174  18.136   7.273
 4634POPC   NC359927  44.699   2.445   5.558
 4634POPC   PO459928  44.776   2.993   5.132
 4634POPC   GL159929  44.644   2.936   5.611
 4634POPC   GL259930  44.962   2.822   5.768
 4634POPC   C1A59931  44.591   2.923   6.106
 4634POPC   D2A59932  44.687   2.528   6.331
 4634POPC   C3A59933  44.606   2.502   6.768
 4634POPC   C4A59934  44.454   2.659   7.138
 4634POPC   C1B59935   0.093   2.879   6.192
 4634POPC   C2B59936  44.892   2.918   6.589
 4634POPC   C3B59937  44.735   3.078   6.978
 4634POPC   C4B59938  44.845   2.892   7.378
 4635POPC   NC359939  19.320   2.346   5.117
 4635POPC   PO459940  18.930   2.819   5.289
 4635POPC   GL159941  18.972   2.931   5.775
 4635POPC   GL259942  18.663   2.881   5.964
 4635POPC   C1A59943  19.074   3.056   6.211
 4635POPC   D2A59944  18.944   2.945   6.646
 4635POPC   C3A59945  19.057   3.161   7.026
 4635POPC   C4A59946  19.275   3.265   7.390
 4635POPC   C1B59947  18.830   2.565   6.286
 4635POPC   C2B59948  19.113   2.445   6.647
 4635POPC   C3B59949  19.238   2.403   7.087
 4635POPC   C4B59950  19.111   2.296   7.543
 4636POPC   NC359951   2.190  41.689   5.491
 4636POPC   PO459952   2.099  42.483   5.365
 4636POPC   GL159953   1.968  42.437   5.751
 4636POPC   GL259954   2.054  42.115   5.758
 4636POPC   C1A59955   1.807  42.526   6.119
 4636POPC   D2A59956   1.872  42.366   6.520
 4636POPC   C3A59957   1.849  42.558   6.883
 4636POPC   C4A59958   1.910  42.356   7.280
 4636POPC   C1B59959   2.190  42.161   6.177
 4636POPC   C2B59960   2.254  41.994   6.579
 4636POPC   C3B59961   2.271  42.132   6.999
 4636POPC   C4B59962   2.318  41.898   7.416
 4637POPC   NC359963  26.235  10.400   5.618
 4637POPC   PO459964  25.800  10.866   5.524
 4637POPC   GL159965  25.925  10.699   5.908
 4637POPC   GL259966  26.255  10.670   6.047
 4637POPC   C1A59967  25.839  10.561   6.321
 4637POPC   D2A59968  26.035  10.464   6.684
 4637POPC   C3A59969  26.130  10.651   7.080
 4637POPC   C4A59970  25.888  10.620   7.448
 4637POPC   C1B59971  26.283  10.277   6.262
 4637POPC   C2B59972  26.453  10.172   6.664
 4637POPC   C3B59973  26.186  10.121   7.040
 4637POPC   C4B59974  26.246  10.285   7.476
 4638POPC   NC359975  10.100  10.891   5.417
 4638POPC   PO459976   9.515  11.340   5.383
 4638POPC   GL159977   9.540  11.446   5.832
 4638POPC   GL259978   9.884  11.483   5.918
 4638POPC   C1A59979   9.539  11.429   6.292
 4638POPC   D2A59980   9.575  11.137   6.594
 4638POPC   C3A59981   9.636  11.338   6.989
 4638POPC   C4A59982   9.831  11.634   7.266
 4638POPC   C1B59983  10.164  11.535   6.227
 4638POPC   C2B59984  10.047  11.321   6.557
 4638POPC   C3B59985  10.162  11.368   6.958
 4638POPC   C4B59986  10.034  11.172   7.291
 4639POPC   NC359987  11.068  36.762   4.781
 4639POPC   PO459988  11.310  37.016   5.356
 4639POPC   GL159989  11.374  36.926   5.760
 4639POPC   GL259990  11.645  36.663   5.729
 4639POPC   C1A59991  11.105  36.906   6.145
 4639POPC   D2A59992  11.276  36.748   6.536
 4639POPC   C3A59993  11.027  36.644   6.866
 4639POPC   C4A59994  11.094  36.894   7.198
 4639POPC   C1B59995  11.683  36.864   6.168
 4639POPC   C2B59996  11.788  36.726   6.593
 4639POPC   C3B59997  11.580  36.751   7.016
 4639POPC   C4B59998  11.504  36.756   7.476
 4640POPC   NC359999  34.370  14.966   5.543
 4640POPC   PO460000  33.687  15.166   5.411
 4640POPC   GL160001  33.747  15.169   5.811
 4640POPC   GL260002  33.956  14.894   5.846
 4640POPC   C1A60003  33.854  15.320   6.201
 4640POPC   D2A60004  33.831  15.084   6.552
 4640POPC   C3A60005  33.950  15.278   6.910
 4640POPC   C4A60006  33.662  15.254   7.220
 4640POPC   C1B60007  34.216  14.910   6.198
 4640POPC   C2B60008  34.184  14.714   6.577
 4640POPC   C3B60009  33.952  14.755   6.944
 4640POPC   C4B60010  34.081  14.992   7.314
 4641POPC   NC360011  11.345  25.677   5.494
 4641POPC   PO460012  11.081  26.339   5.398
 4641POPC   GL160013  11.157  26.100   5.745
 4641POPC   GL260014  11.474  26.205   5.736
 4641POPC   C1A60015  11.144  26.066   6.208
 4641POPC   D2A60016  11.390  26.113   6.584
 4641POPC   C3A60017  11.198  26.027   6.994
 4641POPC   C4A60018  11.254  26.306   7.357
 4641POPC   C1B60019  11.649  25.991   6.096
 4641POPC   C2B60020  11.822  25.811   6.476
 4641POPC   C3B60021  11.655  25.717   6.866
 4641POPC   C4B60022  11.630  25.936   7.235
 4642POPC   NC360023  25.656  18.005   5.532
 4642POPC   PO460024  25.190  17.510   5.291
 4642POPC   GL160025  25.237  17.653   5.710
 4642POPC   GL260026  24.930  17.747   5.891
 4642POPC   C1A60027  25.347  17.646   6.186
 4642POPC   D2A60028  25.436  17.693   6.662
 4642POPC   C3A60029  25.428  17.323   6.957
 4642POPC   C4A60030  25.502  17.338   7.404
 4642POPC   C1B60031  24.900  17.349   6.116
 4642POPC   C2B60032  25.089  17.316   6.525
 4642POPC   C3B60033  24.972  17.549   6.892
 4642POPC   C4B60034  25.007  17.407   7.311
 4643POPC   NC360035  25.637  40.057   4.983
 4643POPC   PO460036  26.172  39.889   5.463
 4643POPC   GL160037  26.049  39.831   5.880
 4643POPC   GL260038  25.953  40.159   6.027
 4643POPC   C1A60039  26.321  39.885   6.217
 4643POPC   D2A60040  26.324  40.209   6.556
 4643POPC   C3A60041  26.312  40.013   6.960
 4643POPC   C4A60042  26.163  39.617   7.127
 4643POPC   C1B60043  25.877  39.903   6.428
 4643POPC   C2B60044  25.754  39.725   6.826
 4643POPC   C3B60045  25.689  39.898   7.243
 4643POPC   C4B60046  25.660  40.159   7.658
 4644POPC   NC360047   6.766  11.073   5.636
 4644POPC   PO460048   6.854  10.635   5.126
 4644POPC   GL160049   6.847  10.569   5.678
 4644POPC   GL260050   6.611  10.753   5.975
 4644POPC   C1A60051   7.000  10.479   6.129
 4644POPC   D2A60052   6.806  10.641   6.503
 4644POPC   C3A60053   6.829  10.430   6.903
 4644POPC   C4A60054   6.714  10.638   7.268
 4644POPC   C1B60055   6.451  10.386   6.158
 4644POPC   C2B60056   6.438  10.247   6.566
 4644POPC   C3B60057   6.342  10.502   6.894
 4644POPC   C4B60058   6.237  10.435   7.302
 4645POPC   NC360059  17.004  21.396   5.527
 4645POPC   PO460060  16.442  21.230   5.188
 4645POPC   GL160061  16.413  21.447   5.622
 4645POPC   GL260062  16.622  21.715   5.687
 4645POPC   C1A60063  16.395  21.432   6.127
 4645POPC   D2A60064  16.341  21.357   6.614
 4645POPC   C3A60065  16.737  21.256   6.889
 4645POPC   C4A60066  16.998  21.063   7.257
 4645POPC   C1B60067  16.730  21.830   6.115
 4645POPC   C2B60068  16.757  21.670   6.522
 4645POPC   C3B60069  16.805  21.792   6.927
 4645POPC   C4B60070  16.948  21.558   7.267
 4646POPC   NC360071  18.296  10.110   5.377
 4646POPC   PO460072  18.102   9.446   5.431
 4646POPC   GL160073  18.213   9.694   5.747
 4646POPC   GL260074  17.965   9.922   5.781
 4646POPC   C1A60075  18.261   9.698   6.189
 4646POPC   D2A60076  18.623   9.857   6.417
 4646POPC   C3A60077  18.535   9.849   6.823
 4646POPC   C4A60078  18.334   9.829   7.199
 4646POPC   C1B60079  17.807   9.520   6.009
 4646POPC   C2B60080  17.835   9.485   6.442
 4646POPC   C3B60081  17.983   9.720   6.785
 4646POPC   C4B60082  17.855   9.621   7.194
 4647POPC   NC360083  22.356  14.928   5.148
 4647POPC   PO460084  22.229  14.268   5.257
 4647POPC   GL160085  22.159  14.269   5.689
 4647POPC   GL260086  22.334  14.587   5.743
 4647POPC   C1A60087  22.208  14.047   6.086
 4647POPC   D2A60088  22.042  13.867   6.483
 4647POPC   C3A60089  22.145  14.049   6.916
 4647POPC   C4A60090  22.540  14.188   7.156
 4647POPC   C1B60091  22.160  14.562   6.171
 4647POPC   C2B60092  22.075  14.686   6.600
 4647POPC   C3B60093  22.043  14.534   7.056
 4647POPC   C4B60094  22.167  14.699   7.433
 4648POPC   NC360095  38.823  10.421   5.472
 4648POPC   PO460096  38.405  10.952   5.484
 4648POPC   GL160097  38.434  10.661   5.807
 4648POPC   GL260098  38.792  10.683   5.917
 4648POPC   C1A60099  38.194  10.535   6.192
 4648POPC   D2A60100  38.321  10.250   6.551
 4648POPC   C3A60101  38.334  10.346   7.012
 4648POPC   C4A60102  38.201  10.113   7.359
 4648POPC   C1B60103  38.637  10.299   6.119
 4648POPC   C2B60104  38.776  10.042   6.467
 4648POPC   C3B60105  38.682   9.974   6.900
 4648POPC   C4B60106  38.704   9.952   7.350
 4649POPC   NC360107  35.151   5.687   5.291
 4649POPC   PO460108  35.779   5.893   5.252
 4649POPC   GL160109  35.572   5.825   5.654
 4649POPC   GL260110  35.465   6.176   5.785
 4649POPC   C1A60111  35.526   5.794   6.120
 4649POPC   D2A60112  35.346   5.599   6.494
 4649POPC   C3A60113  35.294   5.753   6.906
 4649POPC   C4A60114  35.538   5.784   7.253
 4649POPC   C1B60115  35.252   6.262   6.217
 4649POPC   C2B60116  35.100   6.171   6.656
 4649POPC   C3B60117  35.350   6.251   7.041
 4649POPC   C4B60118  35.348   6.276   7.470
 4650POPC   NC360119  38.010   7.751   5.180
 4650POPC   PO460120  38.551   7.373   5.548
 4650POPC   GL160121  38.596   7.128   5.914
 4650POPC   GL260122  38.291   7.196   5.954
 4650POPC   C1A60123  38.582   7.052   6.407
 4650POPC   D2A60124  38.489   7.302   6.804
 4650POPC   C3A60125  38.566   7.113   7.244
 4650POPC   C4A60126  38.857   7.098   7.587
 4650POPC   C1B60127  38.290   7.441   6.308
 4650POPC   C2B60128  38.080   7.660   6.579
 4650POPC   C3B60129  38.230   7.702   6.973
 4650POPC   C4B60130  38.389   7.595   7.348
 4651POPC   NC360131  20.346  41.945   5.440
 4651POPC   PO460132  20.084  41.302   5.430
 4651POPC   GL160133  19.994  41.538   5.789
 4651POPC   GL260134  19.757  41.793   5.720
 4651POPC   C1A60135  19.939  41.429   6.209
 4651POPC   D2A60136  19.866  41.477   6.634
 4651POPC   C3A60137  20.036  41.200   6.943
 4651POPC   C4A60138  19.862  41.342   7.312
 4651POPC   C1B60139  19.942  41.963   6.130
 4651POPC   C2B60140  19.965  41.985   6.613
 4651POPC   C3B60141  19.826  41.813   7.045
 4651POPC   C4B60142  19.741  41.803   7.523
 4652POPC   NC360143  25.239  26.810   5.368
 4652POPC   PO460144  25.844  26.482   5.544
 4652POPC   GL160145  25.492  26.800   5.812
 4652POPC   GL260146  25.075  26.738   5.844
 4652POPC   C1A60147  25.277  27.049   6.192
 4652POPC   D2A60148  25.402  27.176   6.632
 4652POPC   C3A60149  25.195  26.902   6.939
 4652POPC   C4A60150  25.299  26.561   7.233
 4652POPC   C1B60151  24.868  26.567   6.235
 4652POPC   C2B60152  24.766  26.659   6.705
 4652POPC   C3B60153  24.808  26.604   7.172
 4652POPC   C4B60154  24.958  26.696   7.605
 4653POPC   NC360155   0.137  12.542   5.380
 4653POPC   PO460156   0.501  13.048   5.673
 4653POPC   GL160157   0.208  12.768   5.861
 4653POPC   GL260158   0.364  12.480   5.825
 4653POPC   C1A60159   0.143  12.698   6.296
 4653POPC   D2A60160   0.465  12.900   6.568
 4653POPC   C3A60161   0.333  13.089   6.950
 4653POPC   C4A60162   0.438  12.976   7.350
 4653POPC   C1B60163   0.590  12.489   6.200
 4653POPC   C2B60164   0.438  12.393   6.622
 4653POPC   C3B60165   0.468  12.580   7.018
 4653POPC   C4B60166   0.694  12.550   7.415
 4654POPC   NC360167  26.059  41.778   5.307
 4654POPC   PO460168  25.791  41.207   5.583
 4654POPC   GL160169  26.068  41.511   5.784
 4654POPC   GL260170  26.391  41.634   5.782
 4654POPC   C1A60171  26.115  41.480   6.221
 4654POPC   D2A60172  25.943  41.200   6.522
 4654POPC   C3A60173  25.862  41.452   6.848
 4654POPC   C4A60174  26.010  41.509   7.226
 4654POPC   C1B60175  26.398  41.888   6.154
 4654POPC   C2B60176  26.255  41.877   6.559
 4654POPC   C3B60177  26.427  42.086   6.897
 4654POPC   C4B60178  26.323  41.901   7.271
 4655POPC   NC360179  22.222  42.040   5.291
 4655POPC   PO460180  22.045  42.633   5.371
 4655POPC   GL160181  22.127  42.417   5.753
 4655POPC   GL260182  22.380  42.188   5.801
 4655POPC   C1A60183  22.121  42.482   6.200
 4655POPC   D2A60184  22.118  42.567   6.630
 4655POPC   C3A60185  22.137  42.382   7.029
 4655POPC   C4A60186  22.426  42.574   7.390
 4655POPC   C1B60187  22.232  41.986   6.148
 4655POPC   C2B60188  22.041  42.053   6.520
 4655POPC   C3B60189  22.106  41.880   6.905
 4655POPC   C4B60190  21.833  41.973   7.209
 4656POPC   NC360191  13.299  12.529   5.464
 4656POPC   PO460192  13.726  13.087   5.437
 4656POPC   GL160193  13.500  13.037   5.770
 4656POPC   GL260194  13.663  12.701   5.823
 4656POPC   C1A60195  13.494  13.245   6.165
 4656POPC   D2A60196  13.671  13.023   6.512
 4656POPC   C3A60197  13.611  13.121   6.937
 4656POPC   C4A60198  13.790  12.728   7.019
 4656POPC   C1B60199  13.381  12.729   6.177
 4656POPC   C2B60200  13.336  12.637   6.626
 4656POPC   C3B60201  13.282  12.730   7.061
 4656POPC   C4B60202  13.347  12.590   7.479
 4657POPC   NC360203  22.626   8.585   5.556
 4657POPC   PO460204  23.079   9.062   5.472
 4657POPC   GL160205  23.093   9.170   5.872
 4657POPC   GL260206  22.728   9.241   5.887
 4657POPC   C1A60207  23.223   9.154   6.299
 4657POPC   D2A60208  22.995   8.874   6.587
 4657POPC   C3A60209  23.067   8.943   6.998
 4657POPC   C4A60210  23.097   8.616   7.279
 4657POPC   C1B60211  22.656   8.973   6.227
 4657POPC   C2B60212  22.477   8.807   6.622
 4657POPC   C3B60213  22.586   8.733   7.018
 4657POPC   C4B60214  22.673   8.949   7.387
 4658POPC   NC360215  23.447  27.361   5.416
 4658POPC   PO460216  23.799  26.766   5.458
 4658POPC   GL160217  23.598  26.838   5.820
 4658POPC   GL260218  23.691  27.156   5.823
 4658POPC   C1A60219  23.579  26.851   6.259
 4658POPC   D2A60220  23.811  27.111   6.562
 4658POPC   C3A60221  23.884  26.993   6.989
 4658POPC   C4A60222  23.914  26.685   7.322
 4658POPC   C1B60223  23.345  27.287   6.105
 4658POPC   C2B60224  23.206  27.100   6.499
 4658POPC   C3B60225  23.377  27.114   6.907
 4658POPC   C4B60226  23.425  26.814   7.235
 4659POPC   NC360227  34.304  37.769   5.468
 4659POPC   PO460228  35.012  37.923   5.292
 4659POPC   GL160229  34.788  37.657   5.604
 4659POPC   GL260230  34.783  37.897   5.836
 4659POPC   C1A60231  34.724  37.447   6.061
 4659POPC   D2A60232  34.816  37.581   6.520
 4659POPC   C3A60233  34.718  37.475   6.938
 4659POPC   C4A60234  34.391  37.440   7.215
 4659POPC   C1B60235  34.543  37.918   6.217
 4659POPC   C2B60236  34.342  37.831   6.614
 4659POPC   C3B60237  34.412  37.936   7.034
 4659POPC   C4B60238  34.846  37.940   7.115
 4660POPC   NC360239  31.722  44.186   5.214
 4660POPC   PO460240  31.507  44.807   5.397
 4660POPC   GL160241  31.603  44.603   5.768
 4660POPC   GL260242  31.634  44.267   5.793
 4660POPC   C1A60243  31.615  44.791   6.148
 4660POPC   D2A60244  31.421   0.029   6.473
 4660POPC   C3A60245  31.454  44.746   6.812
 4660POPC   C4A60246  31.515  44.809   7.229
 4660POPC   C1B60247  31.825  44.322   6.273
 4660POPC   C2B60248  31.836  44.407   6.747
 4660POPC   C3B60249  31.825  44.405   7.216
 4660POPC   C4B60250  31.882  44.396   7.696
 4661POPC   NC360251  10.966  20.716   5.315
 4661POPC   PO460252  10.362  20.463   5.434
 4661POPC   GL160253  10.629  20.497   5.801
 4661POPC   GL260254  10.830  20.799   5.804
 4661POPC   C1A60255  10.530  20.602   6.232
 4661POPC   D2A60256  10.263  20.639   6.615
 4661POPC   C3A60257  10.464  20.676   7.013
 4661POPC   C4A60258  10.386  20.704   7.448
 4661POPC   C1B60259  10.803  21.052   6.179
 4661POPC   C2B60260  10.730  20.910   6.609
 4661POPC   C3B60261  10.953  20.819   6.994
 4661POPC   C4B60262  10.869  20.520   7.332
 4662POPC   NC360263  10.734  19.084   5.373
 4662POPC   PO460264  10.119  18.975   5.508
 4662POPC   GL160265  10.495  18.932   5.790
 4662POPC   GL260266  10.581  19.258   5.850
 4662POPC   C1A60267  10.817  18.907   6.142
 4662POPC   D2A60268  10.757  18.668   6.529
 4662POPC   C3A60269  10.817  18.748   6.976
 4662POPC   C4A60270  10.459  18.632   7.245
 4662POPC   C1B60271  10.586  19.358   6.289
 4662POPC   C2B60272  10.633  19.152   6.680
 4662POPC   C3B60273  10.528  19.138   7.119
 4662POPC   C4B60274  10.751  19.285   7.450
 4663POPC   NC360275  41.358  28.595   5.280
 4663POPC   PO460276  41.751  28.158   5.368
 4663POPC   GL160277  41.765  28.363   5.754
 4663POPC   GL260278  41.502  28.574   5.772
 4663POPC   C1A60279  41.875  28.542   6.144
 4663POPC   D2A60280  41.714  28.680   6.524
 4663POPC   C3A60281  41.745  28.353   6.839
 4663POPC   C4A60282  41.744  28.459   7.283
 4663POPC   C1B60283  41.351  28.545   6.171
 4663POPC   C2B60284  41.303  28.343   6.555
 4663POPC   C3B60285  41.284  28.473   6.996
 4663POPC   C4B60286  41.301  28.247   7.391
 4664POPC   NC360287   2.326  10.956   5.568
 4664POPC   PO460288   1.948  10.446   5.217
 4664POPC   GL160289   2.006  10.480   5.667
 4664POPC   GL260290   1.834  10.785   5.723
 4664POPC   C1A60291   2.010  10.295   6.094
 4664POPC   D2A60292   2.142  10.476   6.526
 4664POPC   C3A60293   2.024  10.323   6.922
 4664POPC   C4A60294   2.016  10.152   7.356
 4664POPC   C1B60295   2.026  10.835   6.146
 4664POPC   C2B60296   2.345  10.936   6.489
 4664POPC   C3B60297   2.173  10.883   6.933
 4664POPC   C4B60298   2.057  10.645   7.321
 4665POPC   NC360299  42.574  13.381   5.413
 4665POPC   PO460300  42.495  14.040   5.440
 4665POPC   GL160301  42.461  13.736   5.801
 4665POPC   GL260302  42.155  13.493   5.775
 4665POPC   C1A60303  42.454  13.519   6.211
 4665POPC   D2A60304  42.633  13.462   6.635
 4665POPC   C3A60305  42.578  13.836   6.904
 4665POPC   C4A60306  42.357  13.889   7.299
 4665POPC   C1B60307  41.964  13.705   6.160
 4665POPC   C2B60308  41.822  13.695   6.621
 4665POPC   C3B60309  41.941  13.711   7.065
 4665POPC   C4B60310  42.023  13.545   7.504
 4666POPC   NC360311  17.674  23.313   5.391
 4666POPC   PO460312  17.167  22.779   5.350
 4666POPC   GL160313  17.501  22.925   5.657
 4666POPC   GL260314  17.847  22.752   5.673
 4666POPC   C1A60315  17.595  23.058   6.093
 4666POPC   D2A60316  17.367  23.091   6.502
 4666POPC   C3A60317  17.539  23.056   6.919
 4666POPC   C4A60318  17.323  22.970   7.298
 4666POPC   C1B60319  17.882  22.630   6.124
 4666POPC   C2B60320  17.744  22.691   6.550
 4666POPC   C3B60321  17.910  22.696   6.972
 4666POPC   C4B60322  17.707  22.659   7.361
 4667POPC   NC360323  11.624  42.908   5.518
 4667POPC   PO460324  10.978  43.012   5.436
 4667POPC   GL160325  11.089  42.776   5.838
 4667POPC   GL260326  11.417  42.624   5.887
 4667POPC   C1A60327  11.251  42.755   6.330
 4667POPC   D2A60328  11.393  43.131   6.560
 4667POPC   C3A60329  11.219  43.216   6.969
 4667POPC   C4A60330  11.141  42.928   7.255
 4667POPC   C1B60331  11.701  42.919   6.162
 4667POPC   C2B60332  11.797  42.820   6.593
 4667POPC   C3B60333  11.537  42.782   6.957
 4667POPC   C4B60334  11.652  42.854   7.396
 4668POPC   NC360335  24.993  32.816   5.416
 4668POPC   PO460336  25.298  33.454   5.416
 4668POPC   GL160337  25.199  33.230   5.779
 4668POPC   GL260338  25.457  32.987   5.791
 4668POPC   C1A60339  25.202  33.050   6.236
 4668POPC   D2A60340  25.046  32.802   6.602
 4668POPC   C3A60341  25.073  32.985   7.015
 4668POPC   C4A60342  25.367  33.007   7.336
 4668POPC   C1B60343  25.598  33.378   6.082
 4668POPC   C2B60344  25.503  33.543   6.500
 4668POPC   C3B60345  25.504  33.255   6.846
 4668POPC   C4B60346  25.732  33.331   7.195
 4669POPC   NC360347  37.220  32.556   5.412
 4669POPC   PO460348  37.019  31.953   5.572
 4669POPC   GL160349  37.042  32.165   5.929
 4669POPC   GL260350  36.804  32.385   5.886
 4669POPC   C1A60351  36.919  32.226   6.374
 4669POPC   D2A60352  37.017  32.473   6.746
 4669POPC   C3A60353  36.977  32.264   7.135
 4669POPC   C4A60354  37.037  32.002   7.496
 4669POPC   C1B60355  36.530  32.049   6.053
 4669POPC   C2B60356  36.438  31.811   6.415
 4669POPC   C3B60357  36.292  31.946   6.793
 4669POPC   C4B60358  36.512  32.049   7.183
 4670POPC   NC360359   1.067  33.839   5.363
 4670POPC   PO460360   1.732  33.972   5.243
 4670POPC   GL160361   1.539  33.950   5.680
 4670POPC   GL260362   1.284  33.780   5.834
 4670POPC   C1A60363   1.526  34.132   6.131
 4670POPC   D2A60364   1.360  34.295   6.557
 4670POPC   C3A60365   1.199  34.046   6.923
 4670POPC   C4A60366   1.553  33.998   7.241
 4670POPC   C1B60367   1.119  33.836   6.241
 4670POPC   C2B60368   0.937  33.529   6.514
 4670POPC   C3B60369   0.899  33.467   6.905
 4670POPC   C4B60370   1.223  33.597   7.194
 4671POPC   NC360371   5.551  26.285   5.628
 4671POPC   PO460372   6.117  25.880   5.517
 4671POPC   GL160373   5.955  26.077   5.891
 4671POPC   GL260374   6.100  26.419   5.949
 4671POPC   C1A60375   5.818  26.099   6.323
 4671POPC   D2A60376   5.465  25.944   6.582
 4671POPC   C3A60377   5.517  25.753   6.986
 4671POPC   C4A60378   5.630  25.762   7.438
 4671POPC   C1B60379   6.321  26.280   6.320
 4671POPC   C2B60380   6.212  26.058   6.663
 4671POPC   C3B60381   5.881  26.134   6.856
 4671POPC   C4B60382   5.894  26.318   7.219
 4672POPC   NC360383  41.371  25.451   5.360
 4672POPC   PO460384  41.657  24.812   5.367
 4672POPC   GL160385  41.601  24.955   5.780
 4672POPC   GL260386  41.285  25.106   5.771
 4672POPC   C1A60387  41.795  25.048   6.192
 4672POPC   D2A60388  41.786  25.319   6.562
 4672POPC   C3A60389  41.656  25.201   6.990
 4672POPC   C4A60390  41.518  24.871   7.288
 4672POPC   C1B60391  41.275  25.124   6.248
 4672POPC   C2B60392  41.231  25.310   6.698
 4672POPC   C3B60393  41.327  25.574   7.079
 4672POPC   C4B60394  41.575  25.416   7.486
 4673POPC   NC360395  15.602   5.428   5.612
 4673POPC   PO460396  14.980   5.605   5.553
 4673POPC   GL160397  15.034   5.320   5.869
 4673POPC   GL260398  15.302   5.045   5.850
 4673POPC   C1A60399  14.764   5.082   6.103
 4673POPC   D2A60400  14.731   4.988   6.505
 4673POPC   C3A60401  14.994   5.155   6.800
 4673POPC   C4A60402  14.911   5.077   7.233
 4673POPC   C1B60403  15.196   4.843   6.255
 4673POPC   C2B60404  15.256   4.653   6.657
 4673POPC   C3B60405  15.332   4.851   7.043
 4673POPC   C4B60406  15.342   5.308   7.156
 4674POPC   NC360407  14.093  10.429   5.318
 4674POPC   PO460408  13.459  10.715   5.456
 4674POPC   GL160409  13.575  10.663   5.888
 4674POPC   GL260410  13.907  10.565   5.804
 4674POPC   C1A60411  13.655  10.407   6.270
 4674POPC   D2A60412  13.377  10.278   6.602
 4674POPC   C3A60413  13.604  10.248   6.960
 4674POPC   C4A60414  13.422  10.403   7.273
 4674POPC   C1B60415  14.016  10.756   6.197
 4674POPC   C2B60416  14.096  10.541   6.598
 4674POPC   C3B60417  14.059  10.549   7.055
 4674POPC   C4B60418  13.827  10.641   7.431
 4675POPC   NC360419   9.295   1.161   5.038
 4675POPC   PO460420   9.846   1.288   5.417
 4675POPC   GL160421   9.792   1.414   5.841
 4675POPC   GL260422   9.633   1.134   6.042
 4675POPC   C1A60423  10.007   1.392   6.255
 4675POPC   D2A60424   9.810   1.202   6.629
 4675POPC   C3A60425   9.945   1.373   6.986
 4675POPC   C4A60426   9.955   1.301   7.407
 4675POPC   C1B60427   9.935   0.860   6.288
 4675POPC   C2B60428  10.008   0.749   6.740
 4675POPC   C3B60429   9.815   0.880   7.149
 4675POPC   C4B60430   9.728   0.907   7.617
 4676POPC   NC360431   5.334  14.602   5.497
 4676POPC   PO460432   5.837  14.215   5.425
 4676POPC   GL160433   5.696  14.428   5.843
 4676POPC   GL260434   5.946  14.641   5.956
 4676POPC   C1A60435   5.567  14.411   6.320
 4676POPC   D2A60436   5.786  14.183   6.650
 4676POPC   C3A60437   5.774  14.238   7.082
 4676POPC   C4A60438   5.977  14.219   7.491
 4676POPC   C1B60439   6.072  14.418   6.295
 4676POPC   C2B60440   6.163  14.562   6.691
 4676POPC   C3B60441   6.221  14.453   7.092
 4676POPC   C4B60442   6.320  14.583   7.495
 4677POPC   NC360443  35.991  15.406   5.482
 4677POPC   PO460444  36.621  15.257   5.598
 4677POPC   GL160445  36.575  15.055   5.953
 4677POPC   GL260446  36.195  15.140   5.937
 4677POPC   C1A60447  36.473  15.155   6.368
 4677POPC   D2A60448  36.061  15.174   6.575
 4677POPC   C3A60449  36.198  15.081   6.958
 4677POPC   C4A60450  36.154  14.825   7.290
 4677POPC   C1B60451  35.968  15.470   6.174
 4677POPC   C2B60452  35.811  15.660   6.563
 4677POPC   C3B60453  35.914  15.515   6.961
 4677POPC   C4B60454  36.182  15.466   7.290
 4678POPC   NC360455  10.079   3.336   5.486
 4678POPC   PO460456  10.780   3.649   5.452
 4678POPC   GL160457  10.823   3.507   5.829
 4678POPC   GL260458  10.485   3.441   5.808
 4678POPC   C1A60459  10.911   3.662   6.248
 4678POPC   D2A60460  10.959   3.393   6.592
 4678POPC   C3A60461  10.881   3.550   6.964
 4678POPC   C4A60462  10.670   3.500   7.304
 4678POPC   C1B60463  10.565   3.304   6.211
 4678POPC   C2B60464  10.468   3.464   6.622
 4678POPC   C3B60465  10.302   3.428   6.990
 4678POPC   C4B60466  10.299   3.842   7.133
 4679POPC   NC360467  16.556  17.479   5.537
 4679POPC   PO460468  17.011  18.035   5.447
 4679POPC   GL160469  16.873  17.793   5.806
 4679POPC   GL260470  16.520  17.888   5.887
 4679POPC   C1A60471  16.744  17.509   6.172
 4679POPC   D2A60472  16.518  17.478   6.549
 4679POPC   C3A60473  16.786  17.413   6.922
 4679POPC   C4A60474  16.529  17.419   7.282
 4679POPC   C1B60475  16.773  18.024   6.239
 4679POPC   C2B60476  16.797  17.875   6.667
 4679POPC   C3B60477  16.753  17.866   7.138
 4679POPC   C4B60478  16.917  17.652   7.545
 4680POPC   NC360479  30.202  29.576   5.069
 4680POPC   PO460480  30.628  30.051   5.254
 4680POPC   GL160481  30.404  30.026   5.662
 4680POPC   GL260482  30.705  30.087   5.846
 4680POPC   C1A60483  30.311  30.037   6.134
 4680POPC   D2A60484  30.598  29.996   6.505
 4680POPC   C3A60485  30.475  29.997   6.964
 4680POPC   C4A60486  30.691  30.087   7.389
 4680POPC   C1B60487  30.879  29.769   6.145
 4680POPC   C2B60488  31.048  29.739   6.587
 4680POPC   C3B60489  30.935  29.767   7.043
 4680POPC   C4B60490  31.123  29.824   7.485
 4681POPC   NC360491  14.125  32.990   5.452
 4681POPC   PO460492  14.888  33.177   5.400
 4681POPC   GL160493  14.607  33.254   5.778
 4681POPC   GL260494  14.229  33.234   5.879
 4681POPC   C1A60495  14.565  33.032   6.194
 4681POPC   D2A60496  14.639  32.845   6.589
 4681POPC   C3A60497  14.379  33.009   6.911
 4681POPC   C4A60498  14.356  33.075   7.329
 4681POPC   C1B60499  14.036  33.249   6.282
 4681POPC   C2B60500  14.125  33.398   6.704
 4681POPC   C3B60501  13.978  33.345   7.154
 4681POPC   C4B60502  14.050  33.294   7.672
 4682POPC   NC360503  31.765  10.896   5.657
 4682POPC   PO460504  31.603  10.320   5.406
 4682POPC   GL160505  31.421  10.413   5.807
 4682POPC   GL260506  31.273  10.736   5.809
 4682POPC   C1A60507  31.491  10.457   6.266
 4682POPC   D2A60508  31.464  10.776   6.608
 4682POPC   C3A60509  31.579  10.632   7.040
 4682POPC   C4A60510  31.619  10.264   7.323
 4682POPC   C1B60511  31.027  10.619   6.145
 4682POPC   C2B60512  31.056  10.473   6.542
 4682POPC   C3B60513  31.054  10.576   6.945
 4682POPC   C4B60514  31.186  10.587   7.361
 4683POPC   NC360515  25.209  39.496   5.269
 4683POPC   PO460516  25.129  38.796   5.377
 4683POPC   GL160517  25.268  39.120   5.663
 4683POPC   GL260518  24.964  39.236   5.780
 4683POPC   C1A60519  25.409  39.104   6.098
 4683POPC   D2A60520  25.436  39.287   6.507
 4683POPC   C3A60521  25.331  39.162   6.897
 4683POPC   C4A60522  25.417  39.417   7.265
 4683POPC   C1B60523  24.908  39.053   6.192
 4683POPC   C2B60524  24.907  38.825   6.588
 4683POPC   C3B60525  24.885  38.971   7.021
 4683POPC   C4B60526  24.915  39.431   7.180
 4684POPC   NC360527  24.157   6.065   5.624
 4684POPC   PO460528  23.531   5.706   5.451
 4684POPC   GL160529  23.744   5.750   5.845
 4684POPC   GL260530  23.911   5.429   5.903
 4684POPC   C1A60531  23.843   6.076   6.193
 4684POPC   D2A60532  23.675   6.290   6.576
 4684POPC   C3A60533  23.694   6.048   6.963
 4684POPC   C4A60534  23.447   5.865   7.294
 4684POPC   C1B60535  23.917   5.581   6.307
 4684POPC   C2B60536  23.606   5.753   6.566
 4684POPC   C3B60537  23.634   5.537   6.936
 4684POPC   C4B60538  23.954   5.638   7.166
 4685POPC   NC360539  10.084  34.799   5.397
 4685POPC   PO460540   9.445  34.763   5.564
 4685POPC   GL160541   9.630  34.508   5.881
 4685POPC   GL260542   9.963  34.467   5.787
 4685POPC   C1A60543   9.672  34.511   6.322
 4685POPC   D2A60544   9.839  34.717   6.668
 4685POPC   C3A60545   9.614  34.650   6.999
 4685POPC   C4A60546   9.875  34.594   7.281
 4685POPC   C1B60547   9.935  34.137   6.103
 4685POPC   C2B60548   9.736  34.019   6.478
 4685POPC   C3B60549   9.811  34.194   6.865
 4685POPC   C4B60550   9.766  34.101   7.254
 4686POPC   NC360551  34.667   3.197   5.398
 4686POPC   PO460552  34.790   3.817   5.361
 4686POPC   GL160553  34.601   3.687   5.771
 4686POPC   GL260554  34.357   3.406   5.796
 4686POPC   C1A60555  34.624   3.570   6.229
 4686POPC   D2A60556  34.589   3.744   6.665
 4686POPC   C3A60557  34.857   3.562   7.000
 4686POPC   C4A60558  34.953   3.125   7.143
 4686POPC   C1B60559  34.204   3.274   6.249
 4686POPC   C2B60560  34.396   3.217   6.693
 4686POPC   C3B60561  34.448   3.305   7.175
 4686POPC   C4B60562  34.242   3.519   7.541
 4687POPC   NC360563   2.559  38.513   5.315
 4687POPC   PO460564   2.659  39.152   5.537
 4687POPC   GL160565   2.724  38.738   5.761
 4687POPC   GL260566   2.835  38.350   5.762
 4687POPC   C1A60567   2.761  38.606   6.187
 4687POPC   D2A60568   2.893  38.454   6.606
 4687POPC   C3A60569   3.029  38.707   6.940
 4687POPC   C4A60570   2.634  38.817   7.089
 4687POPC   C1B60571   3.096  38.226   6.182
 4687POPC   C2B60572   3.172  38.029   6.622
 4687POPC   C3B60573   3.064  38.194   7.057
 4687POPC   C4B60574   3.036  38.153   7.508
 4688POPC   NC360575   0.968  24.333   5.386
 4688POPC   PO460576   1.550  24.798   5.434
 4688POPC   GL160577   1.385  24.468   5.776
 4688POPC   GL260578   1.047  24.518   5.852
 4688POPC   C1A60579   1.301  24.449   6.279
 4688POPC   D2A60580   1.518  24.702   6.617
 4688POPC   C3A60581   1.332  24.689   7.034
 4688POPC   C4A60582   1.314  24.352   7.369
 4688POPC   C1B60583   0.792  24.549   6.222
 4688POPC   C2B60584   0.821  24.411   6.649
 4688POPC   C3B60585   0.891  24.442   7.093
 4688POPC   C4B60586   0.996  24.754   7.428
 4689POPC   NC360587  33.750   2.177   5.461
 4689POPC   PO460588  33.429   1.557   5.417
 4689POPC   GL160589  33.693   1.740   5.741
 4689POPC   GL260590  34.053   1.756   5.656
 4689POPC   C1A60591  33.708   1.924   6.163
 4689POPC   D2A60592  33.802   1.787   6.573
 4689POPC   C3A60593  33.643   1.918   6.961
 4689POPC   C4A60594  33.621   1.771   7.375
 4689POPC   C1B60595  34.220   1.867   6.078
 4689POPC   C2B60596  34.252   2.029   6.504
 4689POPC   C3B60597  34.155   1.922   6.928
 4689POPC   C4B60598  34.020   2.087   7.332
 4690POPC   NC360599  17.496  30.488   5.264
 4690POPC   PO460600  17.714  29.755   5.370
 4690POPC   GL160601  17.435  29.941   5.709
 4690POPC   GL260602  17.372  29.618   5.806
 4690POPC   C1A60603  17.188  29.989   6.128
 4690POPC   D2A60604  17.418  30.089   6.502
 4690POPC   C3A60605  17.348  29.945   6.894
 4690POPC   C4A60606  17.525  30.065   7.275
 4690POPC   C1B60607  17.631  29.712   6.191
 4690POPC   C2B60608  17.729  29.506   6.607
 4690POPC   C3B60609  17.728  29.609   7.060
 4690POPC   C4B60610  17.884  29.434   7.458
 4691POPC   NC360611  23.359  29.406   5.624
 4691POPC   PO460612  22.928  29.777   5.247
 4691POPC   GL160613  22.960  29.762   5.689
 4691POPC   GL260614  23.254  29.910   5.709
 4691POPC   C1A60615  22.925  29.716   6.150
 4691POPC   D2A60616  22.718  29.929   6.491
 4691POPC   C3A60617  22.929  29.970   6.904
 4691POPC   C4A60618  22.786  29.862   7.297
 4691POPC   C1B60619  23.139  30.181   6.061
 4691POPC   C2B60620  23.141  30.227   6.496
 4691POPC   C3B60621  23.381  30.272   6.884
 4691POPC   C4B60622  23.265  30.139   7.306
 4692POPC   NC360623  14.631  20.557   5.535
 4692POPC   PO460624  14.088  20.921   5.743
 4692POPC   GL160625  14.451  20.800   5.949
 4692POPC   GL260626  14.713  21.031   5.832
 4692POPC   C1A60627  14.574  20.427   6.225
 4692POPC   D2A60628  14.566  20.237   6.644
 4692POPC   C3A60629  14.401  20.537   6.922
 4692POPC   C4A60630  14.563  20.770   7.247
 4692POPC   C1B60631  14.812  20.893   6.283
 4692POPC   C2B60632  14.692  20.960   6.713
 4692POPC   C3B60633  14.748  21.227   7.054
 4692POPC   C4B60634  14.826  21.140   7.529
 4693POPC   NC360635   9.589  32.801   5.553
 4693POPC   PO460636   9.979  33.349   5.397
 4693POPC   GL160637   9.872  33.140   5.790
 4693POPC   GL260638  10.004  32.791   5.862
 4693POPC   C1A60639   9.702  33.239   6.190
 4693POPC   D2A60640   9.675  33.521   6.532
 4693POPC   C3A60641   9.728  33.283   6.875
 4693POPC   C4A60642   9.864  33.228   7.264
 4693POPC   C1B60643   9.982  32.804   6.306
 4693POPC   C2B60644   9.647  32.834   6.618
 4693POPC   C3B60645   9.593  32.820   7.079
 4693POPC   C4B60646   9.944  32.728   7.372
 4694POPC   NC360647  36.385  41.504   5.393
 4694POPC   PO460648  35.885  41.899   5.415
 4694POPC   GL160649  36.291  41.956   5.642
 4694POPC   GL260650  36.132  41.974   5.909
 4694POPC   C1A60651  36.551  41.736   6.025
 4694POPC   D2A60652  36.508  41.486   6.424
 4694POPC   C3A60653  36.423  41.650   6.849
 4694POPC   C4A60654  36.323  41.571   7.287
 4694POPC   C1B60655  36.043  41.604   6.156
 4694POPC   C2B60656  35.983  41.508   6.588
 4694POPC   C3B60657  35.933  41.730   6.982
 4694POPC   C4B60658  35.822  41.663   7.420
 4695POPC   NC360659  22.323  38.427   5.374
 4695POPC   PO460660  21.753  38.773   5.594
 4695POPC   GL160661  21.967  38.542   5.940
 4695POPC   GL260662  22.311  38.470   5.887
 4695POPC   C1A60663  21.844  38.452   6.374
 4695POPC   D2A60664  21.748  38.355   6.815
 4695POPC   C3A60665  21.833  38.657   7.119
 4695POPC   C4A60666  21.980  38.545   7.494
 4695POPC   C1B60667  22.366  38.476   6.341
 4695POPC   C2B60668  22.195  38.597   6.751
 4695POPC   C3B60669  22.192  38.269   7.093
 4695POPC   C4B60670  22.594  38.134   7.262
 4696POPC   NC360671   5.176  11.054   5.534
 4696POPC   PO460672   5.097  10.478   5.396
 4696POPC   GL160673   5.078  10.630   5.816
 4696POPC   GL260674   4.747  10.873   5.791
 4696POPC   C1A60675   5.379  10.623   6.214
 4696POPC   D2A60676   5.565  10.768   6.624
 4696POPC   C3A60677   5.350  10.575   6.973
 4696POPC   C4A60678   5.462  10.581   7.376
 4696POPC   C1B60679   4.958  10.905   6.204
 4696POPC   C2B60680   5.048  10.775   6.598
 4696POPC   C3B60681   4.891  10.793   6.994
 4696POPC   C4B60682   4.696  10.427   7.111
 4697POPC   NC360683  24.050  19.896   5.253
 4697POPC   PO460684  24.740  19.943   5.442
 4697POPC   GL160685  24.547  19.799   5.835
 4697POPC   GL260686  24.178  19.807   5.788
 4697POPC   C1A60687  24.685  19.824   6.281
 4697POPC   D2A60688  24.547  19.855   6.719
 4697POPC   C3A60689  24.725  20.056   7.083
 4697POPC   C4A60690  24.747  19.793   7.453
 4697POPC   C1B60691  24.191  19.987   6.184
 4697POPC   C2B60692  24.068  19.834   6.537
 4697POPC   C3B60693  24.092  19.974   6.943
 4697POPC   C4B60694  24.261  19.782   7.291
 4698POPC   NC360695  21.537  31.084   5.502
 4698POPC   PO460696  21.651  30.461   5.173
 4698POPC   GL160697  21.494  30.549   5.608
 4698POPC   GL260698  21.163  30.425   5.697
 4698POPC   C1A60699  21.601  30.472   6.066
 4698POPC   D2A60700  21.545  30.695   6.484
 4698POPC   C3A60701  21.582  30.507   6.927
 4698POPC   C4A60702  21.582  30.691   7.393
 4698POPC   C1B60703  21.113  30.561   6.162
 4698POPC   C2B60704  21.017  30.599   6.644
 4698POPC   C3B60705  21.139  30.678   7.102
 4698POPC   C4B60706  21.023  30.606   7.550
 4699POPC   NC360707  31.138  36.359   5.351
 4699POPC   PO460708  31.704  35.845   5.298
 4699POPC   GL160709  31.657  36.167   5.657
 4699POPC   GL260710  31.321  36.256   5.814
 4699POPC   C1A60711  31.710  36.157   6.125
 4699POPC   D2A60712  31.627  35.889   6.486
 4699POPC   C3A60713  31.648  36.026   6.927
 4699POPC   C4A60714  31.278  36.052   7.161
 4699POPC   C1B60715  31.168  36.063   6.220
 4699POPC   C2B60716  31.118  36.149   6.660
 4699POPC   C3B60717  31.068  36.483   6.972
 4699POPC   C4B60718  31.193  36.473   7.421
 4700POPC   NC360719  34.399   8.221   5.267
 4700POPC   PO460720  35.098   8.409   5.417
 4700POPC   GL160721  34.736   8.306   5.695
 4700POPC   GL260722  34.432   8.126   5.751
 4700POPC   C1A60723  34.744   8.143   6.140
 4700POPC   D2A60724  34.535   8.234   6.528
 4700POPC   C3A60725  34.771   8.272   6.911
 4700POPC   C4A60726  34.617   7.910   7.129
 4700POPC   C1B60727  34.215   8.218   6.089
 4700POPC   C2B60728  34.017   8.146   6.461
 4700POPC   C3B60729  34.183   8.056   6.860
 4700POPC   C4B60730  34.333   8.391   7.101
 4701POPC   NC360731  32.354  25.133   5.536
 4701POPC   PO460732  31.763  24.794   5.468
 4701POPC   GL160733  32.025  24.782   5.826
 4701POPC   GL260734  32.387  24.923   5.970
 4701POPC   C1A60735  31.967  24.976   6.245
 4701POPC   D2A60736  32.043  25.224   6.609
 4701POPC   C3A60737  32.203  25.062   6.981
 4701POPC   C4A60738  32.094  25.159   7.425
 4701POPC   C1B60739  32.441  25.244   6.298
 4701POPC   C2B60740  32.497  25.459   6.710
 4701POPC   C3B60741  32.508  25.426   7.164
 4701POPC   C4B60742  32.702  25.256   7.540
 4702POPC   NC360743  32.958  14.168   5.388
 4702POPC   PO460744  32.765  14.796   5.294
 4702POPC   GL160745  32.713  14.593   5.761
 4702POPC   GL260746  32.992  14.343   5.840
 4702POPC   C1A60747  32.826  14.720   6.239
 4702POPC   D2A60748  32.717  14.803   6.700
 4702POPC   C3A60749  32.940  14.596   7.074
 4702POPC   C4A60750  33.136  14.776   7.459
 4702POPC   C1B60751  32.927  14.198   6.202
 4702POPC   C2B60752  33.046  14.372   6.599
 4702POPC   C3B60753  33.057  14.109   6.959
 4702POPC   C4B60754  32.775  14.123   7.265
 4703POPC   NC360755   1.681  39.161   5.251
 4703POPC   PO460756   1.018  38.996   5.251
 4703POPC   GL160757   1.056  39.242   5.656
 4703POPC   GL260758   1.389  39.371   5.788
 4703POPC   C1A60759   0.946  39.275   6.104
 4703POPC   D2A60760   0.960  39.540   6.490
 4703POPC   C3A60761   0.910  39.261   6.844
 4703POPC   C4A60762   0.911  39.199   7.256
 4703POPC   C1B60763   1.429  39.475   6.223
 4703POPC   C2B60764   1.395  39.312   6.631
 4703POPC   C3B60765   1.323  39.531   6.985
 4703POPC   C4B60766   1.565  39.508   7.337
 4704POPC   NC360767  32.471  31.634   5.439
 4704POPC   PO460768  32.095  31.084   5.453
 4704POPC   GL160769  32.254  31.293   5.805
 4704POPC   GL260770  32.154  31.601   5.838
 4704POPC   C1A60771  32.241  31.304   6.276
 4704POPC   D2A60772  32.471  31.401   6.696
 4704POPC   C3A60773  32.348  31.491   7.132
 4704POPC   C4A60774  32.404  31.381   7.592
 4704POPC   C1B60775  31.945  31.721   6.189
 4704POPC   C2B60776  32.033  31.647   6.627
 4704POPC   C3B60777  31.858  31.616   7.015
 4704POPC   C4B60778  31.966  31.587   7.460
 4705POPC   NC360779  32.851  16.314   5.277
 4705POPC   PO460780  33.133  15.723   5.368
 4705POPC   GL160781  33.123  15.979   5.767
 4705POPC   GL260782  32.788  16.047   5.775
 4705POPC   C1A60783  33.167  15.903   6.221
 4705POPC   D2A60784  33.122  15.788   6.671
 4705POPC   C3A60785  33.331  16.107   6.981
 4705POPC   C4A60786  33.473  16.093   7.424
 4705POPC   C1B60787  32.676  16.013   6.209
 4705POPC   C2B60788  32.635  15.930   6.646
 4705POPC   C3B60789  32.793  16.065   7.026
 4705POPC   C4B60790  32.471  16.340   7.176
 4706POPC   NC360791  27.396  34.978   5.477
 4706POPC   PO460792  27.571  35.540   5.279
 4706POPC   GL160793  27.550  35.650   5.754
 4706POPC   GL260794  27.870  35.592   5.873
 4706POPC   C1A60795  27.468  35.503   6.231
 4706POPC   D2A60796  27.515  35.078   6.476
 4706POPC   C3A60797  27.406  35.041   6.954
 4706POPC   C4A60798  27.437  35.242   7.379
 4706POPC   C1B60799  27.856  35.202   6.103
 4706POPC   C2B60800  28.012  35.263   6.495
 4706POPC   C3B60801  27.801  35.379   6.842
 4706POPC   C4B60802  27.899  35.398   7.243
 4707POPC   NC360803   9.888  11.626   5.443
 4707POPC   PO460804   9.620  12.233   5.457
 4707POPC   GL160805   9.620  11.959   5.780
 4707POPC   GL260806   9.972  11.986   5.797
 4707POPC   C1A60807   9.696  11.901   6.220
 4707POPC   D2A60808   9.834  11.767   6.639
 4707POPC   C3A60809   9.670  12.000   6.974
 4707POPC   C4A60810   9.589  12.102   7.382
 4707POPC   C1B60811  10.177  12.043   6.188
 4707POPC   C2B60812  10.322  11.954   6.592
 4707POPC   C3B60813  10.193  11.903   7.042
 4707POPC   C4B60814  10.090  11.993   7.504
 4708POPC   NC360815   4.072  38.767   5.361
 4708POPC   PO460816   4.405  39.360   5.370
 4708POPC   GL160817   4.223  39.337   5.754
 4708POPC   GL260818   4.213  38.991   5.805
 4708POPC   C1A60819   4.121  39.380   6.181
 4708POPC   D2A60820   4.317  39.106   6.466
 4708POPC   C3A60821   4.452  39.233   6.870
 4708POPC   C4A60822   4.443  38.967   7.181
 4708POPC   C1B60823   3.907  38.791   6.078
 4708POPC   C2B60824   3.951  38.747   6.520
 4708POPC   C3B60825   3.957  39.034   6.892
 4708POPC   C4B60826   3.911  38.886   7.315
 4709POPC   NC360827   3.941   9.886   5.470
 4709POPC   PO460828   4.606   9.633   5.312
 4709POPC   GL160829   4.379   9.765   5.730
 4709POPC   GL260830   4.218   9.473   5.800
 4709POPC   C1A60831   4.215   9.732   6.207
 4709POPC   D2A60832   4.125   9.905   6.564
 4709POPC   C3A60833   4.196   9.767   6.950
 4709POPC   C4A60834   4.189  10.003   7.334
 4709POPC   C1B60835   4.564   9.402   6.096
 4709POPC   C2B60836   4.445   9.403   6.542
 4709POPC   C3B60837   4.594   9.448   6.962
 4709POPC   C4B60838   4.390   9.526   7.352
 4710POPC   NC360839  12.690  41.288   5.440
 4710POPC   PO460840  12.712  41.909   5.506
 4710POPC   GL160841  12.769  41.579   5.882
 4710POPC   GL260842  12.907  41.238   5.897
 4710POPC   C1A60843  12.765  41.430   6.346
 4710POPC   D2A60844  13.018  41.379   6.717
 4710POPC   C3A60845  12.771  41.637   7.013
 4710POPC   C4A60846  12.758  41.702   7.474
 4710POPC   C1B60847  12.471  41.137   6.060
 4710POPC   C2B60848  12.431  41.024   6.506
 4710POPC   C3B60849  12.660  41.078   6.890
 4710POPC   C4B60850  12.857  41.234   7.287
 4711POPC   NC360851  30.146  44.228   5.553
 4711POPC   PO460852  29.625  43.685   5.356
 4711POPC   GL160853  29.685  43.890   5.736
 4711POPC   GL260854  29.514  44.226   5.750
 4711POPC   C1A60855  29.721  43.725   6.160
 4711POPC   D2A60856  29.523  43.699   6.570
 4711POPC   C3A60857  29.859  43.712   6.867
 4711POPC   C4A60858  30.022  43.669   7.281
 4711POPC   C1B60859  29.752  44.232   6.124
 4711POPC   C2B60860  29.841  44.115   6.536
 4711POPC   C3B60861  29.683  44.213   6.932
 4711POPC   C4B60862  29.841  44.175   7.343
 4712POPC   NC360863  32.136  16.954   5.357
 4712POPC   PO460864  32.313  16.307   5.167
 4712POPC   GL160865  32.079  16.549   5.618
 4712POPC   GL260866  32.346  16.864   5.801
 4712POPC   C1A60867  32.034  16.625   6.085
 4712POPC   D2A60868  32.014  16.773   6.514
 4712POPC   C3A60869  31.975  16.480   6.847
 4712POPC   C4A60870  31.937  16.629   7.244
 4712POPC   C1B60871  32.517  16.763   6.213
 4712POPC   C2B60872  32.479  16.955   6.615
 4712POPC   C3B60873  32.355  16.843   7.027
 4712POPC   C4B60874  32.489  17.137   7.340
 4713POPC   NC360875  41.584  26.244   5.385
 4713POPC   PO460876  41.818  25.581   5.408
 4713POPC   GL160877  41.802  25.924   5.761
 4713POPC   GL260878  41.730  26.301   5.856
 4713POPC   C1A60879  41.698  25.941   6.211
 4713POPC   D2A60880  41.512  25.752   6.562
 4713POPC   C3A60881  41.752  25.795   6.924
 4713POPC   C4A60882  41.622  25.926   7.302
 4713POPC   C1B60883  41.637  26.452   6.252
 4713POPC   C2B60884  41.761  26.248   6.634
 4713POPC   C3B60885  41.821  26.331   7.049
 4713POPC   C4B60886  41.809  26.463   7.465
 4714POPC   NC360887  18.837  43.693   5.457
 4714POPC   PO460888  19.170  44.297   5.470
 4714POPC   GL160889  19.199  44.095   5.862
 4714POPC   GL260890  18.866  44.051   5.842
 4714POPC   C1A60891  19.327  44.071   6.298
 4714POPC   D2A60892  19.215  43.735   6.633
 4714POPC   C3A60893  19.196  43.941   7.023
 4714POPC   C4A60894  19.518  44.021   7.317
 4714POPC   C1B60895  18.898  43.815   6.228
 4714POPC   C2B60896  18.720  43.696   6.637
 4714POPC   C3B60897  18.787  43.612   7.071
 4714POPC   C4B60898  18.707  44.002   7.266
 4715POPC   NC360899  25.755  40.143   5.555
 4715POPC   PO460900  25.222  39.940   5.156
 4715POPC   GL160901  25.272  39.765   5.679
 4715POPC   GL260902  25.498  39.936   5.947
 4715POPC   C1A60903  25.192  39.574   6.106
 4715POPC   D2A60904  25.383  39.786   6.465
 4715POPC   C3A60905  25.233  39.736   6.889
 4715POPC   C4A60906  25.176  39.857   7.329
 4715POPC   C1B60907  25.542  40.265   6.302
 4715POPC   C2B60908  25.627  40.233   6.760
 4715POPC   C3B60909  25.352  40.271   7.104
 4715POPC   C4B60910  25.284  40.455   7.510
 4716POPC   NC360911  43.321  21.074   5.535
 4716POPC   PO460912  42.906  21.640   5.527
 4716POPC   GL160913  43.106  21.432   5.825
 4716POPC   GL260914  43.435  21.558   5.802
 4716POPC   C1A60915  42.987  21.225   6.211
 4716POPC   D2A60916  42.691  21.315   6.580
 4716POPC   C3A60917  42.841  21.270   7.023
 4716POPC   C4A60918  43.126  21.118   7.379
 4716POPC   C1B60919  43.277  21.671   6.237
 4716POPC   C2B60920  43.207  21.465   6.630
 4716POPC   C3B60921  43.220  21.626   7.040
 4716POPC   C4B60922  43.002  21.615   7.420
 4717POPC   NC360923  24.478  28.620   5.249
 4717POPC   PO460924  24.682  28.097   5.431
 4717POPC   GL160925  24.599  28.395   5.791
 4717POPC   GL260926  24.311  28.636   5.753
 4717POPC   C1A60927  24.656  28.535   6.248
 4717POPC   D2A60928  24.779  28.324   6.625
 4717POPC   C3A60929  24.642  28.550   6.939
 4717POPC   C4A60930  24.505  28.237   7.157
 4717POPC   C1B60931  24.201  28.407   6.126
 4717POPC   C2B60932  24.214  28.584   6.553
 4717POPC   C3B60933  24.143  28.603   7.018
 4717POPC   C4B60934  24.097  28.646   7.469
 4718POPC   NC360935  10.836  12.426   5.495
 4718POPC   PO460936  11.215  11.782   5.427
 4718POPC   GL160937  11.028  11.939   5.804
 4718POPC   GL260938  11.385  12.016   5.915
 4718POPC   C1A60939  11.025  12.201   6.199
 4718POPC   D2A60940  11.409  12.245   6.447
 4718POPC   C3A60941  11.297  12.167   6.851
 4718POPC   C4A60942  11.306  12.357   7.290
 4718POPC   C1B60943  11.295  11.745   6.271
 4718POPC   C2B60944  11.489  11.582   6.644
 4718POPC   C3B60945  11.534  11.720   7.051
 4718POPC   C4B60946  11.140  11.831   7.181
 4719POPC   NC360947  39.930   9.561   5.552
 4719POPC   PO460948  40.152  10.199   5.388
 4719POPC   GL160949  40.101   9.991   5.779
 4719POPC   GL260950  40.305   9.735   5.915
 4719POPC   C1A60951  39.965  10.000   6.198
 4719POPC   D2A60952  39.829   9.942   6.630
 4719POPC   C3A60953  40.102   9.797   6.955
 4719POPC   C4A60954  39.964   9.778   7.384
 4719POPC   C1B60955  40.176   9.478   6.255
 4719POPC   C2B60956  39.963   9.355   6.617
 4719POPC   C3B60957  39.840   9.384   7.021
 4719POPC   C4B60958  40.144   9.278   7.321
 4720POPC   NC360959   7.444  34.940   5.436
 4720POPC   PO460960   6.844  35.210   5.412
 4720POPC   GL160961   7.084  35.339   5.800
 4720POPC   GL260962   7.374  35.153   5.885
 4720POPC   C1A60963   7.221  35.488   6.227
 4720POPC   D2A60964   7.411  35.774   6.530
 4720POPC   C3A60965   7.541  35.532   6.868
 4720POPC   C4A60966   7.177  35.349   7.067
 4720POPC   C1B60967   7.554  35.119   6.275
 4720POPC   C2B60968   7.435  35.063   6.705
 4720POPC   C3B60969   7.640  35.068   7.135
 4720POPC   C4B60970   7.752  35.057   7.596
 4721POPC   NC360971  27.482   7.495   5.341
 4721POPC   PO460972  28.117   7.650   5.707
 4721POPC   GL160973  27.642   7.665   5.793
 4721POPC   GL260974  27.404   7.363   5.842
 4721POPC   C1A60975  27.426   7.744   6.180
 4721POPC   D2A60976  27.450   7.503   6.577
 4721POPC   C3A60977  27.538   7.703   6.974
 4721POPC   C4A60978  27.771   7.588   7.346
 4721POPC   C1B60979  27.772   7.354   6.167
 4721POPC   C2B60980  27.864   7.194   6.584
 4721POPC   C3B60981  27.617   7.108   6.940
 4721POPC   C4B60982  27.891   7.069   7.274
 4722POPC   NC360983   9.866  38.166   5.470
 4722POPC   PO460984   9.551  38.755   5.327
 4722POPC   GL160985   9.799  38.682   5.723
 4722POPC   GL260986  10.105  38.454   5.806
 4722POPC   C1A60987   9.913  38.733   6.176
 4722POPC   D2A60988   9.919  38.514   6.566
 4722POPC   C3A60989   9.886  38.721   6.947
 4722POPC   C4A60990   9.780  38.799   7.358
 4722POPC   C1B60991  10.003  38.167   6.162
 4722POPC   C2B60992  10.164  38.071   6.582
 4722POPC   C3B60993   9.953  38.167   6.964
 4722POPC   C4B60994   9.742  38.294   7.330
 4723POPC   NC360995   6.262  23.726   5.523
 4723POPC   PO460996   5.564  23.763   5.364
 4723POPC   GL160997   5.813  23.723   5.786
 4723POPC   GL260998   6.048  23.466   5.890
 4723POPC   C1A60999   5.992  23.926   6.178
 4723POPC   D2A61000   5.758  23.912   6.593
 4723POPC   C3A61001   5.954  23.905   6.991
 4723POPC   C4A61002   5.784  23.934   7.386
 4723POPC   C1B61003   5.804  23.482   6.319
 4723POPC   C2B61004   5.777  23.428   6.787
 4723POPC   C3B61005   5.803  23.425   7.238
 4723POPC   C4B61006   6.164  23.600   7.406
 4724POPC   NC361007  21.274   8.682   5.343
 4724POPC   PO461008  21.527   9.385   5.334
 4724POPC   GL161009  21.519   9.114   5.731
 4724POPC   GL261010  21.786   8.884   5.814
 4724POPC   C1A61011  21.384   8.894   6.137
 4724POPC   D2A61012  21.193   8.680   6.508
 4724POPC   C3A61013  21.418   8.715   6.903
 4724POPC   C4A61014  21.595   9.031   7.167
 4724POPC   C1B61015  21.796   9.209   6.188
 4724POPC   C2B61016  21.780   9.101   6.659
 4724POPC   C3B61017  21.952   9.362   7.015
 4724POPC   C4B61018  21.904   9.288   7.471
 4725POPC   NC361019  35.870  19.392   5.530
 4725POPC   PO461020  35.722  18.742   5.563
 4725POPC   GL161021  35.916  18.911   5.899
 4725POPC   GL261022  36.215  19.111   5.798
 4725POPC   C1A61023  35.912  18.815   6.332
 4725POPC   D2A61024  36.083  18.666   6.705
 4725POPC   C3A61025  35.924  18.902   7.032
 4725POPC   C4A61026  35.936  18.944   7.452
 4725POPC   C1B61027  36.075  19.277   6.209
 4725POPC   C2B61028  36.111  19.206   6.645
 4725POPC   C3B61029  36.207  19.341   7.056
 4725POPC   C4B61030  35.989  19.451   7.424
 4726POPC   NC361031  12.889  16.640   5.268
 4726POPC   PO461032  12.836  17.239   5.473
 4726POPC   GL161033  12.690  16.944   5.757
 4726POPC   GL261034  12.998  16.770   5.765
 4726POPC   C1A61035  12.694  16.810   6.190
 4726POPC   D2A61036  12.929  16.747   6.603
 4726POPC   C3A61037  12.717  16.586   6.986
 4726POPC   C4A61038  12.770  16.470   7.450
 4726POPC   C1B61039  13.154  17.018   6.119
 4726POPC   C2B61040  13.136  17.212   6.511
 4726POPC   C3B61041  13.158  17.122   6.906
 4726POPC   C4B61042  13.067  16.858   7.241
 4727POPC   NC361043   2.219  11.601   5.441
 4727POPC   PO461044   2.176  12.247   5.426
 4727POPC   GL161045   2.285  12.025   5.792
 4727POPC   GL261046   1.996  11.808   5.834
 4727POPC   C1A61047   2.141  12.121   6.225
 4727POPC   D2A61048   1.727  12.265   6.410
 4727POPC   C3A61049   1.780  12.288   6.851
 4727POPC   C4A61050   2.074  12.166   7.161
 4727POPC   C1B61051   1.750  11.783   6.191
 4727POPC   C2B61052   1.864  11.808   6.625
 4727POPC   C3B61053   1.689  11.807   7.037
 4727POPC   C4B61054   1.835  11.793   7.438
 4728POPC   NC361055  44.387  27.486   5.062
 4728POPC   PO461056  43.971  27.887   5.463
 4728POPC   GL161057  43.931  27.607   5.830
 4728POPC   GL261058  44.206  27.370   5.823
 4728POPC   C1A61059  43.831  27.394   6.232
 4728POPC   D2A61060  43.721  27.411   6.664
 4728POPC   C3A61061  44.044  27.667   6.805
 4728POPC   C4A61062  44.078  27.860   7.201
 4728POPC   C1B61063  44.305  27.151   6.226
 4728POPC   C2B61064  44.117  27.065   6.605
 4728POPC   C3B61065  44.075  27.199   7.009
 4728POPC   C4B61066  43.801  27.448   7.207
 4729POPC   NC361067  23.592  39.274   5.353
 4729POPC   PO461068  24.226  39.157   5.426
 4729POPC   GL161069  23.985  39.382   5.735
 4729POPC   GL261070  23.724  39.215   5.835
 4729POPC   C1A61071  23.927  39.527   6.170
 4729POPC   D2A61072  23.778  39.250   6.514
 4729POPC   C3A61073  23.960  39.337   6.917
 4729POPC   C4A61074  23.845  39.222   7.314
 4729POPC   C1B61075  23.403  39.344   6.137
 4729POPC   C2B61076  23.323  39.476   6.562
 4729POPC   C3B61077  23.454  39.342   6.964
 4729POPC   C4B61078  23.396  39.036   7.281
 4730POPC   NC361079  42.168   1.869   5.489
 4730POPC   PO461080  42.544   2.426   5.427
 4730POPC   GL161081  42.545   2.243   5.850
 4730POPC   GL261082  42.266   2.047   5.972
 4730POPC   C1A61083  42.705   2.008   6.268
 4730POPC   D2A61084  42.731   1.916   6.718
 4730POPC   C3A61085  42.371   2.118   6.916
 4730POPC   C4A61086  42.296   2.302   7.347
 4730POPC   C1B61087  42.149   1.706   6.272
 4730POPC   C2B61088  42.046   1.658   6.723
 4730POPC   C3B61089  42.054   1.806   7.161
 4730POPC   C4B61090  42.138   1.862   7.600
 4731POPC   NC361091   1.157   5.442   5.310
 4731POPC   PO461092   1.607   5.941   5.301
 4731POPC   GL161093   1.308   5.841   5.663
 4731POPC   GL261094   1.148   6.164   5.737
 4731POPC   C1A61095   1.059   5.770   6.077
 4731POPC   D2A61096   0.951   5.909   6.514
 4731POPC   C3A61097   1.035   5.712   6.925
 4731POPC   C4A61098   1.239   5.743   7.352
 4731POPC   C1B61099   1.126   6.288   6.195
 4731POPC   C2B61100   1.277   6.297   6.637
 4731POPC   C3B61101   1.104   6.210   7.075
 4731POPC   C4B61102   1.089   6.187   7.534
 4732POPC   NC361103  31.058  11.533   5.595
 4732POPC   PO461104  30.580  11.169   5.409
 4732POPC   GL161105  30.625  11.346   5.813
 4732POPC   GL261106  30.909  11.112   5.900
 4732POPC   C1A61107  30.788  11.538   6.209
 4732POPC   D2A61108  30.691  11.333   6.584
 4732POPC   C3A61109  30.584  11.394   7.001
 4732POPC   C4A61110  30.351  11.058   7.199
 4732POPC   C1B61111  31.103  11.106   6.328
 4732POPC   C2B61112  31.072  11.062   6.801
 4732POPC   C3B61113  30.878  10.988   7.212
 4732POPC   C4B61114  31.030  10.954   7.661
 4733POPC   NC361115  34.425  41.805   5.466
 4733POPC   PO461116  33.717  41.541   5.390
 4733POPC   GL161117  33.908  41.499   5.796
 4733POPC   GL261118  34.084  41.804   5.830
 4733POPC   C1A61119  33.916  41.277   6.203
 4733POPC   D2A61120  34.034  41.414   6.642
 4733POPC   C3A61121  33.857  41.359   7.047
 4733POPC   C4A61122  34.061  41.384   7.438
 4733POPC   C1B61123  34.032  41.768   6.252
 4733POPC   C2B61124  33.706  41.834   6.545
 4733POPC   C3B61125  33.597  41.805   6.962
 4733POPC   C4B61126  33.965  41.862   7.197
 4734POPC   NC361127  13.823  19.278   5.366
 4734POPC   PO461128  14.073  18.667   5.319
 4734POPC   GL161129  13.897  18.874   5.719
 4734POPC   GL261130  13.549  18.801   5.796
 4734POPC   C1A61131  13.819  19.100   6.142
 4734POPC   D2A61132  14.002  19.252   6.566
 4734POPC   C3A61133  13.778  19.122   6.944
 4734POPC   C4A61134  13.588  19.347   7.279
 4734POPC   C1B61135  13.374  18.759   6.204
 4734POPC   C2B61136  13.431  19.041   6.552
 4734POPC   C3B61137  13.245  19.133   6.958
 4734POPC   C4B61138  13.346  18.868   7.296
 4735POPC   NC361139  30.068  29.566   5.591
 4735POPC   PO461140  30.387  29.151   5.103
 4735POPC   GL161141  30.417  29.190   5.594
 4735POPC   GL261142  30.540  29.520   5.776
 4735POPC   C1A61143  30.437  29.068   6.063
 4735POPC   D2A61144  30.434  28.828   6.488
 4735POPC   C3A61145  30.571  29.029   6.886
 4735POPC   C4A61146  30.370  29.052   7.293
 4735POPC   C1B61147  30.423  29.551   6.227
 4735POPC   C2B61148  30.604  29.510   6.645
 4735POPC   C3B61149  30.445  29.495   7.042
 4735POPC   C4B61150  30.700  29.495   7.417
 4736POPC   NC361151   1.783  43.731   5.470
 4736POPC   PO461152   2.138  44.328   5.525
 4736POPC   GL161153   2.068  43.949   5.818
 4736POPC   GL261154   1.723  44.016   5.906
 4736POPC   C1A61155   2.007  43.657   6.171
 4736POPC   D2A61156   1.989  43.419   6.567
 4736POPC   C3A61157   2.039  43.572   7.008
 4736POPC   C4A61158   1.838  43.675   7.428
 4736POPC   C1B61159   1.995  44.183   6.249
 4736POPC   C2B61160   2.026  43.955   6.634
 4736POPC   C3B61161   1.948  44.071   7.047
 4736POPC   C4B61162   2.114  44.401   7.235
 4737POPC   NC361163  38.205  37.177   5.054
 4737POPC   PO461164  38.596  37.668   5.365
 4737POPC   GL161165  38.694  37.756   5.791
 4737POPC   GL261166  38.739  38.127   5.801
 4737POPC   C1A61167  38.462  37.628   6.177
 4737POPC   D2A61168  38.259  37.680   6.579
 4737POPC   C3A61169  38.319  37.469   6.976
 4737POPC   C4A61170  38.186  37.551   7.422
 4737POPC   C1B61171  38.838  37.988   6.227
 4737POPC   C2B61172  38.775  37.740   6.617
 4737POPC   C3B61173  38.777  37.635   7.063
 4737POPC   C4B61174  38.680  37.918   7.378
 4738POPC   NC361175  43.749  20.993   5.069
 4738POPC   PO461176  43.816  21.628   5.311
 4738POPC   GL161177  43.962  21.568   5.735
 4738POPC   GL261178  43.839  21.246   5.732
 4738POPC   C1A61179  44.130  21.416   6.125
 4738POPC   D2A61180  44.134  21.577   6.541
 4738POPC   C3A61181  43.886  21.346   6.850
 4738POPC   C4A61182  44.062  21.423   7.254
 4738POPC   C1B61183  43.630  21.273   6.166
 4738POPC   C2B61184  43.563  21.051   6.548
 4738POPC   C3B61185  43.420  21.126   6.961
 4738POPC   C4B61186  43.567  21.344   7.297
 4739POPC   NC361187  29.090  29.368   5.512
 4739POPC   PO461188  29.099  28.671   5.421
 4739POPC   GL161189  29.112  28.912   5.779
 4739POPC   GL261190  29.430  29.042   5.735
 4739POPC   C1A61191  29.074  28.979   6.202
 4739POPC   D2A61192  29.059  29.142   6.605
 4739POPC   C3A61193  29.046  28.946   6.932
 4739POPC   C4A61194  29.086  29.108   7.324
 4739POPC   C1B61195  29.481  29.284   6.131
 4739POPC   C2B61196  29.586  29.241   6.588
 4739POPC   C3B61197  29.494  29.159   7.045
 4739POPC   C4B61198  29.543  29.094   7.553
 4740POPC   NC361199  39.298  41.760   5.482
 4740POPC   PO461200  39.595  41.181   5.278
 4740POPC   GL161201  39.273  41.312   5.700
 4740POPC   GL261202  38.950  41.106   5.722
 4740POPC   C1A61203  39.211  41.588   6.131
 4740POPC   D2A61204  38.930  41.692   6.510
 4740POPC   C3A61205  39.101  41.614   6.932
 4740POPC   C4A61206  39.362  41.873   7.188
 4740POPC   C1B61207  38.945  41.163   6.178
 4740POPC   C2B61208  39.223  41.232   6.555
 4740POPC   C3B61209  39.295  41.130   6.995
 4740POPC   C4B61210  39.093  41.275   7.353
 4741POPC   NC361211  39.140  15.187   5.201
 4741POPC   PO461212  39.583  15.554   5.501
 4741POPC   GL161213  39.314  15.483   5.830
 4741POPC   GL261214  39.027  15.292   5.701
 4741POPC   C1A61215  39.372  15.346   6.239
 4741POPC   D2A61216  39.632  15.374   6.581
 4741POPC   C3A61217  39.417  15.151   6.869
 4741POPC   C4A61218  39.592  15.121   7.219
 4741POPC   C1B61219  38.956  15.045   6.090
 4741POPC   C2B61220  38.978  15.070   6.538
 4741POPC   C3B61221  38.843  15.169   6.958
 4741POPC   C4B61222  39.091  15.036   7.295
 4742POPC   NC361223  14.050   8.704   5.376
 4742POPC   PO461224  14.630   9.133   5.322
 4742POPC   GL161225  14.679   8.942   5.706
 4742POPC   GL261226  14.320   8.888   5.778
 4742POPC   C1A61227  14.655   9.088   6.141
 4742POPC   D2A61228  14.356   8.918   6.466
 4742POPC   C3A61229  14.493   8.981   6.881
 4742POPC   C4A61230  14.593   9.331   7.138
 4742POPC   C1B61231  14.521   8.599   6.084
 4742POPC   C2B61232  14.437   8.395   6.497
 4742POPC   C3B61233  14.165   8.564   6.810
 4742POPC   C4B61234  14.165   8.849   7.220
 4743POPC   NC361235  23.123   2.720   5.384
 4743POPC   PO461236  22.463   2.599   5.357
 4743POPC   GL161237  22.707   2.607   5.761
 4743POPC   GL261238  22.843   2.943   5.829
 4743POPC   C1A61239  22.964   2.592   6.168
 4743POPC   D2A61240  22.924   2.426   6.569
 4743POPC   C3A61241  22.973   2.748   6.870
 4743POPC   C4A61242  22.843   2.759   7.297
 4743POPC   C1B61243  22.947   3.100   6.284
 4743POPC   C2B61244  22.846   3.265   6.729
 4743POPC   C3B61245  22.675   3.254   7.181
 4743POPC   C4B61246  22.742   3.119   7.634
 4744POPC   NC361247   0.709   4.414   5.201
 4744POPC   PO461248   1.292   4.248   5.337
 4744POPC   GL161249   0.984   4.319   5.656
 4744POPC   GL261250   0.894   4.014   5.884
 4744POPC   C1A61251   1.063   4.463   6.073
 4744POPC   D2A61252   1.006   4.560   6.507
 4744POPC   C3A61253   1.393   4.433   6.726
 4744POPC   C4A61254   1.514   4.532   7.142
 4744POPC   C1B61255   0.757   4.123   6.310
 4744POPC   C2B61256   0.952   4.094   6.700
 4744POPC   C3B61257   1.053   4.303   7.075
 4744POPC   C4B61258   1.069   4.462   7.491
 4745POPC   NC361259   9.535  33.511   5.381
 4745POPC   PO461260   9.788  34.092   5.478
 4745POPC   GL161261   9.528  33.901   5.783
 4745POPC   GL261262   9.755  33.638   5.849
 4745POPC   C1A61263   9.350  33.708   6.167
 4745POPC   D2A61264   9.151  33.707   6.576
 4745POPC   C3A61265   9.432  33.816   6.908
 4745POPC   C4A61266   9.561  33.649   7.290
 4745POPC   C1B61267  10.058  33.657   6.191
 4745POPC   C2B61268  10.181  33.764   6.612
 4745POPC   C3B61269   9.963  33.707   6.971
 4745POPC   C4B61270  10.081  33.691   7.394
 4746POPC   NC361271  25.885  27.517   5.079
 4746POPC   PO461272  26.394  27.318   5.544
 4746POPC   GL161273  26.205  27.396   5.907
 4746POPC   GL261274  26.228  27.753   5.927
 4746POPC   C1A61275  26.058  27.505   6.328
 4746POPC   D2A61276  25.907  27.560   6.738
 4746POPC   C3A61277  25.879  27.278   7.007
 4746POPC   C4A61278  25.997  27.255   7.439
 4746POPC   C1B61279  26.380  28.009   6.286
 4746POPC   C2B61280  26.502  28.144   6.699
 4746POPC   C3B61281  26.409  27.962   7.105
 4746POPC   C4B61282  26.026  27.726   7.223
 4747POPC   NC361283  35.180  43.511   5.331
 4747POPC   PO461284  35.795  43.303   5.351
 4747POPC   GL161285  35.465  43.226   5.627
 4747POPC   GL261286  35.488  42.886   5.718
 4747POPC   C1A61287  35.404  43.330   6.070
 4747POPC   D2A61288  35.547  43.293   6.522
 4747POPC   C3A61289  35.270  43.076   6.822
 4747POPC   C4A61290  35.251  43.116   7.260
 4747POPC   C1B61291  35.564  42.874   6.199
 4747POPC   C2B61292  35.681  42.808   6.651
 4747POPC   C3B61293  35.613  42.698   7.093
 4747POPC   C4B61294  35.526  42.750   7.540
 4748POPC   NC361295  25.467  12.457   5.439
 4748POPC   PO461296  25.217  11.860   5.186
 4748POPC   GL161297  25.306  12.012   5.637
 4748POPC   GL261298  25.657  11.910   5.699
 4748POPC   C1A61299  25.340  12.218   6.069
 4748POPC   D2A61300  25.148  12.349   6.479
 4748POPC   C3A61301  25.005  12.065   6.848
 4748POPC   C4A61302  25.008  12.189   7.311
 4748POPC   C1B61303  25.503  11.703   6.070
 4748POPC   C2B61304  25.405  11.877   6.473
 4748POPC   C3B61305  25.491  12.167   6.815
 4748POPC   C4B61306  25.426  11.921   7.197
 4749POPC   NC361307  15.261  37.986   5.405
 4749POPC   PO461308  14.834  37.382   5.431
 4749POPC   GL161309  15.198  37.516   5.754
 4749POPC   GL261310  15.311  37.857   5.892
 4749POPC   C1A61311  15.432  37.393   6.155
 4749POPC   D2A61312  15.312  37.410   6.608
 4749POPC   C3A61313  15.055  37.649   6.892
 4749POPC   C4A61314  15.119  37.692   7.319
 4749POPC   C1B61315  15.226  37.843   6.329
 4749POPC   C2B61316  15.219  38.078   6.712
 4749POPC   C3B61317  15.413  38.043   7.125
 4749POPC   C4B61318  15.372  38.015   7.617
 4750POPC   NC361319  30.435  20.201   5.361
 4750POPC   PO461320  30.933  19.878   5.512
 4750POPC   GL161321  30.917  20.136   5.825
 4750POPC   GL261322  30.564  20.210   5.851
 4750POPC   C1A61323  30.957  19.853   6.178
 4750POPC   D2A61324  30.843  19.847   6.592
 4750POPC   C3A61325  30.829  19.586   6.900
 4750POPC   C4A61326  30.785  19.931   7.142
 4750POPC   C1B61327  30.489  20.054   6.259
 4750POPC   C2B61328  30.324  19.752   6.562
 4750POPC   C3B61329  30.340  19.707   7.001
 4750POPC   C4B61330  30.326  19.933   7.386
 4751POPC   NC361331   9.078   8.496   5.452
 4751POPC   PO461332   8.818   7.909   5.658
 4751POPC   GL161333   8.937   8.291   5.879
 4751POPC   GL261334   8.623   8.373   5.893
 4751POPC   C1A61335   8.944   8.503   6.279
 4751POPC   D2A61336   9.172   8.155   6.448
 4751POPC   C3A61337   9.154   8.015   6.858
 4751POPC   C4A61338   9.295   8.257   7.168
 4751POPC   C1B61339   8.709   8.039   6.272
 4751POPC   C2B61340   8.633   8.035   6.711
 4751POPC   C3B61341   8.770   8.303   7.046
 4751POPC   C4B61342   8.824   8.321   7.484
 4752POPC   NC361343  38.004  13.855   5.189
 4752POPC   PO461344  37.405  13.567   5.362
 4752POPC   GL161345  37.558  13.633   5.785
 4752POPC   GL261346  37.674  13.344   5.846
 4752POPC   C1A61347  37.526  13.790   6.210
 4752POPC   D2A61348  37.771  13.867   6.585
 4752POPC   C3A61349  37.545  13.741   6.951
 4752POPC   C4A61350  37.532  13.904   7.365
 4752POPC   C1B61351  37.502  13.238   6.223
 4752POPC   C2B61352  37.706  13.360   6.601
 4752POPC   C3B61353  37.940  13.413   6.972
 4752POPC   C4B61354  37.709  13.392   7.355
 4753POPC   NC361355  15.573  26.091   5.336
 4753POPC   PO461356  15.301  25.563   5.405
 4753POPC   GL161357  15.286  25.946   5.746
 4753POPC   GL261358  15.015  26.234   5.797
 4753POPC   C1A61359  15.248  26.020   6.217
 4753POPC   D2A61360  14.916  25.871   6.531
 4753POPC   C3A61361  15.023  25.957   6.948
 4753POPC   C4A61362  15.365  26.171   7.182
 4753POPC   C1B61363  14.814  26.283   6.218
 4753POPC   C2B61364  15.041  26.355   6.612
 4753POPC   C3B61365  14.922  26.448   7.022
 4753POPC   C4B61366  14.931  26.279   7.412
 4754POPC   NC361367  35.272  10.274   5.322
 4754POPC   PO461368  35.056  10.864   5.656
 4754POPC   GL161369  35.172  10.612   5.957
 4754POPC   GL261370  35.430  10.398   5.849
 4754POPC   C1A61371  35.202  10.503   6.374
 4754POPC   D2A61372  35.536  10.294   6.574
 4754POPC   C3A61373  35.450  10.220   6.977
 4754POPC   C4A61374  35.282  10.503   7.259
 4754POPC   C1B61375  35.654  10.666   6.181
 4754POPC   C2B61376  35.829  10.717   6.581
 4754POPC   C3B61377  35.713  10.660   7.001
 4754POPC   C4B61378  35.776  10.567   7.420
 4755POPC   NC361379  18.640   6.015   5.465
 4755POPC   PO461380  19.214   5.691   5.163
 4755POPC   GL161381  19.251   5.783   5.634
 4755POPC   GL261382  18.915   5.743   5.812
 4755POPC   C1A61383  19.353   5.905   6.079
 4755POPC   D2A61384  19.060   5.850   6.440
 4755POPC   C3A61385  19.197   5.846   6.875
 4755POPC   C4A61386  19.100   6.133   7.204
 4755POPC   C1B61387  18.633   5.580   6.160
 4755POPC   C2B61388  18.603   5.635   6.607
 4755POPC   C3B61389  18.760   5.620   7.021
 4755POPC   C4B61390  18.741   5.361   7.363
 4756POPC   NC361391  21.523  22.106   5.482
 4756POPC   PO461392  22.117  21.912   5.565
 4756POPC   GL161393  22.119  22.298   5.764
 4756POPC   GL261394  22.454  22.430   5.676
 4756POPC   C1A61395  21.933  22.313   6.170
 4756POPC   D2A61396  22.041  22.137   6.570
 4756POPC   C3A61397  22.057  22.297   6.972
 4756POPC   C4A61398  22.325  21.996   7.088
 4756POPC   C1B61399  22.410  22.560   6.118
 4756POPC   C2B61400  22.434  22.462   6.538
 4756POPC   C3B61401  22.371  22.682   6.896
 4756POPC   C4B61402  22.468  22.500   7.266
 4757POPC   NC361403   6.592  28.795   5.604
 4757POPC   PO461404   6.203  29.195   5.258
 4757POPC   GL161405   6.595  29.299   5.683
 4757POPC   GL261406   6.625  29.033   6.039
 4757POPC   C1A61407   6.933  29.416   6.032
 4757POPC   D2A61408   7.030  29.198   6.419
 4757POPC   C3A61409   7.016  29.251   6.899
 4757POPC   C4A61410   6.618  29.263   7.122
 4757POPC   C1B61411   6.415  28.613   6.231
 4757POPC   C2B61412   6.155  28.607   6.607
 4757POPC   C3B61413   6.376  28.826   6.927
 4757POPC   C4B61414   6.441  28.740   7.358
 4758POPC   NC361415   2.456   6.581   5.516
 4758POPC   PO461416   3.039   6.364   5.425
 4758POPC   GL161417   2.873   6.581   5.827
 4758POPC   GL261418   2.516   6.743   5.987
 4758POPC   C1A61419   2.809   6.406   6.219
 4758POPC   D2A61420   2.652   6.670   6.526
 4758POPC   C3A61421   2.686   6.603   6.963
 4758POPC   C4A61422   2.672   6.807   7.333
 4758POPC   C1B61423   2.306   6.386   6.206
 4758POPC   C2B61424   2.380   6.229   6.610
 4758POPC   C3B61425   2.234   6.351   7.005
 4758POPC   C4B61426   2.445   6.300   7.366
 4759POPC   NC361427   1.450   1.851   5.356
 4759POPC   PO461428   0.823   1.693   5.642
 4759POPC   GL161429   1.207   1.840   5.822
 4759POPC   GL261430   1.463   2.112   5.803
 4759POPC   C1A61431   1.196   1.923   6.250
 4759POPC   D2A61432   1.184   1.712   6.636
 4759POPC   C3A61433   1.213   1.948   6.997
 4759POPC   C4A61434   0.960   2.138   7.277
 4759POPC   C1B61435   1.641   2.168   6.192
 4759POPC   C2B61436   1.467   2.207   6.587
 4759POPC   C3B61437   1.645   2.256   6.944
 4759POPC   C4B61438   1.456   2.303   7.301
 4760POPC   NC361439  18.992  42.750   5.133
 4760POPC   PO461440  18.617  43.258   5.464
 4760POPC   GL161441  18.266  43.258   5.792
 4760POPC   GL261442  18.186  42.918   5.846
 4760POPC   C1A61443  18.067  43.218   6.227
 4760POPC   D2A61444  18.097  42.872   6.542
 4760POPC   C3A61445  17.956  42.922   6.951
 4760POPC   C4A61446  18.031  43.128   7.329
 4760POPC   C1B61447  18.511  42.959   6.181
 4760POPC   C2B61448  18.595  42.816   6.593
 4760POPC   C3B61449  18.465  42.961   7.006
 4760POPC   C4B61450  18.686  42.910   7.396
 4761POPC   NC361451  42.011  24.156   5.617
 4761POPC   PO461452  42.586  24.449   5.428
 4761POPC   GL161453  42.344  24.509   5.805
 4761POPC   GL261454  42.028  24.661   5.681
 4761POPC   C1A61455  42.345  24.332   6.252
 4761POPC   D2A61456  42.258  24.105   6.640
 4761POPC   C3A61457  42.565  24.099   6.924
 4761POPC   C4A61458  42.589  24.491   7.097
 4761POPC   C1B61459  41.934  24.570   6.106
 4761POPC   C2B61460  41.981  24.692   6.546
 4761POPC   C3B61461  42.069  24.493   6.937
 4761POPC   C4B61462  42.149  24.193   7.245
 4762POPC   NC361463  41.043  14.804   5.284
 4762POPC   PO461464  41.548  15.306   5.338
 4762POPC   GL161465  41.642  15.315   5.804
 4762POPC   GL261466  41.590  15.639   5.852
 4762POPC   C1A61467  41.484  15.064   6.201
 4762POPC   D2A61468  41.089  15.142   6.454
 4762POPC   C3A61469  41.175  15.095   6.904
 4762POPC   C4A61470  41.602  15.092   7.111
 4762POPC   C1B61471  41.430  15.560   6.254
 4762POPC   C2B61472  41.532  15.395   6.661
 4762POPC   C3B61473  41.643  15.595   7.058
 4762POPC   C4B61474  41.859  15.464   7.446
 4763POPC   NC361475   9.417  21.380   5.445
 4763POPC   PO461476  10.083  21.664   5.429
 4763POPC   GL161477   9.993  21.625   5.870
 4763POPC   GL261478   9.657  21.492   5.886
 4763POPC   C1A61479   9.942  21.411   6.282
 4763POPC   D2A61480   9.597  21.503   6.540
 4763POPC   C3A61481   9.710  21.627   6.928
 4763POPC   C4A61482   9.855  21.301   7.150
 4763POPC   C1B61483   9.471  21.146   6.150
 4763POPC   C2B61484   9.298  21.080   6.565
 4763POPC   C3B61485   9.462  20.953   6.948
 4763POPC   C4B61486   9.418  21.107   7.326
 4764POPC   NC361487   0.558  29.312   5.424
 4764POPC   PO461488  44.974  29.583   5.421
 4764POPC   GL161489   0.091  29.269   5.759
 4764POPC   GL261490   0.385  29.009   5.792
 4764POPC   C1A61491   0.282  29.322   6.182
 4764POPC   D2A61492   0.245  29.579   6.528
 4764POPC   C3A61493   0.363  29.363   6.881
 4764POPC   C4A61494   0.293  29.142   7.210
 4764POPC   C1B61495   0.729  29.058   6.136
 4764POPC   C2B61496   0.737  29.233   6.561
 4764POPC   C3B61497   0.792  29.107   7.015
 4764POPC   C4B61498   0.908  28.694   7.204
 4765POPC   NC361499  17.563   3.169   5.547
 4765POPC   PO461500  17.521   3.800   5.312
 4765POPC   GL161501  17.647   3.713   5.764
 4765POPC   GL261502  17.768   3.400   5.934
 4765POPC   C1A61503  17.671   3.868   6.195
 4765POPC   D2A61504  17.637   3.592   6.548
 4765POPC   C3A61505  17.684   3.675   6.982
 4765POPC   C4A61506  17.837   3.332   7.232
 4765POPC   C1B61507  17.341   3.469   6.130
 4765POPC   C2B61508  17.144   3.686   6.491
 4765POPC   C3B61509  17.194   3.505   6.908
 4765POPC   C4B61510  17.345   3.558   7.348
 4766POPC   NC361511  27.698   6.481   5.465
 4766POPC   PO461512  27.802   7.190   5.498
 4766POPC   GL161513  27.645   6.917   5.843
 4766POPC   GL261514  27.477   6.601   5.901
 4766POPC   C1A61515  27.523   6.944   6.276
 4766POPC   D2A61516  27.677   6.697   6.597
 4766POPC   C3A61517  27.478   6.604   7.008
 4766POPC   C4A61518  27.485   6.809   7.438
 4766POPC   C1B61519  27.811   6.419   6.158
 4766POPC   C2B61520  27.999   6.296   6.564
 4766POPC   C3B61521  27.823   6.152   6.948
 4766POPC   C4B61522  27.639   6.265   7.352
 4767POPC   NC361523  22.738   0.182   5.384
 4767POPC   PO461524  23.156   0.777   5.348
 4767POPC   GL161525  22.902   0.760   5.703
 4767POPC   GL261526  22.938   0.412   5.780
 4767POPC   C1A61527  22.882   0.756   6.155
 4767POPC   D2A61528  22.688   0.636   6.531
 4767POPC   C3A61529  22.915   0.607   6.895
 4767POPC   C4A61530  22.764   0.668   7.283
 4767POPC   C1B61531  22.759   0.231   6.163
 4767POPC   C2B61532  22.875   0.149   6.599
 4767POPC   C3B61533  22.648   0.184   6.977
 4767POPC   C4B61534  22.947   0.170   7.270
 4768POPC   NC361535   0.086   1.460   5.553
 4768POPC   PO461536  44.551   1.163   5.184
 4768POPC   GL161537  44.524   1.243   5.604
 4768POPC   GL261538  44.637   0.992   5.770
 4768POPC   C1A61539  44.349   1.287   6.068
 4768POPC   D2A61540  44.336   1.484   6.468
 4768POPC   C3A61541  44.353   1.223   6.852
 4768POPC   C4A61542  44.392   1.387   7.248
 4768POPC   C1B61543  44.790   1.042   6.211
 4768POPC   C2B61544  44.810   1.093   6.658
 4768POPC   C3B61545  44.867   1.309   7.030
 4768POPC   C4B61546   0.189   1.599   7.025
 4769POPC   NC361547  26.723   0.869   5.509
 4769POPC   PO461548  26.943   0.340   5.497
 4769POPC   GL161549  26.864   0.514   5.848
 4769POPC   GL261550  26.774   0.200   5.975
 4769POPC   C1A61551  26.786   0.794   6.185
 4769POPC   D2A61552  26.935   0.771   6.574
 4769POPC   C3A61553  26.666   0.585   6.893
 4769POPC   C4A61554  26.519   0.395   7.245
 4769POPC   C1B61555  27.100   0.395   6.278
 4769POPC   C2B61556  27.039   0.281   6.708
 4769POPC   C3B61557  27.099   0.406   7.119
 4769POPC   C4B61558  26.926   0.254   7.520
 4770POPC   NC361559  30.896  34.411   5.121
 4770POPC   PO461560  30.443  34.724   5.537
 4770POPC   GL161561  30.765  34.690   5.786
 4770POPC   GL261562  30.732  34.336   5.776
 4770POPC   C1A61563  30.753  34.617   6.212
 4770POPC   D2A61564  30.463  34.760   6.523
 4770POPC   C3A61565  30.673  34.734   6.910
 4770POPC   C4A61566  30.711  34.582   7.306
 4770POPC   C1B61567  30.545  34.153   6.171
 4770POPC   C2B61568  30.672  34.277   6.615
 4770POPC   C3B61569  30.648  34.151   7.055
 4770POPC   C4B61570  30.918  34.112   7.450
 4771POPC   NC361571  10.220  32.081   5.659
 4771POPC   PO461572  10.583  32.443   5.150
 4771POPC   GL161573  10.610  32.427   5.646
 4771POPC   GL261574  10.669  32.098   5.852
 4771POPC   C1A61575  10.484  32.532   6.107
 4771POPC   D2A61576  10.278  32.435   6.517
 4771POPC   C3A61577  10.475  32.565   6.901
 4771POPC   C4A61578  10.480  32.551   7.343
 4771POPC   C1B61579  10.594  31.947   6.280
 4771POPC   C2B61580  10.673  32.109   6.696
 4771POPC   C3B61581  10.537  32.080   7.138
 4771POPC   C4B61582  10.660  32.150   7.588
 4772POPC   NC361583  28.408  43.710   5.469
 4772POPC   PO461584  28.101  44.332   5.417
 4772POPC   GL161585  28.109  44.075   5.733
 4772POPC   GL261586  28.448  44.127   5.749
 4772POPC   C1A61587  28.127  43.924   6.151
 4772POPC   D2A61588  28.367  43.705   6.471
 4772POPC   C3A61589  28.246  43.869   6.863
 4772POPC   C4A61590  28.394  43.824   7.246
 4772POPC   C1B61591  28.621  44.110   6.136
 4772POPC   C2B61592  28.463  44.208   6.541
 4772POPC   C3B61593  28.666  44.158   6.966
 4772POPC   C4B61594  28.664  44.250   7.408
 4773POPC   NC361595  23.558   4.579   5.510
 4773POPC   PO461596  24.201   4.469   5.453
 4773POPC   GL161597  23.964   4.536   5.836
 4773POPC   GL261598  23.780   4.208   5.812
 4773POPC   C1A61599  23.660   4.544   6.210
 4773POPC   D2A61600  23.480   4.358   6.617
 4773POPC   C3A61601  23.739   4.524   6.960
 4773POPC   C4A61602  24.153   4.692   6.902
 4773POPC   C1B61603  24.052   4.152   6.193
 4773POPC   C2B61604  24.010   4.219   6.647
 4773POPC   C3B61605  23.920   4.070   7.076
 4773POPC   C4B61606  23.471   4.136   7.189
 4774POPC   NC361607  22.668  40.844   5.333
 4774POPC   PO461608  22.098  40.612   5.390
 4774POPC   GL161609  22.269  40.667   5.800
 4774POPC   GL261610  22.464  40.382   5.789
 4774POPC   C1A61611  22.142  40.905   6.226
 4774POPC   D2A61612  21.913  40.928   6.646
 4774POPC   C3A61613  22.077  40.987   7.079
 4774POPC   C4A61614  22.280  40.717   7.379
 4774POPC   C1B61615  22.579  40.623   6.194
 4774POPC   C2B61616  22.626  40.931   6.517
 4774POPC   C3B61617  22.525  40.752   6.909
 4774POPC   C4B61618  22.600  40.352   7.130
 4775POPC   NC361619  44.546   6.174   5.389
 4775POPC   PO461620  44.625   5.521   5.297
 4775POPC   GL161621  44.543   5.780   5.717
 4775POPC   GL261622  44.809   6.051   5.819
 4775POPC   C1A61623  44.320   5.769   6.132
 4775POPC   D2A61624  44.178   5.591   6.549
 4775POPC   C3A61625  44.447   5.772   6.880
 4775POPC   C4A61626  44.564   5.670   7.285
 4775POPC   C1B61627  44.863   5.726   6.161
 4775POPC   C2B61628  44.922   5.825   6.609
 4775POPC   C3B61629   0.018   5.668   7.014
 4775POPC   C4B61630   0.007   5.475   7.423
 4776POPC   NC361631  36.391   2.292   5.472
 4776POPC   PO461632  36.045   2.817   5.187
 4776POPC   GL161633  36.001   2.877   5.668
 4776POPC   GL261634  36.027   2.548   5.819
 4776POPC   C1A61635  35.906   2.960   6.150
 4776POPC   D2A61636  35.999   2.873   6.626
 4776POPC   C3A61637  35.868   2.854   7.089
 4776POPC   C4A61638  36.020   3.006   7.508
 4776POPC   C1B61639  36.219   2.547   6.245
 4776POPC   C2B61640  36.406   2.534   6.660
 4776POPC   C3B61641  36.344   2.698   7.051
 4776POPC   C4B61642  36.124   2.525   7.405
 4777POPC   NC361643  44.785  44.033   5.366
 4777POPC   PO461644  44.275  43.643   5.363
 4777POPC   GL161645  44.510  43.734   5.753
 4777POPC   GL261646  44.876  43.652   5.715
 4777POPC   C1A61647  44.523  43.753   6.216
 4777POPC   D2A61648  44.532  43.503   6.577
 4777POPC   C3A61649  44.689  43.791   6.866
 4777POPC   C4A61650  44.547  43.824   7.260
 4777POPC   C1B61651  44.908  44.003   6.009
 4777POPC   C2B61652  44.849  44.129   6.432
 4777POPC   C3B61653  44.822  44.304   6.837
 4777POPC   C4B61654  44.851  44.220   7.242
 4778POPC   NC361655   4.984  32.600   5.624
 4778POPC   PO461656   4.720  33.279   5.462
 4778POPC   GL161657   5.139  33.291   5.723
 4778POPC   GL261658   5.279  32.972   5.810
 4778POPC   C1A61659   5.408  33.334   6.131
 4778POPC   D2A61660   5.589  33.328   6.536
 4778POPC   C3A61661   5.358  33.474   6.854
 4778POPC   C4A61662   5.054  33.327   7.144
 4778POPC   C1B61663   5.115  32.935   6.250
 4778POPC   C2B61664   5.241  32.943   6.689
 4778POPC   C3B61665   5.188  32.817   7.115
 4778POPC   C4B61666   5.009  32.956   7.510
 4779POPC   NC361667  11.926  41.281   5.348
 4779POPC   PO461668  11.842  41.844   5.049
 4779POPC   GL161669  12.029  41.789   5.507
 4779POPC   GL261670  11.799  41.611   5.746
 4779POPC   C1A61671  12.270  41.625   5.920
 4779POPC   D2A61672  12.221  41.517   6.383
 4779POPC   C3A61673  12.308  41.439   6.838
 4779POPC   C4A61674  12.278  41.687   7.226
 4779POPC   C1B61675  11.947  41.243   6.038
 4779POPC   C2B61676  11.934  41.114   6.504
 4779POPC   C3B61677  11.822  41.302   6.898
 4779POPC   C4B61678  11.983  41.243   7.317
 4780POPC   NC361679  12.783  37.127   5.161
 4780POPC   PO461680  12.769  36.673   5.669
 4780POPC   GL161681  13.018  36.937   5.865
 4780POPC   GL261682  12.895  37.254   5.792
 4780POPC   C1A61683  13.115  37.138   6.249
 4780POPC   D2A61684  13.231  37.321   6.599
 4780POPC   C3A61685  13.025  37.095   6.867
 4780POPC   C4A61686  13.003  37.215   7.225
 4780POPC   C1B61687  12.612  37.103   6.161
 4780POPC   C2B61688  12.724  36.872   6.523
 4780POPC   C3B61689  12.608  36.766   6.960
 4780POPC   C4B61690  12.639  36.924   7.376
 4781POPC   NC361691  12.800  34.816   4.815
 4781POPC   PO461692  12.573  34.341   5.217
 4781POPC   GL161693  12.791  34.562   5.563
 4781POPC   GL261694  12.525  34.507   5.781
 4781POPC   C1A61695  12.995  34.485   6.028
 4781POPC   D2A61696  13.023  34.641   6.500
 4781POPC   C3A61697  13.091  34.452   6.953
 4781POPC   C4A61698  12.959  34.675   7.363
 4781POPC   C1B61699  12.531  34.590   6.209
 4781POPC   C2B61700  12.593  34.357   6.597
 4781POPC   C3B61701  12.611  34.602   6.964
 4781POPC   C4B61702  12.426  34.603   7.358
 4782POPC   NC361703  18.817  25.564   5.567
 4782POPC   PO461704  19.070  25.031   5.449
 4782POPC   GL161705  19.179  25.196   5.847
 4782POPC   GL261706  19.467  24.979   5.856
 4782POPC   C1A61707  18.956  25.440   6.202
 4782POPC   D2A61708  19.065  25.705   6.548
 4782POPC   C3A61709  18.977  25.531   6.942
 4782POPC   C4A61710  19.065  25.475   7.372
 4782POPC   C1B61711  19.343  24.908   6.265
 4782POPC   C2B61712  19.159  25.144   6.614
 4782POPC   C3B61713  19.208  25.078   7.065
 4782POPC   C4B61714  19.385  25.071   7.514
 4783POPC   NC361715  44.538   3.430   5.606
 4783POPC   PO461716  43.953   3.562   5.309
 4783POPC   GL161717  43.983   3.382   5.776
 4783POPC   GL261718  44.157   3.654   5.859
 4783POPC   C1A61719  44.123   3.368   6.300
 4783POPC   D2A61720  44.170   3.321   6.806
 4783POPC   C3A61721  43.804   3.311   7.153
 4783POPC   C4A61722  43.650   3.099   7.580
 4783POPC   C1B61723  43.817   3.757   6.161
 4783POPC   C2B61724  43.785   3.680   6.615
 4783POPC   C3B61725  44.013   3.764   7.010
 4783POPC   C4B61726  43.942   3.746   7.432
 4784POPC   NC361727  37.368  15.666   5.612
 4784POPC   PO461728  37.821  15.928   5.126
 4784POPC   GL161729  37.751  16.007   5.678
 4784POPC   GL261730  37.855  15.712   5.890
 4784POPC   C1A61731  37.701  16.078   6.193
 4784POPC   D2A61732  37.872  16.286   6.578
 4784POPC   C3A61733  37.827  16.168   7.018
 4784POPC   C4A61734  37.458  15.975   7.177
 4784POPC   C1B61735  37.828  15.609   6.342
 4784POPC   C2B61736  37.666  15.792   6.715
 4784POPC   C3B61737  37.807  15.634   7.127
 4784POPC   C4B61738  37.606  15.600   7.539
 4785POPC   NC361739   9.947  22.111   5.351
 4785POPC   PO461740   9.288  21.865   5.374
 4785POPC   GL161741   9.571  21.979   5.698
 4785POPC   GL261742   9.325  22.187   5.819
 4785POPC   C1A61743   9.872  22.101   6.038
 4785POPC   D2A61744  10.023  21.897   6.422
 4785POPC   C3A61745  10.099  22.133   6.794
 4785POPC   C4A61746   9.934  22.074   7.205
 4785POPC   C1B61747   9.455  22.396   6.153
 4785POPC   C2B61748   9.686  22.292   6.505
 4785POPC   C3B61749   9.551  22.118   6.876
 4785POPC   C4B61750   9.381  22.245   7.244
 4786POPC   NC361751  43.783   2.772   5.328
 4786POPC   PO461752  44.270   2.589   5.651
 4786POPC   GL161753  43.845   2.548   5.812
 4786POPC   GL261754  43.748   2.889   5.875
 4786POPC   C1A61755  43.786   2.504   6.257
 4786POPC   D2A61756  44.100   2.451   6.582
 4786POPC   C3A61757  44.063   2.797   6.849
 4786POPC   C4A61758  44.002   2.859   7.288
 4786POPC   C1B61759  43.638   3.205   6.193
 4786POPC   C2B61760  43.703   3.155   6.653
 4786POPC   C3B61761  43.578   2.892   6.994
 4786POPC   C4B61762  43.724   2.462   7.100
 4787POPC   NC361763  41.506  23.775   5.219
 4787POPC   PO461764  41.477  23.228   5.525
 4787POPC   GL161765  41.540  23.445   5.903
 4787POPC   GL261766  41.691  23.749   5.755
 4787POPC   C1A61767  41.638  23.566   6.327
 4787POPC   D2A61768  41.667  23.370   6.735
 4787POPC   C3A61769  41.467  23.460   7.103
 4787POPC   C4A61770  41.853  23.386   7.350
 4787POPC   C1B61771  41.609  24.035   6.113
 4787POPC   C2B61772  41.772  24.224   6.474
 4787POPC   C3B61773  41.805  24.040   6.869
 4787POPC   C4B61774  41.731  23.864   7.261
 4788POPC   NC361775  15.228  15.894   5.348
 4788POPC   PO461776  14.728  15.596   5.546
 4788POPC   GL161777  15.044  15.877   5.899
 4788POPC   GL261778  15.367  16.090   5.839
 4788POPC   C1A61779  15.074  16.046   6.376
 4788POPC   D2A61780  15.297  16.105   6.806
 4788POPC   C3A61781  15.031  16.062   7.197
 4788POPC   C4A61782  15.117  16.043   7.666
 4788POPC   C1B61783  15.559  15.996   6.263
 4788POPC   C2B61784  15.449  15.661   6.598
 4788POPC   C3B61785  15.319  15.644   7.048
 4788POPC   C4B61786  15.513  15.907   7.359
 4789POPC   NC361787   3.126  11.552   5.641
 4789POPC   PO461788   2.758  11.021   5.332
 4789POPC   GL161789   2.803  11.164   5.816
 4789POPC   GL261790   3.139  11.143   5.957
 4789POPC   C1A61791   2.735  11.369   6.217
 4789POPC   D2A61792   2.832  11.226   6.621
 4789POPC   C3A61793   2.508  11.269   6.910
 4789POPC   C4A61794   2.638  11.433   7.276
 4789POPC   C1B61795   3.263  11.396   6.296
 4789POPC   C2B61796   3.063  11.724   6.512
 4789POPC   C3B61797   2.930  11.685   6.920
 4789POPC   C4B61798   3.144  11.456   7.238
 4790POPC   NC361799  23.213   1.742   5.803
 4790POPC   PO461800  23.258   2.324   5.560
 4790POPC   GL161801  22.960   2.175   5.877
 4790POPC   GL261802  23.255   2.179   6.086
 4790POPC   C1A61803  22.836   1.980   6.314
 4790POPC   D2A61804  22.576   1.888   6.684
 4790POPC   C3A61805  22.740   1.739   7.107
 4790POPC   C4A61806  22.698   1.868   7.561
 4790POPC   C1B61807  23.363   1.914   6.436
 4790POPC   C2B61808  23.079   1.893   6.772
 4790POPC   C3B61809  22.943   2.248   7.058
 4790POPC   C4B61810  23.281   2.514   7.269
 4791POPC   NC361811   1.986  17.151   5.468
 4791POPC   PO461812   1.729  16.547   5.334
 4791POPC   GL161813   1.924  16.708   5.710
 4791POPC   GL261814   1.729  17.003   5.869
 4791POPC   C1A61815   2.162  16.779   6.093
 4791POPC   D2A61816   2.090  16.923   6.507
 4791POPC   C3A61817   2.314  16.727   6.884
 4791POPC   C4A61818   2.073  16.704   7.289
 4791POPC   C1B61819   1.634  16.660   6.137
 4791POPC   C2B61820   1.638  16.554   6.576
 4791POPC   C3B61821   1.796  16.838   6.898
 4791POPC   C4B61822   1.691  17.054   7.288
 4792POPC   NC361823  40.594  25.488   5.390
 4792POPC   PO461824  41.151  25.055   5.238
 4792POPC   GL161825  40.795  25.039   5.616
 4792POPC   GL261826  40.817  25.368   5.826
 4792POPC   C1A61827  40.558  25.023   6.078
 4792POPC   D2A61828  40.593  25.270   6.480
 4792POPC   C3A61829  40.765  25.266   6.943
 4792POPC   C4A61830  41.090  25.196   7.290
 4792POPC   C1B61831  40.382  25.516   6.021
 4792POPC   C2B61832  40.265  25.671   6.425
 4792POPC   C3B61833  40.528  25.701   6.761
 4792POPC   C4B61834  40.351  25.562   7.112
 4793POPC   NC361835  22.238  25.127   5.411
 4793POPC   PO461836  21.794  25.474   5.153
 4793POPC   GL161837  22.122  25.488   5.710
 4793POPC   GL261838  22.320  25.213   5.878
 4793POPC   C1A61839  22.102  25.562   6.172
 4793POPC   D2A61840  22.100  25.751   6.579
 4793POPC   C3A61841  22.265  25.531   6.944
 4793POPC   C4A61842  22.084  25.379   7.320
 4793POPC   C1B61843  22.244  25.057   6.264
 4793POPC   C2B61844  22.428  25.101   6.656
 4793POPC   C3B61845  22.073  25.064   6.910
 4793POPC   C4B61846  21.955  24.802   7.228
 4794POPC   NC361847   7.590  38.821   5.444
 4794POPC   PO461848   7.212  38.202   5.405
 4794POPC   GL161849   7.363  38.229   5.800
 4794POPC   GL261850   7.261  38.587   5.792
 4794POPC   C1A61851   7.434  38.390   6.227
 4794POPC   D2A61852   7.597  38.620   6.538
 4794POPC   C3A61853   7.486  38.438   6.896
 4794POPC   C4A61854   7.605  38.497   7.328
 4794POPC   C1B61855   6.989  38.619   6.163
 4794POPC   C2B61856   7.020  38.471   6.608
 4794POPC   C3B61857   7.049  38.639   7.044
 4794POPC   C4B61858   7.133  38.615   7.468
 4795POPC   NC361859  34.091  24.519   5.337
 4795POPC   PO461860  33.466  24.742   5.331
 4795POPC   GL161861  33.769  24.621   5.725
 4795POPC   GL261862  34.108  24.777   5.789
 4795POPC   C1A61863  33.798  24.363   6.140
 4795POPC   D2A61864  33.675  24.133   6.536
 4795POPC   C3A61865  33.718  24.294   6.957
 4795POPC   C4A61866  33.540  24.660   7.173
 4795POPC   C1B61867  34.215  24.650   6.210
 4795POPC   C2B61868  34.032  24.511   6.619
 4795POPC   C3B61869  34.041  24.700   7.043
 4795POPC   C4B61870  33.815  25.084   7.218
 4796POPC   NC361871   0.932  23.557   5.435
 4796POPC   PO461872   1.393  24.027   5.375
 4796POPC   GL161873   1.114  23.982   5.725
 4796POPC   GL261874   1.443  23.952   5.923
 4796POPC   C1A61875   0.989  24.023   6.148
 4796POPC   D2A61876   1.295  23.874   6.446
 4796POPC   C3A61877   1.205  24.079   6.837
 4796POPC   C4A61878   1.023  23.948   7.215
 4796POPC   C1B61879   1.217  23.561   6.039
 4796POPC   C2B61880   1.175  23.304   6.421
 4796POPC   C3B61881   1.326  23.366   6.856
 4796POPC   C4B61882   1.298  23.485   7.295
 4797POPC   NC361883  24.399   4.010   5.437
 4797POPC   PO461884  24.806   4.442   5.088
 4797POPC   GL161885  24.715   4.395   5.607
 4797POPC   GL261886  24.510   4.681   5.799
 4797POPC   C1A61887  24.576   4.255   6.048
 4797POPC   D2A61888  24.391   4.525   6.371
 4797POPC   C3A61889  24.489   4.338   6.752
 4797POPC   C4A61890  24.397   4.307   7.157
 4797POPC   C1B61891  24.834   4.700   6.106
 4797POPC   C2B61892  24.920   4.547   6.511
 4797POPC   C3B61893  24.835   4.693   6.906
 4797POPC   C4B61894  24.866   4.543   7.287
 4798POPC   NC361895   1.309  37.916   5.654
 4798POPC   PO461896   0.847  37.540   5.282
 4798POPC   GL161897   0.986  37.515   5.721
 4798POPC   GL261898   0.833  37.839   5.835
 4798POPC   C1A61899   1.104  37.533   6.191
 4798POPC   D2A61900   1.026  37.716   6.632
 4798POPC   C3A61901   1.304  37.745   7.023
 4798POPC   C4A61902   1.388  37.488   7.432
 4798POPC   C1B61903   0.982  38.062   6.235
 4798POPC   C2B61904   0.973  38.247   6.681
 4798POPC   C3B61905   0.817  37.978   7.030
 4798POPC   C4B61906   1.005  37.846   7.420
 4799POPC   NC361907  15.723   8.604   5.447
 4799POPC   PO461908  15.064   8.308   5.387
 4799POPC   GL161909  15.080   8.172   5.824
 4799POPC   GL261910  15.199   7.823   5.874
 4799POPC   C1A61911  14.871   8.252   6.213
 4799POPC   D2A61912  14.832   8.018   6.587
 4799POPC   C3A61913  14.907   8.198   6.976
 4799POPC   C4A61914  15.176   8.172   7.349
 4799POPC   C1B61915  15.292   7.991   6.313
 4799POPC   C2B61916  15.335   7.997   6.765
 4799POPC   C3B61917  15.597   8.216   7.056
 4799POPC   C4B61918  15.626   7.954   7.414
 4800POPC   NC361919   6.003  11.466   5.524
 4800POPC   PO461920   5.588  10.933   5.692
 4800POPC   GL161921   5.880  11.148   5.939
 4800POPC   GL261922   6.250  11.162   5.859
 4800POPC   C1A61923   5.805  11.519   6.176
 4800POPC   D2A61924   5.515  11.622   6.507
 4800POPC   C3A61925   5.632  11.375   6.871
 4800POPC   C4A61926   6.007  11.388   7.126
 4800POPC   C1B61927   6.273  11.013   6.300
 4800POPC   C2B61928   6.094  10.944   6.742
 4800POPC   C3B61929   6.263  10.925   7.185
 4800POPC   C4B61930   6.381  10.858   7.609
 4801POPC   NC361931  40.608  39.538   5.592
 4801POPC   PO461932  40.506  39.015   5.200
 4801POPC   GL161933  40.480  39.045   5.686
 4801POPC   GL261934  40.822  39.053   5.759
 4801POPC   C1A61935  40.565  39.230   6.160
 4801POPC   D2A61936  40.895  39.343   6.485
 4801POPC   C3A61937  40.729  39.506   6.890
 4801POPC   C4A61938  40.536  39.267   7.223
 4801POPC   C1B61939  41.000  38.902   6.176
 4801POPC   C2B61940  41.171  38.848   6.607
 4801POPC   C3B61941  40.977  39.084   6.956
 4801POPC   C4B61942  41.108  39.201   7.376
 4802POPC   NC361943  24.435  43.493   5.382
 4802POPC   PO461944  24.651  42.830   5.383
 4802POPC   GL161945  24.605  43.146   5.774
 4802POPC   GL261946  24.304  43.371   5.862
 4802POPC   C1A61947  24.610  43.109   6.258
 4802POPC   D2A61948  24.669  42.984   6.723
 4802POPC   C3A61949  24.394  42.885   7.065
 4802POPC   C4A61950  24.598  43.008   7.427
 4802POPC   C1B61951  24.204  43.644   6.231
 4802POPC   C2B61952  24.116  43.711   6.684
 4802POPC   C3B61953  24.141  43.661   7.137
 4802POPC   C4B61954  24.207  43.327   7.469
 4803POPC   NC361955  21.480  40.647   5.556
 4803POPC   PO461956  20.935  40.956   5.436
 4803POPC   GL161957  21.211  40.938   5.881
 4803POPC   GL261958  21.552  40.764   6.034
 4803POPC   C1A61959  21.124  40.849   6.314
 4803POPC   D2A61960  21.188  40.624   6.704
 4803POPC   C3A61961  21.040  40.778   7.081
 4803POPC   C4A61962  21.279  40.808   7.457
 4803POPC   C1B61963  21.585  41.133   6.278
 4803POPC   C2B61964  21.413  41.100   6.661
 4803POPC   C3B61965  21.554  40.894   7.025
 4803POPC   C4B61966  21.650  41.145   7.361
 4804POPC   NC361967  42.106  28.458   5.380
 4804POPC   PO461968  42.647  28.103   5.368
 4804POPC   GL161969  42.304  28.093   5.734
 4804POPC   GL261970  42.274  28.426   5.858
 4804POPC   C1A61971  42.203  28.091   6.224
 4804POPC   D2A61972  42.413  28.168   6.642
 4804POPC   C3A61973  42.221  28.327   7.025
 4804POPC   C4A61974  42.136  28.218   7.468
 4804POPC   C1B61975  42.515  28.554   6.226
 4804POPC   C2B61976  42.805  28.548   6.596
 4804POPC   C3B61977  42.691  28.685   7.029
 4804POPC   C4B61978  42.294  28.753   7.285
 4805POPC   NC361979  40.574  23.912   5.389
 4805POPC   PO461980  41.106  23.545   5.142
 4805POPC   GL161981  41.133  23.647   5.633
 4805POPC   GL261982  40.814  23.731   5.790
 4805POPC   C1A61983  41.172  23.746   6.137
 4805POPC   D2A61984  41.208  23.602   6.602
 4805POPC   C3A61985  40.999  23.825   6.956
 4805POPC   C4A61986  40.545  23.906   7.060
 4805POPC   C1B61987  40.661  23.575   6.197
 4805POPC   C2B61988  40.680  23.592   6.624
 4805POPC   C3B61989  40.462  23.402   6.956
 4805POPC   C4B61990  40.149  23.547   7.172
 4806POPC   NC361991  27.006  28.631   5.442
 4806POPC   PO461992  26.532  28.206   5.666
 4806POPC   GL161993  26.505  28.595   5.929
 4806POPC   GL261994  26.863  28.688   5.962
 4806POPC   C1A61995  26.582  28.622   6.395
 4806POPC   D2A61996  26.897  28.499   6.724
 4806POPC   C3A61997  26.882  28.192   7.098
 4806POPC   C4A61998  26.710  28.082   7.526
 4806POPC   C1B61999  27.222  28.678   6.290
 4806POPC   C2B62000  27.316  28.768   6.744
 4806POPC   C3B62001  27.264  28.560   7.136
 4806POPC   C4B62002  27.417  28.650   7.555
 4807POPC   NC362003  32.418  37.745   5.097
 4807POPC   PO462004  31.915  37.444   5.515
 4807POPC   GL162005  32.147  37.733   5.753
 4807POPC   GL262006  32.498  37.752   5.671
 4807POPC   C1A62007  32.160  37.760   6.191
 4807POPC   D2A62008  32.221  37.567   6.581
 4807POPC   C3A62009  32.067  37.853   6.913
 4807POPC   C4A62010  32.049  37.582   7.250
 4807POPC   C1B62011  32.624  37.944   6.102
 4807POPC   C2B62012  32.501  37.989   6.561
 4807POPC   C3B62013  32.546  37.707   6.970
 4807POPC   C4B62014  32.524  37.657   7.448
 4808POPC   NC362015   3.024   4.045   5.563
 4808POPC   PO462016   2.645   4.595   5.448
 4808POPC   GL162017   2.700   4.524   5.848
 4808POPC   GL262018   2.559   4.195   5.873
 4808POPC   C1A62019   2.835   4.402   6.256
 4808POPC   D2A62020   2.624   4.261   6.652
 4808POPC   C3A62021   2.929   4.231   6.940
 4808POPC   C4A62022   2.938   4.489   7.235
 4808POPC   C1B62023   2.570   3.956   6.257
 4808POPC   C2B62024   2.447   3.765   6.635
 4808POPC   C3B62025   2.538   3.917   7.046
 4808POPC   C4B62026   2.697   4.101   7.456
 4809POPC   NC362027   4.871  17.093   5.474
 4809POPC   PO462028   4.512  16.564   5.359
 4809POPC   GL162029   4.453  16.836   5.785
 4809POPC   GL262030   4.078  16.912   5.898
 4809POPC   C1A62031   4.435  16.877   6.266
 4809POPC   D2A62032   4.395  16.739   6.728
 4809POPC   C3A62033   4.740  16.887   7.008
 4809POPC   C4A62034   4.883  16.702   7.418
 4809POPC   C1B62035   3.864  16.674   6.280
 4809POPC   C2B62036   3.813  16.544   6.742
 4809POPC   C3B62037   4.132  16.421   7.052
 4809POPC   C4B62038   4.378  16.695   7.286
 4810POPC   NC362039  37.574  16.280   5.287
 4810POPC   PO462040  37.425  16.895   5.472
 4810POPC   GL162041  37.593  16.552   5.752
 4810POPC   GL262042  37.963  16.558   5.732
 4810POPC   C1A62043  37.657  16.581   6.209
 4810POPC   D2A62044  37.769  16.783   6.605
 4810POPC   C3A62045  37.562  16.607   6.995
 4810POPC   C4A62046  37.429  16.408   7.424
 4810POPC   C1B62047  38.165  16.444   6.135
 4810POPC   C2B62048  38.356  16.425   6.568
 4810POPC   C3B62049  38.151  16.621   6.933
 4810POPC   C4B62050  37.898  17.019   7.043
 4811POPC   NC362051   4.939  34.540   5.334
 4811POPC   PO462052   5.624  34.441   5.411
 4811POPC   GL162053   5.268  34.251   5.683
 4811POPC   GL262054   5.001  34.478   5.846
 4811POPC   C1A62055   5.304  34.219   6.175
 4811POPC   D2A62056   5.119  34.225   6.612
 4811POPC   C3A62057   5.340  34.408   6.979
 4811POPC   C4A62058   5.120  34.784   7.093
 4811POPC   C1B62059   4.956  34.777   6.227
 4811POPC   C2B62060   4.861  34.980   6.651
 4811POPC   C3B62061   4.640  34.893   7.026
 4811POPC   C4B62062   4.624  34.563   7.330
 4812POPC   NC362063  29.954  43.358   5.465
 4812POPC   PO462064  30.240  42.720   5.435
 4812POPC   GL162065  30.079  42.973   5.800
 4812POPC   GL262066  29.845  43.249   5.935
 4812POPC   C1A62067  30.001  42.894   6.255
 4812POPC   D2A62068  30.146  42.698   6.624
 4812POPC   C3A62069  29.919  42.849   6.962
 4812POPC   C4A62070  29.945  43.242   7.027
 4812POPC   C1B62071  29.593  43.241   6.269
 4812POPC   C2B62072  29.653  43.163   6.630
 4812POPC   C3B62073  29.448  43.358   6.948
 4812POPC   C4B62074  29.599  43.382   7.357
 4813POPC   NC362075  30.987  31.336   5.258
 4813POPC   PO462076  30.415  31.655   5.556
 4813POPC   GL162077  30.640  31.420   5.759
 4813POPC   GL262078  30.916  31.640   5.746
 4813POPC   C1A62079  30.489  31.275   6.159
 4813POPC   D2A62080  30.646  31.249   6.554
 4813POPC   C3A62081  30.540  31.677   6.694
 4813POPC   C4A62082  30.594  31.890   7.068
 4813POPC   C1B62083  30.974  31.422   6.135
 4813POPC   C2B62084  31.032  31.574   6.550
 4813POPC   C3B62085  30.907  31.439   6.960
 4813POPC   C4B62086  30.982  31.656   7.319
 4814POPC   NC362087  20.794   9.994   5.188
 4814POPC   PO462088  20.529   9.360   5.286
 4814POPC   GL162089  20.490   9.601   5.659
 4814POPC   GL262090  20.790   9.762   5.737
 4814POPC   C1A62091  20.443   9.571   6.110
 4814POPC   D2A62092  20.644   9.508   6.501
 4814POPC   C3A62093  20.393   9.657   6.838
 4814POPC   C4A62094  20.540   9.832   7.203
 4814POPC   C1B62095  20.846   9.919   6.160
 4814POPC   C2B62096  21.079   9.808   6.523
 4814POPC   C3B62097  20.960   9.646   6.931
 4814POPC   C4B62098  21.063   9.952   7.231
 4815POPC   NC362099  21.990  44.105   5.457
 4815POPC   PO462100  22.543  43.826   5.061
 4815POPC   GL162101  22.430  43.898   5.604
 4815POPC   GL262102  22.156  43.725   5.777
 4815POPC   C1A62103  22.350  44.134   6.041
 4815POPC   D2A62104  22.236  44.347   6.448
 4815POPC   C3A62105  22.245  44.051   6.802
 4815POPC   C4A62106  22.362  43.900   7.240
 4815POPC   C1B62107  22.019  43.715   6.213
 4815POPC   C2B62108  21.831  43.393   6.517
 4815POPC   C3B62109  21.688  43.339   6.984
 4815POPC   C4B62110  21.854  43.658   7.330
 4816POPC   NC362111  10.395  35.608   5.345
 4816POPC   PO462112  11.035  35.611   5.443
 4816POPC   GL162113  10.695  35.470   5.732
 4816POPC   GL262114  10.514  35.155   5.680
 4816POPC   C1A62115  10.401  35.441   6.088
 4816POPC   D2A62116  10.501  35.298   6.503
 4816POPC   C3A62117  10.271  35.041   6.795
 4816POPC   C4A62118  10.311  35.249   7.160
 4816POPC   C1B62119  10.667  35.005   6.120
 4816POPC   C2B62120  10.945  35.038   6.502
 4816POPC   C3B62121  10.837  35.219   6.886
 4816POPC   C4B62122  10.804  35.161   7.320
 4817POPC   NC362123   5.482  32.390   5.107
 4817POPC   PO462124   5.095  32.142   5.604
 4817POPC   GL162125   5.125  32.209   6.000
 4817POPC   GL262126   4.765  32.310   6.035
 4817POPC   C1A62127   5.294  31.946   6.333
 4817POPC   D2A62128   5.295  31.891   6.757
 4817POPC   C3A62129   4.889  32.044   6.830
 4817POPC   C4A62130   4.810  32.013   7.286
 4817POPC   C1B62131   4.977  32.450   6.426
 4817POPC   C2B62132   5.315  32.404   6.714
 4817POPC   C3B62133   5.202  32.302   7.119
 4817POPC   C4B62134   4.790  32.473   7.080
 4818POPC   NC362135  40.680  19.567   5.466
 4818POPC   PO462136  41.335  19.643   5.541
 4818POPC   GL162137  40.996  19.855   5.774
 4818POPC   GL262138  40.928  20.191   5.682
 4818POPC   C1A62139  40.677  19.889   6.111
 4818POPC   D2A62140  40.496  19.654   6.493
 4818POPC   C3A62141  40.649  19.865   6.857
 4818POPC   C4A62142  40.910  19.781   7.184
 4818POPC   C1B62143  41.076  20.243   6.114
 4818POPC   C2B62144  40.865  20.201   6.505
 4818POPC   C3B62145  41.071  20.202   6.879
 4818POPC   C4B62146  40.864  20.272   7.233
 4819POPC   NC362147  18.080  30.986   5.318
 4819POPC   PO462148  18.409  31.576   5.360
 4819POPC   GL162149  18.114  31.584   5.713
 4819POPC   GL262150  18.118  31.247   5.762
 4819POPC   C1A62151  18.145  31.633   6.172
 4819POPC   D2A62152  18.295  31.436   6.554
 4819POPC   C3A62153  18.288  31.601   6.953
 4819POPC   C4A62154  18.521  31.356   7.243
 4819POPC   C1B62155  18.162  31.112   6.175
 4819POPC   C2B62156  17.919  31.094   6.544
 4819POPC   C3B62157  18.106  31.121   6.967
 4819POPC   C4B62158  17.976  31.389   7.318
 4820POPC   NC362159  13.957  24.145   5.426
 4820POPC   PO462160  14.476  24.563   5.207
 4820POPC   GL162161  14.560  24.594   5.737
 4820POPC   GL262162  14.201  24.469   5.876
 4820POPC   C1A62163  14.527  24.613   6.218
 4820POPC   D2A62164  14.215  24.523   6.568
 4820POPC   C3A62165  14.256  24.737   6.958
 4820POPC   C4A62166  14.235  24.881   7.344
 4820POPC   C1B62167  14.263  24.157   6.220
 4820POPC   C2B62168  14.077  24.006   6.618
 4820POPC   C3B62169  14.043  24.134   7.066
 4820POPC   C4B62170  14.260  24.366   7.385
 4821POPC   NC362171  37.805  39.309   5.378
 4821POPC   PO462172  37.232  38.939   5.428
 4821POPC   GL162173  37.563  39.026   5.733
 4821POPC   GL262174  37.565  39.378   5.818
 4821POPC   C1A62175  37.821  38.880   6.092
 4821POPC   D2A62176  37.794  39.031   6.517
 4821POPC   C3A62177  37.672  39.176   6.924
 4821POPC   C4A62178  37.837  39.081   7.333
 4821POPC   C1B62179  37.826  39.408   6.165
 4821POPC   C2B62180  38.004  39.494   6.580
 4821POPC   C3B62181  37.870  39.666   6.947
 4821POPC   C4B62182  37.683  39.584   7.315
 4822POPC   NC362183   0.888   1.254   5.496
 4822POPC   PO462184   1.516   1.381   5.340
 4822POPC   GL162185   1.301   1.333   5.783
 4822POPC   GL262186   1.103   1.003   5.874
 4822POPC   C1A62187   1.148   1.391   6.217
 4822POPC   D2A62188   0.986   1.136   6.563
 4822POPC   C3A62189   1.028   1.337   6.955
 4822POPC   C4A62190   1.288   1.494   7.234
 4822POPC   C1B62191   1.276   0.817   6.243
 4822POPC   C2B62192   1.506   0.826   6.622
 4822POPC   C3B62193   1.311   0.918   7.015
 4822POPC   C4B62194   0.897   0.888   7.174
 4823POPC   NC362195  14.901  16.838   5.392
 4823POPC   PO462196  15.399  16.311   5.349
 4823POPC   GL162197  15.215  16.580   5.698
 4823POPC   GL262198  14.968  16.399   5.872
 4823POPC   C1A62199  15.162  16.835   6.103
 4823POPC   D2A62200  14.989  16.922   6.558
 4823POPC   C3A62201  15.186  16.824   6.974
 4823POPC   C4A62202  15.554  17.012   7.216
 4823POPC   C1B62203  14.858  16.490   6.303
 4823POPC   C2B62204  14.922  16.425   6.745
 4823POPC   C3B62205  14.776  16.524   7.156
 4823POPC   C4B62206  14.952  16.502   7.557
 4824POPC   NC362207   5.419  22.676   5.508
 4824POPC   PO462208   6.017  23.132   5.411
 4824POPC   GL162209   5.898  22.903   5.775
 4824POPC   GL262210   5.678  23.129   5.954
 4824POPC   C1A62211   5.808  22.717   6.195
 4824POPC   D2A62212   5.685  22.972   6.565
 4824POPC   C3A62213   5.834  22.959   7.022
 4824POPC   C4A62214   5.997  22.643   7.320
 4824POPC   C1B62215   6.115  23.111   6.224
 4824POPC   C2B62216   6.317  23.170   6.614
 4824POPC   C3B62217   6.249  23.272   7.027
 4824POPC   C4B62218   6.157  23.100   7.462
 4825POPC   NC362219  15.097  32.757   5.487
 4825POPC   PO462220  15.066  32.093   5.415
 4825POPC   GL162221  15.172  32.036   5.827
 4825POPC   GL262222  15.315  32.371   5.879
 4825POPC   C1A62223  14.967  31.966   6.237
 4825POPC   D2A62224  15.164  32.069   6.627
 4825POPC   C3A62225  15.011  32.093   7.058
 4825POPC   C4A62226  15.288  32.097   7.437
 4825POPC   C1B62227  15.301  32.640   6.248
 4825POPC   C2B62228  15.073  32.572   6.626
 4825POPC   C3B62229  14.841  32.602   6.993
 4825POPC   C4B62230  15.132  32.534   7.272
 4826POPC   NC362231  31.895  40.538   5.492
 4826POPC   PO462232  31.321  40.914   5.314
 4826POPC   GL162233  31.686  40.967   5.727
 4826POPC   GL262234  31.684  40.658   5.947
 4826POPC   C1A62235  31.900  41.032   6.203
 4826POPC   D2A62236  32.076  41.038   6.664
 4826POPC   C3A62237  31.696  40.867   6.967
 4826POPC   C4A62238  31.681  40.503   7.310
 4826POPC   C1B62239  31.439  40.500   6.308
 4826POPC   C2B62240  31.437  40.472   6.756
 4826POPC   C3B62241  31.163  40.504   7.109
 4826POPC   C4B62242  31.207  40.476   7.544
 4827POPC   NC362243  17.730   6.118   5.554
 4827POPC   PO462244  17.436   5.486   5.471
 4827POPC   GL162245  17.358   5.733   5.804
 4827POPC   GL262246  17.211   6.042   5.616
 4827POPC   C1A62247  17.463   5.728   6.288
 4827POPC   D2A62248  17.749   5.866   6.627
 4827POPC   C3A62249  17.730   5.719   7.054
 4827POPC   C4A62250  17.623   5.332   7.241
 4827POPC   C1B62251  17.219   6.123   6.073
 4827POPC   C2B62252  17.420   6.248   6.480
 4827POPC   C3B62253  17.329   6.061   6.863
 4827POPC   C4B62254  17.230   5.779   7.164
 4828POPC   NC362255  32.210   8.633   5.534
 4828POPC   PO462256  31.976   9.191   5.556
 4828POPC   GL162257  31.975   8.928   5.894
 4828POPC   GL262258  32.341   8.933   5.966
 4828POPC   C1A62259  31.978   8.825   6.322
 4828POPC   D2A62260  32.295   8.952   6.582
 4828POPC   C3A62261  32.148   8.851   6.996
 4828POPC   C4A62262  32.166   9.070   7.368
 4828POPC   C1B62263  32.673   9.127   6.221
 4828POPC   C2B62264  32.682   9.309   6.608
 4828POPC   C3B62265  32.525   9.206   6.978
 4828POPC   C4B62266  32.701   9.311   7.326
 4829POPC   NC362267  20.328  38.790   5.677
 4829POPC   PO462268  20.205  38.148   5.478
 4829POPC   GL162269  20.002  38.393   5.793
 4829POPC   GL262270  19.642  38.332   5.801
 4829POPC   C1A62271  20.053  38.410   6.237
 4829POPC   D2A62272  19.880  38.271   6.629
 4829POPC   C3A62273  19.985  38.403   7.040
 4829POPC   C4A62274  20.131  38.469   7.430
 4829POPC   C1B62275  19.603  38.154   6.201
 4829POPC   C2B62276  19.415  38.059   6.614
 4829POPC   C3B62277  19.627  38.035   7.013
 4829POPC   C4B62278  19.695  38.168   7.460
 4830POPC   NC362279  26.255   4.631   5.280
 4830POPC   PO462280  26.345   3.965   5.163
 4830POPC   GL162281  26.118   4.172   5.556
 4830POPC   GL262282  25.970   3.963   5.820
 4830POPC   C1A62283  26.093   4.437   5.983
 4830POPC   D2A62284  25.954   4.596   6.423
 4830POPC   C3A62285  25.802   4.390   6.807
 4830POPC   C4A62286  26.033   4.305   7.172
 4830POPC   C1B62287  26.172   4.001   6.267
 4830POPC   C2B62288  26.393   3.936   6.678
 4830POPC   C3B62289  26.210   3.834   7.080
 4830POPC   C4B62290  26.245   3.767   7.557
 4831POPC   NC362291  32.581   6.691   5.613
 4831POPC   PO462292  33.143   6.761   5.301
 4831POPC   GL162293  33.258   6.671   5.745
 4831POPC   GL262294  33.508   6.399   5.767
 4831POPC   C1A62295  33.098   6.629   6.184
 4831POPC   D2A62296  32.792   6.763   6.531
 4831POPC   C3A62297  32.944   6.684   6.976
 4831POPC   C4A62298  33.128   6.703   7.392
 4831POPC   C1B62299  33.598   6.404   6.200
 4831POPC   C2B62300  33.414   6.575   6.588
 4831POPC   C3B62301  33.411   6.468   7.019
 4831POPC   C4B62302  33.283   6.230   7.399
 4832POPC   NC362303   3.916  14.096   5.702
 4832POPC   PO462304   3.408  14.500   5.339
 4832POPC   GL162305   3.361  14.564   5.788
 4832POPC   GL262306   3.473  14.235   5.936
 4832POPC   C1A62307   3.605  14.666   6.170
 4832POPC   D2A62308   3.705  14.677   6.616
 4832POPC   C3A62309   3.486  14.598   7.029
 4832POPC   C4A62310   3.693  14.695   7.430
 4832POPC   C1B62311   3.594  14.198   6.381
 4832POPC   C2B62312   3.515  14.126   6.820
 4832POPC   C3B62313   3.736  14.181   7.228
 4832POPC   C4B62314   3.733  14.242   7.679
 4833POPC   NC362315   2.381  27.577   5.301
 4833POPC   PO462316   1.796  27.673   5.281
 4833POPC   GL162317   1.992  27.609   5.708
 4833POPC   GL262318   2.317  27.828   5.746
 4833POPC   C1A62319   1.798  27.468   6.151
 4833POPC   D2A62320   1.643  27.523   6.602
 4833POPC   C3A62321   1.867  27.322   6.969
 4833POPC   C4A62322   2.036  27.420   7.370
 4833POPC   C1B62323   2.307  27.589   6.139
 4833POPC   C2B62324   2.458  27.624   6.571
 4833POPC   C3B62325   2.352  27.661   7.016
 4833POPC   C4B62326   2.030  27.904   7.199
 4834POPC   NC362327  27.860  38.893   5.613
 4834POPC   PO462328  27.859  38.287   5.593
 4834POPC   GL162329  27.593  38.398   5.930
 4834POPC   GL262330  27.295  38.641   5.890
 4834POPC   C1A62331  27.625  38.691   6.294
 4834POPC   D2A62332  27.834  38.726   6.694
 4834POPC   C3A62333  27.639  38.516   7.047
 4834POPC   C4A62334  27.761  38.099   7.171
 4834POPC   C1B62335  27.217  38.372   6.275
 4834POPC   C2B62336  27.054  38.275   6.697
 4834POPC   C3B62337  27.251  38.127   7.086
 4834POPC   C4B62338  27.332  38.253   7.513
 4835POPC   NC362339  12.474  36.400   5.443
 4835POPC   PO462340  11.854  36.178   5.362
 4835POPC   GL162341  11.994  36.240   5.786
 4835POPC   GL262342  11.674  36.153   5.916
 4835POPC   C1A62343  12.278  36.256   6.178
 4835POPC   D2A62344  12.379  36.495   6.586
 4835POPC   C3A62345  12.264  36.354   7.005
 4835POPC   C4A62346  11.830  36.238   7.119
 4835POPC   C1B62347  11.901  35.893   6.205
 4835POPC   C2B62348  12.224  35.815   6.481
 4835POPC   C3B62349  12.143  35.869   6.911
 4835POPC   C4B62350  12.350  35.926   7.311
 4836POPC   NC362351  33.766   7.634   5.304
 4836POPC   PO462352  33.939   7.023   5.356
 4836POPC   GL162353  33.947   7.337   5.717
 4836POPC   GL262354  33.615   7.415   5.742
 4836POPC   C1A62355  33.985   7.241   6.181
 4836POPC   D2A62356  34.160   7.162   6.622
 4836POPC   C3A62357  33.864   7.255   7.002
 4836POPC   C4A62358  33.866   7.303   7.492
 4836POPC   C1B62359  33.500   7.405   6.148
 4836POPC   C2B62360  33.503   7.483   6.550
 4836POPC   C3B62361  33.282   7.495   6.886
 4836POPC   C4B62362  33.463   7.488   7.257
 4837POPC   NC362363  14.072  12.754   5.470
 4837POPC   PO462364  14.617  13.282   5.352
 4837POPC   GL162365  14.426  13.058   5.719
 4837POPC   GL262366  14.129  13.251   5.725
 4837POPC   C1A62367  14.507  12.823   6.141
 4837POPC   D2A62368  14.485  12.499   6.525
 4837POPC   C3A62369  14.763  12.531   6.895
 4837POPC   C4A62370  14.741  12.819   7.257
 4837POPC   C1B62371  14.014  13.025   6.112
 4837POPC   C2B62372  14.199  12.947   6.539
 4837POPC   C3B62373  14.296  12.845   6.975
 4837POPC   C4B62374  14.048  13.102   7.265
 4838POPC   NC362375  33.685  44.495   5.363
 4838POPC   PO462376  34.081  43.931   5.319
 4838POPC   GL162377  33.886  43.870   5.746
 4838POPC   GL262378  33.600  44.094   5.779
 4838POPC   C1A62379  33.808  43.971   6.223
 4838POPC   D2A62380  33.573  43.652   6.468
 4838POPC   C3A62381  33.545  43.681   6.891
 4838POPC   C4A62382  33.675  43.962   7.190
 4838POPC   C1B62383  33.327  43.953   6.103
 4838POPC   C2B62384  33.388  44.122   6.544
 4838POPC   C3B62385  33.241  44.133   6.973
 4838POPC   C4B62386  33.468  44.403   7.282
 4839POPC   NC362387  22.795  43.624   5.427
 4839POPC   PO462388  22.984  42.938   5.484
 4839POPC   GL162389  23.109  43.006   5.876
 4839POPC   GL262390  23.017  43.351   5.833
 4839POPC   C1A62391  22.989  42.775   6.259
 4839POPC   D2A62392  23.144  42.829   6.678
 4839POPC   C3A62393  23.006  43.108   7.038
 4839POPC   C4A62394  23.221  43.512   7.093
 4839POPC   C1B62395  22.957  43.267   6.289
 4839POPC   C2B62396  22.706  43.122   6.608
 4839POPC   C3B62397  22.569  43.332   6.958
 4839POPC   C4B62398  22.666  43.470   7.325
 4840POPC   NC362399  29.353   0.705   5.103
 4840POPC   PO462400  29.209   0.346   5.658
 4840POPC   GL162401  28.886   0.516   5.848
 4840POPC   GL262402  29.121   0.743   5.994
 4840POPC   C1A62403  28.945   0.341   6.243
 4840POPC   D2A62404  29.334   0.352   6.483
 4840POPC   C3A62405  29.275   0.561   6.852
 4840POPC   C4A62406  29.102   0.465   7.232
 4840POPC   C1B62407  29.108   0.811   6.424
 4840POPC   C2B62408  28.888   0.894   6.792
 4840POPC   C3B62409  28.960   0.963   7.231
 4840POPC   C4B62410  28.975   0.745   7.645
 4841POPC   NC362411   6.431   7.853   5.584
 4841POPC   PO462412   6.582   8.449   5.360
 4841POPC   GL162413   6.682   8.427   5.814
 4841POPC   GL262414   6.989   8.641   5.863
 4841POPC   C1A62415   6.559   8.135   6.198
 4841POPC   D2A62416   6.290   7.950   6.596
 4841POPC   C3A62417   6.343   8.058   7.080
 4841POPC   C4A62418   6.318   8.006   7.575
 4841POPC   C1B62419   6.908   8.539   6.296
 4841POPC   C2B62420   6.587   8.424   6.607
 4841POPC   C3B62421   6.616   8.494   7.014
 4841POPC   C4B62422   6.663   8.344   7.407
 4842POPC   NC362423  22.461   2.150   5.559
 4842POPC   PO462424  21.823   1.764   5.382
 4842POPC   GL162425  22.117   1.832   5.806
 4842POPC   GL262426  22.216   2.149   6.011
 4842POPC   C1A62427  22.313   1.722   6.231
 4842POPC   D2A62428  22.110   1.693   6.625
 4842POPC   C3A62429  22.315   1.489   6.923
 4842POPC   C4A62430  22.275   1.730   7.285
 4842POPC   C1B62431  22.508   2.363   6.219
 4842POPC   C2B62432  22.396   2.381   6.631
 4842POPC   C3B62433  22.310   2.182   7.014
 4842POPC   C4B62434  22.483   2.377   7.355
 4843POPC   NC362435  36.688  11.623   5.075
 4843POPC   PO462436  37.095  11.981   5.439
 4843POPC   GL162437  36.788  12.062   5.734
 4843POPC   GL262438  36.715  11.716   5.714
 4843POPC   C1A62439  36.910  12.220   6.142
 4843POPC   D2A62440  37.135  12.026   6.490
 4843POPC   C3A62441  36.988  12.171   6.890
 4843POPC   C4A62442  36.953  12.432   7.251
 4843POPC   C1B62443  36.681  11.753   6.147
 4843POPC   C2B62444  36.783  11.621   6.554
 4843POPC   C3B62445  36.655  11.736   6.977
 4843POPC   C4B62446  36.867  11.922   7.331
 4844POPC   NC362447  39.585  17.422   5.659
 4844POPC   PO462448  40.059  17.775   5.210
 4844POPC   GL162449  40.004  17.672   5.677
 4844POPC   GL262450  40.179  17.419   5.813
 4844POPC   C1A62451  39.857  17.679   6.170
 4844POPC   D2A62452  39.845  17.878   6.575
 4844POPC   C3A62453  39.774  17.690   6.992
 4844POPC   C4A62454  40.048  17.722   7.376
 4844POPC   C1B62455  40.126  17.249   6.243
 4844POPC   C2B62456  40.106  17.429   6.682
 4844POPC   C3B62457  39.970  17.240   7.091
 4844POPC   C4B62458  40.074  17.255   7.564
 4845POPC   NC362459  21.625  23.725   5.359
 4845POPC   PO462460  21.131  23.315   5.163
 4845POPC   GL162461  21.181  23.502   5.647
 4845POPC   GL262462  21.423  23.798   5.798
 4845POPC   C1A62463  21.159  23.581   6.142
 4845POPC   D2A62464  21.273  23.906   6.455
 4845POPC   C3A62465  21.172  23.715   6.833
 4845POPC   C4A62466  21.360  23.691   7.200
 4845POPC   C1B62467  21.651  23.825   6.140
 4845POPC   C2B62468  21.788  24.113   6.457
 4845POPC   C3B62469  21.608  24.009   6.845
 4845POPC   C4B62470  21.566  24.159   7.261
 4846POPC   NC362471   0.545   8.477   5.441
 4846POPC   PO462472   0.116   7.981   5.386
 4846POPC   GL162473   0.188   8.007   5.832
 4846POPC   GL262474   0.224   8.353   5.818
 4846POPC   C1A62475   0.443   8.116   6.222
 4846POPC   D2A62476   0.325   8.221   6.643
 4846POPC   C3A62477   0.450   7.967   6.956
 4846POPC   C4A62478   0.594   7.966   7.402
 4846POPC   C1B62479   0.352   8.631   6.168
 4846POPC   C2B62480   0.687   8.553   6.485
 4846POPC   C3B62481   0.717   8.428   6.925
 4846POPC   C4B62482   0.362   8.401   7.196
 4847POPC   NC362483  12.559  12.265   5.602
 4847POPC   PO462484  11.870  12.395   5.533
 4847POPC   GL162485  12.143  12.631   5.812
 4847POPC   GL262486  12.265  12.981   5.797
 4847POPC   C1A62487  12.320  12.592   6.220
 4847POPC   D2A62488  12.137  12.354   6.575
 4847POPC   C3A62489  12.167  12.577   6.933
 4847POPC   C4A62490  11.910  12.806   7.153
 4847POPC   C1B62491  12.060  13.116   6.216
 4847POPC   C2B62492  11.967  13.150   6.688
 4847POPC   C3B62493  12.234  13.198   7.057
 4847POPC   C4B62494  12.430  12.872   7.270
 4848POPC   NC362495  11.723  40.631   5.375
 4848POPC   PO462496  12.292  41.009   5.391
 4848POPC   GL162497  12.137  40.713   5.741
 4848POPC   GL262498  11.861  40.413   5.825
 4848POPC   C1A62499  12.030  40.738   6.182
 4848POPC   D2A62500  12.130  40.608   6.595
 4848POPC   C3A62501  12.096  40.866   6.956
 4848POPC   C4A62502  12.387  40.931   7.293
 4848POPC   C1B62503  11.573  40.501   6.171
 4848POPC   C2B62504  11.614  40.699   6.571
 4848POPC   C3B62505  11.657  40.567   6.962
 4848POPC   C4B62506  11.598  40.351   7.328
 4849POPC   NC362507  22.985  12.267   5.514
 4849POPC   PO462508  22.751  11.652   5.456
 4849POPC   GL162509  22.933  11.819   5.811
 4849POPC   GL262510  22.642  11.941   5.938
 4849POPC   C1A62511  23.154  12.031   6.184
 4849POPC   D2A62512  23.410  12.163   6.550
 4849POPC   C3A62513  23.169  12.099   6.945
 4849POPC   C4A62514  22.806  12.356   7.122
 4849POPC   C1B62515  22.824  11.635   6.268
 4849POPC   C2B62516  22.762  11.577   6.686
 4849POPC   C3B62517  22.915  11.568   7.066
 4849POPC   C4B62518  22.801  11.883   7.293
 4850POPC   NC362519  15.106  31.621   5.509
 4850POPC   PO462520  14.915  30.936   5.392
 4850POPC   GL162521  15.119  31.147   5.750
 4850POPC   GL262522  15.492  31.168   5.708
 4850POPC   C1A62523  15.079  31.423   6.153
 4850POPC   D2A62524  15.350  31.592   6.520
 4850POPC   C3A62525  15.140  31.616   6.939
 4850POPC   C4A62526  15.016  31.292   7.259
 4850POPC   C1B62527  15.554  31.249   6.133
 4850POPC   C2B62528  15.422  31.080   6.539
 4850POPC   C3B62529  15.484  31.239   6.926
 4850POPC   C4B62530  15.682  31.607   6.971
 4851POPC   NC362531  41.174  33.741   5.546
 4851POPC   PO462532  41.829  33.774   5.374
 4851POPC   GL162533  41.685  33.604   5.760
 4851POPC   GL262534  41.527  33.886   5.869
 4851POPC   C1A62535  41.754  33.599   6.209
 4851POPC   D2A62536  41.540  33.757   6.557
 4851POPC   C3A62537  41.727  33.742   6.957
 4851POPC   C4A62538  41.472  33.704   7.315
 4851POPC   C1B62539  41.717  34.131   6.192
 4851POPC   C2B62540  41.883  34.136   6.609
 4851POPC   C3B62541  41.772  34.264   7.000
 4851POPC   C4B62542  41.888  34.057   7.359
 4852POPC   NC362543  33.629  17.955   5.360
 4852POPC   PO462544  33.819  17.368   5.128
 4852POPC   GL162545  33.912  17.537   5.610
 4852POPC   GL262546  34.151  17.363   5.887
 4852POPC   C1A62547  33.758  17.670   6.054
 4852POPC   D2A62548  33.552  17.753   6.474
 4852POPC   C3A62549  33.807  17.871   6.833
 4852POPC   C4A62550  33.793  17.640   7.199
 4852POPC   C1B62551  33.947  17.262   6.319
 4852POPC   C2B62552  33.929  17.347   6.783
 4852POPC   C3B62553  34.210  17.356   7.147
 4852POPC   C4B62554  34.312  17.267   7.583
 4853POPC   NC362555  37.652  19.004   5.065
 4853POPC   PO462556  37.946  19.356   5.637
 4853POPC   GL162557  37.713  19.064   5.880
 4853POPC   GL262558  37.647  18.711   5.768
 4853POPC   C1A62559  37.867  18.943   6.287
 4853POPC   D2A62560  38.013  18.817   6.708
 4853POPC   C3A62561  37.875  19.057   7.072
 4853POPC   C4A62562  37.456  19.237   7.098
 4853POPC   C1B62563  37.394  18.752   6.155
 4853POPC   C2B62564  37.466  18.890   6.591
 4853POPC   C3B62565  37.561  18.677   6.961
 4853POPC   C4B62566  37.441  18.768   7.355
 4854POPC   NC362567   0.495   0.440   5.441
 4854POPC   PO462568   0.114   0.989   5.612
 4854POPC   GL162569   0.551   0.829   5.792
 4854POPC   GL262570   0.468   0.496   5.935
 4854POPC   C1A62571   0.766   0.763   6.234
 4854POPC   D2A62572   0.559   0.478   6.501
 4854POPC   C3A62573   0.534   0.643   6.903
 4854POPC   C4A62574   0.614   0.471   7.287
 4854POPC   C1B62575   0.192   0.247   6.185
 4854POPC   C2B62576   0.174   0.145   6.619
 4854POPC   C3B62577   0.514   0.108   6.915
 4854POPC   C4B62578   0.444   0.008   7.341
 4855POPC   NC362579  32.460  34.684   5.604
 4855POPC   PO462580  32.033  34.175   5.514
 4855POPC   GL162581  32.275  34.254   5.908
 4855POPC   GL262582  32.306  34.601   6.069
 4855POPC   C1A62583  32.387  34.187   6.357
 4855POPC   D2A62584  32.361  34.457   6.727
 4855POPC   C3A62585  32.132  34.295   7.104
 4855POPC   C4A62586  32.287  34.331   7.533
 4855POPC   C1B62587  32.404  34.996   6.300
 4855POPC   C2B62588  32.266  35.044   6.747
 4855POPC   C3B62589  32.301  34.797   7.147
 4855POPC   C4B62590  32.383  34.869   7.602
 4856POPC   NC362591  24.121  23.925   5.469
 4856POPC   PO462592  24.314  23.354   5.485
 4856POPC   GL162593  24.421  23.613   5.823
 4856POPC   GL262594  24.118  23.685   5.958
 4856POPC   C1A62595  24.643  23.625   6.237
 4856POPC   D2A62596  24.718  23.809   6.663
 4856POPC   C3A62597  24.576  23.606   7.065
 4856POPC   C4A62598  24.729  23.626   7.487
 4856POPC   C1B62599  24.209  23.844   6.398
 4856POPC   C2B62600  24.131  23.742   6.833
 4856POPC   C3B62601  24.135  23.872   7.267
 4856POPC   C4B62602  24.066  23.939   7.705
 4857POPC   NC362603  37.309  18.489   5.451
 4857POPC   PO462604  38.026  18.396   5.411
 4857POPC   GL162605  37.747  18.189   5.807
 4857POPC   GL262606  37.375  18.121   5.801
 4857POPC   C1A62607  37.695  17.946   6.248
 4857POPC   D2A62608  37.458  17.972   6.680
 4857POPC   C3A62609  37.665  18.187   7.059
 4857POPC   C4A62610  37.883  18.501   7.368
 4857POPC   C1B62611  37.286  18.260   6.230
 4857POPC   C2B62612  37.235  18.444   6.630
 4857POPC   C3B62613  37.185  18.310   7.033
 4857POPC   C4B62614  37.132  18.371   7.419
 4858POPC   NC362615  23.570  10.113   5.510
 4858POPC   PO462616  23.673   9.523   5.268
 4858POPC   GL162617  23.669   9.667   5.731
 4858POPC   GL262618  23.540   9.440   5.953
 4858POPC   C1A62619  23.537   9.903   6.145
 4858POPC   D2A62620  23.324   9.735   6.506
 4858POPC   C3A62621  23.556   9.894   6.870
 4858POPC   C4A62622  23.440  10.074   7.279
 4858POPC   C1B62623  23.959   9.598   6.154
 4858POPC   C2B62624  24.259   9.570   6.521
 4858POPC   C3B62625  24.132   9.784   6.913
 4858POPC   C4B62626  23.788   9.645   7.238
 4859POPC   NC362627  26.269   8.488   5.146
 4859POPC   PO462628  25.799   8.092   5.399
 4859POPC   GL162629  25.954   7.967   5.820
 4859POPC   GL262630  26.278   7.975   5.914
 4859POPC   C1A62631  25.934   8.178   6.245
 4859POPC   D2A62632  26.120   8.393   6.610
 4859POPC   C3A62633  25.900   8.292   6.970
 4859POPC   C4A62634  26.044   7.944   7.166
 4859POPC   C1B62635  26.198   7.725   6.308
 4859POPC   C2B62636  26.524   7.720   6.621
 4859POPC   C3B62637  26.620   8.134   6.796
 4859POPC   C4B62638  26.410   8.293   7.155
 4860POPC   NC362639  42.361  16.104   5.508
 4860POPC   PO462640  41.990  15.595   5.529
 4860POPC   GL162641  42.335  15.672   5.802
 4860POPC   GL262642  42.371  16.009   6.009
 4860POPC   C1A62643  42.451  15.544   6.192
 4860POPC   D2A62644  42.399  15.847   6.523
 4860POPC   C3A62645  42.616  15.799   6.901
 4860POPC   C4A62646  42.560  16.010   7.287
 4860POPC   C1B62647  42.092  16.241   6.293
 4860POPC   C2B62648  41.865  16.273   6.702
 4860POPC   C3B62649  42.099  16.408   7.063
 4860POPC   C4B62650  42.208  16.322   7.473
 4861POPC   NC362651  38.576  31.152   5.629
 4861POPC   PO462652  38.191  31.736   5.647
 4861POPC   GL162653  38.233  31.421   5.923
 4861POPC   GL262654  38.572  31.550   5.983
 4861POPC   C1A62655  38.154  31.525   6.327
 4861POPC   D2A62656  38.340  31.783   6.608
 4861POPC   C3A62657  38.411  31.448   6.862
 4861POPC   C4A62658  38.181  31.374   7.249
 4861POPC   C1B62659  38.632  31.265   6.330
 4861POPC   C2B62660  38.904  31.189   6.686
 4861POPC   C3B62661  38.755  31.165   7.094
 4861POPC   C4B62662  38.673  31.475   7.375
 4862POPC   NC362663  11.143  41.686   5.341
 4862POPC   PO462664  11.508  41.079   5.351
 4862POPC   GL162665  11.367  41.306   5.757
 4862POPC   GL262666  11.295  41.676   5.809
 4862POPC   C1A62667  11.167  41.390   6.180
 4862POPC   D2A62668  11.248  41.695   6.494
 4862POPC   C3A62669  11.205  41.528   6.888
 4862POPC   C4A62670  11.481  41.460   7.242
 4862POPC   C1B62671  10.937  41.839   6.081
 4862POPC   C2B62672  10.815  41.951   6.533
 4862POPC   C3B62673  11.033  42.022   6.912
 4862POPC   C4B62674  11.068  41.792   7.285
 4863POPC   NC362675  23.620  13.029   5.390
 4863POPC   PO462676  24.098  12.556   5.606
 4863POPC   GL162677  23.901  12.904   5.835
 4863POPC   GL262678  23.527  12.897   5.887
 4863POPC   C1A62679  23.875  12.943   6.283
 4863POPC   D2A62680  23.808  12.624   6.593
 4863POPC   C3A62681  23.862  12.705   7.005
 4863POPC   C4A62682  23.724  12.448   7.327
 4863POPC   C1B62683  23.347  13.126   6.257
 4863POPC   C2B62684  23.587  13.138   6.667
 4863POPC   C3B62685  23.520  13.083   7.093
 4863POPC   C4B62686  23.228  13.310   7.294
 4864POPC   NC362687  36.851  19.517   5.379
 4864POPC   PO462688  37.178  18.894   5.230
 4864POPC   GL162689  37.116  18.979   5.706
 4864POPC   GL262690  36.755  19.133   5.744
 4864POPC   C1A62691  37.043  19.130   6.165
 4864POPC   D2A62692  37.072  19.244   6.609
 4864POPC   C3A62693  37.072  18.902   6.939
 4864POPC   C4A62694  37.042  19.106   7.352
 4864POPC   C1B62695  36.565  19.346   6.114
 4864POPC   C2B62696  36.579  19.439   6.574
 4864POPC   C3B62697  36.705  19.264   6.979
 4864POPC   C4B62698  36.540  19.155   7.401
 4865POPC   NC362699   6.656  21.080   5.514
 4865POPC   PO462700   6.739  20.485   5.224
 4865POPC   GL162701   6.892  20.619   5.626
 4865POPC   GL262702   6.596  20.598   5.789
 4865POPC   C1A62703   6.982  20.852   6.042
 4865POPC   D2A62704   6.822  20.748   6.459
 4865POPC   C3A62705   6.841  20.862   6.879
 4865POPC   C4A62706   6.969  20.664   7.202
 4865POPC   C1B62707   6.448  20.833   6.141
 4865POPC   C2B62708   6.286  20.841   6.583
 4865POPC   C3B62709   6.333  20.805   7.027
 4865POPC   C4B62710   6.493  20.460   7.258
 4866POPC   NC362711  15.709  41.163   5.519
 4866POPC   PO462712  15.986  40.538   5.505
 4866POPC   GL162713  16.103  40.680   5.873
 4866POPC   GL262714  16.102  40.998   5.796
 4866POPC   C1A62715  16.073  40.534   6.296
 4866POPC   D2A62716  16.284  40.570   6.700
 4866POPC   C3A62717  16.041  40.705   7.043
 4866POPC   C4A62718  15.652  40.789   7.225
 4866POPC   C1B62719  15.954  41.027   6.210
 4866POPC   C2B62720  16.207  41.072   6.542
 4866POPC   C3B62721  16.249  41.177   6.943
 4866POPC   C4B62722  15.949  41.199   7.258
 4867POPC   NC362723  27.882  40.683   5.177
 4867POPC   PO462724  28.459  41.006   5.349
 4867POPC   GL162725  28.492  40.702   5.743
 4867POPC   GL262726  28.627  40.970   5.945
 4867POPC   C1A62727  28.276  40.534   6.173
 4867POPC   D2A62728  28.278  40.493   6.649
 4867POPC   C3A62729  28.376  40.812   6.904
 4867POPC   C4A62730  28.130  40.877   7.235
 4867POPC   C1B62731  28.608  40.870   6.381
 4867POPC   C2B62732  28.570  41.211   6.659
 4867POPC   C3B62733  28.481  41.307   7.065
 4867POPC   C4B62734  28.448  41.203   7.484
 4868POPC   NC362735   0.675  16.143   5.537
 4868POPC   PO462736   0.115  16.071   5.188
 4868POPC   GL162737   0.358  15.720   5.608
 4868POPC   GL262738   0.665  15.720   5.844
 4868POPC   C1A62739   0.293  15.706   6.149
 4868POPC   D2A62740   0.149  15.664   6.592
 4868POPC   C3A62741   0.263  15.873   6.982
 4868POPC   C4A62742   0.557  15.715   7.290
 4868POPC   C1B62743   0.812  15.899   6.253
 4868POPC   C2B62744   0.636  16.016   6.669
 4868POPC   C3B62745   0.677  16.167   7.116
 4868POPC   C4B62746   0.722  16.070   7.635
 4869POPC   NC362747  37.437  22.116   5.406
 4869POPC   PO462748  38.104  22.525   5.438
 4869POPC   GL162749  37.794  22.343   5.721
 4869POPC   GL262750  37.766  21.985   5.782
 4869POPC   C1A62751  37.617  22.380   6.137
 4869POPC   D2A62752  37.807  22.407   6.548
 4869POPC   C3A62753  37.577  22.488   6.918
 4869POPC   C4A62754  37.210  22.318   7.154
 4869POPC   C1B62755  37.643  21.853   6.202
 4869POPC   C2B62756  37.872  21.895   6.599
 4869POPC   C3B62757  37.957  22.107   6.972
 4869POPC   C4B62758  37.679  22.168   7.297
 4870POPC   NC362759   0.412   5.221   5.225
 4870POPC   PO462760   0.070   4.702   5.190
 4870POPC   GL162761   0.188   5.075   5.650
 4870POPC   GL262762   0.579   5.177   5.715
 4870POPC   C1A62763   0.310   5.197   6.148
 4870POPC   D2A62764   0.253   5.364   6.615
 4870POPC   C3A62765   0.357   5.072   6.996
 4870POPC   C4A62766   0.229   4.609   7.154
 4870POPC   C1B62767   0.822   5.313   6.096
 4870POPC   C2B62768   0.778   5.428   6.556
 4870POPC   C3B62769   0.868   5.219   6.942
 4870POPC   C4B62770   0.862   5.329   7.371
 4871POPC   NC362771  17.621  28.578   5.644
 4871POPC   PO462772  17.388  28.006   5.398
 4871POPC   GL162773  17.318  28.187   5.836
 4871POPC   GL262774  17.172  28.551   5.887
 4871POPC   C1A62775  17.191  28.262   6.297
 4871POPC   D2A62776  17.186  28.577   6.637
 4871POPC   C3A62777  17.413  28.371   6.963
 4871POPC   C4A62778  17.476  28.022   7.239
 4871POPC   C1B62779  17.509  28.676   6.258
 4871POPC   C2B62780  17.818  28.509   6.599
 4871POPC   C3B62781  17.881  28.577   7.049
 4871POPC   C4B62782  17.565  28.650   7.391
 4872POPC   NC362783  19.954  36.979   5.344
 4872POPC   PO462784  19.790  36.446   5.667
 4872POPC   GL162785  19.794  36.915   5.872
 4872POPC   GL262786  19.484  37.157   5.938
 4872POPC   C1A62787  19.875  37.157   6.271
 4872POPC   D2A62788  19.726  37.202   6.695
 4872POPC   C3A62789  19.973  37.146   7.109
 4872POPC   C4A62790  20.220  36.989   7.514
 4872POPC   C1B62791  19.278  37.201   6.349
 4872POPC   C2B62792  19.240  37.058   6.788
 4872POPC   C3B62793  19.416  36.998   7.217
 4872POPC   C4B62794  19.366  36.919   7.690
 4873POPC   NC362795  44.493  38.068   5.432
 4873POPC   PO462796  44.851  37.546   5.185
 4873POPC   GL162797  44.740  37.673   5.673
 4873POPC   GL262798  44.476  37.904   5.889
 4873POPC   C1A62799  44.842  37.635   6.124
 4873POPC   D2A62800  44.768  37.364   6.480
 4873POPC   C3A62801  44.589  37.554   6.846
 4873POPC   C4A62802  44.831  37.572   7.223
 4873POPC   C1B62803  44.613  38.062   6.277
 4873POPC   C2B62804  44.994  38.035   6.529
 4873POPC   C3B62805  44.856  38.035   6.978
 4873POPC   C4B62806  44.403  37.969   7.112
 4874POPC   NC362807  32.663  19.260   5.318
 4874POPC   PO462808  33.196  18.736   5.273
 4874POPC   GL162809  33.267  19.059   5.608
 4874POPC   GL262810  32.957  19.198   5.740
 4874POPC   C1A62811  33.313  19.082   6.087
 4874POPC   D2A62812  33.311  18.851   6.472
 4874POPC   C3A62813  33.143  19.071   6.840
 4874POPC   C4A62814  32.990  18.934   7.246
 4874POPC   C1B62815  32.796  19.156   6.174
 4874POPC   C2B62816  32.790  19.341   6.588
 4874POPC   C3B62817  32.697  19.297   7.052
 4874POPC   C4B62818  32.740  19.271   7.552
 4875POPC   NC362819  20.718  27.863   5.559
 4875POPC   PO462820  20.642  27.170   5.408
 4875POPC   GL162821  20.608  27.403   5.803
 4875POPC   GL262822  20.858  27.682   5.993
 4875POPC   C1A62823  20.469  27.464   6.221
 4875POPC   D2A62824  20.783  27.704   6.503
 4875POPC   C3A62825  20.812  27.600   6.920
 4875POPC   C4A62826  20.595  27.325   7.185
 4875POPC   C1B62827  20.503  27.962   6.156
 4875POPC   C2B62828  20.282  27.860   6.535
 4875POPC   C3B62829  20.417  28.034   6.917
 4875POPC   C4B62830  20.515  27.831   7.274
 4876POPC   NC362831   7.620  37.791   5.443
 4876POPC   PO462832   7.070  37.386   5.340
 4876POPC   GL162833   7.270  37.642   5.768
 4876POPC   GL262834   7.446  37.455   5.978
 4876POPC   C1A62835   7.422  37.883   6.178
 4876POPC   D2A62836   7.411  37.600   6.504
 4876POPC   C3A62837   7.484  37.747   6.884
 4876POPC   C4A62838   7.425  38.038   7.187
 4876POPC   C1B62839   7.705  37.231   6.239
 4876POPC   C2B62840   7.803  37.313   6.665
 4876POPC   C3B62841   7.733  37.145   7.033
 4876POPC   C4B62842   7.450  37.357   7.241
 4877POPC   NC362843  22.895   1.169   5.352
 4877POPC   PO462844  22.765   1.715   5.712
 4877POPC   GL162845  22.878   1.301   5.846
 4877POPC   GL262846  23.215   1.175   5.753
 4877POPC   C1A62847  22.871   1.264   6.264
 4877POPC   D2A62848  22.824   1.413   6.657
 4877POPC   C3A62849  22.622   1.068   6.823
 4877POPC   C4A62850  22.587   1.141   7.213
 4877POPC   C1B62851  23.320   1.042   6.178
 4877POPC   C2B62852  23.130   0.973   6.618
 4877POPC   C3B62853  23.106   1.048   7.113
 4877POPC   C4B62854  23.203   0.992   7.598
 4878POPC   NC362855  16.556  41.458   5.412
 4878POPC   PO462856  16.911  41.977   5.315
 4878POPC   GL162857  16.972  41.706   5.726
 4878POPC   GL262858  16.916  41.355   5.786
 4878POPC   C1A62859  17.024  41.703   6.228
 4878POPC   D2A62860  16.857  41.951   6.582
 4878POPC   C3A62861  16.948  41.808   7.009
 4878POPC   C4A62862  16.781  41.699   7.418
 4878POPC   C1B62863  16.783  41.252   6.227
 4878POPC   C2B62864  16.975  41.344   6.646
 4878POPC   C3B62865  16.796  41.281   7.062
 4878POPC   C4B62866  16.471  41.289   7.384
 4879POPC   NC362867  37.352  23.769   5.529
 4879POPC   PO462868  38.004  23.839   5.251
 4879POPC   GL162869  37.826  23.989   5.678
 4879POPC   GL262870  37.893  23.664   5.777
 4879POPC   C1A62871  37.594  23.893   6.139
 4879POPC   D2A62872  37.669  23.690   6.577
 4879POPC   C3A62873  37.765  23.880   6.953
 4879POPC   C4A62874  37.494  24.087   7.226
 4879POPC   C1B62875  38.029  23.623   6.203
 4879POPC   C2B62876  38.017  23.303   6.493
 4879POPC   C3B62877  37.928  23.367   6.913
 4879POPC   C4B62878  37.842  23.527   7.323
 4880POPC   NC362879  39.563  16.020   5.559
 4880POPC   PO462880  38.950  16.327   5.551
 4880POPC   GL162881  39.110  15.986   5.810
 4880POPC   GL262882  38.884  15.757   5.893
 4880POPC   C1A62883  39.294  15.866   6.209
 4880POPC   D2A62884  39.249  16.109   6.573
 4880POPC   C3A62885  39.072  15.990   6.947
 4880POPC   C4A62886  39.294  15.973   7.339
 4880POPC   C1B62887  38.905  15.537   6.292
 4880POPC   C2B62888  39.145  15.556   6.684
 4880POPC   C3B62889  39.174  15.515   7.155
 4880POPC   C4B62890  39.011  15.617   7.575
 4881POPC   NC362891  38.316  33.617   5.039
 4881POPC   PO462892  37.808  33.919   5.396
 4881POPC   GL162893  37.775  33.833   5.817
 4881POPC   GL262894  37.412  33.836   5.814
 4881POPC   C1A62895  37.870  33.701   6.238
 4881POPC   D2A62896  37.724  33.846   6.621
 4881POPC   C3A62897  37.948  33.767   6.970
 4881POPC   C4A62898  37.897  33.587   7.379
 4881POPC   C1B62899  37.520  33.421   6.018
 4881POPC   C2B62900  37.501  33.380   6.467
 4881POPC   C3B62901  37.296  33.579   6.813
 4881POPC   C4B62902  37.431  33.713   7.226
 4882POPC   NC362903  34.838  24.611   5.394
 4882POPC   PO462904  34.400  24.162   5.252
 4882POPC   GL162905  34.266  24.220   5.706
 4882POPC   GL262906  34.517  24.469   5.769
 4882POPC   C1A62907  34.384  24.172   6.147
 4882POPC   D2A62908  34.508  24.377   6.548
 4882POPC   C3A62909  34.420  24.189   6.943
 4882POPC   C4A62910  34.319  24.377   7.330
 4882POPC   C1B62911  34.725  24.639   6.158
 4882POPC   C2B62912  34.699  24.831   6.607
 4882POPC   C3B62913  34.619  24.712   7.059
 4882POPC   C4B62914  34.640  24.733   7.543
 4883POPC   NC362915   2.207   2.348   5.255
 4883POPC   PO462916   1.782   2.902   5.287
 4883POPC   GL162917   1.955   2.876   5.750
 4883POPC   GL262918   2.161   2.593   5.762
 4883POPC   C1A62919   1.786   2.679   6.150
 4883POPC   D2A62920   1.771   2.617   6.572
 4883POPC   C3A62921   2.067   2.899   6.653
 4883POPC   C4A62922   2.011   3.098   7.002
 4883POPC   C1B62923   2.358   2.723   6.148
 4883POPC   C2B62924   2.399   2.521   6.570
 4883POPC   C3B62925   2.125   2.521   6.982
 4883POPC   C4B62926   2.046   2.711   7.446
 4884POPC   NC362927  35.502  20.695   5.364
 4884POPC   PO462928  35.007  20.259   5.526
 4884POPC   GL162929  35.230  20.502   5.847
 4884POPC   GL262930  35.323  20.847   5.794
 4884POPC   C1A62931  35.378  20.553   6.274
 4884POPC   D2A62932  35.614  20.514   6.653
 4884POPC   C3A62933  35.361  20.507   7.007
 4884POPC   C4A62934  34.974  20.267   7.098
 4884POPC   C1B62935  35.635  20.975   6.095
 4884POPC   C2B62936  35.559  21.088   6.493
 4884POPC   C3B62937  35.672  20.969   6.884
 4884POPC   C4B62938  35.559  21.052   7.276
 4885POPC   NC362939   2.315  10.710   5.114
 4885POPC   PO462940   1.913  11.247   5.434
 4885POPC   GL162941   1.985  11.279   5.850
 4885POPC   GL262942   2.327  11.364   5.883
 4885POPC   C1A62943   1.845  11.287   6.263
 4885POPC   D2A62944   2.063  11.336   6.617
 4885POPC   C3A62945   1.867  11.328   6.962
 4885POPC   C4A62946   2.135  11.301   7.309
 4885POPC   C1B62947   2.267  11.617   6.226
 4885POPC   C2B62948   2.429  11.699   6.630
 4885POPC   C3B62949   2.222  11.699   7.014
 4885POPC   C4B62950   2.335  11.786   7.439
 4886POPC   NC362951   4.093  13.265   5.175
 4886POPC   PO462952   4.619  12.889   5.368
 4886POPC   GL162953   4.329  12.771   5.741
 4886POPC   GL262954   4.117  12.459   5.682
 4886POPC   C1A62955   4.260  12.938   6.159
 4886POPC   D2A62956   4.383  13.219   6.473
 4886POPC   C3A62957   4.348  13.026   6.850
 4886POPC   C4A62958   4.295  13.088   7.280
 4886POPC   C1B62959   4.162  12.427   6.103
 4886POPC   C2B62960   4.269  12.545   6.537
 4886POPC   C3B62961   4.277  12.564   6.996
 4886POPC   C4B62962   4.084  12.606   7.413
 4887POPC   NC362963  35.184   4.017   5.553
 4887POPC   PO462964  35.628   4.360   5.222
 4887POPC   GL162965  35.555   4.397   5.763
 4887POPC   GL262966  35.248   4.505   5.894
 4887POPC   C1A62967  35.470   4.260   6.272
 4887POPC   D2A62968  35.231   4.274   6.702
 4887POPC   C3A62969  35.450   4.342   7.106
 4887POPC   C4A62970  35.760   4.075   7.328
 4887POPC   C1B62971  35.134   4.656   6.317
 4887POPC   C2B62972  35.111   4.789   6.733
 4887POPC   C3B62973  34.949   4.552   7.056
 4887POPC   C4B62974  35.060   4.489   7.468
 4888POPC   NC362975  19.278  16.302   5.546
 4888POPC   PO462976  19.260  16.831   5.270
 4888POPC   GL162977  19.058  16.833   5.684
 4888POPC   GL262978  18.854  16.555   5.809
 4888POPC   C1A62979  19.155  16.855   6.157
 4888POPC   D2A62980  19.349  17.031   6.572
 4888POPC   C3A62981  19.195  16.861   6.977
 4888POPC   C4A62982  19.060  17.042   7.349
 4888POPC   C1B62983  18.686  16.604   6.270
 4888POPC   C2B62984  18.740  16.750   6.738
 4888POPC   C3B62985  18.630  16.789   7.213
 4888POPC   C4B62986  18.579  16.606   7.655
 4889POPC   NC362987  38.257  35.765   5.623
 4889POPC   PO462988  38.799  35.386   5.390
 4889POPC   GL162989  38.578  35.390   5.807
 4889POPC   GL262990  38.261  35.211   5.752
 4889POPC   C1A62991  38.569  35.308   6.275
 4889POPC   D2A62992  38.683  35.148   6.688
 4889POPC   C3A62993  38.518  35.299   7.045
 4889POPC   C4A62994  38.746  35.571   7.307
 4889POPC   C1B62995  38.153  34.969   6.151
 4889POPC   C2B62996  38.252  34.885   6.591
 4889POPC   C3B62997  38.077  34.998   6.991
 4889POPC   C4B62998  38.154  35.178   7.401
 4890POPC   NC362999   7.213  24.027   5.448
 4890POPC   PO463000   7.629  23.503   5.240
 4890POPC   GL163001   7.511  23.577   5.678
 4890POPC   GL263002   7.305  23.299   5.724
 4890POPC   C1A63003   7.399  23.739   6.120
 4890POPC   D2A63004   7.209  23.814   6.556
 4890POPC   C3A63005   7.486  23.891   6.912
 4890POPC   C4A63006   7.304  23.790   7.292
 4890POPC   C1B63007   7.574  23.247   6.095
 4890POPC   C2B63008   7.695  23.325   6.533
 4890POPC   C3B63009   7.423  23.385   6.890
 4890POPC   C4B63010   7.305  23.225   7.290
 4891POPC   NC363011  18.270  25.170   5.040
 4891POPC   PO463012  18.017  25.568   5.533
 4891POPC   GL163013  18.348  25.314   5.762
 4891POPC   GL263014  18.673  25.120   5.770
 4891POPC   C1A63015  18.350  25.125   6.175
 4891POPC   D2A63016  18.066  25.211   6.521
 4891POPC   C3A63017  18.203  25.424   6.877
 4891POPC   C4A63018  18.167  25.126   7.197
 4891POPC   C1B63019  18.846  24.951   6.160
 4891POPC   C2B63020  18.736  24.866   6.610
 4891POPC   C3B63021  18.658  25.075   7.010
 4891POPC   C4B63022  18.562  25.438   7.268
 4892POPC   NC363023  17.979  20.056   5.115
 4892POPC   PO463024  18.521  19.883   5.556
 4892POPC   GL163025  18.131  19.833   5.813
 4892POPC   GL263026  18.101  19.470   5.849
 4892POPC   C1A63027  18.061  19.988   6.264
 4892POPC   D2A63028  18.388  19.916   6.601
 4892POPC   C3A63029  18.412  20.035   7.040
 4892POPC   C4A63030  18.355  20.347   7.341
 4892POPC   C1B63031  18.446  19.609   6.172
 4892POPC   C2B63032  18.635  19.454   6.530
 4892POPC   C3B63033  18.547  19.548   6.933
 4892POPC   C4B63034  18.712  19.521   7.324
 4893POPC   NC363035  39.480  21.409   5.070
 4893POPC   PO463036  39.060  21.075   5.501
 4893POPC   GL163037  39.191  21.235   5.907
 4893POPC   GL263038  39.415  21.495   5.797
 4893POPC   C1A63039  39.169  21.205   6.365
 4893POPC   D2A63040  38.912  21.386   6.695
 4893POPC   C3A63041  39.146  21.429   7.075
 4893POPC   C4A63042  39.470  21.150   7.193
 4893POPC   C1B63043  39.527  21.572   6.211
 4893POPC   C2B63044  39.376  21.639   6.628
 4893POPC   C3B63045  39.609  21.612   7.017
 4893POPC   C4B63046  39.566  21.542   7.485
 4894POPC   NC363047  10.068  40.614   5.452
 4894POPC   PO463048  10.582  40.996   5.224
 4894POPC   GL163049  10.562  40.925   5.721
 4894POPC   GL263050  10.433  40.584   5.826
 4894POPC   C1A63051  10.519  40.934   6.206
 4894POPC   D2A63052  10.627  40.662   6.567
 4894POPC   C3A63053  10.743  40.841   6.978
 4894POPC   C4A63054  10.471  41.100   7.184
 4894POPC   C1B63055  10.557  40.313   6.192
 4894POPC   C2B63056  10.670  40.166   6.625
 4894POPC   C3B63057  10.375  40.337   6.943
 4894POPC   C4B63058  10.418  40.607   7.307
 4895POPC   NC363059   7.813   1.212   5.737
 4895POPC   PO463060   7.198   1.377   5.356
 4895POPC   GL163061   7.376   1.468   5.765
 4895POPC   GL263062   7.199   1.222   5.879
 4895POPC   C1A63063   7.288   1.568   6.242
 4895POPC   D2A63064   7.055   1.357   6.596
 4895POPC   C3A63065   7.217   1.264   6.997
 4895POPC   C4A63066   7.611   1.170   7.120
 4895POPC   C1B63067   7.385   1.039   6.233
 4895POPC   C2B63068   7.537   1.039   6.633
 4895POPC   C3B63069   7.873   0.816   6.890
 4895POPC   C4B63070   7.787   0.721   7.296
 4896POPC   NC363071  12.890  39.551   5.382
 4896POPC   PO463072  12.932  40.241   5.363
 4896POPC   GL163073  13.092  40.084   5.746
 4896POPC   GL263074  12.876  40.274   5.929
 4896POPC   C1A63075  13.118  39.891   6.177
 4896POPC   D2A63076  12.864  39.840   6.560
 4896POPC   C3A63077  13.054  39.745   6.960
 4896POPC   C4A63078  13.026  40.047   7.275
 4896POPC   C1B63079  12.577  40.135   6.225
 4896POPC   C2B63080  12.397  40.089   6.637
 4896POPC   C3B63081  12.583  40.103   7.047
 4896POPC   C4B63082  12.575  40.392   7.430
 4897POPC   NC363083  17.977   5.459   5.511
 4897POPC   PO463084  18.182   6.152   5.472
 4897POPC   GL163085  18.158   5.860   5.834
 4897POPC   GL263086  17.851   5.705   5.945
 4897POPC   C1A63087  18.226   5.897   6.277
 4897POPC   D2A63088  18.453   6.149   6.556
 4897POPC   C3A63089  18.339   5.982   6.931
 4897POPC   C4A63090  18.557   6.016   7.283
 4897POPC   C1B63091  17.942   5.484   6.350
 4897POPC   C2B63092  18.124   5.539   6.770
 4897POPC   C3B63093  18.243   5.546   7.205
 4897POPC   C4B63094  17.956   5.519   7.584
 4898POPC   NC363095   9.601  35.674   5.359
 4898POPC   PO463096  10.111  35.257   5.295
 4898POPC   GL163097  10.031  35.352   5.723
 4898POPC   GL263098  10.041  35.020   5.892
 4898POPC   C1A63099   9.903  35.550   6.137
 4898POPC   D2A63100  10.020  35.440   6.566
 4898POPC   C3A63101   9.863  35.577   6.972
 4898POPC   C4A63102  10.026  35.622   7.386
 4898POPC   C1B63103   9.756  35.045   6.284
 4898POPC   C2B63104   9.618  35.157   6.746
 4898POPC   C3B63105   9.831  35.094   7.173
 4898POPC   C4B63106   9.648  34.922   7.578
 4899POPC   NC363107  41.761  27.686   5.384
 4899POPC   PO463108  41.070  27.426   5.340
 4899POPC   GL163109  41.264  27.608   5.749
 4899POPC   GL263110  41.498  27.910   5.761
 4899POPC   C1A63111  41.548  27.503   6.136
 4899POPC   D2A63112  41.752  27.336   6.544
 4899POPC   C3A63113  41.592  27.543   6.927
 4899POPC   C4A63114  41.809  27.931   7.160
 4899POPC   C1B63115  41.657  28.033   6.163
 4899POPC   C2B63116  41.479  27.855   6.530
 4899POPC   C3B63117  41.339  27.977   6.930
 4899POPC   C4B63118  41.319  27.767   7.295
 4900POPC   NC363119  28.342   6.165   5.194
 4900POPC   PO463120  27.780   5.933   5.423
 4900POPC   GL163121  28.051   6.177   5.732
 4900POPC   GL263122  28.442   6.262   5.728
 4900POPC   C1A63123  28.164   6.029   6.155
 4900POPC   D2A63124  28.375   5.929   6.567
 4900POPC   C3A63125  28.207   5.803   6.982
 4900POPC   C4A63126  28.286   5.504   7.347
 4900POPC   C1B63127  28.690   6.135   6.102
 4900POPC   C2B63128  28.876   6.020   6.489
 4900POPC   C3B63129  28.888   6.150   6.932
 4900POPC   C4B63130  28.631   5.927   7.242
 4901POPC   NC363131  30.983  10.900   5.404
 4901POPC   PO463132  30.609  10.428   5.376
 4901POPC   GL163133  30.725  10.540   5.750
 4901POPC   GL263134  30.930  10.243   5.773
 4901POPC   C1A63135  30.515  10.636   6.148
 4901POPC   D2A63136  30.691  10.822   6.520
 4901POPC   C3A63137  30.536  10.664   6.892
 4901POPC   C4A63138  30.667  10.511   7.265
 4901POPC   C1B63139  30.730  10.159   6.186
 4901POPC   C2B63140  30.633  10.220   6.622
 4901POPC   C3B63141  30.794  10.087   7.010
 4901POPC   C4B63142  30.658  10.017   7.461
 4902POPC   NC363143   6.554   4.053   5.155
 4902POPC   PO463144   6.287   4.559   5.533
 4902POPC   GL163145   6.412   4.217   5.762
 4902POPC   GL263146   6.677   4.428   5.894
 4902POPC   C1A63147   6.559   4.034   6.161
 4902POPC   D2A63148   6.583   4.296   6.531
 4902POPC   C3A63149   6.454   4.083   6.906
 4902POPC   C4A63150   6.591   4.087   7.328
 4902POPC   C1B63151   6.927   4.654   6.192
 4902POPC   C2B63152   7.020   4.589   6.608
 4902POPC   C3B63153   6.757   4.546   6.975
 4902POPC   C4B63154   7.139   4.533   7.153
 4903POPC   NC363155  41.233  24.659   5.478
 4903POPC   PO463156  40.648  24.411   5.344
 4903POPC   GL163157  40.756  24.276   5.739
 4903POPC   GL263158  40.625  24.583   5.853
 4903POPC   C1A63159  40.659  24.089   6.140
 4903POPC   D2A63160  40.781  24.117   6.586
 4903POPC   C3A63161  40.652  24.409   6.932
 4903POPC   C4A63162  40.638  24.347   7.412
 4903POPC   C1B63163  40.756  24.579   6.293
 4903POPC   C2B63164  41.069  24.594   6.610
 4903POPC   C3B63165  41.090  24.803   6.976
 4903POPC   C4B63166  40.710  24.840   7.225
 4904POPC   NC363167  44.848  14.818   5.605
 4904POPC   PO463168  44.540  15.413   5.382
 4904POPC   GL163169  44.637  15.262   5.786
 4904POPC   GL263170  44.952  15.432   5.870
 4904POPC   C1A63171  44.539  15.334   6.238
 4904POPC   D2A63172  44.678  15.483   6.653
 4904POPC   C3A63173  44.491  15.369   7.046
 4904POPC   C4A63174  44.363  14.944   7.122
 4904POPC   C1B63175  44.962  15.074   6.178
 4904POPC   C2B63176  44.701  14.868   6.492
 4904POPC   C3B63177  44.877  14.708   6.859
 4904POPC   C4B63178   0.106  14.915   7.191
 4905POPC   NC363179  37.535  15.578   5.082
 4905POPC   PO463180  37.751  15.144   5.616
 4905POPC   GL163181  37.728  15.222   6.008
 4905POPC   GL263182  37.454  15.434   6.048
 4905POPC   C1A63183  37.883  15.058   6.371
 4905POPC   D2A63184  37.986  14.743   6.642
 4905POPC   C3A63185  37.870  14.992   6.989
 4905POPC   C4A63186  37.647  15.146   7.335
 4905POPC   C1B63187  37.400  15.235   6.405
 4905POPC   C2B63188  37.516  15.323   6.810
 4905POPC   C3B63189  37.303  15.485   7.143
 4905POPC   C4B63190  37.107  15.457   7.547
 4906POPC   NC363191  38.848  39.038   5.568
 4906POPC   PO463192  38.208  39.374   5.563
 4906POPC   GL163193  38.345  39.110   5.872
 4906POPC   GL263194  38.628  39.325   5.953
 4906POPC   C1A63195  38.264  39.159   6.296
 4906POPC   D2A63196  38.479  39.165   6.660
 4906POPC   C3A63197  38.185  39.196   6.961
 4906POPC   C4A63198  38.184  39.491   7.302
 4906POPC   C1B63199  38.727  38.957   6.210
 4906POPC   C2B63200  38.898  38.872   6.589
 4906POPC   C3B63201  38.900  39.022   6.980
 4906POPC   C4B63202  38.638  39.342   7.148
 4907POPC   NC363203  13.147  20.113   5.134
 4907POPC   PO463204  12.678  19.647   5.422
 4907POPC   GL163205  12.813  19.827   5.787
 4907POPC   GL263206  12.821  19.553   5.924
 4907POPC   C1A63207  12.845  20.018   6.195
 4907POPC   D2A63208  13.018  19.904   6.598
 4907POPC   C3A63209  13.219  20.156   6.876
 4907POPC   C4A63210  13.048  20.163   7.251
 4907POPC   C1B63211  12.571  19.584   6.276
 4907POPC   C2B63212  12.524  19.881   6.609
 4907POPC   C3B63213  12.692  19.865   7.048
 4907POPC   C4B63214  12.806  19.758   7.504
 4908POPC   NC363215   4.605  14.656   5.506
 4908POPC   PO463216   5.074  14.208   5.376
 4908POPC   GL163217   4.952  14.382   5.782
 4908POPC   GL263218   5.189  14.577   5.984
 4908POPC   C1A63219   4.862  14.269   6.234
 4908POPC   D2A63220   4.898  14.454   6.633
 4908POPC   C3A63221   5.282  14.326   6.780
 4908POPC   C4A63222   5.336  14.467   7.159
 4908POPC   C1B63223   5.310  14.101   6.030
 4908POPC   C2B63224   5.380  13.903   6.465
 4908POPC   C3B63225   5.455  13.855   6.942
 4908POPC   C4B63226   5.445  13.999   7.392
 4909POPC   NC363227   3.012  36.738   5.240
 4909POPC   PO463228   3.712  36.817   5.378
 4909POPC   GL163229   3.575  36.858   5.800
 4909POPC   GL263230   3.883  36.859   5.892
 4909POPC   C1A63231   3.454  37.009   6.210
 4909POPC   D2A63232   3.603  37.272   6.525
 4909POPC   C3A63233   3.467  37.170   6.947
 4909POPC   C4A63234   3.158  37.227   7.266
 4909POPC   C1B63235   3.871  36.699   6.272
 4909POPC   C2B63236   3.665  36.738   6.619
 4909POPC   C3B63237   3.856  36.840   6.950
 4909POPC   C4B63238   3.666  36.898   7.342
 4910POPC   NC363239  12.864  19.211   5.459
 4910POPC   PO463240  13.210  18.676   5.442
 4910POPC   GL163241  12.992  18.803   5.803
 4910POPC   GL263242  13.125  19.123   5.903
 4910POPC   C1A63243  12.830  18.819   6.214
 4910POPC   D2A63244  12.938  18.920   6.611
 4910POPC   C3A63245  13.055  18.642   6.916
 4910POPC   C4A63246  12.849  18.871   7.232
 4910POPC   C1B63247  13.018  19.305   6.309
 4910POPC   C2B63248  12.811  19.428   6.702
 4910POPC   C3B63249  12.777  19.364   7.128
 4910POPC   C4B63250  13.082  19.331   7.441
 4911POPC   NC363251  26.274  28.539   5.466
 4911POPC   PO463252  26.107  27.862   5.283
 4911POPC   GL163253  25.967  28.143   5.640
 4911POPC   GL263254  25.888  28.491   5.805
 4911POPC   C1A63255  25.901  28.086   6.083
 4911POPC   D2A63256  25.873  27.976   6.477
 4911POPC   C3A63257  25.840  28.272   6.764
 4911POPC   C4A63258  26.035  28.320   7.158
 4911POPC   C1B63259  26.030  28.629   6.245
 4911POPC   C2B63260  26.178  28.644   6.703
 4911POPC   C3B63261  26.493  28.520   7.036
 4911POPC   C4B63262  26.410  28.494   7.474
 4912POPC   NC363263  18.069  35.362   5.311
 4912POPC   PO463264  17.391  35.395   5.270
 4912POPC   GL163265  17.431  35.268   5.719
 4912POPC   GL263266  17.762  35.219   5.758
 4912POPC   C1A63267  17.378  35.455   6.164
 4912POPC   D2A63268  17.352  35.296   6.590
 4912POPC   C3A63269  17.179  35.511   6.948
 4912POPC   C4A63270  17.299  35.445   7.375
 4912POPC   C1B63271  17.727  35.089   6.212
 4912POPC   C2B63272  17.777  35.023   6.682
 4912POPC   C3B63273  17.603  35.151   7.101
 4912POPC   C4B63274  17.784  35.323   7.546
 4913POPC   NC363275  40.818  14.151   5.317
 4913POPC   PO463276  40.512  14.777   5.267
 4913POPC   GL163277  40.643  14.682   5.730
 4913POPC   GL263278  41.019  14.627   5.767
 4913POPC   C1A63279  40.754  14.645   6.223
 4913POPC   D2A63280  40.800  14.750   6.699
 4913POPC   C3A63281  40.603  14.396   6.986
 4913POPC   C4A63282  40.616  14.031   7.323
 4913POPC   C1B63283  41.273  14.573   6.161
 4913POPC   C2B63284  41.326  14.704   6.591
 4913POPC   C3B63285  41.236  14.564   7.001
 4913POPC   C4B63286  40.971  14.431   7.355
 4914POPC   NC363287  21.993  12.867   5.475
 4914POPC   PO463288  22.560  12.448   5.385
 4914POPC   GL163289  22.293  12.565   5.754
 4914POPC   GL263290  21.936  12.423   5.781
 4914POPC   C1A63291  22.311  12.948   6.057
 4914POPC   D2A63292  22.375  12.897   6.508
 4914POPC   C3A63293  22.189  13.042   6.926
 4914POPC   C4A63294  21.761  13.120   7.086
 4914POPC   C1B63295  21.951  12.619   6.217
 4914POPC   C2B63296  21.853  12.772   6.654
 4914POPC   C3B63297  21.940  12.598   7.082
 4914POPC   C4B63298  21.834  12.455   7.520
 4915POPC   NC363299  39.789  43.319   5.554
 4915POPC   PO463300  39.256  42.898   5.499
 4915POPC   GL163301  39.452  43.045   5.854
 4915POPC   GL263302  39.295  43.367   5.830
 4915POPC   C1A63303  39.321  42.833   6.201
 4915POPC   D2A63304  39.094  42.845   6.554
 4915POPC   C3A63305  39.290  42.963   6.906
 4915POPC   C4A63306  39.464  42.721   7.152
 4915POPC   C1B63307  39.023  43.256   6.204
 4915POPC   C2B63308  39.101  43.360   6.638
 4915POPC   C3B63309  38.936  43.298   7.075
 4915POPC   C4B63310  39.084  43.381   7.502
 4916POPC   NC363311  16.981  34.138   5.397
 4916POPC   PO463312  16.649  34.751   5.460
 4916POPC   GL163313  16.760  34.504   5.832
 4916POPC   GL263314  16.664  34.134   5.818
 4916POPC   C1A63315  16.739  34.679   6.269
 4916POPC   D2A63316  16.416  34.777   6.605
 4916POPC   C3A63317  16.616  34.768   7.021
 4916POPC   C4A63318  16.919  34.422   7.136
 4916POPC   C1B63319  16.631  34.182   6.275
 4916POPC   C2B63320  16.674  34.355   6.694
 4916POPC   C3B63321  16.418  34.301   7.099
 4916POPC   C4B63322  16.393  34.121   7.516
 4917POPC   NC363323   9.224  42.988   5.315
 4917POPC   PO463324   9.168  43.601   5.332
 4917POPC   GL163325   8.954  43.318   5.647
 4917POPC   GL263326   9.232  43.188   5.829
 4917POPC   C1A63327   8.810  43.144   6.091
 4917POPC   D2A63328   8.809  43.197   6.572
 4917POPC   C3A63329   8.900  42.865   6.936
 4917POPC   C4A63330   8.906  42.593   7.331
 4917POPC   C1B63331   9.260  43.337   6.278
 4917POPC   C2B63332   9.316  43.143   6.703
 4917POPC   C3B63333   9.282  43.112   7.172
 4917POPC   C4B63334   9.293  43.230   7.643
 4918POPC   NC363335  18.100  24.253   5.402
 4918POPC   PO463336  18.386  24.903   5.403
 4918POPC   GL163337  18.346  24.722   5.809
 4918POPC   GL263338  18.434  24.383   5.777
 4918POPC   C1A63339  18.506  24.593   6.225
 4918POPC   D2A63340  18.538  24.378   6.605
 4918POPC   C3A63341  18.340  24.649   6.882
 4918POPC   C4A63342  18.218  24.624   7.281
 4918POPC   C1B63343  18.122  24.267   6.102
 4918POPC   C2B63344  18.021  24.253   6.540
 4918POPC   C3B63345  18.094  24.189   6.973
 4918POPC   C4B63346  18.507  24.170   7.158
 4919POPC   NC363347  21.357   1.562   5.352
 4919POPC   PO463348  21.708   1.009   5.556
 4919POPC   GL163349  21.474   1.164   5.881
 4919POPC   GL263350  21.190   0.963   6.000
 4919POPC   C1A63351  21.507   1.152   6.336
 4919POPC   D2A63352  21.264   1.181   6.689
 4919POPC   C3A63353  21.553   1.149   7.057
 4919POPC   C4A63354  21.689   1.077   7.504
 4919POPC   C1B63355  21.081   1.390   6.152
 4919POPC   C2B63356  21.018   1.669   6.501
 4919POPC   C3B63357  21.080   1.617   6.902
 4919POPC   C4B63358  21.066   1.269   7.157
 4920POPC   NC363359   2.746   7.462   5.323
 4920POPC   PO463360   2.289   7.011   5.562
 4920POPC   GL163361   2.671   7.196   5.791
 4920POPC   GL263362   2.672   7.572   5.831
 4920POPC   C1A63363   2.755   7.127   6.247
 4920POPC   D2A63364   2.470   7.131   6.613
 4920POPC   C3A63365   2.631   7.196   7.011
 4920POPC   C4A63366   2.635   7.610   7.184
 4920POPC   C1B63367   2.920   7.612   6.223
 4920POPC   C2B63368   2.912   7.461   6.649
 4920POPC   C3B63369   3.094   7.404   7.052
 4920POPC   C4B63370   3.154   7.714   7.327
 4921POPC   NC363371  33.391  22.972   5.232
 4921POPC   PO463372  32.813  23.255   5.532
 4921POPC   GL163373  33.022  23.014   5.806
 4921POPC   GL263374  33.177  22.703   5.655
 4921POPC   C1A63375  32.871  22.838   6.172
 4921POPC   D2A63376  32.931  23.060   6.528
 4921POPC   C3A63377  32.706  22.983   6.866
 4921POPC   C4A63378  32.921  23.213   7.198
 4921POPC   C1B63379  33.332  22.625   6.086
 4921POPC   C2B63380  33.182  22.630   6.532
 4921POPC   C3B63381  33.181  22.812   6.965
 4921POPC   C4B63382  33.337  22.619   7.335
 4922POPC   NC363383  29.298  36.551   5.350
 4922POPC   PO463384  29.217  37.235   5.416
 4922POPC   GL163385  29.158  36.978   5.774
 4922POPC   GL263386  29.365  36.697   5.850
 4922POPC   C1A63387  29.271  37.033   6.225
 4922POPC   D2A63388  29.176  37.270   6.589
 4922POPC   C3A63389  28.833  37.057   6.813
 4922POPC   C4A63390  28.703  37.020   7.225
 4922POPC   C1B63391  29.649  36.620   6.203
 4922POPC   C2B63392  29.596  36.459   6.637
 4922POPC   C3B63393  29.478  36.622   7.020
 4922POPC   C4B63394  29.224  36.967   7.161
 4923POPC   NC363395   1.491  10.457   5.407
 4923POPC   PO463396   0.870  10.708   5.730
 4923POPC   GL163397   1.168  10.528   5.978
 4923POPC   GL263398   1.512  10.401   5.931
 4923POPC   C1A63399   1.160  10.504   6.401
 4923POPC   D2A63400   1.126  10.130   6.630
 4923POPC   C3A63401   1.148  10.298   7.018
 4923POPC   C4A63402   1.172  10.773   7.018
 4923POPC   C1B63403   1.659  10.546   6.362
 4923POPC   C2B63404   1.742  10.912   6.642
 4923POPC   C3B63405   1.661  10.885   7.109
 4923POPC   C4B63406   1.598  10.434   7.215
 4924POPC   NC363407  41.816  14.175   5.368
 4924POPC   PO463408  41.521  13.573   5.306
 4924POPC   GL163409  41.556  13.448   5.776
 4924POPC   GL263410  41.384  13.127   5.874
 4924POPC   C1A63411  41.469  13.590   6.230
 4924POPC   D2A63412  41.337  13.876   6.583
 4924POPC   C3A63413  41.424  13.703   6.996
 4924POPC   C4A63414  41.538  13.720   7.420
 4924POPC   C1B63415  41.153  13.198   6.289
 4924POPC   C2B63416  41.228  13.298   6.751
 4924POPC   C3B63417  41.298  13.271   7.237
 4924POPC   C4B63418  41.621  13.259   7.609
 4925POPC   NC363419   3.316  44.301   5.339
 4925POPC   PO463420   3.747  44.878   5.383
 4925POPC   GL163421   3.577  44.597   5.716
 4925POPC   GL263422   3.213  44.580   5.780
 4925POPC   C1A63423   3.564  44.649   6.172
 4925POPC   D2A63424   3.251  44.562   6.515
 4925POPC   C3A63425   3.522  44.582   6.838
 4925POPC   C4A63426   3.622  44.641   7.239
 4925POPC   C1B63427   3.131  44.884   6.132
 4925POPC   C2B63428   3.278   0.064   6.545
 4925POPC   C3B63429   3.220  44.944   6.989
 4925POPC   C4B63430   3.254  44.894   7.485
 4926POPC   NC363431  38.906  25.547   5.587
 4926POPC   PO463432  39.037  24.919   5.283
 4926POPC   GL163433  39.316  24.927   5.727
 4926POPC   GL263434  39.320  25.294   5.807
 4926POPC   C1A63435  39.480  25.049   6.200
 4926POPC   D2A63436  39.234  25.198   6.586
 4926POPC   C3A63437  39.322  25.137   7.060
 4926POPC   C4A63438  39.016  24.914   7.367
 4926POPC   C1B63439  39.309  25.564   6.168
 4926POPC   C2B63440  39.094  25.700   6.507
 4926POPC   C3B63441  39.275  25.618   6.879
 4926POPC   C4B63442  39.118  25.709   7.244
 4927POPC   NC363443  44.042  11.159   5.198
 4927POPC   PO463444  43.462  11.463   5.329
 4927POPC   GL163445  43.831  11.437   5.652
 4927POPC   GL263446  44.199  11.572   5.628
 4927POPC   C1A63447  43.996  11.268   6.061
 4927POPC   D2A63448  43.807  11.417   6.454
 4927POPC   C3A63449  43.783  11.247   6.834
 4927POPC   C4A63450  43.818  11.106   7.198
 4927POPC   C1B63451  44.232  11.723   6.093
 4927POPC   C2B63452  44.233  11.675   6.543
 4927POPC   C3B63453  44.392  11.615   6.966
 4927POPC   C4B63454  44.355  11.708   7.418
 4928POPC   NC363455  14.616  35.670   5.399
 4928POPC   PO463456  14.113  35.221   5.466
 4928POPC   GL163457  14.254  35.489   5.797
 4928POPC   GL263458  14.609  35.421   5.864
 4928POPC   C1A63459  14.310  35.499   6.262
 4928POPC   D2A63460  14.609  35.352   6.594
 4928POPC   C3A63461  14.439  35.444   7.016
 4928POPC   C4A63462  14.054  35.385   7.317
 4928POPC   C1B63463  14.800  35.700   6.210
 4928POPC   C2B63464  14.940  35.765   6.665
 4928POPC   C3B63465  14.842  35.804   7.118
 4928POPC   C4B63466  14.995  35.783   7.534
 4929POPC   NC363467   1.023   0.110   5.594
 4929POPC   PO463468   0.777  44.561   5.257
 4929POPC   GL163469   0.897  44.569   5.726
 4929POPC   GL263470   1.227  44.684   5.834
 4929POPC   C1A63471   0.952  44.403   6.185
 4929POPC   D2A63472   0.846  44.246   6.642
 4929POPC   C3A63473   1.134  44.413   6.986
 4929POPC   C4A63474   1.244  44.638   7.363
 4929POPC   C1B63475   1.319  44.895   6.245
 4929POPC   C2B63476   1.342  44.817   6.691
 4929POPC   C3B63477   1.403   0.017   7.074
 4929POPC   C4B63478   1.780   0.063   7.270
 4930POPC   NC363479   0.259  43.508   5.363
 4930POPC   PO463480  44.766  43.117   5.401
 4930POPC   GL163481  44.623  43.208   5.819
 4930POPC   GL263482  44.321  42.981   5.868
 4930POPC   C1A63483  44.863  43.384   6.192
 4930POPC   D2A63484  44.974  43.202   6.604
 4930POPC   C3A63485  44.937  43.370   7.070
 4930POPC   C4A63486  44.995  43.633   7.477
 4930POPC   C1B63487  44.555  42.994   6.291
 4930POPC   C2B63488  44.593  42.891   6.725
 4930POPC   C3B63489  44.629  42.948   7.157
 4930POPC   C4B63490  44.629  42.824   7.582
 4931POPC   NC363491   0.142  30.008   5.352
 4931POPC   PO463492   0.724  29.754   5.369
 4931POPC   GL163493   0.510  29.926   5.780
 4931POPC   GL263494   0.184  29.795   5.852
 4931POPC   C1A63495   0.435  30.077   6.257
 4931POPC   D2A63496   0.820  30.250   6.543
 4931POPC   C3A63497   0.861  30.142   6.961
 4931POPC   C4A63498   0.590  30.087   7.276
 4931POPC   C1B63499  44.926  30.020   6.178
 4931POPC   C2B63500   0.006  30.035   6.635
 4931POPC   C3B63501   0.255  29.853   6.981
 4931POPC   C4B63502   0.466  29.608   7.340
 4932POPC   NC363503  35.612  30.473   5.365
 4932POPC   PO463504  35.054  30.873   5.455
 4932POPC   GL163505  35.182  30.876   5.879
 4932POPC   GL263506  35.467  30.661   5.825
 4932POPC   C1A63507  35.045  30.713   6.300
 4932POPC   D2A63508  35.279  30.561   6.675
 4932POPC   C3A63509  35.178  30.735   7.080
 4932POPC   C4A63510  35.096  30.814   7.506
 4932POPC   C1B63511  35.551  30.753   6.243
 4932POPC   C2B63512  35.750  30.750   6.613
 4932POPC   C3B63513  35.698  30.568   7.000
 4932POPC   C4B63514  35.609  30.772   7.350
 4933POPC   NC363515  14.655  30.557   5.444
 4933POPC   PO463516  14.048  30.553   5.488
 4933POPC   GL163517  14.283  30.778   5.819
 4933POPC   GL263518  14.641  30.905   5.840
 4933POPC   C1A63519  14.305  30.665   6.266
 4933POPC   D2A63520  14.042  30.674   6.620
 4933POPC   C3A63521  14.289  30.623   6.970
 4933POPC   C4A63522  14.285  30.803   7.359
 4933POPC   C1B63523  14.772  30.539   6.118
 4933POPC   C2B63524  14.758  30.316   6.510
 4933POPC   C3B63525  14.904  30.355   6.948
 4933POPC   C4B63526  14.690  30.520   7.312
 4934POPC   NC363527  21.852  39.209   5.451
 4934POPC   PO463528  22.452  38.863   5.519
 4934POPC   GL163529  22.169  39.011   5.852
 4934POPC   GL263530  22.122  39.374   5.856
 4934POPC   C1A63531  21.970  38.951   6.263
 4934POPC   D2A63532  21.801  39.073   6.669
 4934POPC   C3A63533  22.086  39.081   7.022
 4934POPC   C4A63534  22.105  39.037   7.470
 4934POPC   C1B63535  22.286  39.361   6.283
 4934POPC   C2B63536  22.179  39.510   6.704
 4934POPC   C3B63537  22.434  39.466   7.084
 4934POPC   C4B63538  22.595  39.065   6.969
 4935POPC   NC363539  18.034  42.697   5.414
 4935POPC   PO463540  17.780  43.308   5.386
 4935POPC   GL163541  17.736  43.213   5.827
 4935POPC   GL263542  17.663  42.875   5.747
 4935POPC   C1A63543  17.557  43.214   6.296
 4935POPC   D2A63544  17.376  43.114   6.733
 4935POPC   C3A63545  17.570  43.249   7.120
 4935POPC   C4A63546  17.540  43.056   7.515
 4935POPC   C1B63547  17.778  42.781   6.164
 4935POPC   C2B63548  17.615  42.672   6.627
 4935POPC   C3B63549  17.506  42.736   7.094
 4935POPC   C4B63550  17.725  42.600   7.508
 4936POPC   NC363551  29.677  35.061   5.584
 4936POPC   PO463552  30.155  35.521   5.381
 4936POPC   GL163553  29.906  35.581   5.775
 4936POPC   GL263554  29.946  35.243   5.976
 4936POPC   C1A63555  29.749  35.629   6.220
 4936POPC   D2A63556  29.998  35.432   6.553
 4936POPC   C3A63557  29.902  35.444   6.995
 4936POPC   C4A63558  29.957  35.182   7.384
 4936POPC   C1B63559  29.581  35.144   6.248
 4936POPC   C2B63560  29.378  35.025   6.642
 4936POPC   C3B63561  29.579  35.050   7.022
 4936POPC   C4B63562  29.460  35.047   7.435
 4937POPC   NC363563  44.214  41.471   5.459
 4937POPC   PO463564  43.573  41.529   5.391
 4937POPC   GL163565  43.821  41.585   5.799
 4937POPC   GL263566  43.714  41.336   6.068
 4937POPC   C1A63567  43.850  41.833   6.192
 4937POPC   D2A63568  43.851  41.634   6.594
 4937POPC   C3A63569  43.678  41.774   6.963
 4937POPC   C4A63570  43.625  41.472   7.295
 4937POPC   C1B63571  44.164  41.412   6.225
 4937POPC   C2B63572  44.344  41.479   6.654
 4937POPC   C3B63573  44.137  41.520   7.084
 4937POPC   C4B63574  44.073  41.582   7.543
 4938POPC   NC363575  35.997  43.648   5.580
 4938POPC   PO463576  36.577  43.922   5.413
 4938POPC   GL163577  36.320  43.988   5.817
 4938POPC   GL263578  35.959  44.066   5.871
 4938POPC   C1A63579  36.371  43.667   6.149
 4938POPC   D2A63580  36.365  43.639   6.598
 4938POPC   C3A63581  36.272  44.030   6.827
 4938POPC   C4A63582  36.132  44.130   7.238
 4938POPC   C1B63583  36.044  44.034   6.336
 4938POPC   C2B63584  35.864  43.746   6.664
 4938POPC   C3B63585  36.017  43.635   7.046
 4938POPC   C4B63586  35.949  43.697   7.470
 4939POPC   NC363587  37.976  26.933   5.410
 4939POPC   PO463588  37.299  26.721   5.297
 4939POPC   GL163589  37.550  26.753   5.706
 4939POPC   GL263590  37.813  26.502   5.782
 4939POPC   C1A63591  37.807  26.929   6.078
 4939POPC   D2A63592  37.892  26.781   6.509
 4939POPC   C3A63593  37.851  27.130   6.790
 4939POPC   C4A63594  37.856  27.172   7.220
 4939POPC   C1B63595  37.514  26.536   6.186
 4939POPC   C2B63596  37.370  26.836   6.542
 4939POPC   C3B63597  37.462  26.826   6.986
 4939POPC   C4B63598  37.837  26.623   7.133
 4940POPC   NC363599  24.873   9.180   5.223
 4940POPC   PO463600  24.213   8.868   5.172
 4940POPC   GL163601  24.332   8.993   5.628
 4940POPC   GL263602  23.997   9.189   5.731
 4940POPC   C1A63603  24.671   8.887   6.014
 4940POPC   D2A63604  24.881   8.874   6.467
 4940POPC   C3A63605  24.687   8.854   6.910
 4940POPC   C4A63606  24.846   8.775   7.304
 4940POPC   C1B63607  24.263   9.193   6.102
 4940POPC   C2B63608  24.375   9.038   6.507
 4940POPC   C3B63609  24.235   9.081   6.927
 4940POPC   C4B63610  24.243   8.756   7.266
 4941POPC   NC363611  10.565   8.846   5.330
 4941POPC   PO463612  10.375   9.465   5.468
 4941POPC   GL163613  10.450   9.111   5.772
 4941POPC   GL263614  10.775   9.107   5.781
 4941POPC   C1A63615  10.332   8.997   6.202
 4941POPC   D2A63616  10.516   8.891   6.628
 4941POPC   C3A63617  10.320   8.794   7.058
 4941POPC   C4A63618  10.523   8.895   7.458
 4941POPC   C1B63619  10.838   9.095   6.237
 4941POPC   C2B63620  10.809   9.311   6.663
 4941POPC   C3B63621  10.785   9.278   7.122
 4941POPC   C4B63622  10.862   9.276   7.605
 4942POPC   NC363623  38.358   6.964   5.448
 4942POPC   PO463624  38.112   6.339   5.357
 4942POPC   GL163625  38.324   6.527   5.705
 4942POPC   GL263626  38.075   6.759   5.834
 4942POPC   C1A63627  38.500   6.651   6.096
 4942POPC   D2A63628  38.389   6.548   6.536
 4942POPC   C3A63629  38.629   6.774   6.846
 4942POPC   C4A63630  38.689   6.626   7.262
 4942POPC   C1B63631  38.090   6.904   6.293
 4942POPC   C2B63632  38.134   6.962   6.719
 4942POPC   C3B63633  38.172   6.690   7.075
 4942POPC   C4B63634  38.253   6.788   7.496
 4943POPC   NC363635  24.881  33.705   5.564
 4943POPC   PO463636  25.345  34.062   5.165
 4943POPC   GL163637  25.410  34.068   5.668
 4943POPC   GL263638  25.368  33.741   5.823
 4943POPC   C1A63639  25.215  34.093   6.141
 4943POPC   D2A63640  24.982  33.903   6.515
 4943POPC   C3A63641  25.163  33.969   6.904
 4943POPC   C4A63642  25.547  33.756   7.002
 4943POPC   C1B63643  25.115  33.552   6.177
 4943POPC   C2B63644  25.035  33.376   6.640
 4943POPC   C3B63645  25.120  33.489   7.112
 4943POPC   C4B63646  25.361  33.483   7.518
 4944POPC   NC363647  35.879  18.258   5.390
 4944POPC   PO463648  36.519  18.251   5.211
 4944POPC   GL163649  36.328  18.150   5.662
 4944POPC   GL263650  36.170  18.476   5.762
 4944POPC   C1A63651  36.135  18.075   6.105
 4944POPC   D2A63652  35.879  18.300   6.427
 4944POPC   C3A63653  35.881  18.198   6.876
 4944POPC   C4A63654  35.991  17.975   7.279
 4944POPC   C1B63655  36.330  18.554   6.187
 4944POPC   C2B63656  36.375  18.258   6.519
 4944POPC   C3B63657  36.359  18.054   6.899
 4944POPC   C4B63658  36.239  18.415   7.179
 4945POPC   NC363659  34.334  17.247   5.406
 4945POPC   PO463660  34.720  17.801   5.171
 4945POPC   GL163661  34.714  17.767   5.643
 4945POPC   GL263662  34.366  17.850   5.769
 4945POPC   C1A63663  34.648  17.492   6.025
 4945POPC   D2A63664  34.395  17.499   6.425
 4945POPC   C3A63665  34.627  17.469   6.816
 4945POPC   C4A63666  34.703  17.263   7.198
 4945POPC   C1B63667  34.553  17.967   6.195
 4945POPC   C2B63668  34.560  17.962   6.660
 4945POPC   C3B63669  34.380  17.842   7.065
 4945POPC   C4B63670  34.628  17.710   7.454
 4946POPC   NC363671   2.352  40.796   5.071
 4946POPC   PO463672   1.833  40.607   5.518
 4946POPC   GL163673   1.936  40.861   5.874
 4946POPC   GL263674   2.035  40.609   6.077
 4946POPC   C1A63675   2.073  41.093   6.252
 4946POPC   D2A63676   2.127  40.824   6.606
 4946POPC   C3A63677   2.043  40.906   7.033
 4946POPC   C4A63678   2.056  40.905   7.476
 4946POPC   C1B63679   1.661  40.809   6.304
 4946POPC   C2B63680   1.580  40.693   6.714
 4946POPC   C3B63681   1.793  40.438   6.999
 4946POPC   C4B63682   2.108  40.422   7.316
 4947POPC   NC363683   5.971  13.173   5.248
 4947POPC   PO463684   6.321  12.835   5.641
 4947POPC   GL163685   5.896  12.866   5.776
 4947POPC   GL263686   5.670  13.147   5.685
 4947POPC   C1A63687   5.878  12.803   6.217
 4947POPC   D2A63688   6.157  12.942   6.553
 4947POPC   C3A63689   6.243  12.782   6.989
 4947POPC   C4A63690   6.045  12.948   7.375
 4947POPC   C1B63691   5.592  13.211   6.131
 4947POPC   C2B63692   5.573  13.007   6.564
 4947POPC   C3B63693   5.722  12.961   6.966
 4947POPC   C4B63694   5.689  13.310   7.209
 4948POPC   NC363695  25.656  35.719   5.367
 4948POPC   PO463696  25.425  35.042   5.345
 4948POPC   GL163697  25.361  35.393   5.625
 4948POPC   GL263698  25.071  35.343   5.760
 4948POPC   C1A63699  25.424  35.605   6.051
 4948POPC   D2A63700  25.421  35.702   6.502
 4948POPC   C3A63701  25.191  35.570   6.877
 4948POPC   C4A63702  25.340  35.496   7.315
 4948POPC   C1B63703  25.310  35.121   6.091
 4948POPC   C2B63704  25.432  35.168   6.519
 4948POPC   C3B63705  25.263  35.062   6.933
 4948POPC   C4B63706  25.418  34.981   7.333
 4949POPC   NC363707  23.180  29.423   5.074
 4949POPC   PO463708  22.910  29.240   5.688
 4949POPC   GL163709  23.188  29.115   5.984
 4949POPC   GL263710  23.176  28.809   5.866
 4949POPC   C1A63711  23.186  29.284   6.365
 4949POPC   D2A63712  22.833  29.436   6.587
 4949POPC   C3A63713  22.954  29.443   6.989
 4949POPC   C4A63714  22.750  29.290   7.343
 4949POPC   C1B63715  22.902  28.852   6.301
 4949POPC   C2B63716  22.944  28.959   6.737
 4949POPC   C3B63717  22.885  28.865   7.140
 4949POPC   C4B63718  22.716  28.796   7.574
 4950POPC   NC363719  16.037  19.985   5.400
 4950POPC   PO463720  16.019  19.270   5.397
 4950POPC   GL163721  15.972  19.597   5.708
 4950POPC   GL263722  16.299  19.759   5.825
 4950POPC   C1A63723  15.842  19.780   6.092
 4950POPC   D2A63724  16.084  19.745   6.479
 4950POPC   C3A63725  15.839  19.880   6.806
 4950POPC   C4A63726  15.714  19.723   7.162
 4950POPC   C1B63727  16.258  20.111   6.149
 4950POPC   C2B63728  16.186  20.245   6.613
 4950POPC   C3B63729  16.237  20.054   7.060
 4950POPC   C4B63730  16.229  20.152   7.538
 4951POPC   NC363731  44.547   3.382   5.047
 4951POPC   PO463732  44.981   3.289   5.582
 4951POPC   GL163733  44.889   3.317   5.974
 4951POPC   GL263734  44.897   3.680   5.971
 4951POPC   C1A63735  44.759   3.368   6.398
 4951POPC   D2A63736  44.848   3.751   6.640
 4951POPC   C3A63737  44.832   3.597   7.049
 4951POPC   C4A63738   0.104   3.326   7.271
 4951POPC   C1B63739  44.504   3.740   6.209
 4951POPC   C2B63740  44.331   3.794   6.602
 4951POPC   C3B63741  44.506   3.981   6.985
 4951POPC   C4B63742  44.439   3.745   7.368
 4952POPC   NC363743  30.310  37.860   5.537
 4952POPC   PO463744  29.703  37.726   5.286
 4952POPC   GL163745  29.745  37.728   5.729
 4952POPC   GL263746  29.712  38.070   5.735
 4952POPC   C1A63747  29.983  37.598   6.130
 4952POPC   D2A63748  30.152  37.463   6.572
 4952POPC   C3A63749  29.970  37.631   6.988
 4952POPC   C4A63750  29.940  37.931   7.374
 4952POPC   C1B63751  29.761  38.065   6.158
 4952POPC   C2B63752  29.866  37.897   6.552
 4952POPC   C3B63753  29.694  38.080   6.908
 4952POPC   C4B63754  29.453  37.973   7.233
 4953POPC   NC363755  37.144  27.061   5.582
 4953POPC   PO463756  37.064  27.693   5.309
 4953POPC   GL163757  36.901  27.560   5.721
 4953POPC   GL263758  36.804  27.247   5.910
 4953POPC   C1A63759  37.043  27.749   6.109
 4953POPC   D2A63760  37.231  27.731   6.501
 4953POPC   C3A63761  37.095  27.934   6.863
 4953POPC   C4A63762  37.051  27.668   7.196
 4953POPC   C1B63763  36.934  27.300   6.383
 4953POPC   C2B63764  36.805  27.529   6.756
 4953POPC   C3B63765  36.519  27.641   7.131
 4953POPC   C4B63766  36.464  27.396   7.544
 4954POPC   NC363767  23.446  34.926   5.563
 4954POPC   PO463768  23.882  34.646   5.131
 4954POPC   GL163769  23.935  34.732   5.607
 4954POPC   GL263770  23.698  34.523   5.797
 4954POPC   C1A63771  23.913  34.908   6.080
 4954POPC   D2A63772  23.755  34.930   6.555
 4954POPC   C3A63773  23.926  34.822   6.995
 4954POPC   C4A63774  24.035  34.372   7.171
 4954POPC   C1B63775  23.840  34.409   6.235
 4954POPC   C2B63776  23.794  34.424   6.706
 4954POPC   C3B63777  23.542  34.499   7.116
 4954POPC   C4B63778  23.584  34.360   7.559
 4955POPC   NC363779  38.947  26.734   5.504
 4955POPC   PO463780  38.288  26.583   5.349
 4955POPC   GL163781  38.365  26.724   5.768
 4955POPC   GL263782  38.657  26.540   5.883
 4955POPC   C1A63783  38.338  26.842   6.207
 4955POPC   D2A63784  38.382  26.660   6.613
 4955POPC   C3A63785  38.270  26.876   6.991
 4955POPC   C4A63786  38.385  27.202   7.268
 4955POPC   C1B63787  38.772  26.526   6.303
 4955POPC   C2B63788  38.872  26.575   6.753
 4955POPC   C3B63789  38.734  26.635   7.193
 4955POPC   C4B63790  38.692  26.378   7.591
 4956POPC   NC363791  24.705   5.771   5.212
 4956POPC   PO463792  24.277   5.619   5.645
 4956POPC   GL163793  24.532   5.649   5.947
 4956POPC   GL263794  24.594   5.982   5.894
 4956POPC   C1A63795  24.418   5.730   6.376
 4956POPC   D2A63796  24.122   6.016   6.619
 4956POPC   C3A63797  24.246   6.044   7.030
 4956POPC   C4A63798  24.465   5.661   7.143
 4956POPC   C1B63799  24.811   6.078   6.262
 4956POPC   C2B63800  24.678   6.062   6.693
 4956POPC   C3B63801  24.750   6.102   7.130
 4956POPC   C4B63802  24.970   6.164   7.478
 4957POPC   NC363803  24.866  10.840   5.430
 4957POPC   PO463804  25.300  10.379   5.315
 4957POPC   GL163805  25.141  10.528   5.733
 4957POPC   GL263806  25.477  10.463   5.814
 4957POPC   C1A63807  25.132  10.687   6.195
 4957POPC   D2A63808  24.902  10.685   6.612
 4957POPC   C3A63809  25.062  10.558   6.994
 4957POPC   C4A63810  25.177  10.844   7.263
 4957POPC   C1B63811  25.422  10.268   6.212
 4957POPC   C2B63812  25.420  10.511   6.607
 4957POPC   C3B63813  25.620  10.478   7.004
 4957POPC   C4B63814  25.708  10.093   7.255
 4958POPC   NC363815  10.762   2.856   4.983
 4958POPC   PO463816  10.229   2.815   5.475
 4958POPC   GL163817  10.316   2.963   5.871
 4958POPC   GL263818  10.069   3.211   5.998
 4958POPC   C1A63819  10.537   2.731   6.177
 4958POPC   D2A63820  10.377   2.480   6.510
 4958POPC   C3A63821  10.546   2.553   6.915
 4958POPC   C4A63822  10.326   2.466   7.280
 4958POPC   C1B63823  10.227   3.030   6.439
 4958POPC   C2B63824  10.623   2.984   6.625
 4958POPC   C3B63825  10.674   3.069   7.029
 4958POPC   C4B63826  10.316   3.014   7.290
 4959POPC   NC363827   9.484  25.601   5.450
 4959POPC   PO463828   9.958  25.086   5.370
 4959POPC   GL163829   9.794  25.285   5.745
 4959POPC   GL263830   9.489  25.149   5.775
 4959POPC   C1A63831   9.956  25.219   6.200
 4959POPC   D2A63832  10.118  25.117   6.659
 4959POPC   C3A63833   9.950  25.215   7.116
 4959POPC   C4A63834   9.753  25.397   7.520
 4959POPC   C1B63835   9.428  25.293   6.201
 4959POPC   C2B63836   9.626  25.259   6.603
 4959POPC   C3B63837   9.480  25.378   7.003
 4959POPC   C4B63838   9.335  25.198   7.355
 4960POPC   NC363839  16.815  20.422   5.402
 4960POPC   PO463840  16.688  21.032   5.690
 4960POPC   GL163841  16.639  20.570   5.866
 4960POPC   GL263842  16.982  20.403   5.887
 4960POPC   C1A63843  16.682  20.430   6.314
 4960POPC   D2A63844  16.802  20.777   6.595
 4960POPC   C3A63845  16.649  20.761   7.003
 4960POPC   C4A63846  16.469  20.464   7.221
 4960POPC   C1B63847  17.119  20.711   6.177
 4960POPC   C2B63848  17.342  20.768   6.559
 4960POPC   C3B63849  17.173  20.726   6.940
 4960POPC   C4B63850  17.008  20.451   7.231
 4961POPC   NC363851   2.375  39.169   5.176
 4961POPC   PO463852   1.875  39.356   5.618
 4961POPC   GL163853   1.932  39.042   5.894
 4961POPC   GL263854   2.239  38.941   5.754
 4961POPC   C1A63855   1.929  38.891   6.326
 4961POPC   D2A63856   1.982  38.850   6.774
 4961POPC   C3A63857   1.794  39.138   7.064
 4961POPC   C4A63858   1.374  39.049   7.097
 4961POPC   C1B63859   2.428  39.009   6.166
 4961POPC   C2B63860   2.358  39.164   6.571
 4961POPC   C3B63861   2.296  39.183   6.990
 4961POPC   C4B63862   2.437  39.265   7.378
 4962POPC   NC363863  11.009  40.963   5.408
 4962POPC   PO463864  11.348  40.449   5.560
 4962POPC   GL163865  11.321  40.780   5.784
 4962POPC   GL263866  11.656  40.887   5.809
 4962POPC   C1A63867  11.017  40.910   6.081
 4962POPC   D2A63868  10.995  41.000   6.506
 4962POPC   C3A63869  11.124  40.620   6.734
 4962POPC   C4A63870  11.197  40.639   7.168
 4962POPC   C1B63871  11.516  41.020   6.188
 4962POPC   C2B63872  11.449  41.216   6.555
 4962POPC   C3B63873  11.348  41.045   6.903
 4962POPC   C4B63874  11.571  40.972   7.218
 4963POPC   NC363875  30.700  42.694   5.412
 4963POPC   PO463876  31.163  43.218   5.346
 4963POPC   GL163877  31.015  42.954   5.745
 4963POPC   GL263878  30.610  42.951   5.839
 4963POPC   C1A63879  30.941  42.868   6.215
 4963POPC   D2A63880  30.610  43.003   6.525
 4963POPC   C3A63881  30.835  43.014   6.902
 4963POPC   C4A63882  30.850  43.417   7.110
 4963POPC   C1B63883  30.354  43.247   6.125
 4963POPC   C2B63884  30.133  43.411   6.517
 4963POPC   C3B63885  30.373  43.474   6.920
 4963POPC   C4B63886  30.423  43.069   7.162
 4964POPC   NC363887  28.163  26.529   5.442
 4964POPC   PO463888  28.546  27.166   5.456
 4964POPC   GL163889  28.271  27.004   5.778
 4964POPC   GL263890  28.463  26.714   5.826
 4964POPC   C1A63891  28.331  26.979   6.242
 4964POPC   D2A63892  28.544  26.891   6.633
 4964POPC   C3A63893  28.246  26.734   6.950
 4964POPC   C4A63894  27.981  26.763   7.322
 4964POPC   C1B63895  28.633  26.539   6.220
 4964POPC   C2B63896  28.581  26.386   6.675
 4964POPC   C3B63897  28.718  26.562   7.089
 4964POPC   C4B63898  28.681  26.525   7.554
 4965POPC   NC363899  42.022  33.302   5.509
 4965POPC   PO463900  42.590  32.894   5.296
 4965POPC   GL163901  42.603  32.892   5.789
 4965POPC   GL263902  42.254  33.005   5.891
 4965POPC   C1A63903  42.629  32.979   6.266
 4965POPC   D2A63904  42.769  33.278   6.592
 4965POPC   C3A63905  42.572  33.321   6.986
 4965POPC   C4A63906  42.603  32.995   7.253
 4965POPC   C1B63907  42.157  33.248   6.246
 4965POPC   C2B63908  42.265  33.112   6.640
 4965POPC   C3B63909  42.130  32.991   7.041
 4965POPC   C4B63910  41.850  33.294   7.202
 4966POPC   NC363911  28.505  38.169   5.368
 4966POPC   PO463912  28.619  38.849   5.408
 4966POPC   GL163913  28.302  38.557   5.681
 4966POPC   GL263914  28.465  38.304   5.855
 4966POPC   C1A63915  28.095  38.503   6.155
 4966POPC   D2A63916  28.310  38.527   6.590
 4966POPC   C3A63917  28.165  38.450   7.007
 4966POPC   C4A63918  28.269  38.165   7.316
 4966POPC   C1B63919  28.568  38.654   6.166
 4966POPC   C2B63920  28.812  38.622   6.524
 4966POPC   C3B63921  28.757  38.470   6.920
 4966POPC   C4B63922  28.673  38.513   7.313
 4967POPC   NC363923   4.617   5.973   5.562
 4967POPC   PO463924   5.062   5.474   5.412
 4967POPC   GL163925   5.064   5.744   5.760
 4967POPC   GL263926   5.107   6.110   5.638
 4967POPC   C1A63927   4.899   5.668   6.174
 4967POPC   D2A63928   5.036   5.540   6.590
 4967POPC   C3A63929   5.225   5.810   6.871
 4967POPC   C4A63930   5.368   5.866   7.239
 4967POPC   C1B63931   4.991   6.199   6.062
 4967POPC   C2B63932   5.042   6.066   6.466
 4967POPC   C3B63933   4.921   6.221   6.838
 4967POPC   C4B63934   5.069   6.281   7.223
 4968POPC   NC363935  31.780  18.807   5.390
 4968POPC   PO463936  31.493  19.422   5.517
 4968POPC   GL163937  31.436  19.156   5.873
 4968POPC   GL263938  31.534  18.795   5.832
 4968POPC   C1A63939  31.684  19.135   6.252
 4968POPC   D2A63940  31.871  19.035   6.637
 4968POPC   C3A63941  31.649  19.192   6.987
 4968POPC   C4A63942  31.379  19.107   7.353
 4968POPC   C1B63943  31.345  18.753   6.233
 4968POPC   C2B63944  31.331  18.954   6.621
 4968POPC   C3B63945  31.397  18.745   6.970
 4968POPC   C4B63946  31.507  18.480   7.288
 4969POPC   NC363947   2.313  39.443   5.692
 4969POPC   PO463948   2.696  39.543   5.140
 4969POPC   GL163949   2.987  39.498   5.627
 4969POPC   GL263950   2.815  39.486   5.901
 4969POPC   C1A63951   2.978  39.064   6.065
 4969POPC   D2A63952   2.838  38.983   6.511
 4969POPC   C3A63953   2.914  39.229   6.868
 4969POPC   C4A63954   2.946  39.141   7.314
 4969POPC   C1B63955   2.605  39.505   6.282
 4969POPC   C2B63956   2.291  39.720   6.541
 4969POPC   C3B63957   2.427  39.649   6.910
 4969POPC   C4B63958   2.754  39.620   7.167
 4970POPC   NC363959  18.829  31.245   5.362
 4970POPC   PO463960  19.409  31.586   5.371
 4970POPC   GL163961  19.387  31.269   5.761
 4970POPC   GL263962  19.027  31.249   5.841
 4970POPC   C1A63963  19.321  31.258   6.252
 4970POPC   D2A63964  19.164  31.433   6.622
 4970POPC   C3A63965  19.308  31.387   7.027
 4970POPC   C4A63966  19.028  31.461   7.354
 4970POPC   C1B63967  18.950  31.591   6.148
 4970POPC   C2B63968  18.732  31.700   6.523
 4970POPC   C3B63969  18.808  31.687   6.945
 4970POPC   C4B63970  18.761  31.894   7.329
 4971POPC   NC363971  36.345  11.437   5.538
 4971POPC   PO463972  36.966  11.290   5.243
 4971POPC   GL163973  36.928  11.223   5.703
 4971POPC   GL263974  36.617  11.037   5.781
 4971POPC   C1A63975  37.066  11.370   6.129
 4971POPC   D2A63976  37.212  11.248   6.551
 4971POPC   C3A63977  37.032  11.388   6.951
 4971POPC   C4A63978  37.277  11.619   7.252
 4971POPC   C1B63979  36.580  11.245   6.203
 4971POPC   C2B63980  36.724  11.110   6.600
 4971POPC   C3B63981  36.594  11.112   7.027
 4971POPC   C4B63982  36.685  11.390   7.370
 4972POPC   NC363983  44.795  22.431   5.424
 4972POPC   PO463984  44.540  21.771   5.368
 4972POPC   GL163985  44.487  22.089   5.692
 4972POPC   GL263986  44.161  22.219   5.789
 4972POPC   C1A63987  44.530  22.035   6.142
 4972POPC   D2A63988  44.791  22.019   6.515
 4972POPC   C3A63989  44.535  22.003   6.874
 4972POPC   C4A63990  44.685  22.052   7.277
 4972POPC   C1B63991  44.336  22.507   6.086
 4972POPC   C2B63992  44.468  22.423   6.495
 4972POPC   C3B63993  44.340  22.463   6.889
 4972POPC   C4B63994  44.178  22.308   7.275
 4973POPC   NC363995  32.738  42.232   5.471
 4973POPC   PO463996  33.354  42.047   5.137
 4973POPC   GL163997  33.195  42.005   5.625
 4973POPC   GL263998  33.125  42.350   5.805
 4973POPC   C1A63999  33.064  41.933   6.105
 4973POPC   D2A64000  32.864  42.147   6.486
 4973POPC   C3A64001  33.213  42.257   6.785
 4973POPC   C4A64002  33.382  42.225   7.187
 4973POPC   C1B64003  33.130  42.536   6.250
 4973POPC   C2B64004  32.966  42.693   6.686
 4973POPC   C3B64005  33.106  42.658   7.129
 4973POPC   C4B64006  33.123  42.524   7.572
 4974POPC   NC364007  12.628  31.035   5.445
 4974POPC   PO464008  13.055  31.582   5.355
 4974POPC   GL164009  12.852  31.535   5.758
 4974POPC   GL264010  12.509  31.449   5.774
 4974POPC   C1A64011  12.734  31.742   6.161
 4974POPC   D2A64012  12.852  31.593   6.573
 4974POPC   C3A64013  12.755  31.800   6.949
 4974POPC   C4A64014  12.787  31.547   7.302
 4974POPC   C1B64015  12.681  31.225   6.137
 4974POPC   C2B64016  12.609  31.139   6.570
 4974POPC   C3B64017  12.877  31.194   6.929
 4974POPC   C4B64018  12.764  31.004   7.315
 4975POPC   NC364019  30.416  30.452   5.329
 4975POPC   PO464020  30.631  31.049   5.311
 4975POPC   GL164021  30.563  30.906   5.776
 4975POPC   GL264022  30.437  30.570   5.836
 4975POPC   C1A64023  30.824  30.905   6.181
 4975POPC   D2A64024  30.889  30.759   6.611
 4975POPC   C3A64025  30.724  30.962   6.982
 4975POPC   C4A64026  30.429  30.915   7.321
 4975POPC   C1B64027  30.574  30.463   6.253
 4975POPC   C2B64028  30.471  30.445   6.688
 4975POPC   C3B64029  30.564  30.484   7.100
 4975POPC   C4B64030  30.299  30.449   7.462
 4976POPC   NC364031   1.625   8.860   5.507
 4976POPC   PO464032   2.301   8.616   5.400
 4976POPC   GL164033   2.124   8.839   5.753
 4976POPC   GL264034   1.838   9.003   5.931
 4976POPC   C1A64035   2.107   8.677   6.182
 4976POPC   D2A64036   2.099   8.918   6.552
 4976POPC   C3A64037   2.077   8.760   6.961
 4976POPC   C4A64038   1.904   9.083   7.219
 4976POPC   C1B64039   1.836   9.273   6.285
 4976POPC   C2B64040   1.857   9.370   6.721
 4976POPC   C3B64041   1.575   9.435   7.077
 4976POPC   C4B64042   1.662   9.439   7.523
 4977POPC   NC364043  30.114   9.240   5.493
 4977POPC   PO464044  29.832   8.630   5.461
 4977POPC   GL164045  29.875   8.876   5.814
 4977POPC   GL264046  30.243   8.858   5.863
 4977POPC   C1A64047  29.911   8.809   6.270
 4977POPC   D2A64048  30.119   8.891   6.662
 4977POPC   C3A64049  29.788   9.024   6.938
 4977POPC   C4A64050  29.579   9.052   7.322
 4977POPC   C1B64051  30.247   9.208   6.174
 4977POPC   C2B64052  30.356   9.356   6.591
 4977POPC   C3B64053  30.211   9.275   7.014
 4977POPC   C4B64054  30.308   8.950   7.317
 4978POPC   NC364055  21.192   0.768   5.531
 4978POPC   PO464056  21.525   0.145   5.446
 4978POPC   GL164057  21.780   0.207   5.816
 4978POPC   GL264058  21.893   0.563   5.859
 4978POPC   C1A64059  21.646   0.173   6.269
 4978POPC   D2A64060  21.389   0.318   6.626
 4978POPC   C3A64061  21.560   0.333   7.046
 4978POPC   C4A64062  21.233   0.340   7.377
 4978POPC   C1B64063  21.761   0.697   6.259
 4978POPC   C2B64064  21.629   0.777   6.686
 4978POPC   C3B64065  21.257   0.731   6.951
 4978POPC   C4B64066  21.273   0.842   7.369
 4979POPC   NC364067  12.398  26.276   5.466
 4979POPC   PO464068  11.749  26.045   5.274
 4979POPC   GL164069  11.965  26.105   5.672
 4979POPC   GL264070  11.922  26.447   5.611
 4979POPC   C1A64071  12.172  26.138   6.102
 4979POPC   D2A64072  12.317  26.023   6.536
 4979POPC   C3A64073  12.083  25.997   6.963
 4979POPC   C4A64074  12.097  25.992   7.461
 4979POPC   C1B64075  11.798  26.484   6.036
 4979POPC   C2B64076  11.845  26.339   6.462
 4979POPC   C3B64077  11.712  26.360   6.886
 4979POPC   C4B64078  11.874  26.378   7.244
 4980POPC   NC364079  44.457  12.339   5.354
 4980POPC   PO464080   0.084  12.041   5.367
 4980POPC   GL164081  44.775  11.876   5.739
 4980POPC   GL264082  44.431  12.050   5.770
 4980POPC   C1A64083  44.704  11.905   6.197
 4980POPC   D2A64084  44.485  12.110   6.528
 4980POPC   C3A64085  44.639  12.191   6.932
 4980POPC   C4A64086  44.762  11.924   7.227
 4980POPC   C1B64087  44.183  12.254   6.126
 4980POPC   C2B64088  44.016  12.323   6.564
 4980POPC   C3B64089  44.131  12.038   6.908
 4980POPC   C4B64090  44.302  12.191   7.317
 4981POPC   NC364091   5.380   9.070   5.445
 4981POPC   PO464092   6.053   9.157   5.175
 4981POPC   GL164093   5.905   9.071   5.588
 4981POPC   GL264094   6.180   9.288   5.701
 4981POPC   C1A64095   5.959   8.899   6.032
 4981POPC   D2A64096   5.713   8.721   6.382
 4981POPC   C3A64097   5.809   8.878   6.795
 4981POPC   C4A64098   5.849   8.972   7.193
 4981POPC   C1B64099   6.059   9.405   6.112
 4981POPC   C2B64100   5.879   9.306   6.501
 4981POPC   C3B64101   5.943   9.401   6.923
 4981POPC   C4B64102   6.178   9.328   7.317
 4982POPC   NC364103  18.643  20.559   5.464
 4982POPC   PO464104  17.954  20.464   5.379
 4982POPC   GL164105  18.157  20.661   5.741
 4982POPC   GL264106  18.420  20.945   5.748
 4982POPC   C1A64107  18.158  20.567   6.182
 4982POPC   D2A64108  18.025  20.814   6.541
 4982POPC   C3A64109  18.090  20.554   6.898
 4982POPC   C4A64110  17.944  20.641   7.297
 4982POPC   C1B64111  18.353  21.040   6.200
 4982POPC   C2B64112  18.543  20.928   6.620
 4982POPC   C3B64113  18.378  20.946   7.048
 4982POPC   C4B64114  18.427  21.032   7.483
 4983POPC   NC364115  35.719  22.264   5.426
 4983POPC   PO464116  35.201  21.870   5.396
 4983POPC   GL164117  35.356  21.986   5.777
 4983POPC   GL264118  35.328  22.349   5.769
 4983POPC   C1A64119  35.168  22.032   6.196
 4983POPC   D2A64120  34.974  21.867   6.569
 4983POPC   C3A64121  35.253  21.920   6.909
 4983POPC   C4A64122  35.432  21.945   7.289
 4983POPC   C1B64123  35.332  22.522   6.207
 4983POPC   C2B64124  35.175  22.371   6.626
 4983POPC   C3B64125  35.187  22.416   7.082
 4983POPC   C4B64126  35.438  22.421   7.459
 4984POPC   NC364127  41.382  29.054   5.603
 4984POPC   PO464128  41.867  29.559   5.405
 4984POPC   GL164129  41.722  29.379   5.830
 4984POPC   GL264130  41.364  29.424   5.945
 4984POPC   C1A64131  41.674  29.160   6.263
 4984POPC   D2A64132  41.513  29.231   6.698
 4984POPC   C3A64133  41.642  28.882   6.989
 4984POPC   C4A64134  41.829  28.978   7.382
 4984POPC   C1B64135  41.179  29.063   6.231
 4984POPC   C2B64136  41.223  28.834   6.607
 4984POPC   C3B64137  41.138  28.957   7.016
 4984POPC   C4B64138  41.380  29.224   7.260
 4985POPC   NC364139  37.166  31.558   5.408
 4985POPC   PO464140  36.538  31.581   5.258
 4985POPC   GL164141  36.674  31.623   5.743
 4985POPC   GL264142  36.904  31.377   5.802
 4985POPC   C1A64143  36.899  31.727   6.168
 4985POPC   D2A64144  37.048  31.593   6.554
 4985POPC   C3A64145  36.803  31.779   6.847
 4985POPC   C4A64146  36.802  31.631   7.238
 4985POPC   C1B64147  37.112  31.260   6.176
 4985POPC   C2B64148  37.025  31.020   6.517
 4985POPC   C3B64149  37.042  31.166   6.928
 4985POPC   C4B64150  36.670  31.138   7.163
 4986POPC   NC364151   1.019   9.652   5.585
 4986POPC   PO464152   1.572  10.015   5.564
 4986POPC   GL164153   1.342   9.879   5.928
 4986POPC   GL264154   1.001  10.043   5.929
 4986POPC   C1A64155   1.406   9.581   6.270
 4986POPC   D2A64156   1.492   9.753   6.677
 4986POPC   C3A64157   1.178   9.779   7.019
 4986POPC   C4A64158   1.138   9.529   7.396
 4986POPC   C1B64159   0.939   9.782   6.285
 4986POPC   C2B64160   1.001   9.487   6.634
 4986POPC   C3B64161   0.753   9.501   7.031
 4986POPC   C4B64162   0.684   9.834   7.365
 4987POPC   NC364163  17.453  19.280   5.296
 4987POPC   PO464164  17.669  18.640   5.368
 4987POPC   GL164165  17.380  18.901   5.698
 4987POPC   GL264166  17.503  19.232   5.829
 4987POPC   C1A64167  17.209  18.979   6.152
 4987POPC   D2A64168  17.192  19.243   6.550
 4987POPC   C3A64169  17.276  19.115   6.988
 4987POPC   C4A64170  17.037  19.042   7.332
 4987POPC   C1B64171  17.655  19.189   6.289
 4987POPC   C2B64172  17.703  19.260   6.746
 4987POPC   C3B64173  17.518  19.545   7.062
 4987POPC   C4B64174  17.448  19.340   7.473
 4988POPC   NC364175   8.941  23.315   5.445
 4988POPC   PO464176   8.632  23.880   5.639
 4988POPC   GL164177   8.808  23.678   5.972
 4988POPC   GL264178   9.129  23.573   5.858
 4988POPC   C1A64179   8.796  23.561   6.408
 4988POPC   D2A64180   8.770  23.386   6.800
 4988POPC   C3A64181   8.912  23.610   7.124
 4988POPC   C4A64182   8.555  23.826   7.208
 4988POPC   C1B64183   9.238  23.830   6.231
 4988POPC   C2B64184   9.282  23.758   6.691
 4988POPC   C3B64185   9.299  23.956   7.107
 4988POPC   C4B64186   9.361  23.616   7.396
 4989POPC   NC364187  36.026  38.075   5.327
 4989POPC   PO464188  36.433  37.558   5.446
 4989POPC   GL164189  36.108  37.702   5.736
 4989POPC   GL264190  36.267  38.043   5.790
 4989POPC   C1A64191  35.997  37.641   6.197
 4989POPC   D2A64192  36.355  37.535   6.511
 4989POPC   C3A64193  36.299  37.336   6.926
 4989POPC   C4A64194  36.409  37.502   7.335
 4989POPC   C1B64195  36.376  37.986   6.228
 4989POPC   C2B64196  36.109  37.961   6.587
 4989POPC   C3B64197  36.212  37.853   6.991
 4989POPC   C4B64198  35.923  37.729   7.261
 4990POPC   NC364199  11.215  15.080   5.310
 4990POPC   PO464200  11.828  14.829   5.359
 4990POPC   GL164201  11.509  14.850   5.731
 4990POPC   GL264202  11.109  14.931   5.780
 4990POPC   C1A64203  11.583  14.956   6.188
 4990POPC   D2A64204  11.486  14.873   6.644
 4990POPC   C3A64205  11.468  15.099   7.047
 4990POPC   C4A64206  11.265  15.376   7.365
 4990POPC   C1B64207  11.074  14.805   6.211
 4990POPC   C2B64208  10.987  14.941   6.631
 4990POPC   C3B64209  11.071  14.703   6.984
 4990POPC   C4B64210  11.204  14.808   7.386
 4991POPC   NC364211   6.905  13.905   5.434
 4991POPC   PO464212   6.407  13.414   5.305
 4991POPC   GL164213   6.643  13.434   5.701
 4991POPC   GL264214   6.543  13.751   5.800
 4991POPC   C1A64215   6.617  13.406   6.176
 4991POPC   D2A64216   6.788  13.552   6.590
 4991POPC   C3A64217   6.528  13.649   6.956
 4991POPC   C4A64218   6.742  13.665   7.375
 4991POPC   C1B64219   6.864  13.857   6.120
 4991POPC   C2B64220   6.858  14.049   6.531
 4991POPC   C3B64221   6.945  13.931   6.971
 4991POPC   C4B64222   7.047  14.088   7.379
 4992POPC   NC364223   7.797   1.760   5.421
 4992POPC   PO464224   7.139   2.005   5.428
 4992POPC   GL164225   7.345   1.986   5.797
 4992POPC   GL264226   7.684   1.843   5.916
 4992POPC   C1A64227   7.297   2.091   6.199
 4992POPC   D2A64228   7.549   2.034   6.552
 4992POPC   C3A64229   7.352   2.035   6.946
 4992POPC   C4A64230   7.519   2.157   7.391
 4992POPC   C1B64231   7.797   1.636   6.334
 4992POPC   C2B64232   7.601   1.564   6.775
 4992POPC   C3B64233   7.503   1.651   7.235
 4992POPC   C4B64234   7.673   1.692   7.644
 4993POPC   NC364235  32.806  15.108   5.634
 4993POPC   PO464236  32.189  15.442   5.542
 4993POPC   GL164237  32.443  15.405   5.872
 4993POPC   GL264238  32.401  15.027   5.969
 4993POPC   C1A64239  32.328  15.478   6.266
 4993POPC   D2A64240  32.314  15.096   6.502
 4993POPC   C3A64241  32.233  15.057   6.915
 4993POPC   C4A64242  32.340  15.392   7.168
 4993POPC   C1B64243  32.121  14.741   6.217
 4993POPC   C2B64244  31.872  14.812   6.547
 4993POPC   C3B64245  31.729  14.814   6.957
 4993POPC   C4B64246  31.970  14.844   7.323
 4994POPC   NC364247  25.760  32.257   5.421
 4994POPC   PO464248  26.409  32.173   5.349
 4994POPC   GL164249  26.156  32.089   5.717
 4994POPC   GL264250  26.167  32.426   5.807
 4994POPC   C1A64251  26.273  32.010   6.160
 4994POPC   D2A64252  26.090  32.098   6.559
 4994POPC   C3A64253  26.257  32.030   6.943
 4994POPC   C4A64254  26.002  31.873   7.258
 4994POPC   C1B64255  26.059  32.513   6.259
 4994POPC   C2B64256  26.033  32.573   6.719
 4994POPC   C3B64257  25.854  32.328   7.060
 4994POPC   C4B64258  25.781  32.266   7.522
 4995POPC   NC364259  40.551  44.563   5.493
 4995POPC   PO464260  40.970   0.022   5.520
 4995POPC   GL164261  41.022  44.637   5.791
 4995POPC   GL264262  40.713  44.670   5.965
 4995POPC   C1A64263  41.080  44.481   6.244
 4995POPC   D2A64264  40.783  44.670   6.526
 4995POPC   C3A64265  40.815  44.566   6.930
 4995POPC   C4A64266  41.157  44.523   7.186
 4995POPC   C1B64267  40.977  44.995   6.193
 4995POPC   C2B64268  40.960   0.136   6.644
 4995POPC   C3B64269  41.032   0.022   7.074
 4995POPC   C4B64270  40.755  44.810   7.369
 4996POPC   NC364271  17.259   4.029   5.002
 4996POPC   PO464272  17.444   4.494   5.376
 4996POPC   GL164273  17.489   4.513   5.837
 4996POPC   GL264274  17.377   4.172   5.909
 4996POPC   C1A64275  17.662   4.408   6.278
 4996POPC   D2A64276  17.604   4.106   6.653
 4996POPC   C3A64277  17.762   4.189   7.073
 4996POPC   C4A64278  17.657   4.004   7.471
 4996POPC   C1B64279  17.087   4.443   6.169
 4996POPC   C2B64280  16.985   4.482   6.609
 4996POPC   C3B64281  17.276   4.501   7.000
 4996POPC   C4B64282  17.331   4.400   7.450
 4997POPC   NC364283  43.636  38.309   5.349
 4997POPC   PO464284  43.857  38.918   5.620
 4997POPC   GL164285  43.941  38.479   5.749
 4997POPC   GL264286  44.276  38.496   5.749
 4997POPC   C1A64287  44.105  38.197   6.111
 4997POPC   D2A64288  44.231  38.368   6.512
 4997POPC   C3A64289  43.994  38.214   6.852
 4997POPC   C4A64290  43.899  38.074   7.249
 4997POPC   C1B64291  44.234  38.749   6.139
 4997POPC   C2B64292  44.354  38.940   6.533
 4997POPC   C3B64293  44.096  38.906   6.891
 4997POPC   C4B64294  44.053  38.581   7.219
 4998POPC   NC364295  23.889   3.163   5.284
 4998POPC   PO464296  23.615   2.504   5.011
 4998POPC   GL164297  23.659   2.624   5.531
 4998POPC   GL264298  23.825   2.884   5.713
 4998POPC   C1A64299  23.457   2.740   6.014
 4998POPC   D2A64300  23.406   2.934   6.442
 4998POPC   C3A64301  23.506   2.816   6.892
 4998POPC   C4A64302  23.777   2.521   7.110
 4998POPC   C1B64303  23.982   2.808   6.131
 4998POPC   C2B64304  23.878   2.718   6.547
 4998POPC   C3B64305  24.019   2.921   6.901
 4998POPC   C4B64306  24.073   2.867   7.329
 4999POPC   NC364307  18.585  19.416   5.586
 4999POPC   PO464308  18.162  19.018   5.351
 4999POPC   GL164309  18.241  18.854   5.760
 4999POPC   GL264310  17.931  18.943   5.900
 4999POPC   C1A64311  18.272  18.685   6.189
 4999POPC   D2A64312  18.028  18.815   6.570
 4999POPC   C3A64313  18.197  19.154   6.817
 4999POPC   C4A64314  18.222  19.001   7.208
 4999POPC   C1B64315  18.156  19.181   6.249
 4999POPC   C2B64316  18.052  19.531   6.489
 4999POPC   C3B64317  18.041  19.654   6.913
 4999POPC   C4B64318  17.954  19.437   7.273
 5000POPC   NC364319   1.903  42.918   5.404
 5000POPC   PO464320   2.274  43.562   5.448
 5000POPC   GL164321   1.991  43.314   5.745
 5000POPC   GL264322   2.079  42.943   5.858
 5000POPC   C1A64323   1.783  43.186   6.153
 5000POPC   D2A64324   1.864  42.908   6.482
 5000POPC   C3A64325   1.646  43.080   6.825
 5000POPC   C4A64326   1.594  43.295   7.205
 5000POPC   C1B64327   2.286  43.210   6.158
 5000POPC   C2B64328   2.371  43.076   6.553
 5000POPC   C3B64329   2.148  43.053   6.903
 5000POPC   C4B64330   2.223  43.189   7.293
 5001POPC   NC364331  11.415  27.230   5.448
 5001POPC   PO464332  11.277  27.952   5.427
 5001POPC   GL164333  11.211  27.823   5.872
 5001POPC   GL264334  11.403  27.520   5.921
 5001POPC   C1A64335  11.233  27.822   6.337
 5001POPC   D2A64336  11.301  27.612   6.744
 5001POPC   C3A64337  11.221  27.869   7.098
 5001POPC   C4A64338  11.008  27.895   7.490
 5001POPC   C1B64339  11.244  27.293   6.306
 5001POPC   C2B64340  11.198  27.099   6.711
 5001POPC   C3B64341  11.132  27.277   7.117
 5001POPC   C4B64342  10.862  27.412   7.475
 5002POPC   NC364343  40.771  27.784   5.282
 5002POPC   PO464344  40.644  27.115   5.449
 5002POPC   GL164345  40.756  27.399   5.816
 5002POPC   GL264346  40.753  27.751   5.791
 5002POPC   C1A64347  41.019  27.481   6.187
 5002POPC   D2A64348  41.242  27.369   6.567
 5002POPC   C3A64349  41.061  27.483   6.959
 5002POPC   C4A64350  40.872  27.523   7.381
 5002POPC   C1B64351  40.643  27.827   6.218
 5002POPC   C2B64352  40.689  27.538   6.590
 5002POPC   C3B64353  40.532  27.477   6.996
 5002POPC   C4B64354  40.283  27.760   7.192
 5003POPC   NC364355  42.975  35.168   5.528
 5003POPC   PO464356  42.573  35.661   5.344
 5003POPC   GL164357  42.733  35.565   5.832
 5003POPC   GL264358  43.071  35.594   5.856
 5003POPC   C1A64359  42.781  35.193   6.184
 5003POPC   D2A64360  42.767  35.019   6.627
 5003POPC   C3A64361  43.151  35.056   6.888
 5003POPC   C4A64362  43.326  35.133   7.299
 5003POPC   C1B64363  42.978  35.654   6.287
 5003POPC   C2B64364  43.164  35.509   6.637
 5003POPC   C3B64365  43.139  35.661   7.053
 5003POPC   C4B64366  43.443  35.919   7.248
 5004POPC   NC364367   0.911  44.140   5.380
 5004POPC   PO464368   0.240  43.994   5.328
 5004POPC   GL164369   0.356  43.873   5.740
 5004POPC   GL264370   0.623  44.122   5.810
 5004POPC   C1A64371   0.302  43.689   6.162
 5004POPC   D2A64372   0.616  43.636   6.497
 5004POPC   C3A64373   0.546  43.790   6.896
 5004POPC   C4A64374   0.165  43.876   7.071
 5004POPC   C1B64375   0.370  44.195   6.153
 5004POPC   C2B64376   0.339  44.110   6.547
 5004POPC   C3B64377   0.379  44.309   6.898
 5004POPC   C4B64378   0.619  44.179   7.252
 5005POPC   NC364379  20.532  30.623   5.354
 5005POPC   PO464380  21.109  30.945   5.591
 5005POPC   GL164381  20.741  30.701   5.820
 5005POPC   GL264382  20.381  30.522   5.813
 5005POPC   C1A64383  20.621  30.661   6.268
 5005POPC   D2A64384  20.437  30.945   6.557
 5005POPC   C3A64385  20.481  30.815   6.975
 5005POPC   C4A64386  20.748  30.943   7.293
 5005POPC   C1B64387  20.297  30.292   6.191
 5005POPC   C2B64388  20.210  30.489   6.603
 5005POPC   C3B64389  20.228  30.375   7.060
 5005POPC   C4B64390  19.988  30.393   7.453
 5006POPC   NC364391  31.739  43.569   5.585
 5006POPC   PO464392  31.302  44.038   5.351
 5006POPC   GL164393  31.225  43.939   5.749
 5006POPC   GL264394  31.242  43.594   5.754
 5006POPC   C1A64395  31.425  43.987   6.150
 5006POPC   D2A64396  31.410  44.207   6.551
 5006POPC   C3A64397  31.545  44.053   6.952
 5006POPC   C4A64398  31.189  44.149   7.170
 5006POPC   C1B64399  31.242  43.501   6.178
 5006POPC   C2B64400  31.400  43.688   6.554
 5006POPC   C3B64401  31.228  43.673   6.911
 5006POPC   C4B64402  31.271  43.669   7.316
 5007POPC   NC364403   9.421  31.953   5.543
 5007POPC   PO464404   8.915  32.429   5.461
 5007POPC   GL164405   9.176  32.393   5.821
 5007POPC   GL264406   8.929  32.517   6.073
 5007POPC   C1A64407   9.233  32.111   6.180
 5007POPC   D2A64408   8.981  32.054   6.541
 5007POPC   C3A64409   9.145  32.130   6.947
 5007POPC   C4A64410   8.998  32.353   7.323
 5007POPC   C1B64411   8.649  32.148   6.150
 5007POPC   C2B64412   8.495  31.909   6.505
 5007POPC   C3B64413   8.588  32.113   6.884
 5007POPC   C4B64414   8.386  32.172   7.247
 5008POPC   NC364415  29.022   4.406   5.395
 5008POPC   PO464416  29.502   4.225   5.603
 5008POPC   GL164417  29.143   4.327   5.917
 5008POPC   GL264418  28.795   4.222   5.886
 5008POPC   C1A64419  29.005   4.287   6.383
 5008POPC   D2A64420  29.194   4.026   6.743
 5008POPC   C3A64421  29.351   4.189   7.148
 5008POPC   C4A64422  29.278   4.498   7.468
 5008POPC   C1B64423  28.566   4.029   6.252
 5008POPC   C2B64424  28.665   3.993   6.706
 5008POPC   C3B64425  28.854   3.998   7.125
 5008POPC   C4B64426  29.060   4.019   7.535
 5009POPC   NC364427  39.427  18.326   5.484
 5009POPC   PO464428  38.724  18.342   5.228
 5009POPC   GL164429  38.957  18.352   5.693
 5009POPC   GL264430  39.117  18.646   5.812
 5009POPC   C1A64431  39.108  18.265   6.171
 5009POPC   D2A64432  39.074  18.467   6.634
 5009POPC   C3A64433  39.284  18.238   7.025
 5009POPC   C4A64434  39.217  18.247   7.508
 5009POPC   C1B64435  39.424  18.676   6.167
 5009POPC   C2B64436  39.445  18.858   6.579
 5009POPC   C3B64437  39.394  18.726   6.993
 5009POPC   C4B64438  39.618  18.510   7.315
 5010POPC   NC364439  33.611   6.657   5.335
 5010POPC   PO464440  34.133   6.240   5.390
 5010POPC   GL164441  34.006   6.612   5.700
 5010POPC   GL264442  33.739   6.867   5.783
 5010POPC   C1A64443  34.012   6.710   6.168
 5010POPC   D2A64444  33.972   6.556   6.595
 5010POPC   C3A64445  33.880   6.714   7.000
 5010POPC   C4A64446  33.803   6.385   7.322
 5010POPC   C1B64447  33.540   6.905   6.151
 5010POPC   C2B64448  33.680   7.000   6.557
 5010POPC   C3B64449  33.417   6.989   6.920
 5010POPC   C4B64450  33.546   6.963   7.305
 5011POPC   NC364451   6.753  12.950   5.485
 5011POPC   PO464452   6.509  12.430   5.164
 5011POPC   GL164453   6.569  12.393   5.660
 5011POPC   GL264454   6.748  12.651   5.886
 5011POPC   C1A64455   6.493  12.311   6.129
 5011POPC   D2A64456   6.544  12.577   6.497
 5011POPC   C3A64457   6.874  12.536   6.808
 5011POPC   C4A64458   6.726  12.693   7.181
 5011POPC   C1B64459   6.833  12.947   6.260
 5011POPC   C2B64460   6.648  13.066   6.694
 5011POPC   C3B64461   6.738  13.208   7.127
 5011POPC   C4B64462   6.993  13.255   7.553
 5012POPC   NC364463  18.036  44.290   5.442
 5012POPC   PO464464  18.365  44.882   5.373
 5012POPC   GL164465  18.438  44.667   5.799
 5012POPC   GL264466  18.122  44.656   5.813
 5012POPC   C1A64467  18.340  44.773   6.263
 5012POPC   D2A64468  18.379   0.076   6.629
 5012POPC   C3A64469  18.299  44.846   7.028
 5012POPC   C4A64470  18.455  44.433   7.136
 5012POPC   C1B64471  18.062  44.360   6.164
 5012POPC   C2B64472  18.207  44.345   6.619
 5012POPC   C3B64473  17.975  44.417   7.011
 5012POPC   C4B64474  17.894  44.471   7.421
 5013POPC   NC364475  36.143  43.339   5.053
 5013POPC   PO464476  36.074  42.829   5.478
 5013POPC   GL164477  36.199  43.118   5.759
 5013POPC   GL264478  35.894  43.183   5.880
 5013POPC   C1A64479  36.447  43.120   6.136
 5013POPC   D2A64480  36.575  42.770   6.427
 5013POPC   C3A64481  36.486  42.906   6.872
 5013POPC   C4A64482  36.265  43.198   7.129
 5013POPC   C1B64483  35.980  43.364   6.262
 5013POPC   C2B64484  36.045  43.209   6.668
 5013POPC   C3B64485  35.755  43.185   7.022
 5013POPC   C4B64486  35.714  43.227   7.466
 5014POPC   NC364487  23.191  17.026   5.465
 5014POPC   PO464488  22.947  16.406   5.610
 5014POPC   GL164489  22.885  16.798   5.823
 5014POPC   GL264490  23.230  16.892   5.948
 5014POPC   C1A64491  22.837  16.978   6.249
 5014POPC   D2A64492  22.956  17.129   6.662
 5014POPC   C3A64493  23.005  16.781   6.950
 5014POPC   C4A64494  22.717  16.763   7.289
 5014POPC   C1B64495  23.319  16.509   6.213
 5014POPC   C2B64496  23.290  16.325   6.616
 5014POPC   C3B64497  23.306  16.286   7.050
 5014POPC   C4B64498  23.092  16.439   7.335
 5015POPC   NC364499  34.451  15.899   5.191
 5015POPC   PO464500  35.017  15.686   5.100
 5015POPC   GL164501  34.727  15.802   5.584
 5015POPC   GL264502  34.725  16.114   5.799
 5015POPC   C1A64503  34.630  15.678   6.036
 5015POPC   D2A64504  34.742  15.663   6.473
 5015POPC   C3A64505  34.536  15.913   6.764
 5015POPC   C4A64506  34.623  15.832   7.173
 5015POPC   C1B64507  34.546  16.135   6.241
 5015POPC   C2B64508  34.528  16.432   6.594
 5015POPC   C3B64509  34.292  16.342   6.960
 5015POPC   C4B64510  34.239  16.140   7.348
 5016POPC   NC364511  26.661   3.395   5.638
 5016POPC   PO464512  27.037   3.926   5.357
 5016POPC   GL164513  26.972   3.736   5.810
 5016POPC   GL264514  27.153   3.433   5.816
 5016POPC   C1A64515  26.693   3.549   6.248
 5016POPC   D2A64516  26.606   3.256   6.591
 5016POPC   C3A64517  26.600   3.521   6.968
 5016POPC   C4A64518  26.934   3.555   7.294
 5016POPC   C1B64519  27.180   3.617   6.246
 5016POPC   C2B64520  27.039   3.567   6.683
 5016POPC   C3B64521  26.921   3.943   6.951
 5016POPC   C4B64522  27.040   4.058   7.386
 5017POPC   NC364523   8.324  37.211   5.035
 5017POPC   PO464524   8.109  37.760   5.384
 5017POPC   GL164525   8.228  37.806   5.804
 5017POPC   GL264526   7.912  37.670   5.886
 5017POPC   C1A64527   8.401  37.732   6.234
 5017POPC   D2A64528   8.628  37.512   6.580
 5017POPC   C3A64529   8.543  37.675   6.991
 5017POPC   C4A64530   8.354  37.546   7.376
 5017POPC   C1B64531   7.899  37.692   6.322
 5017POPC   C2B64532   8.098  37.731   6.718
 5017POPC   C3B64533   7.932  37.649   7.105
 5017POPC   C4B64534   7.861  37.507   7.497
 5018POPC   NC364535   3.627  27.948   5.137
 5018POPC   PO464536   3.677  27.390   5.529
 5018POPC   GL164537   3.434  27.602   5.861
 5018POPC   GL264538   3.278  27.904   5.620
 5018POPC   C1A64539   3.736  27.675   6.219
 5018POPC   D2A64540   3.969  27.466   6.582
 5018POPC   C3A64541   3.777  27.646   6.954
 5018POPC   C4A64542   3.843  27.827   7.367
 5018POPC   C1B64543   3.207  28.032   6.069
 5018POPC   C2B64544   3.368  27.942   6.465
 5018POPC   C3B64545   3.273  27.799   6.866
 5018POPC   C4B64546   3.374  27.665   7.284
 5019POPC   NC364547  14.176  40.857   5.302
 5019POPC   PO464548  14.643  40.395   5.542
 5019POPC   GL164549  14.406  40.606   5.842
 5019POPC   GL264550  14.295  40.954   5.835
 5019POPC   C1A64551  14.345  40.599   6.250
 5019POPC   D2A64552  14.482  40.890   6.500
 5019POPC   C3A64553  14.476  40.700   6.877
 5019POPC   C4A64554  14.661  40.931   7.204
 5019POPC   C1B64555  14.009  40.975   6.235
 5019POPC   C2B64556  14.018  40.832   6.708
 5019POPC   C3B64557  14.140  40.894   7.204
 5019POPC   C4B64558  14.076  41.072   7.642
 5020POPC   NC364559  20.705  42.874   5.349
 5020POPC   PO464560  21.045  43.384   5.574
 5020POPC   GL164561  20.782  43.080   5.854
 5020POPC   GL264562  20.493  42.875   5.799
 5020POPC   C1A64563  20.512  43.165   6.223
 5020POPC   D2A64564  20.774  43.131   6.576
 5020POPC   C3A64565  20.631  43.335   6.935
 5020POPC   C4A64566  20.786  43.150   7.255
 5020POPC   C1B64567  20.568  42.668   6.178
 5020POPC   C2B64568  20.392  42.696   6.557
 5020POPC   C3B64569  20.384  42.911   6.850
 5020POPC   C4B64570  20.368  42.810   7.226
 5021POPC   NC364571  24.295  29.555   5.305
 5021POPC   PO464572  24.287  30.219   5.353
 5021POPC   GL164573  24.286  29.919   5.678
 5021POPC   GL264574  24.645  29.857   5.584
 5021POPC   C1A64575  24.188  29.863   6.125
 5021POPC   D2A64576  24.445  29.900   6.504
 5021POPC   C3A64577  24.391  30.116   6.908
 5021POPC   C4A64578  24.225  29.867   7.270
 5021POPC   C1B64579  24.754  29.961   6.022
 5021POPC   C2B64580  24.932  29.772   6.400
 5021POPC   C3B64581  24.834  29.813   6.825
 5021POPC   C4B64582  24.723  29.868   7.216
 5022POPC   NC364583  34.579   1.624   5.174
 5022POPC   PO464584  34.206   2.179   5.319
 5022POPC   GL164585  34.446   2.137   5.710
 5022POPC   GL264586  34.568   1.793   5.697
 5022POPC   C1A64587  34.591   2.224   6.160
 5022POPC   D2A64588  34.698   2.436   6.539
 5022POPC   C3A64589  34.489   2.297   6.910
 5022POPC   C4A64590  34.509   2.002   7.271
 5022POPC   C1B64591  34.784   1.763   6.114
 5022POPC   C2B64592  34.701   1.806   6.579
 5022POPC   C3B64593  34.904   1.984   6.954
 5022POPC   C4B64594  35.080   1.806   7.316
 5023POPC   NC364595  11.649   6.551   5.385
 5023POPC   PO464596  11.137   6.172   5.167
 5023POPC   GL164597  11.117   6.524   5.617
 5023POPC   GL264598  11.079   6.921   5.625
 5023POPC   C1A64599  11.130   6.532   6.146
 5023POPC   D2A64600  10.974   6.636   6.621
 5023POPC   C3A64601  11.095   6.514   7.049
 5023POPC   C4A64602  11.520   6.381   7.131
 5023POPC   C1B64603  10.910   7.020   6.049
 5023POPC   C2B64604  11.209   7.057   6.382
 5023POPC   C3B64605  11.444   6.846   6.718
 5023POPC   C4B64606  11.384   6.897   7.150
 5024POPC   NC364607  12.004   1.871   5.394
 5024POPC   PO464608  11.440   2.210   5.446
 5024POPC   GL164609  11.741   2.101   5.786
 5024POPC   GL264610  11.795   1.744   5.849
 5024POPC   C1A64611  11.921   2.142   6.229
 5024POPC   D2A64612  11.701   2.152   6.649
 5024POPC   C3A64613  11.911   2.020   7.017
 5024POPC   C4A64614  12.019   2.300   7.357
 5024POPC   C1B64615  12.037   1.629   6.199
 5024POPC   C2B64616  12.153   1.797   6.589
 5024POPC   C3B64617  12.279   1.677   7.002
 5024POPC   C4B64618  11.981   1.567   7.302
 5025POPC   NC364619  22.818   9.456   5.441
 5025POPC   PO464620  23.097  10.116   5.366
 5025POPC   GL164621  23.162   9.991   5.808
 5025POPC   GL264622  23.055   9.674   5.909
 5025POPC   C1A64623  23.029  10.080   6.245
 5025POPC   D2A64624  22.844   9.897   6.634
 5025POPC   C3A64625  23.074   9.795   6.979
 5025POPC   C4A64626  22.961   9.916   7.360
 5025POPC   C1B64627  22.853   9.510   6.297
 5025POPC   C2B64628  22.908   9.372   6.732
 5025POPC   C3B64629  22.870   9.402   7.213
 5025POPC   C4B64630  22.749   9.375   7.677
 5026POPC   NC364631   3.795   2.847   5.362
 5026POPC   PO464632   3.104   2.970   5.262
 5026POPC   GL164633   3.299   2.870   5.741
 5026POPC   GL264634   3.644   2.666   5.835
 5026POPC   C1A64635   3.479   3.006   6.155
 5026POPC   D2A64636   3.742   3.229   6.435
 5026POPC   C3A64637   3.743   3.118   6.872
 5026POPC   C4A64638   3.607   3.200   7.301
 5026POPC   C1B64639   3.691   2.415   6.266
 5026POPC   C2B64640   3.406   2.234   6.571
 5026POPC   C3B64641   3.262   2.434   6.940
 5026POPC   C4B64642   3.582   2.691   7.146
 5027POPC   NC364643   5.585  20.387   5.557
 5027POPC   PO464644   6.045  20.011   5.132
 5027POPC   GL164645   6.068  20.102   5.619
 5027POPC   GL264646   6.388  20.131   5.759
 5027POPC   C1A64647   5.914  20.080   6.105
 5027POPC   D2A64648   5.624  19.996   6.493
 5027POPC   C3A64649   5.778  19.871   6.932
 5027POPC   C4A64650   5.551  19.713   7.304
 5027POPC   C1B64651   6.398  19.911   6.167
 5027POPC   C2B64652   6.509  19.933   6.579
 5027POPC   C3B64653   6.446  20.151   6.884
 5027POPC   C4B64654   6.210  20.003   7.227
 5028POPC   NC364655  30.973  32.889   5.292
 5028POPC   PO464656  30.353  33.201   5.393
 5028POPC   GL164657  30.594  33.025   5.721
 5028POPC   GL264658  30.432  32.725   5.815
 5028POPC   C1A64659  30.745  32.999   6.155
 5028POPC   D2A64660  31.012  33.051   6.534
 5028POPC   C3A64661  30.863  32.895   6.924
 5028POPC   C4A64662  30.745  33.238   7.170
 5028POPC   C1B64663  30.257  32.649   6.175
 5028POPC   C2B64664  30.479  32.755   6.530
 5028POPC   C3B64665  30.338  32.857   6.899
 5028POPC   C4B64666  30.461  32.833   7.285
 5029POPC   NC364667  13.788  35.595   5.449
 5029POPC   PO464668  13.199  35.127   5.431
 5029POPC   GL164669  13.399  35.361   5.742
 5029POPC   GL264670  13.668  35.120   5.680
 5029POPC   C1A64671  13.325  35.494   6.192
 5029POPC   D2A64672  13.245  35.632   6.642
 5029POPC   C3A64673  13.541  35.680   6.997
 5029POPC   C4A64674  13.515  35.435   7.381
 5029POPC   C1B64675  13.675  35.110   6.116
 5029POPC   C2B64676  13.706  35.330   6.512
 5029POPC   C3B64677  13.665  35.189   6.929
 5029POPC   C4B64678  13.735  34.963   7.289
 5030POPC   NC364679   0.052  25.785   5.016
 5030POPC   PO464680  44.604  26.206   5.387
 5030POPC   GL164681  44.511  26.294   5.807
 5030POPC   GL264682  44.330  25.998   5.904
 5030POPC   C1A64683  44.710  26.177   6.229
 5030POPC   D2A64684  44.692  26.012   6.672
 5030POPC   C3A64685  44.934  26.214   6.993
 5030POPC   C4A64686  44.949  26.256   7.471
 5030POPC   C1B64687  44.378  25.799   6.316
 5030POPC   C2B64688  44.261  25.563   6.665
 5030POPC   C3B64689  44.262  25.588   7.126
 5030POPC   C4B64690  44.506  25.971   7.220
 5031POPC   NC364691  35.128  35.157   5.412
 5031POPC   PO464692  35.708  35.435   5.464
 5031POPC   GL164693  35.428  35.164   5.834
 5031POPC   GL264694  35.047  35.132   5.911
 5031POPC   C1A64695  35.343  35.087   6.322
 5031POPC   D2A64696  35.254  35.440   6.628
 5031POPC   C3A64697  35.434  35.387   7.061
 5031POPC   C4A64698  35.624  35.604   7.401
 5031POPC   C1B64699  35.142  35.512   6.105
 5031POPC   C2B64700  34.962  35.814   6.369
 5031POPC   C3B64701  34.765  35.755   6.759
 5031POPC   C4B64702  34.911  35.471   7.062
 5032POPC   NC364703   8.152   0.288   5.563
 5032POPC   PO464704   7.781   0.815   5.520
 5032POPC   GL164705   8.094   0.757   5.818
 5032POPC   GL264706   7.827   0.707   6.059
 5032POPC   C1A64707   8.322   0.551   6.161
 5032POPC   D2A64708   8.133   0.554   6.559
 5032POPC   C3A64709   8.290   0.358   6.956
 5032POPC   C4A64710   8.234   0.514   7.387
 5032POPC   C1B64711   7.906   0.257   6.213
 5032POPC   C2B64712   7.934   0.107   6.663
 5032POPC   C3B64713   7.828   0.197   7.119
 5032POPC   C4B64714   7.790   0.320   7.593
 5033POPC   NC364715   8.083   8.448   5.538
 5033POPC   PO464716   8.540   8.217   5.124
 5033POPC   GL164717   8.333   8.038   5.609
 5033POPC   GL264718   7.947   7.964   5.688
 5033POPC   C1A64719   8.249   8.086   6.090
 5033POPC   D2A64720   8.071   8.098   6.535
 5033POPC   C3A64721   8.204   8.146   6.986
 5033POPC   C4A64722   8.342   8.441   7.277
 5033POPC   C1B64723   7.751   8.129   6.096
 5033POPC   C2B64724   7.552   8.135   6.494
 5033POPC   C3B64725   7.689   8.227   6.907
 5033POPC   C4B64726   7.787   7.960   7.262
 5034POPC   NC364727   2.299   4.961   5.418
 5034POPC   PO464728   1.607   5.195   5.384
 5034POPC   GL164729   1.696   5.010   5.799
 5034POPC   GL264730   2.068   5.019   5.866
 5034POPC   C1A64731   1.742   4.971   6.276
 5034POPC   D2A64732   2.136   4.906   6.540
 5034POPC   C3A64733   2.133   5.064   6.937
 5034POPC   C4A64734   1.745   4.995   7.205
 5034POPC   C1B64735   2.127   5.308   6.213
 5034POPC   C2B64736   1.878   5.404   6.571
 5034POPC   C3B64737   1.823   5.477   6.984
 5034POPC   C4B64738   2.081   5.423   7.290
 5035POPC   NC364739   8.743  25.690   5.541
 5035POPC   PO464740   9.207  26.039   5.234
 5035POPC   GL164741   9.150  25.945   5.688
 5035POPC   GL264742   8.835  26.132   5.779
 5035POPC   C1A64743   9.100  25.832   6.172
 5035POPC   D2A64744   8.990  25.977   6.615
 5035POPC   C3A64745   9.326  25.876   6.935
 5035POPC   C4A64746   9.304  25.717   7.368
 5035POPC   C1B64747   8.688  26.186   6.212
 5035POPC   C2B64748   8.600  26.476   6.549
 5035POPC   C3B64749   8.713  26.437   6.970
 5035POPC   C4B64750   8.903  26.059   7.166
 5036POPC   NC364751  24.145  26.469   5.492
 5036POPC   PO464752  24.331  25.911   5.278
 5036POPC   GL164753  24.250  26.052   5.753
 5036POPC   GL264754  24.556  26.173   5.822
 5036POPC   C1A64755  24.257  26.323   6.185
 5036POPC   D2A64756  24.164  26.157   6.609
 5036POPC   C3A64757  24.441  26.257   6.945
 5036POPC   C4A64758  24.496  26.256   7.393
 5036POPC   C1B64759  24.486  25.884   6.228
 5036POPC   C2B64760  24.494  25.790   6.698
 5036POPC   C3B64761  24.263  25.716   7.086
 5036POPC   C4B64762  24.428  25.417   7.439
 5037POPC   NC364763  28.012  31.151   5.497
 5037POPC   PO464764  28.351  30.486   5.549
 5037POPC   GL164765  28.492  30.759   5.860
 5037POPC   GL264766  28.186  30.877   5.881
 5037POPC   C1A64767  28.470  30.666   6.311
 5037POPC   D2A64768  28.192  30.393   6.592
 5037POPC   C3A64769  28.118  30.611   6.982
 5037POPC   C4A64770  28.497  30.794   7.137
 5037POPC   C1B64771  28.285  31.135   6.214
 5037POPC   C2B64772  28.104  31.149   6.621
 5037POPC   C3B64773  28.129  31.143   7.059
 5037POPC   C4B64774  27.963  30.927   7.398
 5038POPC   NC364775  35.161  21.415   5.372
 5038POPC   PO464776  35.742  21.100   5.461
 5038POPC   GL164777  35.440  21.361   5.806
 5038POPC   GL264778  35.047  21.269   5.838
 5038POPC   C1A64779  35.244  21.514   6.236
 5038POPC   D2A64780  35.064  21.323   6.618
 5038POPC   C3A64781  34.934  21.532   6.974
 5038POPC   C4A64782  35.256  21.481   7.251
 5038POPC   C1B64783  35.133  21.005   6.225
 5038POPC   C2B64784  35.136  20.815   6.655
 5038POPC   C3B64785  35.077  21.008   7.069
 5038POPC   C4B64786  34.827  21.237   7.382
 5039POPC   NC364787  23.839  38.311   5.408
 5039POPC   PO464788  23.364  38.795   5.324
 5039POPC   GL164789  23.643  38.702   5.701
 5039POPC   GL264790  24.014  38.787   5.736
 5039POPC   C1A64791  23.657  38.825   6.132
 5039POPC   D2A64792  23.849  38.739   6.517
 5039POPC   C3A64793  23.688  38.862   6.892
 5039POPC   C4A64794  23.518  38.557   7.152
 5039POPC   C1B64795  24.069  38.508   6.094
 5039POPC   C2B64796  23.910  38.238   6.418
 5039POPC   C3B64797  23.892  38.337   6.865
 5039POPC   C4B64798  23.949  38.324   7.318
 5040POPC   NC364799  16.899  36.657   5.440
 5040POPC   PO464800  16.357  37.016   5.393
 5040POPC   GL164801  16.507  36.722   5.744
 5040POPC   GL264802  16.722  36.983   5.819
 5040POPC   C1A64803  16.672  36.583   6.174
 5040POPC   D2A64804  16.501  36.581   6.616
 5040POPC   C3A64805  16.572  36.882   6.978
 5040POPC   C4A64806  16.604  36.834   7.430
 5040POPC   C1B64807  16.932  37.041   6.180
 5040POPC   C2B64808  16.813  37.106   6.580
 5040POPC   C3B64809  17.007  37.237   6.963
 5040POPC   C4B64810  17.113  37.121   7.361
 5041POPC   NC364811  31.625  33.923   5.460
 5041POPC   PO464812  31.187  33.496   5.809
 5041POPC   GL164813  31.544  33.712   5.913
 5041POPC   GL264814  31.720  33.382   5.839
 5041POPC   C1A64815  31.532  34.018   6.260
 5041POPC   D2A64816  31.462  34.242   6.659
 5041POPC   C3A64817  31.559  34.098   7.086
 5041POPC   C4A64818  31.414  33.962   7.513
 5041POPC   C1B64819  31.711  33.481   6.321
 5041POPC   C2B64820  31.558  33.709   6.670
 5041POPC   C3B64821  31.495  33.562   7.053
 5041POPC   C4B64822  31.615  33.459   7.430
 5042POPC   NC364823  41.170  31.294   5.468
 5042POPC   PO464824  41.871  31.488   5.323
 5042POPC   GL164825  41.634  31.375   5.701
 5042POPC   GL264826  41.478  31.649   5.801
 5042POPC   C1A64827  41.681  31.380   6.178
 5042POPC   D2A64828  41.862  31.415   6.585
 5042POPC   C3A64829  41.618  31.440   6.951
 5042POPC   C4A64830  41.900  31.308   7.261
 5042POPC   C1B64831  41.678  31.927   6.054
 5042POPC   C2B64832  41.664  31.899   6.496
 5042POPC   C3B64833  41.912  31.862   6.848
 5042POPC   C4B64834  41.813  31.815   7.261
 5043POPC   NC364835  44.685  20.654   5.379
 5043POPC   PO464836  44.350  20.055   5.520
 5043POPC   GL164837  44.600  20.358   5.787
 5043POPC   GL264838  44.323  20.605   5.759
 5043POPC   C1A64839  44.792  20.607   6.160
 5043POPC   D2A64840  44.695  20.855   6.568
 5043POPC   C3A64841  44.890  20.729   6.975
 5043POPC   C4A64842  44.840  20.774   7.446
 5043POPC   C1B64843  44.251  20.466   6.178
 5043POPC   C2B64844  44.340  20.491   6.623
 5043POPC   C3B64845  44.398  20.555   7.059
 5043POPC   C4B64846  44.320  20.661   7.482
 5044POPC   NC364847  27.075  30.483   5.482
 5044POPC   PO464848  26.737  29.860   5.346
 5044POPC   GL164849  26.781  30.128   5.696
 5044POPC   GL264850  26.870  29.850   5.848
 5044POPC   C1A64851  26.899  30.281   6.107
 5044POPC   D2A64852  26.849  30.015   6.463
 5044POPC   C3A64853  26.835  30.254   6.836
 5044POPC   C4A64854  26.711  30.077   7.194
 5044POPC   C1B64855  26.858  29.572   6.177
 5044POPC   C2B64856  26.609  29.531   6.504
 5044POPC   C3B64857  26.574  29.620   6.915
 5044POPC   C4B64858  26.808  29.455   7.239
 5045POPC   NC364859  30.163  36.624   5.269
 5045POPC   PO464860  29.631  36.344   5.602
 5045POPC   GL164861  29.867  36.128   5.886
 5045POPC   GL264862  30.233  36.182   5.831
 5045POPC   C1A64863  29.749  36.114   6.305
 5045POPC   D2A64864  29.789  35.934   6.686
 5045POPC   C3A64865  29.763  36.159   7.041
 5045POPC   C4A64866  29.611  35.960   7.359
 5045POPC   C1B64867  30.173  36.366   6.257
 5045POPC   C2B64868  30.110  36.358   6.709
 5045POPC   C3B64869  30.244  36.321   7.150
 5045POPC   C4B64870  30.332  36.519   7.542
 5046POPC   NC364871  38.674  22.772   5.366
 5046POPC   PO464872  38.232  23.262   5.280
 5046POPC   GL164873  38.379  23.028   5.716
 5046POPC   GL264874  38.495  22.659   5.824
 5046POPC   C1A64875  38.230  22.976   6.142
 5046POPC   D2A64876  38.446  22.867   6.525
 5046POPC   C3A64877  38.443  23.197   6.826
 5046POPC   C4A64878  38.270  23.159   7.222
 5046POPC   C1B64879  38.808  22.538   6.172
 5046POPC   C2B64880  38.790  22.458   6.638
 5046POPC   C3B64881  38.513  22.633   6.987
 5046POPC   C4B64882  38.516  22.634   7.440
 5047POPC   NC364883  36.659   0.363   5.093
 5047POPC   PO464884  37.074   0.624   5.435
 5047POPC   GL164885  36.876   0.485   5.858
 5047POPC   GL264886  36.718   0.154   5.926
 5047POPC   C1A64887  37.024   0.415   6.310
 5047POPC   D2A64888  37.219   0.620   6.680
 5047POPC   C3A64889  37.190   0.399   7.071
 5047POPC   C4A64890  36.990   0.035   7.190
 5047POPC   C1B64891  36.677   0.016   6.359
 5047POPC   C2B64892  36.713   0.215   6.783
 5047POPC   C3B64893  36.497   0.310   7.199
 5047POPC   C4B64894  36.404   0.484   7.622
 5048POPC   NC364895   5.240  38.444   5.438
 5048POPC   PO464896   4.598  38.522   5.543
 5048POPC   GL164897   4.925  38.338   5.822
 5048POPC   GL264898   5.155  38.042   5.765
 5048POPC   C1A64899   5.208  38.404   6.198
 5048POPC   D2A64900   5.144  38.652   6.599
 5048POPC   C3A64901   5.272  38.590   7.001
 5048POPC   C4A64902   5.534  38.877   7.206
 5048POPC   C1B64903   4.885  37.989   6.165
 5048POPC   C2B64904   4.799  38.278   6.481
 5048POPC   C3B64905   4.853  38.279   6.914
 5048POPC   C4B64906   4.817  38.350   7.355
 5049POPC   NC364907  22.909  38.787   5.469
 5049POPC   PO464908  23.219  39.284   5.071
 5049POPC   GL164909  23.112  39.290   5.538
 5049POPC   GL264910  23.254  39.038   5.749
 5049POPC   C1A64911  22.892  39.322   5.963
 5049POPC   D2A64912  22.879  39.238   6.415
 5049POPC   C3A64913  22.855  39.481   6.777
 5049POPC   C4A64914  22.960  39.367   7.189
 5049POPC   C1B64915  23.150  38.873   6.144
 5049POPC   C2B64916  23.325  38.960   6.527
 5049POPC   C3B64917  23.098  39.002   6.866
 5049POPC   C4B64918  22.945  38.835   7.240
 5050POPC   NC364919   9.489  30.426   5.350
 5050POPC   PO464920  10.020  30.840   5.501
 5050POPC   GL164921   9.800  30.606   5.818
 5050POPC   GL264922   9.439  30.510   5.855
 5050POPC   C1A64923   9.935  30.704   6.223
 5050POPC   D2A64924   9.878  30.554   6.593
 5050POPC   C3A64925   9.921  30.792   6.973
 5050POPC   C4A64926   9.874  30.541   7.342
 5050POPC   C1B64927   9.476  30.904   6.104
 5050POPC   C2B64928   9.516  30.926   6.572
 5050POPC   C3B64929   9.458  30.589   6.887
 5050POPC   C4B64930   9.361  30.578   7.310
 5051POPC   NC364931   0.698  39.336   5.300
 5051POPC   PO464932   0.498  38.723   5.403
 5051POPC   GL164933   0.563  39.017   5.716
 5051POPC   GL264934   0.265  39.248   5.758
 5051POPC   C1A64935   0.467  38.962   6.157
 5051POPC   D2A64936   0.513  39.177   6.535
 5051POPC   C3A64937   0.320  39.022   6.893
 5051POPC   C4A64938   0.420  39.078   7.309
 5051POPC   C1B64939   0.241  39.460   6.195
 5051POPC   C2B64940   0.474  39.686   6.579
 5051POPC   C3B64941   0.490  39.523   6.996
 5051POPC   C4B64942   0.075  39.402   7.124
 5052POPC   NC364943  44.716  35.163   5.621
 5052POPC   PO464944  44.859  35.747   5.353
 5052POPC   GL164945  44.789  35.631   5.824
 5052POPC   GL264946  44.456  35.433   5.946
 5052POPC   C1A64947  44.717  35.657   6.303
 5052POPC   D2A64948  44.746  35.247   6.470
 5052POPC   C3A64949  44.765  35.297   6.873
 5052POPC   C4A64950  44.624  35.549   7.202
 5052POPC   C1B64951  44.324  35.054   6.198
 5052POPC   C2B64952  44.238  35.058   6.654
 5052POPC   C3B64953  44.385  34.908   7.040
 5052POPC   C4B64954  44.727  35.047   7.296
 5053POPC   NC364955  17.730  27.578   5.319
 5053POPC   PO464956  17.121  27.243   5.477
 5053POPC   GL164957  17.447  27.534   5.759
 5053POPC   GL264958  17.713  27.830   5.759
 5053POPC   C1A64959  17.588  27.537   6.191
 5053POPC   D2A64960  17.547  27.371   6.599
 5053POPC   C3A64961  17.395  27.594   6.931
 5053POPC   C4A64962  17.145  27.583   7.294
 5053POPC   C1B64963  18.033  27.757   6.066
 5053POPC   C2B64964  18.044  27.568   6.478
 5053POPC   C3B64965  17.898  27.587   6.909
 5053POPC   C4B64966  17.690  27.540   7.327
 5054POPC   NC364967  29.357  32.551   5.355
 5054POPC   PO464968  28.906  31.997   5.551
 5054POPC   GL164969  28.940  32.313   5.812
 5054POPC   GL264970  29.314  32.358   5.837
 5054POPC   C1A64971  29.017  32.459   6.233
 5054POPC   D2A64972  29.109  32.389   6.647
 5054POPC   C3A64973  28.783  32.213   6.891
 5054POPC   C4A64974  28.787  31.984   7.266
 5054POPC   C1B64975  29.413  32.092   6.223
 5054POPC   C2B64976  29.533  32.104   6.681
 5054POPC   C3B64977  29.274  32.143   7.093
 5054POPC   C4B64978  29.446  32.145   7.550
 5055POPC   NC364979  24.217  31.301   5.481
 5055POPC   PO464980  24.585  31.791   5.564
 5055POPC   GL164981  24.422  31.600   5.863
 5055POPC   GL264982  24.658  31.321   5.812
 5055POPC   C1A64983  24.253  31.712   6.246
 5055POPC   D2A64984  24.260  31.475   6.622
 5055POPC   C3A64985  24.424  31.645   6.984
 5055POPC   C4A64986  24.309  31.867   7.342
 5055POPC   C1B64987  24.508  31.261   6.229
 5055POPC   C2B64988  24.625  31.072   6.590
 5055POPC   C3B64989  24.781  31.090   6.987
 5055POPC   C4B64990  24.553  31.265   7.275
 5056POPC   NC364991  10.181  13.319   4.782
 5056POPC   PO464992   9.873  13.575   5.290
 5056POPC   GL164993   9.765  13.653   5.757
 5056POPC   GL264994   9.730  13.321   5.900
 5056POPC   C1A64995   9.785  13.848   6.194
 5056POPC   D2A64996   9.948  14.083   6.572
 5056POPC   C3A64997  10.005  13.841   6.974
 5056POPC   C4A64998   9.797  13.715   7.367
 5056POPC   C1B64999   9.957  13.382   6.293
 5056POPC   C2B65000   9.929  13.286   6.737
 5056POPC   C3B65001   9.695  13.285   7.135
 5056POPC   C4B65002   9.814  13.284   7.626
 5057POPC   NC365003   4.072  21.760   5.631
 5057POPC   PO465004   4.700  21.403   5.467
 5057POPC   GL165005   4.638  21.392   5.916
 5057POPC   GL265006   4.320  21.558   6.038
 5057POPC   C1A65007   4.705  21.447   6.339
 5057POPC   D2A65008   4.704  21.638   6.702
 5057POPC   C3A65009   4.309  21.747   6.890
 5057POPC   C4A65010   4.252  21.480   7.242
 5057POPC   C1B65011   4.158  21.456   6.450
 5057POPC   C2B65012   4.325  21.231   6.801
 5057POPC   C3B65013   4.143  21.000   7.152
 5057POPC   C4B65014   4.161  21.084   7.622
 5058POPC   NC365015  31.960   7.477   5.408
 5058POPC   PO465016  32.507   7.739   5.230
 5058POPC   GL165017  32.401   7.581   5.696
 5058POPC   GL265018  32.188   7.307   5.852
 5058POPC   C1A65019  32.410   7.678   6.165
 5058POPC   D2A65020  32.163   7.849   6.529
 5058POPC   C3A65021  32.319   7.687   6.911
 5058POPC   C4A65022  32.239   7.574   7.351
 5058POPC   C1B65023  32.490   7.173   6.209
 5058POPC   C2B65024  32.426   7.236   6.668
 5058POPC   C3B65025  32.448   7.179   7.125
 5058POPC   C4B65026  32.228   7.088   7.563
 5059POPC   NC365027  44.719   4.434   5.344
 5059POPC   PO465028  44.680   3.756   5.303
 5059POPC   GL165029  44.547   4.008   5.708
 5059POPC   GL265030  44.442   4.393   5.750
 5059POPC   C1A65031  44.707   4.188   6.116
 5059POPC   D2A65032  44.620   4.259   6.539
 5059POPC   C3A65033  44.987   4.247   6.771
 5059POPC   C4A65034   0.037   4.101   7.156
 5059POPC   C1B65035  44.321   4.583   6.159
 5059POPC   C2B65036  44.561   4.789   6.448
 5059POPC   C3B65037  44.819   4.749   6.794
 5059POPC   C4B65038  44.657   4.522   7.131
 5060POPC   NC365039  27.585  39.597   5.600
 5060POPC   PO465040  27.812  40.247   5.413
 5060POPC   GL165041  27.824  40.023   5.794
 5060POPC   GL265042  27.452  40.003   5.912
 5060POPC   C1A65043  27.869  40.133   6.221
 5060POPC   D2A65044  27.577  40.128   6.560
 5060POPC   C3A65045  27.823  40.190   6.901
 5060POPC   C4A65046  27.742  40.443   7.214
 5060POPC   C1B65047  27.155  40.001   6.278
 5060POPC   C2B65048  27.194  39.758   6.681
 5060POPC   C3B65049  27.383  39.932   7.018
 5060POPC   C4B65050  27.291  40.225   7.280
 5061POPC   NC365051   6.235  20.417   5.200
 5061POPC   PO465052   5.868  20.889   5.506
 5061POPC   GL165053   5.798  20.711   5.908
 5061POPC   GL265054   6.095  20.532   5.920
 5061POPC   C1A65055   5.809  20.616   6.352
 5061POPC   D2A65056   5.779  20.792   6.775
 5061POPC   C3A65057   5.466  20.617   7.088
 5061POPC   C4A65058   5.446  20.634   7.554
 5061POPC   C1B65059   6.262  20.381   6.335
 5061POPC   C2B65060   6.007  20.301   6.699
 5061POPC   C3B65061   5.964  20.431   7.115
 5061POPC   C4B65062   5.900  20.399   7.552
 5062POPC   NC365063   2.945   3.337   5.553
 5062POPC   PO465064   2.528   2.739   5.434
 5062POPC   GL165065   2.764   2.908   5.802
 5062POPC   GL265066   2.829   2.598   5.976
 5062POPC   C1A65067   2.951   3.040   6.204
 5062POPC   D2A65068   2.882   2.830   6.614
 5062POPC   C3A65069   2.532   2.853   6.933
 5062POPC   C4A65070   2.528   2.569   7.282
 5062POPC   C1B65071   3.213   2.583   6.225
 5062POPC   C2B65072   3.403   2.797   6.625
 5062POPC   C3B65073   3.166   2.970   7.048
 5062POPC   C4B65074   2.964   2.799   7.475
 5063POPC   NC365075  25.224   4.393   5.286
 5063POPC   PO465076  25.506   3.829   5.411
 5063POPC   GL165077  25.421   4.119   5.758
 5063POPC   GL265078  25.071   4.057   5.734
 5063POPC   C1A65079  25.288   4.324   6.185
 5063POPC   D2A65080  25.283   4.190   6.647
 5063POPC   C3A65081  25.307   4.475   7.020
 5063POPC   C4A65082  25.346   4.659   7.466
 5063POPC   C1B65083  24.963   3.913   6.152
 5063POPC   C2B65084  24.805   4.007   6.550
 5063POPC   C3B65085  24.894   4.144   6.996
 5063POPC   C4B65086  24.709   4.033   7.433
 5064POPC   NC365087  15.651   9.608   5.322
 5064POPC   PO465088  16.309   9.602   5.204
 5064POPC   GL165089  15.999   9.734   5.638
 5064POPC   GL265090  16.100  10.001   5.821
 5064POPC   C1A65091  15.831   9.693   6.102
 5064POPC   D2A65092  15.741   9.914   6.509
 5064POPC   C3A65093  15.732   9.617   6.813
 5064POPC   C4A65094  16.018   9.584   7.117
 5064POPC   C1B65095  15.953  10.196   6.148
 5064POPC   C2B65096  16.163  10.279   6.521
 5064POPC   C3B65097  16.105  10.098   6.898
 5064POPC   C4B65098  15.792  10.038   7.120
 5065POPC   NC365099  19.589  44.073   5.506
 5065POPC   PO465100  20.053  43.515   5.588
 5065POPC   GL165101  19.798  43.752   5.885
 5065POPC   GL265102  19.895  44.120   5.903
 5065POPC   C1A65103  19.794  43.822   6.330
 5065POPC   D2A65104  19.626  44.001   6.707
 5065POPC   C3A65105  19.682  43.682   6.968
 5065POPC   C4A65106  19.982  43.727   7.265
 5065POPC   C1B65107  19.796  44.330   6.263
 5065POPC   C2B65108  20.024  44.297   6.659
 5065POPC   C3B65109  19.923  44.236   7.101
 5065POPC   C4B65110  19.954  44.281   7.572
 5066POPC   NC365111  15.515   4.437   5.507
 5066POPC   PO465112  14.994   3.971   5.480
 5066POPC   GL165113  14.922   4.171   5.882
 5066POPC   GL265114  15.113   4.500   5.856
 5066POPC   C1A65115  14.817   4.099   6.328
 5066POPC   D2A65116  14.984   4.226   6.733
 5066POPC   C3A65117  14.977   4.012   7.116
 5066POPC   C4A65118  15.235   4.073   7.499
 5066POPC   C1B65119  15.401   4.294   6.145
 5066POPC   C2B65120  15.569   4.230   6.594
 5066POPC   C3B65121  15.431   4.240   7.042
 5066POPC   C4B65122  15.485   4.507   7.442
 5067POPC   NC365123  44.449  17.196   5.396
 5067POPC   PO465124  44.853  17.747   5.417
 5067POPC   GL165125  44.534  17.622   5.726
 5067POPC   GL265126  44.346  17.893   5.893
 5067POPC   C1A65127  44.462  17.393   6.140
 5067POPC   D2A65128  44.440  17.608   6.588
 5067POPC   C3A65129  44.491  17.346   6.965
 5067POPC   C4A65130  44.795  17.272   7.293
 5067POPC   C1B65131  44.689  17.833   6.183
 5067POPC   C2B65132  44.947  17.594   6.441
 5067POPC   C3B65133  44.934  17.572   6.886
 5067POPC   C4B65134  44.699  17.783   7.238
 5068POPC   NC365135  12.402   6.157   4.962
 5068POPC   PO465136  12.023   6.634   5.128
 5068POPC   GL165137  12.160   6.644   5.634
 5068POPC   GL265138  11.989   6.923   5.820
 5068POPC   C1A65139  12.253   6.563   6.118
 5068POPC   D2A65140  12.320   6.293   6.514
 5068POPC   C3A65141  12.300   6.450   6.962
 5068POPC   C4A65142  12.004   6.372   7.338
 5068POPC   C1B65143  11.840   6.932   6.240
 5068POPC   C2B65144  11.953   6.686   6.602
 5068POPC   C3B65145  11.875   6.756   7.032
 5068POPC   C4B65146  11.846   7.106   7.264
 5069POPC   NC365147   9.837  14.656   5.340
 5069POPC   PO465148   9.625  14.130   5.453
 5069POPC   GL165149   9.780  14.344   5.777
 5069POPC   GL265150  10.051  14.177   5.917
 5069POPC   C1A65151   9.657  14.351   6.240
 5069POPC   D2A65152   9.446  14.125   6.615
 5069POPC   C3A65153   9.632  14.188   7.043
 5069POPC   C4A65154   9.901  14.201   7.414
 5069POPC   C1B65155  10.099  14.564   6.098
 5069POPC   C2B65156  10.163  14.577   6.521
 5069POPC   C3B65157  10.048  14.489   6.947
 5069POPC   C4B65158  10.134  14.688   7.342
 5070POPC   NC365159  42.489   1.181   5.369
 5070POPC   PO465160  42.572   1.742   5.685
 5070POPC   GL165161  42.300   1.423   5.843
 5070POPC   GL265162  42.261   1.032   5.817
 5070POPC   C1A65163  42.454   1.297   6.230
 5070POPC   D2A65164  42.501   1.151   6.618
 5070POPC   C3A65165  42.453   1.444   6.934
 5070POPC   C4A65166  42.363   1.454   7.351
 5070POPC   C1B65167  42.406   0.796   6.205
 5070POPC   C2B65168  42.264   0.695   6.640
 5070POPC   C3B65169  42.269   0.940   7.016
 5070POPC   C4B65170  42.185   0.987   7.441
 5071POPC   NC365171  25.304   3.406   5.424
 5071POPC   PO465172  24.721   3.680   5.564
 5071POPC   GL165173  24.983   3.459   5.832
 5071POPC   GL265174  25.308   3.621   5.890
 5071POPC   C1A65175  25.007   3.402   6.266
 5071POPC   D2A65176  24.800   3.487   6.625
 5071POPC   C3A65177  25.097   3.694   6.859
 5071POPC   C4A65178  25.095   3.760   7.270
 5071POPC   C1B65179  25.474   3.227   6.064
 5071POPC   C2B65180  25.570   3.124   6.484
 5071POPC   C3B65181  25.332   3.225   6.816
 5071POPC   C4B65182  25.471   3.439   7.166
 5072POPC   NC365183  43.718  32.990   5.428
 5072POPC   PO465184  43.400  33.552   5.389
 5072POPC   GL165185  43.676  33.413   5.786
 5072POPC   GL265186  43.942  33.150   5.853
 5072POPC   C1A65187  43.621  33.243   6.225
 5072POPC   D2A65188  43.992  33.129   6.488
 5072POPC   C3A65189  43.852  33.024   6.908
 5072POPC   C4A65190  43.850  33.246   7.279
 5072POPC   C1B65191  44.155  32.825   6.101
 5072POPC   C2B65192  44.143  32.650   6.524
 5072POPC   C3B65193  44.293  32.738   6.936
 5072POPC   C4B65194  44.150  32.848   7.340
 5073POPC   NC365195  10.680   5.016   5.278
 5073POPC   PO465196  10.482   5.563   5.489
 5073POPC   GL165197  10.499   5.294   5.827
 5073POPC   GL265198  10.502   4.927   5.787
 5073POPC   C1A65199  10.649   5.218   6.231
 5073POPC   D2A65200  10.799   5.291   6.658
 5073POPC   C3A65201  10.570   5.274   7.059
 5073POPC   C4A65202  10.523   4.966   7.428
 5073POPC   C1B65203  10.434   4.657   6.154
 5073POPC   C2B65204  10.476   4.853   6.552
 5073POPC   C3B65205  10.329   4.851   6.958
 5073POPC   C4B65206  10.091   4.692   7.276
 5074POPC   NC365207  24.742  20.420   5.493
 5074POPC   PO465208  24.107  20.715   5.507
 5074POPC   GL165209  24.121  20.500   5.899
 5074POPC   GL265210  24.364  20.280   5.800
 5074POPC   C1A65211  24.214  20.651   6.322
 5074POPC   D2A65212  24.680  20.715   6.501
 5074POPC   C3A65213  24.733  20.646   6.956
 5074POPC   C4A65214  24.431  20.885   7.220
 5074POPC   C1B65215  24.565  20.312   6.217
 5074POPC   C2B65216  24.404  20.328   6.684
 5074POPC   C3B65217  24.338  20.378   7.150
 5074POPC   C4B65218  24.415  20.185   7.571
 5075POPC   NC365219  41.760  13.190   5.205
 5075POPC   PO465220  41.659  12.550   5.388
 5075POPC   GL165221  41.745  12.722   5.793
 5075POPC   GL265222  41.879  13.040   5.696
 5075POPC   C1A65223  41.563  12.731   6.210
 5075POPC   D2A65224  41.280  12.788   6.541
 5075POPC   C3A65225  41.429  12.858   6.905
 5075POPC   C4A65226  41.551  12.821   7.300
 5075POPC   C1B65227  41.864  13.171   6.124
 5075POPC   C2B65228  41.677  13.169   6.538
 5075POPC   C3B65229  41.741  13.251   6.988
 5075POPC   C4B65230  41.988  13.065   7.315
 5076POPC   NC365231   8.666  27.629   5.689
 5076POPC   PO465232   8.022  27.340   5.441
 5076POPC   GL165233   8.152  27.557   5.808
 5076POPC   GL265234   8.311  27.266   5.905
 5076POPC   C1A65235   8.273  27.761   6.234
 5076POPC   D2A65236   8.061  27.888   6.641
 5076POPC   C3A65237   8.179  27.708   7.047
 5076POPC   C4A65238   8.044  27.731   7.458
 5076POPC   C1B65239   8.504  27.279   6.300
 5076POPC   C2B65240   8.676  27.255   6.692
 5076POPC   C3B65241   8.444  27.216   7.030
 5076POPC   C4B65242   8.215  27.245   7.395
 5077POPC   NC365243  23.431  41.140   5.094
 5077POPC   PO465244  23.397  41.744   5.393
 5077POPC   GL165245  23.222  41.718   5.824
 5077POPC   GL265246  23.293  41.366   5.928
 5077POPC   C1A65247  23.319  41.726   6.283
 5077POPC   D2A65248  23.519  41.340   6.492
 5077POPC   C3A65249  23.549  41.392   6.941
 5077POPC   C4A65250  23.583  41.809   7.187
 5077POPC   C1B65251  23.732  41.508   6.055
 5077POPC   C2B65252  24.019  41.523   6.441
 5077POPC   C3B65253  23.992  41.655   6.870
 5077POPC   C4B65254  24.069  41.707   7.299
 5078POPC   NC365255  37.724   8.456   5.373
 5078POPC   PO465256  37.551   7.774   5.337
 5078POPC   GL165257  37.798   7.960   5.693
 5078POPC   GL265258  37.739   8.294   5.841
 5078POPC   C1A65259  37.858   7.916   6.162
 5078POPC   D2A65260  37.806   8.125   6.544
 5078POPC   C3A65261  37.774   7.901   6.918
 5078POPC   C4A65262  37.588   8.011   7.273
 5078POPC   C1B65263  37.700   8.508   6.211
 5078POPC   C2B65264  37.577   8.590   6.636
 5078POPC   C3B65265  37.775   8.403   6.986
 5078POPC   C4B65266  37.961   8.562   7.347
 5079POPC   NC365267   8.539  33.596   5.588
 5079POPC   PO465268   8.905  34.085   5.419
 5079POPC   GL165269   8.980  33.878   5.813
 5079POPC   GL265270   9.024  33.510   5.805
 5079POPC   C1A65271   8.955  34.050   6.236
 5079POPC   D2A65272   9.214  34.219   6.585
 5079POPC   C3A65273   8.974  34.093   6.938
 5079POPC   C4A65274   8.883  33.850   7.299
 5079POPC   C1B65275   8.778  33.556   6.197
 5079POPC   C2B65276   8.634  33.677   6.600
 5079POPC   C3B65277   8.818  33.488   6.945
 5079POPC   C4B65278   8.893  33.355   7.407
 5080POPC   NC365279  26.988  41.122   5.268
 5080POPC   PO465280  26.860  40.490   5.424
 5080POPC   GL165281  26.883  40.817   5.754
 5080POPC   GL265282  27.204  41.006   5.762
 5080POPC   C1A65283  26.744  40.707   6.186
 5080POPC   D2A65284  26.849  40.857   6.606
 5080POPC   C3A65285  26.746  40.686   6.988
 5080POPC   C4A65286  26.680  40.837   7.415
 5080POPC   C1B65287  27.041  41.113   6.202
 5080POPC   C2B65288  26.976  41.336   6.635
 5080POPC   C3B65289  26.947  41.196   7.101
 5080POPC   C4B65290  27.109  41.090   7.548
 5081POPC   NC365291  13.074  11.449   4.589
 5081POPC   PO465292  12.813  11.327   5.186
 5081POPC   GL165293  12.836  11.300   5.651
 5081POPC   GL265294  13.033  11.588   5.710
 5081POPC   C1A65295  12.607  11.190   6.056
 5081POPC   D2A65296  12.756  11.149   6.487
 5081POPC   C3A65297  12.554  11.386   6.813
 5081POPC   C4A65298  12.668  11.451   7.242
 5081POPC   C1B65299  13.084  11.424   6.126
 5081POPC   C2B65300  13.223  11.309   6.582
 5081POPC   C3B65301  13.046  11.178   7.004
 5081POPC   C4B65302  13.045  11.212   7.499
 5082POPC   NC365303  32.818   7.840   5.547
 5082POPC   PO465304  33.051   8.409   5.182
 5082POPC   GL165305  33.092   8.273   5.664
 5082POPC   GL265306  32.780   8.263   5.859
 5082POPC   C1A65307  33.208   8.443   6.087
 5082POPC   D2A65308  33.032   8.434   6.524
 5082POPC   C3A65309  33.219   8.551   6.894
 5082POPC   C4A65310  33.142   8.444   7.305
 5082POPC   C1B65311  32.920   8.034   6.241
 5082POPC   C2B65312  33.144   7.958   6.663
 5082POPC   C3B65313  33.158   7.930   7.118
 5082POPC   C4B65314  33.459   8.034   7.368
 5083POPC   NC365315  24.378   7.655   5.477
 5083POPC   PO465316  24.788   7.059   5.431
 5083POPC   GL165317  24.538   7.277   5.766
 5083POPC   GL265318  24.705   7.603   5.862
 5083POPC   C1A65319  24.320   7.480   6.147
 5083POPC   D2A65320  24.223   7.679   6.539
 5083POPC   C3A65321  24.237   7.459   6.943
 5083POPC   C4A65322  24.390   7.448   7.387
 5083POPC   C1B65323  24.659   7.845   6.210
 5083POPC   C2B65324  24.695   7.951   6.610
 5083POPC   C3B65325  24.545   7.862   6.990
 5083POPC   C4B65326  24.761   7.918   7.376
 5084POPC   NC365327   9.420   3.634   5.264
 5084POPC   PO465328  10.097   3.794   5.393
 5084POPC   GL165329   9.886   3.679   5.788
 5084POPC   GL265330  10.141   3.795   5.920
 5084POPC   C1A65331   9.645   3.732   6.177
 5084POPC   D2A65332   9.497   3.792   6.612
 5084POPC   C3A65333   9.497   3.368   6.860
 5084POPC   C4A65334   9.365   3.331   7.267
 5084POPC   C1B65335  10.113   3.599   6.302
 5084POPC   C2B65336   9.939   3.583   6.694
 5084POPC   C3B65337   9.846   3.597   7.139
 5084POPC   C4B65338   9.850   3.220   7.366
 5085POPC   NC365339  21.605  42.705   5.407
 5085POPC   PO465340  21.487  42.025   5.347
 5085POPC   GL165341  21.643  42.260   5.665
 5085POPC   GL265342  21.385  42.436   5.836
 5085POPC   C1A65343  21.737  42.164   6.092
 5085POPC   D2A65344  21.541  42.384   6.419
 5085POPC   C3A65345  21.641  42.257   6.821
 5085POPC   C4A65346  21.593  42.407   7.231
 5085POPC   C1B65347  21.103  42.206   6.145
 5085POPC   C2B65348  21.149  42.046   6.563
 5085POPC   C3B65349  21.113  42.250   6.971
 5085POPC   C4B65350  21.184  42.062   7.363
 5086POPC   NC365351  44.186   9.768   5.407
 5086POPC   PO465352  43.547   9.821   5.165
 5086POPC   GL165353  43.714   9.780   5.608
 5086POPC   GL265354  43.920  10.080   5.732
 5086POPC   C1A65355  43.776   9.728   6.081
 5086POPC   D2A65356  43.623   9.897   6.486
 5086POPC   C3A65357  43.684   9.557   6.778
 5086POPC   C4A65358  43.929   9.533   7.161
 5086POPC   C1B65359  43.977  10.201   6.179
 5086POPC   C2B65360  43.935  10.285   6.635
 5086POPC   C3B65361  43.859  10.010   7.004
 5086POPC   C4B65362  44.175   9.964   7.371
 5087POPC   NC365363   0.778  31.675   5.352
 5087POPC   PO465364   1.354  31.436   5.168
 5087POPC   GL165365   1.262  31.402   5.675
 5087POPC   GL265366   0.995  31.599   5.824
 5087POPC   C1A65367   1.405  31.327   6.173
 5087POPC   D2A65368   1.364  31.346   6.677
 5087POPC   C3A65369   1.554  31.402   7.103
 5087POPC   C4A65370   1.600  31.802   7.308
 5087POPC   C1B65371   0.780  31.480   6.231
 5087POPC   C2B65372   0.889  31.453   6.647
 5087POPC   C3B65373   1.117  31.747   6.975
 5087POPC   C4B65374   1.111  31.710   7.450
 5088POPC   NC365375   7.095  35.674   5.396
 5088POPC   PO465376   7.357  36.398   5.317
 5088POPC   GL165377   7.431  36.166   5.757
 5088POPC   GL265378   7.355  35.802   5.804
 5088POPC   C1A65379   7.544  36.184   6.234
 5088POPC   D2A65380   7.456  36.353   6.674
 5088POPC   C3A65381   7.595  36.193   7.115
 5088POPC   C4A65382   7.559  35.768   7.308
 5088POPC   C1B65383   7.097  35.962   6.138
 5088POPC   C2B65384   7.012  36.093   6.551
 5088POPC   C3B65385   7.169  35.971   6.965
 5088POPC   C4B65386   7.059  35.786   7.364
 5089POPC   NC365387  30.214  17.986   4.952
 5089POPC   PO465388  30.278  18.506   5.216
 5089POPC   GL165389  30.224  18.416   5.687
 5089POPC   GL265390  30.160  18.040   5.741
 5089POPC   C1A65391  30.073  18.377   6.148
 5089POPC   D2A65392  29.701  18.301   6.433
 5089POPC   C3A65393  29.754  18.306   6.891
 5089POPC   C4A65394  30.157  18.430   7.053
 5089POPC   C1B65395  30.133  17.883   6.199
 5089POPC   C2B65396  30.147  18.102   6.610
 5089POPC   C3B65397  30.052  17.919   7.016
 5089POPC   C4B65398  29.814  18.032   7.400
 5090POPC   NC365399  36.286   8.607   5.453
 5090POPC   PO465400  36.593   8.057   5.391
 5090POPC   GL165401  36.254   8.165   5.727
 5090POPC   GL265402  36.438   8.426   5.920
 5090POPC   C1A65403  35.946   8.293   6.073
 5090POPC   D2A65404  35.888   8.044   6.464
 5090POPC   C3A65405  36.088   8.298   6.799
 5090POPC   C4A65406  36.007   8.147   7.177
 5090POPC   C1B65407  36.368   8.176   6.323
 5090POPC   C2B65408  36.383   7.901   6.721
 5090POPC   C3B65409  36.484   8.001   7.177
 5090POPC   C4B65410  36.306   8.361   7.526
 5091POPC   NC365411  25.156   8.282   5.519
 5091POPC   PO465412  25.697   8.662   5.808
 5091POPC   GL165413  25.531   8.258   5.885
 5091POPC   GL265414  25.445   7.906   5.770
 5091POPC   C1A65415  25.386   8.144   6.288
 5091POPC   D2A65416  25.100   8.293   6.607
 5091POPC   C3A65417  25.247   8.273   7.054
 5091POPC   C4A65418  25.065   8.337   7.493
 5091POPC   C1B65419  25.155   7.732   6.082
 5091POPC   C2B65420  25.180   7.716   6.539
 5091POPC   C3B65421  25.078   7.788   6.976
 5091POPC   C4B65422  25.269   7.878   7.392
 5092POPC   NC365423  14.534  39.284   5.245
 5092POPC   PO465424  14.099  38.807   5.498
 5092POPC   GL165425  14.187  38.995   5.856
 5092POPC   GL265426  14.460  39.205   5.756
 5092POPC   C1A65427  14.281  39.122   6.271
 5092POPC   D2A65428  14.380  39.416   6.593
 5092POPC   C3A65429  14.604  39.203   6.897
 5092POPC   C4A65430  14.402  39.135   7.243
 5092POPC   C1B65431  14.790  39.313   6.070
 5092POPC   C2B65432  14.938  39.393   6.514
 5092POPC   C3B65433  14.769  39.680   6.817
 5092POPC   C4B65434  14.567  39.626   7.253
 5093POPC   NC365435  22.739  16.656   5.258
 5093POPC   PO465436  22.062  16.823   5.453
 5093POPC   GL165437  22.348  16.812   5.771
 5093POPC   GL265438  22.132  17.039   5.928
 5093POPC   C1A65439  22.383  16.683   6.216
 5093POPC   D2A65440  22.604  16.661   6.630
 5093POPC   C3A65441  22.369  16.518   7.008
 5093POPC   C4A65442  22.015  16.583   7.282
 5093POPC   C1B65443  21.888  16.973   6.270
 5093POPC   C2B65444  22.084  16.803   6.623
 5093POPC   C3B65445  22.040  16.989   7.005
 5093POPC   C4B65446  21.796  17.269   7.190
 5094POPC   NC365447   8.152  35.267   5.316
 5094POPC   PO465448   7.493  35.417   5.455
 5094POPC   GL165449   7.872  35.251   5.760
 5094POPC   GL265450   8.267  35.366   5.783
 5094POPC   C1A65451   8.024  35.293   6.205
 5094POPC   D2A65452   7.942  35.161   6.601
 5094POPC   C3A65453   8.150  35.394   6.875
 5094POPC   C4A65454   7.972  35.441   7.259
 5094POPC   C1B65455   8.492  35.142   6.107
 5094POPC   C2B65456   8.440  35.061   6.523
 5094POPC   C3B65457   8.561  35.093   6.909
 5094POPC   C4B65458   8.478  35.323   7.259
 5095POPC   NC365459  23.306  11.532   5.582
 5095POPC   PO465460  24.036  11.401   5.552
 5095POPC   GL165461  23.895  11.221   5.932
 5095POPC   GL265462  23.554  11.339   5.969
 5095POPC   C1A65463  23.838  11.281   6.390
 5095POPC   D2A65464  23.815  11.609   6.700
 5095POPC   C3A65465  23.930  11.445   7.064
 5095POPC   C4A65466  23.981  11.428   7.484
 5095POPC   C1B65467  23.503  10.933   6.147
 5095POPC   C2B65468  23.589  10.832   6.559
 5095POPC   C3B65469  23.546  11.091   6.931
 5095POPC   C4B65470  23.567  11.193   7.357
 5096POPC   NC365471  13.337   9.012   5.469
 5096POPC   PO465472  13.996   9.205   5.358
 5096POPC   GL165473  13.834   9.133   5.754
 5096POPC   GL265474  13.799   8.792   5.848
 5096POPC   C1A65475  13.518   9.198   6.076
 5096POPC   D2A65476  13.427   9.128   6.492
 5096POPC   C3A65477  13.558   9.348   6.857
 5096POPC   C4A65478  13.441   9.230   7.265
 5096POPC   C1B65479  13.863   8.884   6.315
 5096POPC   C2B65480  13.819   8.927   6.790
 5096POPC   C3B65481  13.679   8.787   7.210
 5096POPC   C4B65482  13.874   8.672   7.628
 5097POPC   NC365483  10.245  25.480   5.323
 5097POPC   PO465484  10.893  25.571   5.482
 5097POPC   GL165485  10.589  25.227   5.692
 5097POPC   GL265486  10.286  25.397   5.820
 5097POPC   C1A65487  10.418  24.939   6.048
 5097POPC   D2A65488  10.550  24.827   6.494
 5097POPC   C3A65489  10.613  25.200   6.786
 5097POPC   C4A65490  10.497  25.194   7.217
 5097POPC   C1B65491  10.449  25.408   6.240
 5097POPC   C2B65492  10.289  25.602   6.584
 5097POPC   C3B65493  10.251  25.603   7.008
 5097POPC   C4B65494  10.462  25.666   7.383
 5098POPC   NC365495   7.273  36.870   5.378
 5098POPC   PO465496   7.694  37.337   5.546
 5098POPC   GL165497   7.501  37.000   5.795
 5098POPC   GL265498   7.120  37.113   5.801
 5098POPC   C1A65499   7.585  36.701   6.115
 5098POPC   D2A65500   7.704  36.810   6.526
 5098POPC   C3A65501   7.841  36.638   6.890
 5098POPC   C4A65502   7.570  36.686   7.239
 5098POPC   C1B65503   7.208  37.046   6.230
 5098POPC   C2B65504   7.313  37.108   6.646
 5098POPC   C3B65505   7.186  36.980   7.024
 5098POPC   C4B65506   6.988  37.158   7.340
 5099POPC   NC365507  44.728   2.178   5.105
 5099POPC   PO465508  44.141   2.073   5.251
 5099POPC   GL165509  44.448   2.022   5.628
 5099POPC   GL265510  44.493   1.709   5.771
 5099POPC   C1A65511  44.668   2.079   6.075
 5099POPC   D2A65512  44.591   2.038   6.503
 5099POPC   C3A65513  44.881   2.075   6.841
 5099POPC   C4A65514  44.826   2.326   7.242
 5099POPC   C1B65515  44.766   1.572   6.134
 5099POPC   C2B65516  44.828   1.589   6.584
 5099POPC   C3B65517  44.537   1.708   6.893
 5099POPC   C4B65518  44.744   1.778   7.255
 5100POPC   NC365519  37.240  17.684   5.189
 5100POPC   PO465520  36.696  17.345   5.346
 5100POPC   GL165521  37.002  17.407   5.665
 5100POPC   GL265522  37.047  17.725   5.683
 5100POPC   C1A65523  36.961  17.312   6.114
 5100POPC   D2A65524  36.894  17.125   6.531
 5100POPC   C3A65525  36.816  17.340   6.909
 5100POPC   C4A65526  36.820  17.207   7.356
 5100POPC   C1B65527  37.067  17.811   6.115
 5100POPC   C2B65528  37.066  17.648   6.539
 5100POPC   C3B65529  36.978  17.849   6.922
 5100POPC   C4B65530  36.905  17.693   7.305
 5101POPC   NC365531   0.108  41.423   5.393
 5101POPC   PO465532  44.533  41.808   5.390
 5101POPC   GL165533  44.781  41.657   5.732
 5101POPC   GL265534  44.465  41.684   5.901
 5101POPC   C1A65535  44.931  41.757   6.152
 5101POPC   D2A65536  44.710  41.822   6.532
 5101POPC   C3A65537  44.790  41.626   6.921
 5101POPC   C4A65538  44.825  41.467   7.310
 5101POPC   C1B65539  44.374  42.011   6.164
 5101POPC   C2B65540  44.207  42.014   6.563
 5101POPC   C3B65541  44.400  41.963   6.940
 5101POPC   C4B65542  44.481  41.830   7.346
 5102POPC   NC365543   4.484   3.372   5.648
 5102POPC   PO465544   4.890   3.869   5.506
 5102POPC   GL165545   4.513   3.897   5.782
 5102POPC   GL265546   4.154   3.745   5.783
 5102POPC   C1A65547   4.497   3.749   6.212
 5102POPC   D2A65548   4.475   3.382   6.474
 5102POPC   C3A65549   4.505   3.516   6.891
 5102POPC   C4A65550   4.566   3.282   7.241
 5102POPC   C1B65551   3.997   3.757   6.245
 5102POPC   C2B65552   3.991   3.603   6.689
 5102POPC   C3B65553   4.032   3.473   7.127
 5102POPC   C4B65554   4.093   3.218   7.498
 5103POPC   NC365555   4.859   4.149   5.141
 5103POPC   PO465556   5.198   4.515   5.623
 5103POPC   GL165557   5.211   4.162   5.925
 5103POPC   GL265558   5.020   3.880   5.973
 5103POPC   C1A65559   5.302   4.061   6.370
 5103POPC   D2A65560   5.339   4.077   6.791
 5103POPC   C3A65561   5.192   4.452   6.958
 5103POPC   C4A65562   5.369   4.614   7.320
 5103POPC   C1B65563   4.806   4.142   6.273
 5103POPC   C2B65564   4.824   3.974   6.675
 5103POPC   C3B65565   4.715   3.998   7.068
 5103POPC   C4B65566   4.500   4.370   7.116
 5104POPC   NC365567  14.483  36.387   5.498
 5104POPC   PO465568  14.115  35.905   5.260
 5104POPC   GL165569  14.167  35.995   5.681
 5104POPC   GL265570  14.002  36.294   5.668
 5104POPC   C1A65571  14.248  36.010   6.138
 5104POPC   D2A65572  14.471  35.913   6.533
 5104POPC   C3A65573  14.464  36.094   6.926
 5104POPC   C4A65574  14.200  35.875   7.208
 5104POPC   C1B65575  14.133  36.500   6.026
 5104POPC   C2B65576  14.257  36.442   6.445
 5104POPC   C3B65577  14.196  36.525   6.857
 5104POPC   C4B65578  14.180  36.392   7.258
 5105POPC   NC365579  14.972  13.000   5.404
 5105POPC   PO465580  15.175  12.453   5.472
 5105POPC   GL165581  14.938  12.698   5.855
 5105POPC   GL265582  14.900  13.098   5.894
 5105POPC   C1A65583  14.964  12.615   6.350
 5105POPC   D2A65584  15.273  12.626   6.714
 5105POPC   C3A65585  15.205  12.600   7.176
 5105POPC   C4A65586  14.995  12.526   7.592
 5105POPC   C1B65587  14.882  13.121   6.343
 5105POPC   C2B65588  14.917  13.001   6.785
 5105POPC   C3B65589  15.140  13.121   7.149
 5105POPC   C4B65590  15.086  13.420   7.463
 5106POPC   NC365591  15.135  18.483   5.438
 5106POPC   PO465592  15.485  17.867   5.436
 5106POPC   GL165593  15.185  18.069   5.801
 5106POPC   GL265594  15.254  18.445   5.925
 5106POPC   C1A65595  15.122  18.115   6.288
 5106POPC   D2A65596  14.946  18.321   6.672
 5106POPC   C3A65597  15.101  18.367   7.119
 5106POPC   C4A65598  14.987  18.062   7.454
 5106POPC   C1B65599  15.524  18.439   6.304
 5106POPC   C2B65600  15.483  18.337   6.744
 5106POPC   C3B65601  15.613  18.507   7.129
 5106POPC   C4B65602  15.470  18.504   7.537
 5107POPC   NC365603  36.189  44.991   5.217
 5107POPC   PO465604  36.044  44.381   5.290
 5107POPC   GL165605  36.204  44.504   5.706
 5107POPC   GL265606  36.313  44.856   5.761
 5107POPC   C1A65607  35.958  44.516   6.113
 5107POPC   D2A65608  35.852  44.679   6.507
 5107POPC   C3A65609  35.920  44.479   6.890
 5107POPC   C4A65610  35.798  44.552   7.292
 5107POPC   C1B65611  36.182  44.983   6.234
 5107POPC   C2B65612  36.242  44.967   6.721
 5107POPC   C3B65613  36.072  44.962   7.162
 5107POPC   C4B65614  36.172   0.017   7.615
 5108POPC   NC365615  20.666  38.151   5.384
 5108POPC   PO465616  20.760  38.828   5.489
 5108POPC   GL165617  20.754  38.619   5.898
 5108POPC   GL265618  20.531  38.331   5.864
 5108POPC   C1A65619  20.501  38.657   6.306
 5108POPC   D2A65620  20.198  38.735   6.654
 5108POPC   C3A65621  20.424  38.680   7.054
 5108POPC   C4A65622  20.608  38.656   7.487
 5108POPC   C1B65623  20.487  38.144   6.290
 5108POPC   C2B65624  20.385  38.245   6.743
 5108POPC   C3B65625  20.510  38.205   7.208
 5108POPC   C4B65626  20.740  37.958   7.520
 5109POPC   NC365627   4.387  26.330   5.539
 5109POPC   PO465628   4.555  26.933   5.386
 5109POPC   GL165629   4.398  26.838   5.810
 5109POPC   GL265630   4.078  26.752   5.716
 5109POPC   C1A65631   4.444  26.717   6.277
 5109POPC   D2A65632   4.538  26.536   6.691
 5109POPC   C3A65633   4.482  26.743   7.082
 5109POPC   C4A65634   4.603  26.702   7.496
 5109POPC   C1B65635   3.955  26.711   6.140
 5109POPC   C2B65636   3.925  26.840   6.559
 5109POPC   C3B65637   3.972  26.739   6.993
 5109POPC   C4B65638   4.018  26.868   7.436
 5110POPC   NC365639  11.253  21.134   4.808
 5110POPC   PO465640  11.553  21.635   5.143
 5110POPC   GL165641  11.377  21.473   5.619
 5110POPC   GL265642  11.263  21.115   5.661
 5110POPC   C1A65643  11.287  21.349   6.106
 5110POPC   D2A65644  11.125  21.253   6.524
 5110POPC   C3A65645  11.295  21.522   6.817
 5110POPC   C4A65646  11.496  21.459   7.201
 5110POPC   C1B65647  11.632  20.998   5.974
 5110POPC   C2B65648  11.600  21.077   6.451
 5110POPC   C3B65649  11.442  21.016   6.909
 5110POPC   C4B65650  11.624  20.982   7.343
 5111POPC   NC365651  33.408   0.518   5.343
 5111POPC   PO465652  32.892   0.150   5.133
 5111POPC   GL165653  32.965   0.251   5.641
 5111POPC   GL265654  32.834   0.541   5.820
 5111POPC   C1A65655  33.203   0.218   6.062
 5111POPC   D2A65656  33.308   0.447   6.495
 5111POPC   C3A65657  33.240   0.358   6.975
 5111POPC   C4A65658  33.204   0.514   7.466
 5111POPC   C1B65659  32.888   0.569   6.242
 5111POPC   C2B65660  32.810   0.385   6.605
 5111POPC   C3B65661  32.737   0.483   6.961
 5111POPC   C4B65662  32.678   0.582   7.352
 5112POPC   NC365663  18.290  37.310   5.584
 5112POPC   PO465664  18.074  36.713   5.504
 5112POPC   GL165665  18.106  36.906   5.901
 5112POPC   GL265666  17.829  37.089   5.837
 5112POPC   C1A65667  18.411  37.045   6.248
 5112POPC   D2A65668  18.554  36.825   6.634
 5112POPC   C3A65669  18.561  37.004   7.055
 5112POPC   C4A65670  18.404  36.863   7.485
 5112POPC   C1B65671  17.955  37.278   6.259
 5112POPC   C2B65672  18.151  37.162   6.695
 5112POPC   C3B65673  18.058  37.006   7.131
 5112POPC   C4B65674  17.948  37.151   7.568
 5113POPC   NC365675  14.254   6.402   5.282
 5113POPC   PO465676  14.429   6.998   5.436
 5113POPC   GL165677  14.417   6.644   5.723
 5113POPC   GL265678  14.578   6.325   5.719
 5113POPC   C1A65679  14.224   6.502   6.112
 5113POPC   D2A65680  14.151   6.780   6.480
 5113POPC   C3A65681  14.111   6.618   6.884
 5113POPC   C4A65682  14.307   6.729   7.271
 5113POPC   C1B65683  14.742   6.448   6.118
 5113POPC   C2B65684  14.536   6.420   6.528
 5113POPC   C3B65685  14.633   6.595   6.913
 5113POPC   C4B65686  14.756   6.458   7.317
 5114POPC   NC365687   9.604  24.763   5.455
 5114POPC   PO465688  10.147  24.332   5.409
 5114POPC   GL165689   9.874  24.441   5.766
 5114POPC   GL265690   9.971  24.804   5.819
 5114POPC   C1A65691   9.943  24.453   6.210
 5114POPC   D2A65692  10.117  24.455   6.634
 5114POPC   C3A65693   9.838  24.396   6.999
 5114POPC   C4A65694  10.017  24.373   7.416
 5114POPC   C1B65695   9.627  24.822   6.133
 5114POPC   C2B65696   9.597  24.641   6.557
 5114POPC   C3B65697   9.571  24.861   6.956
 5114POPC   C4B65698   9.736  24.817   7.363
 5115POPC   NC365699  30.254   8.484   5.318
 5115POPC   PO465700  30.586   7.943   5.505
 5115POPC   GL165701  30.781   8.049   5.866
 5115POPC   GL265702  31.072   7.914   5.957
 5115POPC   C1A65703  30.633   8.169   6.262
 5115POPC   D2A65704  30.794   8.351   6.636
 5115POPC   C3A65705  30.568   8.664   6.857
 5115POPC   C4A65706  30.397   8.451   7.186
 5115POPC   C1B65707  31.109   8.002   6.404
 5115POPC   C2B65708  30.983   7.932   6.861
 5115POPC   C3B65709  30.575   7.926   7.108
 5115POPC   C4B65710  30.314   7.866   7.508
 5116POPC   NC365711  40.132  18.869   5.380
 5116POPC   PO465712  40.302  19.495   5.714
 5116POPC   GL165713  40.128  19.124   5.833
 5116POPC   GL265714  40.287  18.793   5.847
 5116POPC   C1A65715  40.086  19.092   6.242
 5116POPC   D2A65716  39.906  19.154   6.608
 5116POPC   C3A65717  40.158  19.299   6.926
 5116POPC   C4A65718  39.973  19.352   7.294
 5116POPC   C1B65719  39.926  18.649   6.048
 5116POPC   C2B65720  39.897  18.668   6.461
 5116POPC   C3B65721  39.896  18.708   6.887
 5116POPC   C4B65722  40.062  18.853   7.245
 5117POPC   NC365723  14.030   9.629   5.551
 5117POPC   PO465724  13.242   9.528   5.531
 5117POPC   GL165725  13.540   9.742   5.807
 5117POPC   GL265726  13.811   9.595   5.997
 5117POPC   C1A65727  13.379   9.983   6.151
 5117POPC   D2A65728  13.152   9.767   6.456
 5117POPC   C3A65729  13.355   9.804   6.831
 5117POPC   C4A65730  13.242   9.950   7.199
 5117POPC   C1B65731  13.638   9.609   6.383
 5117POPC   C2B65732  13.784   9.960   6.567
 5117POPC   C3B65733  13.943   9.860   6.944
 5117POPC   C4B65734  13.692   9.681   7.261
 5118POPC   NC365735  16.998  39.007   5.526
 5118POPC   PO465736  16.567  39.373   5.298
 5118POPC   GL165737  16.667  39.347   5.742
 5118POPC   GL265738  16.608  39.020   5.896
 5118POPC   C1A65739  16.559  39.442   6.177
 5118POPC   D2A65740  16.761  39.423   6.551
 5118POPC   C3A65741  16.538  39.298   6.900
 5118POPC   C4A65742  16.752  39.418   7.254
 5118POPC   C1B65743  16.954  39.075   6.216
 5118POPC   C2B65744  16.918  38.927   6.651
 5118POPC   C3B65745  17.068  38.881   7.081
 5118POPC   C4B65746  16.962  38.971   7.506
 5119POPC   NC365747  31.295  20.126   5.371
 5119POPC   PO465748  31.988  20.095   5.575
 5119POPC   GL165749  31.605  20.088   5.784
 5119POPC   GL265750  31.358  19.818   5.800
 5119POPC   C1A65751  31.330  20.204   6.126
 5119POPC   D2A65752  31.339  19.980   6.496
 5119POPC   C3A65753  31.260  20.028   6.906
 5119POPC   C4A65754  31.625  19.933   7.133
 5119POPC   C1B65755  31.396  19.568   6.198
 5119POPC   C2B65756  31.264  19.476   6.647
 5119POPC   C3B65757  31.298  19.543   7.115
 5119POPC   C4B65758  31.702  19.500   7.399
 5120POPC   NC365759  24.316   6.821   5.470
 5120POPC   PO465760  24.707   6.215   5.427
 5120POPC   GL165761  24.521   6.466   5.767
 5120POPC   GL265762  24.700   6.787   5.868
 5120POPC   C1A65763  24.486   6.490   6.223
 5120POPC   D2A65764  24.620   6.803   6.518
 5120POPC   C3A65765  24.624   6.540   6.852
 5120POPC   C4A65766  24.416   6.510   7.202
 5120POPC   C1B65767  24.324   6.968   6.121
 5120POPC   C2B65768  24.160   7.062   6.554
 5120POPC   C3B65769  24.378   6.977   6.964
 5120POPC   C4B65770  24.815   6.897   7.152
 5121POPC   NC365771  26.531   5.283   5.531
 5121POPC   PO465772  25.921   4.942   5.228
 5121POPC   GL165773  26.007   5.053   5.698
 5121POPC   GL265774  25.847   5.374   5.831
 5121POPC   C1A65775  26.173   4.978   6.154
 5121POPC   D2A65776  26.361   4.897   6.594
 5121POPC   C3A65777  26.130   4.815   6.963
 5121POPC   C4A65778  26.320   4.684   7.356
 5121POPC   C1B65779  26.246   5.490   6.105
 5121POPC   C2B65780  26.533   5.391   6.490
 5121POPC   C3B65781  26.385   5.314   6.938
 5121POPC   C4B65782  26.191   5.617   7.230
 5122POPC   NC365783  32.104  24.336   5.340
 5122POPC   PO465784  32.620  24.746   5.500
 5122POPC   GL165785  32.410  24.425   5.788
 5122POPC   GL265786  32.108  24.209   5.823
 5122POPC   C1A65787  32.227  24.539   6.203
 5122POPC   D2A65788  32.380  24.790   6.553
 5122POPC   C3A65789  32.476  24.606   6.958
 5122POPC   C4A65790  32.155  24.652   7.283
 5122POPC   C1B65791  32.223  24.052   6.196
 5122POPC   C2B65792  32.335  24.254   6.577
 5122POPC   C3B65793  32.073  24.323   6.889
 5122POPC   C4B65794  32.070  24.074   7.212
 5123POPC   NC365795  44.673  25.069   5.194
 5123POPC   PO465796   0.190  25.496   5.396
 5123POPC   GL165797  44.770  25.363   5.628
 5123POPC   GL265798  44.555  25.030   5.690
 5123POPC   C1A65799  44.687  25.482   6.059
 5123POPC   D2A65800  44.917  25.572   6.454
 5123POPC   C3A65801  44.715  25.541   6.870
 5123POPC   C4A65802  44.739  25.367   7.259
 5123POPC   C1B65803  44.675  24.976   6.120
 5123POPC   C2B65804  44.590  25.175   6.513
 5123POPC   C3B65805  44.628  25.009   6.917
 5123POPC   C4B65806  44.409  24.995   7.311
 5124POPC   NC365807  16.032   6.065   5.340
 5124POPC   PO465808  16.055   5.413   5.504
 5124POPC   GL165809  15.965   5.779   5.751
 5124POPC   GL265810  16.220   6.036   5.804
 5124POPC   C1A65811  15.834   5.881   6.133
 5124POPC   D2A65812  15.956   6.031   6.519
 5124POPC   C3A65813  16.055   5.727   6.802
 5124POPC   C4A65814  15.829   5.896   7.123
 5124POPC   C1B65815  16.349   5.894   6.215
 5124POPC   C2B65816  16.432   6.149   6.616
 5124POPC   C3B65817  16.322   6.090   7.050
 5124POPC   C4B65818  16.091   6.170   7.454
 5125POPC   NC365819  22.424  11.967   5.403
 5125POPC   PO465820  21.769  11.836   5.404
 5125POPC   GL165821  22.073  11.917   5.768
 5125POPC   GL265822  22.294  11.619   5.739
 5125POPC   C1A65823  21.981  11.965   6.224
 5125POPC   D2A65824  21.937  12.259   6.571
 5125POPC   C3A65825  22.247  12.227   6.880
 5125POPC   C4A65826  22.080  12.075   7.223
 5125POPC   C1B65827  22.321  11.586   6.191
 5125POPC   C2B65828  22.223  11.682   6.640
 5125POPC   C3B65829  22.368  11.649   7.085
 5125POPC   C4B65830  22.378  11.821   7.533
 5126POPC   NC365831  41.015  23.142   5.425
 5126POPC   PO465832  40.487  22.632   5.456
 5126POPC   GL165833  40.704  22.860   5.796
 5126POPC   GL265834  40.770  23.214   5.854
 5126POPC   C1A65835  40.834  22.788   6.218
 5126POPC   D2A65836  40.735  22.574   6.604
 5126POPC   C3A65837  40.863  22.819   6.967
 5126POPC   C4A65838  40.624  23.032   7.278
 5126POPC   C1B65839  41.065  23.252   6.177
 5126POPC   C2B65840  40.943  23.152   6.574
 5126POPC   C3B65841  40.957  23.323   6.983
 5126POPC   C4B65842  41.021  23.369   7.389
 5127POPC   NC365843   6.400  29.643   5.352
 5127POPC   PO465844   6.667  30.243   5.311
 5127POPC   GL165845   6.686  29.940   5.680
 5127POPC   GL265846   6.403  30.078   5.795
 5127POPC   C1A65847   6.591  29.765   6.147
 5127POPC   D2A65848   6.679  29.555   6.566
 5127POPC   C3A65849   6.801  29.727   6.968
 5127POPC   C4A65850   6.559  29.829   7.343
 5127POPC   C1B65851   6.812  30.209   6.077
 5127POPC   C2B65852   6.824  30.084   6.538
 5127POPC   C3B65853   6.574  30.171   6.926
 5127POPC   C4B65854   6.658  30.366   7.278
 5128POPC   NC365855  24.565  44.589   5.438
 5128POPC   PO465856  23.944  44.377   5.453
 5128POPC   GL165857  24.181  44.649   5.775
 5128POPC   GL265858  24.548  44.607   5.926
 5128POPC   C1A65859  24.157  44.761   6.210
 5128POPC   D2A65860  24.228  44.545   6.596
 5128POPC   C3A65861  24.241  44.691   7.009
 5128POPC   C4A65862  24.381  44.752   7.435
 5128POPC   C1B65863  24.679  44.710   6.325
 5128POPC   C2B65864  24.743  44.461   6.677
 5128POPC   C3B65865  24.689  44.500   7.104
 5128POPC   C4B65866  24.902  44.700   7.439
 5129POPC   NC365867  43.610  42.500   5.387
 5129POPC   PO465868  44.285  42.646   5.440
 5129POPC   GL165869  43.981  42.570   5.807
 5129POPC   GL265870  43.771  42.249   5.801
 5129POPC   C1A65871  43.968  42.331   6.236
 5129POPC   D2A65872  43.708  42.308   6.584
 5129POPC   C3A65873  43.933  42.241   6.923
 5129POPC   C4A65874  44.004  42.019   7.261
 5129POPC   C1B65875  43.557  42.578   6.129
 5129POPC   C2B65876  43.682  42.819   6.486
 5129POPC   C3B65877  43.772  42.751   6.904
 5129POPC   C4B65878  44.001  42.618   7.248
 5130POPC   NC365879  19.996   2.296   5.439
 5130POPC   PO465880  20.539   2.769   5.457
 5130POPC   GL165881  20.755   2.881   5.844
 5130POPC   GL265882  20.413   3.018   6.000
 5130POPC   C1A65883  20.846   3.094   6.241
 5130POPC   D2A65884  20.502   3.086   6.539
 5130POPC   C3A65885  20.599   2.939   6.957
 5130POPC   C4A65886  20.472   2.786   7.357
 5130POPC   C1B65887  20.528   2.622   6.212
 5130POPC   C2B65888  20.651   2.536   6.613
 5130POPC   C3B65889  20.493   2.438   6.998
 5130POPC   C4B65890  20.260   2.317   7.345
 5131POPC   NC365891   8.366  38.163   5.338
 5131POPC   PO465892   8.059  38.758   5.398
 5131POPC   GL165893   8.155  38.443   5.732
 5131POPC   GL265894   7.901  38.177   5.658
 5131POPC   C1A65895   8.416  38.258   6.083
 5131POPC   D2A65896   8.260  38.168   6.507
 5131POPC   C3A65897   8.477  38.352   6.859
 5131POPC   C4A65898   8.423  38.666   7.194
 5131POPC   C1B65899   7.887  38.160   6.116
 5131POPC   C2B65900   7.730  38.108   6.569
 5131POPC   C3B65901   7.921  38.165   6.992
 5131POPC   C4B65902   8.298  38.056   7.234
 5132POPC   NC365903  25.672  44.328   5.516
 5132POPC   PO465904  24.996  44.486   5.518
 5132POPC   GL165905  25.316  44.551   5.838
 5132POPC   GL265906  25.497  44.272   5.984
 5132POPC   C1A65907  25.373  44.710   6.258
 5132POPC   D2A65908  25.136  44.810   6.626
 5132POPC   C3A65909  25.386  44.884   6.973
 5132POPC   C4A65910  25.411  44.721   7.386
 5132POPC   C1B65911  25.826  44.454   6.209
 5132POPC   C2B65912  25.809  44.488   6.641
 5132POPC   C3B65913  25.621  44.204   6.902
 5132POPC   C4B65914  25.522  44.180   7.311
 5133POPC   NC365915  35.997   4.361   5.482
 5133POPC   PO465916  35.592   3.888   5.744
 5133POPC   GL165917  35.926   4.152   5.998
 5133POPC   GL265918  36.030   4.504   5.962
 5133POPC   C1A65919  35.949   4.358   6.420
 5133POPC   D2A65920  35.807   4.178   6.767
 5133POPC   C3A65921  36.137   4.231   7.010
 5133POPC   C4A65922  36.022   4.507   7.282
 5133POPC   C1B65923  36.360   4.617   6.256
 5133POPC   C2B65924  36.503   4.492   6.671
 5133POPC   C3B65925  36.502   4.597   7.125
 5133POPC   C4B65926  36.440   4.538   7.581
 5134POPC   NC365927  40.281  11.242   5.466
 5134POPC   PO465928  40.884  11.028   5.413
 5134POPC   GL165929  40.780  11.258   5.782
 5134POPC   GL265930  40.519  11.554   5.819
 5134POPC   C1A65931  40.932  11.088   6.172
 5134POPC   D2A65932  40.698  11.049   6.531
 5134POPC   C3A65933  40.958  11.078   6.863
 5134POPC   C4A65934  41.004  11.457   7.090
 5134POPC   C1B65935  40.704  11.529   6.231
 5134POPC   C2B65936  40.592  11.524   6.648
 5134POPC   C3B65937  40.516  11.301   7.000
 5134POPC   C4B65938  40.580  11.438   7.419
 5135POPC   NC365939  44.120   1.529   5.305
 5135POPC   PO465940  43.928   0.841   5.401
 5135POPC   GL165941  44.085   1.016   5.722
 5135POPC   GL265942  43.965   1.344   5.754
 5135POPC   C1A65943  43.893   0.982   6.117
 5135POPC   D2A65944  44.011   1.092   6.494
 5135POPC   C3A65945  43.816   1.028   6.870
 5135POPC   C4A65946  44.055   1.007   7.229
 5135POPC   C1B65947  43.868   1.486   6.182
 5135POPC   C2B65948  43.791   1.542   6.636
 5135POPC   C3B65949  43.932   1.501   7.066
 5135POPC   C4B65950  43.963   1.454   7.517
 5136POPC   NC365951  42.614  14.513   5.389
 5136POPC   PO465952  41.893  14.644   5.426
 5136POPC   GL165953  42.196  14.424   5.690
 5136POPC   GL265954  42.458  14.646   5.864
 5136POPC   C1A65955  42.158  14.199   6.080
 5136POPC   D2A65956  42.183  14.356   6.495
 5136POPC   C3A65957  42.150  14.194   6.915
 5136POPC   C4A65958  42.249  14.571   7.120
 5136POPC   C1B65959  42.681  14.273   6.047
 5136POPC   C2B65960  42.644  14.119   6.459
 5136POPC   C3B65961  42.607  14.398   6.805
 5136POPC   C4B65962  42.672  14.258   7.211
 5137POPC   NC365963  12.405  28.422   5.168
 5137POPC   PO465964  13.017  28.369   5.384
 5137POPC   GL165965  12.957  28.423   5.844
 5137POPC   GL265966  12.834  28.106   5.965
 5137POPC   C1A65967  12.991  28.496   6.311
 5137POPC   D2A65968  12.857  28.658   6.720
 5137POPC   C3A65969  12.797  28.318   7.039
 5137POPC   C4A65970  12.960  28.071   7.409
 5137POPC   C1B65971  13.258  28.075   6.097
 5137POPC   C2B65972  13.407  28.174   6.500
 5137POPC   C3B65973  13.272  28.142   6.934
 5137POPC   C4B65974  13.222  28.496   7.222
 5138POPC   NC365975  37.035  42.172   5.475
 5138POPC   PO465976  36.817  41.578   5.249
 5138POPC   GL165977  36.922  41.684   5.669
 5138POPC   GL265978  37.257  41.792   5.749
 5138POPC   C1A65979  37.004  41.469   6.081
 5138POPC   D2A65980  37.161  41.541   6.496
 5138POPC   C3A65981  36.922  41.470   6.865
 5138POPC   C4A65982  37.015  41.554   7.290
 5138POPC   C1B65983  37.087  41.975   6.128
 5138POPC   C2B65984  37.322  42.048   6.497
 5138POPC   C3B65985  37.303  41.850   6.885
 5138POPC   C4B65986  37.323  41.951   7.278
 5139POPC   NC365987  26.806  10.239   5.250
 5139POPC   PO465988  26.838   9.599   5.390
 5139POPC   GL165989  26.718   9.682   5.813
 5139POPC   GL265990  26.639  10.013   5.698
 5139POPC   C1A65991  26.868   9.597   6.260
 5139POPC   D2A65992  26.706   9.691   6.696
 5139POPC   C3A65993  26.899   9.549   7.107
 5139POPC   C4A65994  27.254   9.425   7.384
 5139POPC   C1B65995  26.760  10.085   6.149
 5139POPC   C2B65996  26.951  10.140   6.555
 5139POPC   C3B65997  26.849  10.083   7.003
 5139POPC   C4B65998  26.580   9.952   7.298
 5140POPC   NC365999   8.434  28.349   5.073
 5140POPC   PO466000   8.578  28.090   5.649
 5140POPC   GL166001   8.313  28.438   5.855
 5140POPC   GL266002   8.050  28.653   5.655
 5140POPC   C1A66003   8.193  28.494   6.297
 5140POPC   D2A66004   8.396  28.574   6.670
 5140POPC   C3A66005   8.328  28.231   6.922
 5140POPC   C4A66006   8.037  28.173   7.205
 5140POPC   C1B66007   7.811  28.699   6.039
 5140POPC   C2B66008   7.661  28.543   6.456
 5140POPC   C3B66009   7.901  28.495   6.808
 5140POPC   C4B66010   8.124  28.693   7.137
 5141POPC   NC366011  18.694  21.826   5.347
 5141POPC   PO466012  18.248  21.375   5.491
 5141POPC   GL166013  18.290  21.463   5.894
 5141POPC   GL266014  18.536  21.699   5.887
 5141POPC   C1A66015  18.033  21.435   6.276
 5141POPC   D2A66016  18.199  21.305   6.660
 5141POPC   C3A66017  18.180  21.419   7.070
 5141POPC   C4A66018  17.945  21.151   7.326
 5141POPC   C1B66019  18.510  21.601   6.342
 5141POPC   C2B66020  18.713  21.414   6.715
 5141POPC   C3B66021  18.676  21.374   7.188
 5141POPC   C4B66022  18.703  21.594   7.648
 5142POPC   NC366023  12.286  18.540   5.372
 5142POPC   PO466024  11.698  18.255   5.139
 5142POPC   GL166025  11.876  18.333   5.628
 5142POPC   GL266026  11.969  18.677   5.741
 5142POPC   C1A66027  11.991  18.170   6.106
 5142POPC   D2A66028  11.833  18.084   6.582
 5142POPC   C3A66029  11.970  18.158   7.057
 5142POPC   C4A66030  11.753  17.974   7.440
 5142POPC   C1B66031  12.085  18.656   6.214
 5142POPC   C2B66032  12.098  18.510   6.668
 5142POPC   C3B66033  12.040  18.703   7.083
 5142POPC   C4B66034  12.140  18.743   7.519
 5143POPC   NC366035  14.777  27.536   5.594
 5143POPC   PO466036  14.144  27.736   5.456
 5143POPC   GL166037  14.207  27.547   5.874
 5143POPC   GL266038  14.539  27.423   6.024
 5143POPC   C1A66039  14.160  27.614   6.316
 5143POPC   D2A66040  14.537  27.587   6.503
 5143POPC   C3A66041  14.515  27.673   6.879
 5143POPC   C4A66042  14.313  27.690   7.260
 5143POPC   C1B66043  14.315  27.128   6.287
 5143POPC   C2B66044  14.232  27.212   6.717
 5143POPC   C3B66045  14.437  27.219   7.097
 5143POPC   C4B66046  14.839  27.419   7.167
 5144POPC   NC366047   1.986   5.542   5.420
 5144POPC   PO466048   2.356   6.166   5.315
 5144POPC   GL166049   2.032   6.050   5.626
 5144POPC   GL266050   1.703   6.175   5.741
 5144POPC   C1A66051   2.042   5.949   6.070
 5144POPC   D2A66052   2.196   5.774   6.436
 5144POPC   C3A66053   2.011   5.909   6.794
 5144POPC   C4A66054   1.983   5.938   7.206
 5144POPC   C1B66055   1.530   5.988   6.113
 5144POPC   C2B66056   1.562   5.854   6.528
 5144POPC   C3B66057   1.516   5.883   6.966
 5144POPC   C4B66058   1.553   6.154   7.353
 5145POPC   NC366059  34.046  34.840   5.205
 5145POPC   PO466060  33.968  35.546   5.227
 5145POPC   GL166061  33.807  35.261   5.565
 5145POPC   GL266062  33.502  35.363   5.736
 5145POPC   C1A66063  33.927  35.140   6.004
 5145POPC   D2A66064  34.097  35.180   6.448
 5145POPC   C3A66065  33.959  35.342   6.872
 5145POPC   C4A66066  33.944  35.227   7.311
 5145POPC   C1B66067  33.441  35.208   6.173
 5145POPC   C2B66068  33.507  35.284   6.612
 5145POPC   C3B66069  33.508  35.144   7.046
 5145POPC   C4B66070  33.490  35.480   7.327
 5146POPC   NC366071  19.915   4.703   5.397
 5146POPC   PO466072  19.554   4.113   5.443
 5146POPC   GL166073  19.730   4.299   5.841
 5146POPC   GL266074  20.031   4.094   6.022
 5146POPC   C1A66075  19.800   4.546   6.236
 5146POPC   D2A66076  20.139   4.707   6.555
 5146POPC   C3A66077  20.001   4.587   6.964
 5146POPC   C4A66078  19.556   4.578   7.096
 5146POPC   C1B66079  20.096   4.205   6.455
 5146POPC   C2B66080  19.708   4.248   6.693
 5146POPC   C3B66081  19.784   4.105   7.078
 5146POPC   C4B66082  20.204   4.156   7.176
 5147POPC   NC366083   2.473  44.001   5.533
 5147POPC   PO466084   3.091  43.761   5.455
 5147POPC   GL166085   2.833  43.821   5.861
 5147POPC   GL266086   2.494  43.626   5.896
 5147POPC   C1A66087   2.945  43.900   6.326
 5147POPC   D2A66088   2.951  44.185   6.719
 5147POPC   C3A66089   2.930  43.956   7.130
 5147POPC   C4A66090   3.061  43.774   7.524
 5147POPC   C1B66091   2.445  43.925   6.224
 5147POPC   C2B66092   2.539  43.879   6.657
 5147POPC   C3B66093   2.445  44.042   7.011
 5147POPC   C4B66094   2.281  43.891   7.391
 5148POPC   NC366095  42.507  19.446   5.586
 5148POPC   PO466096  41.981  18.958   5.611
 5148POPC   GL166097  42.265  18.996   5.962
 5148POPC   GL266098  42.643  19.069   5.930
 5148POPC   C1A66099  42.399  18.889   6.380
 5148POPC   D2A66100  42.769  19.046   6.592
 5148POPC   C3A66101  42.675  19.049   7.009
 5148POPC   C4A66102  42.247  19.158   7.174
 5148POPC   C1B66103  42.509  19.394   6.253
 5148POPC   C2B66104  42.330  19.387   6.669
 5148POPC   C3B66105  42.553  19.530   7.027
 5148POPC   C4B66106  42.597  19.515   7.496
 5149POPC   NC366107  25.003  33.623   5.082
 5149POPC   PO466108  24.448  33.917   5.437
 5149POPC   GL166109  24.497  33.821   5.869
 5149POPC   GL266110  24.510  33.451   5.817
 5149POPC   C1A66111  24.549  34.045   6.271
 5149POPC   D2A66112  24.249  34.186   6.582
 5149POPC   C3A66113  24.325  33.976   6.967
 5149POPC   C4A66114  24.721  33.825   7.116
 5149POPC   C1B66115  24.620  33.484   6.257
 5149POPC   C2B66116  24.573  33.576   6.687
 5149POPC   C3B66117  24.631  33.308   7.056
 5149POPC   C4B66118  24.478  33.411   7.473
 5150POPC   NC366119  29.769   1.614   5.096
 5150POPC   PO466120  29.759   1.018   5.362
 5150POPC   GL166121  29.914   1.232   5.718
 5150POPC   GL266122  29.692   1.464   5.868
 5150POPC   C1A66123  29.956   1.141   6.188
 5150POPC   D2A66124  30.002   1.343   6.611
 5150POPC   C3A66125  30.156   1.096   6.952
 5150POPC   C4A66126  29.978   0.874   7.275
 5150POPC   C1B66127  29.598   1.532   6.328
 5150POPC   C2B66128  29.541   1.518   6.787
 5150POPC   C3B66129  29.739   1.338   7.173
 5150POPC   C4B66130  29.621   1.341   7.638
 5151POPC   NC366131   0.958  36.415   5.495
 5151POPC   PO466132   0.794  35.829   5.491
 5151POPC   GL166133   0.634  36.112   5.795
 5151POPC   GL266134   0.303  36.185   5.855
 5151POPC   C1A66135   0.672  36.344   6.177
 5151POPC   D2A66136   0.445  36.451   6.573
 5151POPC   C3A66137   0.634  36.342   6.981
 5151POPC   C4A66138   0.462  36.010   7.259
 5151POPC   C1B66139   0.362  35.937   6.275
 5151POPC   C2B66140   0.335  35.965   6.741
 5151POPC   C3B66141   0.108  36.274   7.012
 5151POPC   C4B66142   0.097  36.339   7.457
 5152POPC   NC366143  39.264   9.477   5.461
 5152POPC   PO466144  39.639   9.978   5.488
 5152POPC   GL166145  39.426   9.812   5.847
 5152POPC   GL266146  39.562   9.509   5.894
 5152POPC   C1A66147  39.248   9.889   6.278
 5152POPC   D2A66148  39.322  10.109   6.692
 5152POPC   C3A66149  39.135  10.120   7.126
 5152POPC   C4A66150  39.067  10.260   7.572
 5152POPC   C1B66151  39.667   9.602   6.278
 5152POPC   C2B66152  39.495   9.552   6.670
 5152POPC   C3B66153  39.449   9.723   7.059
 5152POPC   C4B66154  39.537   9.518   7.429
 5153POPC   NC366155  41.038   0.482   5.532
 5153POPC   PO466156  40.462   0.828   5.453
 5153POPC   GL166157  40.653   0.598   5.845
 5153POPC   GL266158  40.646   0.217   5.865
 5153POPC   C1A66159  40.812   0.482   6.271
 5153POPC   D2A66160  40.669   0.564   6.692
 5153POPC   C3A66161  40.969   0.554   7.021
 5153POPC   C4A66162  41.005   0.753   7.433
 5153POPC   C1B66163  40.471   0.024   6.269
 5153POPC   C2B66164  40.426  44.995   6.716
 5153POPC   C3B66165  40.571   0.212   7.058
 5153POPC   C4B66166  40.520   0.618   7.266
 5154POPC   NC366167  12.715  20.887   5.599
 5154POPC   PO466168  12.790  20.221   5.455
 5154POPC   GL166169  12.711  20.425   5.828
 5154POPC   GL266170  13.011  20.578   5.943
 5154POPC   C1A66171  12.604  20.489   6.244
 5154POPC   D2A66172  12.937  20.415   6.515
 5154POPC   C3A66173  12.723  20.337   6.859
 5154POPC   C4A66174  12.548  20.321   7.257
 5154POPC   C1B66175  12.933  20.882   6.284
 5154POPC   C2B66176  12.913  20.856   6.757
 5154POPC   C3B66177  12.971  20.666   7.159
 5154POPC   C4B66178  12.858  20.862   7.508
 5155POPC   NC366179  25.583  43.336   5.607
 5155POPC   PO466180  26.143  43.037   5.398
 5155POPC   GL166181  26.180  43.022   5.847
 5155POPC   GL266182  25.857  43.057   5.956
 5155POPC   C1A66183  26.262  43.194   6.267
 5155POPC   D2A66184  26.003  43.376   6.588
 5155POPC   C3A66185  26.107  43.210   6.970
 5155POPC   C4A66186  26.397  42.920   7.177
 5155POPC   C1B66187  25.614  43.128   6.322
 5155POPC   C2B66188  25.578  43.163   6.788
 5155POPC   C3B66189  25.641  43.186   7.229
 5155POPC   C4B66190  25.592  42.960   7.614
 5156POPC   NC366191   7.546   7.551   5.467
 5156POPC   PO466192   7.446   6.867   5.506
 5156POPC   GL166193   7.388   7.166   5.865
 5156POPC   GL266194   7.184   7.455   5.826
 5156POPC   C1A66195   7.609   7.327   6.232
 5156POPC   D2A66196   7.799   7.674   6.489
 5156POPC   C3A66197   7.743   7.560   6.922
 5156POPC   C4A66198   7.419   7.293   7.018
 5156POPC   C1B66199   6.999   7.309   6.222
 5156POPC   C2B66200   6.962   7.228   6.670
 5156POPC   C3B66201   6.959   7.503   7.017
 5156POPC   C4B66202   6.837   7.967   7.011
 5157POPC   NC366203  18.338  34.438   5.438
 5157POPC   PO466204  17.939  34.935   5.365
 5157POPC   GL166205  17.974  34.665   5.748
 5157POPC   GL266206  17.784  34.327   5.766
 5157POPC   C1A66207  18.163  34.481   6.130
 5157POPC   D2A66208  18.375  34.451   6.531
 5157POPC   C3A66209  18.302  34.792   6.799
 5157POPC   C4A66210  18.336  34.761   7.219
 5157POPC   C1B66211  17.821  34.103   6.204
 5157POPC   C2B66212  18.052  34.045   6.620
 5157POPC   C3B66213  18.178  34.253   7.014
 5157POPC   C4B66214  18.187  34.106   7.438
 5158POPC   NC366215  12.404  33.847   5.577
 5158POPC   PO466216  11.772  33.692   5.301
 5158POPC   GL166217  11.921  33.803   5.744
 5158POPC   GL266218  12.108  33.490   5.796
 5158POPC   C1A66219  11.907  33.936   6.193
 5158POPC   D2A66220  12.153  33.918   6.611
 5158POPC   C3A66221  11.925  33.779   6.981
 5158POPC   C4A66222  11.817  33.802   7.414
 5158POPC   C1B66223  12.239  33.564   6.224
 5158POPC   C2B66224  12.345  33.383   6.601
 5158POPC   C3B66225  12.444  33.431   7.016
 5158POPC   C4B66226  12.346  33.739   7.288
 5159POPC   NC366227  30.281  10.781   5.407
 5159POPC   PO466228  29.622  10.528   5.347
 5159POPC   GL166229  29.871  10.422   5.746
 5159POPC   GL266230  30.241  10.313   5.764
 5159POPC   C1A66231  29.982  10.648   6.157
 5159POPC   D2A66232  30.178  10.860   6.523
 5159POPC   C3A66233  30.027  10.749   6.926
 5159POPC   C4A66234  29.858  10.454   7.206
 5159POPC   C1B66235  30.205  10.197   6.222
 5159POPC   C2B66236  30.153  10.352   6.647
 5159POPC   C3B66237  30.284  10.210   7.094
 5159POPC   C4B66238  30.292  10.353   7.574
 5160POPC   NC366239   3.508  19.217   5.435
 5160POPC   PO466240   3.576  18.556   5.651
 5160POPC   GL166241   3.621  18.963   5.863
 5160POPC   GL266242   3.255  19.070   5.845
 5160POPC   C1A66243   3.616  19.102   6.298
 5160POPC   D2A66244   3.502  18.771   6.603
 5160POPC   C3A66245   3.396  18.690   7.067
 5160POPC   C4A66246   3.792  18.660   7.344
 5160POPC   C1B66247   3.102  19.238   6.228
 5160POPC   C2B66248   3.233  19.215   6.650
 5160POPC   C3B66249   3.552  19.164   6.972
 5160POPC   C4B66250   3.441  19.328   7.371
 5161POPC   NC366251  32.278  21.673   5.502
 5161POPC   PO466252  32.326  21.029   5.457
 5161POPC   GL166253  32.386  21.221   5.849
 5161POPC   GL266254  32.545  21.545   5.897
 5161POPC   C1A66255  32.351  21.269   6.305
 5161POPC   D2A66256  32.202  21.508   6.670
 5161POPC   C3A66257  32.241  21.308   7.057
 5161POPC   C4A66258  31.999  21.087   7.273
 5161POPC   C1B66259  32.350  21.796   6.229
 5161POPC   C2B66260  32.477  21.925   6.649
 5161POPC   C3B66261  32.399  21.793   7.088
 5161POPC   C4B66262  32.601  21.615   7.508
 5162POPC   NC366263  15.099  40.510   5.468
 5162POPC   PO466264  15.271  41.157   5.382
 5162POPC   GL166265  15.249  40.911   5.787
 5162POPC   GL266266  14.872  40.827   5.817
 5162POPC   C1A66267  15.509  40.733   6.178
 5162POPC   D2A66268  15.689  40.822   6.619
 5162POPC   C3A66269  15.303  40.862   6.872
 5162POPC   C4A66270  15.161  40.867   7.289
 5162POPC   C1B66271  14.851  40.534   6.183
 5162POPC   C2B66272  14.918  40.601   6.635
 5162POPC   C3B66273  14.899  40.499   7.069
 5162POPC   C4B66274  14.890  40.522   7.538
 5163POPC   NC366275  22.532  31.182   5.530
 5163POPC   PO466276  21.890  31.397   5.448
 5163POPC   GL166277  22.173  31.307   5.861
 5163POPC   GL266278  22.443  31.577   5.841
 5163POPC   C1A66279  22.424  31.323   6.299
 5163POPC   D2A66280  22.370  31.213   6.768
 5163POPC   C3A66281  22.323  31.491   7.105
 5163POPC   C4A66282  21.900  31.525   7.234
 5163POPC   C1B66283  22.483  31.837   6.206
 5163POPC   C2B66284  22.594  31.796   6.648
 5163POPC   C3B66285  22.535  31.956   7.075
 5163POPC   C4B66286  22.691  31.854   7.478
 5164POPC   NC366287  17.355   4.963   5.443
 5164POPC   PO466288  17.970   5.000   5.564
 5164POPC   GL166289  17.645   5.218   5.858
 5164POPC   GL266290  17.243   5.229   5.869
 5164POPC   C1A66291  17.519   5.207   6.296
 5164POPC   D2A66292  17.599   5.322   6.712
 5164POPC   C3A66293  17.526   4.943   6.931
 5164POPC   C4A66294  17.670   4.748   7.309
 5164POPC   C1B66295  17.062   5.415   6.243
 5164POPC   C2B66296  17.133   5.537   6.684
 5164POPC   C3B66297  17.117   5.300   7.045
 5164POPC   C4B66298  17.226   4.998   7.337
 5165POPC   NC366299   1.678  15.292   5.374
 5165POPC   PO466300   2.021  14.688   5.318
 5165POPC   GL166301   1.991  14.963   5.688
 5165POPC   GL266302   1.661  15.007   5.787
 5165POPC   C1A66303   2.176  15.089   6.102
 5165POPC   D2A66304   2.196  14.964   6.536
 5165POPC   C3A66305   2.181  15.271   6.873
 5165POPC   C4A66306   2.279  15.076   7.247
 5165POPC   C1B66307   1.694  15.298   6.137
 5165POPC   C2B66308   1.761  15.321   6.588
 5165POPC   C3B66309   1.722  15.196   7.055
 5165POPC   C4B66310   1.893  15.479   7.372
 5166POPC   NC366311  10.756  11.672   5.403
 5166POPC   PO466312  10.215  11.324   5.548
 5166POPC   GL166313  10.541  11.428   5.819
 5166POPC   GL266314  10.569  11.093   5.852
 5166POPC   C1A66315  10.668  11.350   6.261
 5166POPC   D2A66316  10.531  11.501   6.646
 5166POPC   C3A66317  10.707  11.392   7.047
 5166POPC   C4A66318  10.838  11.537   7.447
 5166POPC   C1B66319  10.279  11.025   6.172
 5166POPC   C2B66320  10.416  10.995   6.610
 5166POPC   C3B66321  10.475  10.927   7.035
 5166POPC   C4B66322  10.466  11.054   7.472
 5167POPC   NC366323  33.710  41.998   5.438
 5167POPC   PO466324  34.311  42.345   5.397
 5167POPC   GL166325  34.022  42.309   5.716
 5167POPC   GL266326  33.795  42.560   5.767
 5167POPC   C1A66327  33.772  42.165   6.084
 5167POPC   D2A66328  33.952  42.256   6.466
 5167POPC   C3A66329  33.768  42.304   6.853
 5167POPC   C4A66330  33.996  42.397   7.214
 5167POPC   C1B66331  33.647  42.654   6.216
 5167POPC   C2B66332  33.486  42.707   6.624
 5167POPC   C3B66333  33.641  42.799   7.021
 5167POPC   C4B66334  33.582  42.656   7.412
 5168POPC   NC366335   7.902  25.459   5.403
 5168POPC   PO466336   8.297  24.982   5.293
 5168POPC   GL166337   8.158  25.095   5.673
 5168POPC   GL266338   8.489  25.038   5.796
 5168POPC   C1A66339   8.052  25.281   6.099
 5168POPC   D2A66340   7.925  25.463   6.536
 5168POPC   C3A66341   8.120  25.330   6.936
 5168POPC   C4A66342   8.139  25.401   7.406
 5168POPC   C1B66343   8.636  24.837   6.161
 5168POPC   C2B66344   8.699  24.893   6.608
 5168POPC   C3B66345   8.604  24.750   7.023
 5168POPC   C4B66346   8.240  24.909   7.216
 5169POPC   NC366347  32.538  30.885   5.485
 5169POPC   PO466348  32.196  30.416   5.292
 5169POPC   GL166349  32.085  30.518   5.749
 5169POPC   GL266350  32.224  30.794   5.871
 5169POPC   C1A66351  32.164  30.427   6.225
 5169POPC   D2A66352  32.442  30.452   6.623
 5169POPC   C3A66353  32.270  30.531   7.071
 5169POPC   C4A66354  32.420  30.534   7.549
 5169POPC   C1B66355  32.463  30.848   6.236
 5169POPC   C2B66356  32.308  30.938   6.635
 5169POPC   C3B66357  32.469  31.001   7.036
 5169POPC   C4B66358  32.207  30.954   7.374
 5170POPC   NC366359  14.593  32.053   5.391
 5170POPC   PO466360  14.153  32.500   5.438
 5170POPC   GL166361  14.422  32.304   5.802
 5170POPC   GL266362  14.791  32.388   5.750
 5170POPC   C1A66363  14.376  32.065   6.213
 5170POPC   D2A66364  14.082  32.168   6.586
 5170POPC   C3A66365  14.142  32.046   7.025
 5170POPC   C4A66366  14.526  32.073   7.216
 5170POPC   C1B66367  14.791  32.460   6.199
 5170POPC   C2B66368  14.616  32.324   6.600
 5170POPC   C3B66369  14.336  32.499   6.899
 5170POPC   C4B66370  14.392  32.561   7.311
 5171POPC   NC366371   4.934   9.405   5.087
 5171POPC   PO466372   4.931   8.800   5.437
 5171POPC   GL166373   5.127   8.847   5.850
 5171POPC   GL266374   5.488   8.779   5.861
 5171POPC   C1A66375   5.170   8.772   6.304
 5171POPC   D2A66376   5.006   8.728   6.716
 5171POPC   C3A66377   4.985   9.115   6.969
 5171POPC   C4A66378   5.007   9.059   7.381
 5171POPC   C1B66379   5.503   9.145   6.175
 5171POPC   C2B66380   5.394   9.111   6.656
 5171POPC   C3B66381   5.383   8.816   7.078
 5171POPC   C4B66382   5.476   8.956   7.555
 5172POPC   NC366383   4.220  34.556   5.137
 5172POPC   PO466384   4.658  34.208   5.516
 5172POPC   GL166385   4.409  34.454   5.797
 5172POPC   GL266386   4.225  34.775   5.744
 5172POPC   C1A66387   4.196  34.363   6.182
 5172POPC   D2A66388   4.321  34.510   6.604
 5172POPC   C3A66389   4.504  34.255   6.923
 5172POPC   C4A66390   4.322  34.149   7.313
 5172POPC   C1B66391   4.433  34.835   6.186
 5172POPC   C2B66392   4.345  35.022   6.619
 5172POPC   C3B66393   4.158  34.802   7.028
 5172POPC   C4B66394   4.252  34.864   7.494
 5173POPC   NC366395   9.594  31.156   5.315
 5173POPC   PO466396   9.994  31.710   5.489
 5173POPC   GL166397   9.892  31.546   5.896
 5173POPC   GL266398   9.609  31.338   5.815
 5173POPC   C1A66399   9.813  31.290   6.289
 5173POPC   D2A66400   9.827  31.521   6.693
 5173POPC   C3A66401   9.867  31.319   7.084
 5173POPC   C4A66402   9.993  31.436   7.492
 5173POPC   C1B66403   9.464  31.653   6.139
 5173POPC   C2B66404   9.366  31.732   6.581
 5173POPC   C3B66405   9.345  31.451   6.934
 5173POPC   C4B66406   9.405  31.045   7.105
 5174POPC   NC366407  18.658  38.936   5.400
 5174POPC   PO466408  18.477  38.307   5.263
 5174POPC   GL166409  18.290  38.524   5.660
 5174POPC   GL266410  17.995  38.379   5.884
 5174POPC   C1A66411  18.411  38.534   6.087
 5174POPC   D2A66412  18.482  38.497   6.498
 5174POPC   C3A66413  18.151  38.343   6.762
 5174POPC   C4A66414  18.130  38.452   7.185
 5174POPC   C1B66415  17.941  38.523   6.312
 5174POPC   C2B66416  18.029  38.816   6.661
 5174POPC   C3B66417  18.421  38.816   6.870
 5174POPC   C4B66418  18.530  38.773   7.237
 5175POPC   NC366419   0.648  35.425   5.369
 5175POPC   PO466420   0.139  34.975   5.512
 5175POPC   GL166421   0.481  35.176   5.798
 5175POPC   GL266422   0.494  35.575   5.844
 5175POPC   C1A66423   0.627  35.274   6.237
 5175POPC   D2A66424   0.718  35.548   6.584
 5175POPC   C3A66425   0.609  35.377   6.991
 5175POPC   C4A66426   0.227  35.144   7.087
 5175POPC   C1B66427   0.168  35.463   6.169
 5175POPC   C2B66428   0.195  35.472   6.645
 5175POPC   C3B66429   0.145  35.637   7.093
 5175POPC   C4B66430  44.959  35.834   7.459
 5176POPC   NC366431  29.674  19.594   5.591
 5176POPC   PO466432  29.977  20.256   5.337
 5176POPC   GL166433  30.067  20.047   5.704
 5176POPC   GL266434  29.734  20.060   5.793
 5176POPC   C1A66435  30.045  19.865   6.117
 5176POPC   D2A66436  29.739  19.721   6.394
 5176POPC   C3A66437  29.853  19.697   6.794
 5176POPC   C4A66438  29.897  19.696   7.235
 5176POPC   C1B66439  29.581  20.167   6.197
 5176POPC   C2B66440  29.470  20.131   6.614
 5176POPC   C3B66441  29.527  19.999   7.042
 5176POPC   C4B66442  29.671  20.100   7.454
 5177POPC   NC366443   2.281  21.767   5.605
 5177POPC   PO466444   1.994  22.302   5.299
 5177POPC   GL166445   1.970  22.162   5.715
 5177POPC   GL266446   1.817  22.424   5.851
 5177POPC   C1A66447   1.997  22.071   6.182
 5177POPC   D2A66448   2.137  22.225   6.615
 5177POPC   C3A66449   1.854  22.085   6.967
 5177POPC   C4A66450   1.911  21.821   7.339
 5177POPC   C1B66451   1.892  22.569   6.279
 5177POPC   C2B66452   1.820  22.607   6.731
 5177POPC   C3B66453   1.925  22.551   7.162
 5177POPC   C4B66454   1.947  22.333   7.554
 5178POPC   NC366455  44.569  30.244   5.588
 5178POPC   PO466456  44.363  29.763   5.098
 5178POPC   GL166457  44.331  29.766   5.611
 5178POPC   GL266458  44.671  29.781   5.760
 5178POPC   C1A66459  44.327  29.764   6.119
 5178POPC   D2A66460  44.475  30.022   6.494
 5178POPC   C3A66461  44.548  29.859   6.937
 5178POPC   C4A66462  44.361  29.872   7.367
 5178POPC   C1B66463  44.814  29.533   6.110
 5178POPC   C2B66464  44.735  29.582   6.520
 5178POPC   C3B66465  44.868  29.425   6.904
 5178POPC   C4B66466  44.938  29.602   7.300
 5179POPC   NC366467  29.242  38.828   5.551
 5179POPC   PO466468  29.020  38.426   5.111
 5179POPC   GL166469  29.057  38.351   5.626
 5179POPC   GL266470  28.880  38.587   5.796
 5179POPC   C1A66471  29.329  38.448   6.082
 5179POPC   D2A66472  29.477  38.337   6.505
 5179POPC   C3A66473  29.274  38.535   6.851
 5179POPC   C4A66474  29.190  38.414   7.273
 5179POPC   C1B66475  28.873  38.252   6.152
 5179POPC   C2B66476  28.995  38.130   6.584
 5179POPC   C3B66477  28.988  38.001   7.024
 5179POPC   C4B66478  28.824  38.062   7.451
 5180POPC   NC366479  32.906   1.381   5.403
 5180POPC   PO466480  32.980   0.700   5.366
 5180POPC   GL166481  33.132   0.955   5.698
 5180POPC   GL266482  33.402   1.187   5.768
 5180POPC   C1A66483  33.043   1.059   6.122
 5180POPC   D2A66484  33.237   1.092   6.517
 5180POPC   C3A66485  32.983   1.167   6.865
 5180POPC   C4A66486  33.072   0.841   7.109
 5180POPC   C1B66487  33.431   1.473   6.173
 5180POPC   C2B66488  33.322   1.593   6.636
 5180POPC   C3B66489  33.375   1.432   7.089
 5180POPC   C4B66490  33.233   1.451   7.553
 5181POPC   NC366491   1.790  41.070   5.396
 5181POPC   PO466492   1.684  41.782   5.402
 5181POPC   GL166493   1.833  41.658   5.850
 5181POPC   GL266494   1.764  41.332   5.876
 5181POPC   C1A66495   2.056  41.616   6.285
 5181POPC   D2A66496   2.215  41.362   6.660
 5181POPC   C3A66497   2.237  41.611   6.992
 5181POPC   C4A66498   1.876  41.835   7.186
 5181POPC   C1B66499   1.639  41.352   6.323
 5181POPC   C2B66500   1.744  41.184   6.725
 5181POPC   C3B66501   1.725  41.303   7.173
 5181POPC   C4B66502   1.690  41.186   7.648
 5182POPC   NC366503  31.752  33.043   5.367
 5182POPC   PO466504  31.154  33.301   5.185
 5182POPC   GL166505  31.296  33.039   5.657
 5182POPC   GL266506  31.631  32.856   5.801
 5182POPC   C1A66507  31.246  32.872   6.110
 5182POPC   D2A66508  31.556  32.997   6.441
 5182POPC   C3A66509  31.449  33.017   6.868
 5182POPC   C4A66510  31.234  33.120   7.241
 5182POPC   C1B66511  31.677  32.586   6.155
 5182POPC   C2B66512  31.701  32.536   6.598
 5182POPC   C3B66513  31.875  32.712   6.958
 5182POPC   C4B66514  31.716  32.950   7.317
 5183POPC   NC366515  35.242  18.758   5.596
 5183POPC   PO466516  35.536  18.398   5.103
 5183POPC   GL166517  35.516  18.297   5.699
 5183POPC   GL266518  35.281  18.420   5.970
 5183POPC   C1A66519  35.586  18.037   6.111
 5183POPC   D2A66520  35.414  18.115   6.552
 5183POPC   C3A66521  35.483  17.906   6.959
 5183POPC   C4A66522  35.549  18.185   7.321
 5183POPC   C1B66523  35.458  18.583   6.342
 5183POPC   C2B66524  35.560  18.579   6.792
 5183POPC   C3B66525  35.500  18.700   7.234
 5183POPC   C4B66526  35.493  18.786   7.691
 5184POPC   NC366527   5.955  21.364   5.437
 5184POPC   PO466528   5.995  21.993   5.607
 5184POPC   GL166529   6.067  21.580   5.898
 5184POPC   GL266530   6.218  21.186   5.813
 5184POPC   C1A66531   5.740  21.520   6.260
 5184POPC   D2A66532   5.657  21.377   6.657
 5184POPC   C3A66533   5.595  21.606   7.048
 5184POPC   C4A66534   5.810  21.416   7.409
 5184POPC   C1B66535   6.062  21.138   6.221
 5184POPC   C2B66536   6.166  21.344   6.600
 5184POPC   C3B66537   5.984  21.202   6.989
 5184POPC   C4B66538   5.901  20.891   7.326
 5185POPC   NC366539  10.215  30.421   5.587
 5185POPC   PO466540  10.812  30.408   5.298
 5185POPC   GL166541  10.688  30.492   5.751
 5185POPC   GL266542  10.477  30.821   5.785
 5185POPC   C1A66543  10.485  30.481   6.186
 5185POPC   D2A66544  10.382  30.646   6.598
 5185POPC   C3A66545  10.707  30.613   6.915
 5185POPC   C4A66546  10.774  30.902   7.229
 5185POPC   C1B66547  10.331  31.034   6.197
 5185POPC   C2B66548  10.196  31.147   6.626
 5185POPC   C3B66549  10.338  31.097   7.053
 5185POPC   C4B66550  10.175  30.935   7.456
 5186POPC   NC366551  34.649  30.663   5.555
 5186POPC   PO466552  34.087  30.620   5.433
 5186POPC   GL166553  34.213  30.813   5.831
 5186POPC   GL266554  34.357  31.120   5.824
 5186POPC   C1A66555  34.510  30.760   6.187
 5186POPC   D2A66556  34.624  30.444   6.458
 5186POPC   C3A66557  34.786  30.648   6.779
 5186POPC   C4A66558  34.668  30.721   7.178
 5186POPC   C1B66559  34.394  31.245   6.262
 5186POPC   C2B66560  34.486  31.042   6.668
 5186POPC   C3B66561  34.280  31.040   7.093
 5186POPC   C4B66562  34.174  30.815   7.486
 5187POPC   NC366563  33.093  24.476   5.389
 5187POPC   PO466564  33.756  24.152   5.479
 5187POPC   GL166565  33.384  24.288   5.813
 5187POPC   GL266566  32.994  24.207   5.822
 5187POPC   C1A66567  33.247  24.296   6.281
 5187POPC   D2A66568  33.358  24.538   6.685
 5187POPC   C3A66569  33.048  24.658   7.040
 5187POPC   C4A66570  32.747  24.771   7.350
 5187POPC   C1B66571  32.716  24.327   6.191
 5187POPC   C2B66572  32.846  24.432   6.622
 5187POPC   C3B66573  33.105  24.167   6.946
 5187POPC   C4B66574  32.955  24.241   7.383
 5188POPC   NC366575   4.099  15.505   5.353
 5188POPC   PO466576   4.629  15.104   5.413
 5188POPC   GL166577   4.370  14.996   5.810
 5188POPC   GL266578   4.160  15.271   5.837
 5188POPC   C1A66579   4.085  14.909   6.199
 5188POPC   D2A66580   4.036  15.063   6.649
 5188POPC   C3A66581   4.361  15.111   6.954
 5188POPC   C4A66582   4.411  14.851   7.255
 5188POPC   C1B66583   4.426  15.294   6.220
 5188POPC   C2B66584   4.319  15.488   6.602
 5188POPC   C3B66585   4.084  15.537   6.975
 5188POPC   C4B66586   4.296  15.489   7.344
 5189POPC   NC366587   0.752  21.951   5.276
 5189POPC   PO466588   0.238  22.291   5.419
 5189POPC   GL166589   0.478  22.130   5.775
 5189POPC   GL266590   0.837  22.144   5.791
 5189POPC   C1A66591   0.512  22.088   6.250
 5189POPC   D2A66592   0.274  22.209   6.631
 5189POPC   C3A66593   0.110  21.950   6.949
 5189POPC   C4A66594   0.471  21.774   7.124
 5189POPC   C1B66595   0.727  22.508   6.040
 5189POPC   C2B66596   0.506  22.633   6.430
 5189POPC   C3B66597   0.435  22.623   6.876
 5189POPC   C4B66598   0.450  22.305   7.166
 5190POPC   NC366599   2.315  30.453   5.477
 5190POPC   PO466600   3.007  30.408   5.359
 5190POPC   GL166601   2.832  30.604   5.770
 5190POPC   GL266602   2.507  30.788   5.815
 5190POPC   C1A66603   2.779  30.620   6.227
 5190POPC   D2A66604   2.973  30.400   6.558
 5190POPC   C3A66605   2.754  30.499   6.938
 5190POPC   C4A66606   2.499  30.227   7.206
 5190POPC   C1B66607   2.376  30.934   6.220
 5190POPC   C2B66608   2.333  30.921   6.682
 5190POPC   C3B66609   2.337  30.748   7.102
 5190POPC   C4B66610   2.630  30.687   7.422
 5191POPC   NC366611  10.670  24.198   5.490
 5191POPC   PO466612  10.360  23.571   5.447
 5191POPC   GL166613  10.577  23.751   5.755
 5191POPC   GL266614  10.286  23.950   5.814
 5191POPC   C1A66615  10.732  23.890   6.144
 5191POPC   D2A66616  10.757  23.707   6.543
 5191POPC   C3A66617  10.712  23.885   6.943
 5191POPC   C4A66618  10.609  23.715   7.346
 5191POPC   C1B66619  10.275  23.655   6.178
 5191POPC   C2B66620  10.329  23.409   6.562
 5191POPC   C3B66621  10.281  23.519   6.992
 5191POPC   C4B66622  10.247  23.370   7.420
 5192POPC   NC366623  16.814   4.623   4.976
 5192POPC   PO466624  16.524   4.104   5.322
 5192POPC   GL166625  16.498   4.209   5.778
 5192POPC   GL266626  16.363   4.555   5.847
 5192POPC   C1A66627  16.666   4.134   6.215
 5192POPC   D2A66628  16.522   4.230   6.674
 5192POPC   C3A66629  16.835   4.200   7.030
 5192POPC   C4A66630  17.271   4.001   7.095
 5192POPC   C1B66631  16.506   4.616   6.287
 5192POPC   C2B66632  16.461   4.756   6.709
 5192POPC   C3B66633  16.444   4.555   7.120
 5192POPC   C4B66634  16.437   4.435   7.595
 5193POPC   NC366635  22.122  41.085   5.571
 5193POPC   PO466636  22.413  41.623   5.263
 5193POPC   GL166637  22.237  41.598   5.693
 5193POPC   GL266638  21.968  41.856   5.716
 5193POPC   C1A66639  22.359  41.496   6.145
 5193POPC   D2A66640  22.429  41.671   6.545
 5193POPC   C3A66641  22.333  41.412   6.901
 5193POPC   C4A66642  22.461  41.547   7.319
 5193POPC   C1B66643  21.862  41.604   6.089
 5193POPC   C2B66644  21.956  41.433   6.499
 5193POPC   C3B66645  21.762  41.403   6.897
 5193POPC   C4B66646  21.967  41.504   7.245
 5194POPC   NC366647  37.403   9.884   5.254
 5194POPC   PO466648  37.850   9.497   5.527
 5194POPC   GL166649  37.512   9.638   5.781
 5194POPC   GL266650  37.449   9.343   5.948
 5194POPC   C1A66651  37.529   9.782   6.226
 5194POPC   D2A66652  37.700   9.890   6.614
 5194POPC   C3A66653  37.484   9.744   6.968
 5194POPC   C4A66654  37.582   9.969   7.312
 5194POPC   C1B66655  37.875   9.372   6.172
 5194POPC   C2B66656  38.049   9.290   6.581
 5194POPC   C3B66657  37.906   9.458   6.958
 5194POPC   C4B66658  37.902   9.608   7.399
 5195POPC   NC366659  44.405  39.763   5.356
 5195POPC   PO466660  44.990  40.197   5.526
 5195POPC   GL166661  44.642  40.069   5.797
 5195POPC   GL266662  44.537  39.714   5.843
 5195POPC   C1A66663  44.408  40.169   6.170
 5195POPC   D2A66664  44.490  40.042   6.587
 5195POPC   C3A66665  44.818  40.216   6.787
 5195POPC   C4A66666  44.757  40.253   7.221
 5195POPC   C1B66667  44.775  39.773   6.221
 5195POPC   C2B66668  44.940  39.725   6.627
 5195POPC   C3B66669  44.759  39.779   7.025
 5195POPC   C4B66670  44.994  39.826   7.431
 5196POPC   NC366671  21.340  28.305   5.349
 5196POPC   PO466672  20.948  28.892   5.262
 5196POPC   GL166673  21.206  28.688   5.672
 5196POPC   GL266674  21.600  28.605   5.684
 5196POPC   C1A66675  21.324  28.368   6.038
 5196POPC   D2A66676  21.555  28.309   6.443
 5196POPC   C3A66677  21.394  28.246   6.869
 5196POPC   C4A66678  21.583  28.204   7.283
 5196POPC   C1B66679  21.709  28.705   6.139
 5196POPC   C2B66680  21.775  28.736   6.624
 5196POPC   C3B66681  21.582  28.696   7.054
 5196POPC   C4B66682  21.765  28.642   7.440
 5197POPC   NC366683  16.397  42.380   5.060
 5197POPC   PO466684  16.799  42.610   5.414
 5197POPC   GL166685  16.588  42.332   5.800
 5197POPC   GL266686  16.819  42.102   5.993
 5197POPC   C1A66687  16.405  42.233   6.252
 5197POPC   D2A66688  16.343  41.990   6.655
 5197POPC   C3A66689  16.552  42.162   7.030
 5197POPC   C4A66690  16.477  42.617   7.072
 5197POPC   C1B66691  16.892  42.414   6.270
 5197POPC   C2B66692  16.802  42.469   6.686
 5197POPC   C3B66693  16.982  42.468   7.079
 5197POPC   C4B66694  16.955  42.182   7.406
 5198POPC   NC366695  12.272  27.439   4.977
 5198POPC   PO466696  12.272  28.022   5.352
 5198POPC   GL166697  12.239  27.575   5.580
 5198POPC   GL266698  11.898  27.412   5.703
 5198POPC   C1A66699  12.287  27.480   6.056
 5198POPC   D2A66700  12.268  27.740   6.473
 5198POPC   C3A66701  12.278  27.601   6.913
 5198POPC   C4A66702  12.021  27.823   7.256
 5198POPC   C1B66703  11.810  27.361   6.174
 5198POPC   C2B66704  11.702  27.294   6.611
 5198POPC   C3B66705  11.852  27.354   7.033
 5198POPC   C4B66706  11.546  27.522   7.290
 5199POPC   NC366707  14.118  30.166   5.210
 5199POPC   PO466708  13.428  29.991   5.392
 5199POPC   GL166709  13.594  30.082   5.788
 5199POPC   GL266710  13.960  30.115   5.732
 5199POPC   C1A66711  13.744  29.864   6.178
 5199POPC   D2A66712  13.747  29.701   6.614
 5199POPC   C3A66713  13.333  29.589   6.784
 5199POPC   C4A66714  13.255  29.641   7.226
 5199POPC   C1B66715  13.888  30.360   6.120
 5199POPC   C2B66716  13.873  30.217   6.535
 5199POPC   C3B66717  13.934  30.122   6.960
 5199POPC   C4B66718  13.734  30.130   7.356
 5200POPC   NC366719  33.434  43.850   5.386
 5200POPC   PO466720  32.907  43.382   5.456
 5200POPC   GL166721  33.082  43.564   5.815
 5200POPC   GL266722  32.838  43.842   5.905
 5200POPC   C1A66723  33.111  43.527   6.260
 5200POPC   D2A66724  33.029  43.790   6.624
 5200POPC   C3A66725  33.052  43.635   7.046
 5200POPC   C4A66726  33.362  43.579   7.384
 5200POPC   C1B66727  32.642  44.151   6.219
 5200POPC   C2B66728  32.820  44.293   6.649
 5200POPC   C3B66729  32.725  44.242   7.106
 5200POPC   C4B66730  32.746  44.335   7.573
 5201POPC   NC366731  21.936   9.171   5.402
 5201POPC   PO466732  22.161   8.588   5.542
 5201POPC   GL166733  22.311   8.881   5.844
 5201POPC   GL266734  22.196   9.214   5.834
 5201POPC   C1A66735  22.149   8.859   6.244
 5201POPC   D2A66736  21.980   8.565   6.538
 5201POPC   C3A66737  21.948   8.675   6.957
 5201POPC   C4A66738  22.163   8.938   7.210
 5201POPC   C1B66739  22.333   9.383   6.194
 5201POPC   C2B66740  22.249   9.264   6.575
 5201POPC   C3B66741  22.458   9.253   6.943
 5201POPC   C4B66742  22.380   9.384   7.344
 5202POPC   NC366743  17.898  25.124   5.560
 5202POPC   PO466744  17.293  25.636   5.566
 5202POPC   GL166745  17.559  25.435   5.789
 5202POPC   GL266746  17.392  25.113   5.766
 5202POPC   C1A66747  17.674  25.293   6.194
 5202POPC   D2A66748  17.553  25.106   6.585
 5202POPC   C3A66749  17.677  25.376   6.929
 5202POPC   C4A66750  17.725  25.314   7.362
 5202POPC   C1B66751  17.150  25.276   6.121
 5202POPC   C2B66752  16.965  25.227   6.523
 5202POPC   C3B66753  17.128  25.296   6.932
 5202POPC   C4B66754  17.082  25.084   7.303
 5203POPC   NC366755  27.035   8.491   5.438
 5203POPC   PO466756  26.408   8.120   5.427
 5203POPC   GL166757  26.737   8.105   5.720
 5203POPC   GL266758  26.692   8.408   5.804
 5203POPC   C1A66759  26.743   8.055   6.192
 5203POPC   D2A66760  27.016   7.818   6.476
 5203POPC   C3A66761  27.051   7.885   6.924
 5203POPC   C4A66762  26.864   8.096   7.278
 5203POPC   C1B66763  26.961   8.574   6.119
 5203POPC   C2B66764  27.025   8.388   6.511
 5203POPC   C3B66765  26.968   8.537   6.899
 5203POPC   C4B66766  26.806   8.601   7.282
 5204POPC   NC366767   6.085   2.231   5.557
 5204POPC   PO466768   5.635   1.692   5.402
 5204POPC   GL166769   5.753   1.902   5.789
 5204POPC   GL266770   6.075   1.748   5.777
 5204POPC   C1A66771   5.931   2.031   6.221
 5204POPC   D2A66772   5.754   1.959   6.657
 5204POPC   C3A66773   5.769   2.073   7.111
 5204POPC   C4A66774   5.960   2.461   7.231
 5204POPC   C1B66775   6.342   1.741   6.124
 5204POPC   C2B66776   6.356   1.991   6.519
 5204POPC   C3B66777   6.220   1.888   6.920
 5204POPC   C4B66778   6.424   1.645   7.221
 5205POPC   NC366779  23.993   5.417   5.351
 5205POPC   PO466780  23.517   5.024   5.382
 5205POPC   GL166781  23.654   5.001   5.798
 5205POPC   GL266782  23.433   5.279   5.838
 5205POPC   C1A66783  23.727   5.082   6.242
 5205POPC   D2A66784  23.716   4.886   6.621
 5205POPC   C3A66785  23.513   5.007   7.022
 5205POPC   C4A66786  23.661   5.042   7.473
 5205POPC   C1B66787  23.417   5.476   6.189
 5205POPC   C2B66788  23.367   5.290   6.571
 5205POPC   C3B66789  23.149   5.416   6.937
 5205POPC   C4B66790  23.318   5.377   7.331
 5206POPC   NC366791  23.285  28.556   5.320
 5206POPC   PO466792  24.030  28.480   5.364
 5206POPC   GL166793  23.803  28.487   5.787
 5206POPC   GL266794  23.850  28.139   5.841
 5206POPC   C1A66795  23.724  28.408   6.284
 5206POPC   D2A66796  23.769  28.396   6.741
 5206POPC   C3A66797  23.639  28.660   7.063
 5206POPC   C4A66798  23.613  28.394   7.402
 5206POPC   C1B66799  24.113  27.915   6.172
 5206POPC   C2B66800  24.271  28.066   6.573
 5206POPC   C3B66801  24.145  27.918   6.965
 5206POPC   C4B66802  24.027  28.171   7.280
 5207POPC   NC366803   9.449  13.735   5.344
 5207POPC   PO466804   8.889  13.544   5.113
 5207POPC   GL166805   8.890  13.363   5.580
 5207POPC   GL266806   9.240  13.347   5.738
 5207POPC   C1A66807   8.811  13.336   6.048
 5207POPC   D2A66808   8.915  13.563   6.453
 5207POPC   C3A66809   8.963  13.431   6.907
 5207POPC   C4A66810   8.956  13.692   7.298
 5207POPC   C1B66811   9.373  13.499   6.198
 5207POPC   C2B66812   9.559  13.619   6.619
 5207POPC   C3B66813   9.408  13.718   7.047
 5207POPC   C4B66814   9.382  13.988   7.458
 5208POPC   NC366815   2.970   2.576   5.481
 5208POPC   PO466816   2.868   2.025   5.035
 5208POPC   GL166817   2.866   2.074   5.518
 5208POPC   GL266818   2.550   2.239   5.670
 5208POPC   C1A66819   2.936   2.104   5.988
 5208POPC   D2A66820   2.890   2.253   6.441
 5208POPC   C3A66821   3.018   1.975   6.795
 5208POPC   C4A66822   3.010   2.102   7.223
 5208POPC   C1B66823   2.463   1.945   6.050
 5208POPC   C2B66824   2.478   1.968   6.523
 5208POPC   C3B66825   2.574   2.189   6.920
 5208POPC   C4B66826   2.460   2.047   7.326
 5209POPC   NC366827  39.915   5.759   5.093
 5209POPC   PO466828  40.426   6.089   5.408
 5209POPC   GL166829  40.062   5.895   5.613
 5209POPC   GL266830  39.785   6.157   5.709
 5209POPC   C1A66831  40.056   5.666   6.023
 5209POPC   D2A66832  40.169   5.895   6.395
 5209POPC   C3A66833  39.969   5.917   6.794
 5209POPC   C4A66834  39.958   5.635   7.161
 5209POPC   C1B66835  39.723   6.049   6.169
 5209POPC   C2B66836  39.499   5.900   6.575
 5209POPC   C3B66837  39.524   5.886   7.040
 5209POPC   C4B66838  39.862   6.123   7.279
 5210POPC   NC366839  22.053   0.740   5.414
 5210POPC   PO466840  22.279   0.174   5.337
 5210POPC   GL166841  22.311   0.236   5.760
 5210POPC   GL266842  22.421   0.575   5.765
 5210POPC   C1A66843  22.158   0.248   6.175
 5210POPC   D2A66844  22.361   0.240   6.543
 5210POPC   C3A66845  22.126   0.142   6.899
 5210POPC   C4A66846  22.087   0.271   7.329
 5210POPC   C1B66847  22.317   0.726   6.171
 5210POPC   C2B66848  22.169   0.708   6.587
 5210POPC   C3B66849  22.354   0.616   6.988
 5210POPC   C4B66850  22.277   0.747   7.434
 5211POPC   NC366851  36.548  42.819   5.483
 5211POPC   PO466852  37.176  42.510   5.201
 5211POPC   GL166853  37.121  42.609   5.709
 5211POPC   GL266854  36.785  42.556   5.949
 5211POPC   C1A66855  37.233  42.475   6.161
 5211POPC   D2A66856  36.941  42.403   6.509
 5211POPC   C3A66857  37.096  42.337   6.893
 5211POPC   C4A66858  37.237  42.446   7.281
 5211POPC   C1B66859  36.608  42.199   6.205
 5211POPC   C2B66860  36.784  41.910   6.566
 5211POPC   C3B66861  36.800  41.955   7.049
 5211POPC   C4B66862  36.722  42.362   7.280
 5212POPC   NC366863   9.107  29.084   5.154
 5212POPC   PO466864   8.593  29.363   5.542
 5212POPC   GL166865   8.890  29.221   5.820
 5212POPC   GL266866   9.225  29.141   5.781
 5212POPC   C1A66867   8.904  29.082   6.213
 5212POPC   D2A66868   8.994  29.362   6.524
 5212POPC   C3A66869   8.951  29.221   6.929
 5212POPC   C4A66870   8.953  28.983   7.301
 5212POPC   C1B66871   9.411  29.187   6.225
 5212POPC   C2B66872   9.370  29.051   6.671
 5212POPC   C3B66873   9.417  29.098   7.142
 5212POPC   C4B66874   9.475  28.830   7.497
 5213POPC   NC366875  21.194  21.168   5.405
 5213POPC   PO466876  21.637  21.644   5.144
 5213POPC   GL166877  21.583  21.517   5.622
 5213POPC   GL266878  21.237  21.466   5.814
 5213POPC   C1A66879  21.655  21.437   6.102
 5213POPC   D2A66880  21.473  21.342   6.515
 5213POPC   C3A66881  21.578  21.388   6.942
 5213POPC   C4A66882  21.569  21.596   7.322
 5213POPC   C1B66883  21.272  21.088   6.117
 5213POPC   C2B66884  21.300  20.887   6.590
 5213POPC   C3B66885  21.420  20.915   7.041
 5213POPC   C4B66886  21.393  21.147   7.458
 5214POPC   NC366887  22.914  13.248   5.397
 5214POPC   PO466888  22.939  13.907   5.428
 5214POPC   GL166889  23.063  13.732   5.853
 5214POPC   GL266890  22.915  13.407   5.928
 5214POPC   C1A66891  23.213  13.696   6.307
 5214POPC   D2A66892  22.996  13.662   6.737
 5214POPC   C3A66893  23.020  13.798   7.193
 5214POPC   C4A66894  23.117  13.678   7.616
 5214POPC   C1B66895  22.602  13.340   6.257
 5214POPC   C2B66896  22.533  13.360   6.676
 5214POPC   C3B66897  22.787  13.272   7.028
 5214POPC   C4B66898  22.757  13.365   7.455
 5215POPC   NC366899  34.926   8.804   5.572
 5215POPC   PO466900  34.306   8.702   5.356
 5215POPC   GL166901  34.307   8.627   5.776
 5215POPC   GL266902  33.955   8.645   5.768
 5215POPC   C1A66903  34.550   8.622   6.184
 5215POPC   D2A66904  34.683   8.714   6.635
 5215POPC   C3A66905  34.692   9.141   6.764
 5215POPC   C4A66906  34.868   9.365   7.120
 5215POPC   C1B66907  34.030   8.678   6.224
 5215POPC   C2B66908  34.176   8.609   6.648
 5215POPC   C3B66909  34.103   8.859   7.026
 5215POPC   C4B66910  34.351   9.231   7.122
 5216POPC   NC366911   8.204  23.894   5.470
 5216POPC   PO466912   8.436  23.229   5.378
 5216POPC   GL166913   8.348  23.489   5.764
 5216POPC   GL266914   8.025  23.439   5.893
 5216POPC   C1A66915   8.347  23.794   6.204
 5216POPC   D2A66916   8.403  23.826   6.679
 5216POPC   C3A66917   8.049  23.964   6.957
 5216POPC   C4A66918   8.088  23.904   7.386
 5216POPC   C1B66919   8.374  23.297   6.213
 5216POPC   C2B66920   8.273  23.348   6.635
 5216POPC   C3B66921   8.192  23.480   7.055
 5216POPC   C4B66922   7.760  23.558   7.242
 5217POPC   NC366923  42.519  37.873   5.398
 5217POPC   PO466924  42.134  37.279   5.487
 5217POPC   GL166925  42.530  37.426   5.677
 5217POPC   GL266926  42.357  37.382   5.989
 5217POPC   C1A66927  42.685  37.747   6.027
 5217POPC   D2A66928  42.489  37.733   6.432
 5217POPC   C3A66929  42.558  37.603   6.853
 5217POPC   C4A66930  42.551  37.362   7.226
 5217POPC   C1B66931  42.179  37.817   6.030
 5217POPC   C2B66932  42.047  38.012   6.392
 5217POPC   C3B66933  42.113  37.873   6.804
 5217POPC   C4B66934  42.299  37.900   7.201
 5218POPC   NC366935  12.236  38.900   5.121
 5218POPC   PO466936  12.494  39.401   5.682
 5218POPC   GL166937  12.046  39.313   5.805
 5218POPC   GL266938  11.910  38.956   5.768
 5218POPC   C1A66939  11.893  39.371   6.203
 5218POPC   D2A66940  12.171  39.221   6.533
 5218POPC   C3A66941  12.060  39.353   6.952
 5218POPC   C4A66942  12.096  39.496   7.404
 5218POPC   C1B66943  12.085  38.850   6.158
 5218POPC   C2B66944  11.930  38.739   6.549
 5218POPC   C3B66945  12.157  38.849   6.896
 5218POPC   C4B66946  12.047  38.989   7.286
 5219POPC   NC366947  21.785  29.385   5.402
 5219POPC   PO466948  22.350  28.996   5.343
 5219POPC   GL166949  22.077  28.972   5.737
 5219POPC   GL266950  22.261  29.258   5.807
 5219POPC   C1A66951  22.121  29.013   6.233
 5219POPC   D2A66952  22.467  29.062   6.565
 5219POPC   C3A66953  22.378  28.961   7.007
 5219POPC   C4A66954  21.941  29.051   7.144
 5219POPC   C1B66955  22.471  29.433   6.172
 5219POPC   C2B66956  22.339  29.583   6.576
 5219POPC   C3B66957  22.438  29.480   6.969
 5219POPC   C4B66958  22.343  29.609   7.359
 5220POPC   NC366959  41.022  36.639   5.058
 5220POPC   PO466960  41.615  36.824   5.394
 5220POPC   GL166961  41.606  36.796   5.842
 5220POPC   GL266962  41.516  36.431   5.919
 5220POPC   C1A66963  41.586  36.998   6.245
 5220POPC   D2A66964  41.539  36.792   6.624
 5220POPC   C3A66965  41.566  37.101   6.950
 5220POPC   C4A66966  41.679  37.134   7.379
 5220POPC   C1B66967  41.246  36.632   6.200
 5220POPC   C2B66968  41.079  36.559   6.611
 5220POPC   C3B66969  41.215  36.732   7.013
 5220POPC   C4B66970  41.514  36.659   7.300
 5221POPC   NC366971   4.009  31.081   5.515
 5221POPC   PO466972   4.523  30.760   5.581
 5221POPC   GL166973   4.196  30.716   5.891
 5221POPC   GL266974   4.164  31.033   6.031
 5221POPC   C1A66975   4.122  30.590   6.340
 5221POPC   D2A66976   4.300  30.832   6.695
 5221POPC   C3A66977   4.103  30.965   7.075
 5221POPC   C4A66978   3.933  30.685   7.331
 5221POPC   C1B66979   4.552  30.849   6.242
 5221POPC   C2B66980   4.804  30.802   6.615
 5221POPC   C3B66981   4.733  30.594   7.000
 5221POPC   C4B66982   4.505  30.585   7.369
 5222POPC   NC366983  42.721  27.570   5.433
 5222POPC   PO466984  42.056  27.338   5.480
 5222POPC   GL166985  42.338  27.477   5.861
 5222POPC   GL266986  42.648  27.732   5.896
 5222POPC   C1A66987  42.139  27.582   6.284
 5222POPC   D2A66988  41.990  27.798   6.673
 5222POPC   C3A66989  42.071  27.487   7.017
 5222POPC   C4A66990  42.331  27.364   7.336
 5222POPC   C1B66991  42.651  27.565   6.326
 5222POPC   C2B66992  42.479  27.649   6.726
 5222POPC   C3B66993  42.399  27.865   7.109
 5222POPC   C4B66994  42.594  27.778   7.473
 5223POPC   NC366995  17.336  42.051   5.155
 5223POPC   PO466996  17.680  41.434   5.298
 5223POPC   GL166997  17.449  41.598   5.586
 5223POPC   GL266998  17.446  41.944   5.665
 5223POPC   C1A66999  17.410  41.510   5.997
 5223POPC   D2A67000  17.445  41.369   6.418
 5223POPC   C3A67001  17.380  41.590   6.828
 5223POPC   C4A67002  17.269  41.375   7.231
 5223POPC   C1B67003  17.714  41.900   6.030
 5223POPC   C2B67004  17.714  41.848   6.493
 5223POPC   C3B67005  17.760  41.926   6.930
 5223POPC   C4B67006  17.548  41.782   7.301
 5224POPC   NC367007  29.120  43.007   5.474
 5224POPC   PO467008  28.709  43.462   5.715
 5224POPC   GL167009  28.960  43.164   5.933
 5224POPC   GL267010  29.292  43.015   5.958
 5224POPC   C1A67011  28.918  42.960   6.290
 5224POPC   D2A67012  29.151  43.093   6.601
 5224POPC   C3A67013  28.969  43.123   6.971
 5224POPC   C4A67014  29.096  43.316   7.324
 5224POPC   C1B67015  29.383  42.732   6.314
 5224POPC   C2B67016  29.443  42.718   6.776
 5224POPC   C3B67017  29.409  42.908   7.186
 5224POPC   C4B67018  29.100  42.855   7.531
 5225POPC   NC367019   5.367   3.803   5.464
 5225POPC   PO467020   5.141   3.177   5.279
 5225POPC   GL167021   4.998   3.389   5.675
 5225POPC   GL267022   5.304   3.350   5.827
 5225POPC   C1A67023   4.917   3.439   6.176
 5225POPC   D2A67024   5.153   3.607   6.582
 5225POPC   C3A67025   5.004   3.551   7.040
 5225POPC   C4A67026   4.817   3.691   7.451
 5225POPC   C1B67027   5.432   3.624   6.149
 5225POPC   C2B67028   5.663   3.658   6.556
 5225POPC   C3B67029   5.508   3.657   7.003
 5225POPC   C4B67030   5.581   4.051   7.257
 5226POPC   NC367031  16.777  32.769   5.120
 5226POPC   PO467032  16.405  33.178   5.497
 5226POPC   GL167033  16.531  32.970   5.918
 5226POPC   GL267034  16.860  32.809   5.965
 5226POPC   C1A67035  16.553  32.896   6.361
 5226POPC   D2A67036  16.763  33.112   6.686
 5226POPC   C3A67037  16.573  32.957   7.024
 5226POPC   C4A67038  16.545  33.092   7.416
 5226POPC   C1B67039  17.034  33.151   6.245
 5226POPC   C2B67040  17.081  33.509   6.558
 5226POPC   C3B67041  17.122  33.412   6.984
 5226POPC   C4B67042  17.054  32.999   7.143
 5227POPC   NC367043  23.679  44.774   5.345
 5227POPC   PO467044  23.295  44.248   5.231
 5227POPC   GL167045  23.388  44.475   5.673
 5227POPC   GL267046  23.665  44.719   5.834
 5227POPC   C1A67047  23.488  44.382   6.142
 5227POPC   D2A67048  23.729  44.624   6.445
 5227POPC   C3A67049  23.750  44.541   6.882
 5227POPC   C4A67050  23.888  44.582   7.341
 5227POPC   C1B67051  23.694   0.045   6.149
 5227POPC   C2B67052  23.808   0.187   6.578
 5227POPC   C3B67053  23.850   0.031   6.977
 5227POPC   C4B67054  23.534  44.940   7.250
 5228POPC   NC367055  41.774  22.440   5.309
 5228POPC   PO467056  41.261  21.999   5.454
 5228POPC   GL167057  41.339  22.130   5.830
 5228POPC   GL267058  41.676  22.260   5.780
 5228POPC   C1A67059  41.357  21.937   6.236
 5228POPC   D2A67060  41.555  22.091   6.613
 5228POPC   C3A67061  41.426  21.993   7.034
 5228POPC   C4A67062  41.377  21.859   7.460
 5228POPC   C1B67063  41.868  22.171   6.169
 5228POPC   C2B67064  41.980  22.389   6.556
 5228POPC   C3B67065  41.910  22.225   6.977
 5228POPC   C4B67066  41.805  22.129   7.387
 5229POPC   NC367067  14.378  23.413   5.526
 5229POPC   PO467068  14.412  24.145   5.561
 5229POPC   GL167069  14.227  23.859   5.797
 5229POPC   GL267070  14.549  23.737   5.913
 5229POPC   C1A67071  14.095  23.664   6.186
 5229POPC   D2A67072  14.225  23.449   6.566
 5229POPC   C3A67073  14.249  23.657   6.967
 5229POPC   C4A67074  14.184  23.437   7.370
 5229POPC   C1B67075  14.590  23.760   6.357
 5229POPC   C2B67076  14.893  23.762   6.683
 5229POPC   C3B67077  14.773  23.621   7.075
 5229POPC   C4B67078  14.528  23.906   7.312
 5230POPC   NC367079  25.370  41.389   5.644
 5230POPC   PO467080  25.172  41.991   5.536
 5230POPC   GL167081  25.303  41.810   5.928
 5230POPC   GL267082  25.641  41.663   6.010
 5230POPC   C1A67083  25.251  41.761   6.347
 5230POPC   D2A67084  24.950  41.550   6.582
 5230POPC   C3A67085  25.021  41.581   6.988
 5230POPC   C4A67086  25.034  41.317   7.337
 5230POPC   C1B67087  25.745  41.774   6.453
 5230POPC   C2B67088  25.465  41.816   6.807
 5230POPC   C3B67089  25.496  41.607   7.173
 5230POPC   C4B67090  25.553  41.237   7.378
 5231POPC   NC367091  33.545   9.801   5.132
 5231POPC   PO467092  34.100   9.577   5.451
 5231POPC   GL167093  33.731   9.739   5.655
 5231POPC   GL267094  33.915   9.893   5.915
 5231POPC   C1A67095  33.497   9.634   6.050
 5231POPC   D2A67096  33.651   9.576   6.475
 5231POPC   C3A67097  33.467   9.865   6.791
 5231POPC   C4A67098  33.373   9.817   7.228
 5231POPC   C1B67099  34.108   9.727   6.257
 5231POPC   C2B67100  34.055   9.826   6.682
 5231POPC   C3B67101  33.899   9.866   7.077
 5231POPC   C4B67102  34.109   9.609   7.319
 5232POPC   NC367103  18.754  11.395   5.440
 5232POPC   PO467104  19.304  11.325   5.526
 5232POPC   GL167105  19.192  11.066   5.874
 5232POPC   GL267106  18.850  11.087   5.855
 5232POPC   C1A67107  19.104  11.115   6.336
 5232POPC   D2A67108  19.049  11.150   6.802
 5232POPC   C3A67109  19.137  11.290   7.224
 5232POPC   C4A67110  19.130  11.385   7.672
 5232POPC   C1B67111  18.575  11.119   6.211
 5232POPC   C2B67112  18.582  10.971   6.649
 5232POPC   C3B67113  18.618  11.093   7.094
 5232POPC   C4B67114  18.643  11.248   7.514
 5233POPC   NC367115  25.025  43.033   5.178
 5233POPC   PO467116  25.340  43.578   5.282
 5233POPC   GL167117  25.084  43.382   5.649
 5233POPC   GL267118  25.102  43.019   5.726
 5233POPC   C1A67119  25.179  43.379   6.116
 5233POPC   D2A67120  25.077  43.215   6.504
 5233POPC   C3A67121  25.130  43.398   6.895
 5233POPC   C4A67122  25.073  43.223   7.273
 5233POPC   C1B67123  25.206  42.849   6.141
 5233POPC   C2B67124  25.345  42.765   6.562
 5233POPC   C3B67125  25.161  42.871   6.906
 5233POPC   C4B67126  25.329  42.716   7.246
 5234POPC   NC367127  44.588  42.287   5.398
 5234POPC   PO467128   0.258  42.459   5.303
 5234POPC   GL167129   0.036  42.438   5.728
 5234POPC   GL267130  44.728  42.673   5.761
 5234POPC   C1A67131  44.848  42.278   6.123
 5234POPC   D2A67132  44.632  42.317   6.528
 5234POPC   C3A67133  44.867  42.215   6.903
 5234POPC   C4A67134  44.831  42.486   7.247
 5234POPC   C1B67135  44.409  42.546   6.119
 5234POPC   C2B67136  44.202  42.606   6.573
 5234POPC   C3B67137  44.397  42.478   6.967
 5234POPC   C4B67138  44.397  42.328   7.399
 5235POPC   NC367139  43.485  18.016   5.522
 5235POPC   PO467140  44.068  18.267   5.312
 5235POPC   GL167141  44.028  18.324   5.762
 5235POPC   GL267142  43.681  18.313   5.870
 5235POPC   C1A67143  44.011  18.573   6.151
 5235POPC   D2A67144  44.065  18.386   6.565
 5235POPC   C3A67145  44.045  18.568   6.983
 5235POPC   C4A67146  44.007  18.373   7.437
 5235POPC   C1B67147  43.725  18.077   6.222
 5235POPC   C2B67148  43.609  18.133   6.627
 5235POPC   C3B67149  43.833  18.114   6.977
 5235POPC   C4B67150  43.822  17.888   7.309
 5236POPC   NC367151   5.137  26.355   5.161
 5236POPC   PO467152   5.488  25.855   5.463
 5236POPC   GL167153   5.301  25.942   5.918
 5236POPC   GL267154   4.912  25.951   5.960
 5236POPC   C1A67155   5.302  26.287   6.247
 5236POPC   D2A67156   5.562  26.470   6.588
 5236POPC   C3A67157   5.421  26.288   6.985
 5236POPC   C4A67158   5.157  26.035   7.208
 5236POPC   C1B67159   5.010  25.845   6.347
 5236POPC   C2B67160   5.037  25.729   6.749
 5236POPC   C3B67161   4.763  25.800   7.012
 5236POPC   C4B67162   4.621  25.779   7.391
 5237POPC   NC367163  44.825   0.137   5.518
 5237POPC   PO467164  44.809  44.489   5.338
 5237POPC   GL167165  44.548  44.661   5.625
 5237POPC   GL267166  44.452  44.323   5.707
 5237POPC   C1A67167  44.447  44.775   6.065
 5237POPC   D2A67168  44.571  44.608   6.476
 5237POPC   C3A67169  44.409  44.779   6.850
 5237POPC   C4A67170  44.636  44.666   7.202
 5237POPC   C1B67171  44.421  44.247   6.140
 5237POPC   C2B67172  44.362  44.107   6.578
 5237POPC   C3B67173  44.330  44.267   7.013
 5237POPC   C4B67174  44.394  44.274   7.469
 5238POPC   NC367175   8.620  32.065   5.498
 5238POPC   PO467176   7.943  32.251   5.525
 5238POPC   GL167177   8.247  32.235   5.821
 5238POPC   GL267178   8.491  32.524   5.776
 5238POPC   C1A67179   8.123  32.135   6.222
 5238POPC   D2A67180   8.165  32.284   6.613
 5238POPC   C3A67181   8.057  31.996   6.897
 5238POPC   C4A67182   7.866  32.010   7.288
 5238POPC   C1B67183   8.366  32.616   6.218
 5238POPC   C2B67184   8.531  32.630   6.662
 5238POPC   C3B67185   8.602  32.608   7.128
 5238POPC   C4B67186   8.562  32.464   7.613
 5239POPC   NC367187   2.279  16.378   5.368
 5239POPC   PO467188   2.011  15.679   5.404
 5239POPC   GL167189   2.020  15.866   5.784
 5239POPC   GL267190   1.897  16.189   5.692
 5239POPC   C1A67191   1.968  15.731   6.205
 5239POPC   D2A67192   1.841  15.920   6.583
 5239POPC   C3A67193   2.017  15.813   6.998
 5239POPC   C4A67194   1.797  15.986   7.392
 5239POPC   C1B67195   1.940  16.255   6.134
 5239POPC   C2B67196   2.165  16.407   6.470
 5239POPC   C3B67197   2.024  16.321   6.849
 5239POPC   C4B67198   2.207  16.242   7.206
 5240POPC   NC367199  42.054   6.056   5.334
 5240POPC   PO467200  42.516   5.493   5.361
 5240POPC   GL167201  42.536   5.719   5.774
 5240POPC   GL267202  42.261   5.967   5.801
 5240POPC   C1A67203  42.513   5.833   6.215
 5240POPC   D2A67204  42.425   5.588   6.552
 5240POPC   C3A67205  42.350   5.745   6.939
 5240POPC   C4A67206  42.419   5.495   7.280
 5240POPC   C1B67207  42.170   6.222   6.195
 5240POPC   C2B67208  42.296   6.208   6.643
 5240POPC   C3B67209  42.097   6.184   7.078
 5240POPC   C4B67210  42.086   6.252   7.577
 5241POPC   NC367211  34.582  10.936   5.616
 5241POPC   PO467212  34.471  11.642   5.443
 5241POPC   GL167213  34.586  11.397   5.818
 5241POPC   GL267214  34.948  11.354   5.774
 5241POPC   C1A67215  34.552  11.211   6.237
 5241POPC   D2A67216  34.299  11.374   6.568
 5241POPC   C3A67217  34.314  11.265   7.008
 5241POPC   C4A67218  34.240  11.445   7.431
 5241POPC   C1B67219  34.968  11.512   6.181
 5241POPC   C2B67220  34.794  11.534   6.589
 5241POPC   C3B67221  34.750  11.673   7.006
 5241POPC   C4B67222  34.740  11.373   7.294
 5242POPC   NC367223  11.452  32.618   5.686
 5242POPC   PO467224  11.011  33.044   5.271
 5242POPC   GL167225  11.323  33.122   5.673
 5242POPC   GL267226  11.514  32.986   6.016
 5242POPC   C1A67227  11.190  33.358   6.075
 5242POPC   D2A67228  11.376  33.250   6.482
 5242POPC   C3A67229  11.126  33.212   6.856
 5242POPC   C4A67230  10.938  33.356   7.229
 5242POPC   C1B67231  11.468  32.688   6.401
 5242POPC   C2B67232  11.360  32.746   6.865
 5242POPC   C3B67233  11.286  32.925   7.307
 5242POPC   C4B67234  11.383  32.700   7.737
 5243POPC   NC367235  10.929  42.545   5.380
 5243POPC   PO467236  11.599  42.453   5.450
 5243POPC   GL167237  11.559  42.126   5.721
 5243POPC   GL267238  11.215  42.175   5.699
 5243POPC   C1A67239  11.435  42.027   6.143
 5243POPC   D2A67240  11.281  42.221   6.493
 5243POPC   C3A67241  11.515  42.256   6.854
 5243POPC   C4A67242  11.506  42.347   7.270
 5243POPC   C1B67243  11.026  42.348   6.074
 5243POPC   C2B67244  10.830  42.503   6.458
 5243POPC   C3B67245  11.088  42.555   6.825
 5243POPC   C4B67246  11.019  42.446   7.215
 5244POPC   NC367247  40.397  29.146   5.735
 5244POPC   PO467248  40.035  29.321   5.200
 5244POPC   GL167249  39.896  29.317   5.665
 5244POPC   GL267250  39.756  29.011   5.733
 5244POPC   C1A67251  39.771  29.449   6.091
 5244POPC   D2A67252  39.720  29.357   6.536
 5244POPC   C3A67253  40.032  29.308   6.865
 5244POPC   C4A67254  39.907  29.284   7.277
 5244POPC   C1B67255  39.900  28.956   6.173
 5244POPC   C2B67256  39.830  28.858   6.610
 5244POPC   C3B67257  39.861  28.832   7.037
 5244POPC   C4B67258  40.216  28.886   7.308
 5245POPC   NC367259  13.252  24.830   5.606
 5245POPC   PO467260  13.489  24.228   5.407
 5245POPC   GL167261  13.695  24.415   5.771
 5245POPC   GL267262  13.416  24.475   5.910
 5245POPC   C1A67263  13.811  24.552   6.210
 5245POPC   D2A67264  13.668  24.348   6.582
 5245POPC   C3A67265  13.795  24.563   6.890
 5245POPC   C4A67266  13.788  24.537   7.288
 5245POPC   C1B67267  13.272  24.520   6.280
 5245POPC   C2B67268  13.167  24.502   6.678
 5245POPC   C3B67269  13.360  24.380   7.054
 5245POPC   C4B67270  13.304  24.472   7.487
 5246POPC   NC367271  26.937  44.890   5.474
 5246POPC   PO467272  26.510  44.350   5.528
 5246POPC   GL167273  26.828  44.359   5.892
 5246POPC   GL267274  26.989  44.704   5.937
 5246POPC   C1A67275  26.816  44.455   6.357
 5246POPC   D2A67276  26.544  44.824   6.562
 5246POPC   C3A67277  26.610  44.904   6.995
 5246POPC   C4A67278  26.690  44.473   7.139
 5246POPC   C1B67279  27.004  44.917   6.326
 5246POPC   C2B67280  27.084  44.761   6.723
 5246POPC   C3B67281  27.085  44.791   7.154
 5246POPC   C4B67282  27.279  44.605   7.524
 5247POPC   NC367283   7.984  22.060   5.426
 5247POPC   PO467284   8.653  22.256   5.296
 5247POPC   GL167285   8.393  22.223   5.713
 5247POPC   GL267286   8.341  21.888   5.750
 5247POPC   C1A67287   8.300  22.218   6.196
 5247POPC   D2A67288   8.041  22.404   6.544
 5247POPC   C3A67289   8.142  22.517   6.979
 5247POPC   C4A67290   8.345  22.287   7.291
 5247POPC   C1B67291   7.998  21.826   6.044
 5247POPC   C2B67292   8.004  21.871   6.490
 5247POPC   C3B67293   8.253  22.009   6.844
 5247POPC   C4B67294   8.056  21.877   7.221
 5248POPC   NC367295  36.968   6.487   5.601
 5248POPC   PO467296  36.440   6.632   5.131
 5248POPC   GL167297  36.600   6.863   5.616
 5248POPC   GL267298  36.957   6.982   5.743
 5248POPC   C1A67299  36.639   6.758   6.105
 5248POPC   D2A67300  36.886   6.846   6.473
 5248POPC   C3A67301  36.805   6.600   6.841
 5248POPC   C4A67302  36.616   6.615   7.249
 5248POPC   C1B67303  37.183   7.161   6.141
 5248POPC   C2B67304  37.195   7.253   6.605
 5248POPC   C3B67305  37.258   7.155   7.035
 5248POPC   C4B67306  37.103   6.793   7.197
 5249POPC   NC367307  24.732  17.566   5.416
 5249POPC   PO467308  24.332  17.054   5.325
 5249POPC   GL167309  24.250  17.313   5.743
 5249POPC   GL267310  24.428  17.613   5.825
 5249POPC   C1A67311  24.365  17.271   6.202
 5249POPC   D2A67312  24.594  17.323   6.573
 5249POPC   C3A67313  24.491  17.374   6.988
 5249POPC   C4A67314  24.237  17.222   7.303
 5249POPC   C1B67315  24.544  17.744   6.251
 5249POPC   C2B67316  24.247  17.749   6.622
 5249POPC   C3B67317  24.235  17.798   7.071
 5249POPC   C4B67318  24.612  17.706   7.349
 5250POPC   NC367319  40.125  41.398   5.306
 5250POPC   PO467320  39.949  42.091   5.326
 5250POPC   GL167321  39.990  41.767   5.648
 5250POPC   GL267322  39.744  41.536   5.649
 5250POPC   C1A67323  40.122  41.653   6.055
 5250POPC   D2A67324  40.041  41.753   6.454
 5250POPC   C3A67325  40.174  41.540   6.803
 5250POPC   C4A67326  40.161  41.514   7.224
 5250POPC   C1B67327  39.664  41.340   6.038
 5250POPC   C2B67328  39.715  41.367   6.490
 5250POPC   C3B67329  39.627  41.505   6.893
 5250POPC   C4B67330  39.608  41.423   7.319
 5251POPC   NC367331  28.403  41.487   5.464
 5251POPC   PO467332  28.588  42.040   5.205
 5251POPC   GL167333  28.563  41.882   5.724
 5251POPC   GL267334  28.189  41.770   5.859
 5251POPC   C1A67335  28.566  41.603   6.159
 5251POPC   D2A67336  28.260  41.601   6.519
 5251POPC   C3A67337  28.397  41.784   6.919
 5251POPC   C4A67338  28.329  41.702   7.342
 5251POPC   C1B67339  28.122  41.322   6.055
 5251POPC   C2B67340  28.115  41.061   6.444
 5251POPC   C3B67341  28.026  41.224   6.841
 5251POPC   C4B67342  27.963  41.343   7.262
 5252POPC   NC367343  20.738   4.719   5.573
 5252POPC   PO467344  20.181   4.430   5.653
 5252POPC   GL167345  20.521   4.207   5.855
 5252POPC   GL267346  20.856   4.345   5.900
 5252POPC   C1A67347  20.553   4.019   6.241
 5252POPC   D2A67348  20.582   4.404   6.443
 5252POPC   C3A67349  20.490   4.407   6.859
 5252POPC   C4A67350  20.580   4.718   7.185
 5252POPC   C1B67351  21.032   4.188   6.272
 5252POPC   C2B67352  20.986   4.194   6.692
 5252POPC   C3B67353  20.972   4.393   7.048
 5252POPC   C4B67354  20.831   4.288   7.413
 5253POPC   NC367355  39.792  10.393   5.664
 5253POPC   PO467356  39.190  10.721   5.495
 5253POPC   GL167357  39.318  10.501   5.845
 5253POPC   GL267358  39.096  10.209   5.860
 5253POPC   C1A67359  39.517  10.661   6.262
 5253POPC   D2A67360  39.294  10.709   6.679
 5253POPC   C3A67361  39.498  10.496   7.000
 5253POPC   C4A67362  39.764  10.166   7.084
 5253POPC   C1B67363  39.094  10.396   6.285
 5253POPC   C2B67364  38.766  10.565   6.543
 5253POPC   C3B67365  38.804  10.502   6.963
 5253POPC   C4B67366  39.083  10.645   7.240
 5254POPC   NC367367  25.238  17.960   5.217
 5254POPC   PO467368  25.560  18.522   5.406
 5254POPC   GL167369  25.220  18.382   5.739
 5254POPC   GL267370  25.333  18.106   5.901
 5254POPC   C1A67371  24.916  18.217   6.136
 5254POPC   D2A67372  24.972  17.900   6.493
 5254POPC   C3A67373  24.947  18.083   6.934
 5254POPC   C4A67374  25.199  18.394   7.166
 5254POPC   C1B67375  25.581  18.107   6.242
 5254POPC   C2B67376  25.693  18.176   6.645
 5254POPC   C3B67377  25.599  18.109   7.055
 5254POPC   C4B67378  25.304  17.813   7.205
 5255POPC   NC367379   0.834  28.608   5.444
 5255POPC   PO467380   1.362  28.222   5.325
 5255POPC   GL167381   1.255  28.200   5.756
 5255POPC   GL267382   0.905  28.223   5.789
 5255POPC   C1A67383   1.286  28.414   6.180
 5255POPC   D2A67384   1.505  28.420   6.582
 5255POPC   C3A67385   1.324  28.434   7.021
 5255POPC   C4A67386   1.304  28.519   7.501
 5255POPC   C1B67387   0.762  28.394   6.204
 5255POPC   C2B67388   0.953  28.336   6.630
 5255POPC   C3B67389   0.853  28.210   7.062
 5255POPC   C4B67390   1.017  28.082   7.485
 5256POPC   NC367391  38.793  12.701   5.508
 5256POPC   PO467392  38.332  13.171   5.650
 5256POPC   GL167393  38.418  12.770   5.863
 5256POPC   GL267394  38.736  12.620   5.997
 5256POPC   C1A67395  38.329  12.749   6.282
 5256POPC   D2A67396  38.540  12.690   6.680
 5256POPC   C3A67397  38.332  12.672   7.092
 5256POPC   C4A67398  38.441  12.885   7.470
 5256POPC   C1B67399  38.809  12.984   6.224
 5256POPC   C2B67400  38.908  13.082   6.649
 5256POPC   C3B67401  38.715  13.121   7.075
 5256POPC   C4B67402  38.715  13.302   7.517
 5257POPC   NC367403   0.589  42.152   5.396
 5257POPC   PO467404   0.585  42.838   5.671
 5257POPC   GL167405   0.877  42.575   5.881
 5257POPC   GL267406   0.713  42.265   5.874
 5257POPC   C1A67407   0.870  42.461   6.342
 5257POPC   D2A67408   0.677  42.177   6.599
 5257POPC   C3A67409   0.390  42.407   6.851
 5257POPC   C4A67410   0.285  42.316   7.278
 5257POPC   C1B67411   0.365  42.345   6.165
 5257POPC   C2B67412   0.173  42.087   6.495
 5257POPC   C3B67413   0.322  41.919   6.904
 5257POPC   C4B67414   0.179  41.822   7.315
 5258POPC   NC367415  11.909  25.618   5.180
 5258POPC   PO467416  12.313  25.117   5.216
 5258POPC   GL167417  12.141  25.160   5.697
 5258POPC   GL267418  12.383  25.057   5.916
 5258POPC   C1A67419  11.873  25.081   6.111
 5258POPC   D2A67420  11.626  25.054   6.546
 5258POPC   C3A67421  11.830  25.208   6.955
 5258POPC   C4A67422  11.965  25.525   7.238
 5258POPC   C1B67423  12.469  25.255   6.309
 5258POPC   C2B67424  12.343  25.392   6.731
 5258POPC   C3B67425  12.396  25.207   7.115
 5258POPC   C4B67426  12.191  25.124   7.469
 5259POPC   NC367427  36.941  16.933   5.472
 5259POPC   PO467428  36.307  16.716   5.618
 5259POPC   GL167429  36.696  16.556   5.819
 5259POPC   GL267430  37.085  16.608   5.826
 5259POPC   C1A67431  36.760  16.745   6.197
 5259POPC   D2A67432  36.518  16.760   6.524
 5259POPC   C3A67433  36.780  16.624   6.797
 5259POPC   C4A67434  36.635  16.845   7.078
 5259POPC   C1B67435  37.250  16.884   6.167
 5259POPC   C2B67436  37.255  16.766   6.594
 5259POPC   C3B67437  37.152  16.936   6.985
 5259POPC   C4B67438  37.054  16.749   7.327
 5260POPC   NC367439  42.892   1.874   5.389
 5260POPC   PO467440  43.343   2.427   5.312
 5260POPC   GL167441  43.303   2.150   5.691
 5260POPC   GL267442  43.005   2.049   5.855
 5260POPC   C1A67443  43.341   2.311   6.124
 5260POPC   D2A67444  43.137   2.208   6.505
 5260POPC   C3A67445  43.241   2.263   6.913
 5260POPC   C4A67446  43.086   1.928   7.093
 5260POPC   C1B67447  43.197   1.799   6.190
 5260POPC   C2B67448  43.310   1.749   6.633
 5260POPC   C3B67449  43.399   1.522   7.001
 5260POPC   C4B67450  43.498   1.666   7.423
 5261POPC   NC367451  20.800  24.298   5.455
 5261POPC   PO467452  20.220  24.430   5.752
 5261POPC   GL167453  20.566  24.311   5.934
 5261POPC   GL267454  20.789  24.612   5.855
 5261POPC   C1A67455  20.397  24.199   6.362
 5261POPC   D2A67456  20.203  24.249   6.755
 5261POPC   C3A67457  20.425  24.519   6.977
 5261POPC   C4A67458  20.697  24.363   7.171
 5261POPC   C1B67459  20.667  24.656   6.282
 5261POPC   C2B67460  20.842  24.548   6.676
 5261POPC   C3B67461  20.942  24.769   7.018
 5261POPC   C4B67462  20.759  24.801   7.415
 5262POPC   NC367463   2.424  25.911   5.214
 5262POPC   PO467464   2.934  26.285   5.373
 5262POPC   GL167465   2.964  26.142   5.789
 5262POPC   GL267466   3.230  26.251   5.958
 5262POPC   C1A67467   2.808  25.878   6.144
 5262POPC   D2A67468   2.674  25.709   6.556
 5262POPC   C3A67469   2.881  25.999   6.837
 5262POPC   C4A67470   2.805  26.053   7.260
 5262POPC   C1B67471   3.206  26.182   6.391
 5262POPC   C2B67472   3.111  26.479   6.714
 5262POPC   C3B67473   3.092  26.464   7.177
 5262POPC   C4B67474   3.299  26.273   7.536
 5263POPC   NC367475   0.709  19.163   5.662
 5263POPC   PO467476   1.246  19.010   5.293
 5263POPC   GL167477   1.231  19.209   5.734
 5263POPC   GL267478   1.047  19.537   5.758
 5263POPC   C1A67479   1.488  19.253   6.157
 5263POPC   D2A67480   1.577  19.468   6.583
 5263POPC   C3A67481   1.412  19.274   7.000
 5263POPC   C4A67482   1.282  18.891   7.251
 5263POPC   C1B67483   1.000  19.386   6.189
 5263POPC   C2B67484   0.843  19.181   6.561
 5263POPC   C3B67485   0.747  19.039   6.972
 5263POPC   C4B67486   0.906  19.223   7.316
 5264POPC   NC367487  10.766  26.711   5.408
 5264POPC   PO467488  11.018  27.295   5.684
 5264POPC   GL167489  10.865  26.988   5.946
 5264POPC   GL267490  10.511  26.921   5.895
 5264POPC   C1A67491  10.822  26.971   6.370
 5264POPC   D2A67492  10.799  26.770   6.743
 5264POPC   C3A67493  10.426  26.603   6.858
 5264POPC   C4A67494  10.425  26.634   7.271
 5264POPC   C1B67495  10.396  27.221   6.248
 5264POPC   C2B67496  10.481  27.207   6.709
 5264POPC   C3B67497  10.640  27.080   7.115
 5264POPC   C4B67498  10.439  27.138   7.510
 5265POPC   NC367499  20.046  22.635   5.417
 5265POPC   PO467500  19.819  23.252   5.396
 5265POPC   GL167501  19.954  23.007   5.769
 5265POPC   GL267502  20.311  22.841   5.794
 5265POPC   C1A67503  19.791  22.985   6.189
 5265POPC   D2A67504  19.582  22.951   6.592
 5265POPC   C3A67505  19.484  22.831   7.013
 5265POPC   C4A67506  19.794  23.039   7.273
 5265POPC   C1B67507  20.236  22.727   6.205
 5265POPC   C2B67508  20.030  22.734   6.575
 5265POPC   C3B67509  19.961  22.635   6.959
 5265POPC   C4B67510  20.193  22.713   7.311
 5266POPC   NC367511   6.635  37.207   5.383
 5266POPC   PO467512   6.895  36.717   5.579
 5266POPC   GL167513   6.536  36.930   5.797
 5266POPC   GL267514   6.227  36.734   5.846
 5266POPC   C1A67515   6.525  37.198   6.160
 5266POPC   D2A67516   6.770  37.072   6.511
 5266POPC   C3A67517   6.664  37.054   6.939
 5266POPC   C4A67518   6.710  36.728   7.249
 5266POPC   C1B67519   6.446  36.687   6.266
 5266POPC   C2B67520   6.434  36.644   6.734
 5266POPC   C3B67521   6.222  36.810   7.123
 5266POPC   C4B67522   6.174  36.760   7.606
 5267POPC   NC367523  22.480  42.741   5.475
 5267POPC   PO467524  22.022  43.179   5.618
 5267POPC   GL167525  22.231  42.912   5.902
 5267POPC   GL267526  22.605  42.983   5.917
 5267POPC   C1A67527  22.305  42.960   6.331
 5267POPC   D2A67528  22.175  43.087   6.715
 5267POPC   C3A67529  22.325  42.863   7.005
 5267POPC   C4A67530  21.942  42.793   7.260
 5267POPC   C1B67531  22.499  43.409   6.111
 5267POPC   C2B67532  22.363  43.531   6.535
 5267POPC   C3B67533  22.131  43.570   6.910
 5267POPC   C4B67534  22.144  43.263   7.241
 5268POPC   NC367535   8.210  29.405   5.294
 5268POPC   PO467536   8.400  30.085   5.384
 5268POPC   GL167537   8.392  30.135   5.783
 5268POPC   GL267538   8.256  29.777   5.786
 5268POPC   C1A67539   8.266  30.111   6.187
 5268POPC   D2A67540   8.407  29.901   6.554
 5268POPC   C3A67541   8.250  30.052   6.951
 5268POPC   C4A67542   8.117  30.184   7.345
 5268POPC   C1B67543   8.163  29.603   6.184
 5268POPC   C2B67544   8.191  29.426   6.586
 5268POPC   C3B67545   8.310  29.553   6.983
 5268POPC   C4B67546   8.227  29.681   7.415
 5269POPC   NC367547  37.914  32.769   5.383
 5269POPC   PO467548  37.509  32.171   5.343
 5269POPC   GL167549  37.539  32.256   5.752
 5269POPC   GL267550  37.877  32.413   5.772
 5269POPC   C1A67551  37.430  32.436   6.130
 5269POPC   D2A67552  37.493  32.500   6.568
 5269POPC   C3A67553  37.691  32.243   6.910
 5269POPC   C4A67554  37.470  32.216   7.281
 5269POPC   C1B67555  37.939  32.617   6.175
 5269POPC   C2B67556  38.001  32.455   6.571
 5269POPC   C3B67557  38.088  32.651   6.971
 5269POPC   C4B67558  37.880  32.517   7.324
 5270POPC   NC367559  43.769  30.984   5.409
 5270POPC   PO467560  44.142  30.435   5.594
 5270POPC   GL167561  43.985  30.723   5.891
 5270POPC   GL267562  43.631  30.695   5.825
 5270POPC   C1A67563  43.806  30.746   6.325
 5270POPC   D2A67564  43.611  30.539   6.672
 5270POPC   C3A67565  43.855  30.621   7.037
 5270POPC   C4A67566  43.911  30.818   7.435
 5270POPC   C1B67567  43.416  30.993   6.120
 5270POPC   C2B67568  43.430  31.013   6.606
 5270POPC   C3B67569  43.376  30.830   7.050
 5270POPC   C4B67570  43.416  30.862   7.531
 5271POPC   NC367571  25.532  30.168   5.123
 5271POPC   PO467572  25.027  29.697   5.221
 5271POPC   GL167573  25.166  29.902   5.626
 5271POPC   GL267574  25.073  30.254   5.704
 5271POPC   C1A67575  25.303  29.800   6.065
 5271POPC   D2A67576  25.592  29.819   6.427
 5271POPC   C3A67577  25.336  29.844   6.778
 5271POPC   C4A67578  25.227  29.857   7.178
 5271POPC   C1B67579  25.137  30.317   6.156
 5271POPC   C2B67580  25.037  30.220   6.585
 5271POPC   C3B67581  24.900  30.302   7.008
 5271POPC   C4B67582  24.881  30.272   7.484
 5272POPC   NC367583  40.050  14.774   5.170
 5272POPC   PO467584  39.564  14.585   5.650
 5272POPC   GL167585  40.035  14.673   5.756
 5272POPC   GL267586  40.247  14.351   5.829
 5272POPC   C1A67587  40.248  14.757   6.158
 5272POPC   D2A67588  40.309  14.642   6.598
 5272POPC   C3A67589  40.035  14.348   6.833
 5272POPC   C4A67590  40.138  14.141   7.222
 5272POPC   C1B67591  39.980  14.307   6.208
 5272POPC   C2B67592  39.643  14.159   6.479
 5272POPC   C3B67593  39.488  14.218   6.878
 5272POPC   C4B67594  39.663  14.255   7.229
 5273POPC   NC367595  42.177   2.703   5.562
 5273POPC   PO467596  42.566   3.088   5.237
 5273POPC   GL167597  42.598   2.892   5.715
 5273POPC   GL267598  42.353   3.038   5.936
 5273POPC   C1A67599  42.389   2.611   6.153
 5273POPC   D2A67600  42.350   2.803   6.551
 5273POPC   C3A67601  42.313   2.657   6.984
 5273POPC   C4A67602  42.372   2.873   7.411
 5273POPC   C1B67603  42.740   2.988   6.175
 5273POPC   C2B67604  42.893   2.978   6.555
 5273POPC   C3B67605  42.652   3.023   6.921
 5273POPC   C4B67606  42.671   3.283   7.250
 5274POPC   NC367607  39.607  44.168   5.058
 5274POPC   PO467608  40.126  44.356   5.459
 5274POPC   GL167609  40.069  44.259   5.915
 5274POPC   GL267610  40.394  44.201   5.885
 5274POPC   C1A67611  39.883  44.444   6.319
 5274POPC   D2A67612  39.883  44.793   6.617
 5274POPC   C3A67613  39.839  44.732   7.076
 5274POPC   C4A67614  39.780  44.988   7.467
 5274POPC   C1B67615  40.397  44.426   6.284
 5274POPC   C2B67616  40.316  44.498   6.701
 5274POPC   C3B67617  40.340  44.556   7.139
 5274POPC   C4B67618  40.125  44.251   7.370
 5275POPC   NC367619   7.895   6.716   5.479
 5275POPC   PO467620   8.564   6.542   5.378
 5275POPC   GL167621   8.395   6.472   5.809
 5275POPC   GL267622   8.027   6.528   5.928
 5275POPC   C1A67623   8.427   6.701   6.203
 5275POPC   D2A67624   8.170   6.720   6.561
 5275POPC   C3A67625   8.354   6.455   6.860
 5275POPC   C4A67626   8.554   6.627   7.218
 5275POPC   C1B67627   7.722   6.588   6.280
 5275POPC   C2B67628   7.665   6.752   6.715
 5275POPC   C3B67629   7.947   6.699   7.077
 5275POPC   C4B67630   7.911   6.684   7.549
 5276POPC   NC367631  29.893  22.730   5.475
 5276POPC   PO467632  29.591  23.359   5.588
 5276POPC   GL167633  29.913  23.224   5.919
 5276POPC   GL267634  30.182  22.991   5.833
 5276POPC   C1A67635  30.060  23.052   6.312
 5276POPC   D2A67636  29.872  22.796   6.617
 5276POPC   C3A67637  29.819  23.069   6.956
 5276POPC   C4A67638  30.015  23.244   7.314
 5276POPC   C1B67639  30.285  22.625   6.154
 5276POPC   C2B67640  30.370  22.754   6.625
 5276POPC   C3B67641  30.180  22.718   7.056
 5276POPC   C4B67642  30.108  22.401   7.342
 5277POPC   NC367643   6.949  37.814   5.434
 5277POPC   PO467644   6.294  37.511   5.485
 5277POPC   GL167645   6.533  37.738   5.751
 5277POPC   GL267646   6.779  37.500   5.823
 5277POPC   C1A67647   6.517  37.846   6.195
 5277POPC   D2A67648   6.278  37.818   6.591
 5277POPC   C3A67649   6.561  37.767   6.940
 5277POPC   C4A67650   6.577  37.447   7.255
 5277POPC   C1B67651   6.956  37.525   6.268
 5277POPC   C2B67652   6.966  37.471   6.761
 5277POPC   C3B67653   7.042  37.651   7.166
 5277POPC   C4B67654   6.921  37.582   7.609
 5278POPC   NC367655  12.883  14.901   5.057
 5278POPC   PO467656  13.155  15.356   5.513
 5278POPC   GL167657  12.955  15.515   5.842
 5278POPC   GL267658  12.619  15.487   5.688
 5278POPC   C1A67659  13.086  15.388   6.254
 5278POPC   D2A67660  13.212  15.375   6.667
 5278POPC   C3A67661  13.001  15.118   6.957
 5278POPC   C4A67662  13.091  14.926   7.324
 5278POPC   C1B67663  12.580  15.374   6.159
 5278POPC   C2B67664  12.650  15.247   6.595
 5278POPC   C3B67665  12.505  15.008   6.975
 5278POPC   C4B67666  12.603  15.118   7.419
 5279POPC   NC367667  24.798  15.092   5.385
 5279POPC   PO467668  24.159  14.984   5.448
 5279POPC   GL167669  24.279  15.103   5.854
 5279POPC   GL267670  24.571  15.294   5.790
 5279POPC   C1A67671  24.249  15.441   6.176
 5279POPC   D2A67672  24.094  15.584   6.564
 5279POPC   C3A67673  24.245  15.448   6.967
 5279POPC   C4A67674  24.064  15.178   7.210
 5279POPC   C1B67675  24.674  15.181   6.201
 5279POPC   C2B67676  24.520  15.187   6.611
 5279POPC   C3B67677  24.581  15.070   7.051
 5279POPC   C4B67678  24.845  15.095   7.437
 5280POPC   NC367679   1.812  30.230   5.538
 5280POPC   PO467680   2.087  30.848   5.512
 5280POPC   GL167681   1.996  30.646   5.916
 5280POPC   GL267682   1.716  30.358   6.013
 5280POPC   C1A67683   2.020  30.582   6.366
 5280POPC   D2A67684   1.887  30.668   6.773
 5280POPC   C3A67685   1.989  30.377   7.097
 5280POPC   C4A67686   2.178  30.461   7.519
 5280POPC   C1B67687   1.552  30.735   6.149
 5280POPC   C2B67688   1.452  30.870   6.546
 5280POPC   C3B67689   1.515  30.902   7.001
 5280POPC   C4B67690   1.835  30.796   7.375
 5281POPC   NC367691  44.823  34.905   5.150
 5281POPC   PO467692  44.315  34.577   5.475
 5281POPC   GL167693  44.457  34.581   5.898
 5281POPC   GL267694  44.772  34.708   5.868
 5281POPC   C1A67695  44.410  34.370   6.300
 5281POPC   D2A67696  44.447  34.552   6.694
 5281POPC   C3A67697  44.365  34.363   7.101
 5281POPC   C4A67698  44.398  34.455   7.545
 5281POPC   C1B67699  44.760  34.752   6.330
 5281POPC   C2B67700  44.905  34.788   6.775
 5281POPC   C3B67701   0.054  34.685   7.184
 5281POPC   C4B67702   0.276  34.877   7.525
 5282POPC   NC367703  11.205   5.724   5.057
 5282POPC   PO467704  11.264   6.048   5.656
 5282POPC   GL167705  11.318   5.781   5.949
 5282POPC   GL267706  11.362   5.446   5.814
 5282POPC   C1A67707  11.235   5.995   6.317
 5282POPC   D2A67708  11.310   6.238   6.653
 5282POPC   C3A67709  11.061   6.035   6.922
 5282POPC   C4A67710  11.139   5.995   7.303
 5282POPC   C1B67711  11.127   5.414   6.232
 5282POPC   C2B67712  11.167   5.622   6.644
 5282POPC   C3B67713  11.269   5.564   7.069
 5282POPC   C4B67714  10.988   5.361   7.378
 5283POPC   NC367715  35.805  12.037   4.948
 5283POPC   PO467716  36.219  11.884   5.511
 5283POPC   GL167717  36.257  11.972   5.901
 5283POPC   GL267718  35.893  11.989   5.935
 5283POPC   C1A67719  36.215  12.188   6.283
 5283POPC   D2A67720  35.905  12.374   6.544
 5283POPC   C3A67721  36.147  12.520   6.907
 5283POPC   C4A67722  36.341  12.633   7.332
 5283POPC   C1B67723  35.784  11.894   6.364
 5283POPC   C2B67724  35.939  11.740   6.751
 5283POPC   C3B67725  36.128  11.990   7.063
 5283POPC   C4B67726  36.506  12.211   7.122
 5284POPC   NC367727  21.308  38.746   5.486
 5284POPC   PO467728  21.111  38.087   5.355
 5284POPC   GL167729  21.171  38.330   5.751
 5284POPC   GL267730  21.531  38.315   5.808
 5284POPC   C1A67731  21.275  38.578   6.165
 5284POPC   D2A67732  21.444  38.721   6.588
 5284POPC   C3A67733  21.333  38.629   7.022
 5284POPC   C4A67734  21.476  38.495   7.449
 5284POPC   C1B67735  21.481  38.118   6.221
 5284POPC   C2B67736  21.293  38.220   6.646
 5284POPC   C3B67737  21.390  38.105   7.102
 5284POPC   C4B67738  21.301  38.024   7.560
 5285POPC   NC367739  22.903  41.563   5.329
 5285POPC   PO467740  22.569  41.092   5.697
 5285POPC   GL167741  22.773  41.443   5.828
 5285POPC   GL267742  22.705  41.799   5.735
 5285POPC   C1A67743  22.877  41.453   6.246
 5285POPC   D2A67744  23.031  41.269   6.597
 5285POPC   C3A67745  22.837  41.383   6.928
 5285POPC   C4A67746  22.966  41.457   7.314
 5285POPC   C1B67747  22.748  41.927   6.171
 5285POPC   C2B67748  22.912  41.826   6.601
 5285POPC   C3B67749  22.705  41.878   6.995
 5285POPC   C4B67750  22.434  42.069   7.290
 5286POPC   NC367751  24.282   8.446   5.407
 5286POPC   PO467752  24.815   7.934   5.487
 5286POPC   GL167753  24.649   8.169   5.790
 5286POPC   GL267754  24.324   8.031   5.806
 5286POPC   C1A67755  24.731   8.350   6.196
 5286POPC   D2A67756  24.592   8.480   6.585
 5286POPC   C3A67757  24.748   8.338   6.983
 5286POPC   C4A67758  24.574   8.377   7.374
 5286POPC   C1B67759  24.231   8.166   6.209
 5286POPC   C2B67760  24.211   8.170   6.639
 5286POPC   C3B67761  24.231   8.279   7.031
 5286POPC   C4B67762  24.258   7.969   7.393
 5287POPC   NC367763   9.815  36.421   5.387
 5287POPC   PO467764   9.318  35.995   5.533
 5287POPC   GL167765   9.726  36.100   5.782
 5287POPC   GL267766   9.813  36.460   5.881
 5287POPC   C1A67767   9.913  36.088   6.217
 5287POPC   D2A67768  10.000  35.967   6.632
 5287POPC   C3A67769   9.778  36.090   6.944
 5287POPC   C4A67770   9.621  35.930   7.310
 5287POPC   C1B67771  10.024  36.623   6.227
 5287POPC   C2B67772   9.874  36.494   6.612
 5287POPC   C3B67773  10.069  36.537   6.990
 5287POPC   C4B67774   9.876  36.392   7.330
 5288POPC   NC367775  22.458  20.163   5.483
 5288POPC   PO467776  21.782  20.037   5.320
 5288POPC   GL167777  21.975  19.848   5.697
 5288POPC   GL267778  21.955  19.460   5.748
 5288POPC   C1A67779  22.255  19.803   6.055
 5288POPC   D2A67780  22.151  19.696   6.475
 5288POPC   C3A67781  22.301  19.841   6.841
 5288POPC   C4A67782  22.031  19.993   7.144
 5288POPC   C1B67783  21.801  19.451   6.187
 5288POPC   C2B67784  21.785  19.384   6.662
 5288POPC   C3B67785  21.969  19.488   7.109
 5288POPC   C4B67786  22.362  19.630   7.305
 5289POPC   NC367787   9.543   7.612   5.400
 5289POPC   PO467788  10.196   7.660   5.490
 5289POPC   GL167789   9.871   7.426   5.788
 5289POPC   GL267790   9.485   7.331   5.820
 5289POPC   C1A67791   9.884   7.263   6.212
 5289POPC   D2A67792   9.621   7.238   6.596
 5289POPC   C3A67793   9.841   7.249   7.006
 5289POPC   C4A67794   9.728   7.276   7.421
 5289POPC   C1B67795   9.534   7.649   6.114
 5289POPC   C2B67796   9.385   7.694   6.511
 5289POPC   C3B67797   9.582   7.683   6.886
 5289POPC   C4B67798   9.726   7.912   7.224
 5290POPC   NC367799  15.439   6.270   5.338
 5290POPC   PO467800  14.884   6.582   5.364
 5290POPC   GL167801  15.130   6.488   5.750
 5290POPC   GL267802  15.476   6.627   5.749
 5290POPC   C1A67803  15.223   6.616   6.203
 5290POPC   D2A67804  15.064   6.489   6.615
 5290POPC   C3A67805  15.079   6.839   6.912
 5290POPC   C4A67806  14.806   6.964   7.250
 5290POPC   C1B67807  15.629   6.340   6.065
 5290POPC   C2B67808  15.557   6.335   6.528
 5290POPC   C3B67809  15.437   6.449   6.967
 5290POPC   C4B67810  15.259   6.589   7.343
 5291POPC   NC367811  31.470  13.197   5.314
 5291POPC   PO467812  30.720  13.088   5.371
 5291POPC   GL167813  30.817  12.930   5.755
 5291POPC   GL267814  31.124  13.117   5.716
 5291POPC   C1A67815  30.665  12.730   6.173
 5291POPC   D2A67816  30.834  12.731   6.610
 5291POPC   C3A67817  30.602  12.760   7.014
 5291POPC   C4A67818  30.695  12.543   7.400
 5291POPC   C1B67819  31.103  13.002   6.171
 5291POPC   C2B67820  31.034  13.202   6.551
 5291POPC   C3B67821  31.055  13.038   6.985
 5291POPC   C4B67822  31.044  13.241   7.364
 5292POPC   NC367823  10.280   1.464   5.417
 5292POPC   PO467824  10.837   1.170   5.354
 5292POPC   GL167825  10.637   1.132   5.775
 5292POPC   GL267826  10.289   1.240   5.865
 5292POPC   C1A67827  10.596   1.063   6.242
 5292POPC   D2A67828  10.312   1.161   6.604
 5292POPC   C3A67829  10.340   1.019   7.036
 5292POPC   C4A67830  10.541   1.219   7.380
 5292POPC   C1B67831  10.562   1.550   6.080
 5292POPC   C2B67832  10.688   1.503   6.499
 5292POPC   C3B67833  10.799   1.263   6.858
 5292POPC   C4B67834  10.922   1.536   7.178
 5293POPC   NC367835  18.276  33.069   4.938
 5293POPC   PO467836  17.948  33.471   5.343
 5293POPC   GL167837  18.133  33.304   5.799
 5293POPC   GL267838  18.114  32.902   5.834
 5293POPC   C1A67839  18.109  33.155   6.263
 5293POPC   D2A67840  17.931  32.962   6.637
 5293POPC   C3A67841  18.157  33.156   6.980
 5293POPC   C4A67842  18.472  33.287   7.286
 5293POPC   C1B67843  18.152  32.644   6.257
 5293POPC   C2B67844  18.300  32.558   6.712
 5293POPC   C3B67845  18.526  32.762   7.086
 5293POPC   C4B67846  18.686  32.894   7.535
 5294POPC   NC367847  24.013  28.970   5.362
 5294POPC   PO467848  23.342  29.042   5.312
 5294POPC   GL167849  23.653  29.016   5.740
 5294POPC   GL267850  24.032  29.143   5.824
 5294POPC   C1A67851  23.677  29.270   6.167
 5294POPC   D2A67852  23.672  29.445   6.584
 5294POPC   C3A67853  23.402  29.214   6.831
 5294POPC   C4A67854  23.375  29.069   7.220
 5294POPC   C1B67855  23.945  28.841   6.135
 5294POPC   C2B67856  23.759  28.881   6.547
 5294POPC   C3B67857  23.910  29.084   6.909
 5294POPC   C4B67858  23.885  29.086   7.340
 5295POPC   NC367859  41.522  40.835   5.355
 5295POPC   PO467860  42.077  40.499   5.173
 5295POPC   GL167861  41.857  40.702   5.696
 5295POPC   GL267862  41.497  40.784   5.848
 5295POPC   C1A67863  41.868  40.741   6.194
 5295POPC   D2A67864  41.694  40.708   6.619
 5295POPC   C3A67865  41.890  40.867   7.020
 5295POPC   C4A67866  41.705  40.951   7.419
 5295POPC   C1B67867  41.297  40.604   6.212
 5295POPC   C2B67868  41.140  40.731   6.632
 5295POPC   C3B67869  41.369  40.887   6.980
 5295POPC   C4B67870  41.382  40.549   7.259
 5296POPC   NC367871  44.154  44.777   5.280
 5296POPC   PO467872  43.479  44.954   5.515
 5296POPC   GL167873  43.711  44.657   5.765
 5296POPC   GL267874  44.050  44.668   5.756
 5296POPC   C1A67875  43.910  44.383   6.124
 5296POPC   D2A67876  44.067  44.523   6.528
 5296POPC   C3A67877  43.854  44.601   6.927
 5296POPC   C4A67878  43.957  44.615   7.389
 5296POPC   C1B67879  43.919  44.891   6.168
 5296POPC   C2B67880  43.978   0.057   6.613
 5296POPC   C3B67881  44.024   0.084   7.058
 5296POPC   C4B67882  44.413   0.104   7.300
 5297POPC   NC367883  27.399  33.472   5.530
 5297POPC   PO467884  27.347  34.077   5.246
 5297POPC   GL167885  27.574  33.972   5.654
 5297POPC   GL267886  27.932  33.984   5.681
 5297POPC   C1A67887  27.589  33.759   6.086
 5297POPC   D2A67888  27.434  33.866   6.509
 5297POPC   C3A67889  27.582  33.676   6.885
 5297POPC   C4A67890  27.489  33.770   7.294
 5297POPC   C1B67891  27.992  34.037   6.193
 5297POPC   C2B67892  27.943  33.980   6.666
 5297POPC   C3B67893  27.910  34.047   7.160
 5297POPC   C4B67894  27.874  33.851   7.593
 5298POPC   NC367895  30.915  43.617   5.368
 5298POPC   PO467896  30.315  43.712   5.536
 5298POPC   GL167897  30.692  43.919   5.744
 5298POPC   GL267898  30.553  44.196   5.889
 5298POPC   C1A67899  30.900  43.914   6.165
 5298POPC   D2A67900  30.860  43.665   6.555
 5298POPC   C3A67901  30.752  43.904   6.932
 5298POPC   C4A67902  30.552  43.811   7.309
 5298POPC   C1B67903  30.281  44.123   6.233
 5298POPC   C2B67904  30.314  43.904   6.622
 5298POPC   C3B67905  30.220  44.056   7.013
 5298POPC   C4B67906  30.346  44.277   7.374
 5299POPC   NC367907  35.220  37.389   5.347
 5299POPC   PO467908  35.556  38.029   5.352
 5299POPC   GL167909  35.570  37.657   5.668
 5299POPC   GL267910  35.250  37.614   5.786
 5299POPC   C1A67911  35.578  37.349   6.068
 5299POPC   D2A67912  35.487  37.255   6.526
 5299POPC   C3A67913  35.717  37.540   6.822
 5299POPC   C4A67914  35.533  37.417   7.225
 5299POPC   C1B67915  35.158  37.700   6.167
 5299POPC   C2B67916  35.357  37.754   6.512
 5299POPC   C3B67917  35.222  37.673   6.904
 5299POPC   C4B67918  35.426  37.934   7.203
 5300POPC   NC367919  33.274  12.501   5.385
 5300POPC   PO467920  32.813  13.040   5.418
 5300POPC   GL167921  32.857  12.912   5.804
 5300POPC   GL267922  33.207  12.896   5.768
 5300POPC   C1A67923  32.882  13.106   6.207
 5300POPC   D2A67924  32.964  12.890   6.587
 5300POPC   C3A67925  32.851  12.937   7.017
 5300POPC   C4A67926  32.806  12.621   7.329
 5300POPC   C1B67927  33.331  12.818   6.176
 5300POPC   C2B67928  33.459  13.059   6.522
 5300POPC   C3B67929  33.379  12.922   6.899
 5300POPC   C4B67930  33.276  12.744   7.278
 5301POPC   NC367931  23.832  18.901   5.363
 5301POPC   PO467932  23.915  19.520   5.474
 5301POPC   GL167933  23.757  19.201   5.771
 5301POPC   GL267934  23.512  19.394   5.936
 5301POPC   C1A67935  23.645  18.874   6.108
 5301POPC   D2A67936  23.907  18.751   6.484
 5301POPC   C3A67937  23.771  18.925   6.877
 5301POPC   C4A67938  23.359  18.884   7.069
 5301POPC   C1B67939  23.849  19.330   6.257
 5301POPC   C2B67940  24.064  19.323   6.641
 5301POPC   C3B67941  23.947  19.379   7.057
 5301POPC   C4B67942  23.486  19.371   7.132
 5302POPC   NC367943  36.698  15.654   5.372
 5302POPC   PO467944  37.201  16.053   5.423
 5302POPC   GL167945  36.955  16.096   5.766
 5302POPC   GL267946  37.285  16.136   5.918
 5302POPC   C1A67947  36.895  15.916   6.162
 5302POPC   D2A67948  37.252  15.773   6.401
 5302POPC   C3A67949  37.124  15.828   6.817
 5302POPC   C4A67950  36.953  15.848   7.233
 5302POPC   C1B67951  37.185  16.349   6.278
 5302POPC   C2B67952  37.364  16.259   6.669
 5302POPC   C3B67953  37.121  16.322   7.032
 5302POPC   C4B67954  36.748  16.348   7.264
 5303POPC   NC367955   1.665  18.744   5.375
 5303POPC   PO467956   2.221  19.229   5.320
 5303POPC   GL167957   2.205  19.127   5.742
 5303POPC   GL267958   2.018  18.828   5.743
 5303POPC   C1A67959   2.017  19.273   6.123
 5303POPC   D2A67960   2.093  19.455   6.515
 5303POPC   C3A67961   1.948  19.308   6.915
 5303POPC   C4A67962   2.191  19.425   7.255
 5303POPC   C1B67963   2.179  18.785   6.156
 5303POPC   C2B67964   2.060  18.920   6.558
 5303POPC   C3B67965   2.013  18.819   6.996
 5303POPC   C4B67966   2.110  18.911   7.413
 5304POPC   NC367967   8.816  27.466   5.097
 5304POPC   PO467968   8.764  27.182   5.692
 5304POPC   GL167969   9.060  27.406   5.940
 5304POPC   GL267970   9.107  27.796   5.903
 5304POPC   C1A67971   9.020  27.485   6.360
 5304POPC   D2A67972   9.194  27.283   6.722
 5304POPC   C3A67973   9.039  27.393   7.097
 5304POPC   C4A67974   9.029  27.810   7.280
 5304POPC   C1B67975   9.122  27.998   6.306
 5304POPC   C2B67976   9.051  27.822   6.746
 5304POPC   C3B67977   8.667  27.719   6.939
 5304POPC   C4B67978   8.619  27.531   7.367
 5305POPC   NC367979  33.264  15.288   5.274
 5305POPC   PO467980  33.154  14.805   5.687
 5305POPC   GL167981  33.245  15.263   5.848
 5305POPC   GL267982  32.964  15.512   5.910
 5305POPC   C1A67983  33.296  15.391   6.297
 5305POPC   D2A67984  33.129  15.259   6.739
 5305POPC   C3A67985  33.333  14.935   7.000
 5305POPC   C4A67986  33.624  14.749   7.334
 5305POPC   C1B67987  32.792  15.274   6.289
 5305POPC   C2B67988  32.644  15.433   6.693
 5305POPC   C3B67989  32.825  15.522   7.069
 5305POPC   C4B67990  32.772  15.077   7.166
 5306POPC   NC367991  29.228   7.302   5.451
 5306POPC   PO467992  29.114   7.980   5.366
 5306POPC   GL167993  29.128   7.751   5.778
 5306POPC   GL267994  29.431   7.537   5.853
 5306POPC   C1A67995  28.971   7.724   6.218
 5306POPC   D2A67996  29.204   7.792   6.617
 5306POPC   C3A67997  29.083   7.562   6.998
 5306POPC   C4A67998  28.758   7.293   7.219
 5306POPC   C1B67999  29.371   7.444   6.270
 5306POPC   C2B68000  29.033   7.290   6.563
 5306POPC   C3B68001  29.093   7.050   6.939
 5306POPC   C4B68002  29.415   7.179   7.143
 5307POPC   NC368003  19.066  10.844   5.418
 5307POPC   PO468004  18.772  10.180   5.428
 5307POPC   GL168005  18.868  10.234   5.844
 5307POPC   GL268006  18.909  10.576   5.823
 5307POPC   C1A68007  18.979  10.207   6.276
 5307POPC   D2A68008  18.917  10.190   6.706
 5307POPC   C3A68009  19.261  10.351   6.972
 5307POPC   C4A68010  19.305  10.802   7.077
 5307POPC   C1B68011  18.830  10.686   6.230
 5307POPC   C2B68012  19.026  10.682   6.625
 5307POPC   C3B68013  18.829  10.635   7.014
 5307POPC   C4B68014  18.612  10.269   7.097
 5308POPC   NC368015  41.554  20.936   5.332
 5308POPC   PO468016  41.907  20.357   5.305
 5308POPC   GL168017  41.715  20.523   5.716
 5308POPC   GL268018  41.704  20.888   5.819
 5308POPC   C1A68019  41.565  20.421   6.147
 5308POPC   D2A68020  41.739  20.357   6.574
 5308POPC   C3A68021  41.596  20.477   6.978
 5308POPC   C4A68022  41.253  20.637   7.166
 5308POPC   C1B68023  41.806  20.857   6.267
 5308POPC   C2B68024  41.593  20.891   6.662
 5308POPC   C3B68025  41.707  20.980   7.079
 5308POPC   C4B68026  41.702  21.041   7.554
 5309POPC   NC368027   2.387  20.371   5.414
 5309POPC   PO468028   1.791  20.588   5.355
 5309POPC   GL168029   1.787  20.684   5.756
 5309POPC   GL268030   2.122  20.593   5.781
 5309POPC   C1A68031   1.760  20.657   6.197
 5309POPC   D2A68032   1.710  20.748   6.629
 5309POPC   C3A68033   1.963  20.758   6.977
 5309POPC   C4A68034   1.813  20.648   7.387
 5309POPC   C1B68035   2.168  20.334   6.126
 5309POPC   C2B68036   2.172  20.501   6.534
 5309POPC   C3B68037   2.288  20.346   6.911
 5309POPC   C4B68038   2.288  20.512   7.300
 5310POPC   NC368039  31.433  22.134   5.232
 5310POPC   PO468040  31.241  22.701   5.394
 5310POPC   GL168041  31.474  22.397   5.697
 5310POPC   GL268042  31.449  22.008   5.716
 5310POPC   C1A68043  31.428  22.403   6.171
 5310POPC   D2A68044  31.346  22.599   6.601
 5310POPC   C3A68045  31.242  22.349   6.950
 5310POPC   C4A68046  31.527  22.276   7.275
 5310POPC   C1B68047  31.498  21.898   6.147
 5310POPC   C2B68048  31.476  22.074   6.582
 5310POPC   C3B68049  31.535  21.873   6.980
 5310POPC   C4B68050  31.825  21.591   7.165
 5311POPC   NC368051  44.693  34.314   5.523
 5311POPC   PO468052  44.894  33.696   5.311
 5311POPC   GL168053  44.711  33.751   5.758
 5311POPC   GL268054  44.591  34.069   5.929
 5311POPC   C1A68055  44.749  33.732   6.241
 5311POPC   D2A68056  44.388  33.744   6.539
 5311POPC   C3A68057  44.498  33.885   6.959
 5311POPC   C4A68058  44.718  33.773   7.354
 5311POPC   C1B68059  44.899  34.259   6.229
 5311POPC   C2B68060  44.839  34.227   6.702
 5311POPC   C3B68061  44.871  34.219   7.167
 5311POPC   C4B68062  44.834  34.191   7.642
 5312POPC   NC368063  37.077  22.854   5.361
 5312POPC   PO468064  36.417  22.866   5.464
 5312POPC   GL168065  36.614  22.854   5.868
 5312POPC   GL268066  36.935  23.007   5.837
 5312POPC   C1A68067  36.603  22.793   6.337
 5312POPC   D2A68068  36.353  22.720   6.738
 5312POPC   C3A68069  36.563  22.905   7.096
 5312POPC   C4A68070  36.863  22.765   7.407
 5312POPC   C1B68071  37.192  22.971   6.206
 5312POPC   C2B68072  37.289  22.712   6.555
 5312POPC   C3B68073  37.153  22.791   6.973
 5312POPC   C4B68074  37.125  23.134   7.238
 5313POPC   NC368075  18.244  32.003   5.404
 5313POPC   PO468076  17.973  32.613   5.379
 5313POPC   GL168077  18.097  32.380   5.800
 5313POPC   GL268078  17.935  32.057   5.839
 5313POPC   C1A68079  18.495  32.284   6.106
 5313POPC   D2A68080  18.784  32.209   6.497
 5313POPC   C3A68081  18.699  32.264   6.953
 5313POPC   C4A68082  18.712  32.392   7.411
 5313POPC   C1B68083  18.065  32.121   6.292
 5313POPC   C2B68084  18.307  32.021   6.648
 5313POPC   C3B68085  18.238  32.098   7.081
 5313POPC   C4B68086  18.220  32.283   7.480
 5314POPC   NC368087   3.433   6.735   5.363
 5314POPC   PO468088   3.933   6.269   5.609
 5314POPC   GL168089   3.624   6.586   5.864
 5314POPC   GL268090   3.327   6.841   5.859
 5314POPC   C1A68091   3.644   6.865   6.268
 5314POPC   D2A68092   3.496   6.695   6.663
 5314POPC   C3A68093   3.680   6.636   7.054
 5314POPC   C4A68094   3.571   6.789   7.463
 5314POPC   C1B68095   3.140   6.769   6.289
 5314POPC   C2B68096   3.056   6.960   6.725
 5314POPC   C3B68097   3.145   6.832   7.173
 5314POPC   C4B68098   3.082   6.844   7.652
 5315POPC   NC368099  41.139  15.612   5.636
 5315POPC   PO468100  40.459  15.762   5.432
 5315POPC   GL168101  40.652  15.962   5.836
 5315POPC   GL268102  40.784  16.298   5.852
 5315POPC   C1A68103  40.541  16.097   6.266
 5315POPC   D2A68104  40.304  16.056   6.650
 5315POPC   C3A68105  40.513  15.797   6.924
 5315POPC   C4A68106  40.491  15.917   7.355
 5315POPC   C1B68107  41.051  16.167   6.224
 5315POPC   C2B68108  40.900  16.097   6.660
 5315POPC   C3B68109  40.942  15.991   7.108
 5315POPC   C4B68110  40.864  16.212   7.514
 5316POPC   NC368111  17.602  33.779   5.284
 5316POPC   PO468112  17.321  33.314   5.667
 5316POPC   GL168113  17.385  33.708   5.789
 5316POPC   GL268114  17.731  33.676   5.780
 5316POPC   C1A68115  17.393  33.820   6.223
 5316POPC   D2A68116  17.569  33.862   6.626
 5316POPC   C3A68117  17.328  33.868   7.013
 5316POPC   C4A68118  17.291  34.152   7.339
 5316POPC   C1B68119  17.837  33.570   6.197
 5316POPC   C2B68120  17.989  33.519   6.630
 5316POPC   C3B68121  17.738  33.549   6.995
 5316POPC   C4B68122  17.733  33.841   7.360
 5317POPC   NC368123  44.870  15.765   5.451
 5317POPC   PO468124  44.272  16.030   5.555
 5317POPC   GL168125  44.525  15.779   5.831
 5317POPC   GL268126  44.245  15.583   5.870
 5317POPC   C1A68127  44.772  15.801   6.232
 5317POPC   D2A68128  44.670  16.000   6.648
 5317POPC   C3A68129  44.741  15.827   7.072
 5317POPC   C4A68130  44.772  16.094   7.467
 5317POPC   C1B68131  44.252  15.759   6.308
 5317POPC   C2B68132  44.219  15.739   6.754
 5317POPC   C3B68133  44.222  15.805   7.177
 5317POPC   C4B68134  44.470  15.664   7.513
 5318POPC   NC368135   9.897  19.364   5.546
 5318POPC   PO468136   9.922  19.954   5.457
 5318POPC   GL168137   9.903  20.068   5.862
 5318POPC   GL268138  10.141  20.328   5.887
 5318POPC   C1A68139   9.769  19.872   6.252
 5318POPC   D2A68140   9.500  20.037   6.610
 5318POPC   C3A68141   9.594  19.846   6.996
 5318POPC   C4A68142  10.023  19.831   7.147
 5318POPC   C1B68143  10.134  20.261   6.292
 5318POPC   C2B68144  10.052  20.036   6.644
 5318POPC   C3B68145  10.300  20.192   6.913
 5318POPC   C4B68146  10.357  20.225   7.311
 5319POPC   NC368147  31.803   0.176   5.375
 5319POPC   PO468148  31.482   0.796   5.251
 5319POPC   GL168149  31.550   0.564   5.657
 5319POPC   GL268150  31.756   0.806   5.819
 5319POPC   C1A68151  31.657   0.321   6.071
 5319POPC   D2A68152  31.812   0.356   6.537
 5319POPC   C3A68153  31.575   0.242   6.931
 5319POPC   C4A68154  31.729   0.254   7.368
 5319POPC   C1B68155  31.645   0.790   6.275
 5319POPC   C2B68156  31.432   0.662   6.671
 5319POPC   C3B68157  31.515   0.720   7.118
 5319POPC   C4B68158  31.341   0.986   7.442
 5320POPC   NC368159  35.733  40.776   5.254
 5320POPC   PO468160  36.393  41.006   5.353
 5320POPC   GL168161  36.048  40.790   5.691
 5320POPC   GL268162  35.766  40.987   5.771
 5320POPC   C1A68163  35.900  40.575   6.109
 5320POPC   D2A68164  35.827  40.390   6.530
 5320POPC   C3A68165  35.846  40.636   6.909
 5320POPC   C4A68166  36.258  40.742   7.012
 5320POPC   C1B68167  36.025  41.077   6.150
 5320POPC   C2B68168  36.055  41.000   6.600
 5320POPC   C3B68169  35.995  41.193   7.027
 5320POPC   C4B68170  36.203  41.088   7.417
 5321POPC   NC368171  12.328   5.131   5.381
 5321POPC   PO468172  11.693   5.381   5.423
 5321POPC   GL168173  11.879   5.057   5.754
 5321POPC   GL268174  12.207   4.839   5.805
 5321POPC   C1A68175  11.970   5.079   6.204
 5321POPC   D2A68176  11.994   5.308   6.589
 5321POPC   C3A68177  11.846   5.050   6.902
 5321POPC   C4A68178  11.996   4.931   7.282
 5321POPC   C1B68179  12.439   4.878   6.182
 5321POPC   C2B68180  12.266   4.876   6.597
 5321POPC   C3B68181  12.356   5.112   6.946
 5321POPC   C4B68182  12.604   5.019   7.254
 5322POPC   NC368183  39.662  42.408   5.164
 5322POPC   PO468184  40.130  42.523   5.688
 5322POPC   GL168185  39.947  42.228   5.904
 5322POPC   GL268186  39.641  42.128   5.729
 5322POPC   C1A68187  39.943  42.240   6.355
 5322POPC   D2A68188  40.006  42.415   6.765
 5322POPC   C3A68189  40.329  42.511   7.072
 5322POPC   C4A68190  40.169  42.469   7.515
 5322POPC   C1B68191  39.643  41.864   6.101
 5322POPC   C2B68192  39.552  41.909   6.548
 5322POPC   C3B68193  39.858  41.945   6.898
 5322POPC   C4B68194  39.849  41.875   7.332
 5323POPC   NC368195  10.729   6.254   5.399
 5323POPC   PO468196  10.172   6.660   5.464
 5323POPC   GL168197  10.459   6.522   5.798
 5323POPC   GL268198  10.406   6.865   5.890
 5323POPC   C1A68199  10.635   6.614   6.249
 5323POPC   D2A68200  10.597   6.972   6.578
 5323POPC   C3A68201  10.631   6.763   7.009
 5323POPC   C4A68202  10.635   6.294   7.109
 5323POPC   C1B68203  10.174   6.808   6.301
 5323POPC   C2B68204  10.276   6.550   6.690
 5323POPC   C3B68205  10.164   6.557   7.147
 5323POPC   C4B68206  10.312   6.446   7.558
 5324POPC   NC368207  23.705   3.912   5.358
 5324POPC   PO468208  23.229   3.416   5.154
 5324POPC   GL168209  23.506   3.406   5.598
 5324POPC   GL268210  23.741   3.653   5.780
 5324POPC   C1A68211  23.643   3.241   6.051
 5324POPC   D2A68212  23.892   3.231   6.453
 5324POPC   C3A68213  23.968   3.435   6.874
 5324POPC   C4A68214  23.705   3.223   7.184
 5324POPC   C1B68215  23.615   3.861   6.171
 5324POPC   C2B68216  23.673   3.801   6.623
 5324POPC   C3B68217  23.554   3.680   7.048
 5324POPC   C4B68218  23.830   3.690   7.413
 5325POPC   NC368219  10.006   5.749   5.368
 5325POPC   PO468220   9.534   5.582   5.805
 5325POPC   GL168221   9.721   6.003   5.787
 5325POPC   GL268222  10.000   6.256   5.810
 5325POPC   C1A68223   9.868   5.963   6.224
 5325POPC   D2A68224   9.687   5.875   6.639
 5325POPC   C3A68225   9.723   5.767   7.084
 5325POPC   C4A68226   9.380   5.549   7.245
 5325POPC   C1B68227  10.254   6.274   6.203
 5325POPC   C2B68228  10.221   6.030   6.585
 5325POPC   C3B68229  10.208   6.049   7.013
 5325POPC   C4B68230   9.982   6.100   7.386
 5326POPC   NC368231  21.584  25.915   5.257
 5326POPC   PO468232  21.334  26.585   5.461
 5326POPC   GL168233  21.356  26.228   5.741
 5326POPC   GL268234  21.665  26.100   5.888
 5326POPC   C1A68235  21.280  26.215   6.205
 5326POPC   D2A68236  21.098  26.288   6.609
 5326POPC   C3A68237  21.384  26.203   6.941
 5326POPC   C4A68238  21.353  26.052   7.362
 5326POPC   C1B68239  21.674  25.866   6.288
 5326POPC   C2B68240  21.368  25.795   6.621
 5326POPC   C3B68241  21.413  25.665   7.049
 5326POPC   C4B68242  21.767  25.764   7.324
 5327POPC   NC368243   6.973   5.589   5.076
 5327POPC   PO468244   6.817   6.049   5.596
 5327POPC   GL168245   6.618   5.961   5.962
 5327POPC   GL268246   6.585   5.628   6.012
 5327POPC   C1A68247   6.474   5.924   6.395
 5327POPC   D2A68248   6.817   6.118   6.622
 5327POPC   C3A68249   6.921   5.909   6.983
 5327POPC   C4A68250   6.589   5.872   7.258
 5327POPC   C1B68251   6.836   5.579   6.423
 5327POPC   C2B68252   6.696   5.401   6.825
 5327POPC   C3B68253   6.464   5.397   7.228
 5327POPC   C4B68254   6.623   5.490   7.667
 5328POPC   NC368255  29.566  20.194   5.115
 5328POPC   PO468256  29.048  20.614   5.431
 5328POPC   GL168257  28.899  20.553   5.884
 5328POPC   GL268258  29.206  20.468   6.029
 5328POPC   C1A68259  28.906  20.578   6.386
 5328POPC   D2A68260  29.272  20.668   6.614
 5328POPC   C3A68261  29.168  20.771   7.010
 5328POPC   C4A68262  28.779  20.611   7.160
 5328POPC   C1B68263  29.559  20.688   6.182
 5328POPC   C2B68264  29.788  20.628   6.548
 5328POPC   C3B68265  29.646  20.486   6.959
 5328POPC   C4B68266  29.453  20.537   7.362
 5329POPC   NC368267  18.302   6.606   5.412
 5329POPC   PO468268  18.319   7.204   5.258
 5329POPC   GL168269  18.305   7.074   5.719
 5329POPC   GL268270  18.411   6.730   5.896
 5329POPC   C1A68271  18.174   7.084   6.177
 5329POPC   D2A68272  18.197   6.766   6.509
 5329POPC   C3A68273  18.533   6.719   6.834
 5329POPC   C4A68274  18.393   6.852   7.246
 5329POPC   C1B68275  18.139   6.404   6.142
 5329POPC   C2B68276  17.975   6.314   6.592
 5329POPC   C3B68277  18.139   6.442   7.033
 5329POPC   C4B68278  18.246   6.419   7.499
 5330POPC   NC368279   3.772  27.855   5.605
 5330POPC   PO468280   3.293  28.266   5.247
 5330POPC   GL168281   3.318  28.395   5.736
 5330POPC   GL268282   3.634  28.256   5.900
 5330POPC   C1A68283   3.352  28.591   6.160
 5330POPC   D2A68284   3.230  28.469   6.589
 5330POPC   C3A68285   3.407  28.675   6.968
 5330POPC   C4A68286   3.491  28.625   7.426
 5330POPC   C1B68287   3.992  28.138   6.178
 5330POPC   C2B68288   3.938  27.979   6.579
 5330POPC   C3B68289   3.642  28.200   6.810
 5330POPC   C4B68290   3.441  28.183   7.174
 5331POPC   NC368291   8.574  11.485   5.286
 5331POPC   PO468292   8.136  10.989   5.361
 5331POPC   GL168293   8.281  10.991   5.781
 5331POPC   GL268294   8.298  11.326   5.775
 5331POPC   C1A68295   8.415  11.110   6.228
 5331POPC   D2A68296   8.205  11.321   6.591
 5331POPC   C3A68297   8.203  11.143   6.994
 5331POPC   C4A68298   7.952  11.231   7.327
 5331POPC   C1B68299   8.239  11.599   6.159
 5331POPC   C2B68300   8.459  11.773   6.549
 5331POPC   C3B68301   8.459  11.606   6.985
 5331POPC   C4B68302   8.303  11.601   7.400
 5332POPC   NC368303  21.064   9.457   5.447
 5332POPC   PO468304  21.278  10.008   5.149
 5332POPC   GL168305  21.344   9.844   5.638
 5332POPC   GL268306  21.638   9.621   5.770
 5332POPC   C1A68307  21.421   9.957   6.094
 5332POPC   D2A68308  21.628  10.092   6.484
 5332POPC   C3A68309  21.422  10.035   6.877
 5332POPC   C4A68310  21.566   9.940   7.307
 5332POPC   C1B68311  21.348   9.450   6.108
 5332POPC   C2B68312  21.352   9.373   6.564
 5332POPC   C3B68313  21.462   9.520   6.983
 5332POPC   C4B68314  21.404   9.458   7.428
 5333POPC   NC368315  42.282  44.487   5.229
 5333POPC   PO468316  42.544   0.067   5.469
 5333POPC   GL168317  42.268  44.873   5.797
 5333POPC   GL268318  42.410  44.541   5.891
 5333POPC   C1A68319  42.279  44.813   6.280
 5333POPC   D2A68320  42.605  44.815   6.592
 5333POPC   C3A68321  42.431  44.695   6.989
 5333POPC   C4A68322  42.020  44.779   7.111
 5333POPC   C1B68323  42.568  44.336   6.338
 5333POPC   C2B68324  42.675  44.272   6.820
 5333POPC   C3B68325  42.536  44.294   7.307
 5333POPC   C4B68326  42.603  44.359   7.786
 5334POPC   NC368327  13.729  27.918   5.478
 5334POPC   PO468328  13.157  27.588   5.520
 5334POPC   GL168329  13.498  27.615   5.825
 5334POPC   GL268330  13.762  27.410   5.659
 5334POPC   C1A68331  13.705  27.807   6.175
 5334POPC   D2A68332  13.833  27.930   6.588
 5334POPC   C3A68333  14.018  27.686   6.828
 5334POPC   C4A68334  13.797  27.708   7.169
 5334POPC   C1B68335  13.811  27.278   6.103
 5334POPC   C2B68336  13.713  27.377   6.538
 5334POPC   C3B68337  13.792  27.240   6.966
 5334POPC   C4B68338  13.993  27.269   7.369
 5335POPC   NC368339   6.943   5.580   5.641
 5335POPC   PO468340   7.200   5.977   5.123
 5335POPC   GL168341   7.385   5.919   5.596
 5335POPC   GL268342   7.533   5.567   5.697
 5335POPC   C1A68343   7.464   5.928   6.084
 5335POPC   D2A68344   7.257   5.863   6.518
 5335POPC   C3A68345   7.442   5.853   6.939
 5335POPC   C4A68346   7.393   6.046   7.338
 5335POPC   C1B68347   7.797   5.531   6.087
 5335POPC   C2B68348   7.799   5.771   6.500
 5335POPC   C3B68349   7.890   5.608   6.931
 5335POPC   C4B68350   7.917   5.753   7.345
 5336POPC   NC368351  34.897  14.953   5.050
 5336POPC   PO468352  34.740  15.269   5.555
 5336POPC   GL168353  34.741  15.050   5.895
 5336POPC   GL268354  34.962  14.788   5.886
 5336POPC   C1A68355  34.618  15.216   6.265
 5336POPC   D2A68356  34.337  15.296   6.549
 5336POPC   C3A68357  34.578  15.373   6.894
 5336POPC   C4A68358  34.332  15.419   7.216
 5336POPC   C1B68359  34.721  14.730   6.286
 5336POPC   C2B68360  34.652  14.860   6.714
 5336POPC   C3B68361  34.584  14.899   7.168
 5336POPC   C4B68362  34.861  14.859   7.519
 5337POPC   NC368363  11.327  29.936   5.466
 5337POPC   PO468364  11.885  29.565   5.390
 5337POPC   GL168365  11.770  29.888   5.727
 5337POPC   GL268366  11.489  29.691   5.894
 5337POPC   C1A68367  11.653  30.115   6.128
 5337POPC   D2A68368  11.353  30.037   6.479
 5337POPC   C3A68369  11.490  30.120   6.913
 5337POPC   C4A68370  11.632  29.834   7.259
 5337POPC   C1B68371  11.197  29.516   6.199
 5337POPC   C2B68372  11.034  29.614   6.561
 5337POPC   C3B68373  11.236  29.678   6.925
 5337POPC   C4B68374  11.040  29.718   7.288
 5338POPC   NC368375  11.065  25.086   5.255
 5338POPC   PO468376  11.696  25.353   5.480
 5338POPC   GL168377  11.366  25.205   5.747
 5338POPC   GL268378  11.070  24.991   5.745
 5338POPC   C1A68379  11.317  25.292   6.181
 5338POPC   D2A68380  11.292  25.617   6.492
 5338POPC   C3A68381  11.193  25.490   6.907
 5338POPC   C4A68382  11.441  25.446   7.277
 5338POPC   C1B68383  10.930  24.951   6.170
 5338POPC   C2B68384  11.082  25.057   6.609
 5338POPC   C3B68385  11.031  25.015   7.070
 5338POPC   C4B68386  11.175  25.021   7.495
 5339POPC   NC368387   1.057  30.175   5.341
 5339POPC   PO468388   1.688  29.767   5.457
 5339POPC   GL168389   1.412  29.997   5.761
 5339POPC   GL268390   1.090  29.853   5.741
 5339POPC   C1A68391   1.405  29.916   6.217
 5339POPC   D2A68392   1.197  29.887   6.642
 5339POPC   C3A68393   1.370  30.051   7.044
 5339POPC   C4A68394   1.476  30.441   7.286
 5339POPC   C1B68395   0.906  29.945   6.129
 5339POPC   C2B68396   0.729  29.742   6.499
 5339POPC   C3B68397   0.787  29.634   6.913
 5339POPC   C4B68398   0.972  29.738   7.279
 5340POPC   NC368399  15.648  25.266   5.417
 5340POPC   PO468400  16.269  25.124   5.521
 5340POPC   GL168401  15.979  25.163   5.845
 5340POPC   GL268402  15.696  24.956   5.832
 5340POPC   C1A68403  16.022  25.070   6.283
 5340POPC   D2A68404  16.045  25.266   6.679
 5340POPC   C3A68405  16.194  25.085   7.064
 5340POPC   C4A68406  16.191  25.502   7.217
 5340POPC   C1B68407  15.510  25.121   6.233
 5340POPC   C2B68408  15.548  25.156   6.718
 5340POPC   C3B68409  15.717  25.264   7.150
 5340POPC   C4B68410  15.886  25.184   7.598
 5341POPC   NC368411  19.474  21.418   5.090
 5341POPC   PO468412  19.399  21.691   5.672
 5341POPC   GL168413  19.612  21.336   5.936
 5341POPC   GL268414  19.948  21.249   5.790
 5341POPC   C1A68415  19.602  21.267   6.394
 5341POPC   D2A68416  19.787  21.569   6.680
 5341POPC   C3A68417  19.682  21.454   7.088
 5341POPC   C4A68418  19.594  21.520   7.521
 5341POPC   C1B68419  20.098  21.318   6.229
 5341POPC   C2B68420  20.066  21.120   6.643
 5341POPC   C3B68421  20.128  21.187   7.086
 5341POPC   C4B68422  19.870  21.108   7.424
 5342POPC   NC368423   5.449  37.656   5.396
 5342POPC   PO468424   4.783  37.749   5.462
 5342POPC   GL168425   4.961  37.572   5.812
 5342POPC   GL268426   5.213  37.326   5.754
 5342POPC   C1A68427   5.278  37.675   6.151
 5342POPC   D2A68428   5.192  37.918   6.554
 5342POPC   C3A68429   5.222  37.892   7.004
 5342POPC   C4A68430   4.853  37.838   7.273
 5342POPC   C1B68431   5.020  37.249   6.190
 5342POPC   C2B68432   5.189  37.395   6.587
 5342POPC   C3B68433   4.999  37.422   6.969
 5342POPC   C4B68434   4.828  37.307   7.338
 5343POPC   NC368435  25.025  13.943   5.492
 5343POPC   PO468436  25.534  13.693   5.481
 5343POPC   GL168437  25.274  13.561   5.866
 5343POPC   GL268438  25.156  13.216   5.899
 5343POPC   C1A68439  25.016  13.529   6.270
 5343POPC   D2A68440  25.122  13.351   6.695
 5343POPC   C3A68441  24.883  13.473   7.057
 5343POPC   C4A68442  24.946  13.542   7.501
 5343POPC   C1B68443  25.417  13.195   6.287
 5343POPC   C2B68444  25.669  13.382   6.642
 5343POPC   C3B68445  25.543  13.503   7.097
 5343POPC   C4B68446  25.486  13.585   7.554
 5344POPC   NC368447  43.526  27.744   5.501
 5344POPC   PO468448  43.321  27.128   5.515
 5344POPC   GL168449  43.102  27.422   5.802
 5344POPC   GL268450  43.435  27.448   5.915
 5344POPC   C1A68451  43.108  27.726   6.177
 5344POPC   D2A68452  43.386  27.771   6.510
 5344POPC   C3A68453  43.258  27.818   6.926
 5344POPC   C4A68454  42.881  27.669   7.065
 5344POPC   C1B68455  43.327  27.269   6.312
 5344POPC   C2B68456  43.174  27.336   6.733
 5344POPC   C3B68457  43.311  27.346   7.155
 5344POPC   C4B68458  43.467  27.300   7.613
 5345POPC   NC368459  12.861   8.522   5.090
 5345POPC   PO468460  12.894   7.917   5.292
 5345POPC   GL168461  12.908   8.056   5.728
 5345POPC   GL268462  12.740   8.394   5.673
 5345POPC   C1A68463  13.047   7.945   6.172
 5345POPC   D2A68464  13.045   8.160   6.594
 5345POPC   C3A68465  12.982   7.956   7.017
 5345POPC   C4A68466  12.728   7.921   7.434
 5345POPC   C1B68467  12.826   8.428   6.127
 5345POPC   C2B68468  12.733   8.570   6.543
 5345POPC   C3B68469  12.916   8.496   6.955
 5345POPC   C4B68470  12.649   8.603   7.297
 5346POPC   NC368471  34.033  19.812   5.223
 5346POPC   PO468472  34.635  19.763   5.371
 5346POPC   GL168473  34.572  19.966   5.772
 5346POPC   GL268474  34.200  20.077   5.725
 5346POPC   C1A68475  34.710  20.012   6.211
 5346POPC   D2A68476  34.750  19.675   6.522
 5346POPC   C3A68477  34.577  19.740   6.923
 5346POPC   C4A68478  34.544  19.481   7.256
 5346POPC   C1B68479  34.218  19.833   6.120
 5346POPC   C2B68480  34.253  19.905   6.559
 5346POPC   C3B68481  34.071  19.815   6.982
 5346POPC   C4B68482  34.285  19.898   7.361
 5347POPC   NC368483  22.884   7.738   5.511
 5347POPC   PO468484  23.316   8.129   5.121
 5347POPC   GL168485  23.205   8.147   5.633
 5347POPC   GL268486  22.873   8.134   5.848
 5347POPC   C1A68487  23.267   8.024   6.127
 5347POPC   D2A68488  23.338   8.203   6.559
 5347POPC   C3A68489  23.134   8.173   6.983
 5347POPC   C4A68490  22.721   8.284   7.192
 5347POPC   C1B68491  22.673   8.407   6.195
 5347POPC   C2B68492  22.759   8.375   6.640
 5347POPC   C3B68493  22.704   7.966   6.801
 5347POPC   C4B68494  22.618   7.771   7.190
 5348POPC   NC368495  16.419  16.770   5.265
 5348POPC   PO468496  16.769  17.079   5.614
 5348POPC   GL168497  16.374  17.071   5.854
 5348POPC   GL268498  16.242  16.729   5.827
 5348POPC   C1A68499  16.388  17.042   6.330
 5348POPC   D2A68500  16.706  17.000   6.636
 5348POPC   C3A68501  16.616  16.946   7.078
 5348POPC   C4A68502  16.995  16.839   7.287
 5348POPC   C1B68503  16.421  16.554   6.243
 5348POPC   C2B68504  16.434  16.579   6.722
 5348POPC   C3B68505  16.718  16.439   7.096
 5348POPC   C4B68506  16.656  16.183   7.481
 5349POPC   NC368507  28.739  28.397   5.525
 5349POPC   PO468508  28.100  28.656   5.410
 5349POPC   GL168509  28.282  28.520   5.801
 5349POPC   GL268510  28.204  28.194   5.943
 5349POPC   C1A68511  28.292  28.591   6.252
 5349POPC   D2A68512  28.120  28.404   6.597
 5349POPC   C3A68513  28.192  28.679   6.931
 5349POPC   C4A68514  28.377  28.620   7.301
 5349POPC   C1B68515  28.609  28.230   6.128
 5349POPC   C2B68516  28.649  28.183   6.544
 5349POPC   C3B68517  28.550  28.291   6.945
 5349POPC   C4B68518  28.596  28.147   7.371
 5350POPC   NC368519  41.735   4.556   5.485
 5350POPC   PO468520  42.283   4.086   5.209
 5350POPC   GL168521  42.427   4.322   5.601
 5350POPC   GL268522  42.177   4.546   5.753
 5350POPC   C1A68523  42.397   4.216   6.077
 5350POPC   D2A68524  42.526   4.273   6.527
 5350POPC   C3A68525  42.405   4.103   6.936
 5350POPC   C4A68526  42.394   4.224   7.361
 5350POPC   C1B68527  42.344   4.727   6.164
 5350POPC   C2B68528  42.377   4.780   6.622
 5350POPC   C3B68529  42.267   4.618   7.021
 5350POPC   C4B68530  42.165   4.681   7.457
 5351POPC   NC368531  35.308   1.094   4.975
 5351POPC   PO468532  35.256   0.617   5.379
 5351POPC   GL168533  35.229   0.753   5.859
 5351POPC   GL268534  35.105   1.077   5.917
 5351POPC   C1A68535  35.248   0.847   6.346
 5351POPC   D2A68536  35.206   1.022   6.791
 5351POPC   C3A68537  35.491   1.308   7.049
 5351POPC   C4A68538  35.416   1.452   7.469
 5351POPC   C1B68539  35.045   1.344   6.325
 5351POPC   C2B68540  35.106   1.529   6.762
 5351POPC   C3B68541  34.988   1.339   7.156
 5351POPC   C4B68542  34.960   1.226   7.578
 5352POPC   NC368543   4.827  21.526   5.037
 5352POPC   PO468544   5.411  21.512   5.435
 5352POPC   GL168545   5.419  21.382   5.866
 5352POPC   GL268546   5.696  21.205   5.874
 5352POPC   C1A68547   5.219  21.411   6.282
 5352POPC   D2A68548   5.222  21.618   6.663
 5352POPC   C3A68549   5.081  21.394   6.974
 5352POPC   C4A68550   4.754  21.517   7.216
 5352POPC   C1B68551   5.554  21.036   6.280
 5352POPC   C2B68552   5.322  21.017   6.676
 5352POPC   C3B68553   5.493  21.120   7.120
 5352POPC   C4B68554   5.493  21.118   7.637
 5353POPC   NC368555   8.176  36.348   5.295
 5353POPC   PO468556   8.399  35.687   5.289
 5353POPC   GL168557   8.238  35.867   5.692
 5353POPC   GL268558   7.876  35.771   5.697
 5353POPC   C1A68559   8.287  35.773   6.171
 5353POPC   D2A68560   8.385  35.898   6.646
 5353POPC   C3A68561   8.256  36.283   6.827
 5353POPC   C4A68562   8.100  36.350   7.228
 5353POPC   C1B68563   7.728  35.689   6.119
 5353POPC   C2B68564   7.910  35.690   6.528
 5353POPC   C3B68565   7.937  35.867   6.933
 5353POPC   C4B68566   8.278  35.856   7.181
 5354POPC   NC368567  43.517   3.496   5.453
 5354POPC   PO468568  42.957   3.812   5.308
 5354POPC   GL168569  42.927   3.586   5.701
 5354POPC   GL268570  43.244   3.748   5.811
 5354POPC   C1A68571  43.100   3.340   6.088
 5354POPC   D2A68572  43.269   3.368   6.523
 5354POPC   C3A68573  43.109   3.288   6.939
 5354POPC   C4A68574  43.200   3.182   7.360
 5354POPC   C1B68575  43.297   3.808   6.255
 5354POPC   C2B68576  43.284   3.864   6.719
 5354POPC   C3B68577  43.488   3.689   7.061
 5354POPC   C4B68578  43.465   3.630   7.509
 5355POPC   NC368579  40.340  30.745   5.372
 5355POPC   PO468580  39.835  31.073   5.213
 5355POPC   GL168581  39.898  30.807   5.640
 5355POPC   GL268582  40.152  30.969   5.799
 5355POPC   C1A68583  39.886  30.638   6.114
 5355POPC   D2A68584  39.903  30.790   6.576
 5355POPC   C3A68585  39.973  30.491   6.921
 5355POPC   C4A68586  39.828  30.224   7.245
 5355POPC   C1B68587  40.308  30.911   6.231
 5355POPC   C2B68588  40.506  30.911   6.651
 5355POPC   C3B68589  40.367  30.803   7.058
 5355POPC   C4B68590  39.964  30.925   7.185
 5356POPC   NC368591  19.755  20.392   5.353
 5356POPC   PO468592  19.740  21.060   5.280
 5356POPC   GL168593  19.690  20.824   5.708
 5356POPC   GL268594  19.455  20.559   5.764
 5356POPC   C1A68595  19.821  20.868   6.170
 5356POPC   D2A68596  20.005  20.579   6.524
 5356POPC   C3A68597  20.007  20.704   6.963
 5356POPC   C4A68598  19.696  20.650   7.327
 5356POPC   C1B68599  19.688  20.377   6.139
 5356POPC   C2B68600  19.662  20.191   6.538
 5356POPC   C3B68601  19.718  20.296   6.932
 5356POPC   C4B68602  19.656  20.153   7.326
 5357POPC   NC368603  31.403  42.627   5.555
 5357POPC   PO468604  31.461  41.904   5.349
 5357POPC   GL168605  31.464  42.158   5.762
 5357POPC   GL268606  31.732  42.373   5.859
 5357POPC   C1A68607  31.556  42.063   6.225
 5357POPC   D2A68608  31.259  42.163   6.580
 5357POPC   C3A68609  31.418  42.320   6.978
 5357POPC   C4A68610  31.548  42.393   7.408
 5357POPC   C1B68611  31.399  42.546   6.230
 5357POPC   C2B68612  31.215  42.698   6.681
 5357POPC   C3B68613  31.143  42.699   7.175
 5357POPC   C4B68614  31.143  42.657   7.657
 5358POPC   NC368615  25.942  36.675   5.324
 5358POPC   PO468616  26.517  36.988   5.249
 5358POPC   GL168617  26.218  37.043   5.608
 5358POPC   GL268618  26.288  37.308   5.873
 5358POPC   C1A68619  25.935  36.945   5.963
 5358POPC   D2A68620  26.065  37.022   6.407
 5358POPC   C3A68621  25.978  36.811   6.797
 5358POPC   C4A68622  26.113  36.705   7.219
 5358POPC   C1B68623  25.909  37.416   6.115
 5358POPC   C2B68624  25.647  37.332   6.413
 5358POPC   C3B68625  25.781  37.285   6.809
 5358POPC   C4B68626  25.927  37.170   7.188
 5359POPC   NC368627   3.777   5.829   5.611
 5359POPC   PO468628   3.264   5.629   5.231
 5359POPC   GL168629   3.300   5.974   5.672
 5359POPC   GL268630   3.507   5.851   6.034
 5359POPC   C1A68631   3.276   6.282   6.051
 5359POPC   D2A68632   3.573   6.230   6.417
 5359POPC   C3A68633   3.394   6.175   6.855
 5359POPC   C4A68634   3.355   6.320   7.304
 5359POPC   C1B68635   3.516   5.541   6.387
 5359POPC   C2B68636   3.283   5.566   6.769
 5359POPC   C3B68637   3.448   5.739   7.167
 5359POPC   C4B68638   3.843   5.580   7.371
 5360POPC   NC368639   3.239  12.356   5.069
 5360POPC   PO468640   3.622  12.872   5.293
 5360POPC   GL168641   3.436  12.874   5.694
 5360POPC   GL268642   3.766  12.819   5.813
 5360POPC   C1A68643   3.281  12.680   6.095
 5360POPC   D2A68644   3.425  12.601   6.534
 5360POPC   C3A68645   3.235  12.681   6.943
 5360POPC   C4A68646   3.384  12.978   7.222
 5360POPC   C1B68647   3.787  12.751   6.225
 5360POPC   C2B68648   3.897  12.911   6.612
 5360POPC   C3B68649   3.863  12.910   7.051
 5360POPC   C4B68650   3.805  13.241   7.352
 5361POPC   NC368651  42.000  10.736   5.411
 5361POPC   PO468652  41.743  10.149   5.196
 5361POPC   GL168653  41.624  10.364   5.677
 5361POPC   GL268654  41.374  10.640   5.661
 5361POPC   C1A68655  41.816  10.441   6.165
 5361POPC   D2A68656  41.875  10.638   6.614
 5361POPC   C3A68657  41.553  10.722   6.910
 5361POPC   C4A68658  41.529  10.499   7.315
 5361POPC   C1B68659  41.361  10.704   6.118
 5361POPC   C2B68660  41.411  10.431   6.491
 5361POPC   C3B68661  41.246  10.297   6.888
 5361POPC   C4B68662  41.078  10.642   7.139
 5362POPC   NC368663  36.862   6.793   5.092
 5362POPC   PO468664  36.909   7.516   5.155
 5362POPC   GL168665  36.785   7.455   5.581
 5362POPC   GL268666  37.110   7.498   5.700
 5362POPC   C1A68667  36.693   7.279   6.027
 5362POPC   D2A68668  36.684   7.323   6.506
 5362POPC   C3A68669  36.773   7.115   6.907
 5362POPC   C4A68670  36.732   7.124   7.351
 5362POPC   C1B68671  36.934   7.720   6.028
 5362POPC   C2B68672  37.048   7.691   6.431
 5362POPC   C3B68673  36.842   7.688   6.821
 5362POPC   C4B68674  36.870   7.585   7.215
 5363POPC   NC368675  12.373  22.289   5.255
 5363POPC   PO468676  11.750  22.108   5.474
 5363POPC   GL168677  12.084  22.274   5.705
 5363POPC   GL268678  12.271  22.005   5.682
 5363POPC   C1A68679  12.206  22.346   6.132
 5363POPC   D2A68680  11.913  22.234   6.499
 5363POPC   C3A68681  12.037  22.276   6.942
 5363POPC   C4A68682  12.328  22.065   7.208
 5363POPC   C1B68683  12.005  21.895   6.059
 5363POPC   C2B68684  12.148  21.782   6.430
 5363POPC   C3B68685  12.148  21.747   6.868
 5363POPC   C4B68686  11.868  21.815   7.246
 5364POPC   NC368687   0.013  39.728   5.597
 5364POPC   PO468688   0.760  39.711   5.536
 5364POPC   GL168689   0.457  39.974   5.775
 5364POPC   GL268690   0.608  40.253   5.942
 5364POPC   C1A68691   0.266  39.971   6.204
 5364POPC   D2A68692   0.307  40.191   6.609
 5364POPC   C3A68693   0.254  39.987   6.996
 5364POPC   C4A68694   0.574  39.928   7.316
 5364POPC   C1B68695   0.662  40.461   6.315
 5364POPC   C2B68696   0.596  40.614   6.714
 5364POPC   C3B68697   0.622  40.383   7.087
 5364POPC   C4B68698   0.666  40.395   7.554
 5365POPC   NC368699  15.019  17.730   5.415
 5365POPC   PO468700  15.324  17.141   5.350
 5365POPC   GL168701  15.081  17.210   5.735
 5365POPC   GL268702  15.205  17.538   5.824
 5365POPC   C1A68703  14.981  17.288   6.199
 5365POPC   D2A68704  15.102  17.485   6.581
 5365POPC   C3A68705  15.081  17.322   6.991
 5365POPC   C4A68706  14.984  17.544   7.358
 5365POPC   C1B68707  15.380  17.689   6.189
 5365POPC   C2B68708  15.480  17.836   6.598
 5365POPC   C3B68709  15.261  17.881   6.984
 5365POPC   C4B68710  15.464  18.044   7.353
 5366POPC   NC368711  37.764  30.806   5.369
 5366POPC   PO468712  37.402  30.206   5.575
 5366POPC   GL168713  37.656  30.532   5.804
 5366POPC   GL268714  37.703  30.920   5.847
 5366POPC   C1A68715  37.896  30.577   6.193
 5366POPC   D2A68716  38.019  30.717   6.625
 5366POPC   C3A68717  38.019  30.515   7.039
 5366POPC   C4A68718  37.722  30.525   7.394
 5366POPC   C1B68719  37.892  31.084   6.244
 5366POPC   C2B68720  37.926  31.226   6.698
 5366POPC   C3B68721  37.779  31.002   7.074
 5366POPC   C4B68722  37.609  31.016   7.526
 5367POPC   NC368723   0.879  18.465   5.022
 5367POPC   PO468724   1.340  18.014   5.279
 5367POPC   GL168725   1.314  18.010   5.770
 5367POPC   GL268726   0.952  18.051   5.868
 5367POPC   C1A68727   1.356  18.167   6.196
 5367POPC   D2A68728   1.311  18.075   6.630
 5367POPC   C3A68729   1.243  18.166   7.073
 5367POPC   C4A68730   1.253  18.390   7.464
 5367POPC   C1B68731   0.923  17.902   6.302
 5367POPC   C2B68732   0.844  17.899   6.750
 5367POPC   C3B68733   0.765  18.033   7.178
 5367POPC   C4B68734   1.030  17.926   7.523
 5368POPC   NC368735  40.512   1.263   5.361
 5368POPC   PO468736  41.091   1.299   5.345
 5368POPC   GL168737  40.988   1.012   5.719
 5368POPC   GL268738  40.656   1.116   5.839
 5368POPC   C1A68739  40.986   0.962   6.213
 5368POPC   D2A68740  41.004   0.968   6.700
 5368POPC   C3A68741  40.811   1.080   7.119
 5368POPC   C4A68742  40.895   1.246   7.555
 5368POPC   C1B68743  40.527   1.228   6.259
 5368POPC   C2B68744  40.538   1.231   6.717
 5368POPC   C3B68745  40.319   1.219   7.121
 5368POPC   C4B68746  40.404   1.359   7.547
 5369POPC   NC368747  11.678  23.001   5.347
 5369POPC   PO468748  12.253  22.677   5.458
 5369POPC   GL168749  12.019  22.802   5.838
 5369POPC   GL268750  11.820  23.113   5.879
 5369POPC   C1A68751  11.932  22.744   6.293
 5369POPC   D2A68752  12.283  22.611   6.575
 5369POPC   C3A68753  12.280  22.767   6.985
 5369POPC   C4A68754  11.907  22.736   7.225
 5369POPC   C1B68755  12.252  23.136   6.146
 5369POPC   C2B68756  12.453  23.106   6.574
 5369POPC   C3B68757  12.472  23.277   6.964
 5369POPC   C4B68758  12.101  23.248   7.134
 5370POPC   NC368759  21.257  18.767   5.642
 5370POPC   PO468760  21.220  18.191   5.246
 5370POPC   GL168761  21.330  18.221   5.706
 5370POPC   GL268762  21.013  18.361   5.845
 5370POPC   C1A68763  21.636  18.109   6.083
 5370POPC   D2A68764  21.884  17.971   6.478
 5370POPC   C3A68765  21.737  18.026   6.900
 5370POPC   C4A68766  21.486  18.202   7.226
 5370POPC   C1B68767  21.120  18.050   6.171
 5370POPC   C2B68768  21.328  17.995   6.563
 5370POPC   C3B68769  21.119  18.001   6.960
 5370POPC   C4B68770  21.163  17.846   7.374
 5371POPC   NC368771  14.829   6.992   5.663
 5371POPC   PO468772  15.363   7.354   5.397
 5371POPC   GL168773  15.313   7.287   5.840
 5371POPC   GL268774  15.608   7.122   5.914
 5371POPC   C1A68775  15.298   7.219   6.316
 5371POPC   D2A68776  15.416   7.339   6.754
 5371POPC   C3A68777  15.107   7.355   7.073
 5371POPC   C4A68778  14.928   7.739   7.157
 5371POPC   C1B68779  15.718   6.818   6.219
 5371POPC   C2B68780  15.623   6.835   6.676
 5371POPC   C3B68781  15.525   6.970   7.104
 5371POPC   C4B68782  15.243   7.093   7.493
 5372POPC   NC368783  23.625  17.927   5.451
 5372POPC   PO468784  23.962  18.465   5.436
 5372POPC   GL168785  23.786  18.237   5.812
 5372POPC   GL268786  23.996  17.932   5.880
 5372POPC   C1A68787  23.704  18.338   6.225
 5372POPC   D2A68788  23.858  18.206   6.616
 5372POPC   C3A68789  23.958  18.443   6.925
 5372POPC   C4A68790  23.717  18.540   7.222
 5372POPC   C1B68791  23.812  17.802   6.307
 5372POPC   C2B68792  23.687  17.753   6.758
 5372POPC   C3B68793  23.640  18.003   7.136
 5372POPC   C4B68794  23.861  18.108   7.508
 5373POPC   NC368795  21.606   4.634   5.200
 5373POPC   PO468796  21.240   5.231   5.258
 5373POPC   GL168797  21.301   5.130   5.746
 5373POPC   GL268798  21.206   4.804   5.892
 5373POPC   C1A68799  21.104   5.286   6.178
 5373POPC   D2A68800  21.109   5.134   6.589
 5373POPC   C3A68801  21.216   5.338   6.956
 5373POPC   C4A68802  21.522   5.221   7.251
 5373POPC   C1B68803  21.502   4.973   6.249
 5373POPC   C2B68804  21.766   4.744   6.556
 5373POPC   C3B68805  21.806   4.887   6.960
 5373POPC   C4B68806  21.790   4.776   7.370
 5374POPC   NC368807  20.781  10.613   5.492
 5374POPC   PO468808  20.333  10.167   5.196
 5374POPC   GL168809  20.335  10.404   5.607
 5374POPC   GL268810  20.455  10.132   5.720
 5374POPC   C1A68811  20.498  10.499   6.068
 5374POPC   D2A68812  20.689  10.487   6.483
 5374POPC   C3A68813  20.454  10.609   6.872
 5374POPC   C4A68814  20.641  10.808   7.197
 5374POPC   C1B68815  20.240  10.049   6.097
 5374POPC   C2B68816  20.440  10.027   6.491
 5374POPC   C3B68817  20.744  10.108   6.819
 5374POPC   C4B68818  20.708  10.312   7.212
 5375POPC   NC368819   9.971   0.513   5.440
 5375POPC   PO468820   9.406   0.703   5.157
 5375POPC   GL168821   9.498   0.464   5.626
 5375POPC   GL268822   9.371   0.725   5.844
 5375POPC   C1A68823   9.752   0.417   6.082
 5375POPC   D2A68824   9.642   0.311   6.531
 5375POPC   C3A68825   9.747   0.371   6.965
 5375POPC   C4A68826   9.555   0.190   7.321
 5375POPC   C1B68827   9.423   0.745   6.313
 5375POPC   C2B68828   9.471   0.788   6.763
 5375POPC   C3B68829   9.337   0.657   7.193
 5375POPC   C4B68830   9.221   0.856   7.585
 5376POPC   NC368831  33.117   8.912   5.296
 5376POPC   PO468832  32.546   9.122   5.524
 5376POPC   GL168833  32.933   9.126   5.767
 5376POPC   GL268834  32.876   8.782   5.909
 5376POPC   C1A68835  33.188   9.146   6.161
 5376POPC   D2A68836  33.067   8.933   6.542
 5376POPC   C3A68837  33.043   9.079   6.962
 5376POPC   C4A68838  33.337   9.323   7.197
 5376POPC   C1B68839  32.632   8.644   6.324
 5376POPC   C2B68840  32.674   8.690   6.823
 5376POPC   C3B68841  32.764   8.790   7.296
 5376POPC   C4B68842  32.928   8.621   7.752
 5377POPC   NC368843  13.973  14.348   5.428
 5377POPC   PO468844  13.375  13.986   5.614
 5377POPC   GL168845  13.417  14.285   5.903
 5377POPC   GL268846  13.697  14.533   5.849
 5377POPC   C1A68847  13.438  14.309   6.330
 5377POPC   D2A68848  13.666  14.479   6.656
 5377POPC   C3A68849  13.482  14.445   7.053
 5377POPC   C4A68850  13.569  14.785   7.347
 5377POPC   C1B68851  13.955  14.336   6.171
 5377POPC   C2B68852  13.879  14.044   6.496
 5377POPC   C3B68853  13.979  14.117   6.926
 5377POPC   C4B68854  13.954  14.444   7.251
 5378POPC   NC368855  28.684   8.553   5.195
 5378POPC   PO468856  28.348   8.071   5.412
 5378POPC   GL168857  28.296   8.145   5.837
 5378POPC   GL268858  28.409   8.467   5.843
 5378POPC   C1A68859  28.411   8.171   6.278
 5378POPC   D2A68860  28.305   8.009   6.694
 5378POPC   C3A68861  28.437   8.253   7.033
 5378POPC   C4A68862  28.195   8.427   7.364
 5378POPC   C1B68863  28.615   8.657   6.221
 5378POPC   C2B68864  28.604   8.565   6.633
 5378POPC   C3B68865  28.861   8.581   6.978
 5378POPC   C4B68866  28.642   8.647   7.315
 5379POPC   NC368867  14.743  11.229   5.112
 5379POPC   PO468868  15.212  10.929   5.581
 5379POPC   GL168869  15.130  11.231   5.915
 5379POPC   GL268870  15.400  11.335   5.985
 5379POPC   C1A68871  15.009  11.244   6.339
 5379POPC   D2A68872  14.918  11.025   6.676
 5379POPC   C3A68873  15.067  11.234   7.034
 5379POPC   C4A68874  14.951  11.078   7.416
 5379POPC   C1B68875  15.453  11.040   6.303
 5379POPC   C2B68876  15.483  11.091   6.733
 5379POPC   C3B68877  15.504  11.009   7.168
 5379POPC   C4B68878  15.412  11.205   7.556
 5380POPC   NC368879  43.658  25.265   5.326
 5380POPC   PO468880  44.320  25.324   5.328
 5380POPC   GL168881  44.203  25.419   5.758
 5380POPC   GL268882  43.884  25.223   5.815
 5380POPC   C1A68883  44.204  25.326   6.197
 5380POPC   D2A68884  43.946  25.086   6.473
 5380POPC   C3A68885  44.099  25.129   6.872
 5380POPC   C4A68886  43.912  25.019   7.222
 5380POPC   C1B68887  43.694  25.441   6.188
 5380POPC   C2B68888  43.769  25.533   6.629
 5380POPC   C3B68889  43.656  25.440   7.039
 5380POPC   C4B68890  43.374  25.604   7.360
 5381POPC   NC368891  10.246  41.221   5.450
 5381POPC   PO468892  10.899  41.377   5.574
 5381POPC   GL168893  10.586  41.442   5.841
 5381POPC   GL268894  10.440  41.735   5.670
 5381POPC   C1A68895  10.668  41.425   6.288
 5381POPC   D2A68896  10.572  41.248   6.685
 5381POPC   C3A68897  10.688  41.536   7.023
 5381POPC   C4A68898  10.744  41.422   7.457
 5381POPC   C1B68899  10.312  41.767   6.114
 5381POPC   C2B68900  10.344  41.709   6.566
 5381POPC   C3B68901  10.338  41.901   6.954
 5381POPC   C4B68902  10.325  41.749   7.395
 5382POPC   NC368903  33.340  38.884   5.571
 5382POPC   PO468904  33.194  39.513   5.267
 5382POPC   GL168905  33.013  39.346   5.684
 5382POPC   GL268906  32.626  39.385   5.720
 5382POPC   C1A68907  33.010  39.126   6.113
 5382POPC   D2A68908  33.210  39.007   6.539
 5382POPC   C3A68909  32.980  39.070   6.908
 5382POPC   C4A68910  33.118  39.238   7.285
 5382POPC   C1B68911  32.777  39.640   6.092
 5382POPC   C2B68912  32.923  39.468   6.498
 5382POPC   C3B68913  32.972  39.585   6.922
 5382POPC   C4B68914  32.649  39.388   7.143
 5383POPC   NC368915   1.658  44.554   5.562
 5383POPC   PO468916   1.934   0.086   5.256
 5383POPC   GL168917   2.019  44.871   5.722
 5383POPC   GL268918   2.306   0.025   5.794
 5383POPC   C1A68919   1.822  44.689   6.190
 5383POPC   D2A68920   1.923  44.496   6.646
 5383POPC   C3A68921   1.697  44.611   7.033
 5383POPC   C4A68922   1.728  44.631   7.538
 5383POPC   C1B68923   2.317  44.706   6.116
 5383POPC   C2B68924   2.293  44.852   6.545
 5383POPC   C3B68925   2.165  44.832   6.968
 5383POPC   C4B68926   2.395  44.803   7.335
 5384POPC   NC368927  29.029  22.039   5.411
 5384POPC   PO468928  29.564  22.376   5.442
 5384POPC   GL168929  29.452  22.157   5.850
 5384POPC   GL268930  29.326  21.825   5.815
 5384POPC   C1A68931  29.354  22.056   6.294
 5384POPC   D2A68932  29.320  21.778   6.650
 5384POPC   C3A68933  29.266  21.945   7.078
 5384POPC   C4A68934  29.288  22.098   7.544
 5384POPC   C1B68935  28.991  21.705   6.139
 5384POPC   C2B68936  28.895  21.506   6.572
 5384POPC   C3B68937  28.823  21.681   7.016
 5384POPC   C4B68938  28.826  22.080   7.304
 5385POPC   NC368939  29.747  12.426   5.509
 5385POPC   PO468940  30.383  12.149   5.429
 5385POPC   GL168941  30.077  12.157   5.805
 5385POPC   GL268942  29.753  11.951   5.816
 5385POPC   C1A68943  29.976  12.057   6.260
 5385POPC   D2A68944  30.017  11.867   6.669
 5385POPC   C3A68945  29.898  12.165   7.005
 5385POPC   C4A68946  30.227  12.400   7.228
 5385POPC   C1B68947  29.676  11.637   6.156
 5385POPC   C2B68948  29.644  11.534   6.593
 5385POPC   C3B68949  29.613  11.676   7.073
 5385POPC   C4B68950  29.503  11.915   7.500
 5386POPC   NC368951   3.775  34.436   5.574
 5386POPC   PO468952   3.479  35.038   5.349
 5386POPC   GL168953   3.707  34.919   5.713
 5386POPC   GL268954   3.410  34.737   5.806
 5386POPC   C1A68955   3.827  34.720   6.150
 5386POPC   D2A68956   3.897  34.798   6.580
 5386POPC   C3A68957   3.636  34.734   6.951
 5386POPC   C4A68958   3.761  34.647   7.373
 5386POPC   C1B68959   3.391  34.419   6.134
 5386POPC   C2B68960   3.526  34.434   6.532
 5386POPC   C3B68961   3.452  34.242   6.913
 5386POPC   C4B68962   3.283  34.443   7.246
 5387POPC   NC368963  14.426  38.532   5.329
 5387POPC   PO468964  15.010  38.366   5.397
 5387POPC   GL168965  14.666  38.296   5.802
 5387POPC   GL268966  14.326  38.479   5.834
 5387POPC   C1A68967  14.499  38.319   6.294
 5387POPC   D2A68968  14.446  38.712   6.628
 5387POPC   C3A68969  14.673  38.709   7.072
 5387POPC   C4A68970  14.507  38.391   7.375
 5387POPC   C1B68971  14.087  38.603   6.213
 5387POPC   C2B68972  13.894  38.288   6.521
 5387POPC   C3B68973  13.960  38.287   6.974
 5387POPC   C4B68974  14.169  38.679   7.121
 5388POPC   NC368975  23.122  38.857   4.937
 5388POPC   PO468976  22.798  38.390   5.223
 5388POPC   GL168977  22.974  38.316   5.650
 5388POPC   GL268978  22.813  38.547   5.893
 5388POPC   C1A68979  23.293  38.403   5.981
 5388POPC   D2A68980  23.428  38.472   6.409
 5388POPC   C3A68981  23.167  38.504   6.782
 5388POPC   C4A68982  23.073  38.347   7.213
 5388POPC   C1B68983  22.636  38.862   6.154
 5388POPC   C2B68984  22.759  38.759   6.568
 5388POPC   C3B68985  22.666  38.533   6.936
 5388POPC   C4B68986  22.403  38.688   7.258
 5389POPC   NC368987   9.891   2.839   5.143
 5389POPC   PO468988   9.584   3.318   5.575
 5389POPC   GL168989   9.779   2.885   5.705
 5389POPC   GL268990   9.569   2.591   5.775
 5389POPC   C1A68991   9.917   2.764   6.146
 5389POPC   D2A68992   9.759   3.174   6.432
 5389POPC   C3A68993   9.923   3.062   6.879
 5389POPC   C4A68994   9.889   2.743   7.257
 5389POPC   C1B68995   9.441   2.871   6.138
 5389POPC   C2B68996   9.593   2.738   6.596
 5389POPC   C3B68997   9.453   2.844   7.022
 5389POPC   C4B68998   9.390   2.513   7.341
 5390POPC   NC368999  15.554  19.122   5.254
 5390POPC   PO469000  16.178  18.589   5.430
 5390POPC   GL169001  16.122  18.875   5.792
 5390POPC   GL269002  16.161  19.212   5.966
 5390POPC   C1A69003  15.972  18.822   6.225
 5390POPC   D2A69004  15.696  18.867   6.559
 5390POPC   C3A69005  15.925  18.881   6.943
 5390POPC   C4A69006  16.185  19.191   7.167
 5390POPC   C1B69007  15.826  19.316   6.326
 5390POPC   C2B69008  15.682  19.347   6.780
 5390POPC   C3B69009  15.683  19.224   7.246
 5390POPC   C4B69010  15.681  19.490   7.613
 5391POPC   NC369011  30.364  24.583   5.376
 5391POPC   PO469012  30.922  24.307   5.463
 5391POPC   GL169013  30.883  24.575   5.769
 5391POPC   GL269014  30.581  24.501   5.826
 5391POPC   C1A69015  30.979  24.609   6.178
 5391POPC   D2A69016  30.818  24.501   6.561
 5391POPC   C3A69017  31.025  24.646   6.904
 5391POPC   C4A69018  30.825  24.522   7.263
 5391POPC   C1B69019  30.438  24.503   6.203
 5391POPC   C2B69020  30.338  24.716   6.521
 5391POPC   C3B69021  30.385  24.596   6.887
 5391POPC   C4B69022  30.386  24.797   7.253
 5392POPC   NC369023  18.783  26.269   5.039
 5392POPC   PO469024  19.350  26.042   5.314
 5392POPC   GL169025  19.103  26.037   5.731
 5392POPC   GL269026  19.214  25.731   5.854
 5392POPC   C1A69027  18.822  25.937   6.112
 5392POPC   D2A69028  18.575  25.834   6.467
 5392POPC   C3A69029  18.750  26.038   6.844
 5392POPC   C4A69030  18.890  25.937   7.260
 5392POPC   C1B69031  19.334  25.981   6.206
 5392POPC   C2B69032  19.145  26.220   6.551
 5392POPC   C3B69033  19.229  26.244   6.998
 5392POPC   C4B69034  19.390  25.908   7.276
 5393POPC   NC369035  11.128   3.894   5.664
 5393POPC   PO469036  11.365   4.453   5.344
 5393POPC   GL169037  11.393   4.373   5.759
 5393POPC   GL269038  11.573   4.086   5.823
 5393POPC   C1A69039  11.307   4.509   6.169
 5393POPC   D2A69040  11.334   4.312   6.533
 5393POPC   C3A69041  11.265   4.550   6.869
 5393POPC   C4A69042  11.127   4.375   7.225
 5393POPC   C1B69043  11.693   3.974   6.243
 5393POPC   C2B69044  11.730   4.040   6.689
 5393POPC   C3B69045  11.498   4.109   7.042
 5393POPC   C4B69046  11.501   4.072   7.514
 5394POPC   NC369047  21.697   9.828   5.263
 5394POPC   PO469048  22.331   9.475   5.411
 5394POPC   GL169049  22.288   9.732   5.797
 5394POPC   GL269050  22.605   9.943   5.807
 5394POPC   C1A69051  21.972   9.747   6.166
 5394POPC   D2A69052  21.820   9.617   6.569
 5394POPC   C3A69053  21.923   9.882   6.926
 5394POPC   C4A69054  22.051   9.767   7.353
 5394POPC   C1B69055  22.497   9.882   6.248
 5394POPC   C2B69056  22.359   9.745   6.675
 5394POPC   C3B69057  22.514   9.818   7.104
 5394POPC   C4B69058  22.500   9.889   7.581
 5395POPC   NC369059   8.544   7.651   5.392
 5395POPC   PO469060   7.887   7.461   5.156
 5395POPC   GL169061   8.060   7.463   5.591
 5395POPC   GL269062   7.876   7.179   5.718
 5395POPC   C1A69063   8.075   7.561   6.053
 5395POPC   D2A69064   8.360   7.672   6.398
 5395POPC   C3A69065   8.234   7.660   6.815
 5395POPC   C4A69066   8.146   7.582   7.263
 5395POPC   C1B69067   8.010   7.021   6.125
 5395POPC   C2B69068   8.054   7.231   6.519
 5395POPC   C3B69069   8.128   7.162   6.951
 5395POPC   C4B69070   7.865   7.151   7.308
 5396POPC   NC369071  31.762  18.143   5.098
 5396POPC   PO469072  32.448  18.059   5.305
 5396POPC   GL169073  32.288  18.262   5.746
 5396POPC   GL269074  32.062  18.561   5.750
 5396POPC   C1A69075  32.136  18.116   6.202
 5396POPC   D2A69076  32.004  18.143   6.663
 5396POPC   C3A69077  32.192  18.231   7.097
 5396POPC   C4A69078  32.150  18.060   7.577
 5396POPC   C1B69079  32.321  18.622   6.159
 5396POPC   C2B69080  32.526  18.848   6.530
 5396POPC   C3B69081  32.571  18.803   6.982
 5396POPC   C4B69082  32.309  18.677   7.351
 5397POPC   NC369083  34.568   4.170   5.190
 5397POPC   PO469084  34.985   4.466   5.468
 5397POPC   GL169085  34.742   4.196   5.735
 5397POPC   GL269086  34.461   4.374   5.830
 5397POPC   C1A69087  34.732   4.080   6.188
 5397POPC   D2A69088  34.725   4.279   6.614
 5397POPC   C3A69089  34.750   4.091   7.019
 5397POPC   C4A69090  35.106   4.000   7.274
 5397POPC   C1B69091  34.630   4.600   6.214
 5397POPC   C2B69092  34.599   4.763   6.671
 5397POPC   C3B69093  34.435   4.605   7.078
 5397POPC   C4B69094  34.212   4.712   7.480
 5398POPC   NC369095  44.389  26.629   5.361
 5398POPC   PO469096  44.910  27.088   5.472
 5398POPC   GL169097  44.749  26.759   5.735
 5398POPC   GL269098  44.456  26.922   5.802
 5398POPC   C1A69099  44.659  26.699   6.198
 5398POPC   D2A69100  44.683  26.972   6.577
 5398POPC   C3A69101  44.851  26.728   6.917
 5398POPC   C4A69102  44.542  26.491   7.143
 5398POPC   C1B69103  44.805  27.185   6.107
 5398POPC   C2B69104   0.092  27.272   6.507
 5398POPC   C3B69105  44.917  27.243   6.960
 5398POPC   C4B69106  44.523  27.031   7.149
 5399POPC   NC369107   0.965  13.047   5.511
 5399POPC   PO469108   1.424  12.516   5.307
 5399POPC   GL169109   1.265  12.697   5.747
 5399POPC   GL269110   0.871  12.611   5.766
 5399POPC   C1A69111   1.439  12.900   6.185
 5399POPC   D2A69112   1.526  13.173   6.598
 5399POPC   C3A69113   1.367  12.977   6.980
 5399POPC   C4A69114   1.419  12.558   7.085
 5399POPC   C1B69115   0.920  12.891   6.153
 5399POPC   C2B69116   1.036  12.894   6.572
 5399POPC   C3B69117   0.837  12.938   6.958
 5399POPC   C4B69118   0.964  12.971   7.369
 5400POPC   NC369119  35.912  42.384   5.437
 5400POPC   PO469120  36.600  42.362   5.525
 5400POPC   GL169121  36.261  42.496   5.838
 5400POPC   GL269122  35.893  42.622   5.893
 5400POPC   C1A69123  36.116  42.334   6.231
 5400POPC   D2A69124  36.199  41.987   6.478
 5400POPC   C3A69125  36.404  42.175   6.804
 5400POPC   C4A69126  36.289  42.079   7.197
 5400POPC   C1B69127  36.059  42.829   6.275
 5400POPC   C2B69128  36.141  42.597   6.662
 5400POPC   C3B69129  36.149  42.560   7.089
 5400POPC   C4B69130  36.019  42.819   7.387
 5401POPC   NC369131  12.527  40.482   5.376
 5401POPC   PO469132  13.015  40.957   5.469
 5401POPC   GL169133  12.758  40.762   5.752
 5401POPC   GL269134  13.043  40.742   5.970
 5401POPC   C1A69135  12.539  40.642   6.133
 5401POPC   D2A69136  12.634  40.532   6.553
 5401POPC   C3A69137  12.541  40.593   6.942
 5401POPC   C4A69138  12.864  40.735   7.220
 5401POPC   C1B69139  12.925  40.925   6.363
 5401POPC   C2B69140  13.112  40.849   6.761
 5401POPC   C3B69141  13.296  41.003   7.149
 5401POPC   C4B69142  13.234  40.966   7.606
 5402POPC   NC369143  36.621  24.532   5.587
 5402POPC   PO469144  35.949  24.585   5.295
 5402POPC   GL169145  36.111  24.564   5.771
 5402POPC   GL269146  36.334  24.266   5.919
 5402POPC   C1A69147  36.239  24.679   6.237
 5402POPC   D2A69148  36.060  24.646   6.689
 5402POPC   C3A69149  36.167  24.857   7.083
 5402POPC   C4A69150  36.348  24.747   7.519
 5402POPC   C1B69151  36.587  24.231   6.325
 5402POPC   C2B69152  36.591  24.183   6.802
 5402POPC   C3B69153  36.258  24.333   7.095
 5402POPC   C4B69154  36.229  24.201   7.557
 5403POPC   NC369155  21.750  26.561   5.668
 5403POPC   PO469156  21.382  27.127   5.315
 5403POPC   GL169157  21.492  26.994   5.746
 5403POPC   GL269158  21.868  27.074   5.810
 5403POPC   C1A69159  21.255  26.788   6.123
 5403POPC   D2A69160  21.002  26.791   6.507
 5403POPC   C3A69161  21.217  26.766   6.916
 5403POPC   C4A69162  21.390  26.568   7.286
 5403POPC   C1B69163  21.629  27.145   6.212
 5403POPC   C2B69164  21.563  26.838   6.540
 5403POPC   C3B69165  21.741  26.703   6.941
 5403POPC   C4B69166  21.595  27.031   7.246
 5404POPC   NC369167  17.664   1.606   5.409
 5404POPC   PO469168  17.148   1.918   5.538
 5404POPC   GL169169  17.416   1.629   5.873
 5404POPC   GL269170  17.677   1.350   5.857
 5404POPC   C1A69171  17.683   1.630   6.283
 5404POPC   D2A69172  17.577   1.434   6.694
 5404POPC   C3A69173  17.800   1.261   7.063
 5404POPC   C4A69174  17.601   1.314   7.469
 5404POPC   C1B69175  17.466   1.155   6.265
 5404POPC   C2B69176  17.446   0.939   6.715
 5404POPC   C3B69177  17.481   0.834   7.176
 5404POPC   C4B69178  17.487   0.657   7.620
 5405POPC   NC369179  38.529  35.059   5.182
 5405POPC   PO469180  38.723  34.542   5.554
 5405POPC   GL169181  38.510  34.768   5.823
 5405POPC   GL269182  38.356  34.491   5.987
 5405POPC   C1A69183  38.636  34.797   6.258
 5405POPC   D2A69184  38.584  34.504   6.619
 5405POPC   C3A69185  38.518  34.749   7.018
 5405POPC   C4A69186  38.599  34.690   7.439
 5405POPC   C1B69187  38.093  34.471   6.334
 5405POPC   C2B69188  38.025  34.259   6.707
 5405POPC   C3B69189  38.160  34.382   7.092
 5405POPC   C4B69190  38.068  34.667   7.382
 5406POPC   NC369191  29.694  27.065   5.383
 5406POPC   PO469192  29.982  26.465   5.348
 5406POPC   GL169193  29.824  26.664   5.702
 5406POPC   GL269194  29.930  27.028   5.817
 5406POPC   C1A69195  29.794  26.661   6.139
 5406POPC   D2A69196  29.978  26.709   6.516
 5406POPC   C3A69197  29.820  26.641   6.912
 5406POPC   C4A69198  30.123  26.654   7.256
 5406POPC   C1B69199  29.557  27.086   6.100
 5406POPC   C2B69200  29.459  26.887   6.503
 5406POPC   C3B69201  29.441  27.086   6.934
 5406POPC   C4B69202  29.719  26.994   7.262
 5407POPC   NC369203   3.171  16.812   5.504
 5407POPC   PO469204   2.414  16.849   5.440
 5407POPC   GL169205   2.723  16.705   5.742
 5407POPC   GL269206   2.874  16.363   5.609
 5407POPC   C1A69207   2.845  16.885   6.158
 5407POPC   D2A69208   2.594  16.976   6.515
 5407POPC   C3A69209   2.713  17.074   6.924
 5407POPC   C4A69210   2.973  16.880   7.227
 5407POPC   C1B69211   2.928  16.350   6.072
 5407POPC   C2B69212   2.745  16.453   6.481
 5407POPC   C3B69213   2.898  16.407   6.910
 5407POPC   C4B69214   2.634  16.503   7.247
 5408POPC   NC369215   5.298   2.806   5.520
 5408POPC   PO469216   4.613   2.917   5.579
 5408POPC   GL169217   4.946   2.918   5.886
 5408POPC   GL269218   4.948   2.555   5.860
 5408POPC   C1A69219   5.190   3.039   6.282
 5408POPC   D2A69220   4.961   3.159   6.681
 5408POPC   C3A69221   5.013   2.947   7.094
 5408POPC   C4A69222   4.745   2.867   7.469
 5408POPC   C1B69223   5.183   2.538   6.241
 5408POPC   C2B69224   5.189   2.679   6.672
 5408POPC   C3B69225   5.145   2.439   7.047
 5408POPC   C4B69226   4.975   2.431   7.474
 5409POPC   NC369227  24.294  34.476   5.316
 5409POPC   PO469228  24.854  34.823   5.186
 5409POPC   GL169229  24.711  34.647   5.559
 5409POPC   GL269230  24.448  34.874   5.650
 5409POPC   C1A69231  24.797  34.416   5.959
 5409POPC   D2A69232  24.706  34.552   6.402
 5409POPC   C3A69233  24.732  34.273   6.765
 5409POPC   C4A69234  24.612  34.326   7.193
 5409POPC   C1B69235  24.320  34.608   6.015
 5409POPC   C2B69236  24.205  34.683   6.454
 5409POPC   C3B69237  24.357  34.615   6.848
 5409POPC   C4B69238  24.355  34.745   7.281
 5410POPC   NC369239  31.028  19.432   5.599
 5410POPC   PO469240  30.625  18.929   5.448
 5410POPC   GL169241  30.718  19.033   5.846
 5410POPC   GL269242  31.011  18.858   5.873
 5410POPC   C1A69243  30.519  19.110   6.261
 5410POPC   D2A69244  30.281  19.126   6.652
 5410POPC   C3A69245  30.474  19.221   7.045
 5410POPC   C4A69246  30.617  19.022   7.418
 5410POPC   C1B69247  31.038  19.163   6.237
 5410POPC   C2B69248  30.842  19.133   6.650
 5410POPC   C3B69249  30.981  19.095   7.044
 5410POPC   C4B69250  31.031  18.750   7.312
 5411POPC   NC369251  13.705  20.913   5.463
 5411POPC   PO469252  13.558  20.179   5.338
 5411POPC   GL169253  13.748  20.304   5.720
 5411POPC   GL269254  13.496  20.554   5.769
 5411POPC   C1A69255  13.765  20.477   6.168
 5411POPC   D2A69256  13.477  20.473   6.530
 5411POPC   C3A69257  13.674  20.388   6.938
 5411POPC   C4A69258  13.585  20.208   7.335
 5411POPC   C1B69259  13.430  20.893   6.102
 5411POPC   C2B69260  13.371  20.984   6.548
 5411POPC   C3B69261  13.406  20.822   6.963
 5411POPC   C4B69262  13.300  21.038   7.339
 5412POPC   NC369263  10.026   8.399   5.289
 5412POPC   PO469264   9.392   8.115   5.323
 5412POPC   GL169265   9.454   8.203   5.748
 5412POPC   GL269266   9.558   8.534   5.632
 5412POPC   C1A69267   9.641   8.146   6.204
 5412POPC   D2A69268   9.631   8.147   6.673
 5412POPC   C3A69269  10.017   8.192   6.902
 5412POPC   C4A69270  10.171   8.294   7.304
 5412POPC   C1B69271   9.405   8.584   6.075
 5412POPC   C2B69272   9.392   8.622   6.529
 5412POPC   C3B69273   9.587   8.600   6.930
 5412POPC   C4B69274   9.565   8.793   7.320
 5413POPC   NC369275   3.523  33.400   5.602
 5413POPC   PO469276   3.291  32.762   5.540
 5413POPC   GL169277   3.651  32.899   5.791
 5413POPC   GL269278   3.626  33.146   6.024
 5413POPC   C1A69279   3.808  32.719   6.202
 5413POPC   D2A69280   3.812  32.996   6.564
 5413POPC   C3A69281   3.737  32.807   6.934
 5413POPC   C4A69282   3.615  32.966   7.313
 5413POPC   C1B69283   3.781  33.445   6.265
 5413POPC   C2B69284   3.861  33.519   6.676
 5413POPC   C3B69285   3.782  33.388   7.076
 5413POPC   C4B69286   3.720  33.543   7.499
 5414POPC   NC369287  34.563  20.371   5.477
 5414POPC   PO469288  34.996  20.977   5.348
 5414POPC   GL169289  34.807  20.795   5.753
 5414POPC   GL269290  34.460  20.752   5.843
 5414POPC   C1A69291  34.834  20.597   6.192
 5414POPC   D2A69292  34.781  20.417   6.625
 5414POPC   C3A69293  34.673  20.675   7.012
 5414POPC   C4A69294  34.758  20.766   7.471
 5414POPC   C1B69295  34.351  20.411   6.145
 5414POPC   C2B69296  34.259  20.415   6.587
 5414POPC   C3B69297  34.414  20.226   6.979
 5414POPC   C4B69298  34.519  20.336   7.412
 5415POPC   NC369299   7.695  21.385   5.474
 5415POPC   PO469300   7.059  21.290   5.490
 5415POPC   GL169301   7.370  21.247   5.852
 5415POPC   GL269302   7.572  21.557   5.918
 5415POPC   C1A69303   7.425  21.264   6.319
 5415POPC   D2A69304   7.217  21.178   6.714
 5415POPC   C3A69305   7.364  21.391   7.076
 5415POPC   C4A69306   7.779  21.396   7.207
 5415POPC   C1B69307   7.523  21.807   6.272
 5415POPC   C2B69308   7.444  21.764   6.703
 5415POPC   C3B69309   7.108  21.856   6.975
 5415POPC   C4B69310   7.011  21.754   7.375
 5416POPC   NC369311   1.026  19.436   5.213
 5416POPC   PO469312   1.541  19.928   5.277
 5416POPC   GL169313   1.381  19.942   5.712
 5416POPC   GL269314   1.036  20.053   5.771
 5416POPC   C1A69315   1.369  19.783   6.168
 5416POPC   D2A69316   1.117  19.696   6.565
 5416POPC   C3A69317   1.315  19.791   6.928
 5416POPC   C4A69318   1.201  19.643   7.306
 5416POPC   C1B69319   0.851  19.884   6.169
 5416POPC   C2B69320   0.731  20.030   6.597
 5416POPC   C3B69321   0.871  20.038   7.036
 5416POPC   C4B69322   1.036  20.091   7.472
 5417POPC   NC369323  30.735  31.919   5.340
 5417POPC   PO469324  30.605  32.616   5.358
 5417POPC   GL169325  30.796  32.367   5.705
 5417POPC   GL269326  30.604  32.063   5.825
 5417POPC   C1A69327  30.733  32.442   6.166
 5417POPC   D2A69328  30.485  32.234   6.497
 5417POPC   C3A69329  30.579  32.395   6.917
 5417POPC   C4A69330  30.443  32.302   7.333
 5417POPC   C1B69331  30.840  31.929   6.213
 5417POPC   C2B69332  30.948  32.077   6.650
 5417POPC   C3B69333  31.038  32.123   7.099
 5417POPC   C4B69334  30.848  32.088   7.547
 5418POPC   NC369335  38.268  29.384   5.365
 5418POPC   PO469336  38.289  28.745   5.626
 5418POPC   GL169337  38.450  29.138   5.841
 5418POPC   GL269338  38.717  29.297   5.634
 5418POPC   C1A69339  38.502  29.079   6.275
 5418POPC   D2A69340  38.239  28.794   6.478
 5418POPC   C3A69341  38.286  28.838   6.911
 5418POPC   C4A69342  38.535  29.084   7.209
 5418POPC   C1B69343  38.931  29.286   6.050
 5418POPC   C2B69344  38.877  29.423   6.483
 5418POPC   C3B69345  38.933  29.241   6.884
 5418POPC   C4B69346  39.013  29.292   7.301
 5419POPC   NC369347  38.985  30.078   5.402
 5419POPC   PO469348  39.553  29.731   5.399
 5419POPC   GL169349  39.295  29.906   5.779
 5419POPC   GL269350  38.965  29.719   5.758
 5419POPC   C1A69351  39.314  30.164   6.196
 5419POPC   D2A69352  39.503  30.342   6.602
 5419POPC   C3A69353  39.402  30.054   6.970
 5419POPC   C4A69354  39.441  29.925   7.417
 5419POPC   C1B69355  38.867  29.931   6.114
 5419POPC   C2B69356  38.945  29.961   6.532
 5419POPC   C3B69357  38.857  29.767   6.916
 5419POPC   C4B69358  38.967  29.941   7.278
 5420POPC   NC369359   2.588  28.913   5.356
 5420POPC   PO469360   1.923  29.119   5.307
 5420POPC   GL169361   2.244  29.136   5.651
 5420POPC   GL269362   2.318  28.783   5.775
 5420POPC   C1A69363   2.325  29.176   6.119
 5420POPC   D2A69364   2.097  29.441   6.432
 5420POPC   C3A69365   2.121  29.314   6.854
 5420POPC   C4A69366   1.856  29.219   7.208
 5420POPC   C1B69367   1.900  28.939   5.969
 5420POPC   C2B69368   1.784  29.007   6.410
 5420POPC   C3B69369   1.656  28.860   6.820
 5420POPC   C4B69370   1.693  28.716   7.244
 5421POPC   NC369371  30.347  11.672   5.397
 5421POPC   PO469372  29.738  11.386   5.485
 5421POPC   GL169373  30.027  11.387   5.818
 5421POPC   GL269374  30.195  11.674   5.895
 5421POPC   C1A69375  29.930  11.186   6.206
 5421POPC   D2A69376  29.666  11.015   6.490
 5421POPC   C3A69377  29.735  11.157   6.890
 5421POPC   C4A69378  29.826  11.070   7.269
 5421POPC   C1B69379  30.261  11.553   6.310
 5421POPC   C2B69380  30.158  11.359   6.693
 5421POPC   C3B69381  30.081  11.486   7.112
 5421POPC   C4B69382  30.334  11.587   7.464
 5422POPC   NC369383   4.155  16.952   5.396
 5422POPC   PO469384   3.549  16.451   5.483
 5422POPC   GL169385   3.568  16.753   5.831
 5422POPC   GL269386   3.554  17.123   5.729
 5422POPC   C1A69387   3.337  16.753   6.231
 5422POPC   D2A69388   3.127  16.783   6.646
 5422POPC   C3A69389   3.378  16.664   7.022
 5422POPC   C4A69390   3.370  16.673   7.496
 5422POPC   C1B69391   3.697  17.141   6.139
 5422POPC   C2B69392   3.542  17.108   6.544
 5422POPC   C3B69393   3.720  17.046   6.930
 5422POPC   C4B69394   3.843  16.786   7.271
 5423POPC   NC369395   5.563   7.385   5.004
 5423POPC   PO469396   6.021   7.640   5.455
 5423POPC   GL169397   6.151   7.422   5.826
 5423POPC   GL269398   5.864   7.246   5.841
 5423POPC   C1A69399   6.088   7.299   6.275
 5423POPC   D2A69400   5.910   7.527   6.587
 5423POPC   C3A69401   5.810   7.401   7.000
 5423POPC   C4A69402   6.086   7.615   7.274
 5423POPC   C1B69403   5.589   7.398   6.191
 5423POPC   C2B69404   5.401   7.508   6.594
 5423POPC   C3B69405   5.403   7.765   6.938
 5423POPC   C4B69406   5.487   7.636   7.351
 5424POPC   NC369407  33.998  22.231   5.362
 5424POPC   PO469408  33.559  21.796   5.496
 5424POPC   GL169409  33.866  21.934   5.780
 5424POPC   GL269410  33.661  22.258   5.744
 5424POPC   C1A69411  34.012  21.958   6.228
 5424POPC   D2A69412  33.793  22.008   6.650
 5424POPC   C3A69413  33.975  21.901   7.074
 5424POPC   C4A69414  33.917  22.128   7.501
 5424POPC   C1B69415  33.819  22.408   6.102
 5424POPC   C2B69416  33.653  22.474   6.478
 5424POPC   C3B69417  33.521  22.448   6.864
 5424POPC   C4B69418  33.806  22.393   7.098
 5425POPC   NC369419  20.629  17.109   5.432
 5425POPC   PO469420  20.383  17.762   5.579
 5425POPC   GL169421  20.622  17.449   5.824
 5425POPC   GL269422  20.390  17.175   5.895
 5425POPC   C1A69423  20.911  17.566   6.182
 5425POPC   D2A69424  20.824  17.760   6.605
 5425POPC   C3A69425  20.902  17.537   7.025
 5425POPC   C4A69426  20.802  17.514   7.478
 5425POPC   C1B69427  20.421  17.438   6.291
 5425POPC   C2B69428  20.311  17.446   6.714
 5425POPC   C3B69429  20.373  17.559   7.133
 5425POPC   C4B69430  20.355  17.270   7.449
 5426POPC   NC369431  10.164  31.283   5.560
 5426POPC   PO469432  10.600  31.788   5.427
 5426POPC   GL169433  10.417  31.640   5.845
 5426POPC   GL269434  10.576  31.328   5.854
 5426POPC   C1A69435  10.242  31.578   6.301
 5426POPC   D2A69436  10.474  31.610   6.726
 5426POPC   C3A69437  10.376  31.587   7.186
 5426POPC   C4A69438  10.492  31.308   7.551
 5426POPC   C1B69439  10.721  31.400   6.276
 5426POPC   C2B69440  10.719  31.176   6.679
 5426POPC   C3B69441  10.821  31.380   7.085
 5426POPC   C4B69442  10.821  31.683   7.473
 5427POPC   NC369443  37.338  42.929   5.242
 5427POPC   PO469444  36.781  43.293   5.390
 5427POPC   GL169445  36.941  43.354   5.782
 5427POPC   GL269446  36.848  43.044   5.842
 5427POPC   C1A69447  36.847  43.456   6.189
 5427POPC   D2A69448  36.714  43.247   6.561
 5427POPC   C3A69449  36.684  43.432   6.953
 5427POPC   C4A69450  36.835  43.329   7.343
 5427POPC   C1B69451  37.026  42.965   6.218
 5427POPC   C2B69452  37.082  42.867   6.637
 5427POPC   C3B69453  36.942  42.807   7.067
 5427POPC   C4B69454  37.086  42.905   7.474
 5428POPC   NC369455   1.400   8.000   5.234
 5428POPC   PO469456   0.994   8.453   5.315
 5428POPC   GL169457   1.189   8.369   5.752
 5428POPC   GL269458   1.318   8.019   5.791
 5428POPC   C1A69459   1.169   8.465   6.234
 5428POPC   D2A69460   1.410   8.328   6.597
 5428POPC   C3A69461   1.236   8.343   6.989
 5428POPC   C4A69462   1.069   8.689   7.196
 5428POPC   C1B69463   0.976   7.994   6.124
 5428POPC   C2B69464   0.937   8.122   6.560
 5428POPC   C3B69465   0.939   7.920   6.938
 5428POPC   C4B69466   1.116   7.931   7.311
 5429POPC   NC369467  30.899  23.247   5.429
 5429POPC   PO469468  30.364  22.745   5.429
 5429POPC   GL169469  30.654  22.789   5.804
 5429POPC   GL269470  31.015  22.929   5.828
 5429POPC   C1A69471  30.608  23.027   6.211
 5429POPC   D2A69472  30.533  23.257   6.603
 5429POPC   C3A69473  30.526  23.077   7.027
 5429POPC   C4A69474  30.471  23.066   7.491
 5429POPC   C1B69475  30.973  22.644   6.189
 5429POPC   C2B69476  30.842  22.570   6.611
 5429POPC   C3B69477  30.925  22.753   7.019
 5429POPC   C4B69478  30.955  22.755   7.483
 5430POPC   NC369479  11.785  36.994   5.325
 5430POPC   PO469480  12.421  36.872   5.285
 5430POPC   GL169481  12.199  36.775   5.700
 5430POPC   GL269482  11.989  37.046   5.799
 5430POPC   C1A69483  12.203  36.772   6.183
 5430POPC   D2A69484  12.245  37.030   6.589
 5430POPC   C3A69485  12.105  36.839   6.973
 5430POPC   C4A69486  11.993  36.649   7.362
 5430POPC   C1B69487  12.058  37.257   6.164
 5430POPC   C2B69488  11.780  37.243   6.512
 5430POPC   C3B69489  11.857  37.280   6.921
 5430POPC   C4B69490  11.675  37.180   7.302
 5431POPC   NC369491  20.903  20.510   5.454
 5431POPC   PO469492  20.233  20.434   5.406
 5431POPC   GL169493  20.443  20.632   5.714
 5431POPC   GL269494  20.157  20.589   5.929
 5431POPC   C1A69495  20.670  20.536   6.073
 5431POPC   D2A69496  20.441  20.369   6.400
 5431POPC   C3A69497  20.498  20.410   6.836
 5431POPC   C4A69498  20.701  20.365   7.220
 5431POPC   C1B69499  20.328  20.862   6.264
 5431POPC   C2B69500  20.575  20.912   6.653
 5431POPC   C3B69501  20.508  20.845   7.106
 5431POPC   C4B69502  20.260  20.559   7.379
 5432POPC   NC369503  40.061  22.853   5.359
 5432POPC   PO469504  39.606  23.349   5.559
 5432POPC   GL169505  39.771  22.955   5.800
 5432POPC   GL269506  40.168  22.879   5.848
 5432POPC   C1A69507  39.808  22.938   6.257
 5432POPC   D2A69508  39.954  23.222   6.585
 5432POPC   C3A69509  40.005  23.089   7.013
 5432POPC   C4A69510  39.823  23.006   7.434
 5432POPC   C1B69511  40.385  23.087   6.187
 5432POPC   C2B69512  40.453  23.030   6.616
 5432POPC   C3B69513  40.371  22.741   6.921
 5432POPC   C4B69514  40.210  22.721   7.304
 5433POPC   NC369515  36.790  18.574   5.052
 5433POPC   PO469516  37.077  18.086   5.346
 5433POPC   GL169517  36.843  18.210   5.688
 5433POPC   GL269518  36.994  18.493   5.873
 5433POPC   C1A69519  36.668  18.154   6.098
 5433POPC   D2A69520  36.861  18.123   6.502
 5433POPC   C3A69521  36.731  18.404   6.853
 5433POPC   C4A69522  36.691  18.164   7.262
 5433POPC   C1B69523  36.856  18.625   6.305
 5433POPC   C2B69524  36.555  18.884   6.566
 5433POPC   C3B69525  36.454  18.838   7.003
 5433POPC   C4B69526  36.757  18.682   7.293
 5434POPC   NC369527  40.244   4.867   5.403
 5434POPC   PO469528  39.995   5.419   5.370
 5434POPC   GL169529  39.966   5.205   5.742
 5434POPC   GL269530  40.296   5.144   5.845
 5434POPC   C1A69531  39.964   5.173   6.215
 5434POPC   D2A69532  40.167   5.398   6.551
 5434POPC   C3A69533  40.175   5.223   6.955
 5434POPC   C4A69534  39.877   5.145   7.313
 5434POPC   C1B69535  40.459   5.011   6.298
 5434POPC   C2B69536  40.401   4.808   6.725
 5434POPC   C3B69537  40.233   4.765   7.197
 5434POPC   C4B69538  40.211   4.927   7.652
 5435POPC   NC369539  38.114  22.043   5.413
 5435POPC   PO469540  38.775  22.325   5.492
 5435POPC   GL169541  38.600  22.119   5.811
 5435POPC   GL269542  38.249  22.191   5.891
 5435POPC   C1A69543  38.608  22.079   6.246
 5435POPC   D2A69544  38.301  22.228   6.525
 5435POPC   C3A69545  38.461  22.130   6.894
 5435POPC   C4A69546  38.815  22.233   7.132
 5435POPC   C1B69547  38.167  21.839   6.184
 5435POPC   C2B69548  38.367  21.704   6.600
 5435POPC   C3B69549  38.259  21.681   7.083
 5435POPC   C4B69550  38.510  21.755   7.495
 5436POPC   NC369551   8.482  22.662   5.468
 5436POPC   PO469552   9.156  22.895   5.428
 5436POPC   GL169553   8.858  22.890   5.740
 5436POPC   GL269554   8.879  22.544   5.798
 5436POPC   C1A69555   8.851  23.127   6.109
 5436POPC   D2A69556   9.107  23.120   6.485
 5436POPC   C3A69557   8.962  22.932   6.876
 5436POPC   C4A69558   8.886  23.125   7.255
 5436POPC   C1B69559   8.975  22.632   6.254
 5436POPC   C2B69560   9.284  22.623   6.587
 5436POPC   C3B69561   9.381  22.696   7.012
 5436POPC   C4B69562   9.090  22.681   7.359
 5437POPC   NC369563  42.460  16.847   5.109
 5437POPC   PO469564  43.116  16.824   5.286
 5437POPC   GL169565  43.030  16.749   5.721
 5437POPC   GL269566  43.311  16.528   5.824
 5437POPC   C1A69567  42.953  16.813   6.180
 5437POPC   D2A69568  42.946  16.606   6.607
 5437POPC   C3A69569  43.083  16.752   7.033
 5437POPC   C4A69570  42.939  16.820   7.465
 5437POPC   C1B69571  43.551  16.432   6.202
 5437POPC   C2B69572  43.430  16.393   6.614
 5437POPC   C3B69573  43.443  16.329   7.029
 5437POPC   C4B69574  43.485  16.570   7.435
 5438POPC   NC369575  41.540  34.157   5.320
 5438POPC   PO469576  41.778  34.773   5.362
 5438POPC   GL169577  41.506  34.724   5.750
 5438POPC   GL269578  41.448  34.383   5.771
 5438POPC   C1A69579  41.498  34.641   6.198
 5438POPC   D2A69580  41.678  34.602   6.577
 5438POPC   C3A69581  41.382  34.585   6.898
 5438POPC   C4A69582  41.257  34.758   7.268
 5438POPC   C1B69583  41.215  34.200   6.112
 5438POPC   C2B69584  41.310  34.219   6.531
 5438POPC   C3B69585  41.277  34.035   6.927
 5438POPC   C4B69586  41.354  34.213   7.302
 5439POPC   NC369587   2.825  34.124   5.552
 5439POPC   PO469588   3.135  33.510   5.381
 5439POPC   GL169589   2.818  33.597   5.707
 5439POPC   GL269590   2.502  33.410   5.745
 5439POPC   C1A69591   2.826  33.758   6.126
 5439POPC   D2A69592   2.919  33.619   6.523
 5439POPC   C3A69593   2.960  33.903   6.862
 5439POPC   C4A69594   2.847  33.881   7.288
 5439POPC   C1B69595   2.349  33.577   6.161
 5439POPC   C2B69596   2.431  33.823   6.554
 5439POPC   C3B69597   2.497  33.662   6.985
 5439POPC   C4B69598   2.378  33.671   7.419
 5440POPC   NC369599  38.966  37.401   5.475
 5440POPC   PO469600  39.472  37.837   5.440
 5440POPC   GL169601  39.237  37.761   5.809
 5440POPC   GL269602  39.229  37.462   5.891
 5440POPC   C1A69603  39.314  37.820   6.267
 5440POPC   D2A69604  39.180  38.097   6.607
 5440POPC   C3A69605  39.184  37.929   7.027
 5440POPC   C4A69606  39.496  37.749   7.293
 5440POPC   C1B69607  38.940  37.446   6.206
 5440POPC   C2B69608  39.056  37.297   6.616
 5440POPC   C3B69609  39.232  37.394   7.011
 5440POPC   C4B69610  39.006  37.254   7.349
 5441POPC   NC369611  32.553   9.560   5.686
 5441POPC   PO469612  33.121   9.687   5.281
 5441POPC   GL169613  33.060   9.661   5.752
 5441POPC   GL269614  33.051   9.986   5.899
 5441POPC   C1A69615  32.929   9.570   6.212
 5441POPC   D2A69616  33.171   9.465   6.609
 5441POPC   C3A69617  32.961   9.598   6.987
 5441POPC   C4A69618  32.551   9.738   6.997
 5441POPC   C1B69619  33.213   9.953   6.328
 5441POPC   C2B69620  32.968  10.004   6.684
 5441POPC   C3B69621  33.069  10.200   7.065
 5441POPC   C4B69622  32.870  10.314   7.440
 5442POPC   NC369623  26.485   9.324   5.495
 5442POPC   PO469624  26.602   8.687   5.383
 5442POPC   GL169625  26.802   8.918   5.747
 5442POPC   GL269626  27.130   9.082   5.710
 5442POPC   C1A69627  26.642   9.001   6.194
 5442POPC   D2A69628  26.822   9.181   6.585
 5442POPC   C3A69629  26.592   9.167   6.948
 5442POPC   C4A69630  26.699   9.077   7.351
 5442POPC   C1B69631  27.139   9.085   6.182
 5442POPC   C2B69632  27.264   8.913   6.595
 5442POPC   C3B69633  27.123   9.014   7.041
 5442POPC   C4B69634  27.185   8.907   7.486
 5443POPC   NC369635  11.522  26.529   5.322
 5443POPC   PO469636  11.102  26.995   5.195
 5443POPC   GL169637  11.214  26.789   5.627
 5443POPC   GL269638  11.528  26.819   5.751
 5443POPC   C1A69639  11.222  26.547   6.025
 5443POPC   D2A69640  11.200  26.629   6.445
 5443POPC   C3A69641  11.248  26.568   6.899
 5443POPC   C4A69642  11.054  26.792   7.260
 5443POPC   C1B69643  11.573  26.913   6.187
 5443POPC   C2B69644  11.635  26.797   6.613
 5443POPC   C3B69645  11.563  26.942   7.035
 5443POPC   C4B69646  11.551  26.717   7.392
 5444POPC   NC369647  34.943  31.314   5.303
 5444POPC   PO469648  34.293  31.450   5.452
 5444POPC   GL169649  34.657  31.552   5.744
 5444POPC   GL269650  34.853  31.263   5.802
 5444POPC   C1A69651  34.640  31.688   6.196
 5444POPC   D2A69652  34.362  31.678   6.556
 5444POPC   C3A69653  34.510  31.484   6.945
 5444POPC   C4A69654  34.531  31.614   7.363
 5444POPC   C1B69655  34.902  31.197   6.222
 5444POPC   C2B69656  34.879  31.359   6.622
 5444POPC   C3B69657  34.895  31.174   7.069
 5444POPC   C4B69658  34.627  31.132   7.470
 5445POPC   NC369659  19.616   5.920   5.267
 5445POPC   PO469660  19.547   5.362   5.640
 5445POPC   GL169661  19.785   5.725   5.778
 5445POPC   GL269662  19.747   6.081   5.756
 5445POPC   C1A69663  19.942   5.844   6.189
 5445POPC   D2A69664  19.977   6.032   6.610
 5445POPC   C3A69665  19.692   5.757   6.831
 5445POPC   C4A69666  19.760   5.525   7.185
 5445POPC   C1B69667  19.716   6.298   6.162
 5445POPC   C2B69668  19.482   6.206   6.546
 5445POPC   C3B69669  19.581   6.238   6.963
 5445POPC   C4B69670  19.927   6.033   7.206
 5446POPC   NC369671  21.287  41.610   5.402
 5446POPC   PO469672  21.658  41.084   5.636
 5446POPC   GL169673  21.410  41.414   5.858
 5446POPC   GL269674  21.021  41.413   5.831
 5446POPC   C1A69675  21.386  41.782   6.128
 5446POPC   D2A69676  21.602  41.812   6.535
 5446POPC   C3A69677  21.403  41.794   6.955
 5446POPC   C4A69678  21.464  41.641   7.375
 5446POPC   C1B69679  21.128  41.380   6.292
 5446POPC   C2B69680  21.058  41.475   6.727
 5446POPC   C3B69681  21.231  41.289   7.096
 5446POPC   C4B69682  21.153  41.279   7.532
 5447POPC   NC369683  11.699   1.178   5.386
 5447POPC   PO469684  12.212   1.470   5.485
 5447POPC   GL169685  11.962   1.261   5.831
 5447POPC   GL269686  12.105   0.941   5.839
 5447POPC   C1A69687  11.836   1.175   6.295
 5447POPC   D2A69688  11.753   1.423   6.697
 5447POPC   C3A69689  11.795   1.142   7.085
 5447POPC   C4A69690  11.916   0.731   7.291
 5447POPC   C1B69691  12.330   1.143   6.196
 5447POPC   C2B69692  12.247   1.275   6.648
 5447POPC   C3B69693  12.302   1.181   7.121
 5447POPC   C4B69694  12.447   1.445   7.483
 5448POPC   NC369695  44.863  11.640   5.301
 5448POPC   PO469696  44.473  11.165   5.344
 5448POPC   GL169697  44.797  11.311   5.671
 5448POPC   GL269698  44.576  11.381   5.934
 5448POPC   C1A69699   0.030  11.542   6.052
 5448POPC   D2A69700  44.756  11.446   6.441
 5448POPC   C3A69701  44.885  11.590   6.849
 5448POPC   C4A69702  44.747  11.411   7.261
 5448POPC   C1B69703  44.905  11.054   6.090
 5448POPC   C2B69704   0.025  10.957   6.502
 5448POPC   C3B69705  44.795  11.028   6.857
 5448POPC   C4B69706  44.960  10.961   7.257
 5449POPC   NC369707  29.496  34.415   5.046
 5449POPC   PO469708  28.960  34.591   5.450
 5449POPC   GL169709  29.176  34.853   5.745
 5449POPC   GL269710  29.440  34.634   5.869
 5449POPC   C1A69711  29.126  34.911   6.206
 5449POPC   D2A69712  28.931  34.737   6.592
 5449POPC   C3A69713  29.144  34.694   7.008
 5449POPC   C4A69714  29.540  34.566   7.200
 5449POPC   C1B69715  29.276  34.411   6.249
 5449POPC   C2B69716  29.325  34.198   6.652
 5449POPC   C3B69717  29.067  34.149   7.004
 5449POPC   C4B69718  29.160  34.268   7.406
 5450POPC   NC369719  31.606  41.435   5.358
 5450POPC   PO469720  31.017  41.256   5.619
 5450POPC   GL169721  31.376  41.360   5.821
 5450POPC   GL269722  31.546  41.669   5.818
 5450POPC   C1A69723  31.512  41.393   6.237
 5450POPC   D2A69724  31.626  41.238   6.617
 5450POPC   C3A69725  31.498  41.405   7.006
 5450POPC   C4A69726  31.076  41.380   7.188
 5450POPC   C1B69727  31.163  41.753   6.123
 5450POPC   C2B69728  31.108  41.644   6.585
 5450POPC   C3B69729  31.172  41.838   6.998
 5450POPC   C4B69730  31.537  41.912   7.256
 5451POPC   NC369731  11.860  31.754   5.393
 5451POPC   PO469732  12.166  31.155   5.520
 5451POPC   GL169733  11.982  31.400   5.848
 5451POPC   GL269734  11.603  31.472   5.751
 5451POPC   C1A69735  12.237  31.501   6.248
 5451POPC   D2A69736  12.345  31.614   6.703
 5451POPC   C3A69737  12.394  31.315   7.057
 5451POPC   C4A69738  12.399  31.335   7.540
 5451POPC   C1B69739  11.663  31.701   6.132
 5451POPC   C2B69740  11.880  31.750   6.537
 5451POPC   C3B69741  11.822  31.719   6.990
 5451POPC   C4B69742  11.933  31.375   7.299
 5452POPC   NC369743   6.180  32.454   5.511
 5452POPC   PO469744   5.828  32.033   5.141
 5452POPC   GL169745   5.945  32.010   5.652
 5452POPC   GL269746   5.641  32.198   5.816
 5452POPC   C1A69747   6.066  32.041   6.143
 5452POPC   D2A69748   6.231  32.114   6.612
 5452POPC   C3A69749   5.985  32.076   7.053
 5452POPC   C4A69750   6.024  31.972   7.565
 5452POPC   C1B69751   5.629  32.330   6.258
 5452POPC   C2B69752   5.820  32.431   6.672
 5452POPC   C3B69753   5.667  32.499   7.107
 5452POPC   C4B69754   5.404  32.578   7.508
 5453POPC   NC369755  31.211  40.799   5.746
 5453POPC   PO469756  30.672  40.589   5.328
 5453POPC   GL169757  30.786  40.523   5.724
 5453POPC   GL269758  30.996  40.236   5.728
 5453POPC   C1A69759  30.664  40.590   6.155
 5453POPC   D2A69760  30.547  40.738   6.561
 5453POPC   C3A69761  30.726  40.903   6.943
 5453POPC   C4A69762  30.342  40.784   7.168
 5453POPC   C1B69763  31.019  40.209   6.183
 5453POPC   C2B69764  30.952  40.426   6.594
 5453POPC   C3B69765  30.667  40.408   6.972
 5453POPC   C4B69766  30.716  40.550   7.409
 5454POPC   NC369767  35.846  36.629   5.453
 5454POPC   PO469768  36.519  36.697   5.406
 5454POPC   GL169769  36.246  36.814   5.751
 5454POPC   GL269770  36.068  37.130   5.655
 5454POPC   C1A69771  35.939  36.801   6.109
 5454POPC   D2A69772  35.787  36.730   6.536
 5454POPC   C3A69773  36.120  36.647   6.805
 5454POPC   C4A69774  36.202  36.803   7.193
 5454POPC   C1B69775  36.243  37.216   6.083
 5454POPC   C2B69776  35.998  37.185   6.486
 5454POPC   C3B69777  35.855  37.073   6.913
 5454POPC   C4B69778  35.984  37.222   7.333
 5455POPC   NC369779  18.478  22.764   5.619
 5455POPC   PO469780  18.590  22.248   5.202
 5455POPC   GL169781  18.446  22.164   5.676
 5455POPC   GL269782  18.214  22.395   5.825
 5455POPC   C1A69783  18.163  21.962   6.067
 5455POPC   D2A69784  18.031  21.892   6.499
 5455POPC   C3A69785  18.364  21.832   6.807
 5455POPC   C4A69786  18.476  21.844   7.248
 5455POPC   C1B69787  18.320  22.406   6.273
 5455POPC   C2B69788  18.174  22.353   6.683
 5455POPC   C3B69789  18.073  22.209   7.091
 5455POPC   C4B69790  18.146  22.481   7.441
 5456POPC   NC369791  19.991  16.778   5.347
 5456POPC   PO469792  19.722  16.243   5.584
 5456POPC   GL169793  19.869  16.607   5.807
 5456POPC   GL269794  19.561  16.764   5.750
 5456POPC   C1A69795  20.192  16.756   6.111
 5456POPC   D2A69796  20.395  16.908   6.528
 5456POPC   C3A69797  20.184  16.651   6.876
 5456POPC   C4A69798  20.206  16.267   7.149
 5456POPC   C1B69799  19.670  16.789   6.237
 5456POPC   C2B69800  19.675  16.644   6.704
 5456POPC   C3B69801  19.553  16.515   7.142
 5456POPC   C4B69802  19.495  16.784   7.508
 5457POPC   NC369803  11.727   4.145   5.313
 5457POPC   PO469804  12.177   4.698   5.321
 5457POPC   GL169805  11.854   4.545   5.601
 5457POPC   GL269806  12.027   4.276   5.721
 5457POPC   C1A69807  11.779   4.617   6.059
 5457POPC   D2A69808  11.655   4.737   6.517
 5457POPC   C3A69809  11.773   4.528   6.920
 5457POPC   C4A69810  11.926   4.250   7.278
 5457POPC   C1B69811  12.234   4.407   6.103
 5457POPC   C2B69812  12.074   4.385   6.519
 5457POPC   C3B69813  12.263   4.442   6.936
 5457POPC   C4B69814  12.340   4.583   7.347
 5458POPC   NC369815  34.821  42.545   5.367
 5458POPC   PO469816  34.893  41.849   5.379
 5458POPC   GL169817  34.643  42.170   5.740
 5458POPC   GL269818  34.553  42.547   5.816
 5458POPC   C1A69819  34.325  42.194   6.097
 5458POPC   D2A69820  34.403  42.458   6.435
 5458POPC   C3A69821  34.364  42.374   6.867
 5458POPC   C4A69822  34.489  42.594   7.264
 5458POPC   C1B69823  34.836  42.395   6.176
 5458POPC   C2B69824  34.839  42.216   6.619
 5458POPC   C3B69825  34.831  42.254   7.084
 5458POPC   C4B69826  34.797  42.320   7.551
 5459POPC   NC369827  19.183  37.402   5.514
 5459POPC   PO469828  19.336  37.966   5.216
 5459POPC   GL169829  19.266  37.957   5.690
 5459POPC   GL269830  18.922  37.856   5.773
 5459POPC   C1A69831  19.209  37.850   6.166
 5459POPC   D2A69832  18.927  37.784   6.506
 5459POPC   C3A69833  18.997  37.900   6.918
 5459POPC   C4A69834  19.258  37.834   7.273
 5459POPC   C1B69835  18.864  37.464   6.128
 5459POPC   C2B69836  18.789  37.301   6.591
 5459POPC   C3B69837  18.956  37.395   7.032
 5459POPC   C4B69838  18.821  37.628   7.385
 5460POPC   NC369839   0.831  25.921   5.584
 5460POPC   PO469840   1.224  26.257   5.171
 5460POPC   GL169841   1.245  26.306   5.678
 5460POPC   GL269842   0.956  26.433   5.803
 5460POPC   C1A69843   1.444  26.137   6.124
 5460POPC   D2A69844   1.378  25.764   6.423
 5460POPC   C3A69845   1.388  25.802   6.911
 5460POPC   C4A69846   1.221  25.592   7.306
 5460POPC   C1B69847   1.211  26.584   6.139
 5460POPC   C2B69848   1.284  26.413   6.530
 5460POPC   C3B69849   1.123  26.297   6.889
 5460POPC   C4B69850   1.070  26.086   7.236
 5461POPC   NC369851  39.722  44.135   5.569
 5461POPC   PO469852  40.079  43.575   5.295
 5461POPC   GL169853  40.097  43.790   5.672
 5461POPC   GL269854  39.783  43.728   5.874
 5461POPC   C1A69855  40.282  43.732   6.072
 5461POPC   D2A69856  40.338  43.914   6.467
 5461POPC   C3A69857  40.202  43.656   6.837
 5461POPC   C4A69858  40.098  43.766   7.259
 5461POPC   C1B69859  39.860  43.937   6.285
 5461POPC   C2B69860  39.950  44.123   6.727
 5461POPC   C3B69861  39.698  44.053   7.085
 5461POPC   C4B69862  39.537  43.651   7.263
 5462POPC   NC369863  27.863   1.845   5.466
 5462POPC   PO469864  27.253   2.084   5.614
 5462POPC   GL169865  27.427   1.898   5.960
 5462POPC   GL269866  27.735   2.059   5.928
 5462POPC   C1A69867  27.526   1.978   6.412
 5462POPC   D2A69868  27.541   2.247   6.758
 5462POPC   C3A69869  27.557   1.954   7.043
 5462POPC   C4A69870  27.225   1.761   7.280
 5462POPC   C1B69871  27.860   1.698   6.179
 5462POPC   C2B69872  27.800   1.561   6.589
 5462POPC   C3B69873  27.967   1.590   6.984
 5462POPC   C4B69874  27.854   1.732   7.373
 5463POPC   NC369875  10.889  27.686   5.491
 5463POPC   PO469876  10.278  27.955   5.457
 5463POPC   GL169877  10.371  27.835   5.912
 5463POPC   GL269878  10.701  27.613   5.967
 5463POPC   C1A69879  10.419  27.750   6.378
 5463POPC   D2A69880  10.816  27.572   6.540
 5463POPC   C3A69881  10.761  27.607   6.984
 5463POPC   C4A69882  10.346  27.491   7.148
 5463POPC   C1B69883  10.793  28.023   6.165
 5463POPC   C2B69884  10.779  28.095   6.623
 5463POPC   C3B69885  10.449  28.030   6.932
 5463POPC   C4B69886  10.505  27.932   7.366
 5464POPC   NC369887  22.164  25.733   5.293
 5464POPC   PO469888  21.839  26.322   5.265
 5464POPC   GL169889  22.093  26.144   5.630
 5464POPC   GL269890  22.366  25.942   5.715
 5464POPC   C1A69891  22.127  26.107   6.129
 5464POPC   D2A69892  21.919  26.282   6.524
 5464POPC   C3A69893  21.892  26.067   6.922
 5464POPC   C4A69894  21.936  26.259   7.312
 5464POPC   C1B69895  22.565  25.781   6.086
 5464POPC   C2B69896  22.616  25.794   6.548
 5464POPC   C3B69897  22.430  26.000   6.932
 5464POPC   C4B69898  22.283  25.867   7.366
 5465POPC   NC369899   3.242  18.524   5.348
 5465POPC   PO469900   3.709  18.023   5.393
 5465POPC   GL169901   3.526  18.084   5.819
 5465POPC   GL269902   3.225  18.113   5.688
 5465POPC   C1A69903   3.516  18.354   6.228
 5465POPC   D2A69904   3.561  18.241   6.598
 5465POPC   C3A69905   3.782  18.431   6.884
 5465POPC   C4A69906   3.598  18.179   7.230
 5465POPC   C1B69907   3.072  18.154   6.117
 5465POPC   C2B69908   3.154  17.946   6.504
 5465POPC   C3B69909   3.205  18.091   6.922
 5465POPC   C4B69910   3.067  18.106   7.338
 5466POPC   NC369911  35.240  39.190   5.301
 5466POPC   PO469912  34.915  38.729   5.668
 5466POPC   GL169913  35.256  39.053   5.784
 5466POPC   GL269914  35.005  39.313   5.773
 5466POPC   C1A69915  35.380  39.438   6.087
 5466POPC   D2A69916  35.379  39.637   6.531
 5466POPC   C3A69917  35.532  39.473   6.957
 5466POPC   C4A69918  35.484  39.055   7.133
 5466POPC   C1B69919  35.024  39.078   6.217
 5466POPC   C2B69920  34.911  39.135   6.627
 5466POPC   C3B69921  35.056  39.317   7.018
 5466POPC   C4B69922  35.183  39.295   7.474
 5467POPC   NC369923   4.432  33.689   5.471
 5467POPC   PO469924   3.902  34.138   5.251
 5467POPC   GL169925   4.121  34.032   5.707
 5467POPC   GL269926   4.043  33.720   5.894
 5467POPC   C1A69927   4.484  33.941   6.065
 5467POPC   D2A69928   4.550  33.712   6.464
 5467POPC   C3A69929   4.254  33.807   6.834
 5467POPC   C4A69930   4.204  33.623   7.259
 5467POPC   C1B69931   4.081  33.841   6.335
 5467POPC   C2B69932   3.939  34.156   6.580
 5467POPC   C3B69933   3.963  34.317   6.968
 5467POPC   C4B69934   3.841  33.956   7.173
 5468POPC   NC369935  24.168  42.618   5.423
 5468POPC   PO469936  24.297  41.916   5.511
 5468POPC   GL169937  24.492  42.072   5.872
 5468POPC   GL269938  24.652  42.368   5.730
 5468POPC   C1A69939  24.392  42.299   6.248
 5468POPC   D2A69940  24.407  42.453   6.666
 5468POPC   C3A69941  24.500  42.101   6.923
 5468POPC   C4A69942  24.408  42.082   7.346
 5468POPC   C1B69943  24.752  42.628   6.098
 5468POPC   C2B69944  24.888  42.575   6.541
 5468POPC   C3B69945  24.791  42.534   7.017
 5468POPC   C4B69946  24.685  42.505   7.462
 5469POPC   NC369947  43.572   4.754   5.554
 5469POPC   PO469948  43.635   5.377   5.301
 5469POPC   GL169949  43.853   5.215   5.709
 5469POPC   GL269950  43.582   5.119   5.901
 5469POPC   C1A69951  43.852   5.374   6.208
 5469POPC   D2A69952  43.617   5.117   6.542
 5469POPC   C3A69953  43.818   5.140   6.941
 5469POPC   C4A69954  44.185   5.367   7.056
 5469POPC   C1B69955  43.864   4.856   6.151
 5469POPC   C2B69956  43.824   4.639   6.542
 5469POPC   C3B69957  43.666   4.659   6.947
 5469POPC   C4B69958  43.981   4.688   7.214
 5470POPC   NC369959   6.316  31.465   5.459
 5470POPC   PO469960   6.832  31.140   5.721
 5470POPC   GL169961   6.728  31.598   5.931
 5470POPC   GL269962   6.411  31.791   5.843
 5470POPC   C1A69963   6.592  31.772   6.332
 5470POPC   D2A69964   6.593  31.354   6.481
 5470POPC   C3A69965   6.667  31.244   6.905
 5470POPC   C4A69966   6.502  31.311   7.316
 5470POPC   C1B69967   6.190  31.498   6.120
 5470POPC   C2B69968   6.087  31.465   6.532
 5470POPC   C3B69969   6.342  31.657   6.836
 5470POPC   C4B69970   6.364  31.798   7.234
 5471POPC   NC369971  42.882   2.736   5.313
 5471POPC   PO469972  43.458   3.038   5.494
 5471POPC   GL169973  43.134   2.914   5.771
 5471POPC   GL269974  43.005   2.566   5.775
 5471POPC   C1A69975  43.250   2.838   6.198
 5471POPC   D2A69976  43.368   2.658   6.591
 5471POPC   C3A69977  43.091   2.751   6.963
 5471POPC   C4A69978  42.862   2.791   7.345
 5471POPC   C1B69979  42.868   2.495   6.199
 5471POPC   C2B69980  42.737   2.486   6.658
 5471POPC   C3B69981  42.770   2.358   7.098
 5471POPC   C4B69982  42.883   2.304   7.536
 5472POPC   NC369983  11.650  17.912   5.441
 5472POPC   PO469984  11.889  17.304   5.383
 5472POPC   GL169985  12.108  17.550   5.745
 5472POPC   GL269986  12.485  17.529   5.797
 5472POPC   C1A69987  12.093  17.640   6.224
 5472POPC   D2A69988  11.788  17.549   6.598
 5472POPC   C3A69989  11.823  17.655   7.049
 5472POPC   C4A69990  12.190  17.748   7.326
 5472POPC   C1B69991  12.313  17.182   6.062
 5472POPC   C2B69992  12.125  17.170   6.468
 5472POPC   C3B69993  12.230  17.392   6.860
 5472POPC   C4B69994  12.077  17.245   7.253
 5473POPC   NC369995  15.651   7.657   5.204
 5473POPC   PO469996  15.960   8.209   5.382
 5473POPC   GL169997  15.910   8.309   5.803
 5473POPC   GL269998  15.625   8.115   5.907
 5473POPC   C1A69999  15.896   8.451   6.198
 5473POPC   D2A70000  15.694   8.360   6.559
 5473POPC   C3A70001  15.943   8.603   6.822
 5473POPC   C4A70002  16.087   8.477   7.239
 5473POPC   C1B70003  16.020   7.917   6.087
 5473POPC   C2B70004  16.234   8.096   6.441
 5473POPC   C3B70005  16.070   8.121   6.839
 5473POPC   C4B70006  16.104   7.972   7.245
 5474POPC   NC370007   9.575  28.869   5.497
 5474POPC   PO470008   9.699  28.277   5.351
 5474POPC   GL170009   9.800  28.328   5.758
 5474POPC   GL270010   9.482  28.474   5.816
 5474POPC   C1A70011   9.782  28.158   6.190
 5474POPC   D2A70012   9.952  28.001   6.605
 5474POPC   C3A70013   9.747  28.189   6.946
 5474POPC   C4A70014   9.332  28.147   7.032
 5474POPC   C1B70015   9.719  28.693   6.139
 5474POPC   C2B70016   9.743  28.535   6.545
 5474POPC   C3B70017   9.588  28.656   6.943
 5474POPC   C4B70018   9.905  28.761   7.172
 5475POPC   NC370019  18.738   8.175   5.549
 5475POPC   PO470020  19.399   8.306   5.307
 5475POPC   GL170021  19.150   8.525   5.685
 5475POPC   GL270022  18.820   8.512   5.902
 5475POPC   C1A70023  19.231   8.574   6.163
 5475POPC   D2A70024  19.427   8.456   6.572
 5475POPC   C3A70025  19.179   8.399   6.947
 5475POPC   C4A70026  19.169   7.992   7.117
 5475POPC   C1B70027  18.678   8.320   6.253
 5475POPC   C2B70028  18.825   8.151   6.652
 5475POPC   C3B70029  18.701   8.189   7.073
 5475POPC   C4B70030  18.735   7.927   7.424
 5476POPC   NC370031  23.208  15.786   5.103
 5476POPC   PO470032  22.746  16.192   5.175
 5476POPC   GL170033  22.837  15.907   5.590
 5476POPC   GL270034  23.061  15.592   5.566
 5476POPC   C1A70035  22.755  15.967   6.068
 5476POPC   D2A70036  22.616  16.016   6.511
 5476POPC   C3A70037  22.817  16.233   6.852
 5476POPC   C4A70038  22.842  16.001   7.226
 5476POPC   C1B70039  23.164  15.645   6.015
 5476POPC   C2B70040  23.105  15.855   6.427
 5476POPC   C3B70041  23.160  15.829   6.856
 5476POPC   C4B70042  23.152  15.565   7.197
 5477POPC   NC370043  11.711  11.942   5.524
 5477POPC   PO470044  12.425  11.829   5.445
 5477POPC   GL170045  12.162  11.980   5.810
 5477POPC   GL270046  11.886  12.181   5.980
 5477POPC   C1A70047  12.312  12.024   6.227
 5477POPC   D2A70048  12.339  11.838   6.635
 5477POPC   C3A70049  12.241  12.051   7.032
 5477POPC   C4A70050  12.497  12.340   7.236
 5477POPC   C1B70051  11.805  11.853   6.266
 5477POPC   C2B70052  11.826  11.958   6.689
 5477POPC   C3B70053  11.769  12.247   7.020
 5477POPC   C4B70054  11.763  12.203   7.446
 5478POPC   NC370055  24.990  27.733   5.470
 5478POPC   PO470056  24.343  27.562   5.606
 5478POPC   GL170057  24.676  27.612   5.896
 5478POPC   GL270058  24.891  27.924   5.911
 5478POPC   C1A70059  24.517  27.498   6.308
 5478POPC   D2A70060  24.162  27.550   6.596
 5478POPC   C3A70061  24.258  27.409   7.039
 5478POPC   C4A70062  24.167  27.144   7.393
 5478POPC   C1B70063  24.662  27.986   6.259
 5478POPC   C2B70064  24.707  27.795   6.684
 5478POPC   C3B70065  24.900  27.927   7.062
 5478POPC   C4B70066  24.768  27.961   7.532
 5479POPC   NC370067  22.081  21.501   5.321
 5479POPC   PO470068  21.651  21.014   5.454
 5479POPC   GL170069  21.968  21.161   5.799
 5479POPC   GL270070  22.164  21.488   5.833
 5479POPC   C1A70071  22.107  21.231   6.251
 5479POPC   D2A70072  21.973  21.435   6.596
 5479POPC   C3A70073  22.147  21.398   6.978
 5479POPC   C4A70074  22.369  21.091   7.170
 5479POPC   C1B70075  22.019  21.774   6.195
 5479POPC   C2B70076  21.661  21.820   6.519
 5479POPC   C3B70077  21.843  21.822   6.949
 5479POPC   C4B70078  22.052  21.697   7.396
 5480POPC   NC370079  16.916  31.223   4.915
 5480POPC   PO470080  16.518  31.239   5.388
 5480POPC   GL170081  16.753  31.429   5.699
 5480POPC   GL270082  17.103  31.416   5.570
 5480POPC   C1A70083  16.629  31.313   6.115
 5480POPC   D2A70084  16.471  31.275   6.524
 5480POPC   C3A70085  16.580  31.584   6.829
 5480POPC   C4A70086  16.461  31.526   7.243
 5480POPC   C1B70087  17.164  31.392   6.041
 5480POPC   C2B70088  16.969  31.543   6.436
 5480POPC   C3B70089  17.106  31.555   6.873
 5480POPC   C4B70090  16.948  31.354   7.231
 5481POPC   NC370091   8.154  37.315   5.550
 5481POPC   PO470092   8.259  36.766   5.092
 5481POPC   GL170093   8.164  36.797   5.616
 5481POPC   GL270094   8.444  36.970   5.793
 5481POPC   C1A70095   8.222  36.671   6.134
 5481POPC   D2A70096   8.564  36.652   6.520
 5481POPC   C3A70097   8.453  36.735   6.994
 5481POPC   C4A70098   8.101  36.871   7.281
 5481POPC   C1B70099   8.250  37.179   6.192
 5481POPC   C2B70100   8.180  36.997   6.605
 5481POPC   C3B70101   8.261  37.237   6.962
 5481POPC   C4B70102   8.687  37.197   7.131
 5482POPC   NC370103  17.231  30.870   5.581
 5482POPC   PO470104  17.896  30.575   5.461
 5482POPC   GL170105  17.642  30.597   5.771
 5482POPC   GL270106  17.698  30.917   5.818
 5482POPC   C1A70107  17.434  30.445   6.135
 5482POPC   D2A70108  17.110  30.493   6.467
 5482POPC   C3A70109  17.321  30.456   6.894
 5482POPC   C4A70110  17.586  30.552   7.258
 5482POPC   C1B70111  17.441  30.946   6.189
 5482POPC   C2B70112  17.469  30.836   6.575
 5482POPC   C3B70113  17.646  30.910   6.932
 5482POPC   C4B70114  17.517  31.096   7.292
 5483POPC   NC370115  12.045  30.088   5.331
 5483POPC   PO470116  12.367  29.580   5.122
 5483POPC   GL170117  12.280  29.761   5.642
 5483POPC   GL270118  12.405  30.072   5.748
 5483POPC   C1A70119  12.112  29.829   6.113
 5483POPC   D2A70120  11.875  29.750   6.518
 5483POPC   C3A70121  12.190  29.591   6.847
 5483POPC   C4A70122  12.085  29.594   7.285
 5483POPC   C1B70123  12.301  30.292   6.128
 5483POPC   C2B70124  12.102  30.218   6.517
 5483POPC   C3B70125  12.002  30.061   6.926
 5483POPC   C4B70126  12.055  30.123   7.349
 5484POPC   NC370127  21.629  20.291   5.696
 5484POPC   PO470128  21.249  20.721   5.257
 5484POPC   GL170129  21.306  20.711   5.729
 5484POPC   GL270130  21.618  20.774   5.878
 5484POPC   C1A70131  21.278  20.569   6.203
 5484POPC   D2A70132  20.928  20.528   6.506
 5484POPC   C3A70133  20.978  20.649   6.907
 5484POPC   C4A70134  21.191  20.523   7.280
 5484POPC   C1B70135  21.717  20.905   6.271
 5484POPC   C2B70136  21.717  20.570   6.538
 5484POPC   C3B70137  21.458  20.412   6.838
 5484POPC   C4B70138  21.631  20.269   7.222
 5485POPC   NC370139  31.591  25.194   5.325
 5485POPC   PO470140  32.098  25.507   5.501
 5485POPC   GL170141  31.813  25.247   5.808
 5485POPC   GL270142  31.483  25.034   5.819
 5485POPC   C1A70143  31.628  25.357   6.229
 5485POPC   D2A70144  31.744  25.639   6.581
 5485POPC   C3A70145  31.709  25.424   6.981
 5485POPC   C4A70146  31.303  25.232   7.078
 5485POPC   C1B70147  31.460  24.843   6.242
 5485POPC   C2B70148  31.592  25.007   6.666
 5485POPC   C3B70149  31.717  24.930   7.111
 5485POPC   C4B70150  31.341  24.779   7.322
 5486POPC   NC370151  11.848  28.234   5.411
 5486POPC   PO470152  12.173  28.785   5.045
 5486POPC   GL170153  12.168  28.569   5.563
 5486POPC   GL270154  12.468  28.382   5.681
 5486POPC   C1A70155  11.988  28.483   6.011
 5486POPC   D2A70156  12.077  28.242   6.402
 5486POPC   C3A70157  12.060  28.505   6.813
 5486POPC   C4A70158  11.976  28.382   7.265
 5486POPC   C1B70159  12.492  28.438   6.141
 5486POPC   C2B70160  12.540  28.283   6.578
 5486POPC   C3B70161  12.351  28.104   6.964
 5486POPC   C4B70162  12.448  28.202   7.407
 5487POPC   NC370163   3.102  21.774   5.516
 5487POPC   PO470164   3.695  21.505   5.511
 5487POPC   GL170165   3.520  21.430   5.902
 5487POPC   GL270166   3.852  21.368   5.987
 5487POPC   C1A70167   3.536  21.403   6.390
 5487POPC   D2A70168   3.359  21.131   6.719
 5487POPC   C3A70169   3.307  21.298   7.118
 5487POPC   C4A70170   3.355  21.564   7.455
 5487POPC   C1B70171   3.876  21.005   6.240
 5487POPC   C2B70172   3.871  21.002   6.679
 5487POPC   C3B70173   3.817  21.359   6.950
 5487POPC   C4B70174   3.796  21.340   7.392
 5488POPC   NC370175   3.065  10.794   5.598
 5488POPC   PO470176   2.517  10.524   5.500
 5488POPC   GL170177   2.639  10.691   5.875
 5488POPC   GL270178   2.430  10.559   6.070
 5488POPC   C1A70179   2.849  10.831   6.248
 5488POPC   D2A70180   3.077  10.577   6.512
 5488POPC   C3A70181   2.956  10.667   6.900
 5488POPC   C4A70182   2.910  11.028   7.124
 5488POPC   C1B70183   2.480  10.168   6.307
 5488POPC   C2B70184   2.629  10.323   6.672
 5488POPC   C3B70185   2.497  10.498   7.054
 5488POPC   C4B70186   2.479  10.393   7.480
 5489POPC   NC370187  39.227  26.108   5.071
 5489POPC   PO470188  39.348  25.525   5.365
 5489POPC   GL170189  39.256  25.902   5.629
 5489POPC   GL270190  39.534  25.792   5.787
 5489POPC   C1A70191  39.080  26.124   6.022
 5489POPC   D2A70192  39.136  26.213   6.487
 5489POPC   C3A70193  38.923  26.067   6.884
 5489POPC   C4A70194  39.073  26.264   7.271
 5489POPC   C1B70195  39.561  26.035   6.138
 5489POPC   C2B70196  39.551  25.934   6.541
 5489POPC   C3B70197  39.433  26.090   6.924
 5489POPC   C4B70198  39.515  26.023   7.349
 5490POPC   NC370199  39.687  26.152   5.486
 5490POPC   PO470200  40.292  25.856   5.393
 5490POPC   GL170201  40.094  25.983   5.800
 5490POPC   GL270202  40.006  26.353   5.842
 5490POPC   C1A70203  40.054  26.076   6.242
 5490POPC   D2A70204  39.978  26.170   6.630
 5490POPC   C3A70205  40.214  26.038   6.958
 5490POPC   C4A70206  39.999  25.900   7.296
 5490POPC   C1B70207  39.752  26.504   6.231
 5490POPC   C2B70208  39.621  26.536   6.694
 5490POPC   C3B70209  39.827  26.343   7.083
 5490POPC   C4B70210  39.871  26.350   7.528
 5491POPC   NC370211  13.156  26.321   5.497
 5491POPC   PO470212  12.590  25.862   5.521
 5491POPC   GL170213  12.820  26.122   5.810
 5491POPC   GL270214  13.187  25.955   5.861
 5491POPC   C1A70215  12.852  26.186   6.230
 5491POPC   D2A70216  12.871  25.921   6.586
 5491POPC   C3A70217  12.603  26.001   6.949
 5491POPC   C4A70218  12.435  25.707   7.209
 5491POPC   C1B70219  13.362  26.199   6.209
 5491POPC   C2B70220  13.197  26.358   6.584
 5491POPC   C3B70221  13.074  26.205   6.951
 5491POPC   C4B70222  12.831  26.358   7.222
 5492POPC   NC370223  28.467  36.326   5.467
 5492POPC   PO470224  27.974  35.900   5.469
 5492POPC   GL170225  28.313  35.865   5.775
 5492POPC   GL270226  28.680  35.976   5.807
 5492POPC   C1A70227  28.342  35.994   6.198
 5492POPC   D2A70228  28.368  36.179   6.587
 5492POPC   C3A70229  28.527  36.014   6.956
 5492POPC   C4A70230  28.307  36.155   7.307
 5492POPC   C1B70231  28.759  36.285   6.158
 5492POPC   C2B70232  28.878  36.319   6.614
 5492POPC   C3B70233  28.941  36.521   7.031
 5492POPC   C4B70234  28.797  36.252   7.364
 5493POPC   NC370235   6.288  26.319   5.467
 5493POPC   PO470236   6.859  25.894   5.531
 5493POPC   GL170237   6.723  26.251   5.768
 5493POPC   GL270238   6.466  26.061   5.897
 5493POPC   C1A70239   6.830  26.283   6.205
 5493POPC   D2A70240   6.718  26.041   6.589
 5493POPC   C3A70241   6.795  26.188   7.027
 5493POPC   C4A70242   6.848  25.887   7.372
 5493POPC   C1B70243   6.267  25.782   6.222
 5493POPC   C2B70244   6.399  25.598   6.601
 5493POPC   C3B70245   6.530  25.755   6.978
 5493POPC   C4B70246   6.364  26.040   7.299
 5494POPC   NC370247  42.932  30.484   5.385
 5494POPC   PO470248  43.326  31.088   5.345
 5494POPC   GL170249  43.034  30.944   5.671
 5494POPC   GL270250  43.124  30.625   5.840
 5494POPC   C1A70251  42.886  31.020   6.123
 5494POPC   D2A70252  42.970  30.851   6.538
 5494POPC   C3A70253  42.912  31.047   6.926
 5494POPC   C4A70254  42.915  30.873   7.299
 5494POPC   C1B70255  43.274  30.524   6.258
 5494POPC   C2B70256  43.086  30.355   6.638
 5494POPC   C3B70257  43.284  30.327   7.058
 5494POPC   C4B70258  43.190  30.436   7.462
 5495POPC   NC370259  14.645  16.027   5.644
 5495POPC   PO470260  14.156  16.423   5.515
 5495POPC   GL170261  14.187  16.007   5.864
 5495POPC   GL270262  14.489  15.923   6.082
 5495POPC   C1A70263  14.101  15.809   6.344
 5495POPC   D2A70264  14.524  15.954   6.579
 5495POPC   C3A70265  14.556  16.062   6.968
 5495POPC   C4A70266  14.170  15.959   7.150
 5495POPC   C1B70267  14.781  15.646   6.263
 5495POPC   C2B70268  14.943  15.638   6.676
 5495POPC   C3B70269  14.785  15.615   7.065
 5495POPC   C4B70270  14.842  15.653   7.500
 5496POPC   NC370271  31.000   7.202   5.343
 5496POPC   PO470272  31.522   7.624   5.359
 5496POPC   GL170273  31.346   7.530   5.744
 5496POPC   GL270274  31.657   7.360   5.820
 5496POPC   C1A70275  31.369   7.557   6.215
 5496POPC   D2A70276  31.202   7.537   6.622
 5496POPC   C3A70277  31.434   7.563   6.995
 5496POPC   C4A70278  31.301   7.408   7.394
 5496POPC   C1B70279  31.881   7.576   6.164
 5496POPC   C2B70280  31.800   7.477   6.595
 5496POPC   C3B70281  31.944   7.351   6.977
 5496POPC   C4B70282  31.793   7.235   7.355
 5497POPC   NC370283  15.402   3.693   5.379
 5497POPC   PO470284  14.937   3.192   5.469
 5497POPC   GL170285  15.229   3.401   5.779
 5497POPC   GL270286  15.253   3.766   5.882
 5497POPC   C1A70287  15.124   3.402   6.238
 5497POPC   D2A70288  14.833   3.639   6.554
 5497POPC   C3A70289  14.883   3.509   6.979
 5497POPC   C4A70290  15.147   3.208   7.183
 5497POPC   C1B70291  15.276   3.862   6.343
 5497POPC   C2B70292  15.296   3.797   6.763
 5497POPC   C3B70293  15.370   3.691   7.173
 5497POPC   C4B70294  15.548   3.680   7.573
 5498POPC   NC370295  22.983  17.695   5.298
 5498POPC   PO470296  22.712  17.108   5.400
 5498POPC   GL170297  22.919  17.335   5.791
 5498POPC   GL270298  23.055  17.706   5.805
 5498POPC   C1A70299  22.838  17.499   6.228
 5498POPC   D2A70300  22.775  17.757   6.595
 5498POPC   C3A70301  22.784  17.547   6.966
 5498POPC   C4A70302  22.971  17.226   7.210
 5498POPC   C1B70303  23.287  18.039   6.060
 5498POPC   C2B70304  23.355  18.062   6.503
 5498POPC   C3B70305  23.190  17.888   6.889
 5498POPC   C4B70306  23.212  17.685   7.276
 5499POPC   NC370307   0.511   6.198   5.416
 5499POPC   PO470308   0.688   5.579   5.296
 5499POPC   GL170309   0.633   5.720   5.759
 5499POPC   GL270310   0.320   5.936   5.824
 5499POPC   C1A70311   0.502   5.707   6.229
 5499POPC   D2A70312   0.430   5.863   6.651
 5499POPC   C3A70313   0.534   5.628   7.026
 5499POPC   C4A70314   0.764   5.859   7.331
 5499POPC   C1B70315   0.166   6.134   6.233
 5499POPC   C2B70316   0.134   6.325   6.643
 5499POPC   C3B70317   0.036   6.191   7.049
 5499POPC   C4B70318   0.279   5.976   7.354
 5500POPC   NC370319  40.422  15.225   5.424
 5500POPC   PO470320  41.109  15.136   5.614
 5500POPC   GL170321  40.788  15.141   5.894
 5500POPC   GL270322  40.674  15.464   5.858
 5500POPC   C1A70323  40.595  15.130   6.299
 5500POPC   D2A70324  40.550  15.331   6.690
 5500POPC   C3A70325  40.398  15.023   6.974
 5500POPC   C4A70326  40.718  14.854   7.213
 5500POPC   C1B70327  40.845  15.623   6.279
 5500POPC   C2B70328  41.035  15.597   6.713
 5500POPC   C3B70329  40.883  15.467   7.114
 5500POPC   C4B70330  40.467  15.419   7.291
 5501POPC   NC370331  11.397  11.318   5.382
 5501POPC   PO470332  10.760  11.116   5.375
 5501POPC   GL170333  11.054  11.213   5.754
 5501POPC   GL270334  11.313  11.481   5.850
 5501POPC   C1A70335  11.123  11.100   6.200
 5501POPC   D2A70336  11.038  11.325   6.604
 5501POPC   C3A70337  11.207  11.233   6.999
 5501POPC   C4A70338  11.320  11.403   7.407
 5501POPC   C1B70339  11.597  11.308   6.203
 5501POPC   C2B70340  11.557  11.074   6.631
 5501POPC   C3B70341  11.711  11.221   7.069
 5501POPC   C4B70342  11.772  11.258   7.554
 5502POPC   NC370343  10.561   9.846   5.328
 5502POPC   PO470344  10.843  10.354   5.414
 5502POPC   GL170345  10.766  10.010   5.747
 5502POPC   GL270346  10.772   9.634   5.762
 5502POPC   C1A70347  10.631  10.007   6.166
 5502POPC   D2A70348  10.774   9.788   6.501
 5502POPC   C3A70349  10.578   9.727   6.907
 5502POPC   C4A70350  10.530   9.860   7.308
 5502POPC   C1B70351  10.537   9.496   6.135
 5502POPC   C2B70352  10.315   9.461   6.539
 5502POPC   C3B70353  10.294   9.308   6.978
 5502POPC   C4B70354  10.401   9.386   7.450
 5503POPC   NC370355   7.150   6.487   5.437
 5503POPC   PO470356   7.790   6.273   5.544
 5503POPC   GL170357   7.466   6.394   5.865
 5503POPC   GL270358   7.237   6.674   5.912
 5503POPC   C1A70359   7.228   6.357   6.297
 5503POPC   D2A70360   7.389   6.303   6.712
 5503POPC   C3A70361   7.303   6.487   7.083
 5503POPC   C4A70362   7.484   6.839   7.228
 5503POPC   C1B70363   7.291   6.881   6.311
 5503POPC   C2B70364   7.106   6.747   6.691
 5503POPC   C3B70365   7.009   6.948   7.094
 5503POPC   C4B70366   7.037   6.789   7.486
 5504POPC   NC370367  41.227  39.972   5.664
 5504POPC   PO470368  40.540  39.996   5.484
 5504POPC   GL170369  40.781  40.199   5.815
 5504POPC   GL270370  40.785  39.850   5.962
 5504POPC   C1A70371  40.983  40.192   6.251
 5504POPC   D2A70372  40.826  39.867   6.527
 5504POPC   C3A70373  40.781  39.996   6.965
 5504POPC   C4A70374  40.999  40.103   7.322
 5504POPC   C1B70375  40.456  40.088   6.198
 5504POPC   C2B70376  40.335  39.959   6.613
 5504POPC   C3B70377  40.298  40.157   7.009
 5504POPC   C4B70378  40.498  40.285   7.397
 5505POPC   NC370379  23.003  18.695   5.302
 5505POPC   PO470380  22.792  18.109   5.331
 5505POPC   GL170381  22.711  18.122   5.754
 5505POPC   GL270382  22.957  18.377   5.806
 5505POPC   C1A70383  22.794  18.053   6.185
 5505POPC   D2A70384  22.913  18.322   6.539
 5505POPC   C3A70385  22.758  18.177   6.908
 5505POPC   C4A70386  22.906  18.099   7.280
 5505POPC   C1B70387  23.170  18.595   6.164
 5505POPC   C2B70388  23.401  18.607   6.563
 5505POPC   C3B70389  23.324  18.379   6.932
 5505POPC   C4B70390  23.220  18.503   7.348
 5506POPC   NC370391  28.507   2.152   5.323
 5506POPC   PO470392  28.236   1.572   5.510
 5506POPC   GL170393  28.238   1.755   5.862
 5506POPC   GL270394  28.218   2.091   5.763
 5506POPC   C1A70395  28.336   1.617   6.292
 5506POPC   D2A70396  28.484   1.808   6.671
 5506POPC   C3A70397  28.471   1.627   7.073
 5506POPC   C4A70398  28.324   1.672   7.520
 5506POPC   C1B70399  28.156   2.123   6.226
 5506POPC   C2B70400  28.010   2.022   6.663
 5506POPC   C3B70401  28.151   2.059   7.115
 5506POPC   C4B70402  28.098   2.274   7.523
 5507POPC   NC370403  12.254  19.675   5.237
 5507POPC   PO470404  12.271  19.020   5.423
 5507POPC   GL170405  12.211  19.093   5.877
 5507POPC   GL270406  12.557  19.134   5.917
 5507POPC   C1A70407  11.867  19.093   6.227
 5507POPC   D2A70408  11.914  18.975   6.663
 5507POPC   C3A70409  11.957  19.226   7.056
 5507POPC   C4A70410  12.050  19.249   7.544
 5507POPC   C1B70411  12.399  19.069   6.350
 5507POPC   C2B70412  12.430  19.060   6.792
 5507POPC   C3B70413  12.392  19.054   7.218
 5507POPC   C4B70414  12.586  19.124   7.609
 5508POPC   NC370415  33.101  21.802   5.469
 5508POPC   PO470416  32.716  22.348   5.443
 5508POPC   GL170417  32.761  22.048   5.777
 5508POPC   GL270418  33.119  22.191   5.816
 5508POPC   C1A70419  32.834  22.014   6.229
 5508POPC   D2A70420  32.776  22.324   6.551
 5508POPC   C3A70421  32.990  22.315   6.955
 5508POPC   C4A70422  32.846  22.502   7.326
 5508POPC   C1B70423  33.384  22.113   6.173
 5508POPC   C2B70424  33.275  22.088   6.589
 5508POPC   C3B70425  33.401  21.966   7.003
 5508POPC   C4B70426  33.391  22.118   7.417
 5509POPC   NC370427   7.221  22.445   5.312
 5509POPC   PO470428   7.485  21.851   5.430
 5509POPC   GL170429   7.603  22.056   5.780
 5509POPC   GL270430   7.568  22.362   5.674
 5509POPC   C1A70431   7.760  22.260   6.143
 5509POPC   D2A70432   7.538  22.275   6.516
 5509POPC   C3A70433   7.738  22.132   6.902
 5509POPC   C4A70434   7.556  21.860   7.230
 5509POPC   C1B70435   7.246  22.372   6.029
 5509POPC   C2B70436   7.112  22.561   6.421
 5509POPC   C3B70437   7.160  22.417   6.845
 5509POPC   C4B70438   7.355  22.317   7.212
 5510POPC   NC370439  31.542  39.203   4.883
 5510POPC   PO470440  31.659  39.351   5.531
 5510POPC   GL170441  31.625  39.144   5.930
 5510POPC   GL270442  31.343  39.339   6.027
 5510POPC   C1A70443  31.513  38.958   6.343
 5510POPC   D2A70444  31.230  39.054   6.695
 5510POPC   C3A70445  31.429  39.101   7.126
 5510POPC   C4A70446  31.831  39.073   7.332
 5510POPC   C1B70447  31.731  39.425   6.327
 5510POPC   C2B70448  31.715  39.318   6.756
 5510POPC   C3B70449  31.654  39.560   7.129
 5510POPC   C4B70450  31.566  39.634   7.533
 5511POPC   NC370451  41.335  42.427   5.358
 5511POPC   PO470452  41.829  42.018   5.336
 5511POPC   GL170453  41.646  42.204   5.737
 5511POPC   GL270454  41.578  42.561   5.785
 5511POPC   C1A70455  41.497  42.250   6.178
 5511POPC   D2A70456  41.493  42.094   6.579
 5511POPC   C3A70457  41.391  42.353   6.913
 5511POPC   C4A70458  41.327  42.265   7.345
 5511POPC   C1B70459  41.548  42.786   6.158
 5511POPC   C2B70460  41.651  42.649   6.532
 5511POPC   C3B70461  41.790  42.808   6.875
 5511POPC   C4B70462  41.581  42.706   7.238
 5512POPC   NC370463  11.765  29.107   5.542
 5512POPC   PO470464  11.132  29.494   5.551
 5512POPC   GL170465  11.252  29.155   5.837
 5512POPC   GL270466  11.240  28.809   5.723
 5512POPC   C1A70467  11.049  29.006   6.236
 5512POPC   D2A70468  10.975  29.108   6.684
 5512POPC   C3A70469  11.265  29.190   7.055
 5512POPC   C4A70470  11.164  29.276   7.517
 5512POPC   C1B70471  11.465  28.716   6.128
 5512POPC   C2B70472  11.408  28.843   6.585
 5512POPC   C3B70473  11.613  28.770   6.999
 5512POPC   C4B70474  11.438  28.851   7.414
 5513POPC   NC370475  31.356   9.994   5.207
 5513POPC   PO470476  31.940   9.751   5.332
 5513POPC   GL170477  31.702   9.888   5.678
 5513POPC   GL270478  31.356   9.899   5.707
 5513POPC   C1A70479  31.666   9.777   6.106
 5513POPC   D2A70480  31.377   9.557   6.395
 5513POPC   C3A70481  31.560   9.616   6.810
 5513POPC   C4A70482  31.486   9.758   7.220
 5513POPC   C1B70483  31.230  10.041   6.123
 5513POPC   C2B70484  31.168   9.988   6.557
 5513POPC   C3B70485  31.296  10.135   6.947
 5513POPC   C4B70486  31.142  10.098   7.385
 5514POPC   NC370487  16.010   2.240   5.391
 5514POPC   PO470488  16.137   1.644   5.552
 5514POPC   GL170489  16.088   2.037   5.855
 5514POPC   GL270490  16.326   2.311   5.825
 5514POPC   C1A70491  15.892   2.214   6.255
 5514POPC   D2A70492  15.944   1.974   6.654
 5514POPC   C3A70493  15.803   2.069   7.080
 5514POPC   C4A70494  15.618   1.837   7.452
 5514POPC   C1B70495  16.398   2.268   6.280
 5514POPC   C2B70496  16.192   2.414   6.659
 5514POPC   C3B70497  16.307   2.263   7.071
 5514POPC   C4B70498  16.695   2.195   7.271
 5515POPC   NC370499  41.402   9.929   5.405
 5515POPC   PO470500  41.921   9.446   5.457
 5515POPC   GL170501  41.943   9.601   5.858
 5515POPC   GL270502  41.752   9.886   5.798
 5515POPC   C1A70503  41.641   9.534   6.202
 5515POPC   D2A70504  41.284   9.699   6.441
 5515POPC   C3A70505  41.436   9.725   6.851
 5515POPC   C4A70506  41.639   9.412   7.079
 5515POPC   C1B70507  41.508  10.042   6.120
 5515POPC   C2B70508  41.706  10.024   6.524
 5515POPC   C3B70509  41.736  10.185   6.952
 5515POPC   C4B70510  41.446   9.981   7.284
 5516POPC   NC370511  40.206  16.649   5.466
 5516POPC   PO470512  39.898  17.178   5.442
 5516POPC   GL170513  39.932  16.944   5.814
 5516POPC   GL270514  40.307  16.924   5.874
 5516POPC   C1A70515  39.758  16.828   6.212
 5516POPC   D2A70516  39.911  16.934   6.620
 5516POPC   C3A70517  39.681  16.805   6.981
 5516POPC   C4A70518  39.709  16.549   7.331
 5516POPC   C1B70519  40.249  16.616   6.184
 5516POPC   C2B70520  40.376  16.543   6.592
 5516POPC   C3B70521  40.160  16.630   6.950
 5516POPC   C4B70522  40.135  16.827   7.330
 5517POPC   NC370523  36.721  37.906   5.526
 5517POPC   PO470524  37.146  37.475   5.448
 5517POPC   GL170525  37.098  37.747   5.817
 5517POPC   GL270526  37.108  37.496   6.005
 5517POPC   C1A70527  36.915  37.908   6.231
 5517POPC   D2A70528  36.986  37.777   6.699
 5517POPC   C3A70529  36.726  37.925   7.073
 5517POPC   C4A70530  36.786  37.817   7.519
 5517POPC   C1B70531  36.788  37.381   6.280
 5517POPC   C2B70532  36.773  37.317   6.716
 5517POPC   C3B70533  36.867  37.442   7.133
 5517POPC   C4B70534  36.878  37.290   7.551
 5518POPC   NC370535  25.993  29.389   5.412
 5518POPC   PO470536  25.865  28.783   5.393
 5518POPC   GL170537  25.904  29.005   5.781
 5518POPC   GL270538  26.233  29.138   5.781
 5518POPC   C1A70539  25.887  29.151   6.218
 5518POPC   D2A70540  25.730  29.324   6.613
 5518POPC   C3A70541  25.935  29.078   6.919
 5518POPC   C4A70542  26.127  28.817   7.190
 5518POPC   C1B70543  26.250  29.503   6.118
 5518POPC   C2B70544  26.123  29.729   6.522
 5518POPC   C3B70545  26.060  29.575   6.946
 5518POPC   C4B70546  26.284  29.302   7.238
 5519POPC   NC370547   3.035   8.419   5.343
 5519POPC   PO470548   2.625   7.910   5.258
 5519POPC   GL170549   2.589   8.104   5.709
 5519POPC   GL270550   2.908   8.306   5.846
 5519POPC   C1A70551   2.603   7.983   6.155
 5519POPC   D2A70552   2.883   8.138   6.479
 5519POPC   C3A70553   2.948   7.955   6.888
 5519POPC   C4A70554   2.803   8.111   7.267
 5519POPC   C1B70555   2.569   8.475   6.113
 5519POPC   C2B70556   2.413   8.367   6.518
 5519POPC   C3B70557   2.670   8.439   6.849
 5519POPC   C4B70558   2.640   8.673   7.192
 5520POPC   NC370559  25.368  36.430   5.356
 5520POPC   PO470560  25.149  35.768   5.326
 5520POPC   GL170561  25.198  35.913   5.731
 5520POPC   GL270562  25.514  36.080   5.727
 5520POPC   C1A70563  25.046  35.927   6.189
 5520POPC   D2A70564  24.916  36.176   6.564
 5520POPC   C3A70565  25.022  36.082   6.993
 5520POPC   C4A70566  25.034  36.364   7.350
 5520POPC   C1B70567  25.559  36.117   6.187
 5520POPC   C2B70568  25.464  36.196   6.636
 5520POPC   C3B70569  25.535  35.939   7.018
 5520POPC   C4B70570  25.395  35.998   7.448
 5521POPC   NC370571  10.865  10.745   5.643
 5521POPC   PO470572  10.299  10.456   5.358
 5521POPC   GL170573  10.375  10.636   5.804
 5521POPC   GL270574  10.577  10.430   5.913
 5521POPC   C1A70575  10.696  10.756   6.261
 5521POPC   D2A70576  11.051  10.775   6.603
 5521POPC   C3A70577  10.989  10.648   7.050
 5521POPC   C4A70578  10.667  10.600   7.383
 5521POPC   C1B70579  10.287  10.434   6.274
 5521POPC   C2B70580  10.285  10.514   6.721
 5521POPC   C3B70581  10.398  10.298   7.079
 5521POPC   C4B70582  10.186  10.211   7.493
 5522POPC   NC370583  31.576  43.202   5.115
 5522POPC   PO470584  31.856  42.757   5.517
 5522POPC   GL170585  31.661  42.884   5.915
 5522POPC   GL270586  31.566  43.205   5.875
 5522POPC   C1A70587  31.488  43.037   6.340
 5522POPC   D2A70588  31.184  43.235   6.618
 5522POPC   C3A70589  31.340  43.168   7.031
 5522POPC   C4A70590  31.631  42.803   7.056
 5522POPC   C1B70591  31.756  43.474   6.245
 5522POPC   C2B70592  31.750  43.342   6.697
 5522POPC   C3B70593  31.707  43.568   7.083
 5522POPC   C4B70594  31.704  43.547   7.572
 5523POPC   NC370595  42.302  32.550   5.163
 5523POPC   PO470596  42.338  32.067   5.661
 5523POPC   GL170597  42.007  32.284   5.847
 5523POPC   GL270598  42.154  32.560   5.671
 5523POPC   C1A70599  41.989  32.255   6.305
 5523POPC   D2A70600  42.385  32.105   6.430
 5523POPC   C3A70601  42.480  32.112   6.854
 5523POPC   C4A70602  42.197  32.210   7.178
 5523POPC   C1B70603  42.400  32.535   6.091
 5523POPC   C2B70604  42.328  32.616   6.510
 5523POPC   C3B70605  42.599  32.744   6.819
 5523POPC   C4B70606  42.680  32.482   7.179
 5524POPC   NC370607  31.316  14.402   5.142
 5524POPC   PO470608  31.930  14.374   5.440
 5524POPC   GL170609  31.680  14.332   5.823
 5524POPC   GL270610  31.346  14.410   5.720
 5524POPC   C1A70611  31.568  14.535   6.223
 5524POPC   D2A70612  31.534  14.440   6.651
 5524POPC   C3A70613  31.373  14.175   6.975
 5524POPC   C4A70614  31.469  14.465   7.288
 5524POPC   C1B70615  31.085  14.428   6.106
 5524POPC   C2B70616  31.031  14.581   6.545
 5524POPC   C3B70617  31.179  14.695   6.951
 5524POPC   C4B70618  31.019  14.709   7.368
 5525POPC   NC370619  42.042  26.833   5.446
 5525POPC   PO470620  42.701  27.093   5.420
 5525POPC   GL170621  42.437  26.878   5.817
 5525POPC   GL270622  42.099  26.666   5.912
 5525POPC   C1A70623  42.340  26.896   6.293
 5525POPC   D2A70624  42.256  27.170   6.653
 5525POPC   C3A70625  42.187  26.962   7.059
 5525POPC   C4A70626  42.277  26.887   7.531
 5525POPC   C1B70627  42.146  26.410   6.306
 5525POPC   C2B70628  42.238  26.468   6.764
 5525POPC   C3B70629  42.332  26.504   7.214
 5525POPC   C4B70630  42.256  26.404   7.711
 5526POPC   NC370631  37.526   9.167   5.465
 5526POPC   PO470632  38.030   8.780   5.492
 5526POPC   GL170633  37.844   8.927   5.849
 5526POPC   GL270634  37.515   8.808   5.827
 5526POPC   C1A70635  38.076   8.878   6.234
 5526POPC   D2A70636  38.232   8.769   6.641
 5526POPC   C3A70637  37.916   8.898   6.907
 5526POPC   C4A70638  37.878   9.079   7.272
 5526POPC   C1B70639  37.554   8.989   6.282
 5526POPC   C2B70640  37.523   9.350   6.590
 5526POPC   C3B70641  37.441   9.191   7.021
 5526POPC   C4B70642  37.495   8.756   7.208
 5527POPC   NC370643   3.884  35.397   5.293
 5527POPC   PO470644   3.325  35.706   5.521
 5527POPC   GL170645   3.490  35.604   5.915
 5527POPC   GL270646   3.744  35.429   5.793
 5527POPC   C1A70647   3.495  35.583   6.368
 5527POPC   D2A70648   3.193  35.553   6.681
 5527POPC   C3A70649   3.368  35.717   7.025
 5527POPC   C4A70650   3.668  35.574   7.297
 5527POPC   C1B70651   3.561  35.142   6.142
 5527POPC   C2B70652   3.490  35.099   6.579
 5527POPC   C3B70653   3.448  35.200   7.008
 5527POPC   C4B70654   3.399  35.018   7.416
 5528POPC   NC370655  12.821  21.400   5.357
 5528POPC   PO470656  13.154  20.816   5.500
 5528POPC   GL170657  13.046  21.208   5.839
 5528POPC   GL270658  12.888  21.593   5.823
 5528POPC   C1A70659  12.972  21.395   6.281
 5528POPC   D2A70660  13.091  21.395   6.723
 5528POPC   C3A70661  12.893  21.240   7.102
 5528POPC   C4A70662  12.935  21.355   7.558
 5528POPC   C1B70663  12.605  21.777   6.133
 5528POPC   C2B70664  12.607  21.645   6.560
 5528POPC   C3B70665  12.698  21.763   6.960
 5528POPC   C4B70666  12.639  21.689   7.346
 5529POPC   NC370667  42.637   7.160   5.213
 5529POPC   PO470668  42.208   7.560   5.121
 5529POPC   GL170669  42.209   7.446   5.607
 5529POPC   GL270670  42.281   7.069   5.694
 5529POPC   C1A70671  42.287   7.607   6.060
 5529POPC   D2A70672  42.438   7.808   6.464
 5529POPC   C3A70673  42.631   7.551   6.818
 5529POPC   C4A70674  42.520   7.556   7.281
 5529POPC   C1B70675  42.438   7.123   6.143
 5529POPC   C2B70676  42.273   7.214   6.566
 5529POPC   C3B70677  42.401   7.116   7.005
 5529POPC   C4B70678  42.498   7.046   7.454
 5530POPC   NC370679   6.799  27.147   5.233
 5530POPC   PO470680   6.224  26.779   5.430
 5530POPC   GL170681   6.475  26.743   5.754
 5530POPC   GL270682   6.375  27.080   5.822
 5530POPC   C1A70683   6.515  26.733   6.201
 5530POPC   D2A70684   6.672  26.575   6.598
 5530POPC   C3A70685   6.970  26.809   6.843
 5530POPC   C4A70686   6.862  26.654   7.235
 5530POPC   C1B70687   6.377  27.243   6.222
 5530POPC   C2B70688   6.540  27.087   6.592
 5530POPC   C3B70689   6.488  26.930   6.981
 5530POPC   C4B70690   6.436  27.093   7.369
 5531POPC   NC370691  44.577  10.315   5.156
 5531POPC   PO470692  44.044  10.688   5.171
 5531POPC   GL170693  44.028  10.591   5.642
 5531POPC   GL270694  43.668  10.619   5.792
 5531POPC   C1A70695  44.064  10.706   6.103
 5531POPC   D2A70696  43.920  10.909   6.472
 5531POPC   C3A70697  44.014  10.762   6.888
 5531POPC   C4A70698  44.139  10.406   7.108
 5531POPC   C1B70699  43.581  10.550   6.253
 5531POPC   C2B70700  43.551  10.621   6.691
 5531POPC   C3B70701  43.623  10.482   7.094
 5531POPC   C4B70702  43.575  10.724   7.453
 5532POPC   NC370703  40.936  38.788   5.201
 5532POPC   PO470704  40.701  38.148   5.444
 5532POPC   GL170705  40.785  38.504   5.751
 5532POPC   GL270706  41.134  38.650   5.734
 5532POPC   C1A70707  40.655  38.525   6.215
 5532POPC   D2A70708  40.680  38.721   6.653
 5532POPC   C3A70709  40.658  38.451   7.038
 5532POPC   C4A70710  40.511  38.374   7.474
 5532POPC   C1B70711  41.144  38.401   6.130
 5532POPC   C2B70712  41.144  38.319   6.553
 5532POPC   C3B70713  41.140  38.265   6.963
 5532POPC   C4B70714  41.143  38.662   7.127
 5533POPC   NC370715  24.797  16.726   5.363
 5533POPC   PO470716  24.263  16.406   5.272
 5533POPC   GL170717  24.379  16.704   5.692
 5533POPC   GL270718  24.646  17.012   5.751
 5533POPC   C1A70719  24.155  16.814   6.098
 5533POPC   D2A70720  24.082  16.958   6.513
 5533POPC   C3A70721  24.334  16.906   6.871
 5533POPC   C4A70722  24.331  16.683   7.235
 5533POPC   C1B70723  24.654  16.846   6.166
 5533POPC   C2B70724  24.774  16.840   6.593
 5533POPC   C3B70725  24.872  17.043   6.967
 5533POPC   C4B70726  24.707  16.993   7.382
 5534POPC   NC370727  27.593  17.415   4.914
 5534POPC   PO470728  27.846  17.657   5.350
 5534POPC   GL170729  27.941  17.440   5.770
 5534POPC   GL270730  27.787  17.101   5.796
 5534POPC   C1A70731  27.869  17.425   6.252
 5534POPC   D2A70732  27.570  17.461   6.616
 5534POPC   C3A70733  27.651  17.390   7.089
 5534POPC   C4A70734  27.500  17.680   7.442
 5534POPC   C1B70735  27.601  17.003   6.235
 5534POPC   C2B70736  27.664  16.964   6.694
 5534POPC   C3B70737  27.561  16.829   7.115
 5534POPC   C4B70738  27.795  16.813   7.515
 5535POPC   NC370739  37.923  13.186   5.436
 5535POPC   PO470740  37.433  12.794   5.427
 5535POPC   GL170741  37.647  12.650   5.819
 5535POPC   GL270742  37.921  12.894   5.872
 5535POPC   C1A70743  37.703  12.697   6.283
 5535POPC   D2A70744  37.614  12.837   6.675
 5535POPC   C3A70745  37.532  12.524   6.997
 5535POPC   C4A70746  37.461  12.707   7.420
 5535POPC   C1B70747  38.013  13.137   6.255
 5535POPC   C2B70748  38.103  13.002   6.697
 5535POPC   C3B70749  37.879  12.915   7.112
 5535POPC   C4B70750  37.931  12.891   7.560
 5536POPC   NC370751  11.522  40.033   5.545
 5536POPC   PO470752  11.025  39.580   5.310
 5536POPC   GL170753  11.057  39.810   5.755
 5536POPC   GL270754  10.997  40.191   5.842
 5536POPC   C1A70755  11.299  39.916   6.163
 5536POPC   D2A70756  11.543  39.676   6.492
 5536POPC   C3A70757  11.610  39.825   6.932
 5536POPC   C4A70758  11.382  39.832   7.352
 5536POPC   C1B70759  11.084  40.367   6.271
 5536POPC   C2B70760  11.408  40.211   6.586
 5536POPC   C3B70761  11.247  40.174   6.987
 5536POPC   C4B70762  10.832  40.310   7.127
 5537POPC   NC370763   3.879  30.145   5.436
 5537POPC   PO470764   3.379  29.756   5.436
 5537POPC   GL170765   3.584  29.915   5.800
 5537POPC   GL270766   3.730  29.609   5.877
 5537POPC   C1A70767   3.568  30.018   6.244
 5537POPC   D2A70768   3.367  30.048   6.647
 5537POPC   C3A70769   3.695  30.227   6.889
 5537POPC   C4A70770   3.656  30.266   7.297
 5537POPC   C1B70771   3.718  29.517   6.320
 5537POPC   C2B70772   3.725  29.697   6.728
 5537POPC   C3B70773   3.762  29.793   7.153
 5537POPC   C4B70774   3.820  29.886   7.605
 5538POPC   NC370775  42.499  39.300   5.341
 5538POPC   PO470776  41.894  39.624   5.392
 5538POPC   GL170777  42.109  39.359   5.711
 5538POPC   GL270778  42.088  38.982   5.636
 5538POPC   C1A70779  42.435  39.399   6.063
 5538POPC   D2A70780  42.529  39.317   6.524
 5538POPC   C3A70781  42.398  39.515   6.938
 5538POPC   C4A70782  42.125  39.742   7.247
 5538POPC   C1B70783  42.123  38.986   6.092
 5538POPC   C2B70784  42.266  38.864   6.498
 5538POPC   C3B70785  42.318  38.989   6.906
 5538POPC   C4B70786  42.037  39.205   7.194
 5539POPC   NC370787   1.665  23.616   5.410
 5539POPC   PO470788   2.120  23.977   5.441
 5539POPC   GL170789   1.940  23.770   5.834
 5539POPC   GL270790   1.767  23.436   5.877
 5539POPC   C1A70791   1.956  23.857   6.277
 5539POPC   D2A70792   2.191  24.076   6.602
 5539POPC   C3A70793   2.078  23.978   6.995
 5539POPC   C4A70794   2.183  23.799   7.388
 5539POPC   C1B70795   1.653  23.444   6.314
 5539POPC   C2B70796   1.734  23.665   6.706
 5539POPC   C3B70797   1.781  23.591   7.140
 5539POPC   C4B70798   1.723  23.566   7.585
 5540POPC   NC370799  38.053  39.902   5.490
 5540POPC   PO470800  38.549  40.097   4.963
 5540POPC   GL170801  38.639  40.135   5.495
 5540POPC   GL270802  38.972  40.148   5.697
 5540POPC   C1A70803  38.545  39.977   5.992
 5540POPC   D2A70804  38.511  39.673   6.408
 5540POPC   C3A70805  38.417  39.751   6.885
 5540POPC   C4A70806  38.442  39.972   7.327
 5540POPC   C1B70807  38.999  40.169   6.157
 5540POPC   C2B70808  38.960  39.975   6.552
 5540POPC   C3B70809  38.880  39.985   6.994
 5540POPC   C4B70810  38.908  40.272   7.351
 5541POPC   NC370811  36.037  14.162   5.360
 5541POPC   PO470812  36.599  14.418   5.442
 5541POPC   GL170813  36.316  14.427   5.858
 5541POPC   GL270814  36.001  14.203   5.862
 5541POPC   C1A70815  36.028  14.642   6.226
 5541POPC   D2A70816  35.903  14.700   6.705
 5541POPC   C3A70817  36.068  14.395   7.022
 5541POPC   C4A70818  36.217  14.334   7.462
 5541POPC   C1B70819  36.080  14.103   6.278
 5541POPC   C2B70820  35.772  14.207   6.596
 5541POPC   C3B70821  35.642  14.085   7.003
 5541POPC   C4B70822  35.964  13.943   7.277
 5542POPC   NC370823  26.451  26.849   5.563
 5542POPC   PO470824  26.178  27.177   5.046
 5542POPC   GL170825  25.913  27.129   5.537
 5542POPC   GL270826  26.025  26.887   5.802
 5542POPC   C1A70827  25.748  27.184   6.057
 5542POPC   D2A70828  25.881  27.064   6.508
 5542POPC   C3A70829  25.710  26.811   6.867
 5542POPC   C4A70830  25.630  26.940   7.287
 5542POPC   C1B70831  26.047  26.677   6.221
 5542POPC   C2B70832  26.174  26.658   6.672
 5542POPC   C3B70833  26.387  26.469   7.029
 5542POPC   C4B70834  26.200  26.096   7.249
 5543POPC   NC370835   3.507  38.155   5.286
 5543POPC   PO470836   3.019  38.618   5.341
 5543POPC   GL170837   3.304  38.551   5.720
 5543POPC   GL270838   3.406  38.175   5.792
 5543POPC   C1A70839   3.366  38.693   6.167
 5543POPC   D2A70840   3.405  38.475   6.569
 5543POPC   C3A70841   3.642  38.630   6.908
 5543POPC   C4A70842   3.473  38.603   7.289
 5543POPC   C1B70843   3.663  38.240   6.192
 5543POPC   C2B70844   3.851  38.237   6.631
 5543POPC   C3B70845   3.576  38.145   7.015
 5543POPC   C4B70846   3.535  38.156   7.491
 5544POPC   NC370847  11.400  22.060   5.157
 5544POPC   PO470848  11.267  22.633   5.400
 5544POPC   GL170849  11.139  22.361   5.740
 5544POPC   GL270850  11.239  22.008   5.677
 5544POPC   C1A70851  11.181  22.223   6.172
 5544POPC   D2A70852  11.139  21.878   6.465
 5544POPC   C3A70853  11.054  22.063   6.846
 5544POPC   C4A70854  11.182  22.397   7.130
 5544POPC   C1B70855  11.487  21.816   6.037
 5544POPC   C2B70856  11.641  21.736   6.473
 5544POPC   C3B70857  11.568  21.967   6.871
 5544POPC   C4B70858  11.328  21.919   7.284
 5545POPC   NC370859  13.934  19.876   5.311
 5545POPC   PO470860  14.557  20.151   5.312
 5545POPC   GL170861  14.476  19.799   5.659
 5545POPC   GL270862  14.112  19.733   5.779
 5545POPC   C1A70863  14.512  19.619   6.087
 5545POPC   D2A70864  14.348  19.778   6.475
 5545POPC   C3A70865  14.276  19.652   6.895
 5545POPC   C4A70866  14.472  19.968   7.197
 5545POPC   C1B70867  14.236  20.079   6.041
 5545POPC   C2B70868  14.092  20.220   6.449
 5545POPC   C3B70869  14.098  20.117   6.869
 5545POPC   C4B70870  14.083  20.312   7.273
 5546POPC   NC370871  20.834   5.165   5.022
 5546POPC   PO470872  20.346   4.998   5.454
 5546POPC   GL170873  20.452   5.230   5.832
 5546POPC   GL270874  20.785   5.149   5.839
 5546POPC   C1A70875  20.580   5.314   6.285
 5546POPC   D2A70876  20.440   5.145   6.690
 5546POPC   C3A70877  20.712   5.228   7.063
 5546POPC   C4A70878  20.566   5.139   7.502
 5546POPC   C1B70879  20.817   4.846   6.247
 5546POPC   C2B70880  20.805   4.776   6.730
 5546POPC   C3B70881  21.084   4.874   7.121
 5546POPC   C4B70882  21.064   5.176   7.470
 5547POPC   NC370883  34.904  41.374   5.248
 5547POPC   PO470884  34.375  41.371   5.613
 5547POPC   GL170885  34.504  41.507   5.931
 5547POPC   GL270886  34.762  41.692   5.834
 5547POPC   C1A70887  34.441  41.457   6.330
 5547POPC   D2A70888  34.581  41.229   6.651
 5547POPC   C3A70889  34.406  41.360   7.029
 5547POPC   C4A70890  34.533  41.581   7.403
 5547POPC   C1B70891  34.701  41.889   6.225
 5547POPC   C2B70892  34.403  41.936   6.559
 5547POPC   C3B70893  34.499  41.867   6.971
 5547POPC   C4B70894  34.417  42.072   7.339
 5548POPC   NC370895   5.641  23.023   5.175
 5548POPC   PO470896   5.045  22.908   5.344
 5548POPC   GL170897   4.925  22.853   5.751
 5548POPC   GL270898   5.162  23.076   5.851
 5548POPC   C1A70899   4.803  22.929   6.191
 5548POPC   D2A70900   4.983  23.060   6.572
 5548POPC   C3A70901   4.820  23.080   6.988
 5548POPC   C4A70902   4.947  22.862   7.343
 5548POPC   C1B70903   5.301  22.778   6.157
 5548POPC   C2B70904   5.297  22.631   6.573
 5548POPC   C3B70905   5.313  22.867   6.941
 5548POPC   C4B70906   5.409  22.637   7.289
 5549POPC   NC370907   8.467  34.320   5.382
 5549POPC   PO470908   7.920  34.816   5.397
 5549POPC   GL170909   8.198  34.789   5.764
 5549POPC   GL270910   8.180  34.422   5.890
 5549POPC   C1A70911   8.128  34.794   6.227
 5549POPC   D2A70912   8.265  34.611   6.628
 5549POPC   C3A70913   8.111  34.837   6.954
 5549POPC   C4A70914   8.150  34.918   7.333
 5549POPC   C1B70915   8.018  34.291   6.331
 5549POPC   C2B70916   7.989  34.214   6.791
 5549POPC   C3B70917   8.104  34.370   7.211
 5549POPC   C4B70918   7.957  34.192   7.629
 5550POPC   NC370919   5.105   6.824   5.365
 5550POPC   PO470920   4.679   6.398   5.394
 5550POPC   GL170921   4.845   6.620   5.748
 5550POPC   GL270922   5.211   6.599   5.794
 5550POPC   C1A70923   4.903   6.700   6.171
 5550POPC   D2A70924   5.129   6.568   6.519
 5550POPC   C3A70925   5.162   6.718   6.921
 5550POPC   C4A70926   5.120   6.753   7.346
 5550POPC   C1B70927   5.449   6.471   6.133
 5550POPC   C2B70928   5.631   6.527   6.555
 5550POPC   C3B70929   5.454   6.302   6.872
 5550POPC   C4B70930   5.617   6.299   7.254
 5551POPC   NC370931  17.258   2.362   5.472
 5551POPC   PO470932  17.785   2.019   5.264
 5551POPC   GL170933  17.791   1.961   5.755
 5551POPC   GL270934  17.504   2.131   5.911
 5551POPC   C1A70935  17.989   2.026   6.164
 5551POPC   D2A70936  18.038   2.243   6.581
 5551POPC   C3A70937  17.845   2.085   6.965
 5551POPC   C4A70938  17.640   1.731   7.139
 5551POPC   C1B70939  17.540   2.129   6.376
 5551POPC   C2B70940  17.380   1.923   6.751
 5551POPC   C3B70941  17.137   1.915   7.167
 5551POPC   C4B70942  16.915   1.863   7.600
 5552POPC   NC370943  18.981  29.434   5.131
 5552POPC   PO470944  19.019  28.826   5.342
 5552POPC   GL170945  19.083  29.162   5.633
 5552POPC   GL270946  18.769  29.225   5.689
 5552POPC   C1A70947  19.142  29.350   6.073
 5552POPC   D2A70948  18.907  29.316   6.450
 5552POPC   C3A70949  19.160  29.313   6.839
 5552POPC   C4A70950  19.150  29.396   7.256
 5552POPC   C1B70951  18.822  28.952   6.051
 5552POPC   C2B70952  18.842  28.817   6.470
 5552POPC   C3B70953  18.716  29.041   6.830
 5552POPC   C4B70954  18.810  29.019   7.266
 5553POPC   NC370955  16.461  40.539   5.413
 5553POPC   PO470956  16.818  41.076   5.364
 5553POPC   GL170957  16.912  40.794   5.701
 5553POPC   GL270958  16.605  40.913   5.831
 5553POPC   C1A70959  16.964  40.571   6.129
 5553POPC   D2A70960  16.766  40.439   6.555
 5553POPC   C3A70961  16.993  40.622   6.921
 5553POPC   C4A70962  17.126  40.865   7.265
 5553POPC   C1B70963  16.521  40.801   6.255
 5553POPC   C2B70964  16.665  40.934   6.688
 5553POPC   C3B70965  16.553  40.808   7.135
 5553POPC   C4B70966  16.260  40.852   7.510
 5554POPC   NC370967   6.850   1.705   5.186
 5554POPC   PO470968   6.439   1.220   5.463
 5554POPC   GL170969   6.691   1.223   5.800
 5554POPC   GL270970   6.794   0.900   5.837
 5554POPC   C1A70971   6.697   1.380   6.236
 5554POPC   D2A70972   6.556   1.546   6.648
 5554POPC   C3A70973   6.693   1.282   6.976
 5554POPC   C4A70974   6.850   1.073   7.329
 5554POPC   C1B70975   6.408   0.947   6.096
 5554POPC   C2B70976   6.307   1.127   6.489
 5554POPC   C3B70977   6.204   1.161   6.920
 5554POPC   C4B70978   6.062   0.845   7.199
 5555POPC   NC370979  37.544   4.880   5.372
 5555POPC   PO470980  37.258   5.267   4.986
 5555POPC   GL170981  37.304   5.323   5.509
 5555POPC   GL270982  37.167   5.039   5.721
 5555POPC   C1A70983  37.512   5.297   5.996
 5555POPC   D2A70984  37.637   5.101   6.461
 5555POPC   C3A70985  37.758   5.271   6.914
 5555POPC   C4A70986  37.952   5.474   7.304
 5555POPC   C1B70987  37.212   4.916   6.184
 5555POPC   C2B70988  37.151   4.964   6.646
 5555POPC   C3B70989  37.288   5.118   7.069
 5555POPC   C4B70990  37.620   5.052   7.376
 5556POPC   NC370991  43.935  22.717   5.538
 5556POPC   PO470992  44.023  23.420   5.359
 5556POPC   GL170993  43.991  23.183   5.770
 5556POPC   GL270994  43.623  23.152   5.821
 5556POPC   C1A70995  44.003  22.891   6.163
 5556POPC   D2A70996  43.919  22.653   6.545
 5556POPC   C3A70997  44.015  22.823   6.968
 5556POPC   C4A70998  43.799  22.708   7.305
 5556POPC   C1B70999  43.758  23.321   6.229
 5556POPC   C2B71000  43.896  23.163   6.609
 5556POPC   C3B71001  43.825  23.284   7.044
 5556POPC   C4B71002  43.873  23.173   7.493
 5557POPC   NC371003  12.992   7.467   5.321
 5557POPC   PO471004  12.912   6.791   5.421
 5557POPC   GL171005  12.965   7.178   5.764
 5557POPC   GL271006  12.807   7.530   5.803
 5557POPC   C1A71007  13.178   7.409   6.158
 5557POPC   D2A71008  13.044   7.604   6.588
 5557POPC   C3A71009  13.153   7.427   7.003
 5557POPC   C4A71010  13.161   7.635   7.399
 5557POPC   C1B71011  12.672   7.402   6.237
 5557POPC   C2B71012  12.486   7.454   6.661
 5557POPC   C3B71013  12.652   7.551   7.086
 5557POPC   C4B71014  12.705   7.434   7.544
 5558POPC   NC371015  24.668  40.844   5.185
 5558POPC   PO471016  24.327  40.474   5.626
 5558POPC   GL171017  24.648  40.661   5.857
 5558POPC   GL271018  24.863  40.392   5.844
 5558POPC   C1A71019  24.672  40.794   6.295
 5558POPC   D2A71020  24.967  41.019   6.550
 5558POPC   C3A71021  24.764  41.145   6.915
 5558POPC   C4A71022  24.476  41.029   7.222
 5558POPC   C1B71023  24.588  40.276   6.196
 5558POPC   C2B71024  24.649  40.378   6.601
 5558POPC   C3B71025  24.564  40.633   6.923
 5558POPC   C4B71026  24.433  40.522   7.318
 5559POPC   NC371027  23.922  16.991   5.533
 5559POPC   PO471028  23.419  17.510   5.413
 5559POPC   GL171029  23.745  17.460   5.694
 5559POPC   GL271030  23.568  17.662   5.889
 5559POPC   C1A71031  23.877  17.325   6.106
 5559POPC   D2A71032  23.715  17.306   6.508
 5559POPC   C3A71033  23.988  17.333   6.848
 5559POPC   C4A71034  23.836  17.516   7.193
 5559POPC   C1B71035  23.344  17.385   6.133
 5559POPC   C2B71036  23.254  17.519   6.545
 5559POPC   C3B71037  23.401  17.338   6.932
 5559POPC   C4B71038  23.485  17.197   7.356
 5560POPC   NC371039  20.352   0.261   5.337
 5560POPC   PO471040  20.464   0.920   5.376
 5560POPC   GL171041  20.453   0.651   5.739
 5560POPC   GL271042  20.105   0.605   5.785
 5560POPC   C1A71043  20.644   0.504   6.154
 5560POPC   D2A71044  20.950   0.579   6.519
 5560POPC   C3A71045  20.818   0.429   6.937
 5560POPC   C4A71046  20.380   0.575   7.100
 5560POPC   C1B71047  20.190   0.797   6.200
 5560POPC   C2B71048  20.424   0.711   6.583
 5560POPC   C3B71049  20.411   0.259   6.694
 5560POPC   C4B71050  20.311   0.050   7.080
 5561POPC   NC371051  43.464  18.911   5.356
 5561POPC   PO471052  42.951  19.356   5.420
 5561POPC   GL171053  43.227  19.235   5.702
 5561POPC   GL271054  43.141  18.896   5.756
 5561POPC   C1A71055  43.342  19.251   6.118
 5561POPC   D2A71056  43.473  19.117   6.512
 5561POPC   C3A71057  43.204  19.192   6.860
 5561POPC   C4A71058  43.007  19.382   7.210
 5561POPC   C1B71059  43.023  18.807   6.194
 5561POPC   C2B71060  43.134  18.679   6.618
 5561POPC   C3B71061  43.096  18.713   7.055
 5561POPC   C4B71062  43.365  19.014   7.323
 5562POPC   NC371063  44.232   6.679   5.543
 5562POPC   PO471064  44.936   6.419   5.433
 5562POPC   GL171065  44.745   6.598   5.776
 5562POPC   GL271066  44.461   6.419   5.932
 5562POPC   C1A71067  44.874   6.576   6.205
 5562POPC   D2A71068  44.650   6.630   6.602
 5562POPC   C3A71069  44.875   6.702   6.964
 5562POPC   C4A71070  44.803   6.546   7.387
 5562POPC   C1B71071  44.414   6.819   6.176
 5562POPC   C2B71072  44.260   6.985   6.595
 5562POPC   C3B71073  44.426   6.927   7.029
 5562POPC   C4B71074  44.519   6.953   7.491
 5563POPC   NC371075  28.748  12.443   5.478
 5563POPC   PO471076  29.386  12.143   5.511
 5563POPC   GL171077  29.197  12.122   5.871
 5563POPC   GL271078  28.820  12.007   5.816
 5563POPC   C1A71079  29.419  12.070   6.265
 5563POPC   D2A71080  29.539  12.018   6.681
 5563POPC   C3A71081  29.325  12.114   7.054
 5563POPC   C4A71082  28.882  12.137   7.096
 5563POPC   C1B71083  29.031  11.723   6.119
 5563POPC   C2B71084  29.169  11.679   6.488
 5563POPC   C3B71085  29.134  11.662   6.883
 5563POPC   C4B71086  29.116  11.693   7.285
 5564POPC   NC371087  18.546  39.565   5.229
 5564POPC   PO471088  18.202  39.028   5.463
 5564POPC   GL171089  18.324  39.251   5.847
 5564POPC   GL271090  18.522  38.971   5.897
 5564POPC   C1A71091  18.309  39.547   6.244
 5564POPC   D2A71092  18.511  39.725   6.642
 5564POPC   C3A71093  18.531  39.519   7.098
 5564POPC   C4A71094  18.282  39.394   7.498
 5564POPC   C1B71095  18.455  39.003   6.341
 5564POPC   C2B71096  18.309  39.266   6.678
 5564POPC   C3B71097  18.130  39.180   7.063
 5564POPC   C4B71098  18.008  38.900   7.385
 5565POPC   NC371099  40.119  38.811   5.353
 5565POPC   PO471100  40.106  39.420   5.583
 5565POPC   GL171101  40.018  39.169   5.907
 5565POPC   GL271102  39.839  38.896   5.774
 5565POPC   C1A71103  39.880  39.268   6.328
 5565POPC   D2A71104  39.768  39.423   6.732
 5565POPC   C3A71105  39.973  39.216   7.049
 5565POPC   C4A71106  40.098  39.327   7.459
 5565POPC   C1B71107  39.761  38.799   6.185
 5565POPC   C2B71108  39.689  38.889   6.615
 5565POPC   C3B71109  39.788  38.739   7.010
 5565POPC   C4B71110  39.818  38.888   7.415
 5566POPC   NC371111  23.364  43.210   5.467
 5566POPC   PO471112  23.976  43.540   5.419
 5566POPC   GL171113  23.794  43.230   5.767
 5566POPC   GL271114  23.607  42.900   5.790
 5566POPC   C1A71115  23.472  43.285   6.139
 5566POPC   D2A71116  23.363  43.351   6.594
 5566POPC   C3A71117  23.709  43.421   6.887
 5566POPC   C4A71118  23.685  43.391   7.330
 5566POPC   C1B71119  23.492  42.781   6.227
 5566POPC   C2B71120  23.649  42.868   6.659
 5566POPC   C3B71121  23.483  42.987   7.064
 5566POPC   C4B71122  23.437  42.965   7.515
 5567POPC   NC371123  32.488  33.942   5.539
 5567POPC   PO471124  32.097  33.427   5.400
 5567POPC   GL171125  32.151  33.644   5.795
 5567POPC   GL271126  32.460  33.500   5.873
 5567POPC   C1A71127  31.999  33.884   6.170
 5567POPC   D2A71128  31.952  34.051   6.629
 5567POPC   C3A71129  31.950  33.808   7.008
 5567POPC   C4A71130  31.906  33.880   7.454
 5567POPC   C1B71131  32.431  33.660   6.261
 5567POPC   C2B71132  32.208  33.599   6.622
 5567POPC   C3B71133  32.441  33.699   7.021
 5567POPC   C4B71134  32.657  34.083   7.148
 5568POPC   NC371135  24.270  39.649   5.400
 5568POPC   PO471136  23.583  39.765   5.434
 5568POPC   GL171137  23.622  39.875   5.863
 5568POPC   GL271138  23.968  39.901   5.786
 5568POPC   C1A71139  23.471  40.101   6.266
 5568POPC   D2A71140  23.736  40.334   6.598
 5568POPC   C3A71141  23.735  40.180   7.057
 5568POPC   C4A71142  23.795  39.744   7.220
 5568POPC   C1B71143  23.979  40.115   6.169
 5568POPC   C2B71144  24.210  40.105   6.541
 5568POPC   C3B71145  24.245  40.230   6.939
 5568POPC   C4B71146  24.217  40.049   7.326
 5569POPC   NC371147  15.882  28.731   5.009
 5569POPC   PO471148  16.109  29.211   5.370
 5569POPC   GL171149  16.047  29.272   5.814
 5569POPC   GL271150  15.715  29.338   5.931
 5569POPC   C1A71151  16.124  29.104   6.227
 5569POPC   D2A71152  16.394  29.123   6.619
 5569POPC   C3A71153  16.211  29.198   7.029
 5569POPC   C4A71154  15.927  29.524   7.232
 5569POPC   C1B71155  15.618  28.970   6.160
 5569POPC   C2B71156  15.774  28.983   6.562
 5569POPC   C3B71157  15.712  29.219   6.891
 5569POPC   C4B71158  15.796  29.016   7.259
 5570POPC   NC371159  37.562  36.973   5.345
 5570POPC   PO471160  37.432  36.630   5.817
 5570POPC   GL171161  37.699  36.907   5.986
 5570POPC   GL271162  37.837  37.159   5.768
 5570POPC   C1A71163  37.705  36.920   6.412
 5570POPC   D2A71164  37.540  36.973   6.800
 5570POPC   C3A71165  37.676  36.773   7.195
 5570POPC   C4A71166  38.003  36.587   7.513
 5570POPC   C1B71167  38.060  37.275   6.181
 5570POPC   C2B71168  38.070  37.186   6.632
 5570POPC   C3B71169  37.876  37.250   7.046
 5570POPC   C4B71170  38.017  37.072   7.413
 5571POPC   NC371171  23.268  14.897   5.557
 5571POPC   PO471172  22.721  15.174   5.302
 5571POPC   GL171173  22.708  15.186   5.788
 5571POPC   GL271174  22.648  15.510   5.883
 5571POPC   C1A71175  22.900  15.250   6.250
 5571POPC   D2A71176  23.212  15.371   6.612
 5571POPC   C3A71177  23.230  15.079   6.972
 5571POPC   C4A71178  23.034  14.926   7.359
 5571POPC   C1B71179  22.492  15.563   6.288
 5571POPC   C2B71180  22.696  15.513   6.672
 5571POPC   C3B71181  22.754  15.263   7.025
 5571POPC   C4B71182  22.660  15.521   7.357
 5572POPC   NC371183  25.777  31.775   5.076
 5572POPC   PO471184  25.879  31.210   5.300
 5572POPC   GL171185  26.030  31.393   5.702
 5572POPC   GL271186  26.343  31.604   5.733
 5572POPC   C1A71187  25.932  31.577   6.112
 5572POPC   D2A71188  25.790  31.702   6.505
 5572POPC   C3A71189  25.905  31.498   6.865
 5572POPC   C4A71190  25.675  31.495   7.218
 5572POPC   C1B71191  26.435  31.501   6.171
 5572POPC   C2B71192  26.359  31.665   6.590
 5572POPC   C3B71193  26.396  31.552   7.029
 5572POPC   C4B71194  26.172  31.373   7.378
 5573POPC   NC371195  27.796  36.996   5.217
 5573POPC   PO471196  28.433  36.767   5.274
 5573POPC   GL171197  28.274  36.776   5.710
 5573POPC   GL271198  28.601  36.659   5.838
 5573POPC   C1A71199  28.148  37.043   6.094
 5573POPC   D2A71200  28.023  36.998   6.544
 5573POPC   C3A71201  28.276  37.086   6.931
 5573POPC   C4A71202  28.241  37.228   7.371
 5573POPC   C1B71203  28.315  36.550   6.190
 5573POPC   C2B71204  28.432  36.685   6.610
 5573POPC   C3B71205  28.438  36.573   7.024
 5573POPC   C4B71206  28.429  36.647   7.444
 5574POPC   NC371207  35.943  10.184   5.083
 5574POPC   PO471208  36.418  10.033   5.602
 5574POPC   GL171209  36.157   9.791   5.882
 5574POPC   GL271210  36.330   9.449   5.942
 5574POPC   C1A71211  35.980   9.652   6.274
 5574POPC   D2A71212  35.972   9.493   6.707
 5574POPC   C3A71213  35.987   9.795   7.033
 5574POPC   C4A71214  35.780  10.044   7.329
 5574POPC   C1B71215  36.495   9.754   6.272
 5574POPC   C2B71216  36.426   9.810   6.705
 5574POPC   C3B71217  36.404   9.477   6.986
 5574POPC   C4B71218  36.225   9.390   7.374
 5575POPC   NC371219  37.414  12.325   5.443
 5575POPC   PO471220  37.826  11.755   5.425
 5575POPC   GL171221  37.591  11.942   5.745
 5575POPC   GL271222  37.883  12.152   5.783
 5575POPC   C1A71223  37.479  12.201   6.119
 5575POPC   D2A71224  37.631  12.237   6.541
 5575POPC   C3A71225  37.487  11.998   6.885
 5575POPC   C4A71226  37.340  12.123   7.284
 5575POPC   C1B71227  38.009  12.310   6.172
 5575POPC   C2B71228  38.078  12.461   6.600
 5575POPC   C3B71229  37.976  12.267   6.946
 5575POPC   C4B71230  37.895  12.428   7.336
 5576POPC   NC371231  31.685   8.233   5.244
 5576POPC   PO471232  31.000   8.265   5.192
 5576POPC   GL171233  31.221   8.305   5.627
 5576POPC   GL271234  31.479   8.042   5.678
 5576POPC   C1A71235  31.481   8.480   5.980
 5576POPC   D2A71236  31.500   8.602   6.416
 5576POPC   C3A71237  31.310   8.348   6.768
 5576POPC   C4A71238  31.387   8.069   7.140
 5576POPC   C1B71239  31.587   8.005   6.129
 5576POPC   C2B71240  31.582   7.933   6.586
 5576POPC   C3B71241  31.843   7.889   6.957
 5576POPC   C4B71242  31.752   7.740   7.380
 5577POPC   NC371243  40.968  18.678   5.111
 5577POPC   PO471244  40.506  19.171   5.265
 5577POPC   GL171245  40.659  19.118   5.729
 5577POPC   GL271246  40.804  18.808   5.907
 5577POPC   C1A71247  40.594  19.185   6.193
 5577POPC   D2A71248  40.798  19.101   6.574
 5577POPC   C3A71249  40.686  19.344   6.937
 5577POPC   C4A71250  41.011  19.294   7.228
 5577POPC   C1B71251  40.503  18.684   6.280
 5577POPC   C2B71252  40.341  18.887   6.636
 5577POPC   C3B71253  40.513  18.861   7.006
 5577POPC   C4B71254  40.792  18.596   7.238
 5578POPC   NC371255  26.537  38.761   5.332
 5578POPC   PO471256  26.606  39.338   5.081
 5578POPC   GL171257  26.624  39.264   5.603
 5578POPC   GL271258  26.390  39.022   5.726
 5578POPC   C1A71259  26.758  39.168   6.067
 5578POPC   D2A71260  26.931  39.342   6.480
 5578POPC   C3A71261  26.917  39.167   6.895
 5578POPC   C4A71262  27.070  39.125   7.318
 5578POPC   C1B71263  26.315  38.863   6.104
 5578POPC   C2B71264  26.491  38.996   6.479
 5578POPC   C3B71265  26.645  38.733   6.802
 5578POPC   C4B71266  26.652  38.796   7.213
 5579POPC   NC371267  34.768  32.786   5.469
 5579POPC   PO471268  34.354  33.379   5.421
 5579POPC   GL171269  34.449  33.081   5.805
 5579POPC   GL271270  34.772  33.125   5.868
 5579POPC   C1A71271  34.625  32.793   6.192
 5579POPC   D2A71272  34.674  32.898   6.625
 5579POPC   C3A71273  34.849  33.173   6.911
 5579POPC   C4A71274  34.656  32.942   7.247
 5579POPC   C1B71275  34.657  33.310   6.270
 5579POPC   C2B71276  34.389  33.329   6.640
 5579POPC   C3B71277  34.370  33.432   7.067
 5579POPC   C4B71278  34.412  33.309   7.505
 5580POPC   NC371279  13.028  35.569   5.433
 5580POPC   PO471280  12.626  35.104   5.116
 5580POPC   GL171281  12.712  35.193   5.603
 5580POPC   GL271282  12.727  34.961   5.884
 5580POPC   C1A71283  12.827  35.430   6.036
 5580POPC   D2A71284  12.755  35.529   6.493
 5580POPC   C3A71285  12.771  35.266   6.849
 5580POPC   C4A71286  12.875  35.592   7.154
 5580POPC   C1B71287  13.131  35.008   6.140
 5580POPC   C2B71288  13.225  35.117   6.594
 5580POPC   C3B71289  13.196  35.025   7.060
 5580POPC   C4B71290  13.052  35.224   7.447
 5581POPC   NC371291  13.273  29.632   5.697
 5581POPC   PO471292  13.636  29.170   5.276
 5581POPC   GL171293  13.616  29.219   5.757
 5581POPC   GL271294  13.377  28.981   5.904
 5581POPC   C1A71295  13.614  29.319   6.233
 5581POPC   D2A71296  13.552  29.129   6.653
 5581POPC   C3A71297  13.696  29.334   7.042
 5581POPC   C4A71298  13.643  29.180   7.461
 5581POPC   C1B71299  13.138  29.039   6.292
 5581POPC   C2B71300  13.046  29.153   6.720
 5581POPC   C3B71301  13.218  29.133   7.143
 5581POPC   C4B71302  13.219  28.887   7.546
 5582POPC   NC371303   6.526  10.367   5.335
 5582POPC   PO471304   6.658   9.691   5.390
 5582POPC   GL171305   6.803   9.711   5.804
 5582POPC   GL271306   6.452   9.701   5.880
 5582POPC   C1A71307   6.779   9.975   6.169
 5582POPC   D2A71308   6.659   9.794   6.528
 5582POPC   C3A71309   6.796   9.918   6.926
 5582POPC   C4A71310   6.552  10.045   7.274
 5582POPC   C1B71311   6.568   9.416   6.175
 5582POPC   C2B71312   6.404   9.334   6.548
 5582POPC   C3B71313   6.456   9.528   6.943
 5582POPC   C4B71314   6.681   9.319   7.248
 5583POPC   NC371315  12.390  20.070   5.649
 5583POPC   PO471316  11.815  19.689   5.416
 5583POPC   GL171317  11.972  19.796   5.757
 5583POPC   GL271318  12.292  19.583   5.760
 5583POPC   C1A71319  11.815  19.955   6.154
 5583POPC   D2A71320  12.015  19.926   6.551
 5583POPC   C3A71321  12.214  20.225   6.816
 5583POPC   C4A71322  12.153  20.016   7.182
 5583POPC   C1B71323  12.091  19.528   6.157
 5583POPC   C2B71324  12.104  19.433   6.575
 5583POPC   C3B71325  12.313  19.551   6.920
 5583POPC   C4B71326  12.354  19.580   7.331
 5584POPC   NC371327  43.808  16.776   5.405
 5584POPC   PO471328  44.483  16.766   5.532
 5584POPC   GL171329  44.169  16.652   5.893
 5584POPC   GL271330  43.803  16.772   5.912
 5584POPC   C1A71331  44.028  16.662   6.363
 5584POPC   D2A71332  43.708  16.906   6.580
 5584POPC   C3A71333  43.615  16.830   7.022
 5584POPC   C4A71334  43.835  16.943   7.442
 5584POPC   C1B71335  43.981  17.131   6.148
 5584POPC   C2B71336  44.194  17.158   6.546
 5584POPC   C3B71337  44.065  17.062   6.955
 5584POPC   C4B71338  44.114  16.650   7.137
 5585POPC   NC371339  34.049   2.582   5.132
 5585POPC   PO471340  33.476   2.528   5.366
 5585POPC   GL171341  33.819   2.660   5.675
 5585POPC   GL271342  34.151   2.558   5.644
 5585POPC   C1A71343  33.895   2.835   6.119
 5585POPC   D2A71344  33.865   2.975   6.570
 5585POPC   C3A71345  33.611   2.792   6.945
 5585POPC   C4A71346  33.724   2.794   7.387
 5585POPC   C1B71347  34.117   2.379   6.064
 5585POPC   C2B71348  33.903   2.403   6.481
 5585POPC   C3B71349  33.960   2.414   6.943
 5585POPC   C4B71350  34.225   2.566   7.284
 5586POPC   NC371351  27.064  18.378   5.185
 5586POPC   PO471352  26.497  18.173   5.377
 5586POPC   GL171353  26.543  18.152   5.831
 5586POPC   GL271354  26.591  18.478   5.906
 5586POPC   C1A71355  26.673  18.154   6.317
 5586POPC   D2A71356  26.968  18.368   6.679
 5586POPC   C3A71357  27.074  18.124   7.090
 5586POPC   C4A71358  26.991  17.873   7.499
 5586POPC   C1B71359  26.683  18.673   6.288
 5586POPC   C2B71360  26.486  18.496   6.646
 5586POPC   C3B71361  26.561  18.183   6.956
 5586POPC   C4B71362  26.667  18.249   7.375
 5587POPC   NC371363  23.076  22.608   5.342
 5587POPC   PO471364  22.458  22.922   5.410
 5587POPC   GL171365  22.638  22.908   5.823
 5587POPC   GL271366  22.903  22.650   5.832
 5587POPC   C1A71367  22.789  22.929   6.266
 5587POPC   D2A71368  22.818  22.788   6.694
 5587POPC   C3A71369  22.725  23.019   7.099
 5587POPC   C4A71370  23.000  23.234   7.428
 5587POPC   C1B71371  23.249  22.712   6.153
 5587POPC   C2B71372  23.317  22.913   6.572
 5587POPC   C3B71373  23.209  22.903   7.019
 5587POPC   C4B71374  23.404  22.724   7.380
 5588POPC   NC371375   9.992  39.009   5.352
 5588POPC   PO471376   9.488  39.435   5.504
 5588POPC   GL171377   9.723  39.199   5.793
 5588POPC   GL271378   9.977  39.379   5.824
 5588POPC   C1A71379   9.562  39.106   6.197
 5588POPC   D2A71380   9.729  39.011   6.565
 5588POPC   C3A71381   9.447  38.959   6.921
 5588POPC   C4A71382   9.394  39.122   7.322
 5588POPC   C1B71383  10.062  39.266   6.220
 5588POPC   C2B71384  10.102  39.388   6.627
 5588POPC   C3B71385   9.823  39.308   6.956
 5588POPC   C4B71386   9.855  39.309   7.356
 5589POPC   NC371387   7.262  31.007   5.669
 5589POPC   PO471388   7.561  30.430   5.593
 5589POPC   GL171389   7.370  30.245   5.922
 5589POPC   GL271390   7.211  30.540   5.983
 5589POPC   C1A71391   7.457  30.258   6.371
 5589POPC   D2A71392   7.677  30.511   6.675
 5589POPC   C3A71393   7.380  30.640   6.961
 5589POPC   C4A71394   7.490  30.980   7.170
 5589POPC   C1B71395   7.485  30.777   6.266
 5589POPC   C2B71396   7.477  31.063   6.612
 5589POPC   C3B71397   7.249  31.321   6.873
 5589POPC   C4B71398   7.048  31.202   7.233
 5590POPC   NC371399  27.296   5.917   5.410
 5590POPC   PO471400  27.318   5.333   5.723
 5590POPC   GL171401  27.414   5.754   5.918
 5590POPC   GL271402  27.527   6.096   5.828
 5590POPC   C1A71403  27.668   5.871   6.292
 5590POPC   D2A71404  27.505   5.715   6.685
 5590POPC   C3A71405  27.730   5.636   7.057
 5590POPC   C4A71406  27.911   5.831   7.422
 5590POPC   C1B71407  27.308   6.221   6.193
 5590POPC   C2B71408  27.430   6.253   6.606
 5590POPC   C3B71409  27.313   6.074   6.991
 5590POPC   C4B71410  27.259   5.704   7.241
 5591POPC   NC371411  11.197  44.508   5.326
 5591POPC   PO471412  11.639  44.882   5.398
 5591POPC   GL171413  11.430  44.743   5.809
 5591POPC   GL271414  11.042  44.722   5.792
 5591POPC   C1A71415  11.453  44.640   6.299
 5591POPC   D2A71416  11.442  44.503   6.784
 5591POPC   C3A71417  11.524  44.757   7.170
 5591POPC   C4A71418  11.655  44.687   7.602
 5591POPC   C1B71419  10.983  44.828   6.249
 5591POPC   C2B71420  10.947  44.646   6.673
 5591POPC   C3B71421  10.998  44.743   7.125
 5591POPC   C4B71422  11.148  44.933   7.511
 5592POPC   NC371423  12.423  33.095   5.540
 5592POPC   PO471424  11.770  32.868   5.431
 5592POPC   GL171425  11.975  32.990   5.781
 5592POPC   GL271426  12.175  32.697   5.751
 5592POPC   C1A71427  12.019  33.094   6.232
 5592POPC   D2A71428  11.809  33.006   6.621
 5592POPC   C3A71429  12.121  33.042   6.919
 5592POPC   C4A71430  12.033  33.310   7.284
 5592POPC   C1B71431  11.953  32.606   6.125
 5592POPC   C2B71432  12.120  32.635   6.516
 5592POPC   C3B71433  11.851  32.577   6.898
 5592POPC   C4B71434  11.764  32.879   7.218
 5593POPC   NC371435  31.585  23.861   5.299
 5593POPC   PO471436  30.948  23.626   5.139
 5593POPC   GL171437  31.130  23.823   5.603
 5593POPC   GL271438  31.518  23.787   5.779
 5593POPC   C1A71439  31.157  23.664   6.086
 5593POPC   D2A71440  31.377  23.785   6.496
 5593POPC   C3A71441  31.376  23.583   6.901
 5593POPC   C4A71442  31.154  23.711   7.249
 5593POPC   C1B71443  31.745  23.868   6.133
 5593POPC   C2B71444  31.818  24.059   6.516
 5593POPC   C3B71445  31.657  24.020   6.904
 5593POPC   C4B71446  31.636  23.832   7.289
 5594POPC   NC371447   7.115   3.348   5.367
 5594POPC   PO471448   7.763   3.591   5.351
 5594POPC   GL171449   7.475   3.521   5.697
 5594POPC   GL271450   7.193   3.751   5.724
 5594POPC   C1A71451   7.431   3.365   6.106
 5594POPC   D2A71452   7.684   3.450   6.463
 5594POPC   C3A71453   7.430   3.410   6.807
 5594POPC   C4A71454   7.647   3.249   7.096
 5594POPC   C1B71455   7.445   3.866   6.119
 5594POPC   C2B71456   7.409   3.877   6.592
 5594POPC   C3B71457   7.477   3.868   7.032
 5594POPC   C4B71458   7.272   3.580   7.293
 5595POPC   NC371459  26.258  30.935   5.364
 5595POPC   PO471460  25.926  30.291   5.347
 5595POPC   GL171461  26.026  30.525   5.716
 5595POPC   GL271462  25.896  30.879   5.724
 5595POPC   C1A71463  26.280  30.534   6.104
 5595POPC   D2A71464  26.234  30.731   6.511
 5595POPC   C3A71465  26.176  30.560   6.918
 5595POPC   C4A71466  25.812  30.483   7.135
 5595POPC   C1B71467  26.124  31.059   6.078
 5595POPC   C2B71468  26.149  31.224   6.487
 5595POPC   C3B71469  26.223  31.083   6.908
 5595POPC   C4B71470  25.831  31.010   7.112
 5596POPC   NC371471  15.361  30.800   5.374
 5596POPC   PO471472  14.988  30.232   5.372
 5596POPC   GL171473  15.109  30.571   5.739
 5596POPC   GL271474  15.486  30.590   5.832
 5596POPC   C1A71475  15.184  30.841   6.151
 5596POPC   D2A71476  15.114  30.676   6.600
 5596POPC   C3A71477  15.185  30.812   7.058
 5596POPC   C4A71478  15.063  30.791   7.529
 5596POPC   C1B71479  15.284  30.339   6.214
 5596POPC   C2B71480  15.310  30.200   6.670
 5596POPC   C3B71481  15.472  30.381   7.040
 5596POPC   C4B71482  15.514  30.577   7.430
 5597POPC   NC371483  41.761   6.845   5.313
 5597POPC   PO471484  41.187   6.487   5.480
 5597POPC   GL171485  41.570   6.526   5.715
 5597POPC   GL271486  41.667   6.876   5.818
 5597POPC   C1A71487  41.661   6.455   6.153
 5597POPC   D2A71488  41.417   6.476   6.541
 5597POPC   C3A71489  41.626   6.383   6.921
 5597POPC   C4A71490  41.799   6.571   7.263
 5597POPC   C1B71491  41.296   6.847   6.102
 5597POPC   C2B71492  41.202   6.953   6.543
 5597POPC   C3B71493  41.180   6.745   6.932
 5597POPC   C4B71494  41.349   6.854   7.294
 5598POPC   NC371495  26.670  32.567   5.484
 5598POPC   PO471496  27.141  31.971   5.510
 5598POPC   GL171497  26.974  32.244   5.796
 5598POPC   GL271498  26.641  32.186   5.830
 5598POPC   C1A71499  26.998  32.314   6.224
 5598POPC   D2A71500  27.144  32.191   6.606
 5598POPC   C3A71501  27.012  32.367   6.970
 5598POPC   C4A71502  26.958  32.327   7.373
 5598POPC   C1B71503  26.542  32.490   6.146
 5598POPC   C2B71504  26.528  32.341   6.565
 5598POPC   C3B71505  26.505  32.467   6.997
 5598POPC   C4B71506  26.267  32.359   7.371
 5599POPC   NC371507  17.052  27.706   5.507
 5599POPC   PO471508  16.397  27.544   5.336
 5599POPC   GL171509  16.399  27.455   5.796
 5599POPC   GL271510  16.796  27.415   5.879
 5599POPC   C1A71511  16.437  27.281   6.225
 5599POPC   D2A71512  16.853  27.337   6.423
 5599POPC   C3A71513  16.893  27.467   6.844
 5599POPC   C4A71514  16.639  27.561   7.189
 5599POPC   C1B71515  17.094  27.703   6.134
 5599POPC   C2B71516  17.159  27.808   6.542
 5599POPC   C3B71517  17.045  27.953   6.958
 5599POPC   C4B71518  16.811  28.015   7.329
 5600POPC   NC371519  43.102   8.597   5.442
 5600POPC   PO471520  43.033   9.233   5.235
 5600POPC   GL171521  42.897   9.200   5.671
 5600POPC   GL271522  43.139   8.937   5.841
 5600POPC   C1A71523  42.746   9.163   6.094
 5600POPC   D2A71524  42.895   9.304   6.492
 5600POPC   C3A71525  43.060   9.177   6.904
 5600POPC   C4A71526  43.048   8.894   7.252
 5600POPC   C1B71527  43.466   8.700   6.131
 5600POPC   C2B71528  43.559   8.549   6.569
 5600POPC   C3B71529  43.440   8.640   7.005
 5600POPC   C4B71530  43.496   8.755   7.435
 5601POPC   NC371531  10.697  43.260   5.181
 5601POPC   PO471532  10.351  42.685   5.368
 5601POPC   GL171533  10.541  42.945   5.764
 5601POPC   GL271534  10.655  43.278   5.792
 5601POPC   C1A71535  10.327  43.110   6.174
 5601POPC   D2A71536  10.424  42.896   6.554
 5601POPC   C3A71537  10.304  43.126   6.898
 5601POPC   C4A71538  10.215  43.050   7.311
 5601POPC   C1B71539  10.824  43.032   6.192
 5601POPC   C2B71540  10.906  42.981   6.636
 5601POPC   C3B71541  10.708  42.850   7.008
 5601POPC   C4B71542  10.697  43.208   7.273
 5602POPC   NC371543  20.003   0.859   5.339
 5602POPC   PO471544  20.059   1.478   5.103
 5602POPC   GL171545  19.977   1.400   5.585
 5602POPC   GL271546  20.166   1.614   5.863
 5602POPC   C1A71547  19.875   1.161   5.994
 5602POPC   D2A71548  19.728   1.245   6.431
 5602POPC   C3A71549  19.708   1.157   6.885
 5602POPC   C4A71550  19.543   1.444   7.191
 5602POPC   C1B71551  19.986   1.687   6.289
 5602POPC   C2B71552  19.904   1.645   6.749
 5602POPC   C3B71553  20.053   1.490   7.163
 5602POPC   C4B71554  19.855   1.555   7.607
 5603POPC   NC371555   3.274  14.945   5.431
 5603POPC   PO471556   3.698  15.427   5.579
 5603POPC   GL171557   3.672  15.106   5.868
 5603POPC   GL271558   3.347  15.125   5.897
 5603POPC   C1A71559   3.638  15.160   6.312
 5603POPC   D2A71560   3.358  15.220   6.626
 5603POPC   C3A71561   3.612  15.091   6.962
 5603POPC   C4A71562   3.948  15.090   7.237
 5603POPC   C1B71563   3.166  14.918   6.225
 5603POPC   C2B71564   2.915  14.935   6.576
 5603POPC   C3B71565   3.103  14.938   6.972
 5603POPC   C4B71566   3.304  15.009   7.359
 5604POPC   NC371567   1.420  16.858   5.187
 5604POPC   PO471568   0.994  16.472   5.447
 5604POPC   GL171569   1.227  16.667   5.803
 5604POPC   GL271570   1.246  17.022   5.668
 5604POPC   C1A71571   1.150  16.642   6.293
 5604POPC   D2A71572   1.142  16.908   6.660
 5604POPC   C3A71573   1.327  16.748   7.052
 5604POPC   C4A71574   1.647  16.424   7.162
 5604POPC   C1B71575   1.303  17.102   6.125
 5604POPC   C2B71576   1.577  17.074   6.469
 5604POPC   C3B71577   1.466  17.225   6.873
 5604POPC   C4B71578   1.183  17.204   7.208
 5605POPC   NC371579   1.011  12.250   5.294
 5605POPC   PO471580   0.972  11.584   5.422
 5605POPC   GL171581   1.093  11.819   5.794
 5605POPC   GL271582   1.166  12.176   5.778
 5605POPC   C1A71583   1.228  11.900   6.235
 5605POPC   D2A71584   1.325  12.010   6.668
 5605POPC   C3A71585   1.196  11.699   6.961
 5605POPC   C4A71586   1.291  11.707   7.413
 5605POPC   C1B71587   1.135  12.410   6.163
 5605POPC   C2B71588   0.946  12.370   6.544
 5605POPC   C3B71589   0.949  12.445   6.961
 5605POPC   C4B71590   1.123  12.143   7.190
 5606POPC   NC371591  19.430  23.065   5.573
 5606POPC   PO471592  18.893  22.576   5.530
 5606POPC   GL171593  19.013  22.849   5.851
 5606POPC   GL271594  18.975  23.191   5.897
 5606POPC   C1A71595  19.271  22.824   6.207
 5606POPC   D2A71596  19.108  22.753   6.631
 5606POPC   C3A71597  18.809  22.978   6.841
 5606POPC   C4A71598  18.955  22.988   7.236
 5606POPC   C1B71599  18.914  23.149   6.360
 5606POPC   C2B71600  19.215  23.260   6.700
 5606POPC   C3B71601  19.389  23.325   7.106
 5606POPC   C4B71602  19.191  23.417   7.481
 5607POPC   NC371603  38.884  17.760   5.651
 5607POPC   PO471604  38.249  17.482   5.527
 5607POPC   GL171605  38.443  17.527   5.901
 5607POPC   GL271606  38.703  17.249   5.752
 5607POPC   C1A71607  38.238  17.814   6.243
 5607POPC   D2A71608  38.075  17.924   6.655
 5607POPC   C3A71609  38.404  17.905   6.969
 5607POPC   C4A71610  38.645  17.603   7.223
 5607POPC   C1B71611  38.703  17.165   6.195
 5607POPC   C2B71612  38.416  17.380   6.492
 5607POPC   C3B71613  38.239  17.437   6.896
 5607POPC   C4B71614  38.179  17.369   7.309
 5608POPC   NC371615  25.135  42.444   5.541
 5608POPC   PO471616  25.449  42.936   5.366
 5608POPC   GL171617  25.526  42.694   5.775
 5608POPC   GL271618  25.500  42.288   5.858
 5608POPC   C1A71619  25.651  42.592   6.213
 5608POPC   D2A71620  25.483  42.249   6.485
 5608POPC   C3A71621  25.509  42.350   6.918
 5608POPC   C4A71622  25.375  42.103   7.254
 5608POPC   C1B71623  25.097  42.239   6.149
 5608POPC   C2B71624  24.882  42.082   6.507
 5608POPC   C3B71625  25.027  42.092   6.885
 5608POPC   C4B71626  24.895  41.967   7.287
 5609POPC   NC371627  40.702  16.149   5.360
 5609POPC   PO471628  40.804  16.778   5.457
 5609POPC   GL171629  40.848  16.795   5.868
 5609POPC   GL271630  41.124  16.979   5.925
 5609POPC   C1A71631  40.768  16.607   6.270
 5609POPC   D2A71632  40.903  16.835   6.635
 5609POPC   C3A71633  40.653  16.758   6.989
 5609POPC   C4A71634  40.573  16.326   7.047
 5609POPC   C1B71635  41.266  16.669   6.239
 5609POPC   C2B71636  41.347  16.471   6.621
 5609POPC   C3B71637  41.100  16.458   6.973
 5609POPC   C4B71638  41.005  16.655   7.319
 5610POPC   NC371639  29.433  30.273   5.280
 5610POPC   PO471640  29.993  29.922   5.306
 5610POPC   GL171641  29.891  30.002   5.766
 5610POPC   GL271642  29.991  30.334   5.748
 5610POPC   C1A71643  29.886  29.776   6.208
 5610POPC   D2A71644  30.149  29.777   6.607
 5610POPC   C3A71645  29.963  29.814   7.012
 5610POPC   C4A71646  29.593  29.640   7.194
 5610POPC   C1B71647  30.049  30.476   6.178
 5610POPC   C2B71648  29.956  30.444   6.607
 5610POPC   C3B71649  30.061  30.320   7.030
 5610POPC   C4B71650  29.922  30.125   7.432
 5611POPC   NC371651  10.672  26.002   5.337
 5611POPC   PO471652  10.332  26.583   5.537
 5611POPC   GL171653  10.315  26.159   5.675
 5611POPC   GL271654  10.665  26.247   5.797
 5611POPC   C1A71655  10.346  25.907   6.079
 5611POPC   D2A71656  10.461  26.078   6.501
 5611POPC   C3A71657  10.666  25.882   6.876
 5611POPC   C4A71658  10.382  26.096   7.124
 5611POPC   C1B71659  10.758  26.429   6.223
 5611POPC   C2B71660  10.899  26.280   6.648
 5611POPC   C3B71661  10.818  26.366   7.093
 5611POPC   C4B71662  10.800  26.475   7.571
 5612POPC   NC371663  17.734   4.154   5.519
 5612POPC   PO471664  18.385   4.259   5.618
 5612POPC   GL171665  18.072   4.246   5.888
 5612POPC   GL271666  17.993   4.579   5.887
 5612POPC   C1A71667  18.107   4.146   6.275
 5612POPC   D2A71668  18.067   4.351   6.650
 5612POPC   C3A71669  18.292   4.146   6.963
 5612POPC   C4A71670  18.536   3.924   7.229
 5612POPC   C1B71671  18.313   4.627   6.225
 5612POPC   C2B71672  18.621   4.774   6.543
 5612POPC   C3B71673  18.466   4.648   6.895
 5612POPC   C4B71674  18.094   4.589   7.101
 5613POPC   NC371675  41.002  17.199   5.446
 5613POPC   PO471676  40.806  17.774   5.237
 5613POPC   GL171677  40.664  17.597   5.677
 5613POPC   GL271678  40.683  17.274   5.825
 5613POPC   C1A71679  40.633  17.645   6.154
 5613POPC   D2A71680  40.712  17.463   6.569
 5613POPC   C3A71681  40.737  17.714   6.906
 5613POPC   C4A71682  40.790  17.568   7.297
 5613POPC   C1B71683  40.637  17.097   6.227
 5613POPC   C2B71684  40.426  17.043   6.624
 5613POPC   C3B71685  40.479  17.244   7.035
 5613POPC   C4B71686  40.575  17.112   7.468
 5614POPC   NC371687  34.541  20.966   5.314
 5614POPC   PO471688  34.318  21.697   5.384
 5614POPC   GL171689  34.266  21.542   5.781
 5614POPC   GL271690  34.500  21.266   5.746
 5614POPC   C1A71691  34.369  21.574   6.183
 5614POPC   D2A71692  34.596  21.496   6.527
 5614POPC   C3A71693  34.436  21.689   6.887
 5614POPC   C4A71694  34.405  21.546   7.268
 5614POPC   C1B71695  34.660  21.130   6.137
 5614POPC   C2B71696  34.645  20.963   6.545
 5614POPC   C3B71697  34.578  21.168   6.926
 5614POPC   C4B71698  34.378  21.034   7.278
 5615POPC   NC371699   4.997  33.954   5.323
 5615POPC   PO471700   5.530  33.725   5.591
 5615POPC   GL171701   5.218  33.776   5.911
 5615POPC   GL271702   4.865  33.735   5.778
 5615POPC   C1A71703   5.196  33.739   6.377
 5615POPC   D2A71704   4.962  33.752   6.738
 5615POPC   C3A71705   5.129  33.929   7.061
 5615POPC   C4A71706   4.886  34.148   7.423
 5615POPC   C1B71707   4.871  33.425   6.135
 5615POPC   C2B71708   4.856  33.287   6.569
 5615POPC   C3B71709   4.599  33.433   6.929
 5615POPC   C4B71710   4.660  33.787   7.152
 5616POPC   NC371711  42.071  29.976   5.349
 5616POPC   PO471712  42.622  29.682   5.449
 5616POPC   GL171713  42.287  29.738   5.758
 5616POPC   GL271714  42.223  30.092   5.804
 5616POPC   C1A71715  42.391  29.723   6.185
 5616POPC   D2A71716  42.588  29.525   6.499
 5616POPC   C3A71717  42.367  29.616   6.869
 5616POPC   C4A71718  42.547  29.705   7.247
 5616POPC   C1B71719  42.339  30.236   6.188
 5616POPC   C2B71720  42.607  30.071   6.514
 5616POPC   C3B71721  42.434  30.113   6.899
 5616POPC   C4B71722  42.382  30.188   7.289
 5617POPC   NC371723  39.697  12.728   5.518
 5617POPC   PO471724  39.084  13.077   5.509
 5617POPC   GL171725  39.241  12.987   5.887
 5617POPC   GL271726  39.239  12.625   5.881
 5617POPC   C1A71727  39.311  12.912   6.320
 5617POPC   D2A71728  39.465  12.830   6.731
 5617POPC   C3A71729  39.161  12.863   7.042
 5617POPC   C4A71730  38.966  12.859   7.446
 5617POPC   C1B71731  39.472  12.444   6.229
 5617POPC   C2B71732  39.456  12.311   6.650
 5617POPC   C3B71733  39.534  12.419   7.079
 5617POPC   C4B71734  39.259  12.463   7.418
 5618POPC   NC371735  35.773  11.773   5.449
 5618POPC   PO471736  35.639  12.406   5.199
 5618POPC   GL171737  35.558  12.249   5.646
 5618POPC   GL271738  35.376  11.931   5.763
 5618POPC   C1A71739  35.543  12.292   6.115
 5618POPC   D2A71740  35.402  12.197   6.533
 5618POPC   C3A71741  35.639  12.123   6.888
 5618POPC   C4A71742  35.644  12.105   7.301
 5618POPC   C1B71743  35.116  12.000   6.145
 5618POPC   C2B71744  34.925  12.021   6.565
 5618POPC   C3B71745  35.160  11.973   6.939
 5618POPC   C4B71746  35.139  12.022   7.354
 5619POPC   NC371747  12.061  35.776   5.491
 5619POPC   PO471748  11.996  35.117   5.453
 5619POPC   GL171749  12.245  35.205   5.820
 5619POPC   GL271750  12.029  35.475   5.903
 5619POPC   C1A71751  12.365  35.318   6.262
 5619POPC   D2A71752  12.177  35.357   6.695
 5619POPC   C3A71753  12.352  35.455   7.088
 5619POPC   C4A71754  12.064  35.436   7.421
 5619POPC   C1B71755  11.855  35.381   6.294
 5619POPC   C2B71756  11.726  35.634   6.649
 5619POPC   C3B71757  11.713  35.633   7.096
 5619POPC   C4B71758  11.846  35.880   7.467
 5620POPC   NC371759  37.205  10.788   5.265
 5620POPC   PO471760  36.652  10.365   5.193
 5620POPC   GL171761  36.762  10.521   5.644
 5620POPC   GL271762  37.075  10.693   5.758
 5620POPC   C1A71763  36.705  10.383   6.089
 5620POPC   D2A71764  36.471  10.302   6.486
 5620POPC   C3A71765  36.762  10.200   6.824
 5620POPC   C4A71766  36.918  10.447   7.156
 5620POPC   C1B71767  36.932  10.843   6.169
 5620POPC   C2B71768  36.899  10.639   6.571
 5620POPC   C3B71769  37.066  10.861   6.922
 5620POPC   C4B71770  36.993  10.996   7.361
 5621POPC   NC371771  38.119  43.425   5.182
 5621POPC   PO471772  37.573  43.777   5.465
 5621POPC   GL171773  37.608  43.968   5.851
 5621POPC   GL271774  37.906  44.110   5.870
 5621POPC   C1A71775  37.591  43.888   6.264
 5621POPC   D2A71776  37.401  43.831   6.636
 5621POPC   C3A71777  37.557  43.558   6.924
 5621POPC   C4A71778  37.780  43.572   7.299
 5621POPC   C1B71779  38.087  43.905   6.224
 5621POPC   C2B71780  38.143  43.912   6.666
 5621POPC   C3B71781  37.892  43.977   7.025
 5621POPC   C4B71782  37.495  44.051   7.076
 5622POPC   NC371783  42.984  14.083   5.470
 5622POPC   PO471784  43.163  13.411   5.407
 5622POPC   GL171785  43.035  13.642   5.746
 5622POPC   GL271786  43.375  13.674   5.843
 5622POPC   C1A71787  42.908  13.762   6.167
 5622POPC   D2A71788  43.042  13.789   6.611
 5622POPC   C3A71789  43.034  13.568   6.974
 5622POPC   C4A71790  42.859  13.739   7.327
 5622POPC   C1B71791  43.428  13.759   6.270
 5622POPC   C2B71792  43.508  14.008   6.644
 5622POPC   C3B71793  43.569  13.769   7.002
 5622POPC   C4B71794  43.360  13.664   7.373
 5623POPC   NC371795  20.536  13.022   4.956
 5623POPC   PO471796  20.492  12.692   5.464
 5623POPC   GL171797  20.761  12.798   5.874
 5623POPC   GL271798  20.454  12.821   6.060
 5623POPC   C1A71799  20.858  12.872   6.358
 5623POPC   D2A71800  20.546  12.809   6.685
 5623POPC   C3A71801  20.592  12.684   7.120
 5623POPC   C4A71802  20.617  12.851   7.566
 5623POPC   C1B71803  20.512  13.222   6.318
 5623POPC   C2B71804  20.783  13.292   6.695
 5623POPC   C3B71805  20.701  13.172   7.130
 5623POPC   C4B71806  20.416  13.310   7.469
 5624POPC   NC371807  36.236  22.562   5.181
 5624POPC   PO471808  36.170  21.904   5.348
 5624POPC   GL171809  36.187  22.155   5.696
 5624POPC   GL271810  35.893  22.006   5.821
 5624POPC   C1A71811  36.200  22.243   6.143
 5624POPC   D2A71812  36.091  21.952   6.479
 5624POPC   C3A71813  36.305  22.093   6.840
 5624POPC   C4A71814  36.243  22.372   7.162
 5624POPC   C1B71815  35.672  22.131   6.146
 5624POPC   C2B71816  35.574  22.075   6.538
 5624POPC   C3B71817  35.780  21.984   6.914
 5624POPC   C4B71818  36.010  21.887   7.255
 5625POPC   NC371819  23.406   2.022   5.245
 5625POPC   PO471820  24.041   1.722   5.400
 5625POPC   GL171821  23.918   1.862   5.801
 5625POPC   GL271822  23.696   2.150   5.806
 5625POPC   C1A71823  23.936   1.900   6.232
 5625POPC   D2A71824  23.819   1.742   6.607
 5625POPC   C3A71825  24.054   1.792   6.939
 5625POPC   C4A71826  23.867   2.031   7.230
 5625POPC   C1B71827  23.710   2.355   6.217
 5625POPC   C2B71828  23.448   2.417   6.571
 5625POPC   C3B71829  23.464   2.169   6.931
 5625POPC   C4B71830  23.513   1.740   7.017
 5626POPC   NC371831  44.501  31.664   5.452
 5626POPC   PO471832  44.900  31.085   5.537
 5626POPC   GL171833  44.678  31.281   5.838
 5626POPC   GL271834  44.778  31.620   5.905
 5626POPC   C1A71835  44.539  31.352   6.258
 5626POPC   D2A71836  44.445  31.512   6.640
 5626POPC   C3A71837  44.550  31.271   6.991
 5626POPC   C4A71838  44.783  31.182   7.370
 5626POPC   C1B71839  44.741  31.863   6.279
 5626POPC   C2B71840  44.891  31.834   6.681
 5626POPC   C3B71841  44.869  31.645   7.089
 5626POPC   C4B71842  44.809  31.670   7.547
 5627POPC   NC371843  18.865  40.511   5.227
 5627POPC   PO471844  19.354  41.026   5.403
 5627POPC   GL171845  19.200  40.840   5.767
 5627POPC   GL271846  18.811  40.855   5.763
 5627POPC   C1A71847  19.285  40.667   6.197
 5627POPC   D2A71848  19.334  40.522   6.668
 5627POPC   C3A71849  18.954  40.390   6.936
 5627POPC   C4A71850  18.864  40.586   7.338
 5627POPC   C1B71851  18.984  41.102   6.137
 5627POPC   C2B71852  19.083  40.955   6.561
 5627POPC   C3B71853  19.108  40.880   6.981
 5627POPC   C4B71854  18.916  41.092   7.291
 5628POPC   NC371855  12.841  38.116   5.297
 5628POPC   PO471856  12.675  38.756   5.268
 5628POPC   GL171857  12.936  38.600   5.638
 5628POPC   GL271858  12.895  38.259   5.776
 5628POPC   C1A71859  13.088  38.601   6.082
 5628POPC   D2A71860  12.915  38.465   6.476
 5628POPC   C3A71861  12.870  38.670   6.850
 5628POPC   C4A71862  12.796  38.505   7.263
 5628POPC   C1B71863  12.814  38.086   6.141
 5628POPC   C2B71864  12.618  38.039   6.515
 5628POPC   C3B71865  12.814  38.121   6.894
 5628POPC   C4B71866  12.642  37.989   7.270
 5629POPC   NC371867  35.069   9.594   5.305
 5629POPC   PO471868  35.772   9.807   5.272
 5629POPC   GL171869  35.650   9.946   5.700
 5629POPC   GL271870  35.283   9.888   5.706
 5629POPC   C1A71871  35.576   9.977   6.175
 5629POPC   D2A71872  35.523   9.719   6.584
 5629POPC   C3A71873  35.442   9.725   7.059
 5629POPC   C4A71874  35.456   9.695   7.533
 5629POPC   C1B71875  35.073  10.105   6.053
 5629POPC   C2B71876  35.084  10.009   6.496
 5629POPC   C3B71877  34.982   9.936   6.936
 5629POPC   C4B71878  35.104  10.030   7.373
 5630POPC   NC371879  21.087   6.382   5.348
 5630POPC   PO471880  21.493   6.898   5.373
 5630POPC   GL171881  21.401   6.640   5.737
 5630POPC   GL271882  21.061   6.667   5.810
 5630POPC   C1A71883  21.614   6.552   6.138
 5630POPC   D2A71884  21.806   6.284   6.452
 5630POPC   C3A71885  21.595   6.307   6.847
 5630POPC   C4A71886  21.614   6.603   7.171
 5630POPC   C1B71887  21.107   6.503   6.229
 5630POPC   C2B71888  21.279   6.667   6.615
 5630POPC   C3B71889  21.149   6.576   7.027
 5630POPC   C4B71890  21.135   6.460   7.528
 5631POPC   NC371891  15.665  29.166   5.464
 5631POPC   PO471892  15.195  29.527   5.125
 5631POPC   GL171893  15.305  29.433   5.651
 5631POPC   GL271894  15.292  29.033   5.765
 5631POPC   C1A71895  15.172  29.388   6.096
 5631POPC   D2A71896  15.340  29.246   6.495
 5631POPC   C3A71897  15.199  29.221   6.933
 5631POPC   C4A71898  15.401  29.390   7.300
 5631POPC   C1B71899  15.103  28.869   6.162
 5631POPC   C2B71900  14.963  28.915   6.597
 5631POPC   C3B71901  14.973  28.778   7.035
 5631POPC   C4B71902  14.981  29.054   7.401
 5632POPC   NC371903  17.323  40.355   5.430
 5632POPC   PO471904  17.783  39.926   5.332
 5632POPC   GL171905  17.649  39.981   5.737
 5632POPC   GL271906  17.700  40.321   5.788
 5632POPC   C1A71907  17.729  39.827   6.165
 5632POPC   D2A71908  17.562  39.972   6.547
 5632POPC   C3A71909  17.468  39.752   6.898
 5632POPC   C4A71910  17.594  39.905   7.275
 5632POPC   C1B71911  17.351  40.199   6.115
 5632POPC   C2B71912  17.258  40.372   6.541
 5632POPC   C3B71913  17.198  40.168   6.985
 5632POPC   C4B71914  17.104  39.840   7.324
 5633POPC   NC371915  41.961  16.887   5.541
 5633POPC   PO471916  42.580  16.486   5.351
 5633POPC   GL171917  42.495  16.759   5.676
 5633POPC   GL271918  42.332  16.506   5.861
 5633POPC   C1A71919  42.413  16.950   6.110
 5633POPC   D2A71920  42.117  17.048   6.466
 5633POPC   C3A71921  42.261  16.877   6.886
 5633POPC   C4A71922  42.567  17.043   7.187
 5633POPC   C1B71923  42.562  16.447   6.265
 5633POPC   C2B71924  42.488  16.377   6.732
 5633POPC   C3B71925  42.595  16.515   7.184
 5633POPC   C4B71926  42.663  16.348   7.672
 5634POPC   NC371927  23.201  10.646   5.451
 5634POPC   PO471928  22.547  10.683   5.320
 5634POPC   GL171929  22.766  10.741   5.752
 5634POPC   GL271930  22.856  10.398   5.749
 5634POPC   C1A71931  23.063  10.626   6.148
 5634POPC   D2A71932  23.114  10.655   6.605
 5634POPC   C3A71933  23.073  10.293   6.897
 5634POPC   C4A71934  23.137  10.486   7.282
 5634POPC   C1B71935  22.606  10.376   6.116
 5634POPC   C2B71936  22.697  10.368   6.533
 5634POPC   C3B71937  22.688  10.609   6.914
 5634POPC   C4B71938  22.657  10.307   7.261
 5635POPC   NC371939  42.520  25.905   5.484
 5635POPC   PO471940  42.025  26.356   5.436
 5635POPC   GL171941  42.242  26.191   5.801
 5635POPC   GL271942  42.522  26.347   5.953
 5635POPC   C1A71943  42.218  25.898   6.127
 5635POPC   D2A71944  42.075  25.766   6.535
 5635POPC   C3A71945  42.240  25.960   6.918
 5635POPC   C4A71946  42.153  26.074   7.339
 5635POPC   C1B71947  42.733  25.999   6.194
 5635POPC   C2B71948  42.831  25.664   6.506
 5635POPC   C3B71949  42.637  25.541   6.898
 5635POPC   C4B71950  42.535  25.737   7.296
 5636POPC   NC371951  28.928  38.871   5.059
 5636POPC   PO471952  29.289  39.352   5.377
 5636POPC   GL171953  29.130  39.351   5.787
 5636POPC   GL271954  28.801  39.223   5.757
 5636POPC   C1A71955  29.152  39.439   6.242
 5636POPC   D2A71956  28.945  39.449   6.666
 5636POPC   C3A71957  29.102  39.444   7.102
 5636POPC   C4A71958  28.881  39.333   7.478
 5636POPC   C1B71959  28.962  38.977   6.126
 5636POPC   C2B71960  29.143  38.995   6.533
 5636POPC   C3B71961  28.923  38.977   6.910
 5636POPC   C4B71962  29.025  38.884   7.294
 5637POPC   NC371963  23.513  32.714   5.376
 5637POPC   PO471964  23.715  32.071   5.460
 5637POPC   GL171965  23.872  32.299   5.835
 5637POPC   GL271966  23.577  32.445   5.951
 5637POPC   C1A71967  23.864  32.137   6.264
 5637POPC   D2A71968  23.551  32.085   6.572
 5637POPC   C3A71969  23.674  32.227   6.931
 5637POPC   C4A71970  23.843  31.980   7.241
 5637POPC   C1B71971  23.307  32.092   6.122
 5637POPC   C2B71972  23.017  32.065   6.503
 5637POPC   C3B71973  23.101  32.083   6.973
 5637POPC   C4B71974  23.102  32.190   7.436
 5638POPC   NC371975  16.058  31.256   5.428
 5638POPC   PO471976  15.575  31.660   5.539
 5638POPC   GL171977  15.911  31.502   5.822
 5638POPC   GL271978  16.266  31.637   5.705
 5638POPC   C1A71979  16.065  31.334   6.179
 5638POPC   D2A71980  15.864  31.328   6.554
 5638POPC   C3A71981  16.109  31.340   6.903
 5638POPC   C4A71982  15.906  31.246   7.262
 5638POPC   C1B71983  16.356  31.752   6.125
 5638POPC   C2B71984  16.176  31.735   6.534
 5638POPC   C3B71985  16.116  31.867   6.952
 5638POPC   C4B71986  16.273  32.069   7.289
 5639POPC   NC371987  24.214  27.999   5.485
 5639POPC   PO471988  23.852  27.502   5.256
 5639POPC   GL171989  23.826  27.635   5.714
 5639POPC   GL271990  23.462  27.713   5.813
 5639POPC   C1A71991  23.818  27.491   6.179
 5639POPC   D2A71992  23.502  27.518   6.530
 5639POPC   C3A71993  23.732  27.500   6.884
 5639POPC   C4A71994  23.790  27.481   7.268
 5639POPC   C1B71995  23.570  27.928   6.199
 5639POPC   C2B71996  23.775  27.926   6.599
 5639POPC   C3B71997  23.616  27.968   7.061
 5639POPC   C4B71998  23.709  27.900   7.560
 5640POPC   NC371999  24.625  38.907   5.440
 5640POPC   PO472000  24.743  39.579   5.467
 5640POPC   GL172001  24.487  39.431   5.832
 5640POPC   GL272002  24.444  39.077   5.881
 5640POPC   C1A72003  24.508  39.356   6.303
 5640POPC   D2A72004  24.740  39.331   6.685
 5640POPC   C3A72005  24.462  39.266   7.047
 5640POPC   C4A72006  24.250  39.513   7.331
 5640POPC   C1B72007  24.127  39.036   6.194
 5640POPC   C2B72008  24.246  39.011   6.657
 5640POPC   C3B72009  24.158  38.864   7.127
 5640POPC   C4B72010  24.539  38.908   7.415
 5641POPC   NC372011  25.611  30.167   5.651
 5641POPC   PO472012  25.197  30.610   5.348
 5641POPC   GL172013  25.215  30.784   5.772
 5641POPC   GL272014  25.494  30.610   5.868
 5641POPC   C1A72015  25.239  30.840   6.253
 5641POPC   D2A72016  25.008  30.721   6.644
 5641POPC   C3A72017  25.149  30.754   7.077
 5641POPC   C4A72018  24.997  30.814   7.522
 5641POPC   C1B72019  25.770  30.710   6.232
 5641POPC   C2B72020  25.667  30.725   6.680
 5641POPC   C3B72021  25.422  30.381   6.853
 5641POPC   C4B72022  25.342  30.329   7.277
 5642POPC   NC372023   8.588   5.197   5.520
 5642POPC   PO472024   7.910   5.295   5.378
 5642POPC   GL172025   8.116   5.118   5.721
 5642POPC   GL272026   8.246   5.441   5.818
 5642POPC   C1A72027   8.139   5.093   6.172
 5642POPC   D2A72028   8.057   5.328   6.526
 5642POPC   C3A72029   7.929   5.091   6.870
 5642POPC   C4A72030   8.040   5.216   7.282
 5642POPC   C1B72031   8.587   5.374   6.160
 5642POPC   C2B72032   8.570   5.267   6.604
 5642POPC   C3B72033   8.418   5.433   7.023
 5642POPC   C4B72034   8.385   5.558   7.462
 5643POPC   NC372035  28.814  30.555   5.519
 5643POPC   PO472036  29.004  29.836   5.422
 5643POPC   GL172037  29.061  29.808   5.869
 5643POPC   GL272038  28.735  29.781   6.034
 5643POPC   C1A72039  29.085  30.008   6.330
 5643POPC   D2A72040  28.954  30.030   6.783
 5643POPC   C3A72041  29.310  30.044   7.051
 5643POPC   C4A72042  29.439  30.015   7.503
 5643POPC   C1B72043  29.014  29.504   6.269
 5643POPC   C2B72044  29.242  29.608   6.674
 5643POPC   C3B72045  29.083  29.581   7.090
 5643POPC   C4B72046  28.959  29.930   7.400
 5644POPC   NC372047  27.713  28.780   5.150
 5644POPC   PO472048  27.388  29.341   5.255
 5644POPC   GL172049  27.438  29.239   5.673
 5644POPC   GL272050  27.250  29.534   5.750
 5644POPC   C1A72051  27.608  28.963   6.041
 5644POPC   D2A72052  27.892  28.862   6.413
 5644POPC   C3A72053  27.786  28.956   6.800
 5644POPC   C4A72054  27.596  28.961   7.177
 5644POPC   C1B72055  27.498  29.459   6.131
 5644POPC   C2B72056  27.414  29.194   6.497
 5644POPC   C3B72057  27.424  29.383   6.938
 5644POPC   C4B72058  27.375  29.375   7.415
 5645POPC   NC372059  22.503   6.072   5.357
 5645POPC   PO472060  21.852   6.000   5.445
 5645POPC   GL172061  22.181   5.746   5.634
 5645POPC   GL272062  21.968   5.519   5.790
 5645POPC   C1A72063  22.383   5.765   6.041
 5645POPC   D2A72064  22.313   6.055   6.397
 5645POPC   C3A72065  22.372   5.849   6.779
 5645POPC   C4A72066  22.455   5.791   7.194
 5645POPC   C1B72067  21.889   5.848   6.138
 5645POPC   C2B72068  21.881   5.801   6.592
 5645POPC   C3B72069  21.937   5.968   7.025
 5645POPC   C4B72070  22.092   6.094   7.424
 5646POPC   NC372071  19.407   6.796   5.385
 5646POPC   PO472072  18.743   6.507   5.497
 5646POPC   GL172073  19.147   6.541   5.761
 5646POPC   GL272074  19.272   6.881   5.853
 5646POPC   C1A72075  19.245   6.503   6.205
 5646POPC   D2A72076  19.028   6.648   6.588
 5646POPC   C3A72077  19.134   6.602   7.029
 5646POPC   C4A72078  18.748   6.491   7.320
 5646POPC   C1B72079  19.195   7.018   6.257
 5646POPC   C2B72080  19.346   7.240   6.605
 5646POPC   C3B72081  19.349   7.082   7.007
 5646POPC   C4B72082  19.530   6.864   7.335
 5647POPC   NC372083  17.513  32.572   5.352
 5647POPC   PO472084  17.258  31.915   5.343
 5647POPC   GL172085  17.433  32.205   5.713
 5647POPC   GL272086  17.119  32.375   5.803
 5647POPC   C1A72087  17.624  32.314   6.158
 5647POPC   D2A72088  17.690  32.253   6.623
 5647POPC   C3A72089  17.868  32.448   7.011
 5647POPC   C4A72090  17.728  32.463   7.466
 5647POPC   C1B72091  17.179  32.027   6.125
 5647POPC   C2B72092  17.315  31.908   6.550
 5647POPC   C3B72093  17.265  32.094   6.942
 5647POPC   C4B72094  17.328  32.142   7.370
 5648POPC   NC372095  22.531  37.395   5.442
 5648POPC   PO472096  22.225  37.979   5.319
 5648POPC   GL172097  22.252  37.796   5.728
 5648POPC   GL272098  22.080  37.453   5.691
 5648POPC   C1A72099  22.168  38.018   6.144
 5648POPC   D2A72100  22.134  38.081   6.604
 5648POPC   C3A72101  22.407  37.848   6.880
 5648POPC   C4A72102  22.517  37.550   7.207
 5648POPC   C1B72103  22.032  37.501   6.149
 5648POPC   C2B72104  22.057  37.553   6.612
 5648POPC   C3B72105  21.959  37.671   7.052
 5648POPC   C4B72106  21.640  37.592   7.378
 5649POPC   NC372107  16.538  11.404   5.231
 5649POPC   PO472108  16.748  10.816   5.448
 5649POPC   GL172109  16.605  10.998   5.836
 5649POPC   GL272110  16.917  11.081   6.037
 5649POPC   C1A72111  16.448  11.069   6.259
 5649POPC   D2A72112  16.580  11.147   6.695
 5649POPC   C3A72113  16.438  11.122   7.142
 5649POPC   C4A72114  16.701  11.088   7.506
 5649POPC   C1B72115  16.966  11.376   6.410
 5649POPC   C2B72116  16.912  11.508   6.855
 5649POPC   C3B72117  17.076  11.323   7.245
 5649POPC   C4B72118  17.374  11.446   7.577
 5650POPC   NC372119  40.005  29.805   5.439
 5650POPC   PO472120  40.515  30.288   5.402
 5650POPC   GL172121  40.345  30.098   5.721
 5650POPC   GL272122  40.022  30.236   5.790
 5650POPC   C1A72123  40.345  30.090   6.163
 5650POPC   D2A72124  40.107  30.275   6.485
 5650POPC   C3A72125  40.200  30.038   6.881
 5650POPC   C4A72126  40.334  29.816   7.246
 5650POPC   C1B72127  39.809  29.989   6.146
 5650POPC   C2B72128  39.757  29.881   6.610
 5650POPC   C3B72129  39.810  29.743   7.059
 5650POPC   C4B72130  39.902  29.767   7.515
 5651POPC   NC372131  18.884  42.905   5.644
 5651POPC   PO472132  19.264  43.491   5.470
 5651POPC   GL172133  19.225  43.227   5.814
 5651POPC   GL272134  18.926  43.431   5.896
 5651POPC   C1A72135  19.074  43.099   6.244
 5651POPC   D2A72136  18.916  43.228   6.621
 5651POPC   C3A72137  18.968  42.923   6.927
 5651POPC   C4A72138  19.176  43.031   7.281
 5651POPC   C1B72139  19.345  43.565   6.149
 5651POPC   C2B72140  19.564  43.384   6.506
 5651POPC   C3B72141  19.376  43.269   6.878
 5651POPC   C4B72142  19.295  43.511   7.259
 5652POPC   NC372143  26.674  11.182   5.532
 5652POPC   PO472144  26.099  11.526   5.516
 5652POPC   GL172145  26.024  11.378   5.933
 5652POPC   GL272146  26.232  11.106   5.790
 5652POPC   C1A72147  25.873  11.444   6.385
 5652POPC   D2A72148  25.716  11.478   6.851
 5652POPC   C3A72149  26.084  11.576   7.168
 5652POPC   C4A72150  26.112  11.568   7.658
 5652POPC   C1B72151  26.378  11.133   6.212
 5652POPC   C2B72152  26.134  10.990   6.506
 5652POPC   C3B72153  26.076  11.130   6.895
 5652POPC   C4B72154  26.026  11.101   7.336
 5653POPC   NC372155  38.286  11.839   5.498
 5653POPC   PO472156  38.688  12.262   5.436
 5653POPC   GL172157  38.437  12.227   5.836
 5653POPC   GL272158  38.321  11.898   5.995
 5653POPC   C1A72159  38.494  12.273   6.288
 5653POPC   D2A72160  38.334  12.002   6.577
 5653POPC   C3A72161  38.491  12.223   6.918
 5653POPC   C4A72162  38.324  12.145   7.307
 5653POPC   C1B72163  38.734  11.838   6.224
 5653POPC   C2B72164  38.849  11.925   6.683
 5653POPC   C3B72165  38.527  11.733   7.023
 5653POPC   C4B72166  38.368  11.659   7.485
 5654POPC   NC372167  20.941  12.712   5.414
 5654POPC   PO472168  21.584  12.648   5.471
 5654POPC   GL172169  21.299  12.823   5.758
 5654POPC   GL272170  21.538  12.735   5.969
 5654POPC   C1A72171  21.246  13.112   6.134
 5654POPC   D2A72172  21.354  12.998   6.566
 5654POPC   C3A72173  21.033  12.875   6.864
 5654POPC   C4A72174  21.059  12.858   7.316
 5654POPC   C1B72175  21.247  12.595   6.232
 5654POPC   C2B72176  21.427  12.488   6.616
 5654POPC   C3B72177  21.448  12.656   7.029
 5654POPC   C4B72178  21.350  12.434   7.398
 5655POPC   NC372179   1.557  26.018   5.406
 5655POPC   PO472180   2.210  26.368   5.295
 5655POPC   GL172181   2.044  26.050   5.606
 5655POPC   GL272182   2.195  25.702   5.685
 5655POPC   C1A72183   1.941  26.068   6.072
 5655POPC   D2A72184   1.869  25.835   6.486
 5655POPC   C3A72185   1.884  25.965   6.920
 5655POPC   C4A72186   1.964  25.833   7.337
 5655POPC   C1B72187   2.307  25.737   6.153
 5655POPC   C2B72188   2.313  26.070   6.506
 5655POPC   C3B72189   2.376  26.082   6.965
 5655POPC   C4B72190   2.436  25.710   7.195
 5656POPC   NC372191  16.137  38.159   5.606
 5656POPC   PO472192  15.837  38.697   5.401
 5656POPC   GL172193  16.074  38.777   5.768
 5656POPC   GL272194  15.788  38.963   5.894
 5656POPC   C1A72195  16.235  38.575   6.139
 5656POPC   D2A72196  16.034  38.312   6.455
 5656POPC   C3A72197  16.096  38.444   6.889
 5656POPC   C4A72198  15.836  38.286   7.207
 5656POPC   C1B72199  15.774  38.782   6.320
 5656POPC   C2B72200  15.763  38.877   6.765
 5656POPC   C3B72201  15.683  38.768   7.183
 5656POPC   C4B72202  15.582  38.892   7.619
 5657POPC   NC372203  40.994  36.565   5.570
 5657POPC   PO472204  40.339  36.598   5.660
 5657POPC   GL172205  40.698  36.825   5.870
 5657POPC   GL272206  41.092  36.977   5.817
 5657POPC   C1A72207  40.741  36.646   6.240
 5657POPC   D2A72208  40.645  36.915   6.540
 5657POPC   C3A72209  40.739  36.819   6.918
 5657POPC   C4A72210  40.854  37.110   7.172
 5657POPC   C1B72211  41.037  37.089   6.229
 5657POPC   C2B72212  41.136  37.081   6.638
 5657POPC   C3B72213  41.162  37.394   6.918
 5657POPC   C4B72214  41.283  37.443   7.301
 5658POPC   NC372215  29.720  39.556   5.309
 5658POPC   PO472216  30.265  39.137   5.367
 5658POPC   GL172217  30.032  39.097   5.740
 5658POPC   GL272218  29.660  39.098   5.730
 5658POPC   C1A72219  30.000  39.080   6.183
 5658POPC   D2A72220  29.991  39.281   6.571
 5658POPC   C3A72221  29.958  39.103   6.978
 5658POPC   C4A72222  29.746  39.401   7.237
 5658POPC   C1B72223  29.501  38.953   6.146
 5658POPC   C2B72224  29.640  38.883   6.580
 5658POPC   C3B72225  29.449  39.010   6.979
 5658POPC   C4B72226  29.541  38.957   7.404
 5659POPC   NC372227   3.978  18.493   5.464
 5659POPC   PO472228   4.467  18.110   5.417
 5659POPC   GL172229   4.346  18.215   5.818
 5659POPC   GL272230   4.026  18.129   5.847
 5659POPC   C1A72231   4.326  18.329   6.266
 5659POPC   D2A72232   4.457  18.197   6.696
 5659POPC   C3A72233   4.506  18.460   7.076
 5659POPC   C4A72234   4.322  18.556   7.482
 5659POPC   C1B72235   3.899  18.036   6.250
 5659POPC   C2B72236   3.983  17.996   6.715
 5659POPC   C3B72237   4.106  18.153   7.146
 5659POPC   C4B72238   4.292  18.047   7.524
 5660POPC   NC372239  13.849  38.427   5.592
 5660POPC   PO472240  13.265  38.252   5.425
 5660POPC   GL172241  13.395  38.161   5.866
 5660POPC   GL272242  13.742  38.157   6.022
 5660POPC   C1A72243  13.300  38.179   6.306
 5660POPC   D2A72244  13.396  38.431   6.680
 5660POPC   C3A72245  13.244  38.337   7.080
 5660POPC   C4A72246  13.108  38.180   7.498
 5660POPC   C1B72247  13.589  38.584   6.213
 5660POPC   C2B72248  13.759  38.783   6.625
 5660POPC   C3B72249  13.663  38.703   7.083
 5660POPC   C4B72250  13.526  38.510   7.480
 5661POPC   NC372251  27.044  12.264   4.948
 5661POPC   PO472252  26.692  12.457   5.553
 5661POPC   GL172253  26.686  12.837   5.844
 5661POPC   GL272254  26.362  12.915   5.978
 5661POPC   C1A72255  26.815  12.980   6.296
 5661POPC   D2A72256  26.923  12.717   6.696
 5661POPC   C3A72257  27.241  12.863   7.026
 5661POPC   C4A72258  27.417  12.973   7.463
 5661POPC   C1B72259  26.514  12.587   6.255
 5661POPC   C2B72260  26.414  12.577   6.690
 5661POPC   C3B72261  26.574  12.729   7.094
 5661POPC   C4B72262  26.591  12.587   7.527
 5662POPC   NC372263  19.190   1.441   5.341
 5662POPC   PO472264  19.589   1.040   5.416
 5662POPC   GL172265  19.260   1.103   5.776
 5662POPC   GL272266  18.908   1.275   5.803
 5662POPC   C1A72267  19.250   1.311   6.207
 5662POPC   D2A72268  19.280   1.473   6.653
 5662POPC   C3A72269  19.047   1.161   6.874
 5662POPC   C4A72270  18.813   0.854   7.134
 5662POPC   C1B72271  18.765   1.523   6.161
 5662POPC   C2B72272  18.718   1.467   6.606
 5662POPC   C3B72273  18.851   1.593   7.042
 5662POPC   C4B72274  18.677   1.474   7.451
 5663POPC   NC372275  33.315  37.900   5.394
 5663POPC   PO472276  33.854  37.512   5.459
 5663POPC   GL172277  33.885  37.777   5.790
 5663POPC   GL272278  33.623  38.012   5.794
 5663POPC   C1A72279  34.042  37.829   6.189
 5663POPC   D2A72280  33.873  37.606   6.546
 5663POPC   C3A72281  34.005  37.618   6.930
 5663POPC   C4A72282  33.798  37.815   7.228
 5663POPC   C1B72283  33.539  37.795   6.191
 5663POPC   C2B72284  33.490  37.919   6.608
 5663POPC   C3B72285  33.362  37.960   7.006
 5663POPC   C4B72286  33.374  37.928   7.473
 5664POPC   NC372287  32.492  41.317   5.555
 5664POPC   PO472288  31.969  41.662   5.505
 5664POPC   GL172289  32.038  41.401   5.848
 5664POPC   GL272290  32.319  41.639   5.919
 5664POPC   C1A72291  32.010  41.516   6.300
 5664POPC   D2A72292  32.244  41.552   6.654
 5664POPC   C3A72293  32.032  41.543   7.029
 5664POPC   C4A72294  31.957  41.239   7.330
 5664POPC   C1B72295  32.597  41.723   6.269
 5664POPC   C2B72296  32.726  41.689   6.688
 5664POPC   C3B72297  32.556  41.706   7.072
 5664POPC   C4B72298  32.385  41.550   7.437
 5665POPC   NC372299  23.960  12.233   5.297
 5665POPC   PO472300  23.350  12.000   5.562
 5665POPC   GL172301  23.760  12.087   5.775
 5665POPC   GL272302  23.940  11.782   5.917
 5665POPC   C1A72303  23.800  12.279   6.185
 5665POPC   D2A72304  23.932  12.093   6.561
 5665POPC   C3A72305  23.709  12.079   6.957
 5665POPC   C4A72306  23.802  11.883   7.340
 5665POPC   C1B72307  23.606  11.775   6.246
 5665POPC   C2B72308  23.310  11.639   6.601
 5665POPC   C3B72309  23.421  11.606   7.051
 5665POPC   C4B72310  23.286  11.857   7.387
 5666POPC   NC372311  26.375  35.797   5.121
 5666POPC   PO472312  25.851  36.212   5.317
 5666POPC   GL172313  26.023  36.047   5.691
 5666POPC   GL272314  26.262  36.325   5.681
 5666POPC   C1A72315  26.049  35.950   6.164
 5666POPC   D2A72316  25.885  35.874   6.620
 5666POPC   C3A72317  26.145  35.896   7.009
 5666POPC   C4A72318  26.313  36.244   7.228
 5666POPC   C1B72319  25.952  36.435   6.011
 5666POPC   C2B72320  25.932  36.409   6.463
 5666POPC   C3B72321  25.879  36.328   6.923
 5666POPC   C4B72322  25.496  36.432   7.158
 5667POPC   NC372323  28.460  32.561   5.359
 5667POPC   PO472324  28.140  31.917   5.482
 5667POPC   GL172325  28.436  32.148   5.696
 5667POPC   GL272326  28.260  32.449   5.805
 5667POPC   C1A72327  28.565  32.077   6.113
 5667POPC   D2A72328  28.232  32.167   6.358
 5667POPC   C3A72329  28.233  32.073   6.782
 5667POPC   C4A72330  28.294  32.114   7.206
 5667POPC   C1B72331  28.531  32.590   6.091
 5667POPC   C2B72332  28.598  32.548   6.523
 5667POPC   C3B72333  28.425  32.597   6.911
 5667POPC   C4B72334  28.602  32.500   7.279
 5668POPC   NC372335  12.949  14.088   5.475
 5668POPC   PO472336  12.952  13.443   5.404
 5668POPC   GL172337  13.041  13.562   5.844
 5668POPC   GL272338  12.758  13.785   5.894
 5668POPC   C1A72339  12.994  13.426   6.302
 5668POPC   D2A72340  12.974  13.631   6.729
 5668POPC   C3A72341  13.221  13.473   7.104
 5668POPC   C4A72342  13.033  13.452   7.562
 5668POPC   C1B72343  13.010  13.934   6.241
 5668POPC   C2B72344  12.968  14.205   6.579
 5668POPC   C3B72345  13.035  14.098   7.006
 5668POPC   C4B72346  12.818  13.764   7.227
 5669POPC   NC372347  21.352  25.194   5.319
 5669POPC   PO472348  21.678  25.660   5.625
 5669POPC   GL172349  21.724  25.192   5.823
 5669POPC   GL272350  21.540  24.840   5.746
 5669POPC   C1A72351  21.745  25.168   6.299
 5669POPC   D2A72352  21.719  25.400   6.716
 5669POPC   C3A72353  21.652  25.212   7.143
 5669POPC   C4A72354  21.727  25.078   7.593
 5669POPC   C1B72355  21.192  24.880   6.070
 5669POPC   C2B72356  21.138  24.938   6.531
 5669POPC   C3B72357  21.201  25.187   6.923
 5669POPC   C4B72358  21.252  25.007   7.357
 5670POPC   NC372359   4.461  19.291   5.376
 5670POPC   PO472360   3.892  18.955   5.336
 5670POPC   GL172361   4.151  18.955   5.704
 5670POPC   GL272362   4.255  19.277   5.846
 5670POPC   C1A72363   4.111  18.862   6.140
 5670POPC   D2A72364   4.125  18.700   6.559
 5670POPC   C3A72365   4.404  18.925   6.812
 5670POPC   C4A72366   4.211  18.895   7.145
 5670POPC   C1B72367   4.513  19.338   6.238
 5670POPC   C2B72368   4.545  19.415   6.704
 5670POPC   C3B72369   4.534  19.336   7.168
 5670POPC   C4B72370   4.758  19.317   7.603
 5671POPC   NC372371  28.674  42.447   5.399
 5671POPC   PO472372  29.321  42.327   5.421
 5671POPC   GL172373  29.257  42.382   5.813
 5671POPC   GL272374  28.995  42.624   5.817
 5671POPC   C1A72375  29.412  42.145   6.144
 5671POPC   D2A72376  29.345  42.248   6.554
 5671POPC   C3A72377  29.126  42.163   6.921
 5671POPC   C4A72378  29.400  42.401   7.185
 5671POPC   C1B72379  28.965  42.422   6.238
 5671POPC   C2B72380  28.959  42.594   6.655
 5671POPC   C3B72381  28.951  42.633   7.092
 5671POPC   C4B72382  28.946  42.386   7.483
 5672POPC   NC372383   5.872  38.704   5.511
 5672POPC   PO472384   5.567  38.113   5.435
 5672POPC   GL172385   5.582  38.368   5.823
 5672POPC   GL272386   5.921  38.293   5.856
 5672POPC   C1A72387   5.713  38.555   6.263
 5672POPC   D2A72388   5.701  38.741   6.709
 5672POPC   C3A72389   5.949  38.617   7.095
 5672POPC   C4A72390   5.753  38.535   7.526
 5672POPC   C1B72391   6.086  38.153   6.239
 5672POPC   C2B72392   6.043  38.289   6.674
 5672POPC   C3B72393   6.174  38.160   7.089
 5672POPC   C4B72394   6.074  38.132   7.527
 5673POPC   NC372395  33.247  13.212   5.343
 5673POPC   PO472396  33.328  13.894   5.354
 5673POPC   GL172397  33.011  13.755   5.697
 5673POPC   GL272398  33.016  13.398   5.753
 5673POPC   C1A72399  32.842  13.678   6.140
 5673POPC   D2A72400  32.814  13.874   6.563
 5673POPC   C3A72401  32.718  13.720   6.961
 5673POPC   C4A72402  32.869  13.610   7.349
 5673POPC   C1B72403  33.309  13.331   6.088
 5673POPC   C2B72404  33.178  13.479   6.470
 5673POPC   C3B72405  33.268  13.459   6.873
 5673POPC   C4B72406  33.230  13.252   7.248
 5674POPC   NC372407  32.367  15.908   5.456
 5674POPC   PO472408  32.561  16.479   5.605
 5674POPC   GL172409  32.293  16.187   5.915
 5674POPC   GL272410  32.122  15.830   5.913
 5674POPC   C1A72411  32.197  16.048   6.376
 5674POPC   D2A72412  32.185  15.685   6.695
 5674POPC   C3A72413  32.228  15.892   7.039
 5674POPC   C4A72414  32.491  15.846   7.370
 5674POPC   C1B72415  31.837  15.709   6.309
 5674POPC   C2B72416  31.744  15.923   6.760
 5674POPC   C3B72417  31.640  15.968   7.232
 5674POPC   C4B72418  31.675  15.923   7.721
 5675POPC   NC372419  11.126   1.497   5.441
 5675POPC   PO472420  11.383   0.860   5.466
 5675POPC   GL172421  11.431   1.278   5.792
 5675POPC   GL272422  11.095   1.320   5.949
 5675POPC   C1A72423  11.482   1.522   6.210
 5675POPC   D2A72424  11.212   1.344   6.537
 5675POPC   C3A72425  11.321   1.301   6.971
 5675POPC   C4A72426  11.485   1.478   7.347
 5675POPC   C1B72427  11.359   0.998   6.208
 5675POPC   C2B72428  11.531   0.937   6.666
 5675POPC   C3B72429  11.418   0.779   7.111
 5675POPC   C4B72430  11.192   0.615   7.514
 5676POPC   NC372431   3.434  23.745   5.401
 5676POPC   PO472432   3.809  23.239   5.652
 5676POPC   GL172433   3.596  23.544   5.867
 5676POPC   GL272434   3.569  23.910   5.869
 5676POPC   C1A72435   3.439  23.592   6.262
 5676POPC   D2A72436   3.629  23.705   6.623
 5676POPC   C3A72437   3.383  23.531   6.925
 5676POPC   C4A72438   3.473  23.591   7.348
 5676POPC   C1B72439   3.343  24.098   6.240
 5676POPC   C2B72440   3.243  24.055   6.689
 5676POPC   C3B72441   3.514  24.008   7.064
 5676POPC   C4B72442   3.396  24.078   7.502
 5677POPC   NC372443   8.620  44.787   5.483
 5677POPC   PO472444   9.103  44.569   5.090
 5677POPC   GL172445   9.146  44.817   5.605
 5677POPC   GL272446   8.854  44.894   5.890
 5677POPC   C1A72447   9.243  44.731   6.109
 5677POPC   D2A72448   9.283  44.910   6.515
 5677POPC   C3A72449   9.150  44.694   6.838
 5677POPC   C4A72450   9.192  44.740   7.226
 5677POPC   C1B72451   8.841   0.057   6.296
 5677POPC   C2B72452   8.785   0.026   6.729
 5677POPC   C3B72453   8.635  44.972   7.138
 5677POPC   C4B72454   8.792  44.789   7.526
 5678POPC   NC372455   9.592  43.777   5.432
 5678POPC   PO472456   9.909  44.375   5.241
 5678POPC   GL172457   9.894  44.125   5.658
 5678POPC   GL272458   9.565  44.068   5.830
 5678POPC   C1A72459   9.999  44.025   6.111
 5678POPC   D2A72460   9.844  44.051   6.536
 5678POPC   C3A72461   9.808  43.937   6.954
 5678POPC   C4A72462  10.026  43.971   7.339
 5678POPC   C1B72463   9.567  43.776   6.198
 5678POPC   C2B72464   9.605  43.570   6.577
 5678POPC   C3B72465   9.563  43.482   6.982
 5678POPC   C4B72466   9.578  43.598   7.383
 5679POPC   NC372467   3.037  27.176   5.374
 5679POPC   PO472468   2.791  27.767   5.257
 5679POPC   GL172469   2.716  27.489   5.672
 5679POPC   GL272470   2.908  27.662   5.830
 5679POPC   C1A72471   2.755  27.341   6.154
 5679POPC   D2A72472   2.964  27.545   6.504
 5679POPC   C3A72473   2.831  27.402   6.889
 5679POPC   C4A72474   2.714  27.385   7.298
 5679POPC   C1B72475   2.732  27.873   6.158
 5679POPC   C2B72476   2.868  28.058   6.513
 5679POPC   C3B72477   2.773  27.911   6.868
 5679POPC   C4B72478   2.920  27.858   7.243
 5680POPC   NC372479  39.733  34.940   5.392
 5680POPC   PO472480  40.366  34.629   5.406
 5680POPC   GL172481  40.067  34.683   5.748
 5680POPC   GL272482  39.947  34.340   5.823
 5680POPC   C1A72483  39.916  34.670   6.198
 5680POPC   D2A72484  39.907  34.455   6.593
 5680POPC   C3A72485  39.959  34.712   6.918
 5680POPC   C4A72486  40.088  34.607   7.322
 5680POPC   C1B72487  40.196  34.229   6.236
 5680POPC   C2B72488  40.330  34.217   6.718
 5680POPC   C3B72489  40.364  34.225   7.186
 5680POPC   C4B72490  40.321  34.334   7.684
 5681POPC   NC372491   6.917   1.652   5.676
 5681POPC   PO472492   6.488   2.082   5.348
 5681POPC   GL172493   6.585   2.048   5.780
 5681POPC   GL272494   6.878   2.250   5.780
 5681POPC   C1A72495   6.774   1.984   6.212
 5681POPC   D2A72496   6.994   1.912   6.572
 5681POPC   C3A72497   6.756   1.939   6.924
 5681POPC   C4A72498   6.959   1.663   7.204
 5681POPC   C1B72499   6.927   2.463   6.160
 5681POPC   C2B72500   6.754   2.401   6.571
 5681POPC   C3B72501   6.956   2.446   6.963
 5681POPC   C4B72502   7.016   2.187   7.280
 5682POPC   NC372503   3.132  11.282   5.189
 5682POPC   PO472504   3.778  11.254   5.186
 5682POPC   GL172505   3.830  11.354   5.671
 5682POPC   GL272506   3.801  10.996   5.873
 5682POPC   C1A72507   3.772  11.433   6.107
 5682POPC   D2A72508   3.721  11.271   6.513
 5682POPC   C3A72509   3.472  11.489   6.812
 5682POPC   C4A72510   3.663  11.487   7.221
 5682POPC   C1B72511   3.495  10.902   6.236
 5682POPC   C2B72512   3.306  11.003   6.655
 5682POPC   C3B72513   3.423  11.034   7.081
 5682POPC   C4B72514   3.360  11.112   7.534
 5683POPC   NC372515  27.545  19.211   5.348
 5683POPC   PO472516  28.079  18.937   5.440
 5683POPC   GL172517  27.811  19.107   5.817
 5683POPC   GL272518  27.456  19.305   5.833
 5683POPC   C1A72519  27.637  19.086   6.256
 5683POPC   D2A72520  27.729  19.333   6.610
 5683POPC   C3A72521  27.804  19.113   7.005
 5683POPC   C4A72522  27.589  18.741   7.189
 5683POPC   C1B72523  27.282  19.480   6.247
 5683POPC   C2B72524  27.236  19.441   6.725
 5683POPC   C3B72525  27.470  19.467   7.137
 5683POPC   C4B72526  27.292  19.497   7.572
 5684POPC   NC372527   5.021  26.983   5.546
 5684POPC   PO472528   5.055  26.275   5.601
 5684POPC   GL172529   5.197  26.595   5.845
 5684POPC   GL272530   4.870  26.668   5.961
 5684POPC   C1A72531   5.304  26.891   6.183
 5684POPC   D2A72532   5.113  27.025   6.588
 5684POPC   C3A72533   5.318  26.796   6.891
 5684POPC   C4A72534   5.524  26.698   7.264
 5684POPC   C1B72535   4.787  26.323   6.286
 5684POPC   C2B72536   4.963  26.241   6.723
 5684POPC   C3B72537   4.957  26.498   7.123
 5684POPC   C4B72538   5.110  26.610   7.556
 5685POPC   NC372539  17.629  36.832   5.393
 5685POPC   PO472540  17.075  37.090   5.469
 5685POPC   GL172541  17.312  36.978   5.820
 5685POPC   GL272542  17.151  36.667   5.900
 5685POPC   C1A72543  17.521  36.953   6.244
 5685POPC   D2A72544  17.553  36.694   6.664
 5685POPC   C3A72545  17.582  36.753   7.109
 5685POPC   C4A72546  17.588  37.178   7.213
 5685POPC   C1B72547  17.158  36.602   6.358
 5685POPC   C2B72548  17.030  36.681   6.807
 5685POPC   C3B72549  17.063  36.628   7.269
 5685POPC   C4B72550  17.272  36.431   7.640
 5686POPC   NC372551   4.191  31.957   5.068
 5686POPC   PO472552   4.581  32.457   5.428
 5686POPC   GL172553   4.305  32.329   5.780
 5686POPC   GL272554   4.138  32.672   5.818
 5686POPC   C1A72555   4.271  32.045   6.190
 5686POPC   D2A72556   4.097  31.916   6.634
 5686POPC   C3A72557   4.368  32.019   7.019
 5686POPC   C4A72558   4.376  31.854   7.472
 5686POPC   C1B72559   4.314  32.561   6.231
 5686POPC   C2B72560   4.469  32.347   6.608
 5686POPC   C3B72561   4.310  32.556   6.970
 5686POPC   C4B72562   4.045  32.652   7.295
 5687POPC   NC372563  17.856  38.716   5.465
 5687POPC   PO472564  17.817  38.054   5.560
 5687POPC   GL172565  17.495  38.215   5.847
 5687POPC   GL272566  17.516  38.586   5.831
 5687POPC   C1A72567  17.365  38.359   6.272
 5687POPC   D2A72568  17.567  38.513   6.654
 5687POPC   C3A72569  17.409  38.477   7.066
 5687POPC   C4A72570  17.678  38.444   7.423
 5687POPC   C1B72571  17.526  38.834   6.205
 5687POPC   C2B72572  17.438  39.014   6.589
 5687POPC   C3B72573  17.625  38.944   6.981
 5687POPC   C4B72574  17.491  38.912   7.395
 5688POPC   NC372575  19.802   1.833   5.240
 5688POPC   PO472576  19.549   2.409   5.537
 5688POPC   GL172577  19.797   2.226   5.905
 5688POPC   GL272578  20.162   2.146   5.893
 5688POPC   C1A72579  19.835   2.167   6.352
 5688POPC   D2A72580  19.726   2.452   6.689
 5688POPC   C3A72581  19.742   2.285   7.076
 5688POPC   C4A72582  19.799   1.915   7.259
 5688POPC   C1B72583  20.349   2.085   6.265
 5688POPC   C2B72584  20.243   2.168   6.654
 5688POPC   C3B72585  20.252   1.946   7.007
 5688POPC   C4B72586  20.392   1.830   7.418
 5689POPC   NC372587  32.673  21.034   5.134
 5689POPC   PO472588  33.009  20.469   5.414
 5689POPC   GL172589  32.922  20.402   5.815
 5689POPC   GL272590  33.176  20.153   5.789
 5689POPC   C1A72591  32.919  20.501   6.254
 5689POPC   D2A72592  32.723  20.358   6.599
 5689POPC   C3A72593  32.784  20.576   6.975
 5689POPC   C4A72594  33.132  20.854   7.135
 5689POPC   C1B72595  33.349  20.189   6.195
 5689POPC   C2B72596  33.242  20.225   6.600
 5689POPC   C3B72597  33.278  20.408   6.959
 5689POPC   C4B72598  33.079  20.348   7.328
 5690POPC   NC372599  34.226  33.818   5.509
 5690POPC   PO472600  33.572  33.675   5.407
 5690POPC   GL172601  33.730  33.616   5.793
 5690POPC   GL272602  34.048  33.477   5.811
 5690POPC   C1A72603  33.895  33.839   6.130
 5690POPC   D2A72604  33.955  34.155   6.407
 5690POPC   C3A72605  33.741  33.968   6.736
 5690POPC   C4A72606  33.615  33.921   7.163
 5690POPC   C1B72607  34.148  33.337   6.176
 5690POPC   C2B72608  33.889  33.472   6.510
 5690POPC   C3B72609  33.863  33.511   6.939
 5690POPC   C4B72610  33.925  33.340   7.348
 5691POPC   NC372611  36.814  14.839   5.522
 5691POPC   PO472612  37.151  15.437   5.279
 5691POPC   GL172613  37.098  15.247   5.740
 5691POPC   GL272614  37.268  14.957   5.881
 5691POPC   C1A72615  36.941  15.393   6.168
 5691POPC   D2A72616  36.964  15.369   6.633
 5691POPC   C3A72617  36.750  15.048   6.865
 5691POPC   C4A72618  36.604  15.085   7.288
 5691POPC   C1B72619  36.995  14.897   6.281
 5691POPC   C2B72620  37.016  14.542   6.599
 5691POPC   C3B72621  37.051  14.629   7.037
 5691POPC   C4B72622  37.153  15.012   7.236
 5692POPC   NC372623  20.344  40.098   5.471
 5692POPC   PO472624  20.887  39.793   5.252
 5692POPC   GL172625  20.777  40.069   5.754
 5692POPC   GL272626  20.494  40.235   5.933
 5692POPC   C1A72627  20.718  39.921   6.244
 5692POPC   D2A72628  20.495  40.006   6.641
 5692POPC   C3A72629  20.752  39.866   6.930
 5692POPC   C4A72630  20.844  39.761   7.321
 5692POPC   C1B72631  20.200  40.061   6.231
 5692POPC   C2B72632  20.223  39.623   6.391
 5692POPC   C3B72633  20.340  39.524   6.806
 5692POPC   C4B72634  20.288  39.846   7.122
 5693POPC   NC372635  25.557   5.255   5.306
 5693POPC   PO472636  25.108   4.789   5.485
 5693POPC   GL172637  25.446   4.996   5.734
 5693POPC   GL272638  25.316   5.351   5.753
 5693POPC   C1A72639  25.607   4.917   6.168
 5693POPC   D2A72640  25.445   4.693   6.563
 5693POPC   C3A72641  25.551   4.921   6.964
 5693POPC   C4A72642  25.826   5.264   7.111
 5693POPC   C1B72643  25.128   5.133   6.105
 5693POPC   C2B72644  25.244   5.167   6.514
 5693POPC   C3B72645  25.102   5.181   6.903
 5693POPC   C4B72646  25.031   5.025   7.273
 5694POPC   NC372647  35.419  41.868   5.373
 5694POPC   PO472648  35.293  41.112   5.289
 5694POPC   GL172649  35.263  41.369   5.702
 5694POPC   GL272650  34.944  41.226   5.755
 5694POPC   C1A72651  35.485  41.554   6.148
 5694POPC   D2A72652  35.522  41.720   6.627
 5694POPC   C3A72653  35.521  41.433   7.027
 5694POPC   C4A72654  35.341  41.485   7.465
 5694POPC   C1B72655  34.979  41.437   6.186
 5694POPC   C2B72656  35.078  41.446   6.598
 5694POPC   C3B72657  34.977  41.528   7.015
 5694POPC   C4B72658  34.937  41.201   7.276
 5695POPC   NC372659  42.825  32.544   5.492
 5695POPC   PO472660  42.505  32.121   5.124
 5695POPC   GL172661  42.838  32.043   5.578
 5695POPC   GL272662  43.166  32.239   5.730
 5695POPC   C1A72663  42.805  32.208   6.081
 5695POPC   D2A72664  42.804  32.391   6.504
 5695POPC   C3A72665  43.005  32.193   6.861
 5695POPC   C4A72666  43.178  32.371   7.228
 5695POPC   C1B72667  43.253  31.976   6.139
 5695POPC   C2B72668  43.336  31.854   6.583
 5695POPC   C3B72669  43.508  32.036   6.975
 5695POPC   C4B72670  43.501  32.054   7.447
 5696POPC   NC372671  40.016   8.825   5.364
 5696POPC   PO472672  40.363   9.363   5.565
 5696POPC   GL172673  40.009   9.181   5.867
 5696POPC   GL272674  39.903   8.840   5.847
 5696POPC   C1A72675  39.733   9.108   6.229
 5696POPC   D2A72676  39.635   8.916   6.601
 5696POPC   C3A72677  39.985   8.902   6.875
 5696POPC   C4A72678  39.769   8.949   7.239
 5696POPC   C1B72679  40.169   8.838   6.239
 5696POPC   C2B72680  40.409   8.604   6.563
 5696POPC   C3B72681  40.280   8.416   6.949
 5696POPC   C4B72682  40.119   8.604   7.309
 5697POPC   NC372683  24.088   9.306   5.212
 5697POPC   PO472684  24.669   9.608   5.228
 5697POPC   GL172685  24.599   9.757   5.693
 5697POPC   GL272686  24.647   9.428   5.840
 5697POPC   C1A72687  24.533   9.839   6.157
 5697POPC   D2A72688  24.755   9.780   6.546
 5697POPC   C3A72689  24.710  10.041   6.889
 5697POPC   C4A72690  24.602   9.948   7.296
 5697POPC   C1B72691  24.725   9.339   6.280
 5697POPC   C2B72692  24.790   9.305   6.714
 5697POPC   C3B72693  24.649   9.498   7.051
 5697POPC   C4B72694  24.286   9.473   7.271
 5698POPC   NC372695  13.382   2.451   5.351
 5698POPC   PO472696  13.387   1.828   5.408
 5698POPC   GL172697  13.472   2.198   5.793
 5698POPC   GL272698  13.218   2.513   5.822
 5698POPC   C1A72699  13.747   2.274   6.219
 5698POPC   D2A72700  13.803   2.069   6.656
 5698POPC   C3A72701  13.847   2.263   7.090
 5698POPC   C4A72702  13.869   2.018   7.517
 5698POPC   C1B72703  13.363   2.594   6.223
 5698POPC   C2B72704  13.446   2.427   6.638
 5698POPC   C3B72705  13.321   2.288   7.046
 5698POPC   C4B72706  13.458   2.320   7.464
 5699POPC   NC372707  44.397  35.780   5.382
 5699POPC   PO472708  43.833  36.188   5.196
 5699POPC   GL172709  43.683  36.199   5.643
 5699POPC   GL272710  43.908  35.970   5.806
 5699POPC   C1A72711  43.663  36.325   6.108
 5699POPC   D2A72712  43.886  36.276   6.546
 5699POPC   C3A72713  43.658  36.311   6.955
 5699POPC   C4A72714  43.731  36.373   7.418
 5699POPC   C1B72715  43.748  35.844   6.226
 5699POPC   C2B72716  43.555  35.874   6.648
 5699POPC   C3B72717  43.855  35.819   6.978
 5699POPC   C4B72718  43.956  35.904   7.415
 5700POPC   NC372719  11.941  20.925   5.390
 5700POPC   PO472720  12.007  20.315   5.622
 5700POPC   GL172721  12.195  20.455   5.948
 5700POPC   GL272722  12.275  20.787   5.837
 5700POPC   C1A72723  12.045  20.390   6.352
 5700POPC   D2A72724  11.741  20.614   6.586
 5700POPC   C3A72725  11.933  20.853   6.909
 5700POPC   C4A72726  12.053  20.540   7.202
 5700POPC   C1B72727  12.183  20.871   6.274
 5700POPC   C2B72728  12.368  20.700   6.668
 5700POPC   C3B72729  12.483  20.797   7.094
 5700POPC   C4B72730  12.392  20.691   7.571
 5701POPC   NC372731   4.342   2.543   5.651
 5701POPC   PO472732   4.148   3.164   5.397
 5701POPC   GL172733   4.134   2.992   5.805
 5701POPC   GL272734   4.439   3.053   6.041
 5701POPC   C1A72735   3.999   2.829   6.193
 5701POPC   D2A72736   4.174   2.941   6.576
 5701POPC   C3A72737   4.063   2.702   6.920
 5701POPC   C4A72738   4.277   2.842   7.227
 5701POPC   C1B72739   4.700   2.838   6.340
 5701POPC   C2B72740   4.636   2.776   6.769
 5701POPC   C3B72741   4.640   2.519   7.081
 5701POPC   C4B72742   4.465   2.429   7.457
 5702POPC   NC372743  35.906   5.449   5.343
 5702POPC   PO472744  35.921   4.803   5.570
 5702POPC   GL172745  36.000   5.016   5.973
 5702POPC   GL272746  35.918   5.344   5.864
 5702POPC   C1A72747  36.001   4.944   6.443
 5702POPC   D2A72748  36.067   4.716   6.815
 5702POPC   C3A72749  36.166   4.995   7.168
 5702POPC   C4A72750  36.556   5.046   7.424
 5702POPC   C1B72751  35.778   5.385   6.294
 5702POPC   C2B72752  35.779   5.541   6.769
 5702POPC   C3B72753  35.749   5.318   7.195
 5702POPC   C4B72754  35.584   5.091   7.574
 5703POPC   NC372755  10.742   4.022   5.187
 5703POPC   PO472756  10.416   4.580   5.417
 5703POPC   GL172757  10.648   4.359   5.749
 5703POPC   GL272758  10.603   3.987   5.792
 5703POPC   C1A72759  10.845   4.293   6.144
 5703POPC   D2A72760  10.835   4.462   6.535
 5703POPC   C3A72761  10.509   4.397   6.814
 5703POPC   C4A72762  10.632   4.515   7.210
 5703POPC   C1B72763  10.491   3.942   6.251
 5703POPC   C2B72764  10.692   3.935   6.656
 5703POPC   C3B72765  10.771   4.031   7.092
 5703POPC   C4B72766  11.050   3.865   7.381
 5704POPC   NC372767  13.804  32.165   5.460
 5704POPC   PO472768  13.176  32.313   5.339
 5704POPC   GL172769  13.420  32.362   5.750
 5704POPC   GL272770  13.557  31.999   5.863
 5704POPC   C1A72771  13.506  32.392   6.209
 5704POPC   D2A72772  13.563  32.124   6.577
 5704POPC   C3A72773  13.685  32.340   6.930
 5704POPC   C4A72774  13.401  32.620   7.121
 5704POPC   C1B72775  13.839  31.886   6.218
 5704POPC   C2B72776  13.868  31.703   6.671
 5704POPC   C3B72777  13.677  31.840   7.075
 5704POPC   C4B72778  13.883  31.912   7.515
 5705POPC   NC372779  41.609  31.881   5.377
 5705POPC   PO472780  41.636  32.601   5.243
 5705POPC   GL172781  41.547  32.350   5.622
 5705POPC   GL272782  41.263  32.126   5.765
 5705POPC   C1A72783  41.534  32.443   6.062
 5705POPC   D2A72784  41.463  32.372   6.476
 5705POPC   C3A72785  41.758  32.336   6.797
 5705POPC   C4A72786  41.683  32.305   7.219
 5705POPC   C1B72787  41.194  31.918   6.206
 5705POPC   C2B72788  41.157  31.981   6.684
 5705POPC   C3B72789  41.333  31.880   7.102
 5705POPC   C4B72790  41.245  31.914   7.583
 5706POPC   NC372791  41.185  12.482   5.493
 5706POPC   PO472792  40.857  13.084   5.440
 5706POPC   GL172793  40.862  13.084   5.855
 5706POPC   GL272794  40.513  13.126   5.905
 5706POPC   C1A72795  41.011  12.720   6.106
 5706POPC   D2A72796  40.819  12.530   6.470
 5706POPC   C3A72797  40.840  12.858   6.805
 5706POPC   C4A72798  41.018  12.843   7.213
 5706POPC   C1B72799  40.617  12.993   6.314
 5706POPC   C2B72800  40.362  12.786   6.619
 5706POPC   C3B72801  40.418  12.597   7.000
 5706POPC   C4B72802  40.514  12.928   7.252
 5707POPC   NC372803   1.526  14.526   5.338
 5707POPC   PO472804   0.912  14.245   5.437
 5707POPC   GL172805   1.246  14.289   5.704
 5707POPC   GL272806   1.271  14.648   5.809
 5707POPC   C1A72807   1.392  14.211   6.101
 5707POPC   D2A72808   1.474  14.428   6.438
 5707POPC   C3A72809   1.319  14.430   6.830
 5707POPC   C4A72810   1.468  14.727   7.094
 5707POPC   C1B72811   1.015  14.562   6.186
 5707POPC   C2B72812   0.840  14.523   6.614
 5707POPC   C3B72813   0.909  14.683   7.042
 5707POPC   C4B72814   0.862  14.693   7.551
 5708POPC   NC372815  34.966  36.748   5.532
 5708POPC   PO472816  35.567  37.030   5.396
 5708POPC   GL172817  35.384  36.952   5.780
 5708POPC   GL272818  35.089  37.128   5.872
 5708POPC   C1A72819  35.421  36.851   6.199
 5708POPC   D2A72820  35.278  36.599   6.533
 5708POPC   C3A72821  35.392  36.799   6.895
 5708POPC   C4A72822  35.577  36.902   7.298
 5708POPC   C1B72823  34.911  36.912   6.247
 5708POPC   C2B72824  34.966  37.090   6.674
 5708POPC   C3B72825  35.108  37.159   7.104
 5708POPC   C4B72826  35.090  36.754   7.332
 5709POPC   NC372827  24.430  18.519   5.404
 5709POPC   PO472828  24.847  18.000   5.460
 5709POPC   GL172829  24.486  18.128   5.824
 5709POPC   GL272830  24.250  18.436   5.863
 5709POPC   C1A72831  24.246  18.145   6.268
 5709POPC   D2A72832  24.546  18.222   6.605
 5709POPC   C3A72833  24.422  18.265   7.032
 5709POPC   C4A72834  24.367  18.119   7.463
 5709POPC   C1B72835  24.523  18.554   6.179
 5709POPC   C2B72836  24.789  18.693   6.495
 5709POPC   C3B72837  24.808  18.601   6.912
 5709POPC   C4B72838  24.691  18.563   7.324
 5710POPC   NC372839  32.450  43.466   5.417
 5710POPC   PO472840  31.986  43.970   5.533
 5710POPC   GL172841  32.295  43.905   5.861
 5710POPC   GL272842  32.380  43.581   5.928
 5710POPC   C1A72843  32.170  43.900   6.286
 5710POPC   D2A72844  31.891  43.868   6.611
 5710POPC   C3A72845  32.082  44.008   6.975
 5710POPC   C4A72846  32.093  43.786   7.321
 5710POPC   C1B72847  32.624  43.668   6.325
 5710POPC   C2B72848  32.523  43.849   6.726
 5710POPC   C3B72849  32.575  43.763   7.171
 5710POPC   C4B72850  32.546  43.857   7.603
 5711POPC   NC372851  16.813   3.025   5.297
 5711POPC   PO472852  16.320   2.581   5.336
 5711POPC   GL172853  16.573   2.731   5.660
 5711POPC   GL272854  16.597   3.074   5.761
 5711POPC   C1A72855  16.652   2.702   6.108
 5711POPC   D2A72856  16.502   2.811   6.522
 5711POPC   C3A72857  16.678   2.576   6.848
 5711POPC   C4A72858  16.928   2.656   7.220
 5711POPC   C1B72859  16.375   3.161   6.129
 5711POPC   C2B72860  16.386   3.305   6.563
 5711POPC   C3B72861  16.524   3.128   6.978
 5711POPC   C4B72862  16.431   2.746   7.244
 5712POPC   NC372863  19.248  34.796   5.230
 5712POPC   PO472864  18.791  34.454   5.394
 5712POPC   GL172865  19.088  34.598   5.775
 5712POPC   GL272866  19.440  34.699   5.718
 5712POPC   C1A72867  19.166  34.626   6.270
 5712POPC   D2A72868  18.900  34.746   6.672
 5712POPC   C3A72869  18.662  34.449   6.965
 5712POPC   C4A72870  18.626  34.408   7.433
 5712POPC   C1B72871  19.703  34.573   6.099
 5712POPC   C2B72872  19.693  34.372   6.516
 5712POPC   C3B72873  19.318  34.448   6.813
 5712POPC   C4B72874  19.074  34.651   7.153
 5713POPC   NC372875  41.380  35.009   5.354
 5713POPC   PO472876  41.650  35.605   5.288
 5713POPC   GL172877  41.616  35.420   5.713
 5713POPC   GL272878  41.835  35.145   5.725
 5713POPC   C1A72879  41.478  35.372   6.174
 5713POPC   D2A72880  41.137  35.225   6.482
 5713POPC   C3A72881  41.322  35.164   6.902
 5713POPC   C4A72882  41.550  35.463   7.129
 5713POPC   C1B72883  41.866  35.024   6.158
 5713POPC   C2B72884  41.797  35.142   6.593
 5713POPC   C3B72885  41.796  34.921   6.975
 5713POPC   C4B72886  41.734  34.864   7.385
 5714POPC   NC372887  38.117  36.181   5.073
 5714POPC   PO472888  38.584  36.089   5.596
 5714POPC   GL172889  38.706  36.215   5.950
 5714POPC   GL272890  38.870  35.887   5.999
 5714POPC   C1A72891  38.473  36.363   6.280
 5714POPC   D2A72892  38.301  36.205   6.618
 5714POPC   C3A72893  38.537  36.309   6.912
 5714POPC   C4A72894  38.679  36.280   7.306
 5714POPC   C1B72895  38.515  35.832   6.241
 5714POPC   C2B72896  38.407  35.684   6.603
 5714POPC   C3B72897  38.495  35.809   6.951
 5714POPC   C4B72898  38.207  35.965   7.182
 5715POPC   NC372899   9.173  22.346   5.361
 5715POPC   PO472900   8.835  22.043   5.842
 5715POPC   GL172901   8.929  21.835   6.147
 5715POPC   GL272902   9.182  21.659   5.902
 5715POPC   C1A72903   8.674  21.989   6.515
 5715POPC   D2A72904   8.595  22.429   6.643
 5715POPC   C3A72905   8.929  22.435   6.925
 5715POPC   C4A72906   8.877  22.239   7.312
 5715POPC   C1B72907   9.433  21.876   6.220
 5715POPC   C2B72908   9.185  22.114   6.520
 5715POPC   C3B72909   9.032  21.943   6.910
 5715POPC   C4B72910   9.059  21.752   7.298
 5716POPC   NC372911  31.153   0.494   5.250
 5716POPC   PO472912  30.544   0.438   5.373
 5716POPC   GL172913  30.783   0.135   5.687
 5716POPC   GL272914  30.522   0.111   5.908
 5716POPC   C1A72915  30.959   0.071   6.156
 5716POPC   D2A72916  30.764   0.257   6.536
 5716POPC   C3A72917  31.050   0.350   6.899
 5716POPC   C4A72918  30.952   0.720   7.178
 5716POPC   C1B72919  30.453  44.909   6.282
 5716POPC   C2B72920  30.454  44.875   6.726
 5716POPC   C3B72921  30.567   0.185   7.014
 5716POPC   C4B72922  30.828   0.246   7.356
 5717POPC   NC372923  27.702  31.909   5.330
 5717POPC   PO472924  27.916  32.563   5.289
 5717POPC   GL172925  27.787  32.289   5.685
 5717POPC   GL272926  27.970  32.048   5.930
 5717POPC   C1A72927  27.485  32.323   6.037
 5717POPC   D2A72928  27.383  32.612   6.393
 5717POPC   C3A72929  27.497  32.534   6.826
 5717POPC   C4A72930  27.473  32.330   7.214
 5717POPC   C1B72931  27.740  31.973   6.298
 5717POPC   C2B72932  27.685  32.090   6.697
 5717POPC   C3B72933  27.785  31.949   7.071
 5717POPC   C4B72934  27.842  32.068   7.467
 5718POPC   NC372935  16.728   9.179   5.669
 5718POPC   PO472936  16.195   8.696   5.613
 5718POPC   GL172937  16.565   8.749   5.944
 5718POPC   GL272938  16.938   8.605   5.881
 5718POPC   C1A72939  16.619   9.073   6.305
 5718POPC   D2A72940  16.637   9.400   6.637
 5718POPC   C3A72941  16.522   9.225   7.035
 5718POPC   C4A72942  16.921   9.046   7.170
 5718POPC   C1B72943  16.958   8.669   6.312
 5718POPC   C2B72944  16.564   8.610   6.554
 5718POPC   C3B72945  16.428   8.722   6.957
 5718POPC   C4B72946  16.562   8.737   7.378
 5719POPC   NC372947   3.425   9.305   5.394
 5719POPC   PO472948   3.398  10.062   5.396
 5719POPC   GL172949   3.396   9.989   5.820
 5719POPC   GL272950   3.571   9.671   5.762
 5719POPC   C1A72951   3.306   9.768   6.219
 5719POPC   D2A72952   3.298   9.572   6.648
 5719POPC   C3A72953   3.330   9.828   7.035
 5719POPC   C4A72954   3.304   9.992   7.435
 5719POPC   C1B72955   3.769   9.509   6.109
 5719POPC   C2B72956   3.888   9.450   6.521
 5719POPC   C3B72957   3.743   9.562   6.909
 5719POPC   C4B72958   3.770   9.711   7.342
 5720POPC   NC372959   7.714   4.057   5.355
 5720POPC   PO472960   7.267   4.530   5.341
 5720POPC   GL172961   7.328   4.679   5.736
 5720POPC   GL272962   7.559   4.387   5.764
 5720POPC   C1A72963   7.425   4.672   6.165
 5720POPC   D2A72964   7.522   4.318   6.372
 5720POPC   C3A72965   7.471   4.367   6.809
 5720POPC   C4A72966   7.632   4.332   7.237
 5720POPC   C1B72967   7.163   4.252   5.965
 5720POPC   C2B72968   7.034   4.137   6.369
 5720POPC   C3B72969   7.009   4.120   6.838
 5720POPC   C4B72970   7.085   4.053   7.292
 5721POPC   NC372971   4.102  17.804   5.473
 5721POPC   PO472972   4.514  17.349   5.370
 5721POPC   GL172973   4.399  17.357   5.794
 5721POPC   GL272974   4.380  17.697   5.880
 5721POPC   C1A72975   4.177  17.319   6.198
 5721POPC   D2A72976   4.054  17.071   6.556
 5721POPC   C3A72977   4.210  17.133   7.022
 5721POPC   C4A72978   3.951  17.283   7.375
 5721POPC   C1B72979   4.330  17.782   6.330
 5721POPC   C2B72980   4.171  17.542   6.699
 5721POPC   C3B72981   4.249  17.672   7.105
 5721POPC   C4B72982   4.611  17.955   7.131
 5722POPC   NC372983   5.386  36.368   5.378
 5722POPC   PO472984   5.058  35.847   5.016
 5722POPC   GL172985   5.156  35.918   5.530
 5722POPC   GL272986   5.029  36.224   5.740
 5722POPC   C1A72987   5.310  35.897   6.026
 5722POPC   D2A72988   5.082  36.001   6.435
 5722POPC   C3A72989   5.223  36.012   6.866
 5722POPC   C4A72990   5.204  35.823   7.268
 5722POPC   C1B72991   5.259  36.390   6.112
 5722POPC   C2B72992   5.408  36.614   6.489
 5722POPC   C3B72993   5.253  36.542   6.920
 5722POPC   C4B72994   5.076  36.338   7.279
 5723POPC   NC372995   7.631  31.919   5.472
 5723POPC   PO472996   7.305  32.495   5.280
 5723POPC   GL172997   7.403  32.330   5.726
 5723POPC   GL272998   7.312  31.979   5.860
 5723POPC   C1A72999   7.620  32.272   6.151
 5723POPC   D2A73000   7.686  32.073   6.546
 5723POPC   C3A73001   7.605  32.284   6.940
 5723POPC   C4A73002   7.622  32.454   7.367
 5723POPC   C1B73003   7.234  31.911   6.298
 5723POPC   C2B73004   7.167  32.135   6.672
 5723POPC   C3B73005   7.160  32.088   7.098
 5723POPC   C4B73006   7.387  31.991   7.461
 5724POPC   NC373007  34.460  14.132   5.429
 5724POPC   PO473008  34.994  14.545   5.263
 5724POPC   GL173009  34.878  14.350   5.654
 5724POPC   GL273010  34.563  14.499   5.787
 5724POPC   C1A73011  34.929  14.304   6.108
 5724POPC   D2A73012  34.801  14.315   6.571
 5724POPC   C3A73013  34.925  14.487   6.989
 5724POPC   C4A73014  34.703  14.379   7.380
 5724POPC   C1B73015  34.350  14.403   6.162
 5724POPC   C2B73016  34.303  14.214   6.588
 5724POPC   C3B73017  34.414  14.445   6.944
 5724POPC   C4B73018  34.218  14.520   7.322
 5725POPC   NC373019  12.551  13.181   5.338
 5725POPC   PO473020  12.839  12.559   5.347
 5725POPC   GL173021  12.886  12.691   5.774
 5725POPC   GL273022  12.840  13.063   5.800
 5725POPC   C1A73023  12.869  12.680   6.229
 5725POPC   D2A73024  12.913  12.951   6.606
 5725POPC   C3A73025  12.780  12.691   6.957
 5725POPC   C4A73026  12.850  12.627   7.434
 5725POPC   C1B73027  12.584  13.110   6.183
 5725POPC   C2B73028  12.488  13.275   6.595
 5725POPC   C3B73029  12.721  13.280   6.998
 5725POPC   C4B73030  12.955  13.069   7.256
 5726POPC   NC373031  26.240  17.821   5.255
 5726POPC   PO473032  25.735  17.548   5.546
 5726POPC   GL173033  25.817  17.756   5.936
 5726POPC   GL273034  26.117  17.860   5.777
 5726POPC   C1A73035  25.879  17.715   6.382
 5726POPC   D2A73036  25.906  17.473   6.756
 5726POPC   C3A73037  25.795  17.660   7.135
 5726POPC   C4A73038  25.737  17.771   7.579
 5726POPC   C1B73039  26.345  17.779   6.153
 5726POPC   C2B73040  26.384  17.628   6.578
 5726POPC   C3B73041  26.294  17.729   7.009
 5726POPC   C4B73042  26.206  17.587   7.450
 5727POPC   NC373043   0.224  24.136   5.393
 5727POPC   PO473044   0.617  24.650   5.275
 5727POPC   GL173045   0.573  24.660   5.711
 5727POPC   GL273046   0.581  24.322   5.756
 5727POPC   C1A73047   0.295  24.670   6.092
 5727POPC   D2A73048   0.323  24.496   6.508
 5727POPC   C3A73049   0.364  24.762   6.852
 5727POPC   C4A73050   0.492  24.705   7.278
 5727POPC   C1B73051   0.495  24.158   6.141
 5727POPC   C2B73052   0.481  23.977   6.532
 5727POPC   C3B73053   0.602  24.035   6.942
 5727POPC   C4B73054   0.556  24.178   7.369
 5728POPC   NC373055  13.456  31.235   5.344
 5728POPC   PO473056  13.953  31.718   5.545
 5728POPC   GL173057  13.715  31.469   5.819
 5728POPC   GL273058  13.366  31.515   5.779
 5728POPC   C1A73059  13.745  31.391   6.262
 5728POPC   D2A73060  13.822  31.140   6.609
 5728POPC   C3A73061  13.651  31.319   6.989
 5728POPC   C4A73062  13.638  31.468   7.424
 5728POPC   C1B73063  13.197  31.496   6.203
 5728POPC   C2B73064  13.356  31.656   6.622
 5728POPC   C3B73065  13.224  31.575   7.049
 5728POPC   C4B73066  13.192  31.247   7.355
 5729POPC   NC373067  16.693  22.307   5.255
 5729POPC   PO473068  17.092  21.926   5.524
 5729POPC   GL173069  16.787  22.204   5.741
 5729POPC   GL273070  16.912  22.517   5.798
 5729POPC   C1A73071  16.535  22.312   6.111
 5729POPC   D2A73072  16.644  22.173   6.529
 5729POPC   C3A73073  16.441  22.341   6.867
 5729POPC   C4A73074  16.474  22.168   7.243
 5729POPC   C1B73075  17.059  22.246   6.173
 5729POPC   C2B73076  17.142  22.087   6.588
 5729POPC   C3B73077  16.962  22.274   6.961
 5729POPC   C4B73078  17.012  22.043   7.337
 5730POPC   NC373079   6.794  20.061   5.395
 5730POPC   PO473080   6.388  19.643   5.583
 5730POPC   GL173081   6.778  19.789   5.852
 5730POPC   GL273082   6.891  20.156   5.886
 5730POPC   C1A73083   6.853  19.683   6.302
 5730POPC   D2A73084   6.986  19.807   6.740
 5730POPC   C3A73085   6.653  19.726   7.083
 5730POPC   C4A73086   6.477  19.649   7.514
 5730POPC   C1B73087   6.759  20.263   6.285
 5730POPC   C2B73088   6.917  20.324   6.712
 5730POPC   C3B73089   6.914  20.167   7.109
 5730POPC   C4B73090   6.882  19.984   7.488
 5731POPC   NC373091   8.576  10.715   5.361
 5731POPC   PO473092   8.196  10.149   5.449
 5731POPC   GL173093   8.240  10.482   5.707
 5731POPC   GL273094   8.566  10.442   5.817
 5731POPC   C1A73095   8.219  10.628   6.157
 5731POPC   D2A73096   7.962  10.466   6.505
 5731POPC   C3A73097   8.072  10.641   6.914
 5731POPC   C4A73098   8.145  10.763   7.360
 5731POPC   C1B73099   8.607  10.289   6.243
 5731POPC   C2B73100   8.482  10.501   6.611
 5731POPC   C3B73101   8.554  10.569   7.039
 5731POPC   C4B73102   8.361  10.309   7.353
 5732POPC   NC373103  14.533   4.315   5.361
 5732POPC   PO473104  13.835   4.377   5.412
 5732POPC   GL173105  14.205   4.444   5.725
 5732POPC   GL273106  14.574   4.550   5.801
 5732POPC   C1A73107  14.296   4.286   6.143
 5732POPC   D2A73108  14.118   4.052   6.472
 5732POPC   C3A73109  14.484   4.023   6.731
 5732POPC   C4A73110  14.540   4.288   7.095
 5732POPC   C1B73111  14.741   4.572   6.196
 5732POPC   C2B73112  14.575   4.517   6.594
 5732POPC   C3B73113  14.800   4.689   6.924
 5732POPC   C4B73114  15.000   4.514   7.255
 5733POPC   NC373115  44.113  24.525   5.420
 5733POPC   PO473116  43.501  24.768   5.182
 5733POPC   GL173117  43.678  24.770   5.655
 5733POPC   GL273118  43.922  24.518   5.872
 5733POPC   C1A73119  43.555  24.729   6.126
 5733POPC   D2A73120  43.843  24.578   6.425
 5733POPC   C3A73121  43.756  24.689   6.827
 5733POPC   C4A73122  43.830  24.344   7.123
 5733POPC   C1B73123  44.187  24.808   6.109
 5733POPC   C2B73124  44.322  24.749   6.560
 5733POPC   C3B73125  44.233  24.644   6.997
 5733POPC   C4B73126  44.323  24.324   7.288
 5734POPC   NC373127   9.639   9.266   5.174
 5734POPC   PO473128  10.105   8.842   5.443
 5734POPC   GL173129   9.955   8.788   5.852
 5734POPC   GL273130   9.642   8.984   5.857
 5734POPC   C1A73131   9.854   8.753   6.297
 5734POPC   D2A73132  10.005   9.047   6.600
 5734POPC   C3A73133   9.859   9.028   6.979
 5734POPC   C4A73134   9.936   9.197   7.339
 5734POPC   C1B73135   9.650   9.223   6.234
 5734POPC   C2B73136   9.483   9.127   6.619
 5734POPC   C3B73137   9.359   9.153   7.025
 5734POPC   C4B73138   9.106   9.184   7.396
 5735POPC   NC373139  21.989   8.172   5.410
 5735POPC   PO473140  22.688   8.163   5.378
 5735POPC   GL173141  22.386   8.157   5.730
 5735POPC   GL273142  22.385   7.817   5.702
 5735POPC   C1A73143  22.155   8.270   6.123
 5735POPC   D2A73144  22.125   8.075   6.528
 5735POPC   C3A73145  22.292   8.280   6.876
 5735POPC   C4A73146  22.052   8.237   7.223
 5735POPC   C1B73147  22.372   7.791   6.153
 5735POPC   C2B73148  22.370   7.649   6.594
 5735POPC   C3B73149  22.154   7.782   6.999
 5735POPC   C4B73150  22.191   7.798   7.494
 5736POPC   NC373151   9.908  20.406   5.444
 5736POPC   PO473152   9.457  20.885   5.480
 5736POPC   GL173153   9.655  20.686   5.812
 5736POPC   GL273154   9.489  20.385   5.759
 5736POPC   C1A73155   9.910  20.772   6.193
 5736POPC   D2A73156   9.835  20.996   6.593
 5736POPC   C3A73157   9.965  20.812   7.013
 5736POPC   C4A73158   9.930  20.910   7.474
 5736POPC   C1B73159   9.633  20.348   6.193
 5736POPC   C2B73160   9.775  20.475   6.597
 5736POPC   C3B73161   9.793  20.321   6.998
 5736POPC   C4B73162   9.619  20.552   7.297
 5737POPC   NC373163   7.650  27.030   5.395
 5737POPC   PO473164   7.007  26.707   5.485
 5737POPC   GL173165   7.348  26.843   5.756
 5737POPC   GL273166   7.562  26.576   5.743
 5737POPC   C1A73167   7.460  26.975   6.173
 5737POPC   D2A73168   7.319  27.099   6.572
 5737POPC   C3A73169   7.563  26.944   6.890
 5737POPC   C4A73170   7.340  26.844   7.230
 5737POPC   C1B73171   7.317  26.480   6.133
 5737POPC   C2B73172   7.390  26.549   6.587
 5737POPC   C3B73173   7.276  26.390   7.000
 5737POPC   C4B73174   7.237  26.388   7.465
 5738POPC   NC373175  17.003  19.849   5.182
 5738POPC   PO473176  16.446  20.165   5.522
 5738POPC   GL173177  16.789  19.972   5.698
 5738POPC   GL273178  16.984  19.692   5.673
 5738POPC   C1A73179  16.834  19.960   6.127
 5738POPC   D2A73180  16.578  19.930   6.501
 5738POPC   C3A73181  16.678  20.220   6.818
 5738POPC   C4A73182  16.759  20.014   7.202
 5738POPC   C1B73183  17.152  19.544   6.101
 5738POPC   C2B73184  17.037  19.723   6.536
 5738POPC   C3B73185  17.017  19.564   6.955
 5738POPC   C4B73186  17.033  19.605   7.398
 5739POPC   NC373187  31.038   7.874   5.427
 5739POPC   PO473188  30.577   7.360   5.283
 5739POPC   GL173189  30.778   7.514   5.721
 5739POPC   GL273190  30.470   7.616   5.903
 5739POPC   C1A73191  30.850   7.537   6.221
 5739POPC   D2A73192  30.658   7.597   6.651
 5739POPC   C3A73193  30.881   7.449   7.055
 5739POPC   C4A73194  30.844   7.184   7.471
 5739POPC   C1B73195  30.374   7.298   6.259
 5739POPC   C2B73196  30.355   7.182   6.713
 5739POPC   C3B73197  30.356   7.442   7.089
 5739POPC   C4B73198  30.004   7.686   7.178
 5740POPC   NC373199  10.634  10.716   5.176
 5740POPC   PO473200  11.271  10.783   5.424
 5740POPC   GL173201  11.325  10.632   5.837
 5740POPC   GL273202  11.144  10.340   5.843
 5740POPC   C1A73203  11.443  10.642   6.270
 5740POPC   D2A73204  11.429  10.393   6.665
 5740POPC   C3A73205  11.519  10.663   6.999
 5740POPC   C4A73206  11.432  10.912   7.362
 5740POPC   C1B73207  11.017  10.345   6.256
 5740POPC   C2B73208  10.739  10.311   6.596
 5740POPC   C3B73209  10.877  10.144   6.972
 5740POPC   C4B73210  11.291  10.170   7.156
 5741POPC   NC373211  27.759   2.608   4.840
 5741POPC   PO473212  28.149   2.477   5.408
 5741POPC   GL173213  28.206   2.588   5.886
 5741POPC   GL273214  27.901   2.544   6.029
 5741POPC   C1A73215  28.252   2.798   6.331
 5741POPC   D2A73216  28.381   3.115   6.670
 5741POPC   C3A73217  28.503   3.002   7.096
 5741POPC   C4A73218  28.423   3.139   7.527
 5741POPC   C1B73219  27.870   2.486   6.459
 5741POPC   C2B73220  27.989   2.501   6.889
 5741POPC   C3B73221  28.066   2.774   7.249
 5741POPC   C4B73222  28.047   2.774   7.697
 5742POPC   NC373223  44.421   0.737   5.366
 5742POPC   PO473224   0.054   0.457   5.278
 5742POPC   GL173225  44.925   0.549   5.788
 5742POPC   GL273226  44.549   0.489   5.805
 5742POPC   C1A73227  44.759   0.500   6.270
 5742POPC   D2A73228  44.500   0.284   6.634
 5742POPC   C3A73229  44.775   0.165   6.960
 5742POPC   C4A73230   0.125   0.363   7.117
 5742POPC   C1B73231  44.353   0.768   6.115
 5742POPC   C2B73232  44.429   0.798   6.537
 5742POPC   C3B73233  44.637   0.688   6.929
 5742POPC   C4B73234  44.586   0.909   7.281
 5743POPC   NC373235  14.211  29.099   5.369
 5743POPC   PO473236  14.878  29.236   5.503
 5743POPC   GL173237  14.780  29.114   5.842
 5743POPC   GL273238  14.443  29.189   5.819
 5743POPC   C1A73239  14.711  29.221   6.256
 5743POPC   D2A73240  14.486  29.042   6.575
 5743POPC   C3A73241  14.638  29.164   6.963
 5743POPC   C4A73242  14.502  28.871   7.229
 5743POPC   C1B73243  14.151  29.108   6.151
 5743POPC   C2B73244  14.030  29.246   6.551
 5743POPC   C3B73245  14.082  28.993   6.918
 5743POPC   C4B73246  14.183  29.275   7.224
 5744POPC   NC373247   3.962  16.206   5.426
 5744POPC   PO473248   4.545  15.820   5.319
 5744POPC   GL173249   4.463  15.666   5.729
 5744POPC   GL273250   4.125  15.792   5.772
 5744POPC   C1A73251   4.447  15.802   6.190
 5744POPC   D2A73252   4.259  16.003   6.583
 5744POPC   C3A73253   4.421  15.951   7.021
 5744POPC   C4A73254   4.493  16.192   7.409
 5744POPC   C1B73255   3.922  16.029   6.110
 5744POPC   C2B73256   3.739  16.073   6.525
 5744POPC   C3B73257   3.882  16.002   6.943
 5744POPC   C4B73258   4.026  15.945   7.369
 5745POPC   NC373259  12.359  34.827   5.383
 5745POPC   PO473260  12.156  34.225   5.594
 5745POPC   GL173261  12.013  34.394   5.936
 5745POPC   GL273262  12.045  34.722   5.810
 5745POPC   C1A73263  12.101  34.374   6.375
 5745POPC   D2A73264  12.128  34.508   6.781
 5745POPC   C3A73265  12.051  34.331   7.161
 5745POPC   C4A73266  11.932  34.713   7.416
 5745POPC   C1B73267  12.100  34.879   6.231
 5745POPC   C2B73268  12.381  34.903   6.593
 5745POPC   C3B73269  12.256  34.962   7.034
 5745POPC   C4B73270  12.603  35.066   7.309
 5746POPC   NC373271   1.372  40.673   5.265
 5746POPC   PO473272   0.837  40.690   5.724
 5746POPC   GL173273   1.262  40.593   5.786
 5746POPC   GL273274   1.446  40.897   5.749
 5746POPC   C1A73275   1.291  40.465   6.210
 5746POPC   D2A73276   1.087  40.654   6.546
 5746POPC   C3A73277   1.148  40.513   6.952
 5746POPC   C4A73278   0.940  40.740   7.262
 5746POPC   C1B73279   1.251  41.086   6.107
 5746POPC   C2B73280   1.264  41.122   6.564
 5746POPC   C3B73281   1.297  41.033   6.984
 5746POPC   C4B73282   1.573  40.821   7.251
 5747POPC   NC373283  27.910   0.114   5.190
 5747POPC   PO473284  27.388  44.827   5.496
 5747POPC   GL173285  27.467  44.558   5.834
 5747POPC   GL273286  27.828  44.549   5.806
 5747POPC   C1A73287  27.344  44.543   6.275
 5747POPC   D2A73288  27.605  44.689   6.593
 5747POPC   C3A73289  27.540  44.570   7.021
 5747POPC   C4A73290  27.772  44.548   7.393
 5747POPC   C1B73291  28.000  44.923   6.046
 5747POPC   C2B73292  28.012   0.096   6.469
 5747POPC   C3B73293  27.971  44.903   6.883
 5747POPC   C4B73294  27.865   0.030   7.272
 5748POPC   NC373295  10.994   3.227   5.393
 5748POPC   PO473296  11.496   3.743   5.419
 5748POPC   GL173297  11.487   3.551   5.824
 5748POPC   GL273298  11.293   3.293   5.793
 5748POPC   C1A73299  11.397   3.541   6.269
 5748POPC   D2A73300  11.258   3.801   6.636
 5748POPC   C3A73301  11.392   3.622   7.021
 5748POPC   C4A73302  11.789   3.723   7.225
 5748POPC   C1B73303  11.078   3.152   6.163
 5748POPC   C2B73304  11.343   3.075   6.532
 5748POPC   C3B73305  11.207   3.141   6.966
 5748POPC   C4B73306  11.050   3.171   7.395
 5749POPC   NC373307   6.037  28.715   5.434
 5749POPC   PO473308   5.414  28.568   5.313
 5749POPC   GL173309   5.542  28.374   5.699
 5749POPC   GL273310   5.877  28.208   5.682
 5749POPC   C1A73311   5.524  28.225   6.126
 5749POPC   D2A73312   5.444  28.160   6.596
 5749POPC   C3A73313   5.718  28.397   6.871
 5749POPC   C4A73314   5.940  28.692   7.122
 5749POPC   C1B73315   6.074  28.203   6.108
 5749POPC   C2B73316   6.266  28.111   6.519
 5749POPC   C3B73317   6.177  28.186   6.964
 5749POPC   C4B73318   6.150  28.295   7.413
 5750POPC   NC373319  28.124  43.028   5.565
 5750POPC   PO473320  28.697  42.904   5.300
 5750POPC   GL173321  28.553  42.898   5.820
 5750POPC   GL273322  28.225  42.771   6.012
 5750POPC   C1A73323  28.445  43.164   6.240
 5750POPC   D2A73324  28.149  43.240   6.606
 5750POPC   C3A73325  28.382  43.381   6.960
 5750POPC   C4A73326  28.594  43.216   7.306
 5750POPC   C1B73327  28.514  42.653   6.330
 5750POPC   C2B73328  28.556  42.916   6.703
 5750POPC   C3B73329  28.285  42.872   7.067
 5750POPC   C4B73330  28.498  42.636   7.363
 5751POPC   NC373331  31.585   9.408   5.433
 5751POPC   PO473332  31.492   8.652   5.353
 5751POPC   GL173333  31.451   8.959   5.767
 5751POPC   GL273334  31.600   9.298   5.911
 5751POPC   C1A73335  31.309   9.057   6.239
 5751POPC   D2A73336  31.354   9.149   6.715
 5751POPC   C3A73337  31.564   8.794   6.889
 5751POPC   C4A73338  31.514   8.557   7.237
 5751POPC   C1B73339  31.803   9.301   6.294
 5751POPC   C2B73340  31.861   9.186   6.713
 5751POPC   C3B73341  31.714   9.214   7.126
 5751POPC   C4B73342  31.767   9.465   7.504
 5752POPC   NC373343  21.969   1.392   5.606
 5752POPC   PO473344  22.451   0.987   5.414
 5752POPC   GL173345  22.355   1.128   5.865
 5752POPC   GL273346  21.982   1.097   6.014
 5752POPC   C1A73347  22.346   1.217   6.346
 5752POPC   D2A73348  21.973   1.183   6.598
 5752POPC   C3A73349  22.053   1.030   6.983
 5752POPC   C4A73350  22.118   1.221   7.331
 5752POPC   C1B73351  21.828   1.517   6.235
 5752POPC   C2B73352  21.624   1.556   6.686
 5752POPC   C3B73353  21.823   1.570   7.107
 5752POPC   C4B73354  21.890   1.572   7.608
 5753POPC   NC373355  19.908  29.072   5.227
 5753POPC   PO473356  19.391  29.475   5.335
 5753POPC   GL173357  19.596  29.143   5.642
 5753POPC   GL273358  19.957  28.987   5.713
 5753POPC   C1A73359  19.583  29.115   6.089
 5753POPC   D2A73360  19.725  29.263   6.474
 5753POPC   C3A73361  19.651  29.127   6.886
 5753POPC   C4A73362  19.945  29.328   7.188
 5753POPC   C1B73363  20.107  29.128   6.099
 5753POPC   C2B73364  20.114  28.920   6.474
 5753POPC   C3B73365  20.140  28.988   6.841
 5753POPC   C4B73366  20.000  28.808   7.185
 5754POPC   NC373367  18.131  18.562   5.332
 5754POPC   PO473368  18.786  18.474   5.376
 5754POPC   GL173369  18.549  18.410   5.760
 5754POPC   GL273370  18.255  18.214   5.672
 5754POPC   C1A73371  18.513  18.236   6.183
 5754POPC   D2A73372  18.519  18.413   6.592
 5754POPC   C3A73373  18.544  18.190   6.987
 5754POPC   C4A73374  18.387  18.527   7.227
 5754POPC   C1B73375  18.039  18.205   6.044
 5754POPC   C2B73376  17.986  18.317   6.437
 5754POPC   C3B73377  18.063  18.362   6.848
 5754POPC   C4B73378  18.084  18.090   7.186
 5755POPC   NC373379  24.570   3.228   5.525
 5755POPC   PO473380  24.060   3.614   5.341
 5755POPC   GL173381  24.255   3.575   5.761
 5755POPC   GL273382  24.174   3.234   5.856
 5755POPC   C1A73383  24.445   3.762   6.165
 5755POPC   D2A73384  24.296   3.796   6.585
 5755POPC   C3A73385  24.530   3.799   6.954
 5755POPC   C4A73386  24.349   3.656   7.306
 5755POPC   C1B73387  24.479   3.255   6.205
 5755POPC   C2B73388  24.369   3.190   6.634
 5755POPC   C3B73389  24.544   3.271   7.025
 5755POPC   C4B73390  24.969   3.285   7.170
 5756POPC   NC373391   6.146  14.585   5.500
 5756POPC   PO473392   6.530  14.157   5.473
 5756POPC   GL173393   6.250  14.176   5.828
 5756POPC   GL273394   6.431  14.453   5.940
 5756POPC   C1A73395   6.362  13.987   6.255
 5756POPC   D2A73396   6.351  14.077   6.712
 5756POPC   C3A73397   6.668  14.357   6.893
 5756POPC   C4A73398   6.811  14.548   7.279
 5756POPC   C1B73399   6.578  14.465   6.373
 5756POPC   C2B73400   6.615  14.806   6.671
 5756POPC   C3B73401   6.478  14.892   7.077
 5756POPC   C4B73402   6.629  14.985   7.517
 5757POPC   NC373403   1.101  13.826   5.337
 5757POPC   PO473404   1.416  13.200   5.564
 5757POPC   GL173405   1.196  13.453   5.832
 5757POPC   GL273406   1.337  13.782   5.791
 5757POPC   C1A73407   1.181  13.349   6.276
 5757POPC   D2A73408   1.202  13.600   6.651
 5757POPC   C3A73409   1.284  13.475   7.063
 5757POPC   C4A73410   1.651  13.438   7.365
 5757POPC   C1B73411   1.063  13.851   6.192
 5757POPC   C2B73412   1.070  14.077   6.543
 5757POPC   C3B73413   1.090  13.994   6.978
 5757POPC   C4B73414   1.051  14.281   7.296
 5758POPC   NC373415  25.793  34.004   5.284
 5758POPC   PO473416  26.289  34.606   5.418
 5758POPC   GL173417  26.144  34.660   5.856
 5758POPC   GL273418  25.969  34.366   5.976
 5758POPC   C1A73419  26.200  34.639   6.321
 5758POPC   D2A73420  25.888  34.539   6.659
 5758POPC   C3A73421  26.053  34.487   7.076
 5758POPC   C4A73422  26.279  34.544   7.464
 5758POPC   C1B73423  25.653  34.360   6.238
 5758POPC   C2B73424  25.548  34.117   6.589
 5758POPC   C3B73425  25.573  34.279   7.000
 5758POPC   C4B73426  25.750  34.210   7.374
 5759POPC   NC373427  43.909   8.111   5.305
 5759POPC   PO473428  44.378   8.504   5.585
 5759POPC   GL173429  43.997   8.346   5.790
 5759POPC   GL273430  44.176   8.045   5.774
 5759POPC   C1A73431  43.774   8.225   6.198
 5759POPC   D2A73432  43.635   8.033   6.607
 5759POPC   C3A73433  43.750   8.231   7.052
 5759POPC   C4A73434  43.700   8.315   7.561
 5759POPC   C1B73435  44.290   8.263   6.205
 5759POPC   C2B73436  44.123   8.177   6.604
 5759POPC   C3B73437  44.247   8.226   7.009
 5759POPC   C4B73438  44.176   8.231   7.426
 5760POPC   NC373439  27.295  40.308   5.438
 5760POPC   PO473440  27.467  41.052   5.237
 5760POPC   GL173441  27.668  40.814   5.630
 5760POPC   GL273442  27.587  40.496   5.799
 5760POPC   C1A73443  27.857  40.810   6.072
 5760POPC   D2A73444  27.809  40.607   6.506
 5760POPC   C3A73445  27.698  40.837   6.919
 5760POPC   C4A73446  27.658  40.876   7.430
 5760POPC   C1B73447  27.274  40.617   6.080
 5760POPC   C2B73448  27.321  40.743   6.480
 5760POPC   C3B73449  27.288  40.499   6.839
 5760POPC   C4B73450  27.236  40.757   7.177
 5761POPC   NC373451  37.941  24.319   5.263
 5761POPC   PO473452  37.371  24.249   5.561
 5761POPC   GL173453  37.662  24.527   5.748
 5761POPC   GL273454  38.032  24.494   5.727
 5761POPC   C1A73455  37.677  24.718   6.160
 5761POPC   D2A73456  37.837  24.580   6.568
 5761POPC   C3A73457  37.549  24.465   6.880
 5761POPC   C4A73458  37.405  24.700   7.242
 5761POPC   C1B73459  37.918  24.277   6.109
 5761POPC   C2B73460  37.997  24.094   6.517
 5761POPC   C3B73461  38.141  24.221   6.954
 5761POPC   C4B73462  37.891  24.456   7.270
 5762POPC   NC373463  43.876  15.790   5.559
 5762POPC   PO473464  43.571  16.367   5.411
 5762POPC   GL173465  43.808  16.267   5.764
 5762POPC   GL273466  43.598  15.993   5.946
 5762POPC   C1A73467  44.027  16.199   6.138
 5762POPC   D2A73468  43.842  16.040   6.491
 5762POPC   C3A73469  43.994  16.212   6.851
 5762POPC   C4A73470  43.885  16.203   7.250
 5762POPC   C1B73471  43.606  15.589   6.187
 5762POPC   C2B73472  43.763  15.547   6.608
 5762POPC   C3B73473  43.738  15.767   6.999
 5762POPC   C4B73474  43.516  15.593   7.344
 5763POPC   NC373475  20.509  12.033   5.207
 5763POPC   PO473476  21.101  11.638   5.481
 5763POPC   GL173477  20.773  11.911   5.785
 5763POPC   GL273478  20.629  12.261   5.722
 5763POPC   C1A73479  20.588  11.931   6.257
 5763POPC   D2A73480  20.480  12.241   6.615
 5763POPC   C3A73481  20.485  12.180   7.076
 5763POPC   C4A73482  20.223  11.864   7.309
 5763POPC   C1B73483  20.766  12.394   6.165
 5763POPC   C2B73484  20.931  12.440   6.602
 5763POPC   C3B73485  21.001  12.344   7.031
 5763POPC   C4B73486  20.844  12.407   7.455
 5764POPC   NC373487  13.787  39.944   5.178
 5764POPC   PO473488  14.065  39.770   5.755
 5764POPC   GL173489  13.784  40.050   5.953
 5764POPC   GL273490  13.588  40.212   5.699
 5764POPC   C1A73491  13.668  40.010   6.365
 5764POPC   D2A73492  13.350  40.021   6.626
 5764POPC   C3A73493  13.515  40.151   6.974
 5764POPC   C4A73494  13.494  39.877   7.243
 5764POPC   C1B73495  13.375  40.341   6.102
 5764POPC   C2B73496  13.084  40.400   6.409
 5764POPC   C3B73497  13.039  40.363   6.879
 5764POPC   C4B73498  13.284  40.486   7.291
 5765POPC   NC373499  10.512  21.615   5.277
 5765POPC   PO473500  10.854  21.096   5.075
 5765POPC   GL173501  10.766  21.257   5.556
 5765POPC   GL273502  10.868  21.605   5.680
 5765POPC   C1A73503  10.453  21.339   5.946
 5765POPC   D2A73504  10.310  21.064   6.322
 5765POPC   C3A73505  10.288  21.151   6.779
 5765POPC   C4A73506  10.335  21.159   7.227
 5765POPC   C1B73507  10.843  21.605   6.144
 5765POPC   C2B73508  10.640  21.422   6.511
 5765POPC   C3B73509  10.763  21.311   6.933
 5765POPC   C4B73510  10.992  21.527   7.223
 5766POPC   NC373511  33.268  43.078   5.423
 5766POPC   PO473512  32.756  42.707   5.592
 5766POPC   GL173513  33.005  42.953   5.863
 5766POPC   GL273514  33.349  42.819   5.844
 5766POPC   C1A73515  32.985  43.031   6.302
 5766POPC   D2A73516  32.845  43.308   6.652
 5766POPC   C3A73517  32.834  43.083   7.026
 5766POPC   C4A73518  32.549  42.715   7.110
 5766POPC   C1B73519  33.442  43.144   6.124
 5766POPC   C2B73520  33.367  43.209   6.584
 5766POPC   C3B73521  33.331  43.208   6.999
 5766POPC   C4B73522  33.232  43.073   7.409
 5767POPC   NC373523  18.606  41.946   5.587
 5767POPC   PO473524  18.512  42.628   5.426
 5767POPC   GL173525  18.291  42.420   5.797
 5767POPC   GL273526  18.152  42.086   5.790
 5767POPC   C1A73527  18.308  42.486   6.254
 5767POPC   D2A73528  18.534  42.309   6.645
 5767POPC   C3A73529  18.554  42.463   7.075
 5767POPC   C4A73530  18.241  42.644   7.369
 5767POPC   C1B73531  18.174  41.989   6.242
 5767POPC   C2B73532  18.226  41.881   6.676
 5767POPC   C3B73533  18.240  42.007   7.093
 5767POPC   C4B73534  18.397  42.170   7.482
 5768POPC   NC373535  26.709  31.842   5.432
 5768POPC   PO473536  26.871  31.250   5.415
 5768POPC   GL173537  26.793  31.378   5.846
 5768POPC   GL273538  26.857  31.725   5.904
 5768POPC   C1A73539  26.934  31.371   6.284
 5768POPC   D2A73540  26.646  31.209   6.592
 5768POPC   C3A73541  26.788  31.227   6.988
 5768POPC   C4A73542  27.111  31.453   7.173
 5768POPC   C1B73543  26.760  31.873   6.326
 5768POPC   C2B73544  26.845  31.723   6.746
 5768POPC   C3B73545  26.745  31.925   7.115
 5768POPC   C4B73546  26.456  31.882   7.449
 5769POPC   NC373547  16.462  19.022   5.378
 5769POPC   PO473548  17.003  19.378   5.258
 5769POPC   GL173549  16.932  19.191   5.690
 5769POPC   GL273550  16.607  19.353   5.742
 5769POPC   C1A73551  16.706  18.945   6.035
 5769POPC   D2A73552  16.555  18.849   6.452
 5769POPC   C3A73553  16.806  18.944   6.821
 5769POPC   C4A73554  16.586  18.874   7.199
 5769POPC   C1B73555  16.640  19.472   6.182
 5769POPC   C2B73556  16.602  19.419   6.636
 5769POPC   C3B73557  16.524  19.569   7.062
 5769POPC   C4B73558  16.593  19.336   7.454
 5770POPC   NC373559  41.626  15.767   5.322
 5770POPC   PO473560  41.127  16.101   5.535
 5770POPC   GL173561  41.523  16.156   5.772
 5770POPC   GL273562  41.900  16.033   5.796
 5770POPC   C1A73563  41.586  16.165   6.222
 5770POPC   D2A73564  41.408  15.948   6.574
 5770POPC   C3A73565  41.434  16.071   6.974
 5770POPC   C4A73566  41.333  15.840   7.372
 5770POPC   C1B73567  41.946  15.773   6.180
 5770POPC   C2B73568  41.898  15.757   6.615
 5770POPC   C3B73569  42.089  15.877   7.005
 5770POPC   C4B73570  41.815  16.056   7.296
 5771POPC   NC373571  27.232  31.460   5.628
 5771POPC   PO473572  27.786  31.454   5.235
 5771POPC   GL173573  27.733  31.562   5.729
 5771POPC   GL273574  27.518  31.841   5.825
 5771POPC   C1A73575  27.577  31.450   6.198
 5771POPC   D2A73576  27.385  31.235   6.597
 5771POPC   C3A73577  27.591  31.461   6.975
 5771POPC   C4A73578  27.819  31.433   7.369
 5771POPC   C1B73579  27.256  31.859   6.193
 5771POPC   C2B73580  27.338  31.732   6.608
 5771POPC   C3B73581  27.272  31.904   7.028
 5771POPC   C4B73582  27.444  31.753   7.431
 5772POPC   NC373583  17.452   7.079   5.528
 5772POPC   PO473584  17.498   6.464   5.358
 5772POPC   GL173585  17.480   6.622   5.819
 5772POPC   GL273586  17.295   6.942   5.970
 5772POPC   C1A73587  17.666   6.629   6.244
 5772POPC   D2A73588  17.700   6.729   6.690
 5772POPC   C3A73589  17.637   6.431   7.018
 5772POPC   C4A73590  17.624   6.281   7.457
 5772POPC   C1B73591  17.643   7.143   6.229
 5772POPC   C2B73592  17.877   7.201   6.607
 5772POPC   C3B73593  17.573   7.154   6.931
 5772POPC   C4B73594  17.380   6.909   7.242
 5773POPC   NC373595  41.105  13.478   5.467
 5773POPC   PO473596  40.543  13.780   5.339
 5773POPC   GL173597  40.577  13.616   5.765
 5773POPC   GL273598  40.396  13.850   6.004
 5773POPC   C1A73599  40.742  13.497   6.181
 5773POPC   D2A73600  40.850  13.623   6.597
 5773POPC   C3A73601  40.772  13.353   6.969
 5773POPC   C4A73602  40.907  13.600   7.285
 5773POPC   C1B73603  40.745  14.075   6.248
 5773POPC   C2B73604  40.977  14.253   6.630
 5773POPC   C3B73605  41.047  14.041   7.047
 5773POPC   C4B73606  41.075  13.984   7.571
 5774POPC   NC373607  37.153  26.813   4.866
 5774POPC   PO473608  36.739  26.919   5.392
 5774POPC   GL173609  36.795  26.727   5.781
 5774POPC   GL273610  37.077  26.511   5.779
 5774POPC   C1A73611  36.994  26.834   6.180
 5774POPC   D2A73612  36.860  26.709   6.585
 5774POPC   C3A73613  36.968  26.992   6.887
 5774POPC   C4A73614  36.782  27.226   7.176
 5774POPC   C1B73615  37.042  26.339   6.215
 5774POPC   C2B73616  37.237  26.350   6.635
 5774POPC   C3B73617  37.056  26.493   7.023
 5774POPC   C4B73618  36.858  26.399   7.443
 5775POPC   NC373619  32.908  35.717   5.558
 5775POPC   PO473620  33.279  36.188   5.245
 5775POPC   GL173621  33.018  36.246   5.738
 5775POPC   GL273622  32.679  36.056   5.866
 5775POPC   C1A73623  33.053  36.130   6.212
 5775POPC   D2A73624  32.977  36.058   6.643
 5775POPC   C3A73625  33.345  35.966   6.843
 5775POPC   C4A73626  33.383  36.067   7.248
 5775POPC   C1B73627  32.668  36.450   6.128
 5775POPC   C2B73628  32.478  36.547   6.550
 5775POPC   C3B73629  32.638  36.433   6.955
 5775POPC   C4B73630  32.879  36.303   7.319
 5776POPC   NC373631  29.772  26.192   5.034
 5776POPC   PO473632  29.411  25.644   5.325
 5776POPC   GL173633  29.708  25.720   5.670
 5776POPC   GL273634  29.700  26.070   5.551
 5776POPC   C1A73635  29.965  25.790   6.075
 5776POPC   D2A73636  30.048  26.138   6.399
 5776POPC   C3A73637  30.042  26.055   6.874
 5776POPC   C4A73638  30.291  25.888   7.266
 5776POPC   C1B73639  29.679  26.210   5.988
 5776POPC   C2B73640  29.584  26.346   6.461
 5776POPC   C3B73641  29.517  26.247   6.867
 5776POPC   C4B73642  29.728  26.209   7.248
 5777POPC   NC373643  24.385  11.689   5.622
 5777POPC   PO473644  24.541  11.126   5.240
 5777POPC   GL173645  24.521  11.138   5.729
 5777POPC   GL273646  24.832  10.994   5.910
 5777POPC   C1A73647  24.348  11.165   6.178
 5777POPC   D2A73648  24.300  11.498   6.547
 5777POPC   C3A73649  24.448  11.431   6.995
 5777POPC   C4A73650  24.280  11.097   7.233
 5777POPC   C1B73651  24.838  11.119   6.327
 5777POPC   C2B73652  24.546  11.039   6.661
 5777POPC   C3B73653  24.713  10.931   7.048
 5777POPC   C4B73654  24.794  11.125   7.433
 5778POPC   NC373655  38.304  19.600   5.458
 5778POPC   PO473656  38.647  20.264   5.423
 5778POPC   GL173657  38.404  20.026   5.716
 5778POPC   GL273658  38.662  19.799   5.763
 5778POPC   C1A73659  38.332  19.805   6.134
 5778POPC   D2A73660  38.611  19.857   6.482
 5778POPC   C3A73661  38.518  20.006   6.870
 5778POPC   C4A73662  38.412  19.740   7.194
 5778POPC   C1B73663  38.758  20.127   6.081
 5778POPC   C2B73664  38.997  20.194   6.466
 5778POPC   C3B73665  39.022  20.065   6.877
 5778POPC   C4B73666  38.822  20.055   7.286
 5779POPC   NC373667  44.339  13.283   5.047
 5779POPC   PO473668  44.818  13.637   5.429
 5779POPC   GL173669  44.529  13.679   5.773
 5779POPC   GL273670  44.373  13.960   5.737
 5779POPC   C1A73671  44.474  13.492   6.189
 5779POPC   D2A73672  44.748  13.489   6.522
 5779POPC   C3A73673  44.564  13.497   6.897
 5779POPC   C4A73674  44.739  13.632   7.232
 5779POPC   C1B73675  44.374  13.994   6.173
 5779POPC   C2B73676  44.468  13.920   6.609
 5779POPC   C3B73677  44.402  13.995   7.053
 5779POPC   C4B73678  44.646  14.073   7.435
 5780POPC   NC373679  23.881  23.254   5.464
 5780POPC   PO473680  23.684  23.860   5.343
 5780POPC   GL173681  23.675  23.873   5.777
 5780POPC   GL273682  23.589  23.540   5.842
 5780POPC   C1A73683  23.719  23.834   6.243
 5780POPC   D2A73684  23.589  23.981   6.641
 5780POPC   C3A73685  23.652  23.824   7.051
 5780POPC   C4A73686  23.646  24.059   7.461
 5780POPC   C1B73687  23.394  23.433   6.267
 5780POPC   C2B73688  23.495  23.418   6.711
 5780POPC   C3B73689  23.428  23.345   7.138
 5780POPC   C4B73690  23.507  23.189   7.567
 5781POPC   NC373691  13.300  17.262   5.546
 5781POPC   PO473692  13.397  17.938   5.427
 5781POPC   GL173693  13.220  17.812   5.831
 5781POPC   GL273694  13.012  17.518   5.858
 5781POPC   C1A73695  12.981  17.827   6.244
 5781POPC   D2A73696  12.841  17.636   6.659
 5781POPC   C3A73697  13.128  17.624   7.027
 5781POPC   C4A73698  13.183  17.345   7.370
 5781POPC   C1B73699  12.770  17.354   6.186
 5781POPC   C2B73700  12.623  17.170   6.552
 5781POPC   C3B73701  12.656  17.111   6.975
 5781POPC   C4B73702  12.592  17.415   7.301
 5782POPC   NC373703   6.498  11.993   5.350
 5782POPC   PO473704   7.080  12.302   5.651
 5782POPC   GL173705   6.804  11.939   5.793
 5782POPC   GL273706   6.402  11.907   5.825
 5782POPC   C1A73707   6.723  11.864   6.226
 5782POPC   D2A73708   6.886  12.061   6.564
 5782POPC   C3A73709   6.718  11.900   6.933
 5782POPC   C4A73710   6.655  12.189   7.225
 5782POPC   C1B73711   6.208  11.866   6.220
 5782POPC   C2B73712   6.322  12.123   6.591
 5782POPC   C3B73713   6.221  12.195   7.002
 5782POPC   C4B73714   6.293  11.802   7.210
 5783POPC   NC373715   5.109  23.831   5.431
 5783POPC   PO473716   4.555  23.717   5.639
 5783POPC   GL173717   4.934  23.661   5.916
 5783POPC   GL273718   5.314  23.568   5.887
 5783POPC   C1A73719   5.068  23.722   6.347
 5783POPC   D2A73720   5.254  23.995   6.649
 5783POPC   C3A73721   4.981  23.922   6.942
 5783POPC   C4A73722   4.867  23.658   7.298
 5783POPC   C1B73723   5.331  23.297   6.298
 5783POPC   C2B73724   5.260  23.441   6.756
 5783POPC   C3B73725   5.411  23.700   7.094
 5783POPC   C4B73726   5.410  23.658   7.568
 5784POPC   NC373727  40.360  42.115   5.549
 5784POPC   PO473728  40.884  42.547   5.411
 5784POPC   GL173729  40.742  42.382   5.820
 5784POPC   GL273730  40.495  42.545   6.035
 5784POPC   C1A73731  40.945  42.311   6.229
 5784POPC   D2A73732  40.906  41.989   6.557
 5784POPC   C3A73733  40.903  42.149   6.985
 5784POPC   C4A73734  40.945  42.597   7.153
 5784POPC   C1B73735  40.443  42.114   6.250
 5784POPC   C2B73736  40.384  42.029   6.699
 5784POPC   C3B73737  40.323  42.014   7.119
 5784POPC   C4B73738  40.627  42.244   7.403
 5785POPC   NC373739  20.820  40.531   5.312
 5785POPC   PO473740  20.256  40.715   5.235
 5785POPC   GL173741  20.528  40.696   5.709
 5785POPC   GL273742  20.856  40.591   5.816
 5785POPC   C1A73743  20.467  40.682   6.191
 5785POPC   D2A73744  20.220  40.681   6.614
 5785POPC   C3A73745  20.402  40.817   7.032
 5785POPC   C4A73746  20.311  41.087   7.412
 5785POPC   C1B73747  20.895  40.405   6.210
 5785POPC   C2B73748  20.699  40.483   6.626
 5785POPC   C3B73749  20.640  40.356   7.052
 5785POPC   C4B73750  20.885  40.405   7.403
 5786POPC   NC373751  35.188  40.270   5.653
 5786POPC   PO473752  35.230  39.642   5.411
 5786POPC   GL173753  35.431  39.850   5.798
 5786POPC   GL273754  35.143  39.937   6.053
 5786POPC   C1A73755  35.592  40.112   6.163
 5786POPC   D2A73756  35.363  40.163   6.553
 5786POPC   C3A73757  35.456  39.972   6.943
 5786POPC   C4A73758  35.256  39.772   7.311
 5786POPC   C1B73759  34.961  40.329   6.268
 5786POPC   C2B73760  34.928  40.418   6.685
 5786POPC   C3B73761  34.949  40.174   7.064
 5786POPC   C4B73762  35.154  40.271   7.444
 5787POPC   NC373763  25.494  40.845   5.466
 5787POPC   PO473764  25.300  40.265   5.593
 5787POPC   GL173765  25.357  40.565   5.895
 5787POPC   GL273766  25.147  40.877   5.859
 5787POPC   C1A73767  25.153  40.599   6.283
 5787POPC   D2A73768  25.372  40.681   6.642
 5787POPC   C3A73769  25.058  40.634   6.908
 5787POPC   C4A73770  24.924  40.790   7.270
 5787POPC   C1B73771  25.439  41.037   6.201
 5787POPC   C2B73772  25.426  41.319   6.566
 5787POPC   C3B73773  25.301  41.139   6.940
 5787POPC   C4B73774  25.467  40.784   7.162
 5788POPC   NC373775  37.240  44.884   5.474
 5788POPC   PO473776  36.631  44.914   5.299
 5788POPC   GL173777  36.806  44.681   5.749
 5788POPC   GL273778  36.685  44.360   5.847
 5788POPC   C1A73779  36.952  44.548   6.241
 5788POPC   D2A73780  36.865  44.704   6.706
 5788POPC   C3A73781  36.933  44.536   7.118
 5788POPC   C4A73782  37.212  44.667   7.500
 5788POPC   C1B73783  36.459  44.562   6.157
 5788POPC   C2B73784  36.338  44.482   6.565
 5788POPC   C3B73785  36.414  44.532   7.013
 5788POPC   C4B73786  36.548  44.823   7.306
 5789POPC   NC373787  10.946   0.720   5.362
 5789POPC   PO473788  10.383   0.376   5.286
 5789POPC   GL173789  10.343   0.344   5.751
 5789POPC   GL273790  10.372   0.020   5.852
 5789POPC   C1A73791  10.334   0.564   6.170
 5789POPC   D2A73792  10.516   0.693   6.581
 5789POPC   C3A73793  10.490   0.461   6.940
 5789POPC   C4A73794  10.182   0.536   7.212
 5789POPC   C1B73795  10.150   0.087   6.197
 5789POPC   C2B73796  10.155   0.289   6.587
 5789POPC   C3B73797  10.172   0.056   6.965
 5789POPC   C4B73798  10.038   0.064   7.347
 5790POPC   NC373799   2.873   1.602   5.276
 5790POPC   PO473800   2.435   1.175   5.519
 5790POPC   GL173801   2.787   1.262   5.755
 5790POPC   GL273802   2.753   1.623   5.765
 5790POPC   C1A73803   2.718   1.208   6.204
 5790POPC   D2A73804   2.523   0.996   6.546
 5790POPC   C3A73805   2.791   1.036   6.904
 5790POPC   C4A73806   2.580   1.024   7.266
 5790POPC   C1B73807   3.066   1.581   6.070
 5790POPC   C2B73808   2.944   1.573   6.494
 5790POPC   C3B73809   2.640   1.538   6.784
 5790POPC   C4B73810   2.608   1.552   7.208
 5791POPC   NC373811  42.903  17.202   5.426
 5791POPC   PO473812  43.202  17.814   5.219
 5791POPC   GL173813  43.105  17.714   5.688
 5791POPC   GL273814  43.283  17.910   5.962
 5791POPC   C1A73815  43.099  17.421   6.065
 5791POPC   D2A73816  43.314  17.187   6.394
 5791POPC   C3A73817  43.196  17.263   6.822
 5791POPC   C4A73818  43.024  17.297   7.239
 5791POPC   C1B73819  42.905  17.885   6.184
 5791POPC   C2B73820  42.853  17.660   6.535
 5791POPC   C3B73821  43.015  17.738   6.924
 5791POPC   C4B73822  43.015  17.809   7.342
 5792POPC   NC373823  30.147  32.728   5.375
 5792POPC   PO473824  29.521  32.996   5.407
 5792POPC   GL173825  29.696  33.128   5.769
 5792POPC   GL273826  30.053  33.076   5.779
 5792POPC   C1A73827  29.768  33.023   6.188
 5792POPC   D2A73828  29.977  32.899   6.516
 5792POPC   C3A73829  29.858  33.054   6.861
 5792POPC   C4A73830  29.694  32.987   7.212
 5792POPC   C1B73831  30.264  33.174   6.174
 5792POPC   C2B73832  30.393  33.283   6.625
 5792POPC   C3B73833  30.251  33.337   7.084
 5792POPC   C4B73834  30.383  33.274   7.525
 5793POPC   NC373835  38.817  30.913   5.105
 5793POPC   PO473836  38.231  30.761   5.429
 5793POPC   GL173837  38.394  30.677   5.820
 5793POPC   GL273838  38.254  30.369   5.888
 5793POPC   C1A73839  38.355  30.807   6.244
 5793POPC   D2A73840  38.562  30.804   6.642
 5793POPC   C3A73841  38.301  30.950   6.994
 5793POPC   C4A73842  38.119  30.877   7.415
 5793POPC   C1B73843  38.533  30.296   6.265
 5793POPC   C2B73844  38.582  30.285   6.708
 5793POPC   C3B73845  38.577  30.526   7.078
 5793POPC   C4B73846  38.829  30.402   7.408
 5794POPC   NC373847  18.950  41.267   5.472
 5794POPC   PO473848  19.058  41.967   5.565
 5794POPC   GL173849  19.025  41.640   5.809
 5794POPC   GL273850  19.334  41.430   5.766
 5794POPC   C1A73851  19.010  41.609   6.223
 5794POPC   D2A73852  18.834  41.391   6.542
 5794POPC   C3A73853  19.017  41.396   6.901
 5794POPC   C4A73854  18.908  41.601   7.279
 5794POPC   C1B73855  19.498  41.671   6.122
 5794POPC   C2B73856  19.399  41.908   6.494
 5794POPC   C3B73857  19.246  41.849   6.911
 5794POPC   C4B73858  19.404  41.568   7.216
 5795POPC   NC373859  27.002  12.123   5.451
 5795POPC   PO473860  26.891  11.521   5.264
 5795POPC   GL173861  26.818  11.691   5.689
 5795POPC   GL273862  26.521  11.548   5.846
 5795POPC   C1A73863  26.753  11.939   6.095
 5795POPC   D2A73864  26.742  11.892   6.560
 5795POPC   C3A73865  26.783  12.233   6.870
 5795POPC   C4A73866  26.762  12.165   7.283
 5795POPC   C1B73867  26.347  11.641   6.261
 5795POPC   C2B73868  26.316  11.564   6.703
 5795POPC   C3B73869  26.588  11.693   7.072
 5795POPC   C4B73870  26.724  11.700   7.534
 5796POPC   NC373871  31.035   8.706   5.315
 5796POPC   PO473872  30.424   8.921   5.374
 5796POPC   GL173873  30.736   8.922   5.703
 5796POPC   GL273874  30.787   8.564   5.773
 5796POPC   C1A73875  30.758   9.011   6.158
 5796POPC   D2A73876  30.893   9.260   6.517
 5796POPC   C3A73877  30.721   9.196   6.940
 5796POPC   C4A73878  30.811   9.120   7.371
 5796POPC   C1B73879  31.014   8.544   6.185
 5796POPC   C2B73880  31.042   8.780   6.581
 5796POPC   C3B73881  31.054   8.762   7.018
 5796POPC   C4B73882  30.919   8.364   7.146
 5797POPC   NC373883  25.943  18.611   5.137
 5797POPC   PO473884  26.223  19.114   5.362
 5797POPC   GL173885  25.946  18.887   5.658
 5797POPC   GL273886  26.159  18.745   5.902
 5797POPC   C1A73887  25.868  19.109   6.084
 5797POPC   D2A73888  26.087  19.312   6.453
 5797POPC   C3A73889  25.858  19.152   6.803
 5797POPC   C4A73890  26.009  18.925   7.202
 5797POPC   C1B73891  26.201  18.811   6.358
 5797POPC   C2B73892  26.307  18.937   6.783
 5797POPC   C3B73893  26.449  18.668   7.124
 5797POPC   C4B73894  26.258  18.523   7.470
 5798POPC   NC373895   4.004  44.498   5.444
 5798POPC   PO473896   4.506  44.830   5.400
 5798POPC   GL173897   4.364  44.939   5.821
 5798POPC   GL273898   3.999  44.918   5.825
 5798POPC   C1A73899   4.410  44.955   6.297
 5798POPC   D2A73900   4.439   0.149   6.730
 5798POPC   C3A73901   4.460  44.795   7.024
 5798POPC   C4A73902   4.316  44.530   7.401
 5798POPC   C1B73903   4.069  44.590   6.108
 5798POPC   C2B73904   3.959  44.643   6.532
 5798POPC   C3B73905   3.893  44.957   6.832
 5798POPC   C4B73906   4.036  44.933   7.244
 5799POPC   NC373907  23.822  41.915   5.511
 5799POPC   PO473908  23.681  42.586   5.393
 5799POPC   GL173909  23.776  42.397   5.823
 5799POPC   GL273910  23.578  42.096   5.935
 5799POPC   C1A73911  23.861  42.446   6.294
 5799POPC   D2A73912  23.575  42.341   6.655
 5799POPC   C3A73913  23.583  42.483   7.104
 5799POPC   C4A73914  23.356  42.354   7.470
 5799POPC   C1B73915  23.971  41.969   6.170
 5799POPC   C2B73916  24.058  42.079   6.608
 5799POPC   C3B73917  23.985  42.165   7.054
 5799POPC   C4B73918  23.855  42.133   7.505
 5800POPC   NC373919  11.213  37.455   5.460
 5800POPC   PO473920  11.380  38.133   5.362
 5800POPC   GL173921  11.603  38.008   5.741
 5800POPC   GL273922  11.646  37.660   5.683
 5800POPC   C1A73923  11.493  38.008   6.174
 5800POPC   D2A73924  11.586  37.740   6.518
 5800POPC   C3A73925  11.314  37.746   6.851
 5800POPC   C4A73926  11.595  37.655   7.176
 5800POPC   C1B73927  11.560  37.379   6.052
 5800POPC   C2B73928  11.286  37.294   6.427
 5800POPC   C3B73929  11.336  37.209   6.865
 5800POPC   C4B73930  11.122  37.413   7.212
 5801POPC   NC373931   8.558  41.603   5.434
 5801POPC   PO473932   9.131  41.579   5.129
 5801POPC   GL173933   9.095  41.541   5.640
 5801POPC   GL273934   8.777  41.462   5.859
 5801POPC   C1A73935   9.169  41.519   6.147
 5801POPC   D2A73936   8.905  41.521   6.554
 5801POPC   C3A73937   9.065  41.321   6.945
 5801POPC   C4A73938   9.417  41.177   7.214
 5801POPC   C1B73939   8.773  41.839   6.154
 5801POPC   C2B73940   8.827  42.035   6.578
 5801POPC   C3B73941   8.933  41.826   6.973
 5801POPC   C4B73942   9.340  41.826   7.105
 5802POPC   NC373943  22.029  19.236   5.250
 5802POPC   PO473944  22.590  18.902   5.391
 5802POPC   GL173945  22.366  19.093   5.760
 5802POPC   GL273946  22.099  18.951   5.672
 5802POPC   C1A73947  22.308  19.307   6.180
 5802POPC   D2A73948  22.552  19.386   6.600
 5802POPC   C3A73949  22.515  19.053   6.933
 5802POPC   C4A73950  22.297  18.910   7.318
 5802POPC   C1B73951  22.168  18.820   6.137
 5802POPC   C2B73952  21.984  18.889   6.545
 5802POPC   C3B73953  21.962  19.010   6.962
 5802POPC   C4B73954  21.800  18.933   7.385
 5803POPC   NC373955  38.049  10.596   5.426
 5803POPC   PO473956  37.338  10.338   5.358
 5803POPC   GL173957  37.551  10.445   5.767
 5803POPC   GL273958  37.780  10.740   5.852
 5803POPC   C1A73959  37.723  10.288   6.176
 5803POPC   D2A73960  37.850  10.461   6.581
 5803POPC   C3A73961  37.840  10.246   6.970
 5803POPC   C4A73962  37.798  10.411   7.387
 5803POPC   C1B73963  37.465  10.757   6.187
 5803POPC   C2B73964  37.528  10.862   6.614
 5803POPC   C3B73965  37.618  10.699   6.996
 5803POPC   C4B73966  37.355  10.634   7.327
 5804POPC   NC373967  28.129  27.412   5.481
 5804POPC   PO473968  28.443  28.015   5.413
 5804POPC   GL173969  28.545  27.827   5.822
 5804POPC   GL273970  28.511  27.480   5.854
 5804POPC   C1A73971  28.426  27.781   6.286
 5804POPC   D2A73972  28.241  27.911   6.688
 5804POPC   C3A73973  28.446  27.792   7.037
 5804POPC   C4A73974  28.525  27.519   7.338
 5804POPC   C1B73975  28.732  27.362   6.232
 5804POPC   C2B73976  28.634  27.447   6.682
 5804POPC   C3B73977  28.324  27.248   6.966
 5804POPC   C4B73978  28.063  27.296   7.341
 5805POPC   NC373979   3.566   5.301   5.389
 5805POPC   PO473980   3.391   4.642   5.329
 5805POPC   GL173981   3.565   4.856   5.702
 5805POPC   GL273982   3.262   4.962   5.757
 5805POPC   C1A73983   3.551   5.000   6.182
 5805POPC   D2A73984   3.662   5.058   6.653
 5805POPC   C3A73985   3.550   5.246   7.077
 5805POPC   C4A73986   3.695   5.087   7.523
 5805POPC   C1B73987   3.016   4.913   6.123
 5805POPC   C2B73988   3.162   5.000   6.533
 5805POPC   C3B73989   3.146   4.878   6.951
 5805POPC   C4B73990   3.086   5.184   7.265
 5806POPC   NC373991  31.329  17.213   5.256
 5806POPC   PO473992  31.663  17.813   5.407
 5806POPC   GL173993  31.664  17.530   5.718
 5806POPC   GL273994  31.438  17.250   5.763
 5806POPC   C1A73995  31.810  17.520   6.132
 5806POPC   D2A73996  31.652  17.798   6.440
 5806POPC   C3A73997  31.812  17.691   6.810
 5806POPC   C4A73998  31.652  17.517   7.143
 5806POPC   C1B73999  31.312  17.424   6.194
 5806POPC   C2B74000  31.303  17.477   6.677
 5806POPC   C3B74001  31.237  17.224   7.081
 5806POPC   C4B74002  31.036  17.046   7.486
 5807POPC   NC374003  39.668  42.635   5.642
 5807POPC   PO474004  39.266  42.191   5.311
 5807POPC   GL174005  39.145  42.172   5.757
 5807POPC   GL274006  39.208  42.490   5.833
 5807POPC   C1A74007  39.003  42.094   6.168
 5807POPC   D2A74008  39.088  42.305   6.538
 5807POPC   C3A74009  38.985  42.115   6.897
 5807POPC   C4A74010  39.055  42.400   7.195
 5807POPC   C1B74011  39.464  42.345   6.180
 5807POPC   C2B74012  39.550  42.549   6.564
 5807POPC   C3B74013  39.489  42.295   6.903
 5807POPC   C4B74014  39.786  42.340   7.220
 5808POPC   NC374015  19.460  42.124   5.402
 5808POPC   PO474016  19.340  42.820   5.493
 5808POPC   GL174017  19.200  42.449   5.734
 5808POPC   GL274018  18.820  42.384   5.802
 5808POPC   C1A74019  19.193  42.278   6.162
 5808POPC   D2A74020  19.005  42.499   6.512
 5808POPC   C3A74021  19.058  42.348   6.913
 5808POPC   C4A74022  19.052  42.551   7.293
 5808POPC   C1B74023  18.700  42.117   6.194
 5808POPC   C2B74024  18.829  41.909   6.583
 5808POPC   C3B74025  18.729  41.970   6.993
 5808POPC   C4B74026  18.887  42.106   7.382
 5809W        W74027  26.104  23.516   3.797
 5810W        W74028  39.614  40.961   1.377
 5811W        W74029  19.756  19.902   3.287
 5812W        W74030  23.509  40.432  10.747
 5813W        W74031  20.737  25.631   2.234
 5814W        W74032  10.831   9.203  14.565
 5815W        W74033  23.321  35.046   0.292
 5816W        W74034  26.215  20.806  11.217
 5817W        W74035  10.390  34.196   1.766
 5818W        W74036  10.049   6.976   4.446
 5819W        W74037  38.047   6.429   4.632
 5820W        W74038  32.527   0.455  10.712
 5821W        W74039  40.880  14.048  12.049
 5822W        W74040   1.466  44.748  13.375
 5823W        W74041   3.600   5.365   0.083
 5824W        W74042  37.936  26.931   4.043
 5825W        W74043  36.030  39.960   2.781
 5826W        W74044   6.439  40.554  12.915
 5827W        W74045  30.163   2.387  13.764
 5828W        W74046  26.229  42.981  10.745
 5829W        W74047  31.936   1.993   3.238
 5830W        W74048  12.834   4.230   3.049
 5831W        W74049  17.767  38.302   1.864
 5832W        W74050  32.386   4.261   2.177
 5833W        W74051  20.471   7.618   4.863
 5834W        W74052   0.780  38.142  14.379
 5835W        W74053  17.570   7.134  11.208
 5836W        W74054   9.088  28.050   0.446
 5837W        W74055  26.432   9.333  12.451
 5838W        W74056   6.792  33.565   1.173
 5839W        W74057  38.877   4.534   1.673
 5840W        W74058  30.116  43.168   2.707
 5841W        W74059  24.103  23.151  13.340
 5842W        W74060  27.150  38.214  12.503
 5843W        W74061  40.819  23.544  10.742
 5844W        W74062  27.701  38.043   4.024
 5845W        W74063  38.112  30.580   2.243
 5846W        W74064  26.481  42.510  10.814
 5847W        W74065  13.707  28.555   2.898
 5848W        W74066  40.180  40.331   2.766
 5849W        W74067  10.672  12.068   4.828
 5850W        W74068  19.305  18.799  12.434
 5851W        W74069   6.712  40.409   5.113
 5852W        W74070  11.734  12.670   3.707
 5853W        W74071  28.551  42.735  12.499
 5854W        W74072   0.064  24.637   1.768
 5855W        W74073   2.207  11.892  14.894
 5856W        W74074  28.874  14.902   1.276
 5857W        W74075  38.991  26.411  12.545
 5858W        W74076  15.022  12.366  14.846
 5859W        W74077  36.940   3.282  14.301
 5860W        W74078  35.188  38.317   3.206
 5861W        W74079  13.325   2.581  14.829
 5862W        W74080  23.146  31.564   4.270
 5863W        W74081   8.644  26.036  12.151
 5864W        W74082  17.319  33.562  13.077
 5865W        W74083  31.037   1.935  14.037
 5866W        W74084  11.906  38.073   3.781
 5867W        W74085  41.874  35.467   2.798
 5868W        W74086  13.980  39.522  11.658
 5869W        W74087  39.979   0.506   2.394
 5870W        W74088  20.147  34.136  14.587
 5871W        W74089  10.716   4.202  11.354
 5872W        W74090   3.395  43.304  14.835
 5873W        W74091  10.363  16.176   3.598
 5874W        W74092  43.565  16.653   4.330
 5875W        W74093   9.086  20.045  12.835
 5876W        W74094  37.526  33.502   5.244
 5877W        W74095  29.001  36.916   4.629
 5878W        W74096  19.760  12.221  11.676
 5879W        W74097  33.679   4.330  11.672
 5880W        W74098   4.938  12.273  13.353
 5881W        W74099  26.686  31.509  12.097
 5882W        W74100  35.468  13.586  13.970
 5883W        W74101  37.511  32.829  14.106
 5884W        W74102   3.744  14.283   2.376
 5885W        W74103  33.780  25.123   0.827
 5886W        W74104   0.913  19.781   2.904
 5887W        W74105  44.557  26.072   3.892
 5888W        W74106  29.058  43.445  13.000
 5889W        W74107   3.288  35.661  11.195
 5890W        W74108  28.470   0.921  14.293
 5891W        W74109  26.123  26.503   1.873
 5892W        W74110   5.583   5.778   0.194
 5893W        W74111  20.695   0.030   2.199
 5894W        W74112   0.267  16.723  12.818
 5895W        W74113  44.089   9.766   3.648
 5896W        W74114  34.399  39.758  13.150
 5897W        W74115  10.165  43.999  13.443
 5898W        W74116  10.343  30.833  14.024
 5899W        W74117  11.526  40.066   0.446
 5900W        W74118  17.686  41.223   0.250
 5901W        W74119  30.169   5.738  12.523
 5902W        W74120  36.899   8.365   0.526
 5903W        W74121  42.997  34.003  10.338
 5904W        W74122  29.011  41.883  14.771
 5905W        W74123  33.848  13.747   2.687
 5906W        W74124   1.332  32.111  13.438
 5907W        W74125  25.707  34.690   5.030
 5908W        W74126  42.090  19.265   1.854
 5909W        W74127  31.875  44.444  10.333
 5910W        W74128   5.481  36.831  10.737
 5911W        W74129  35.927  37.304  14.832
 5912W        W74130  44.192  37.389   0.348
 5913W        W74131  23.541   1.227  10.623
 5914W        W74132   4.165  30.804   0.965
 5915W        W74133  13.591   1.012  11.674
 5916W        W74134  11.091  31.288  14.379
 5917W        W74135  41.265   3.833  13.903
 5918W        W74136  30.379   4.283  14.398
 5919W        W74137  10.364   9.324   2.217
 5920W        W74138  34.665  24.062   2.125
 5921W        W74139   1.924   7.040  12.004
 5922W        W74140  18.729   4.801   4.304
 5923W        W74141  13.279   8.027  14.934
 5924W        W74142  41.271  33.316   0.701
 5925W        W74143  42.923  25.497   1.299
 5926W        W74144  17.987   3.958  13.489
 5927W        W74145  17.499  27.874   4.604
 5928W        W74146  17.145  32.839  13.352
 5929W        W74147  38.822   8.575  14.451
 5930W        W74148  24.547  28.340  13.829
 5931W        W74149  10.885   5.962   2.087
 5932W        W74150  21.375  15.691  11.549
 5933W        W74151  13.385  30.232  12.496
 5934W        W74152  21.660  11.286   4.054
 5935W        W74153  30.518  31.595   1.720
 5936W        W74154  18.420  34.872  10.997
 5937W        W74155  33.049  32.949   1.400
 5938W        W74156   5.321  17.547  10.889
 5939W        W74157  30.409   0.431   0.282
 5940W        W74158   7.699  19.145   2.378
 5941W        W74159   4.866  41.920  13.486
 5942W        W74160   6.935  38.571  11.704
 5943W        W74161  42.080   1.372  12.943
 5944W        W74162   9.186  12.756   1.681
 5945W        W74163   1.794  41.811   1.213
 5946W        W74164  21.142  11.061   1.710
 5947W        W74165  11.265  44.711   3.666
 5948W        W74166   9.113  42.851   0.950
 5949W        W74167  26.565  19.226  14.375
 5950W        W74168  16.997   9.345   4.115
 5951W        W74169  44.472   3.941   4.524
 5952W        W74170  14.069  31.582  14.816
 5953W        W74171  37.561  15.393   0.824
 5954W        W74172  16.271  44.439   2.428
 5955W        W74173  33.155  21.421  11.546
 5956W        W74174  28.936  27.049  12.004
 5957W        W74175  36.016  18.206   1.348
 5958W        W74176  43.843   4.093   3.504
 5959W        W74177  18.029  38.775  13.887
 5960W        W74178   2.285  43.957   4.021
 5961W        W74179  40.911  42.556   4.515
 5962W        W74180  26.487  31.537   1.760
 5963W        W74181  44.201  31.839  11.575
 5964W        W74182  30.678  35.152  11.557
 5965W        W74183  20.036  24.178  12.011
 5966W        W74184  22.717  11.705   2.631
 5967W        W74185   0.769  39.874   0.387
 5968W        W74186  32.422  34.551  13.354
 5969W        W74187  16.736   1.706  13.751
 5970W        W74188   0.276  43.979   3.687
 5971W        W74189  27.762   6.300  12.418
 5972W        W74190  12.758  34.399   2.358
 5973W        W74191  13.674  24.591  11.218
 5974W        W74192  29.385  14.138  10.353
 5975W        W74193   8.792  11.276   1.465
 5976W        W74194   2.989  42.821  11.615
 5977W        W74195  27.282  10.441   2.701
 5978W        W74196  29.445  33.937   1.249
 5979W        W74197  43.953  38.445   2.675
 5980W        W74198   3.627  41.121  12.688
 5981W        W74199   0.970   7.441  14.680
 5982W        W74200  43.889  12.227  11.586
 5983W        W74201  14.356  24.650   1.868
 5984W        W74202  29.968  38.800   2.003
 5985W        W74203  31.089   0.422  10.581
 5986W        W74204  15.984  30.395  11.987
 5987W        W74205  44.545  42.906   2.823
 5988W        W74206  35.563  22.603   0.824
 5989W        W74207  29.229   6.109  14.692
 5990W        W74208  17.534  11.098   3.317
 5991W        W74209   4.062   5.493   2.700
 5992W        W74210  32.099  34.037   0.358
 5993W        W74211  36.611  27.390  11.868
 5994W        W74212   5.794  38.823  13.860
 5995W        W74213  33.775  40.657  14.546
 5996W        W74214   5.785  11.726   3.826
 5997W        W74215  32.975  20.173   1.469
 5998W        W74216  17.561  17.307  10.908
 5999W        W74217  30.094  41.741  10.675
 6000W        W74218  22.213  25.507   0.846
 6001W        W74219  43.709  38.290  12.508
 6002W        W74220  21.756  21.405  10.981
 6003W        W74221  40.258  24.263  12.903
 6004W        W74222  13.929  40.386  10.759
 6005W        W74223  16.350  27.759   1.521
 6006W        W74224  25.186  37.548  11.721
 6007W        W74225  44.340  41.037   0.246
 6008W        W74226  15.200   0.631  11.111
 6009W        W74227  35.522  19.481  13.028
 6010W        W74228  19.701  30.117  13.692
 6011W        W74229  32.601  11.629   4.469
 6012W        W74230  35.801   7.369  12.659
 6013W        W74231  26.977  16.859  11.029
 6014W        W74232  20.744  22.637  12.354
 6015W        W74233  25.080  26.914  12.885
 6016W        W74234   0.923  44.658   1.271
 6017W        W74235   7.334  12.951   2.829
 6018W        W74236  25.996   5.654   1.924
 6019W        W74237  19.138  36.558   0.882
 6020W        W74238   6.971  30.040  13.109
 6021W        W74239   9.249  21.739   0.847
 6022W        W74240   7.157  34.758  13.984
 6023W        W74241   3.915   6.416  12.981
 6024W        W74242  32.819   8.110  14.781
 6025W        W74243  10.095   4.356   0.898
 6026W        W74244  43.319   7.301  13.376
 6027W        W74245   5.125  44.565   0.028
 6028W        W74246   8.447  24.471  14.872
 6029W        W74247  28.001  20.446   5.055
 6030W        W74248  21.607  13.335   3.759
 6031W        W74249   6.926  29.995  14.914
 6032W        W74250  26.857   6.566   5.115
 6033W        W74251  30.694  42.633   0.263
 6034W        W74252   5.219  28.201  12.041
 6035W        W74253  33.466   9.912   0.482
 6036W        W74254  23.298  29.945  13.734
 6037W        W74255   1.331  44.756  12.855
 6038W        W74256  30.912   5.183   1.395
 6039W        W74257   9.316  42.180  11.431
 6040W        W74258  14.631  26.918  11.874
 6041W        W74259  42.552  13.544  12.330
 6042W        W74260  22.674   7.834   1.920
 6043W        W74261   9.386  17.221  12.449
 6044W        W74262  15.734  39.580  12.577
 6045W        W74263   8.505   0.382   2.803
 6046W        W74264  10.904  18.854  11.428
 6047W        W74265  24.324   8.657   3.711
 6048W        W74266  16.167  15.796  13.508
 6049W        W74267  26.655  43.065  12.911
 6050W        W74268  40.997  12.611   0.419
 6051W        W74269  41.123  30.969  14.916
 6052W        W74270   7.927  38.014  14.872
 6053W        W74271   5.917  33.578  12.493
 6054W        W74272  31.953  14.865   4.666
 6055W        W74273  25.582   1.131  13.766
 6056W        W74274  33.681  36.891  14.375
 6057W        W74275  19.748   0.456  12.017
 6058W        W74276  39.901  34.058  14.910
 6059W        W74277   8.278  38.597  13.531
 6060W        W74278  40.010   7.819  13.483
 6061W        W74279  22.601  39.298   2.340
 6062W        W74280  19.695   3.954   1.711
 6063W        W74281   5.251  30.418  11.032
 6064W        W74282  42.546  40.319  13.281
 6065W        W74283  21.050   4.019  13.740
 6066W        W74284  34.799   7.316   2.251
 6067W        W74285  32.617  39.515  12.025
 6068W        W74286  34.561  30.109   1.117
 6069W        W74287  19.067  19.623   0.854
 6070W        W74288  27.473  22.058   3.648
 6071W        W74289  20.060   2.691  11.083
 6072W        W74290  13.744  12.558   3.468
 6073W        W74291  35.951  21.137  11.922
 6074W        W74292  16.524  19.678   5.329
 6075W        W74293  33.404  33.538  14.274
 6076W        W74294  17.845   2.435   3.772
 6077W        W74295   7.235  18.852   2.320
 6078W        W74296  23.279  15.313  13.276
 6079W        W74297   7.772   3.006   0.732
 6080W        W74298  11.379  20.579   2.317
 6081W        W74299   5.891   7.776  11.976
 6082W        W74300  33.471  34.634   3.084
 6083W        W74301  39.304   9.984  13.382
 6084W        W74302  31.099  14.107  13.126
 6085W        W74303  44.753  43.847   3.806
 6086W        W74304   0.571  24.438   1.929
 6087W        W74305  23.094  28.948   1.265
 6088W        W74306  35.408  42.494   3.063
 6089W        W74307   9.472  28.442   2.675
 6090W        W74308   3.135   5.477   2.678
 6091W        W74309  24.008   9.865   0.410
 6092W        W74310  28.587   5.434   0.198
 6093W        W74311  23.154   8.122   4.250
 6094W        W74312  17.884  33.672   3.903
 6095W        W74313  19.247  37.954  13.172
 6096W        W74314   9.965  17.711   3.707
 6097W        W74315  35.965  33.515  13.034
 6098W        W74316  31.995  21.742   2.958
 6099W        W74317   9.290  41.901  13.767
 6100W        W74318  38.837   0.903   4.342
 6101W        W74319   7.462  36.015   4.129
 6102W        W74320  26.604  13.365   2.575
 6103W        W74321   8.320   8.714   0.088
 6104W        W74322  10.799   0.583  12.245
 6105W        W74323  30.346   5.466   2.757
 6106W        W74324  32.828  37.063  14.607
 6107W        W74325  10.698  40.900  12.921
 6108W        W74326   7.932  20.114   1.442
 6109W        W74327  13.296  25.200   3.763
 6110W        W74328  32.010   3.955   2.809
 6111W        W74329  20.303  41.758  12.329
 6112W        W74330   0.729   3.644   4.220
 6113W        W74331  38.138  10.168   0.030
 6114W        W74332   7.643  14.605   2.228
 6115W        W74333  37.440   9.116  12.827
 6116W        W74334  22.944   6.372  13.861
 6117W        W74335  24.732  26.657  13.390
 6118W        W74336   3.449  22.575   0.637
 6119W        W74337  42.346  11.642  12.804
 6120W        W74338  22.945  35.049  10.693
 6121W        W74339   7.925   8.856   3.692
 6122W        W74340  43.502  24.580  12.552
 6123W        W74341   1.023  27.386  11.596
 6124W        W74342   1.012  41.615   0.725
 6125W        W74343  18.745  10.855  12.910
 6126W        W74344  11.175  18.568   0.342
 6127W        W74345  26.106  12.229  11.353
 6128W        W74346  25.041  17.120  13.476
 6129W        W74347  25.722  38.410   3.193
 6130W        W74348  39.090  29.562   4.629
 6131W        W74349   6.795  44.526   5.156
 6132W        W74350  11.636  26.979  14.395
 6133W        W74351  25.690  15.132   1.713
 6134W        W74352  13.222  23.949  12.188
 6135W        W74353  17.575   9.636   0.502
 6136W        W74354  11.622  14.519   1.439
 6137W        W74355  29.455   2.221   5.039
 6138W        W74356   7.427  30.663  12.920
 6139W        W74357  39.476   1.333  11.002
 6140W        W74358  37.868  14.864   4.443
 6141W        W74359  36.722  30.517   4.101
 6142W        W74360   7.740  42.807  12.506
 6143W        W74361   5.354   5.510   0.583
 6144W        W74362  11.235  13.421  10.685
 6145W        W74363  10.095  28.582   3.889
 6146W        W74364  39.477   9.988   1.902
 6147W        W74365   9.359   5.547   0.427
 6148W        W74366  44.261   1.754   4.198
 6149W        W74367  39.877   0.985  14.757
 6150W        W74368  21.559  44.606   3.593
 6151W        W74369   3.361  22.659   4.569
 6152W        W74370  39.994  11.129   3.448
 6153W        W74371  16.625  14.756   3.393
 6154W        W74372  36.871  21.638   3.312
 6155W        W74373  44.925  39.585   3.723
 6156W        W74374   8.169  25.755  11.074
 6157W        W74375  35.313  41.834   4.502
 6158W        W74376  34.956   5.851  14.054
 6159W        W74377  40.050   2.767   2.211
 6160W        W74378  29.938  20.135  12.936
 6161W        W74379  28.970  10.893   1.951
 6162W        W74380  33.377  22.450  14.794
 6163W        W74381  31.763  19.046   3.690
 6164W        W74382   2.480  13.985  11.975
 6165W        W74383  13.126  27.131  10.521
 6166W        W74384  32.377  15.071  14.785
 6167W        W74385   9.862   5.453   1.314
 6168W        W74386  14.424   1.261   9.977
 6169W        W74387  21.179   6.216   0.236
 6170W        W74388  11.832  37.597  11.041
 6171W        W74389  35.707   6.262   1.850
 6172W        W74390  17.815  17.490  14.346
 6173W        W74391   6.349  28.638   2.371
 6174W        W74392   6.426  18.803  12.391
 6175W        W74393   2.406  20.786   3.658
 6176W        W74394   1.225  38.979  13.596
 6177W        W74395  29.312   1.819   1.825
 6178W        W74396   8.610  18.544   2.336
 6179W        W74397  10.189  27.462  11.715
 6180W        W74398   2.771  12.044   3.665
 6181W        W74399  27.882  43.992  14.719
 6182W        W74400  29.820   5.367  14.938
 6183W        W74401  29.919  34.546   0.484
 6184W        W74402  32.809  28.224   0.999
 6185W        W74403   6.814   9.664   0.298
 6186W        W74404  43.002   1.975   3.894
 6187W        W74405  16.131  30.908  10.714
 6188W        W74406  18.992  21.137  11.247
 6189W        W74407  39.597  22.788  11.664
 6190W        W74408   8.398  22.864  11.656
 6191W        W74409  31.563   6.204   3.665
 6192W        W74410  11.678   8.393   4.321
 6193W        W74411  19.506  33.181   9.888
 6194W        W74412  11.329  11.326   2.557
 6195W        W74413  30.170  36.538   2.755
 6196W        W74414   2.129  41.881  12.502
 6197W        W74415  37.149  26.579  11.483
 6198W        W74416   8.932  23.652  11.974
 6199W        W74417  13.752  30.675  14.837
 6200W        W74418  34.496  31.872   0.996
 6201W        W74419  41.261   6.387   2.021
 6202W        W74420  11.183   0.005  13.409
 6203W        W74421   4.563  27.077   4.130
 6204W        W74422   8.160  20.977  11.997
 6205W        W74423  25.843  22.706   0.254
 6206W        W74424  12.408  16.076   2.667
 6207W        W74425   9.507  23.657   4.473
 6208W        W74426  32.097  26.772  13.862
 6209W        W74427  34.545  43.765   4.699
 6210W        W74428  22.056  28.186  14.389
 6211W        W74429  13.833  19.230   3.175
 6212W        W74430   2.328  35.122   0.414
 6213W        W74431   0.258  21.616  12.505
 6214W        W74432  35.318  27.956   2.221
 6215W        W74433  43.997  38.458   2.156
 6216W        W74434  26.257  21.073  14.828
 6217W        W74435  31.846   1.868  12.007
 6218W        W74436  13.850  34.284  14.488
 6219W        W74437  29.551  20.890  10.391
 6220W        W74438   9.674   8.179   3.581
 6221W        W74439  17.942   7.479  11.111
 6222W        W74440  24.540  31.518  13.558
 6223W        W74441  36.570  17.055   4.659
 6224W        W74442  27.660  16.258  13.889
 6225W        W74443  29.541  41.037  14.809
 6226W        W74444  32.510  10.966  12.819
 6227W        W74445  11.846  17.138  12.000
 6228W        W74446  34.406  41.781   1.450
 6229W        W74447   7.830  25.666  12.381
 6230W        W74448  44.508  18.704  14.424
 6231W        W74449  18.901  28.067   0.403
 6232W        W74450  21.177  14.666  14.424
 6233W        W74451  41.072  25.004   0.346
 6234W        W74452  40.401  34.791   3.323
 6235W        W74453  10.592  12.614   0.558
 6236W        W74454   4.234  14.349   3.275
 6237W        W74455  11.195  44.300   2.926
 6238W        W74456  27.551  33.196   0.885
 6239W        W74457  23.285  13.178   3.220
 6240W        W74458  23.627   6.340   0.144
 6241W        W74459  29.357  25.135  12.042
 6242W        W74460   6.689  28.100   3.634
 6243W        W74461  24.136  26.574  13.124
 6244W        W74462   8.675  35.437  14.856
 6245W        W74463  32.955  37.486   0.833
 6246W        W74464  14.288   2.346   2.175
 6247W        W74465  33.643  32.556  14.869
 6248W        W74466  15.991  21.259  14.460
 6249W        W74467  29.717  20.565   1.276
 6250W        W74468  25.004  23.433   2.739
 6251W        W74469   6.236  15.072  13.135
 6252W        W74470  22.216   8.139   4.016
 6253W        W74471  38.750   6.292   9.885
 6254W        W74472  11.549  24.989  11.995
 6255W        W74473   5.980  44.930  12.121
 6256W        W74474  12.363  38.841  13.837
 6257W        W74475  15.652  35.989   1.519
 6258W        W74476  24.200  28.965  10.653
 6259W        W74477  32.185  36.774   1.010
 6260W        W74478  13.520  25.291   4.225
 6261W        W74479  36.301  16.680  11.258
 6262W        W74480  41.603  13.151   3.780
 6263W        W74481  31.114  13.152  13.560
 6264W        W74482  44.423  18.356  14.871
 6265W        W74483  33.451  14.780   1.811
 6266W        W74484  28.680   7.748  10.774
 6267W        W74485   4.303   0.014   3.195
 6268W        W74486  34.709   7.494   4.545
 6269W        W74487  20.408  31.248   4.446
 6270W        W74488  37.462  41.484  11.183
 6271W        W74489  19.091  27.204  11.700
 6272W        W74490  30.268  17.460  11.235
 6273W        W74491  19.735  12.026  12.138
 6274W        W74492  10.880  43.233  12.435
 6275W        W74493  29.988  36.888  10.866
 6276W        W74494  10.716  43.019  14.457
 6277W        W74495  42.792  21.522  10.858
 6278W        W74496  15.901   6.767   0.319
 6279W        W74497   0.957  12.172  10.738
 6280W        W74498  35.166   1.249  10.663
 6281W        W74499  15.864  22.135   2.411
 6282W        W74500  43.366  30.145   3.894
 6283W        W74501   8.135  10.254   1.432
 6284W        W74502   6.891  25.370   2.951
 6285W        W74503  22.425  19.048   2.774
 6286W        W74504   3.950   3.550   3.710
 6287W        W74505   3.963  41.034   0.431
 6288W        W74506  16.786  13.372  11.301
 6289W        W74507  39.405  27.418  13.867
 6290W        W74508  42.934  26.698  12.211
 6291W        W74509   3.690  42.417   0.446
 6292W        W74510  41.470   6.217   4.603
 6293W        W74511   5.802  40.418   4.998
 6294W        W74512   6.142  37.126   1.329
 6295W        W74513   4.708  44.086  14.459
 6296W        W74514  11.741  43.455   2.721
 6297W        W74515  39.589   5.843  12.933
 6298W        W74516  40.418  37.538   2.456
 6299W        W74517  35.526  25.930   0.799
 6300W        W74518  39.628  41.990  12.021
 6301W        W74519   7.429   0.153   1.004
 6302W        W74520  19.680  34.822   4.805
 6303W        W74521  42.326  15.570   2.093
 6304W        W74522  36.526   4.248   4.658
 6305W        W74523   1.128  32.238   2.366
 6306W        W74524  33.521  39.041   3.265
 6307W        W74525  33.853  13.925   3.618
 6308W        W74526  15.257  40.802  12.676
 6309W        W74527   4.314  36.959  10.633
 6310W        W74528  32.153   5.888   9.875
 6311W        W74529   5.633  43.583  12.883
 6312W        W74530   3.738  23.257  12.297
 6313W        W74531  39.821  39.839   0.580
 6314W        W74532  41.281  38.383  11.160
 6315W        W74533  19.654  39.794  13.571
 6316W        W74534  35.400  42.788   4.804
 6317W        W74535  28.974   2.319   0.948
 6318W        W74536  29.710  24.357  11.754
 6319W        W74537  42.001   0.691   4.445
 6320W        W74538  21.061  28.579   0.228
 6321W        W74539  38.298  15.544   2.839
 6322W        W74540  42.432  44.810   1.477
 6323W        W74541  36.394  29.043   3.282
 6324W        W74542  44.301  34.416   3.882
 6325W        W74543  17.904  31.664  12.937
 6326W        W74544  38.888  16.148  12.646
 6327W        W74545  29.658  38.996   2.401
 6328W        W74546  35.607   4.489   0.967
 6329W        W74547  37.932  29.037   2.371
 6330W        W74548   8.130   3.320   1.976
 6331W        W74549  28.810   7.352   2.210
 6332W        W74550  37.846  22.075  11.218
 6333W        W74551  21.574   5.368   1.120
 6334W        W74552  32.291  34.686   4.133
 6335W        W74553  37.805  30.961   4.574
 6336W        W74554   8.113  29.590  14.524
 6337W        W74555  15.895  12.984  11.552
 6338W        W74556   7.354  37.340   3.777
 6339W        W74557   4.784  36.930  11.982
 6340W        W74558  25.652   1.701   1.218
 6341W        W74559  43.400  20.099  10.414
 6342W        W74560  18.466   4.802  12.014
 6343W        W74561  13.913  13.224   0.036
 6344W        W74562   2.675   4.790  11.142
 6345W        W74563  19.941  12.280   1.788
 6346W        W74564  42.756  15.124   1.813
 6347W        W74565  41.014  11.322  13.007
 6348W        W74566  18.631  30.397  12.592
 6349W        W74567   5.253  42.468  14.767
 6350W        W74568  40.261  37.646  14.157
 6351W        W74569  14.317  20.210  14.465
 6352W        W74570  21.816  26.038   3.243
 6353W        W74571  26.917  29.959   2.804
 6354W        W74572  22.980  37.554  14.756
 6355W        W74573  41.770  12.285   3.687
 6356W        W74574  14.481  27.072  10.620
 6357W        W74575  40.579   5.444  12.115
 6358W        W74576   4.761  28.659   0.363
 6359W        W74577  36.132  17.074   3.194
 6360W        W74578  44.571  37.385   3.269
 6361W        W74579  30.900  37.312  11.221
 6362W        W74580  20.084  22.078   4.446
 6363W        W74581  30.155   3.100  10.425
 6364W        W74582  17.224   2.666   3.177
 6365W        W74583  41.955  33.444   0.951
 6366W        W74584  44.329  43.421  10.959
 6367W        W74585   6.640  19.940  12.896
 6368W        W74586  41.972  24.887   2.659
 6369W        W74587  31.423  33.958   2.314
 6370W        W74588  41.923  33.568  11.679
 6371W        W74589  34.960  16.720   2.341
 6372W        W74590   0.950  30.127  13.968
 6373W        W74591  21.757  16.658  10.469
 6374W        W74592  31.275  24.279   3.280
 6375W        W74593  35.425  22.512   4.773
 6376W        W74594  42.398   0.666  14.695
 6377W        W74595  29.215  32.447   3.187
 6378W        W74596  42.802  18.291  11.621
 6379W        W74597  37.983  35.079   3.349
 6380W        W74598  10.231  16.153   1.220
 6381W        W74599  14.129  40.230   3.723
 6382W        W74600  36.224   8.185   4.076
 6383W        W74601  27.120   1.445  13.895
 6384W        W74602  21.032  19.626   1.752
 6385W        W74603  24.544   6.719   2.439
 6386W        W74604   1.529  14.915  13.074
 6387W        W74605  30.585  16.759   3.646
 6388W        W74606   2.863  13.254  11.618
 6389W        W74607  21.539   2.571  12.433
 6390W        W74608  16.198  23.942  12.937
 6391W        W74609  20.043  20.806  12.992
 6392W        W74610  18.066  16.130  12.458
 6393W        W74611  41.843  33.161   4.636
 6394W        W74612  15.616  11.178  13.912
 6395W        W74613  41.905  39.886   0.320
 6396W        W74614   1.211  17.715  12.860
 6397W        W74615  26.497  25.431   2.762
 6398W        W74616   5.184   1.642   3.220
 6399W        W74617  29.736  40.756   2.745
 6400W        W74618  30.069  25.178  11.697
 6401W        W74619  20.565  11.698   1.738
 6402W        W74620  33.118  35.221  12.567
 6403W        W74621  29.917  14.648  11.571
 6404W        W74622  29.405   1.392  13.996
 6405W        W74623   9.031  21.171  11.390
 6406W        W74624  16.327   3.173   0.311
 6407W        W74625  43.427  21.763  14.803
 6408W        W74626   6.381  41.624  11.919
 6409W        W74627  11.930  22.450   1.434
 6410W        W74628  31.813  37.534   4.565
 6411W        W74629  10.289  31.402  11.187
 6412W        W74630  38.614  35.521  14.425
 6413W        W74631  13.572  25.281   3.337
 6414W        W74632  13.813  27.547   0.226
 6415W        W74633  43.269  44.081   1.802
 6416W        W74634   3.442  14.086  12.905
 6417W        W74635   9.119  17.979   1.722
 6418W        W74636  22.562  37.186   4.919
 6419W        W74637  34.067   0.236  11.608
 6420W        W74638  31.478  27.138  13.000
 6421W        W74639  29.924  39.248  12.313
 6422W        W74640   7.722  22.619   1.441
 6423W        W74641  24.843  24.501   2.907
 6424W        W74642  40.940  16.743   1.186
 6425W        W74643   5.794  14.320   1.933
 6426W        W74644  43.681  15.257  14.534
 6427W        W74645  17.706  19.042   3.621
 6428W        W74646  15.788  34.332  10.853
 6429W        W74647  37.031  17.213  11.560
 6430W        W74648  13.733  11.597  14.944
 6431W        W74649  29.087  27.604   2.453
 6432W        W74650   3.911   4.479  14.880
 6433W        W74651  42.124  33.603   4.578
 6434W        W74652  41.826  28.513   2.726
 6435W        W74653  29.046  35.313  11.609
 6436W        W74654  44.940  44.831   3.160
 6437W        W74655  21.740  43.206   4.567
 6438W        W74656  12.553   6.608  13.930
 6439W        W74657   5.170   0.780   3.247
 6440W        W74658  26.585  14.709   3.530
 6441W        W74659  28.965  21.165  13.840
 6442W        W74660  18.700  28.490   3.315
 6443W        W74661  15.101  16.806  14.273
 6444W        W74662  22.962  10.016   3.616
 6445W        W74663  30.421  43.058   1.366
 6446W        W74664  11.790  18.228   1.419
 6447W        W74665   5.049  25.127   0.097
 6448W        W74666  27.770  31.502  11.111
 6449W        W74667  23.029  22.050  13.950
 6450W        W74668  35.120  28.703   3.198
 6451W        W74669  44.414  13.027  13.589
 6452W        W74670  36.033  31.695  12.713
 6453W        W74671  37.393  24.781   3.697
 6454W        W74672  21.229   6.949  11.524
 6455W        W74673   1.253  14.352   2.345
 6456W        W74674  25.196  25.641   3.131
 6457W        W74675  16.143  42.420   5.498
 6458W        W74676  36.558   0.513   0.005
 6459W        W74677   2.200  36.114  13.001
 6460W        W74678  23.322  10.572  14.198
 6461W        W74679  39.899  13.809   4.807
 6462W        W74680  39.352  15.754   2.594
 6463W        W74681  20.601   9.445   1.325
 6464W        W74682  37.470  34.432   3.670
 6465W        W74683  33.114  41.735   2.726
 6466W        W74684   1.626  39.324  12.921
 6467W        W74685  13.276  28.635  11.557
 6468W        W74686  16.601   1.663   3.644
 6469W        W74687  40.551  37.608   4.583
 6470W        W74688  43.160  10.295  11.997
 6471W        W74689  22.812  38.831   4.060
 6472W        W74690  13.606  44.293  13.437
 6473W        W74691  44.434  13.626  13.093
 6474W        W74692  40.269  32.989  14.790
 6475W        W74693  37.140  14.667   1.437
 6476W        W74694  25.912   0.338   1.775
 6477W        W74695  22.618   5.554  13.932
 6478W        W74696  32.904  29.983   1.213
 6479W        W74697  23.530  29.532   3.717
 6480W        W74698  16.594  44.265  13.999
 6481W        W74699  28.453  30.480   4.077
 6482W        W74700  34.005  26.710   3.213
 6483W        W74701  29.570   4.332   2.219
 6484W        W74702  18.531  12.624  12.378
 6485W        W74703   0.160  19.455   5.202
 6486W        W74704  11.857   1.996  13.900
 6487W        W74705  29.661  29.849  10.688
 6488W        W74706  37.386  43.954  10.812
 6489W        W74707   8.466  13.404  10.731
 6490W        W74708  29.924   9.782  11.132
 6491W        W74709  30.939  20.756   4.211
 6492W        W74710  13.549  34.559  13.320
 6493W        W74711  15.636  41.827   0.905
 6494W        W74712  33.421  12.423   0.395
 6495W        W74713  29.212  33.579   1.702
 6496W        W74714  28.749   4.710   0.983
 6497W        W74715  22.971   0.793  10.253
 6498W        W74716  32.004  11.977  13.457
 6499W        W74717   8.907  42.083   5.019
 6500W        W74718  17.827  39.470  11.562
 6501W        W74719  26.429  26.144  12.938
 6502W        W74720   4.150  16.632  10.802
 6503W        W74721  31.959  30.037  12.439
 6504W        W74722  43.530  27.208   3.024
 6505W        W74723  27.509  35.400  14.923
 6506W        W74724  28.546  28.034   2.420
 6507W        W74725  22.588  24.208  11.990
 6508W        W74726  44.250  28.631   0.536
 6509W        W74727  27.705  42.811   2.440
 6510W        W74728  27.924  19.337  10.371
 6511W        W74729  44.279  10.661  13.963
 6512W        W74730  14.648   8.999   1.449
 6513W        W74731  44.555  24.456   1.005
 6514W        W74732  20.204   1.690  13.113
 6515W        W74733  26.758  18.605   4.212
 6516W        W74734  10.815  15.334   0.850
 6517W        W74735   0.767  16.409  12.617
 6518W        W74736  25.334  31.307   2.704
 6519W        W74737   5.704  36.676   0.287
 6520W        W74738  23.952   8.188   0.907
 6521W        W74739  21.499  11.411  11.158
 6522W        W74740  24.469   9.591  11.153
 6523W        W74741  10.680  39.779  11.243
 6524W        W74742  22.851  11.187   1.009
 6525W        W74743  18.291  34.683   4.604
 6526W        W74744  44.019  25.088  12.944
 6527W        W74745  23.925  20.272   4.889
 6528W        W74746  33.055  10.576  11.270
 6529W        W74747   0.626   2.516   2.326
 6530W        W74748  12.080  14.155  10.959
 6531W        W74749  26.998  12.473   0.234
 6532W        W74750  35.619  30.508  10.598
 6533W        W74751  33.172   7.162   4.540
 6534W        W74752  20.991  17.561   2.028
 6535W        W74753  42.496   6.895  11.139
 6536W        W74754   0.571  30.831   2.963
 6537W        W74755  36.831  27.279   1.279
 6538W        W74756  10.942  26.477   2.630
 6539W        W74757  41.139  20.622   2.731
 6540W        W74758  28.135  16.230   4.964
 6541W        W74759  39.834  30.858  10.664
 6542W        W74760  24.530  39.693   0.523
 6543W        W74761  36.339  33.346  12.344
 6544W        W74762  23.218  34.825   3.557
 6545W        W74763   3.526  39.511  13.960
 6546W        W74764  43.399  16.106   2.776
 6547W        W74765  21.198  39.490  11.982
 6548W        W74766  13.848  27.236   2.834
 6549W        W74767  44.371  28.094  10.749
 6550W        W74768  32.529   9.596  12.515
 6551W        W74769  37.986  35.348   2.378
 6552W        W74770   8.839  19.573  12.122
 6553W        W74771  26.083   6.755   1.695
 6554W        W74772   9.260   7.866   2.888
 6555W        W74773   1.506  24.006  11.186
 6556W        W74774  16.167  18.126   1.728
 6557W        W74775  22.141   4.316  14.197
 6558W        W74776   1.808   7.619   2.243
 6559W        W74777   3.803  22.469   3.868
 6560W        W74778  35.093  38.427  13.851
 6561W        W74779   5.714   9.208  12.421
 6562W        W74780  16.222   1.903   4.279
 6563W        W74781  18.549   3.412   5.174
 6564W        W74782  24.285  13.523  11.918
 6565W        W74783  41.756   5.346  14.001
 6566W        W74784  33.447  12.227   1.434
 6567W        W74785  29.593  12.828   3.240
 6568W        W74786  12.148   8.311   0.909
 6569W        W74787  44.009  21.152   1.704
 6570W        W74788  31.549  39.027  13.887
 6571W        W74789  38.787  36.858  13.532
 6572W        W74790  11.584   0.622  13.438
 6573W        W74791  29.075  15.188   2.829
 6574W        W74792  10.113  10.818  11.981
 6575W        W74793  42.854  31.753   0.454
 6576W        W74794   7.311  22.768  11.516
 6577W        W74795   6.117  24.130   2.682
 6578W        W74796  12.526  29.003   3.521
 6579W        W74797   5.091  19.754  11.135
 6580W        W74798  33.546  30.823  12.366
 6581W        W74799  11.393  36.141   3.740
 6582W        W74800   8.943  28.441   0.790
 6583W        W74801  30.434  33.130   0.286
 6584W        W74802   1.889  18.277  12.495
 6585W        W74803  13.161  29.063   4.995
 6586W        W74804  44.831  43.225   0.385
 6587W        W74805   2.878  23.610  10.695
 6588W        W74806  35.428  16.181  12.405
 6589W        W74807  17.434  33.138  13.943
 6590W        W74808  16.217  19.821  13.975
 6591W        W74809  10.240  25.570   3.644
 6592W        W74810  22.566   6.945   3.704
 6593W        W74811  26.385  40.728  11.092
 6594W        W74812   4.409  19.822  11.636
 6595W        W74813  34.035   1.016   0.985
 6596W        W74814  30.312  35.937  13.866
 6597W        W74815  13.135   5.424  12.839
 6598W        W74816  38.958  34.606   1.192
 6599W        W74817   9.000  33.369   0.416
 6600W        W74818  11.215  38.277  14.258
 6601W        W74819  21.006  40.730   2.775
 6602W        W74820  12.798  28.184  12.974
 6603W        W74821   6.842  39.859   0.166
 6604W        W74822  32.829  19.512  13.018
 6605W        W74823  43.549   1.516  10.760
 6606W        W74824   5.383  37.350   4.965
 6607W        W74825  19.255  33.208   4.078
 6608W        W74826  10.192  37.290  14.756
 6609W        W74827  40.347   6.420  12.052
 6610W        W74828   8.900  40.880  12.581
 6611W        W74829  26.164  17.779  11.384
 6612W        W74830  14.772  38.599   1.453
 6613W        W74831  30.118  39.944  13.010
 6614W        W74832  18.341  38.105   0.764
 6615W        W74833  10.179  36.948   0.162
 6616W        W74834  40.534  18.704  12.420
 6617W        W74835  44.995  38.117  11.215
 6618W        W74836  12.281   6.291   1.177
 6619W        W74837  40.683   6.483  10.706
 6620W        W74838  40.470   9.136  14.438
 6621W        W74839  21.004  42.966  14.464
 6622W        W74840  44.884  26.368  10.103
 6623W        W74841  18.105  23.358  14.486
 6624W        W74842  18.043  17.177   3.207
 6625W        W74843  19.175  25.171  14.802
 6626W        W74844  26.006  42.873   2.925
 6627W        W74845  44.947   9.627  14.462
 6628W        W74846  31.876  41.306  10.998
 6629W        W74847  35.162  14.199   2.854
 6630W        W74848  44.792   9.279  11.745
 6631W        W74849  16.038  27.774   0.051
 6632W        W74850  35.379   0.937  13.583
 6633W        W74851  40.943  15.875  14.255
 6634W        W74852  13.801  42.336   3.447
 6635W        W74853  30.046  16.884   0.177
 6636W        W74854   9.765  24.430   3.833
 6637W        W74855  12.217  29.755   0.160
 6638W        W74856  43.825   3.286  13.464
 6639W        W74857  43.802  36.702   2.614
 6640W        W74858   6.839  44.510  14.352
 6641W        W74859  21.272  15.678  12.494
 6642W        W74860   7.874  17.714  11.881
 6643W        W74861  39.365  16.702  12.824
 6644W        W74862  12.036  27.938   0.402
 6645W        W74863  27.690  24.171   2.349
 6646W        W74864  22.218   9.658   0.721
 6647W        W74865   6.414  25.595   2.223
 6648W        W74866  43.920  43.877   4.381
 6649W        W74867   8.813  23.640  12.487
 6650W        W74868  41.766  16.741   3.206
 6651W        W74869  19.251   5.892  12.882
 6652W        W74870  21.470  22.649  10.980
 6653W        W74871  44.307  12.172  13.552
 6654W        W74872  15.066  33.589  10.776
 6655W        W74873   7.719  43.734   0.731
 6656W        W74874   3.886  33.566   3.734
 6657W        W74875   4.281  36.149   2.766
 6658W        W74876  18.344   5.013  10.687
 6659W        W74877  13.704   0.490   3.950
 6660W        W74878  22.359  42.204   3.432
 6661W        W74879  33.080  40.507  13.574
 6662W        W74880  40.256   7.887   1.839
 6663W        W74881  31.489  35.478   3.379
 6664W        W74882  24.701  39.995   0.941
 6665W        W74883  36.513  37.097   2.128
 6666W        W74884  42.276  41.332   1.649
 6667W        W74885   1.394  43.917   3.566
 6668W        W74886  15.720  27.623   0.916
 6669W        W74887   0.313  30.177   3.075
 6670W        W74888  17.176  37.921   3.824
 6671W        W74889  36.884  25.624  13.198
 6672W        W74890  31.392  36.594   3.273
 6673W        W74891  19.465   8.204   3.050
 6674W        W74892  25.914  14.090   5.295
 6675W        W74893  43.468  27.357   0.204
 6676W        W74894   8.812  34.858   2.921
 6677W        W74895   5.733   7.007  13.503
 6678W        W74896  36.322   3.588  10.247
 6679W        W74897   1.812  21.548   1.379
 6680W        W74898  17.627  36.563  13.339
 6681W        W74899   5.306  44.720  13.294
 6682W        W74900  33.976  22.236  14.466
 6683W        W74901   2.032  35.148   2.281
 6684W        W74902  36.399  39.003  12.388
 6685W        W74903   1.297  13.874  12.866
 6686W        W74904   6.882  36.887  14.950
 6687W        W74905  19.126  19.013   4.947
 6688W        W74906  18.726  12.781  13.286
 6689W        W74907  14.861  33.008   1.744
 6690W        W74908  35.524  28.880   0.779
 6691W        W74909  33.504  43.427  13.591
 6692W        W74910  19.342  25.223  14.283
 6693W        W74911  11.212  11.069  12.831
 6694W        W74912  16.870  39.337   9.869
 6695W        W74913  17.516  13.132  10.620
 6696W        W74914  15.115  22.568   2.141
 6697W        W74915  18.593  35.639  14.380
 6698W        W74916  36.824   1.525   1.920
 6699W        W74917  29.333   4.128   3.200
 6700W        W74918  12.556  34.569  13.570
 6701W        W74919   6.470   6.256  11.253
 6702W        W74920  11.868  31.881  12.715
 6703W        W74921  29.819  19.161   3.401
 6704W        W74922  13.245  34.253   2.122
 6705W        W74923  13.763  25.244   0.751
 6706W        W74924   6.304  13.631  12.009
 6707W        W74925  37.909  28.552  14.772
 6708W        W74926   3.378   3.343  14.455
 6709W        W74927  43.358  40.859  14.475
 6710W        W74928  28.974  21.311  11.982
 6711W        W74929  21.230  13.550  14.454
 6712W        W74930   6.922  42.532   1.384
 6713W        W74931   7.166  37.844   4.560
 6714W        W74932  23.218   6.891   1.660
 6715W        W74933  40.549   0.945  13.184
 6716W        W74934   5.153  25.165  13.013
 6717W        W74935  25.391  18.185   0.872
 6718W        W74936   4.807  13.680   2.105
 6719W        W74937  16.789  13.441   0.511
 6720W        W74938  20.764  15.652  12.561
 6721W        W74939   4.236  28.939   2.384
 6722W        W74940  40.049  32.565   4.548
 6723W        W74941  25.726   0.422  12.139
 6724W        W74942  27.320  28.121   3.150
 6725W        W74943  33.564  42.732  12.971
 6726W        W74944  18.823  15.440   4.285
 6727W        W74945  42.986  26.114   0.480
 6728W        W74946  11.765  18.905  12.622
 6729W        W74947  15.185   5.874  13.996
 6730W        W74948  41.224  32.057  11.174
 6731W        W74949   7.362  32.957  12.072
 6732W        W74950  32.525   8.673   0.354
 6733W        W74951  14.619  10.224  11.526
 6734W        W74952  32.118  13.315   0.788
 6735W        W74953  44.224   6.130   4.534
 6736W        W74954   0.509  38.976   4.979
 6737W        W74955  41.588  39.948   4.263
 6738W        W74956   7.935  23.078   2.759
 6739W        W74957  16.267  34.897  13.861
 6740W        W74958   0.048  33.850  11.594
 6741W        W74959  11.403  30.537  12.780
 6742W        W74960   2.154  14.121   2.252
 6743W        W74961  44.712  36.868  11.674
 6744W        W74962  43.923  19.405  11.415
 6745W        W74963  17.967  22.218  12.155
 6746W        W74964  40.495  23.848   0.822
 6747W        W74965  10.473  26.548   1.264
 6748W        W74966  24.326  32.678  11.961
 6749W        W74967  44.700  44.496  14.847
 6750W        W74968  38.820  36.810  11.007
 6751W        W74969  30.146   0.841  14.946
 6752W        W74970  21.350  43.301   2.529
 6753W        W74971  26.393  30.919  13.427
 6754W        W74972  11.905  10.571   0.261
 6755W        W74973   8.725  31.770  14.327
 6756W        W74974  30.601  21.362   4.886
 6757W        W74975  38.320   7.185  14.238
 6758W        W74976  41.761   9.170  14.781
 6759W        W74977  41.513   5.471  10.684
 6760W        W74978  20.428  14.110   0.221
 6761W        W74979  32.698  29.128   1.812
 6762W        W74980  44.884  10.815  11.934
 6763W        W74981  33.338  32.743   4.224
 6764W        W74982  23.648  32.805   0.503
 6765W        W74983  23.655   1.273  11.503
 6766W        W74984  22.132  39.388  13.503
 6767W        W74985  23.025   0.057  13.499
 6768W        W74986   3.203  21.274   2.192
 6769W        W74987  17.882  18.461   4.880
 6770W        W74988  36.404  41.243   9.730
 6771W        W74989  18.525  24.621  12.125
 6772W        W74990  34.666  36.717  11.843
 6773W        W74991  17.560  25.459   3.368
 6774W        W74992  14.329  41.538   1.820
 6775W        W74993   9.528   3.200   4.163
 6776W        W74994  24.103  27.041  13.979
 6777W        W74995  41.642  24.500  10.987
 6778W        W74996  43.776  35.353  12.621
 6779W        W74997  36.909  25.578  13.701
 6780W        W74998  32.952  15.340  12.666
 6781W        W74999  32.869  29.056  11.183
 6782W        W75000  25.912  15.143   3.962
 6783W        W75001  12.142  22.302   2.721
 6784W        W75002   1.164   5.807  13.081
 6785W        W75003  37.947   4.940   1.433
 6786W        W75004  32.897   9.571   1.178
 6787W        W75005  43.994  37.197   4.461
 6788W        W75006   4.631  38.776  10.434
 6789W        W75007  23.352   0.343  13.138
 6790W        W75008  26.968   3.215  12.519
 6791W        W75009   5.046  30.503   1.104
 6792W        W75010   0.208   5.477  14.371
 6793W        W75011  30.732  23.029  12.203
 6794W        W75012  37.146  15.760  12.437
 6795W        W75013  35.553  40.732   0.808
 6796W        W75014  31.837  21.066   1.784
 6797W        W75015  26.897  27.161  13.540
 6798W        W75016   0.097  38.582   3.807
 6799W        W75017  23.649   7.301  11.923
 6800W        W75018   1.411  10.405  12.392
 6801W        W75019   4.106   6.566  13.505
 6802W        W75020   6.199  29.020  10.732
 6803W        W75021  19.850  20.281   4.472
 6804W        W75022   8.669   6.813  13.433
 6805W        W75023   0.032  26.844  11.634
 6806W        W75024  41.568  13.354   2.918
 6807W        W75025  37.470   0.658   0.863
 6808W        W75026  20.464  33.083  11.589
 6809W        W75027  17.039  31.106   3.605
 6810W        W75028  34.991  39.019  13.773
 6811W        W75029  31.678   0.925   0.380
 6812W        W75030   0.585  19.446   4.922
 6813W        W75031  10.425  14.844   1.884
 6814W        W75032  39.869  32.182  11.258
 6815W        W75033   0.862  27.190  14.344
 6816W        W75034   7.190  35.862   1.012
 6817W        W75035   1.763  17.471   1.449
 6818W        W75036  22.135  37.861  10.781
 6819W        W75037  17.189  25.937   2.847
 6820W        W75038  27.431  26.576   0.068
 6821W        W75039  25.517  30.236  14.008
 6822W        W75040  21.260  37.467   3.136
 6823W        W75041  15.224  27.431  10.332
 6824W        W75042  16.577  37.999  10.639
 6825W        W75043  16.206  35.449   2.927
 6826W        W75044  39.300  11.351  10.932
 6827W        W75045   9.803  18.288   0.432
 6828W        W75046   7.580  16.680  12.519
 6829W        W75047  13.689  41.048  13.960
 6830W        W75048  26.223  30.183   0.329
 6831W        W75049  34.903  26.404   1.168
 6832W        W75050  42.934  34.105  14.749
 6833W        W75051  44.476   0.921   3.213
 6834W        W75052  13.111  14.584  13.880
 6835W        W75053  39.851  29.954  14.517
 6836W        W75054  21.038  41.930   3.810
 6837W        W75055  19.200  10.327  14.844
 6838W        W75056  42.647  11.776  13.764
 6839W        W75057  16.140  33.357   0.817
 6840W        W75058  31.710  26.984  12.549
 6841W        W75059  44.998   0.281  12.656
 6842W        W75060  31.575   8.690   3.832
 6843W        W75061  37.452  17.820  13.049
 6844W        W75062   0.109  12.086   4.097
 6845W        W75063  32.950  38.505  14.207
 6846W        W75064  41.929   2.847   2.494
 6847W        W75065   9.348  44.003   0.208
 6848W        W75066  12.574   4.084   4.333
 6849W        W75067   4.204  28.051   3.331
 6850W        W75068  36.175  17.320  12.055
 6851W        W75069  37.728   9.551   1.776
 6852W        W75070  30.419  30.634  11.448
 6853W        W75071  36.259  15.648  12.584
 6854W        W75072  25.956  43.257   3.296
 6855W        W75073  12.850  34.923  13.841
 6856W        W75074  17.853  27.620  13.045
 6857W        W75075  23.174  18.967  11.301
 6858W        W75076   2.944   0.334  13.793
 6859W        W75077   3.673  26.485  12.841
 6860W        W75078   4.451  27.679   2.222
 6861W        W75079   2.060  44.994  14.965
 6862W        W75080  20.110  32.120   3.301
 6863W        W75081  20.243  33.108   3.307
 6864W        W75082  30.744  34.119   3.284
 6865W        W75083  37.000  36.006  12.181
 6866W        W75084  38.017   3.331   1.978
 6867W        W75085  35.051   5.235   3.212
 6868W        W75086  31.625  38.824  12.491
 6869W        W75087  27.534  18.371  11.682
 6870W        W75088   9.230   7.948   3.410
 6871W        W75089   7.656  26.437  10.679
 6872W        W75090  13.684  12.112  14.899
 6873W        W75091  10.562  19.004   2.812
 6874W        W75092  29.180  21.218   4.093
 6875W        W75093  32.042  41.776  10.667
 6876W        W75094  37.125   5.948  12.898
 6877W        W75095  39.435  41.337   4.171
 6878W        W75096  23.570   2.782   1.809
 6879W        W75097   5.898  26.660  11.648
 6880W        W75098  43.499   9.795   2.208
 6881W        W75099  35.847  22.769   3.582
 6882W        W75100  37.544   8.884  13.339
 6883W        W75101  35.913   6.801  12.620
 6884W        W75102   8.276  31.413   4.320
 6885W        W75103   0.135  39.846  13.329
 6886W        W75104   4.424   1.876  12.097
 6887W        W75105  38.044  14.699   3.417
 6888W        W75106  37.838  37.840   1.685
 6889W        W75107  23.405   7.396   2.470
 6890W        W75108  30.272   8.193  10.750
 6891W        W75109  33.043  14.724  11.975
 6892W        W75110  25.177  15.714   0.268
 6893W        W75111  28.504  15.999  13.486
 6894W        W75112  26.070  26.894  11.067
 6895W        W75113   2.258  36.613   0.284
 6896W        W75114  30.038  15.629  10.867
 6897W        W75115  28.350  29.070  14.256
 6898W        W75116  36.724   0.208   1.738
 6899W        W75117  25.371   4.915  11.458
 6900W        W75118  27.908  28.965   4.550
 6901W        W75119  26.475  21.286  13.038
 6902W        W75120  42.848  27.409  13.379
 6903W        W75121   5.756  19.609   4.356
 6904W        W75122  41.250  40.591   1.712
 6905W        W75123  42.795  13.410  13.789
 6906W        W75124  10.118  39.972   4.170
 6907W        W75125  22.759  40.276  11.901
 6908W        W75126  28.484   3.336  13.325
 6909W        W75127   1.184  27.051  11.227
 6910W        W75128  16.324  37.259   3.142
 6911W        W75129  28.763   9.256   0.639
 6912W        W75130  25.109   0.176   2.270
 6913W        W75131  36.878   1.473  14.845
 6914W        W75132   4.506  10.312  10.007
 6915W        W75133  24.677  35.611  14.910
 6916W        W75134   3.494  15.089  13.069
 6917W        W75135  24.753  12.903  11.089
 6918W        W75136   0.842   2.296  13.984
 6919W        W75137  12.109  35.021   2.012
 6920W        W75138  10.095  35.374   1.255
 6921W        W75139  27.019   7.207  10.744
 6922W        W75140  38.250  26.546   2.385
 6923W        W75141  38.595  29.257  13.558
 6924W        W75142  13.097  29.156  10.320
 6925W        W75143  20.687  28.110   4.357
 6926W        W75144  11.359  43.581  10.014
 6927W        W75145  43.429   7.342   1.705
 6928W        W75146  19.070  20.998  14.504
 6929W        W75147  31.032  17.483  14.430
 6930W        W75148  30.337  39.559  11.451
 6931W        W75149  31.083   9.851  14.499
 6932W        W75150  14.548  16.738  14.975
 6933W        W75151   4.038   8.845   2.028
 6934W        W75152  10.174  18.346  13.059
 6935W        W75153  34.313   0.457  10.931
 6936W        W75154  28.965   3.972   5.037
 6937W        W75155  32.908  18.411  12.951
 6938W        W75156  18.775  37.124   2.756
 6939W        W75157   4.535  18.793   3.817
 6940W        W75158  40.327  44.002  11.939
 6941W        W75159   0.402  29.616   0.547
 6942W        W75160  23.863  37.971   4.364
 6943W        W75161  37.756  16.350  12.143
 6944W        W75162  21.565  19.888   1.331
 6945W        W75163  34.602   5.424  11.438
 6946W        W75164  32.994  42.034   0.215
 6947W        W75165  11.808  33.153   2.286
 6948W        W75166  28.271  31.628  11.154
 6949W        W75167  15.325   5.939  13.143
 6950W        W75168  26.217  19.067  11.166
 6951W        W75169  24.166  11.295   0.617
 6952W        W75170   6.340   0.233   3.060
 6953W        W75171  32.981  40.344  12.630
 6954W        W75172  16.597   9.410  13.469
 6955W        W75173  35.109   9.259  12.471
 6956W        W75174  29.470  31.400   2.333
 6957W        W75175  34.541  20.441  13.715
 6958W        W75176  33.554  30.737  12.896
 6959W        W75177  13.404  43.308  14.787
 6960W        W75178  22.769  37.497   0.328
 6961W        W75179   7.258  22.143  14.904
 6962W        W75180  44.300   0.844   1.466
 6963W        W75181  34.404  41.223  12.703
 6964W        W75182   8.298  10.360  11.573
 6965W        W75183  26.498  39.020  14.852
 6966W        W75184  44.346  31.255   1.518
 6967W        W75185   3.929  19.630  11.547
 6968W        W75186  24.780  36.807   2.388
 6969W        W75187  26.611  39.791  14.410
 6970W        W75188  33.927  18.348  14.047
 6971W        W75189  42.578  34.509   0.428
 6972W        W75190  39.975  22.443  14.616
 6973W        W75191  32.131  13.696   2.230
 6974W        W75192  25.686  43.780   0.655
 6975W        W75193  14.215  42.862  12.873
 6976W        W75194  33.561  18.049   3.674
 6977W        W75195  23.461  21.672   2.770
 6978W        W75196   5.231  11.060   3.694
 6979W        W75197  10.295  22.039   4.731
 6980W        W75198  40.776  37.470  11.163
 6981W        W75199  38.123  28.560   2.205
 6982W        W75200   3.741  29.551  14.939
 6983W        W75201  26.980  36.506   2.427
 6984W        W75202  11.143  14.225   3.675
 6985W        W75203  34.556  31.334   2.852
 6986W        W75204  42.149  30.759  14.304
 6987W        W75205  30.433  28.141  10.235
 6988W        W75206  14.297  41.535  14.767
 6989W        W75207  14.234  31.365   3.677
 6990W        W75208  32.285  26.139  11.527
 6991W        W75209  40.923  15.380   4.504
 6992W        W75210  14.036  28.970   1.653
 6993W        W75211  26.532  40.171  12.490
 6994W        W75212   2.987  18.065   2.996
 6995W        W75213  30.144   7.128  12.936
 6996W        W75214   3.369  32.948  11.987
 6997W        W75215  26.930  26.765  13.885
 6998W        W75216  27.662  38.974  11.720
 6999W        W75217   8.874   8.659   4.537
 7000W        W75218  21.234   4.661  14.270
 7001W        W75219  44.902  29.077  14.654
 7002W        W75220  15.612  16.864   4.021
 7003W        W75221  22.671  10.302   1.924
 7004W        W75222  37.306   9.766   4.031
 7005W        W75223  15.211  29.725   4.661
 7006W        W75224  22.554  11.594   1.196
 7007W        W75225  34.273  27.180   3.271
 7008W        W75226  26.205  19.198   2.147
 7009W        W75227  22.181  44.834  10.481
 7010W        W75228   0.388  23.923  12.870
 7011W        W75229  32.155  41.746  13.752
 7012W        W75230  10.749   6.497  12.072
 7013W        W75231   8.316   0.083   3.506
 7014W        W75232  42.056  39.763   4.422
 7015W        W75233  29.235  34.158   3.252
 7016W        W75234  24.836  39.777  12.043
 7017W        W75235  26.616   6.101   0.068
 7018W        W75236  38.501   3.449   0.413
 7019W        W75237   1.785  11.260   4.626
 7020W        W75238  44.881   3.399  11.874
 7021W        W75239  21.547   9.965   4.417
 7022W        W75240  13.230   4.641   3.739
 7023W        W75241  28.404  16.645   2.430
 7024W        W75242  10.433  30.488   4.195
 7025W        W75243  15.578  41.001  11.383
 7026W        W75244  35.586   7.010  12.978
 7027W        W75245  37.198   2.818  12.965
 7028W        W75246  44.509  21.270   0.817
 7029W        W75247  24.066  36.202   4.559
 7030W        W75248  25.661  28.389  11.128
 7031W        W75249  40.523  14.999   2.391
 7032W        W75250  14.593  10.737  10.725
 7033W        W75251  26.587  17.363   1.407
 7034W        W75252  10.392  40.917   2.270
 7035W        W75253   5.802  24.590   3.090
 7036W        W75254  29.642  31.933  12.981
 7037W        W75255  17.288  31.016  14.347
 7038W        W75256   6.371  44.006  11.721
 7039W        W75257  10.232  29.599   1.271
 7040W        W75258  23.957  12.541   1.790
 7041W        W75259  31.990  37.685  11.732
 7042W        W75260  43.193   6.881   1.570
 7043W        W75261  40.881  38.137  14.349
 7044W        W75262   0.231  33.049   0.029
 7045W        W75263  23.135  22.641   2.165
 7046W        W75264  19.101   7.926  11.457
 7047W        W75265  25.903  17.144   4.162
 7048W        W75266   0.413  14.323   3.600
 7049W        W75267  17.241   2.354   2.756
 7050W        W75268  23.060  17.895  14.191
 7051W        W75269  17.342  21.080  12.767
 7052W        W75270  20.625  22.018  14.429
 7053W        W75271  39.482  40.860   1.879
 7054W        W75272  21.671   6.912  14.365
 7055W        W75273  31.403  29.065  14.147
 7056W        W75274   6.322  16.180  13.928
 7057W        W75275  18.201  32.345   3.301
 7058W        W75276   3.644  24.788  13.419
 7059W        W75277  44.441  31.981   0.766
 7060W        W75278  43.105  22.483   0.585
 7061W        W75279  28.136  19.468   3.637
 7062W        W75280   3.791  24.604  12.496
 7063W        W75281  32.126   9.932  12.488
 7064W        W75282  44.741  41.485  12.972
 7065W        W75283  10.581  23.688   2.258
 7066W        W75284   5.729  26.127  12.937
 7067W        W75285  33.930  40.795   2.698
 7068W        W75286   7.609  17.282   3.659
 7069W        W75287  35.843  22.954  13.355
 7070W        W75288  21.610  29.926  13.146
 7071W        W75289  37.951  10.471   0.980
 7072W        W75290  43.860  36.192   2.436
 7073W        W75291  28.019   1.071   0.015
 7074W        W75292   0.716  11.812   2.275
 7075W        W75293   9.127   5.390   4.186
 7076W        W75294  23.717  27.981   0.429
 7077W        W75295  34.349  21.655   2.758
 7078W        W75296   2.027  43.000  13.859
 7079W        W75297  34.648   0.528   3.689
 7080W        W75298  27.133  33.855  10.936
 7081W        W75299   0.679   3.741  10.997
 7082W        W75300  10.743   3.704  12.851
 7083W        W75301  44.005   2.512   2.845
 7084W        W75302   6.850  34.973  12.145
 7085W        W75303   8.784  41.189  14.924
 7086W        W75304  16.609  32.858   4.634
 7087W        W75305  16.748  31.461   2.252
 7088W        W75306  43.854  29.022   1.354
 7089W        W75307  28.272  41.414   0.313
 7090W        W75308  12.122  22.701  12.587
 7091W        W75309   0.732  44.756   0.403
 7092W        W75310  14.883  32.645   4.524
 7093W        W75311  16.560  37.788  11.963
 7094W        W75312  33.856  30.122  13.840
 7095W        W75313  13.235  14.573  11.640
 7096W        W75314  30.434  38.787   4.602
 7097W        W75315  40.528  28.559   0.793
 7098W        W75316  12.689   5.223  12.641
 7099W        W75317  42.662  18.571  14.127
 7100W        W75318  25.571   6.574   4.683
 7101W        W75319  19.927  33.456   1.299
 7102W        W75320  25.705   3.712  11.992
 7103W        W75321   5.003   0.824   0.319
 7104W        W75322  44.911   1.623  10.702
 7105W        W75323  14.637   2.023  13.931
 7106W        W75324  15.324  43.383   2.092
 7107W        W75325  37.614  40.804   4.294
 7108W        W75326   1.660   9.719   3.245
 7109W        W75327  16.249   0.058   4.164
 7110W        W75328  42.285   2.276  13.956
 7111W        W75329   1.753  39.629   4.403
 7112W        W75330  12.697   2.976   1.919
 7113W        W75331  37.130  32.332  14.929
 7114W        W75332  22.894   7.890   5.008
 7115W        W75333  33.631  10.673   0.823
 7116W        W75334  37.378  35.323  11.637
 7117W        W75335   5.373  16.043  11.862
 7118W        W75336  13.726  40.337  12.015
 7119W        W75337  10.129  20.973  13.219
 7120W        W75338   9.766  22.719   4.027
 7121W        W75339  17.092  27.940  12.764
 7122W        W75340   6.878  20.944  10.731
 7123W        W75341   0.833  10.832  12.844
 7124W        W75342  32.948  39.855   0.687
 7125W        W75343   4.502  25.239   0.073
 7126W        W75344  10.868  13.560  11.173
 7127W        W75345  16.588   2.182   3.610
 7128W        W75346   9.610  10.676  12.495
 7129W        W75347  19.253  29.907   2.674
 7130W        W75348  10.182  36.935  10.507
 7131W        W75349  17.817  22.844   1.841
 7132W        W75350  20.858  11.563   0.362
 7133W        W75351   4.307  27.846  14.538
 7134W        W75352   1.119  33.408  12.454
 7135W        W75353  17.416  30.466   0.831
 7136W        W75354  26.874   4.240   3.142
 7137W        W75355   3.993  19.630   3.680
 7138W        W75356  37.537  43.367  13.779
 7139W        W75357   1.551   1.232  14.403
 7140W        W75358  13.365  19.375  11.639
 7141W        W75359  41.772   6.286  14.500
 7142W        W75360  11.914  26.965  10.408
 7143W        W75361  20.526  14.930  11.647
 7144W        W75362   6.357   8.590  11.098
 7145W        W75363  27.385  23.550  13.583
 7146W        W75364  23.548  27.960   3.092
 7147W        W75365   3.055  35.082  14.749
 7148W        W75366   6.773  39.234   5.721
 7149W        W75367  29.464  38.955   1.933
 7150W        W75368   9.811   8.041  10.516
 7151W        W75369  10.715  43.319  13.834
 7152W        W75370  17.626  34.410  10.409
 7153W        W75371  17.906  41.710  14.023
 7154W        W75372  35.398   8.530  11.452
 7155W        W75373  10.325   0.121   0.756
 7156W        W75374  28.711  42.352   2.257
 7157W        W75375  22.930   1.790  11.000
 7158W        W75376  41.946   6.450   3.668
 7159W        W75377  17.592   1.908  13.972
 7160W        W75378   4.681  29.442  13.700
 7161W        W75379  18.227  37.160   3.241
 7162W        W75380   7.894  25.110   5.011
 7163W        W75381  37.123  14.362   2.687
 7164W        W75382   9.745  37.649   1.393
 7165W        W75383  43.008  22.901  14.092
 7166W        W75384  21.275   8.787  11.186
 7167W        W75385  43.404  38.485  14.869
 7168W        W75386  15.613  30.974   2.368
 7169W        W75387   3.816  33.906  11.800
 7170W        W75388  44.188  31.387   3.168
 7171W        W75389  26.441   4.519  11.437
 7172W        W75390   0.320  33.390   2.645
 7173W        W75391  20.001  13.089  10.996
 7174W        W75392   4.309   6.700   3.120
 7175W        W75393  18.815  26.998   0.857
 7176W        W75394  15.114   0.529   2.876
 7177W        W75395  29.972  27.664   2.459
 7178W        W75396  36.034  15.267   0.876
 7179W        W75397  19.193  36.099  12.932
 7180W        W75398  12.684  43.261   0.275
 7181W        W75399  17.247  27.328   1.127
 7182W        W75400   7.184  21.068   3.155
 7183W        W75401   1.965   6.120   2.370
 7184W        W75402  16.590  19.936  13.029
 7185W        W75403  10.407  26.079  13.052
 7186W        W75404  14.170  29.125  11.633
 7187W        W75405  24.718  11.316  12.962
 7188W        W75406  12.826  33.576   0.556
 7189W        W75407  32.107  25.641  11.588
 7190W        W75408  31.599  31.513   0.488
 7191W        W75409  26.757  32.174  12.070
 7192W        W75410   4.053  38.396  14.329
 7193W        W75411  22.320   9.259   1.030
 7194W        W75412  19.182  17.108  12.960
 7195W        W75413  20.287  35.502  12.524
 7196W        W75414  13.323  26.968  13.005
 7197W        W75415  11.145  11.662  11.039
 7198W        W75416   4.750  10.823  13.932
 7199W        W75417  16.285  17.147  14.316
 7200W        W75418   8.796  44.083   1.539
 7201W        W75419  23.793  30.176  11.730
 7202W        W75420  10.492  11.048   0.702
 7203W        W75421  11.483  41.470   4.099
 7204W        W75422  14.073  10.427  11.082
 7205W        W75423  42.494  41.001   0.395
 7206W        W75424  42.451  30.675   0.831
 7207W        W75425  37.540  19.670  14.576
 7208W        W75426  31.367  25.268  11.196
 7209W        W75427  30.832   5.584  13.155
 7210W        W75428  30.617  34.943  12.913
 7211W        W75429  17.041  32.657  10.954
 7212W        W75430   7.410   0.683   1.019
 7213W        W75431  25.224  26.111  10.293
 7214W        W75432  10.740   9.869   4.648
 7215W        W75433  30.125  19.053  12.514
 7216W        W75434  22.721  38.236  14.271
 7217W        W75435   9.697  38.977  13.578
 7218W        W75436   1.766  38.903   1.738
 7219W        W75437  33.170  28.000  12.605
 7220W        W75438  44.382   7.124   4.178
 7221W        W75439  14.197  30.857  11.923
 7222W        W75440  27.512  39.716  11.536
 7223W        W75441  29.473  38.216   0.348
 7224W        W75442  35.812   1.459   1.892
 7225W        W75443  30.945  22.256  12.089
 7226W        W75444   3.796  38.978   2.799
 7227W        W75445  11.375  17.206   2.303
 7228W        W75446  14.017  24.779   3.614
 7229W        W75447  29.740   3.143  10.701
 7230W        W75448  41.770  25.099  13.534
 7231W        W75449  13.383  30.722   3.704
 7232W        W75450  43.916  41.626  11.903
 7233W        W75451  13.947  30.648  13.071
 7234W        W75452  10.279   6.239   0.932
 7235W        W75453  14.937   8.377  11.868
 7236W        W75454  13.094  10.345  12.481
 7237W        W75455  32.312  23.969  11.584
 7238W        W75456   2.294  37.559  12.871
 7239W        W75457  34.439  21.185   2.362
 7240W        W75458  27.925  11.094   2.293
 7241W        W75459  31.332  39.226  12.382
 7242W        W75460  23.092  31.065   4.120
 7243W        W75461  37.603  27.650  11.989
 7244W        W75462  31.546  41.785  11.945
 7245W        W75463  39.943  13.322   1.899
 7246W        W75464  18.329  13.118  13.473
 7247W        W75465  44.926  16.360   4.361
 7248W        W75466  37.443  15.661   3.114
 7249W        W75467  30.109  18.592  14.363
 7250W        W75468  39.311  30.013   0.824
 7251W        W75469  14.963  29.102   2.334
 7252W        W75470  39.855  39.401   4.031
 7253W        W75471  23.342  28.460   2.366
 7254W        W75472  10.808  17.542  11.162
 7255W        W75473   3.011  25.951  11.170
 7256W        W75474  16.771   1.706   4.132
 7257W        W75475  39.529  10.731  10.394
 7258W        W75476  11.617  10.921  13.551
 7259W        W75477  18.946  25.451  14.020
 7260W        W75478  28.225  34.767   2.350
 7261W        W75479  32.548  29.637  13.948
 7262W        W75480   7.801   8.614   4.161
 7263W        W75481  43.456  32.228  12.927
 7264W        W75482  35.204  23.029   1.745
 7265W        W75483  23.550  38.465   1.242
 7266W        W75484  14.120  37.580   2.607
 7267W        W75485  24.341  27.517  11.575
 7268W        W75486  11.491  35.787   1.030
 7269W        W75487  44.042   1.456  11.823
 7270W        W75488   2.988   7.242  13.581
 7271W        W75489  29.686  29.204   1.349
 7272W        W75490   6.379   7.598  12.033
 7273W        W75491  36.875  33.475   3.876
 7274W        W75492   5.686   8.657  10.771
 7275W        W75493  43.686  11.842   3.145
 7276W        W75494  31.702  22.622  10.824
 7277W        W75495  12.162  15.422   0.907
 7278W        W75496   9.043  22.065  11.420
 7279W        W75497  43.837  20.278  12.122
 7280W        W75498   5.343  23.690   0.031
 7281W        W75499  20.558   3.741   3.742
 7282W        W75500  32.200  22.949  13.501
 7283W        W75501  16.855  43.908   4.031
 7284W        W75502  24.427  17.883   0.575
 7285W        W75503  22.142   4.164  11.367
 7286W        W75504  13.444  32.344  11.499
 7287W        W75505  13.750  14.122   4.332
 7288W        W75506  44.119   9.795  14.797
 7289W        W75507  25.202  20.774   2.639
 7290W        W75508   5.929  24.165  12.391
 7291W        W75509  23.100  16.711  10.548
 7292W        W75510   0.236   4.799  14.884
 7293W        W75511   9.526   0.848   4.679
 7294W        W75512  16.530   9.797   2.904
 7295W        W75513  23.127   1.006  12.627
 7296W        W75514   8.370  11.012   4.423
 7297W        W75515  30.023  25.212   4.916
 7298W        W75516  26.098  21.990   3.575
 7299W        W75517  23.488  28.752  11.398
 7300W        W75518   8.881   4.356   3.606
 7301W        W75519   3.417  40.336   4.067
 7302W        W75520  17.891   5.784   1.812
 7303W        W75521   3.565   3.398  13.429
 7304W        W75522  33.998  38.519  10.951
 7305W        W75523   3.079  18.631  11.956
 7306W        W75524  13.098  35.945  10.785
 7307W        W75525  43.408  12.095  11.676
 7308W        W75526  35.622  42.035   0.467
 7309W        W75527   6.273  36.956  12.123
 7310W        W75528   1.003  37.033  12.517
 7311W        W75529  38.246   2.347  12.045
 7312W        W75530  40.038  15.203  14.922
 7313W        W75531  35.416  19.976  11.711
 7314W        W75532  42.428  17.530   2.136
 7315W        W75533  12.519  24.521  11.514
 7316W        W75534   0.369  15.547   4.638
 7317W        W75535  30.530  43.347  14.430
 7318W        W75536  25.817   3.960  12.915
 7319W        W75537   9.190  43.542  12.909
 7320W        W75538  36.882  32.741  11.647
 7321W        W75539   9.365   4.907   1.705
 7322W        W75540  37.590   6.818  12.964
 7323W        W75541  20.767  33.801   2.535
 7324W        W75542  37.509  35.449   0.059
 7325W        W75543  13.367  20.743  14.068
 7326W        W75544  26.053  32.846   2.158
 7327W        W75545  16.174  43.528  10.728
 7328W        W75546  18.915  20.041   4.636
 7329W        W75547  32.649  31.445   1.049
 7330W        W75548   2.189  19.624  13.937
 7331W        W75549   0.601  16.799   1.188
 7332W        W75550  36.251  35.098   1.393
 7333W        W75551   3.190  31.617  14.491
 7334W        W75552  10.898  28.439  12.930
 7335W        W75553  35.543  40.557  11.575
 7336W        W75554  27.239   6.194  12.451
 7337W        W75555  24.079   0.822  14.241
 7338W        W75556  14.269  24.062   3.275
 7339W        W75557  29.092   6.290   1.290
 7340W        W75558  28.973   1.280   3.533
 7341W        W75559  24.029  26.124  11.389
 7342W        W75560  16.694  31.938  10.713
 7343W        W75561  22.633   2.776   1.511
 7344W        W75562   1.827  18.526  12.956
 7345W        W75563  11.539  28.491   1.671
 7346W        W75564  11.303   5.867   3.667
 7347W        W75565  29.600  38.564   0.727
 7348W        W75566  27.216  25.249  10.652
 7349W        W75567  18.963   0.040  12.127
 7350W        W75568  44.573  21.703   2.814
 7351W        W75569  26.672  35.950  10.364
 7352W        W75570  29.992   9.193   2.403
 7353W        W75571  26.536  14.060   0.420
 7354W        W75572  18.973   0.480  12.381
 7355W        W75573  39.664   2.491   4.054
 7356W        W75574  12.772  37.300   1.799
 7357W        W75575  33.818   0.893  12.309
 7358W        W75576  27.071  15.041   2.660
 7359W        W75577   3.285  43.314  11.080
 7360W        W75578   3.323  44.672  14.570
 7361W        W75579  35.798  37.472  12.915
 7362W        W75580  12.711   1.221   0.865
 7363W        W75581   4.274  33.518  13.008
 7364W        W75582   1.870  32.039  11.269
 7365W        W75583  11.715  44.890   3.396
 7366W        W75584   0.274  17.706  10.763
 7367W        W75585  28.141  35.865   1.453
 7368W        W75586  32.838  39.137  11.298
 7369W        W75587   0.951   4.666  10.287
 7370W        W75588   3.478  25.073  12.465
 7371W        W75589  27.063  39.237   1.909
 7372W        W75590  41.788  14.836  10.940
 7373W        W75591  31.635  26.495   0.397
 7374W        W75592  11.848  21.163   0.469
 7375W        W75593   8.291  40.859  13.332
 7376W        W75594  36.451   7.665   2.157
 7377W        W75595  38.811  16.838   4.634
 7378W        W75596  25.713  20.022  11.111
 7379W        W75597  41.023   3.633  10.227
 7380W        W75598  29.889  27.565  13.812
 7381W        W75599  38.507  20.577  13.063
 7382W        W75600   1.257   7.396  13.298
 7383W        W75601   3.292  31.758   1.298
 7384W        W75602  43.793  21.584  10.832
 7385W        W75603  40.807  31.860  12.436
 7386W        W75604  43.020  44.679   0.320
 7387W        W75605  30.515  35.809  12.401
 7388W        W75606  16.850  31.337   2.757
 7389W        W75607  28.981   2.945  11.548
 7390W        W75608  23.750  42.237  12.410
 7391W        W75609  33.294  44.522   2.213
 7392W        W75610   7.409  38.091  10.627
 7393W        W75611  14.232   0.244   3.275
 7394W        W75612  29.911  24.940   1.448
 7395W        W75613  20.924  44.415   0.883
 7396W        W75614  34.029  44.889   2.473
 7397W        W75615  32.502  22.160   3.525
 7398W        W75616   9.196  32.452   4.615
 7399W        W75617  41.077  33.300   1.462
 7400W        W75618  38.866   7.316  10.659
 7401W        W75619  11.273  16.675  11.633
 7402W        W75620  36.325  29.176  11.203
 7403W        W75621   2.830  13.109   2.825
 7404W        W75622  34.338   3.448  11.649
 7405W        W75623   6.085  39.875   4.982
 7406W        W75624  11.789  14.879   3.181
 7407W        W75625   1.499  25.685  11.621
 7408W        W75626   4.789  18.834  13.363
 7409W        W75627  39.200  15.518  10.166
 7410W        W75628   9.159  37.347   4.576
 7411W        W75629  36.631  22.616   1.761
 7412W        W75630  18.047   1.250   4.060
 7413W        W75631  13.891   1.395   3.767
 7414W        W75632  31.501  40.743  14.843
 7415W        W75633  34.356   6.705   4.558
 7416W        W75634  35.407  13.374   4.960
 7417W        W75635  10.148  37.045  11.906
 7418W        W75636   5.262  25.141  14.618
 7419W        W75637  41.757  42.288  13.012
 7420W        W75638  14.109  27.192   3.277
 7421W        W75639  35.401  25.275  14.347
 7422W        W75640  30.945  13.640  12.890
 7423W        W75641  43.273  27.971  13.984
 7424W        W75642  19.066   3.364   4.097
 7425W        W75643   5.192  18.259  11.213
 7426W        W75644   5.903  10.868  10.780
 7427W        W75645   7.091   1.497  11.302
 7428W        W75646   7.235   7.373  11.474
 7429W        W75647  37.307  28.939  10.773
 7430W        W75648  32.178  21.118   4.381
 7431W        W75649  16.666  29.912   1.022
 7432W        W75650  37.239  12.745  10.653
 7433W        W75651   7.012  36.745  13.101
 7434W        W75652   3.979  11.382   3.230
 7435W        W75653  15.123  28.153   0.321
 7436W        W75654  37.931  39.079   2.665
 7437W        W75655  26.504  33.284   0.915
 7438W        W75656  16.441  42.314  13.471
 7439W        W75657   4.689  18.390  14.889
 7440W        W75658  14.626   0.481   2.613
 7441W        W75659  39.280  28.960   1.999
 7442W        W75660  16.073  34.821  12.541
 7443W        W75661   9.385  20.848  11.212
 7444W        W75662   3.723  14.608  12.637
 7445W        W75663   3.149  36.796   3.219
 7446W        W75664  20.373  42.918   1.750
 7447W        W75665  25.536  20.155   0.091
 7448W        W75666  35.595  19.324  10.669
 7449W        W75667  42.889   2.816   0.518
 7450W        W75668  27.581  39.663  14.040
 7451W        W75669  44.800   4.051  12.887
 7452W        W75670   3.149  43.814  11.191
 7453W        W75671  27.508   8.748   1.234
 7454W        W75672  26.698  37.582   3.699
 7455W        W75673  42.289  32.878   3.560
 7456W        W75674  29.665  37.444   4.851
 7457W        W75675  37.070   1.266   0.341
 7458W        W75676   3.437  25.974  14.922
 7459W        W75677   0.968  10.332  11.105
 7460W        W75678  25.612  12.327  11.566
 7461W        W75679  40.466  38.042   2.347
 7462W        W75680  23.996  18.142  11.598
 7463W        W75681  13.304  37.214   4.978
 7464W        W75682  30.661  20.539  10.665
 7465W        W75683  15.179   4.661  14.914
 7466W        W75684  15.006  26.175   3.770
 7467W        W75685  17.529  32.988  12.124
 7468W        W75686  34.388   2.807  14.286
 7469W        W75687  34.232  15.646   1.157
 7470W        W75688  34.936   6.643   3.735
 7471W        W75689  22.381  12.793   3.378
 7472W        W75690  11.313  33.823   4.006
 7473W        W75691  26.395  42.826  13.297
 7474W        W75692  21.058  32.328  13.856
 7475W        W75693  43.778   1.340   2.721
 7476W        W75694  31.564  37.398   1.358
 7477W        W75695  33.885  42.938  14.468
 7478W        W75696  35.861   3.748   2.130
 7479W        W75697  38.115   1.907  12.975
 7480W        W75698  35.933   7.624  11.568
 7481W        W75699   6.831  25.816  11.369
 7482W        W75700  11.817  38.307  13.392
 7483W        W75701  16.447  26.847   3.865
 7484W        W75702  37.627  20.455  14.021
 7485W        W75703  19.147  22.058  13.313
 7486W        W75704  43.089  41.235  11.393
 7487W        W75705  20.663  33.999  13.778
 7488W        W75706  16.810   9.308   3.644
 7489W        W75707  19.643  27.846  12.532
 7490W        W75708  17.457  35.139   3.741
 7491W        W75709  29.547  37.779   3.862
 7492W        W75710  30.274  21.548  10.984
 7493W        W75711  42.336  34.862  12.087
 7494W        W75712  16.327  43.787  12.089
 7495W        W75713  20.259  30.949  14.944
 7496W        W75714  19.535  40.394   2.359
 7497W        W75715   5.754  32.001   1.136
 7498W        W75716  20.534  32.148   4.548
 7499W        W75717   9.732  15.692  10.687
 7500W        W75718  24.043  33.924   0.971
 7501W        W75719   8.200  11.162  12.904
 7502W        W75720  27.590   3.827  13.850
 7503W        W75721  18.896  27.513  14.099
 7504W        W75722   0.008  14.376   2.758
 7505W        W75723  43.465  38.893  14.256
 7506W        W75724  18.168   4.000  10.660
 7507W        W75725  24.518   4.465   4.608
 7508W        W75726  16.202  25.810  14.874
 7509W        W75727  31.589  27.651   0.349
 7510W        W75728  21.504   8.902   3.517
 7511W        W75729   1.435   8.480   4.132
 7512W        W75730  37.485  35.841  12.370
 7513W        W75731   9.078   0.983   3.762
 7514W        W75732  35.086   3.042  11.938
 7515W        W75733   6.907  21.727   0.895
 7516W        W75734  12.127   1.865   2.140
 7517W        W75735  28.648  32.854   0.421
 7518W        W75736  30.080   1.369  12.821
 7519W        W75737  43.541   3.707  11.354
 7520W        W75738   8.645  12.362   0.906
 7521W        W75739  18.740   9.844   2.624
 7522W        W75740   1.000  32.584   0.016
 7523W        W75741   7.368  25.545   1.789
 7524W        W75742   8.583   1.096   3.805
 7525W        W75743  21.536  25.397  13.498
 7526W        W75744  33.050  42.832   3.325
 7527W        W75745  30.977   1.724   0.369
 7528W        W75746  43.687  36.700  12.068
 7529W        W75747  41.266  12.257   4.582
 7530W        W75748  19.070  14.169  12.926
 7531W        W75749  27.383   9.096  10.600
 7532W        W75750   8.207  27.629   0.050
 7533W        W75751  21.307  23.199  13.803
 7534W        W75752  43.771  11.205  14.940
 7535W        W75753  38.417  11.715  12.070
 7536W        W75754   4.797  22.561  12.171
 7537W        W75755  22.967  34.375   0.905
 7538W        W75756  29.988  41.382   4.062
 7539W        W75757   4.499   4.550  12.418
 7540W        W75758  27.549  40.091   3.882
 7541W        W75759  30.988   7.598  12.973
 7542W        W75760  20.556  16.335   9.876
 7543W        W75761   7.280   5.898   1.968
 7544W        W75762  15.321  33.037   1.994
 7545W        W75763  34.911  28.166   1.795
 7546W        W75764  30.581  25.042  11.699
 7547W        W75765  20.358  32.527   4.198
 7548W        W75766  43.509   8.944  11.156
 7549W        W75767  28.041  30.122  12.507
 7550W        W75768  38.823  16.603   1.909
 7551W        W75769  38.374  22.755  11.357
 7552W        W75770   0.535  10.580  11.288
 7553W        W75771   7.773  38.509   3.782
 7554W        W75772  35.079  14.294  13.384
 7555W        W75773  35.172   7.197  11.579
 7556W        W75774  36.086  35.599  14.913
 7557W        W75775  33.569  16.513   1.186
 7558W        W75776  20.503  23.577   2.381
 7559W        W75777   0.858   0.587   0.049
 7560W        W75778   2.528  24.085  13.570
 7561W        W75779  19.717  28.011  10.597
 7562W        W75780   6.041  13.613   0.170
 7563W        W75781   5.238  35.600   2.775
 7564W        W75782  29.868  17.714  13.453
 7565W        W75783  22.657  36.625   1.283
 7566W        W75784   4.759  23.063  13.948
 7567W        W75785  42.871   2.138   0.047
 7568W        W75786   7.723  10.298  14.060
 7569W        W75787  44.745   3.148   2.391
 7570W        W75788   3.683  28.679   3.770
 7571W        W75789  40.464   9.146   2.860
 7572W        W75790  19.715  25.816  11.198
 7573W        W75791  18.523  30.946   0.295
 7574W        W75792  44.451  24.525  11.510
 7575W        W75793   4.485  31.501  13.078
 7576W        W75794  31.542   6.922  13.872
 7577W        W75795  18.262  11.707  14.256
 7578W        W75796  16.559  24.992  11.608
 7579W        W75797   8.714  20.661   4.630
 7580W        W75798  27.952  30.971   0.520
 7581W        W75799  38.386   5.274  13.816
 7582W        W75800  16.664   4.773  14.200
 7583W        W75801  20.209  24.809  13.084
 7584W        W75802  42.464   0.505  11.523
 7585W        W75803   7.290  44.587   2.730
 7586W        W75804  20.834   3.454   3.257
 7587W        W75805  18.082  19.595   2.934
 7588W        W75806  36.956  13.665  14.485
 7589W        W75807  24.498  13.289  13.642
 7590W        W75808  34.333   7.443  12.288
 7591W        W75809  11.102  37.847  14.861
 7592W        W75810  14.206  39.006  10.912
 7593W        W75811  10.448  11.579   0.901
 7594W        W75812   2.306  31.086  14.445
 7595W        W75813  37.803   9.624  12.331
 7596W        W75814  10.557  36.610  14.348
 7597W        W75815   2.836  30.375   0.885
 7598W        W75816  20.047  19.821   2.194
 7599W        W75817  21.645  26.494  13.772
 7600W        W75818  36.126  24.944  14.817
 7601W        W75819  11.668  13.133  11.033
 7602W        W75820  44.035  15.888   4.209
 7603W        W75821   9.072  20.157  11.089
 7604W        W75822  20.774  25.402  12.921
 7605W        W75823  18.056  15.818  10.182
 7606W        W75824   0.034  23.625  12.642
 7607W        W75825  43.037  21.016  13.872
 7608W        W75826   1.892  26.102  11.871
 7609W        W75827  22.600  20.625  10.635
 7610W        W75828  41.515   6.738  13.362
 7611W        W75829   9.648  42.899  13.605
 7612W        W75830  42.749   3.372  12.554
 7613W        W75831  34.059  43.296  11.254
 7614W        W75832  31.600  13.365  11.869
 7615W        W75833  40.015   8.035   0.252
 7616W        W75834  29.563  16.715   4.010
 7617W        W75835  17.237   1.247   0.350
 7618W        W75836  24.598   9.620   2.346
 7619W        W75837   3.551  31.682   3.178
 7620W        W75838  12.921  18.104  12.055
 7621W        W75839  30.875  17.234   4.336
 7622W        W75840   9.084  25.928  11.462
 7623W        W75841  35.860   5.532   2.907
 7624W        W75842  35.647  29.442   2.340
 7625W        W75843  26.130  22.068  10.719
 7626W        W75844   7.352  16.764   0.399
 7627W        W75845  26.900  40.893  11.190
 7628W        W75846  21.492  20.968  11.028
 7629W        W75847  11.871  10.399  11.876
 7630W        W75848   4.346   4.900   4.506
 7631W        W75849  10.657  12.134  12.904
 7632W        W75850  36.903   7.439   2.247
 7633W        W75851   1.733  26.012   3.243
 7634W        W75852  14.608  33.481   1.723
 7635W        W75853  17.114  29.038   3.715
 7636W        W75854  29.656   7.177   3.228
 7637W        W75855  21.252  20.153  13.838
 7638W        W75856  14.797  18.283   0.117
 7639W        W75857  40.080   0.530   5.041
 7640W        W75858   1.329  15.794  12.836
 7641W        W75859  21.339  31.112  13.480
 7642W        W75860  16.271  26.723  10.618
 7643W        W75861  44.640   9.156   4.617
 7644W        W75862  18.883  39.313  12.912
 7645W        W75863  20.289  13.356  10.095
 7646W        W75864   1.357  18.095   2.722
 7647W        W75865  18.264  44.997   3.875
 7648W        W75866  19.985  44.595   4.193
 7649W        W75867  38.400  24.072  11.864
 7650W        W75868  39.841   6.936   1.055
 7651W        W75869  36.333  35.553   4.547
 7652W        W75870  39.567  11.511  13.823
 7653W        W75871  17.779  35.803  12.040
 7654W        W75872  41.352  17.008  10.698
 7655W        W75873  32.562  40.462  13.508
 7656W        W75874  34.522  14.163  12.122
 7657W        W75875  38.478  35.512  12.995
 7658W        W75876  17.158  26.763   1.439
 7659W        W75877  20.889  25.466   4.113
 7660W        W75878  36.347   8.689  12.285
 7661W        W75879  15.332  20.056   1.390
 7662W        W75880   4.933  44.951   1.859
 7663W        W75881  36.920  17.693  12.416
 7664W        W75882  12.086  12.716   2.351
 7665W        W75883   3.304  13.311   4.843
 7666W        W75884   4.365  38.141  14.674
 7667W        W75885  14.887  42.348  11.734
 7668W        W75886   8.182  25.505  11.536
 7669W        W75887  28.466  31.859   2.728
 7670W        W75888  31.151  34.447   3.278
 7671W        W75889  11.772  26.452  12.848
 7672W        W75890  37.589  33.187   2.862
 7673W        W75891   1.203  19.101   1.656
 7674W        W75892  31.217  34.860   0.358
 7675W        W75893  29.154  38.521  11.984
 7676W        W75894   3.963  19.183  13.468
 7677W        W75895  38.932  28.890   0.472
 7678W        W75896   9.846  12.171  14.425
 7679W        W75897  23.625  41.725  14.445
 7680W        W75898  42.362   1.296  13.448
 7681W        W75899  23.102  33.164  14.736
 7682W        W75900  15.493  31.296  11.734
 7683W        W75901  32.117  25.400  14.379
 7684W        W75902  26.961   8.134   3.078
 7685W        W75903   8.466  21.499  13.411
 7686W        W75904  22.546  39.090  11.071
 7687W        W75905   0.268  18.880  13.430
 7688W        W75906  34.102  24.773   2.280
 7689W        W75907  12.643   2.897   1.411
 7690W        W75908  24.541  25.490  13.816
 7691W        W75909  21.248   1.394   4.308
 7692W        W75910   0.737   5.434   0.340
 7693W        W75911  31.482   8.867  11.038
 7694W        W75912  22.210  11.824   2.721
 7695W        W75913  21.162  38.494   5.054
 7696W        W75914  34.638  33.127   1.210
 7697W        W75915  37.913   3.632  11.679
 7698W        W75916   1.851  34.848   3.743
 7699W        W75917  32.942  23.894  10.843
 7700W        W75918   7.562   6.467   5.114
 7701W        W75919  29.673   6.882   2.795
 7702W        W75920  11.434   5.195   1.304
 7703W        W75921   1.410   8.254  10.983
 7704W        W75922   7.945  11.067   3.082
 7705W        W75923  32.680   0.663   0.100
 7706W        W75924  43.584  30.564   3.653
 7707W        W75925  23.664  33.447  11.580
 7708W        W75926   9.333   4.451  12.616
 7709W        W75927  19.957  33.031  11.665
 7710W        W75928  35.338  26.589   2.555
 7711W        W75929  37.533  44.076  12.034
 7712W        W75930  12.263   8.465  12.583
 7713W        W75931  11.970  34.028   4.408
 7714W        W75932  18.621  41.417  12.508
 7715W        W75933   3.214   8.824  13.807
 7716W        W75934  22.125   6.381  10.737
 7717W        W75935  42.931  44.204   2.169
 7718W        W75936  22.548   5.234   1.421
 7719W        W75937  20.391   8.711  10.952
 7720W        W75938  37.088  10.228  14.125
 7721W        W75939   7.035  36.908  14.447
 7722W        W75940   3.965   0.381   1.759
 7723W        W75941  21.629  20.106   3.267
 7724W        W75942  28.970  23.200  11.211
 7725W        W75943  13.165  29.202  12.602
 7726W        W75944  26.764  11.217  12.429
 7727W        W75945  16.923  41.738  13.894
 7728W        W75946  28.904   6.008  14.226
 7729W        W75947  18.308   0.667   2.793
 7730W        W75948  16.552   1.213  14.430
 7731W        W75949  24.028  29.858  14.295
 7732W        W75950  44.086  43.090  12.504
 7733W        W75951  38.704   4.479   0.203
 7734W        W75952  18.751   5.004  13.721
 7735W        W75953   5.869   7.701  11.449
 7736W        W75954  16.565   7.432   0.173
 7737W        W75955  10.465   8.797  12.145
 7738W        W75956  28.663  29.194   3.405
 7739W        W75957   8.399  43.765  12.137
 7740W        W75958  26.365  24.171  10.831
 7741W        W75959  34.175  25.742  13.451
 7742W        W75960  37.562  36.928   2.117
 7743W        W75961  18.533  21.626  10.595
 7744W        W75962  13.505  35.089  14.022
 7745W        W75963   6.450  40.034  10.803
 7746W        W75964  21.485  40.447   3.608
 7747W        W75965  35.991  38.283  12.604
 7748W        W75966  18.080   0.110   2.209
 7749W        W75967  18.090  41.692   1.620
 7750W        W75968  39.812   9.910   0.143
 7751W        W75969   6.257  42.882   2.684
 7752W        W75970  31.979  22.587  12.470
 7753W        W75971  23.158  35.156  14.813
 7754W        W75972   1.829  33.210  13.105
 7755W        W75973  15.348  27.176   4.071
 7756W        W75974  27.097  25.976   4.142
 7757W        W75975  23.656  21.225  13.397
 7758W        W75976  41.544  23.037  13.821
 7759W        W75977  30.210   1.221   4.699
 7760W        W75978   2.320  16.268   4.673
 7761W        W75979  38.817  38.483   2.670
 7762W        W75980  41.407  19.450  13.029
 7763W        W75981  37.296  36.341  13.858
 7764W        W75982  36.492  35.065   2.818
 7765W        W75983  31.970  39.013   3.625
 7766W        W75984  29.662  21.262  14.493
 7767W        W75985  12.788  34.045  12.324
 7768W        W75986   8.625  33.099   0.664
 7769W        W75987  21.878  12.306  14.404
 7770W        W75988  15.385  22.892  13.953
 7771W        W75989   4.562  30.431   0.991
 7772W        W75990   2.230   1.915   0.743
 7773W        W75991  25.091  26.603  13.757
 7774W        W75992   4.334  40.806  11.126
 7775W        W75993  24.266  38.076   0.668
 7776W        W75994  40.212  44.295   3.522
 7777W        W75995  41.856   4.408  14.236
 7778W        W75996  37.824  25.517   1.891
 7779W        W75997  12.211  44.058  13.449
 7780W        W75998  20.737   7.970   3.360
 7781W        W75999  16.289  26.838   3.383
 7782W        W76000  13.235  37.011   1.820
 7783W        W76001  19.981  18.280   2.590
 7784W        W76002  23.123   5.352   3.112
 7785W        W76003  25.635  21.695  11.943
 7786W        W76004  10.353   1.354   3.340
 7787W        W76005  44.753  17.857  10.716
 7788W        W76006  17.059   6.627  14.490
 7789W        W76007  28.811   2.287   2.597
 7790W        W76008   5.126  18.550  13.650
 7791W        W76009  42.073  19.616  11.553
 7792W        W76010  43.502  19.839  13.430
 7793W        W76011  29.670  39.691   0.592
 7794W        W76012  19.603  18.360  12.121
 7795W        W76013   4.095  32.320   3.860
 7796W        W76014  30.057  11.343  14.580
 7797W        W76015  42.090  11.051   0.706
 7798W        W76016  41.296  10.877   2.304
 7799W        W76017  30.705  43.018   2.843
 7800W        W76018   1.419   6.175   4.585
 7801W        W76019  33.732  11.076   1.856
 7802W        W76020  12.151  16.439   0.069
 7803W        W76021  22.926  38.614  13.996
 7804W        W76022   7.529  26.219  11.128
 7805W        W76023  39.540  30.151   3.219
 7806W        W76024  12.245   4.163  11.269
 7807W        W76025   7.717  36.105   3.097
 7808W        W76026  43.821  36.741  11.201
 7809W        W76027  41.987   8.652  13.021
 7810W        W76028   2.080  20.104   1.850
 7811W        W76029  11.795  44.371  14.670
 7812W        W76030  24.121  29.443  12.087
 7813W        W76031  27.896  20.186  12.904
 7814W        W76032   8.639  41.407   4.775
 7815W        W76033  20.638  20.974  10.034
 7816W        W76034  35.391  26.053   3.304
 7817W        W76035  13.052   8.730   3.129
 7818W        W76036  13.881  37.153   4.036
 7819W        W76037   8.329  32.374   4.740
 7820W        W76038  31.636  34.672  14.338
 7821W        W76039  23.579  42.884  13.984
 7822W        W76040   4.189  26.233  12.015
 7823W        W76041  28.673   6.468   2.185
 7824W        W76042  25.427   5.675   4.505
 7825W        W76043  14.506  37.541   2.251
 7826W        W76044  12.278   5.689   2.481
 7827W        W76045   3.317  35.443   3.406
 7828W        W76046   3.332  30.284  14.868
 7829W        W76047  31.661  23.479  13.777
 7830W        W76048  12.147  30.733  13.506
 7831W        W76049  33.686  18.721  14.354
 7832W        W76050  19.596  38.597  12.817
 7833W        W76051  13.317  31.410  14.457
 7834W        W76052  31.994  14.135   3.132
 7835W        W76053  24.723   6.243  11.941
 7836W        W76054  20.193   1.755   1.024
 7837W        W76055  31.461  15.262  12.037
 7838W        W76056  17.840  34.404   1.061
 7839W        W76057  14.596  26.512  12.893
 7840W        W76058  38.711  10.335   4.976
 7841W        W76059  14.634  16.127   1.732
 7842W        W76060   3.250  17.079   5.047
 7843W        W76061  41.379  25.743  14.423
 7844W        W76062  37.618  39.078   4.640
 7845W        W76063  16.615  43.761  13.923
 7846W        W76064  41.104   2.624   4.941
 7847W        W76065  18.884  35.149   5.111
 7848W        W76066  23.590  29.591   0.897
 7849W        W76067   7.368  41.054  14.718
 7850W        W76068  26.135  29.168  13.301
 7851W        W76069  24.648   9.219   1.979
 7852W        W76070  26.038  42.675   2.096
 7853W        W76071  40.652  30.611  14.443
 7854W        W76072   7.284  33.234  11.639
 7855W        W76073  36.884  35.376  11.464
 7856W        W76074  14.264  40.212  14.678
 7857W        W76075   5.816  42.767   1.544
 7858W        W76076  38.889  19.025   0.845
 7859W        W76077  36.094  12.217  12.504
 7860W        W76078  24.091  11.786  14.032
 7861W        W76079  38.002  31.921   1.288
 7862W        W76080   5.906  44.002   2.151
 7863W        W76081  33.199  33.873   1.010
 7864W        W76082  26.009  32.009  13.018
 7865W        W76083   1.781   2.630   0.789
 7866W        W76084   1.200  19.155  13.521
 7867W        W76085  32.892  41.501   3.843
 7868W        W76086  11.774  32.601   0.946
 7869W        W76087   0.035  31.886   3.719
 7870W        W76088  10.367  37.529  14.325
 7871W        W76089  38.122   5.853  14.123
 7872W        W76090  26.407  32.020  13.818
 7873W        W76091  40.374  20.283   1.579
 7874W        W76092  40.446  32.972  11.225
 7875W        W76093  35.429  15.086  11.646
 7876W        W76094  23.101  19.684  13.718
 7877W        W76095  25.605  29.832   3.113
 7878W        W76096   1.173  35.554  14.837
 7879W        W76097  21.516  20.285   4.019
 7880W        W76098  21.267   3.162   3.029
 7881W        W76099  14.774   1.836  12.232
 7882W        W76100  29.874  16.321   4.162
 7883W        W76101   9.806  16.143  14.920
 7884W        W76102  32.773  19.696   1.381
 7885W        W76103  40.908   4.214  13.836
 7886W        W76104  18.341  42.998   3.627
 7887W        W76105  41.136  36.437   2.154
 7888W        W76106  32.003  14.532   1.720
 7889W        W76107   9.891  11.688  13.648
 7890W        W76108  20.759  32.939  12.084
 7891W        W76109   6.191   7.191  14.923
 7892W        W76110   1.947   5.655  11.981
 7893W        W76111   1.866   2.892   1.265
 7894W        W76112  31.864  32.202  12.146
 7895W        W76113  12.358  35.972   3.170
 7896W        W76114  44.883  10.397  13.128
 7897W        W76115  13.304   8.502  13.758
 7898W        W76116  26.074   1.632   4.431
 7899W        W76117  18.054  31.542   0.240
 7900W        W76118  35.236  39.206   3.285
 7901W        W76119  19.108   2.432   1.297
 7902W        W76120  15.926  37.252  11.570
 7903W        W76121  31.689  26.620  10.674
 7904W        W76122   6.258  16.593  10.781
 7905W        W76123   5.688  28.063  12.578
 7906W        W76124  14.922  34.156  10.920
 7907W        W76125  29.829  17.829   4.482
 7908W        W76126   6.854  22.393  13.577
 7909W        W76127   5.741   9.908  14.486
 7910W        W76128  42.330  36.167  11.163
 7911W        W76129  40.547   5.827  12.878
 7912W        W76130  41.110  15.808   3.643
 7913W        W76131  11.818  16.776  12.964
 7914W        W76132  34.648  42.477   0.733
 7915W        W76133   4.722  22.073  11.347
 7916W        W76134   5.705  37.962  11.539
 7917W        W76135  19.588  22.567  10.993
 7918W        W76136  42.844  43.477  13.391
 7919W        W76137  12.427  42.813  11.033
 7920W        W76138  28.963   7.503   0.825
 7921W        W76139   5.836   7.784   4.851
 7922W        W76140  15.589  35.935   0.989
 7923W        W76141   7.271  34.559   2.414
 7924W        W76142  37.342  23.908   0.125
 7925W        W76143  29.678   3.508  11.950
 7926W        W76144  26.410   2.696  13.541
 7927W        W76145   3.916   2.310   4.132
 7928W        W76146  44.771  19.689  12.970
 7929W        W76147  33.218   4.646  13.510
 7930W        W76148  15.448  42.112  14.091
 7931W        W76149   3.741  27.995   3.693
 7932W        W76150  34.844   2.909  14.502
 7933W        W76151   9.454  23.713  11.998
 7934W        W76152  29.560  33.048  11.536
 7935W        W76153  25.012   4.219   1.801
 7936W        W76154   3.435  34.976   3.636
 7937W        W76155  15.532  42.757  12.451
 7938W        W76156  12.784  29.213  13.869
 7939W        W76157   5.728  14.036   2.362
 7940W        W76158   6.673  41.814  10.964
 7941W        W76159  21.587   9.614  12.041
 7942W        W76160  21.948  24.924   5.047
 7943W        W76161  38.001   9.355   0.063
 7944W        W76162  32.021  28.068  11.160
 7945W        W76163   9.519  37.185   2.669
 7946W        W76164  14.380  43.974   0.175
 7947W        W76165  28.290  44.007   2.433
 7948W        W76166  34.769   6.630  11.229
 7949W        W76167  27.951  21.756   0.295
 7950W        W76168  36.437  15.045  11.552
 7951W        W76169  15.353  40.950   4.822
 7952W        W76170   4.210  12.089   0.792
 7953W        W76171  42.067  35.955  13.279
 7954W        W76172  38.856  16.538   4.228
 7955W        W76173  30.711  21.188   4.080
 7956W        W76174  31.935   3.407  11.081
 7957W        W76175  23.977  26.067   2.754
 7958W        W76176  20.023  39.960  12.008
 7959W        W76177   0.148   7.133  11.758
 7960W        W76178  10.723   5.414  10.695
 7961W        W76179  23.015   7.838  12.937
 7962W        W76180  27.648  37.049   2.197
 7963W        W76181  38.354  37.197  14.681
 7964W        W76182  21.668   5.143  13.387
 7965W        W76183  30.929  24.726  13.200
 7966W        W76184  10.317   7.930   1.432
 7967W        W76185  32.458  38.490   3.204
 7968W        W76186  38.368   0.289   0.908
 7969W        W76187  37.449  17.842   2.735
 7970W        W76188  13.799   5.984  12.489
 7971W        W76189  33.529  10.494   3.727
 7972W        W76190   8.752  32.050  11.939
 7973W        W76191  36.022  26.026  14.478
 7974W        W76192  40.773  14.335   4.408
 7975W        W76193  13.274  14.525  12.512
 7976W        W76194  16.074  21.668  12.516
 7977W        W76195   1.636  37.547   2.947
 7978W        W76196   1.051   5.746   1.709
 7979W        W76197  22.207  10.407   4.037
 7980W        W76198  38.665   1.323   4.575
 7981W        W76199  34.936  28.391   3.557
 7982W        W76200  29.274  20.962  14.883
 7983W        W76201  30.196   5.990   0.941
 7984W        W76202  24.539   7.614  11.562
 7985W        W76203  22.012  35.815   0.791
 7986W        W76204   3.519  16.517   1.486
 7987W        W76205  21.983   1.006  11.104
 7988W        W76206  24.705  40.273  12.006
 7989W        W76207  13.108   8.834   2.621
 7990W        W76208  28.939  41.938  14.235
 7991W        W76209  37.117  21.661  10.946
 7992W        W76210  38.807  44.117   4.149
 7993W        W76211  17.096  22.421   4.972
 7994W        W76212  44.751  39.501   2.393
 7995W        W76213  38.860  18.046  11.441
 7996W        W76214  10.917   2.359  11.565
 7997W        W76215  18.127  17.603   2.935
 7998W        W76216  36.405   5.177  13.028
 7999W        W76217  30.689  29.275   4.699
 8000W        W76218  25.123  39.725   4.523
 8001W        W76219   8.794  12.848   0.744
 8002W        W76220  11.632  12.619  11.560
 8003W        W76221  31.698  19.197  12.314
 8004W        W76222  41.576  43.249   1.295
 8005W        W76223  25.605  36.561   0.776
 8006W        W76224   9.762  42.125  13.041
 8007W        W76225  29.646  39.974   3.155
 8008W        W76226  35.642  20.723  10.643
 8009W        W76227   8.498  16.137  13.976
 8010W        W76228  34.360  29.409   0.904
 8011W        W76229   0.179  17.596  13.104
 8012W        W76230  26.941  30.477   4.078
 8013W        W76231   6.224  21.809  13.014
 8014W        W76232  41.003  22.109   2.922
 8015W        W76233  16.227   9.329   2.790
 8016W        W76234  11.184  16.764   2.554
 8017W        W76235  37.424   0.828   5.090
 8018W        W76236  34.520  41.941  14.430
 8019W        W76237  27.594  26.174  12.392
 8020W        W76238   0.429   3.688   1.950
 8021W        W76239  19.205  23.705   0.183
 8022W        W76240   3.636  36.821   2.820
 8023W        W76241  26.780  10.261   2.761
 8024W        W76242  17.525   2.301  14.763
 8025W        W76243  22.147   5.741  13.902
 8026W        W76244  42.217  43.052  14.076
 8027W        W76245  27.661  30.091  10.681
 8028W        W76246  21.399  10.254   2.788
 8029W        W76247  26.579   1.574  12.604
 8030W        W76248  29.712  14.049   3.658
 8031W        W76249  29.171  30.985   2.154
 8032W        W76250   2.238  32.264  13.299
 8033W        W76251  41.358   1.730  11.121
 8034W        W76252   2.218   4.442  11.610
 8035W        W76253   1.720  14.323   3.192
 8036W        W76254  41.443  15.605   3.282
 8037W        W76255   0.813   6.835   3.824
 8038W        W76256  27.515  15.840   0.950
 8039W        W76257  12.691  11.365   2.779
 8040W        W76258  36.880  26.087   2.992
 8041W        W76259  15.648   2.105  10.852
 8042W        W76260  24.705  16.538   2.711
 8043W        W76261  10.723   8.928  11.679
 8044W        W76262   0.629  34.060  14.928
 8045W        W76263  31.399  28.949   0.830
 8046W        W76264  16.528  30.529  12.389
 8047W        W76265  18.885  11.366   3.582
 8048W        W76266  23.783  38.151  12.551
 8049W        W76267  31.395  44.895   4.634
 8050W        W76268  16.934  26.584   0.420
 8051W        W76269  13.866  36.365   0.600
 8052W        W76270  29.037  18.748   4.207
 8053W        W76271  30.630  27.974   4.563
 8054W        W76272  22.934   2.071  13.866
 8055W        W76273   6.351  25.543   0.444
 8056W        W76274  37.693  39.652  14.722
 8057W        W76275  23.798  36.855  14.036
 8058W        W76276  31.998   9.747   1.645
 8059W        W76277  34.529   5.253  10.053
 8060W        W76278  10.273  42.530   4.752
 8061W        W76279  23.060   1.324  10.811
 8062W        W76280   9.012  35.137   3.320
 8063W        W76281  44.343  39.952  10.679
 8064W        W76282   5.017  33.663  10.223
 8065W        W76283   9.959  32.572   1.729
 8066W        W76284  16.549  38.493   4.681
 8067W        W76285  39.759  26.270  14.892
 8068W        W76286  34.859  39.034  14.285
 8069W        W76287   2.365  17.537   4.123
 8070W        W76288  17.740  17.665  11.221
 8071W        W76289  19.842  15.690  10.781
 8072W        W76290   1.883  18.214  11.559
 8073W        W76291   1.882  42.977   4.184
 8074W        W76292  38.799  22.147   0.399
 8075W        W76293  17.976  43.928  14.823
 8076W        W76294  26.749  44.411  13.375
 8077W        W76295  44.944  31.035  13.416
 8078W        W76296  17.522   0.266   0.889
 8079W        W76297  28.781  24.157  10.302
 8080W        W76298   0.068   3.433   5.080
 8081W        W76299  42.752   0.888   2.190
 8082W        W76300   0.300  19.988  14.902
 8083W        W76301  21.775  12.245   3.058
 8084W        W76302   6.581   8.683   4.336
 8085W        W76303   4.361   7.353  10.681
 8086W        W76304  34.918  26.126  11.590
 8087W        W76305  12.673  21.006   5.038
 8088W        W76306  34.098  28.829   1.485
 8089W        W76307  27.174   6.317  13.870
 8090W        W76308  44.828   4.142  11.008
 8091W        W76309  41.754  22.984   1.225
 8092W        W76310   8.236  25.253  11.077
 8093W        W76311  16.988  26.911  10.348
 8094W        W76312  43.952  36.239  11.127
 8095W        W76313  28.722  28.927   1.232
 8096W        W76314  44.388  22.699   3.128
 8097W        W76315  22.554  18.498  13.825
 8098W        W76316  28.978  14.698   4.256
 8099W        W76317  10.783   2.696  11.946
 8100W        W76318  19.744  32.438  14.069
 8101W        W76319   8.888  18.726  12.858
 8102W        W76320  25.133  33.831   3.125
 8103W        W76321   5.220  39.842  11.591
 8104W        W76322  16.634  10.752   3.283
 8105W        W76323  40.497   8.776   0.263
 8106W        W76324   9.294   6.863   2.096
 8107W        W76325  10.609  12.502   1.802
 8108W        W76326  10.406  14.675  13.950
 8109W        W76327   2.912   5.879  12.212
 8110W        W76328  43.447  21.761  12.583
 8111W        W76329  37.430  25.802  13.459
 8112W        W76330  10.222   5.695   4.185
 8113W        W76331  30.943  24.521   2.639
 8114W        W76332  30.079   5.648   3.800
 8115W        W76333  35.459  21.172   1.917
 8116W        W76334  16.276   6.767  10.414
 8117W        W76335  44.799  18.774  12.084
 8118W        W76336  35.360  29.068  12.037
 8119W        W76337  36.017  31.610  10.791
 8120W        W76338  11.902  24.677  13.809
 8121W        W76339   1.045  11.152  14.089
 8122W        W76340  25.414  30.104   0.612
 8123W        W76341   9.640   2.761   3.031
 8124W        W76342  33.501   9.092   0.310
 8125W        W76343  12.085  18.679  11.810
 8126W        W76344  40.534  26.284  10.441
 8127W        W76345  30.028  28.555  14.253
 8128W        W76346  26.634   3.443   3.706
 8129W        W76347  32.672  19.596  11.632
 8130W        W76348  14.767  29.053  10.803
 8131W        W76349  28.926  28.458   0.372
 8132W        W76350  37.788   4.274   0.249
 8133W        W76351  40.368   2.454   1.339
 8134W        W76352  40.333  13.702  12.106
 8135W        W76353  10.827  26.336  14.277
 8136W        W76354  36.156  20.096   2.870
 8137W        W76355   0.682  16.341  10.675
 8138W        W76356  25.109  16.654   1.091
 8139W        W76357   1.797  32.944   0.449
 8140W        W76358  22.128   8.137   0.079
 8141W        W76359  17.259  30.765  11.420
 8142W        W76360  31.678  43.175  12.070
 8143W        W76361  43.683  20.701  11.848
 8144W        W76362  25.012   5.252   0.340
 8145W        W76363  26.985   1.768  10.973
 8146W        W76364  28.985  15.843  14.464
 8147W        W76365  16.312   9.227   3.651
 8148W        W76366   6.949   2.533   1.898
 8149W        W76367   2.242  32.633   4.092
 8150W        W76368  12.159  39.569   1.634
 8151W        W76369  42.804  28.620   2.757
 8152W        W76370  27.492  31.437   2.737
 8153W        W76371  36.276  36.477   2.685
 8154W        W76372  25.306  31.391  12.482
 8155W        W76373  10.496   2.197  14.051
 8156W        W76374  40.053  34.503  14.245
 8157W        W76375  40.923  16.392   4.720
 8158W        W76376  39.093  18.813  14.458
 8159W        W76377  34.543  33.506  11.909
 8160W        W76378  19.627   8.138   0.275
 8161W        W76379   3.191   0.791   2.703
 8162W        W76380  23.034   4.025   0.998
 8163W        W76381   5.951  18.466  11.120
 8164W        W76382   1.580  17.210  14.529
 8165W        W76383   4.759  33.525  14.171
 8166W        W76384   8.353  34.562  11.525
 8167W        W76385  34.021   0.335   4.117
 8168W        W76386  23.233  38.548  10.731
 8169W        W76387  32.975  24.237   0.782
 8170W        W76388  10.422   8.373  14.728
 8171W        W76389  33.591  39.761  13.606
 8172W        W76390  38.301  20.232  14.936
 8173W        W76391  17.231  34.910   1.463
 8174W        W76392  38.163  40.799  12.329
 8175W        W76393  37.346  39.914  14.997
 8176W        W76394   4.036  39.248  11.017
 8177W        W76395   4.258  19.089   2.380
 8178W        W76396  12.245  40.598  14.488
 8179W        W76397  35.019  13.552  10.826
 8180W        W76398  23.479  44.251  14.413
 8181W        W76399  26.428  35.109  13.584
 8182W        W76400   5.012  18.779   3.646
 8183W        W76401  11.984  41.966  12.011
 8184W        W76402  21.946  33.581   3.728
 8185W        W76403  19.747  23.843   4.922
 8186W        W76404   4.480  19.223  13.562
 8187W        W76405  29.300   5.769  11.467
 8188W        W76406  38.529  26.056   3.382
 8189W        W76407  29.510  31.368   4.552
 8190W        W76408  40.377  21.761  14.885
 8191W        W76409  30.889  14.567  13.048
 8192W        W76410  11.585  27.488   2.806
 8193W        W76411  20.505  26.080   2.256
 8194W        W76412  27.032  37.131  14.927
 8195W        W76413  42.867  23.550  13.911
 8196W        W76414  16.847  41.366  10.804
 8197W        W76415  43.401  30.614  12.136
 8198W        W76416   2.163   5.902   2.873
 8199W        W76417  10.207  41.395  12.857
 8200W        W76418  31.437  14.769   2.472
 8201W        W76419   1.888  12.203   2.543
 8202W        W76420  27.185  19.789   2.677
 8203W        W76421   0.441   5.425   1.211
 8204W        W76422  27.498   8.704   3.209
 8205W        W76423  24.526   0.033   0.723
 8206W        W76424   5.383   7.659   1.257
 8207W        W76425   2.202  32.089  11.654
 8208W        W76426  14.869  22.083   1.396
 8209W        W76427  30.195   1.400  13.334
 8210W        W76428  12.658  17.470   4.657
 8211W        W76429   2.198  11.684   3.223
 8212W        W76430   8.980   5.813  13.037
 8213W        W76431  30.611  15.023   0.537
 8214W        W76432  15.417  20.636   4.529
 8215W        W76433  25.703  17.536  11.173
 8216W        W76434  20.902  42.398   1.598
 8217W        W76435  39.899  24.469  14.530
 8218W        W76436  32.683  32.156  12.453
 8219W        W76437  17.665  36.560  11.610
 8220W        W76438  12.659   6.822   4.207
 8221W        W76439  10.213  27.017   1.725
 8222W        W76440  22.270  28.213  13.504
 8223W        W76441  37.351  42.019   4.306
 8224W        W76442  33.031  10.234   2.325
 8225W        W76443  26.486   9.290   3.652
 8226W        W76444  15.160  25.071  14.317
 8227W        W76445  22.798  29.264   2.039
 8228W        W76446   7.414  17.255   3.171
 8229W        W76447  31.402  10.000   4.668
 8230W        W76448   6.408  18.031   3.613
 8231W        W76449  40.061  18.224   0.264
 8232W        W76450  32.974   7.424  13.008
 8233W        W76451   9.601   9.965  14.483
 8234W        W76452  14.769  29.890  14.764
 8235W        W76453  32.598  31.360   3.245
 8236W        W76454  38.095  25.283   3.145
 8237W        W76455  23.799  24.602   3.770
 8238W        W76456  29.432  37.922   1.335
 8239W        W76457  37.506  29.665   1.374
 8240W        W76458  14.447   3.757   0.800
 8241W        W76459  24.050  36.359   3.251
 8242W        W76460   4.476  32.531  14.569
 8243W        W76461  23.308  10.669   0.372
 8244W        W76462  13.130  12.675  12.929
 8245W        W76463  32.496  23.444   1.463
 8246W        W76464   5.730  25.027   4.060
 8247W        W76465   6.476  19.468   2.792
 8248W        W76466  40.634  35.784   3.327
 8249W        W76467   4.660  13.036   1.461
 8250W        W76468  23.432  12.325   0.354
 8251W        W76469  30.653  32.017   0.919
 8252W        W76470  40.687  22.507   0.058
 8253W        W76471   6.348  30.887   1.332
 8254W        W76472   3.974  35.633   1.285
 8255W        W76473  19.135   1.826   1.648
 8256W        W76474  16.729   1.004   5.203
 8257W        W76475   1.754  24.490   3.080
 8258W        W76476  44.507  32.881   1.865
 8259W        W76477   9.207  34.642  11.998
 8260W        W76478  39.478  24.863   3.765
 8261W        W76479   3.963   2.869  11.147
 8262W        W76480  40.865  35.847   0.925
 8263W        W76481  22.711  13.748  13.847
 8264W        W76482  22.362  30.642   3.728
 8265W        W76483  19.265   0.890  12.507
 8266W        W76484  23.778  41.477   4.278
 8267W        W76485  13.039  36.341  12.088
 8268W        W76486  22.732   1.945   4.132
 8269W        W76487   2.363  26.540   3.722
 8270W        W76488  19.824  35.628  10.786
 8271W        W76489   9.163  40.030  13.920
 8272W        W76490  28.730  18.090  10.703
 8273W        W76491  23.548  43.659   0.337
 8274W        W76492  11.681   8.614   3.777
 8275W        W76493  44.369  25.675   1.360
 8276W        W76494  11.877   7.127   3.644
 8277W        W76495  32.294  18.414  11.300
 8278W        W76496  31.404   0.497   0.502
 8279W        W76497  32.824  24.740   1.944
 8280W        W76498  39.893  25.297  14.964
 8281W        W76499   7.173  11.104  13.116
 8282W        W76500  22.753  24.214  14.231
 8283W        W76501  39.559  25.713  14.885
 8284W        W76502  44.399  35.976   4.527
 8285W        W76503   0.037  34.873  12.434
 8286W        W76504  18.059  40.856   0.456
 8287W        W76505  33.249  17.569   0.823
 8288W        W76506  20.507   6.063  12.036
 8289W        W76507  36.550  13.293  14.716
 8290W        W76508  30.018  18.355   3.164
 8291W        W76509  24.147  43.264  12.983
 8292W        W76510  33.032  35.700  10.681
 8293W        W76511  39.480  23.872   3.168
 8294W        W76512   1.759  39.986  13.969
 8295W        W76513  31.118   7.366  11.622
 8296W        W76514  22.203  38.152  11.680
 8297W        W76515  38.361  18.628   2.870
 8298W        W76516  22.136   2.565  14.588
 8299W        W76517   7.780  27.911   2.667
 8300W        W76518   0.423   4.248   0.617
 8301W        W76519  14.273  27.938   2.384
 8302W        W76520  41.367  19.187  12.203
 8303W        W76521  43.740   9.278   4.268
 8304W        W76522   2.100  14.668  11.304
 8305W        W76523   3.918  39.507   2.993
 8306W        W76524  16.330  38.324  12.217
 8307W        W76525   8.198  36.939  12.912
 8308W        W76526  24.535  24.949  14.790
 8309W        W76527  10.719  26.484   0.786
 8310W        W76528  34.440   1.503  11.327
 8311W        W76529  16.093  35.328  11.646
 8312W        W76530  26.043  44.533  11.992
 8313W        W76531  37.533  42.074   3.091
 8314W        W76532  30.411  35.048  11.143
 8315W        W76533   9.429  28.043   3.009
 8316W        W76534  23.514  20.475  13.922
 8317W        W76535   2.468  28.587  11.178
 8318W        W76536  17.201  27.031  10.889
 8319W        W76537  27.168  26.572   4.569
 8320W        W76538  40.273  18.626   0.524
 8321W        W76539  40.413  31.084  14.305
 8322W        W76540  42.343  33.875  11.632
 8323W        W76541  24.067  20.494  11.487
 8324W        W76542  14.801  19.078  12.338
 8325W        W76543  32.881  12.847   4.071
 8326W        W76544  44.967  11.483   0.167
 8327W        W76545  18.506  20.348  10.886
 8328W        W76546  41.993  22.506   4.797
 8329W        W76547   4.519  39.378  11.146
 8330W        W76548  30.726  32.898   1.230
 8331W        W76549   8.522  27.483  13.901
 8332W        W76550  38.128  29.171  14.379
 8333W        W76551  29.256  35.714   4.489
 8334W        W76552  15.123  25.851  11.341
 8335W        W76553  31.450   6.358   2.796
 8336W        W76554  42.233  36.709   2.911
 8337W        W76555   6.150  25.056  10.751
 8338W        W76556  37.533  31.676  11.943
 8339W        W76557  27.947  23.589  11.417
 8340W        W76558  33.074  22.646   3.732
 8341W        W76559   1.628   2.578  14.240
 8342W        W76560  28.022   5.314  11.777
 8343W        W76561  38.792  24.621   1.859
 8344W        W76562  43.391  11.674  10.469
 8345W        W76563  36.633   8.810   3.399
 8346W        W76564  21.243  37.151  10.339
 8347W        W76565  43.884  19.056   1.329
 8348W        W76566  18.123  23.386   3.730
 8349W        W76567  10.729   6.323  14.357
 8350W        W76568  32.129  39.824   2.335
 8351W        W76569   1.876  36.527   4.652
 8352W        W76570  42.216  19.189  10.695
 8353W        W76571  34.652   2.316   2.391
 8354W        W76572  26.133  17.198  10.294
 8355W        W76573  11.461  34.058  13.801
 8356W        W76574  15.782   4.706  14.489
 8357W        W76575   6.639  42.351  12.573
 8358W        W76576  18.087  20.299  11.610
 8359W        W76577  35.650   1.196  10.501
 8360W        W76578  24.467  13.185  13.096
 8361W        W76579  27.559  22.960  11.536
 8362W        W76580  43.128   7.356  11.937
 8363W        W76581  23.619  26.202  13.038
 8364W        W76582   9.632  20.773  13.411
 8365W        W76583  39.017  18.855   1.357
 8366W        W76584  32.902  18.277  14.371
 8367W        W76585   4.889  10.120  14.607
 8368W        W76586  24.463  37.825   3.761
 8369W        W76587  44.962  28.679  12.039
 8370W        W76588  40.380  11.720   0.487
 8371W        W76589  35.043   3.798   0.819
 8372W        W76590  26.737  24.274   4.571
 8373W        W76591  20.078  16.302   5.193
 8374W        W76592   9.698   5.733   0.810
 8375W        W76593  38.419  15.361  12.123
 8376W        W76594  17.692  37.877  14.832
 8377W        W76595  43.283  33.336   3.649
 8378W        W76596   8.864  13.020  12.963
 8379W        W76597  25.088  19.874  13.570
 8380W        W76598  25.156  21.267  14.818
 8381W        W76599  39.922   2.753   1.368
 8382W        W76600  21.546  42.134  13.192
 8383W        W76601  26.436  28.587  10.691
 8384W        W76602  15.813  33.633   0.461
 8385W        W76603  20.612  44.471   1.312
 8386W        W76604  12.072  17.049   4.972
 8387W        W76605  21.801   8.565  11.976
 8388W        W76606  10.271  29.226  13.995
 8389W        W76607  30.532  29.756   4.677
 8390W        W76608   1.511   0.312  13.983
 8391W        W76609   1.979  41.375   2.565
 8392W        W76610  33.099  34.024  11.643
 8393W        W76611  34.054  13.819  10.640
 8394W        W76612  12.372  11.674   4.049
 8395W        W76613  34.637  17.811  14.516
 8396W        W76614  19.044  12.335   4.013
 8397W        W76615   5.511   4.846  12.301
 8398W        W76616  27.489  37.967   0.715
 8399W        W76617  33.852  44.476   1.392
 8400W        W76618  11.773  17.512   2.146
 8401W        W76619  19.702   5.369   2.359
 8402W        W76620  18.333  38.666  14.577
 8403W        W76621   3.255  41.313   4.101
 8404W        W76622   1.348  39.365   4.589
 8405W        W76623  43.159   9.547  12.489
 8406W        W76624  44.665   2.906  11.999
 8407W        W76625  24.515   5.640   2.866
 8408W        W76626  14.605  10.858   2.251
 8409W        W76627  34.061  26.179   2.325
 8410W        W76628  14.379  19.017  14.467
 8411W        W76629   6.828  10.286   0.966
 8412W        W76630  38.451  17.600  14.090
 8413W        W76631  24.593   5.117  10.510
 8414W        W76632  13.282  36.499   4.271
 8415W        W76633  29.035  37.325  13.865
 8416W        W76634   9.786  19.197  10.709
 8417W        W76635  18.078   4.262   3.740
 8418W        W76636  33.622  43.699   4.154
 8419W        W76637  42.341  40.947   4.724
 8420W        W76638  12.843  33.059   2.224
 8421W        W76639  15.213  41.749  11.670
 8422W        W76640   5.875  21.816   3.624
 8423W        W76641   7.408  40.888  12.382
 8424W        W76642  26.620  30.696  10.734
 8425W        W76643  42.051  39.069   0.854
 8426W        W76644  30.496   4.114   1.442
 8427W        W76645   5.893  20.546   1.820
 8428W        W76646  38.560  44.359  11.586
 8429W        W76647  21.789  17.711  14.890
 8430W        W76648  23.591  13.821   1.458
 8431W        W76649  36.461  23.448   2.869
 8432W        W76650   9.317  17.077   0.004
 8433W        W76651  32.019  25.894  13.466
 8434W        W76652  37.993  43.536  13.983
 8435W        W76653  34.459  36.065  13.404
 8436W        W76654  24.668  38.541  14.757
 8437W        W76655   9.579  17.457   2.864
 8438W        W76656  37.792   0.718   3.786
 8439W        W76657  11.234  26.850   0.270
 8440W        W76658   5.274   5.173  14.514
 8441W        W76659  30.089  11.169  11.251
 8442W        W76660  37.471  11.611  13.962
 8443W        W76661   6.229  36.981  12.646
 8444W        W76662   8.945  28.234  11.468
 8445W        W76663   1.815  13.356   0.817
 8446W        W76664  27.765  22.592  13.497
 8447W        W76665  11.205  30.096  13.376
 8448W        W76666  22.445  17.243   2.758
 8449W        W76667  18.201  14.425   2.195
 8450W        W76668  14.313  36.393   5.028
 8451W        W76669  40.385  19.977   4.093
 8452W        W76670  34.266  21.590   1.315
 8453W        W76671  32.735   5.947   0.323
 8454W        W76672  37.776  41.512   1.236
 8455W        W76673  15.114   1.187   2.177
 8456W        W76674  11.630   8.535  11.450
 8457W        W76675   6.246  17.540  11.971
 8458W        W76676  39.409  22.669  14.833
 8459W        W76677   0.285  40.800  11.650
 8460W        W76678  41.447  13.852   1.935
 8461W        W76679   6.249  10.891  12.717
 8462W        W76680   7.776   2.818  14.335
 8463W        W76681  41.363  44.069  13.390
 8464W        W76682   6.815  43.929  11.451
 8465W        W76683  21.618   2.748   0.753
 8466W        W76684  14.123  28.958   3.691
 8467W        W76685  24.228   6.961   0.237
 8468W        W76686  23.492  19.030   3.583
 8469W        W76687  27.084  28.855  10.649
 8470W        W76688  12.538  13.040   4.819
 8471W        W76689  13.389  20.756  10.626
 8472W        W76690  36.547  44.223  10.410
 8473W        W76691  41.871  17.209   2.833
 8474W        W76692  27.383   6.911  10.509
 8475W        W76693  28.903  44.388   1.804
 8476W        W76694  36.837  20.605   0.633
 8477W        W76695  20.565  29.161  11.546
 8478W        W76696  30.369  10.049   0.902
 8479W        W76697  32.556  22.544   3.888
 8480W        W76698   0.301  29.418   3.160
 8481W        W76699  40.164  17.131  12.390
 8482W        W76700   9.919  31.236   1.859
 8483W        W76701  23.291  42.910   5.035
 8484W        W76702  27.919  27.480   3.403
 8485W        W76703  15.230  17.686  13.959
 8486W        W76704  38.436  42.817  10.679
 8487W        W76705  15.527   2.775  11.638
 8488W        W76706  14.772  32.612  10.706
 8489W        W76707  29.795   6.887   0.175
 8490W        W76708  16.319  33.109   0.388
 8491W        W76709   1.951   6.951   3.648
 8492W        W76710  40.120  19.711  14.498
 8493W        W76711  28.917  34.247  14.287
 8494W        W76712   1.379  43.734  11.221
 8495W        W76713  36.229   8.195  12.366
 8496W        W76714  42.946   9.608   3.830
 8497W        W76715   2.881   9.155  10.734
 8498W        W76716  20.061   3.479  13.323
 8499W        W76717   8.774   7.191   1.284
 8500W        W76718  21.127  34.331  11.214
 8501W        W76719  32.705  21.859  14.049
 8502W        W76720   3.161  11.826  13.963
 8503W        W76721   8.906  23.117   0.389
 8504W        W76722  25.673   0.129   3.145
 8505W        W76723   6.629  25.590   0.900
 8506W        W76724   3.995  23.068   0.725
 8507W        W76725  12.854  27.257   4.293
 8508W        W76726  15.381  35.102  10.938
 8509W        W76727  17.941   8.208   0.942
 8510W        W76728  40.383  22.001   0.421
 8511W        W76729  11.150   6.278   0.429
 8512W        W76730  30.119  37.201   1.301
 8513W        W76731   0.299   3.911   4.332
 8514W        W76732   0.181  26.691   0.836
 8515W        W76733  13.541  41.358  13.538
 8516W        W76734  39.548   2.916  12.072
 8517W        W76735  23.976  32.067  13.806
 8518W        W76736  11.735  44.531  10.529
 8519W        W76737  27.995  18.063  13.529
 8520W        W76738  36.805  11.222   3.803
 8521W        W76739   5.167  43.571  13.847
 8522W        W76740  38.241  25.871   4.792
 8523W        W76741  25.158  20.273   0.842
 8524W        W76742  30.596  20.197  12.097
 8525W        W76743   5.665  17.757  10.597
 8526W        W76744  33.579  16.142   4.169
 8527W        W76745  23.508  34.955   9.709
 8528W        W76746  12.562   9.579  14.996
 8529W        W76747  24.227   7.745   0.801
 8530W        W76748  27.606  24.469  13.969
 8531W        W76749   0.255  30.208   4.111
 8532W        W76750  32.271  20.926  12.598
 8533W        W76751   6.343  36.439   3.490
 8534W        W76752  10.894  37.129   2.774
 8535W        W76753   0.050  31.710   1.321
 8536W        W76754   4.257  40.241  13.982
 8537W        W76755   3.963   1.252  11.595
 8538W        W76756  36.375  15.870   0.464
 8539W        W76757  37.648  24.137   2.443
 8540W        W76758  44.941  19.544  14.111
 8541W        W76759  11.578  11.172  14.519
 8542W        W76760  35.968   4.162   1.813
 8543W        W76761  19.944  28.588  13.845
 8544W        W76762  41.738  25.236  13.047
 8545W        W76763  23.661  39.483   3.650
 8546W        W76764   6.690  19.838  11.949
 8547W        W76765  20.576  43.576   2.354
 8548W        W76766  22.200  27.661   1.937
 8549W        W76767  13.853  36.034  14.410
 8550W        W76768  14.716  31.271  11.989
 8551W        W76769   7.922  22.771   4.165
 8552W        W76770  42.085   5.338   1.261
 8553W        W76771   4.730  28.211  11.774
 8554W        W76772  23.577  21.207  12.857
 8555W        W76773  43.791  10.643   2.162
 8556W        W76774  39.480   9.961   3.619
 8557W        W76775   3.765  42.744   1.833
 8558W        W76776  43.729  34.562   4.913
 8559W        W76777  23.541  42.309   2.273
 8560W        W76778  16.545  30.532  13.700
 8561W        W76779   7.785   6.212   1.312
 8562W        W76780   0.233  12.724   1.172
 8563W        W76781  34.011  14.039  14.308
 8564W        W76782  42.959  15.816  13.340
 8565W        W76783  42.991  27.646  12.941
 8566W        W76784  22.016   4.421   2.215
 8567W        W76785  31.014  23.983  14.837
 8568W        W76786  15.201  27.439   1.666
 8569W        W76787   5.137  43.432  11.568
 8570W        W76788  20.755  33.668   3.041
 8571W        W76789  37.972   4.729  14.341
 8572W        W76790  36.937  20.055  12.526
 8573W        W76791  16.184   0.008  10.821
 8574W        W76792  16.440  11.117  10.660
 8575W        W76793  37.897  22.545  11.990
 8576W        W76794  28.257  17.065  11.278
 8577W        W76795  12.119  30.405   3.316
 8578W        W76796   2.686  26.380   1.154
 8579W        W76797  37.703  37.630  13.759
 8580W        W76798  37.081   3.346   1.192
 8581W        W76799  37.958  43.602  11.579
 8582W        W76800  10.831  16.250  10.450
 8583W        W76801  32.379   2.760   2.619
 8584W        W76802   1.488  37.369  13.409
 8585W        W76803  34.244  13.694  11.116
 8586W        W76804  37.972  26.848  10.916
 8587W        W76805  25.047  19.585   3.188
 8588W        W76806  28.518  10.248  11.932
 8589W        W76807  22.686  43.824   0.191
 8590W        W76808  44.793   1.403   0.273
 8591W        W76809   4.949   3.271  10.291
 8592W        W76810  39.815  36.082   4.316
 8593W        W76811  37.614  28.619   4.285
 8594W        W76812  12.723  21.270  14.578
 8595W        W76813  31.908  16.336   1.854
 8596W        W76814  16.585   2.651  14.547
 8597W        W76815  11.235  23.012   0.983
 8598W        W76816  24.232   1.861  10.635
 8599W        W76817  34.813  13.283   1.757
 8600W        W76818  24.865  34.200  13.583
 8601W        W76819  33.624   2.875  13.183
 8602W        W76820   1.375  30.178   3.302
 8603W        W76821  30.647   3.110  11.078
 8604W        W76822  32.341  32.177   2.853
 8605W        W76823  40.988  12.602  10.800
 8606W        W76824  14.773  40.841  14.612
 8607W        W76825  21.773  37.848   5.520
 8608W        W76826  20.519   9.333   2.218
 8609W        W76827  18.076  38.256   2.321
 8610W        W76828  30.697  29.135   2.251
 8611W        W76829  43.317  25.048   2.223
 8612W        W76830  39.998  25.549  10.369
 8613W        W76831  36.793  22.677  14.859
 8614W        W76832  32.679  35.362  12.340
 8615W        W76833  15.220   5.969  11.088
 8616W        W76834  37.364  43.860   3.869
 8617W        W76835  13.421  16.703   3.077
 8618W        W76836   0.597   2.047   0.950
 8619W        W76837  35.880   0.850  10.205
 8620W        W76838  20.280  12.683   1.780
 8621W        W76839  40.466  39.044   2.250
 8622W        W76840  37.816  30.134  12.602
 8623W        W76841  28.021  42.839   4.609
 8624W        W76842  44.925  28.732  12.985
 8625W        W76843   9.569  26.280  12.162
 8626W        W76844  34.054  42.937   2.956
 8627W        W76845   2.202  22.588  13.469
 8628W        W76846  31.902  37.912  14.869
 8629W        W76847  43.112  17.576  14.454
 8630W        W76848  42.422  23.599   1.201
 8631W        W76849  20.016  16.955  11.384
 8632W        W76850  16.365  24.428   0.195
 8633W        W76851  24.904  24.340   3.651
 8634W        W76852  28.035   4.889  12.397
 8635W        W76853   7.087  39.071   3.380
 8636W        W76854  42.582  18.711  12.360
 8637W        W76855   3.299  12.092   0.752
 8638W        W76856  44.303  28.536   4.776
 8639W        W76857  12.860  11.541  14.715
 8640W        W76858  13.033  16.620  10.453
 8641W        W76859   4.126  18.617   0.952
 8642W        W76860  35.824  39.294  11.500
 8643W        W76861  11.780  15.336  13.208
 8644W        W76862  17.511   4.285  13.863
 8645W        W76863  18.290  21.912  14.509
 8646W        W76864  24.599  37.384   1.162
 8647W        W76865  24.095  12.143   3.844
 8648W        W76866   0.755   5.241   3.451
 8649W        W76867  39.418  42.514  11.441
 8650W        W76868  41.428  44.572  13.551
 8651W        W76869  24.715  24.993  12.457
 8652W        W76870  18.544  37.616  13.522
 8653W        W76871  34.682  15.350  10.992
 8654W        W76872  19.305   5.742   1.260
 8655W        W76873   7.147  13.405   2.692
 8656W        W76874  17.133  32.735   2.667
 8657W        W76875  10.847  28.607  11.589
 8658W        W76876  24.505  37.268  12.920
 8659W        W76877  10.794  35.440  10.538
 8660W        W76878  30.086  16.133  14.313
 8661W        W76879  35.367  23.091  14.611
 8662W        W76880  38.525   0.242   3.541
 8663W        W76881  19.124  30.266  12.025
 8664W        W76882   6.648  13.048   0.735
 8665W        W76883   2.919  41.563   2.732
 8666W        W76884   0.524  34.635  13.452
 8667W        W76885  17.544  32.912  14.920
 8668W        W76886   6.959  13.157  14.277
 8669W        W76887   4.402   9.876  11.289
 8670W        W76888  31.574  32.040   4.026
 8671W        W76889  33.206  36.170   1.406
 8672W        W76890  33.723  24.171  14.391
 8673W        W76891   2.975  17.405   3.127
 8674W        W76892  16.853  26.065  11.907
 8675W        W76893  13.172   6.376  14.391
 8676W        W76894  41.269  37.834  14.525
 8677W        W76895  14.272  25.062   0.052
 8678W        W76896  33.494  12.791  10.249
 8679W        W76897  16.356  10.596  10.401
 8680W        W76898  13.574  32.370   0.751
 8681W        W76899   6.734  20.530   1.173
 8682W        W76900  41.374   1.167   3.596
 8683W        W76901   4.763  31.150  14.435
 8684W        W76902  32.450  32.987  12.843
 8685W        W76903  18.612  44.116  12.392
 8686W        W76904   4.018   7.199   4.127
 8687W        W76905  21.521  28.727   0.824
 8688W        W76906  37.953  10.862   0.647
 8689W        W76907  20.950  25.890  11.043
 8690W        W76908  30.691  15.103  13.873
 8691W        W76909   2.208  11.279  11.120
 8692W        W76910  43.959  18.751  11.940
 8693W        W76911  21.775  16.004  13.438
 8694W        W76912  30.041  15.177   1.751
 8695W        W76913   9.841   2.448  13.566
 8696W        W76914  39.391   1.196  14.786
 8697W        W76915  44.402   3.276  12.601
 8698W        W76916  13.832  20.740   4.581
 8699W        W76917  36.431  17.763  10.740
 8700W        W76918  41.014  13.008  12.130
 8701W        W76919  27.077  20.618   0.244
 8702W        W76920  20.691  19.808  12.246
 8703W        W76921   5.808  42.327   0.354
 8704W        W76922  31.593  19.041   4.199
 8705W        W76923  43.173  29.607   1.767
 8706W        W76924   8.218  15.504   0.827
 8707W        W76925  38.363  18.111  12.162
 8708W        W76926   2.746  25.761   4.620
 8709W        W76927   4.716  19.568   4.159
 8710W        W76928  38.058  10.421   2.809
 8711W        W76929  40.777  22.566   2.712
 8712W        W76930  28.757  13.789   2.740
 8713W        W76931   2.707   7.987   1.761
 8714W        W76932   9.323  42.152   0.218
 8715W        W76933  13.821   7.196   4.790
 8716W        W76934   8.561  39.317   4.335
 8717W        W76935  20.562   8.606  12.956
 8718W        W76936  34.694   7.026  11.586
 8719W        W76937  32.124  23.646   3.337
 8720W        W76938  26.713   6.970   2.792
 8721W        W76939  38.980  12.730  13.037
 8722W        W76940  39.875  31.150  14.902
 8723W        W76941  33.539  23.672   1.289
 8724W        W76942   3.149  32.404   2.940
 8725W        W76943   7.336   0.361  13.452
 8726W        W76944  19.711  22.217   1.241
 8727W        W76945   6.146  16.087  13.460
 8728W        W76946  43.304  42.869  14.696
 8729W        W76947   5.229  16.263   1.179
 8730W        W76948  41.591  27.679   1.324
 8731W        W76949  37.390  17.817  13.985
 8732W        W76950  26.617  23.471   1.793
 8733W        W76951  23.563  30.076  11.263
 8734W        W76952  12.708  16.784  11.417
 8735W        W76953  29.573   0.643  12.490
 8736W        W76954   1.875  31.381  12.484
 8737W        W76955  30.812  25.573   1.898
 8738W        W76956  29.966   0.812  13.381
 8739W        W76957   7.358  27.478   1.845
 8740W        W76958  16.842  12.740   2.197
 8741W        W76959  25.593  18.021   3.924
 8742W        W76960  44.296  15.109   1.648
 8743W        W76961  44.456  15.373   0.862
 8744W        W76962  15.724  36.583  12.372
 8745W        W76963  31.056  42.119   1.749
 8746W        W76964  38.141  29.611  12.614
 8747W        W76965  28.261   1.426  13.403
 8748W        W76966   8.369  27.014   4.077
 8749W        W76967  42.094  31.478  11.195
 8750W        W76968   8.265  13.604   1.282
 8751W        W76969  40.482  17.597   4.696
 8752W        W76970  33.905  32.340   2.243
 8753W        W76971  40.729  44.107   2.116
 8754W        W76972   5.706  29.325   0.779
 8755W        W76973  14.916  23.017   2.410
 8756W        W76974  36.169  44.529   3.949
 8757W        W76975   3.379  32.146   2.233
 8758W        W76976  42.602  13.152  13.349
 8759W        W76977  39.124  11.400   3.313
 8760W        W76978  38.336  37.692   4.901
 8761W        W76979  16.543   4.645  13.094
 8762W        W76980  15.405  37.529   4.072
 8763W        W76981  12.779  24.714   1.509
 8764W        W76982  12.054   8.406   1.529
 8765W        W76983  36.281  17.458   2.879
 8766W        W76984  30.079   0.524  12.510
 8767W        W76985  17.222  43.349   4.592
 8768W        W76986  34.434  18.890   1.844
 8769W        W76987  43.946  16.861   2.916
 8770W        W76988  35.998  19.041  14.456
 8771W        W76989  24.231   2.739  13.998
 8772W        W76990  36.850  19.205  13.627
 8773W        W76991  36.089   7.202   4.914
 8774W        W76992  17.135  20.259   0.111
 8775W        W76993  37.325   7.791  11.615
 8776W        W76994  19.971  36.306  14.886
 8777W        W76995  32.816   9.949  13.808
 8778W        W76996  23.120   3.034   1.774
 8779W        W76997  39.850  23.608  10.509
 8780W        W76998  20.275  32.321   1.203
 8781W        W76999   3.972  15.051  12.892
 8782W        W77000  21.531  32.588  11.076
 8783W        W77001  43.007  40.730   1.995
 8784W        W77002  12.064   1.457  14.458
 8785W        W77003   1.204  28.702  11.545
 8786W        W77004  22.281   1.531   3.228
 8787W        W77005   6.688  36.611  13.511
 8788W        W77006   3.472   2.337  12.513
 8789W        W77007  42.545   3.821   4.037
 8790W        W77008  27.215   1.395  10.710
 8791W        W77009  20.014  34.336   1.058
 8792W        W77010   8.382   7.393   0.410
 8793W        W77011  38.301  17.759   4.680
 8794W        W77012  20.234   1.256  11.443
 8795W        W77013  42.509  15.867   3.744
 8796W        W77014  13.835  28.990   1.193
 8797W        W77015  17.599   8.916   2.691
 8798W        W77016  16.128  21.635  10.356
 8799W        W77017  23.240  34.717   4.050
 8800W        W77018  39.666  33.686   4.432
 8801W        W77019  15.282  31.224  14.032
 8802W        W77020  39.434   9.353  10.748
 8803W        W77021  44.539   0.129  11.477
 8804W        W77022  37.972   5.946   3.730
 8805W        W77023  40.960  17.444   4.581
 8806W        W77024  34.925  16.757  14.363
 8807W        W77025  31.403  35.554   2.324
 8808W        W77026  33.613  13.863   1.662
 8809W        W77027  15.166  23.462  11.965
 8810W        W77028  38.946   8.192  10.379
 8811W        W77029   5.468  34.246  13.564
 8812W        W77030  21.393  21.649   1.964
 8813W        W77031   8.768  35.319   3.832
 8814W        W77032  13.133   3.640  12.006
 8815W        W77033  11.083   0.506  13.475
 8816W        W77034  35.645  25.141  13.914
 8817W        W77035  42.956  21.478   5.028
 8818W        W77036   5.790  15.332  11.934
 8819W        W77037  44.899  36.756   4.573
 8820W        W77038  16.849  27.607  13.935
 8821W        W77039  43.422  11.826   1.205
 8822W        W77040  42.157  11.430   0.349
 8823W        W77041  22.409  44.364   0.860
 8824W        W77042  44.912   5.967  13.677
 8825W        W77043  14.642   8.359  13.379
 8826W        W77044  44.263   8.215   1.315
 8827W        W77045   2.260  32.694  12.728
 8828W        W77046   2.512  31.682  10.868
 8829W        W77047   6.347   5.944  14.463
 8830W        W77048  22.712  15.541   1.882
 8831W        W77049   5.510  34.910  13.674
 8832W        W77050  41.826  42.533  14.244
 8833W        W77051  17.027  19.599   4.403
 8834W        W77052  17.595  28.205   2.227
 8835W        W77053  23.982  15.637  13.721
 8836W        W77054  16.361  29.700  11.149
 8837W        W77055  17.457  28.972  12.859
 8838W        W77056  42.093  38.056   2.566
 8839W        W77057  14.860  43.977   3.080
 8840W        W77058  20.033   7.901   2.091
 8841W        W77059  30.938  44.567  14.916
 8842W        W77060  26.550   3.478   4.709
 8843W        W77061  37.016  28.152   1.580
 8844W        W77062  30.956  10.383  10.706
 8845W        W77063   7.886   6.932  13.031
 8846W        W77064  21.467  31.053   2.322
 8847W        W77065  13.882  21.755  14.964
 8848W        W77066  11.441  38.127  12.989
 8849W        W77067   6.492  31.049  14.371
 8850W        W77068  24.688  44.022  12.079
 8851W        W77069  22.131  20.732  14.713
 8852W        W77070  12.972  13.548  13.699
 8853W        W77071  42.027  39.614   1.824
 8854W        W77072  42.803   1.831   4.357
 8855W        W77073   1.460  25.540   3.334
 8856W        W77074  19.101  42.277   2.790
 8857W        W77075  13.270   4.301  14.277
 8858W        W77076  23.064  40.048   1.388
 8859W        W77077  35.498  31.995   4.596
 8860W        W77078  15.292  34.609  10.750
 8861W        W77079  29.593  27.406   1.281
 8862W        W77080  10.287   8.672  13.436
 8863W        W77081  21.838   0.505  11.068
 8864W        W77082  18.840  33.486   0.282
 8865W        W77083  23.779   7.892  11.967
 8866W        W77084  28.026  39.342  11.102
 8867W        W77085  13.523  23.856  11.734
 8868W        W77086  19.053  36.341  12.486
 8869W        W77087  38.880   0.278  11.250
 8870W        W77088  40.000   6.405   3.934
 8871W        W77089  11.455  40.269   3.650
 8872W        W77090  37.112  23.058  12.501
 8873W        W77091  13.533  32.484  14.840
 8874W        W77092  10.662  16.260  13.161
 8875W        W77093  12.094  10.810   1.909
 8876W        W77094  39.893  21.559   3.687
 8877W        W77095   9.711  39.481   3.641
 8878W        W77096  39.872  16.707  11.464
 8879W        W77097   2.894   1.941   2.137
 8880W        W77098   2.766  44.568   1.273
 8881W        W77099  39.694  13.850  13.360
 8882W        W77100  33.358  23.755  10.133
 8883W        W77101  21.969  34.828  12.091
 8884W        W77102  12.258   4.617  12.951
 8885W        W77103  24.643  25.397  13.332
 8886W        W77104   9.800  34.049   4.201
 8887W        W77105   4.384  14.306  12.512
 8888W        W77106  38.338  22.205  12.032
 8889W        W77107  37.728  10.196   2.457
 8890W        W77108  10.594  35.331   3.235
 8891W        W77109  28.663  16.785  12.122
 8892W        W77110  27.051  14.284   4.072
 8893W        W77111  27.507  30.969  12.624
 8894W        W77112  44.824  42.387  12.859
 8895W        W77113  43.751  31.243  12.868
 8896W        W77114  23.261   5.974  11.361
 8897W        W77115  10.340  41.672   5.164
 8898W        W77116  43.290   4.194  13.798
 8899W        W77117  37.363  41.804   5.257
 8900W        W77118  33.942  29.123  12.043
 8901W        W77119  20.480  38.281   2.073
 8902W        W77120  27.084   6.240   0.786
 8903W        W77121  28.853  16.161  12.672
 8904W        W77122  43.514  32.295   3.750
 8905W        W77123  43.940  43.344   4.366
 8906W        W77124   4.351  12.050   1.303
 8907W        W77125  13.093  29.585   4.525
 8908W        W77126  15.081  38.946  14.894
 8909W        W77127  43.578  41.980   2.632
 8910W        W77128  11.663  13.925  12.899
 8911W        W77129  11.955  35.628   2.248
 8912W        W77130  19.125  18.112  12.126
 8913W        W77131  19.066   6.742  14.661
 8914W        W77132  40.547   1.877  12.115
 8915W        W77133   8.508  43.926   4.575
 8916W        W77134  19.656   0.795  10.588
 8917W        W77135   6.506  12.750   2.282
 8918W        W77136  37.982  20.626   2.134
 8919W        W77137  27.432  19.742   3.149
 8920W        W77138  39.432  25.963  11.865
 8921W        W77139  28.666   6.685   0.800
 8922W        W77140  41.721   6.602   1.770
 8923W        W77141   8.791  24.217   2.362
 8924W        W77142  13.561   6.413  13.432
 8925W        W77143  33.842  27.077   1.408
 8926W        W77144  33.128  30.801  14.851
 8927W        W77145   1.058  15.821  13.362
 8928W        W77146   2.252  43.981  13.921
 8929W        W77147   1.388   8.656  14.865
 8930W        W77148   4.084  21.911   2.771
 8931W        W77149   7.820  37.063   3.347
 8932W        W77150   5.442  12.341   2.221
 8933W        W77151  19.895  43.013  12.904
 8934W        W77152  38.565  12.309   4.107
 8935W        W77153  30.942  15.139  12.966
 8936W        W77154  22.014  44.940   4.572
 8937W        W77155  30.722  42.961   3.750
 8938W        W77156   2.248  18.149   5.002
 8939W        W77157  33.125   7.101  11.495
 8940W        W77158  14.302  23.716  11.674
 8941W        W77159  14.094  12.311   3.994
 8942W        W77160  40.341  10.925   2.352
 8943W        W77161  29.820  19.040  12.981
 8944W        W77162  42.289  29.408   1.725
 8945W        W77163  21.498   1.852  13.983
 8946W        W77164  32.538  38.432   1.417
 8947W        W77165  40.358  37.883  13.102
 8948W        W77166  35.459  30.545   3.645
 8949W        W77167  10.766  17.232   1.352
 8950W        W77168  17.652  30.575   2.698
 8951W        W77169  27.298  44.839  12.688
 8952W        W77170  36.495  13.208  11.589
 8953W        W77171  41.892  29.391  12.081
 8954W        W77172  21.189   8.348   3.350
 8955W        W77173  43.572  22.177  12.965
 8956W        W77174  39.571  32.026  11.679
 8957W        W77175  10.156   9.122  12.445
 8958W        W77176   7.159  21.042  14.427
 8959W        W77177  33.570   0.721   2.720
 8960W        W77178  26.980  28.558  14.304
 8961W        W77179  42.069  41.727   3.350
 8962W        W77180  43.463  43.027  11.166
 8963W        W77181  35.042  29.223   4.700
 8964W        W77182   7.902  39.571  12.508
 8965W        W77183  32.550  15.215  13.933
 8966W        W77184   7.515   5.670  13.075
 8967W        W77185   0.026  14.712  12.928
 8968W        W77186   8.653  26.587   2.657
 8969W        W77187  37.173  17.063  11.082
 8970W        W77188  24.048  22.152  12.064
 8971W        W77189  18.866   6.499   2.675
 8972W        W77190  28.398  20.235  12.824
 8973W        W77191  21.926  10.317   2.719
 8974W        W77192  14.587  37.164   3.761
 8975W        W77193  31.534  42.343  12.590
 8976W        W77194   6.576  22.817  11.109
 8977W        W77195   2.664  26.869   2.089
 8978W        W77196  16.022  39.914  14.761
 8979W        W77197  28.708  29.006  14.648
 8980W        W77198  39.557   4.709   0.453
 8981W        W77199  41.314  34.433   0.928
 8982W        W77200  39.276  38.430  12.098
 8983W        W77201  34.296   9.353   3.692
 8984W        W77202  30.962  27.186   2.883
 8985W        W77203  41.993   5.656  11.644
 8986W        W77204  24.924   6.776  13.460
 8987W        W77205   6.451  11.866  11.686
 8988W        W77206  43.306  20.012   5.026
 8989W        W77207  29.367  21.763   0.209
 8990W        W77208  16.920  23.142   0.225
 8991W        W77209   0.510  18.288   4.615
 8992W        W77210  13.212  17.337   3.599
 8993W        W77211  14.866  13.917  14.361
 8994W        W77212   0.724  34.621  14.857
 8995W        W77213   2.164  12.077  13.981
 8996W        W77214  12.126  32.378  12.917
 8997W        W77215  39.409  35.649   4.595
 8998W        W77216  43.498  11.845  13.706
 8999W        W77217  21.186  35.124  13.452
 9000W        W77218   4.962  38.519  14.111
 9001W        W77219  13.265   3.185  11.263
 9002W        W77220  31.618   2.163   2.718
 9003W        W77221  38.206  25.180   2.631
 9004W        W77222  20.447  36.650   3.317
 9005W        W77223   8.836  32.626   2.298
 9006W        W77224  30.424  39.229   1.539
 9007W        W77225  13.020  42.652  11.910
 9008W        W77226  29.579  44.237  14.600
 9009W        W77227  41.472  28.060   3.562
 9010W        W77228  29.625   9.930   4.148
 9011W        W77229   9.647  34.606   2.330
 9012W        W77230   7.685  44.005  12.875
 9013W        W77231  30.164   3.258  10.987
 9014W        W77232  31.178  18.359   3.652
 9015W        W77233   4.839  31.518   3.156
 9016W        W77234  44.451  25.307  13.764
 9017W        W77235  17.654  26.987   3.246
 9018W        W77236  24.861  40.501  14.269
 9019W        W77237  14.263  14.853   4.062
 9020W        W77238  12.358  23.346   1.536
 9021W        W77239   8.323  42.294   3.811
 9022W        W77240  22.993  33.361  11.779
 9023W        W77241  29.644  32.218   3.401
 9024W        W77242   4.990  27.741  13.913
 9025W        W77243  41.875  34.018   1.832
 9026W        W77244   2.235  21.632  11.761
 9027W        W77245  29.384  38.832   2.803
 9028W        W77246  23.112  41.203  13.005
 9029W        W77247   1.311  11.803   4.131
 9030W        W77248  15.215   2.007  10.564
 9031W        W77249   7.591  22.195  14.093
 9032W        W77250  21.033  29.649  13.040
 9033W        W77251  35.941   2.014  13.774
 9034W        W77252  29.866   6.209  14.725
 9035W        W77253  39.912  11.874   0.667
 9036W        W77254  17.251  30.015  12.487
 9037W        W77255  26.972  36.468   4.184
 9038W        W77256  26.719  13.228   0.680
 9039W        W77257  22.741   9.382   3.202
 9040W        W77258  36.555  32.621  12.023
 9041W        W77259  21.516  30.883  12.104
 9042W        W77260   2.031   1.778  13.948
 9043W        W77261  33.064  14.861  11.471
 9044W        W77262   6.737  19.002  10.593
 9045W        W77263  34.516  23.947   3.138
 9046W        W77264  19.219   3.902   1.395
 9047W        W77265   2.772   3.918   2.953
 9048W        W77266  36.236  19.353  11.578
 9049W        W77267  26.720  37.060  12.037
 9050W        W77268  39.094  39.567   2.411
 9051W        W77269  42.865   2.814   2.395
 9052W        W77270  12.831   1.907  13.762
 9053W        W77271   8.300  16.334   4.096
 9054W        W77272  32.985  44.866   4.723
 9055W        W77273   5.278  14.822   4.062
 9056W        W77274  20.022  14.794   2.139
 9057W        W77275  35.105  30.527  10.675
 9058W        W77276  36.369  21.740   4.223
 9059W        W77277  30.125   5.951   2.725
 9060W        W77278  35.071  35.494  14.937
 9061W        W77279  23.893  38.403   3.592
 9062W        W77280  30.625   9.648  11.568
 9063W        W77281   5.397  33.521   1.255
 9064W        W77282  23.285   6.724  13.678
 9065W        W77283  20.692  23.102   1.198
 9066W        W77284  36.346   6.280  13.975
 9067W        W77285   0.781  41.996   0.971
 9068W        W77286  11.341   7.213  14.850
 9069W        W77287   2.767  35.976  11.699
 9070W        W77288   9.413  23.103   0.462
 9071W        W77289  13.899   2.259   3.750
 9072W        W77290  30.610  22.046  12.457
 9073W        W77291  33.872  43.491  14.005
 9074W        W77292  10.355   6.307  14.878
 9075W        W77293  44.289  44.007   2.170
 9076W        W77294  41.009   8.257   3.994
 9077W        W77295  29.321  15.297   1.157
 9078W        W77296  31.393  11.778   2.277
 9079W        W77297  19.361   4.419  13.901
 9080W        W77298  12.045  14.209   4.599
 9081W        W77299  28.257  33.139  11.106
 9082W        W77300  27.539  16.883  11.508
 9083W        W77301  21.225  36.503  10.973
 9084W        W77302  40.171  20.772   2.720
 9085W        W77303  21.476  31.515   1.616
 9086W        W77304  10.251   9.012  12.964
 9087W        W77305   9.625  40.916  11.961
 9088W        W77306   9.212  32.664  14.043
 9089W        W77307  36.464   1.287  12.629
 9090W        W77308  28.219   0.199   0.184
 9091W        W77309  30.450  21.035   4.502
 9092W        W77310   1.830  44.209   1.471
 9093W        W77311  32.803  43.929   2.258
 9094W        W77312  14.279  24.105   0.750
 9095W        W77313  16.618  35.327  11.033
 9096W        W77314  43.309   2.727  14.081
 9097W        W77315   4.735  38.146  11.638
 9098W        W77316   4.623   5.631   4.195
 9099W        W77317  34.930   2.759   2.240
 9100W        W77318   9.853   3.907   0.859
 9101W        W77319   3.344   7.435   2.851
 9102W        W77320  26.978  30.603   4.995
 9103W        W77321   9.886   6.009  10.764
 9104W        W77322  20.507  26.886  10.061
 9105W        W77323  34.610  42.762   1.225
 9106W        W77324  22.513  34.516   2.909
 9107W        W77325  29.844  28.419  13.781
 9108W        W77326  10.852   5.636   3.638
 9109W        W77327  12.978   0.626   4.999
 9110W        W77328  18.802  27.569   4.352
 9111W        W77329  33.177   8.118   3.186
 9112W        W77330  25.418  33.720  12.517
 9113W        W77331   8.192  41.914   0.999
 9114W        W77332  14.060   8.238   2.480
 9115W        W77333   1.826   7.590  14.142
 9116W        W77334  10.253  41.525   1.086
 9117W        W77335  25.580   2.368   4.617
 9118W        W77336  10.318  38.774  11.465
 9119W        W77337  24.426  20.160  11.620
 9120W        W77338   5.956  24.694  12.475
 9121W        W77339  20.247  29.022  12.502
 9122W        W77340  10.552  16.673  12.089
 9123W        W77341  43.462  42.696   1.838
 9124W        W77342  12.897   9.165   1.361
 9125W        W77343  19.626  36.085  10.659
 9126W        W77344  11.903  12.268  14.665
 9127W        W77345  39.073  22.497   1.198
 9128W        W77346   9.237  32.113   3.281
 9129W        W77347  38.106  39.241   3.163
 9130W        W77348  14.177   1.949   1.874
 9131W        W77349   0.764  25.273  14.560
 9132W        W77350  19.008  21.092  13.523
 9133W        W77351  25.963   6.192   3.537
 9134W        W77352   2.862  19.093  11.226
 9135W        W77353  23.242  17.190  12.045
 9136W        W77354  32.325   1.455   0.318
 9137W        W77355  17.344  39.790   0.366
 9138W        W77356  42.877  31.608  14.951
 9139W        W77357  36.467  24.750   2.333
 9140W        W77358  10.681  13.500  11.675
 9141W        W77359  26.330  40.354  10.710
 9142W        W77360   1.663  24.589  13.978
 9143W        W77361  29.406  12.857  13.264
 9144W        W77362   5.912  26.731   3.683
 9145W        W77363  44.969  34.021   2.296
 9146W        W77364  36.454   9.451  10.716
 9147W        W77365   3.194  29.740   0.492
 9148W        W77366  44.503  33.052   4.302
 9149W        W77367   6.628  35.603   2.855
 9150W        W77368  37.864  28.144   4.162
 9151W        W77369  42.053  42.826   3.287
 9152W        W77370   9.183  23.039   4.506
 9153W        W77371  32.613  41.408  12.631
 9154W        W77372  20.517  27.546  13.365
 9155W        W77373  38.396  40.894   2.826
 9156W        W77374  18.886   4.291  13.036
 9157W        W77375  33.253   1.895   5.072
 9158W        W77376  22.167   7.649  11.124
 9159W        W77377  18.019   0.241   2.704
 9160W        W77378  17.060  14.505   3.627
 9161W        W77379  10.815  23.012   0.270
 9162W        W77380  22.176   4.857  14.351
 9163W        W77381  25.677  15.540  14.335
 9164W        W77382   3.714   3.938  11.920
 9165W        W77383   9.750   2.702   0.331
 9166W        W77384  35.378   6.992   0.453
 9167W        W77385  14.510  25.421   0.379
 9168W        W77386  14.282  17.703   4.105
 9169W        W77387  30.866  30.160   1.335
 9170W        W77388  25.422   9.718   1.892
 9171W        W77389  25.612  12.295  14.815
 9172W        W77390  11.225  26.559   4.924
 9173W        W77391   0.068  36.116  12.057
 9174W        W77392  31.920  39.341   3.220
 9175W        W77393   8.767  40.974  10.250
 9176W        W77394  26.904   8.625   4.937
 9177W        W77395  20.695  39.972   2.398
 9178W        W77396  17.810  26.150  14.444
 9179W        W77397  25.258  23.129   0.808
 9180W        W77398  22.723  19.151  13.305
 9181W        W77399  38.036  24.777   3.239
 9182W        W77400   9.548   7.708  12.639
 9183W        W77401  37.928   2.726  13.390
 9184W        W77402  13.133  30.528  13.501
 9185W        W77403  12.164  32.833  11.528
 9186W        W77404  20.818   9.614  11.071
 9187W        W77405  32.542  30.656   2.578
 9188W        W77406  26.324  30.490  10.340
 9189W        W77407   3.941  27.666   4.155
 9190W        W77408  25.973  12.231   3.342
 9191W        W77409  16.460  36.544  12.987
 9192W        W77410   5.173   9.407   2.421
 9193W        W77411  21.581   3.484  12.982
 9194W        W77412   9.644  19.127  14.210
 9195W        W77413  33.958  43.193  11.763
 9196W        W77414  31.941  37.642   3.035
 9197W        W77415  42.362  14.562  13.535
 9198W        W77416  27.104  28.225  13.465
 9199W        W77417   1.831   3.611   1.910
 9200W        W77418  19.303  14.559  12.007
 9201W        W77419  26.935  15.019  13.003
 9202W        W77420  41.045  40.113   1.837
 9203W        W77421   3.745  39.937   5.004
 9204W        W77422  21.706  42.506   2.697
 9205W        W77423  26.148  25.433  12.389
 9206W        W77424   9.649  34.352  11.011
 9207W        W77425   5.876  21.090   0.510
 9208W        W77426   5.781  11.650  12.703
 9209W        W77427   5.022   3.532  13.023
 9210W        W77428  30.342  37.341   3.325
 9211W        W77429  16.144  37.957   1.484
 9212W        W77430  10.787  37.127   1.890
 9213W        W77431  27.052  16.304  12.304
 9214W        W77432  42.404  38.423   4.716
 9215W        W77433  14.151  37.069   2.735
 9216W        W77434  28.514  37.598   2.529
 9217W        W77435  16.998  21.918  14.783
 9218W        W77436   3.317  40.207  14.232
 9219W        W77437   2.783  43.146  10.634
 9220W        W77438  38.734  17.764   2.592
 9221W        W77439  34.189  33.977   1.289
 9222W        W77440  34.926  44.875   2.372
 9223W        W77441   6.410   8.927   0.242
 9224W        W77442  12.088  36.101  14.083
 9225W        W77443  24.609  10.639  12.103
 9226W        W77444  40.181  26.948   4.187
 9227W        W77445  22.729  31.004   1.650
 9228W        W77446  44.261  11.783  10.543
 9229W        W77447  40.543  36.104  12.082
 9230W        W77448   1.275  43.534  14.302
 9231W        W77449  14.776  33.270   2.164
 9232W        W77450   8.413  37.133  14.295
 9233W        W77451  31.019   6.349  14.319
 9234W        W77452  30.367  27.536   3.708
 9235W        W77453   5.179  14.182  11.271
 9236W        W77454  34.655   7.829   0.900
 9237W        W77455   1.005  42.882  11.776
 9238W        W77456   6.511  39.681   9.759
 9239W        W77457   2.321  39.553  13.041
 9240W        W77458  14.375  16.406  13.023
 9241W        W77459  18.144  17.847   0.252
 9242W        W77460  31.159  23.985   0.359
 9243W        W77461  15.036  41.444   3.250
 9244W        W77462  39.159  24.168   4.155
 9245W        W77463  33.398  35.599  12.854
 9246W        W77464   5.430  14.066   3.728
 9247W        W77465  18.147   6.657   2.739
 9248W        W77466  12.591   9.909   4.714
 9249W        W77467   2.357  16.594   1.963
 9250W        W77468   2.366  17.900   0.380
 9251W        W77469   5.256  26.537   4.294
 9252W        W77470  41.570   4.701   5.002
 9253W        W77471  15.174  18.064   2.742
 9254W        W77472  40.459  42.821   1.732
 9255W        W77473  34.836  23.459  13.551
 9256W        W77474  29.784  35.993   0.758
 9257W        W77475  23.319  40.018   0.942
 9258W        W77476   7.340  30.175   4.374
 9259W        W77477  16.992  22.211   4.269
 9260W        W77478  10.687  33.503  10.491
 9261W        W77479  30.109  34.173   1.821
 9262W        W77480   8.640  32.506   1.354
 9263W        W77481   2.911  10.544   2.488
 9264W        W77482   4.687   9.416   0.274
 9265W        W77483  42.205   9.185   2.308
 9266W        W77484  33.570  39.933  14.083
 9267W        W77485  42.974  25.486  12.402
 9268W        W77486  13.959   3.801   1.040
 9269W        W77487  11.302  37.584  11.970
 9270W        W77488  17.258  13.886  14.914
 9271W        W77489  28.315   0.268   1.521
 9272W        W77490  17.795  17.027   1.751
 9273W        W77491  13.623   5.469  14.320
 9274W        W77492  11.618   9.749  13.391
 9275W        W77493  24.426  35.394  12.128
 9276W        W77494  40.814   8.585   0.893
 9277W        W77495  32.380  28.647   3.048
 9278W        W77496  23.304   4.200  12.122
 9279W        W77497  30.217  16.897  12.063
 9280W        W77498   0.923  19.508   1.857
 9281W        W77499  18.447  18.680  13.783
 9282W        W77500  19.248  30.003   3.202
 9283W        W77501  26.442  11.859   1.825
 9284W        W77502   2.193  43.033   2.348
 9285W        W77503  29.045   8.819  11.061
 9286W        W77504  22.637   4.652  13.539
 9287W        W77505  23.258  29.454   3.272
 9288W        W77506  33.163  33.043   3.812
 9289W        W77507   5.010  18.744  11.140
 9290W        W77508  12.549  18.247  12.950
 9291W        W77509  18.199  15.834   2.153
 9292W        W77510  41.332  40.936  11.223
 9293W        W77511   7.788  37.088  12.610
 9294W        W77512  21.748  14.074  13.836
 9295W        W77513  29.792   9.200   1.439
 9296W        W77514  44.761   7.483   3.251
 9297W        W77515  32.601  18.604   4.576
 9298W        W77516  28.786  18.326   9.850
 9299W        W77517   0.987  40.327   1.280
 9300W        W77518  24.276  13.660  11.127
 9301W        W77519  14.381   3.332  13.059
 9302W        W77520  11.129   9.885  13.392
 9303W        W77521  33.989  12.330   4.486
 9304W        W77522  21.770   1.906  11.898
 9305W        W77523   0.536  15.852   2.280
 9306W        W77524  34.890  12.473  12.630
 9307W        W77525  24.540   3.802  13.574
 9308W        W77526  25.422  20.189   4.379
 9309W        W77527  27.490  17.606   1.272
 9310W        W77528   8.207  36.260  11.207
 9311W        W77529  32.598  28.701  13.957
 9312W        W77530  15.262  18.807  14.576
 9313W        W77531  25.037  40.461   5.189
 9314W        W77532  18.541  15.105  11.660
 9315W        W77533   5.211  42.204  14.318
 9316W        W77534  41.534  28.489  12.469
 9317W        W77535   0.443   3.882  13.491
 9318W        W77536   1.804  38.340   2.390
 9319W        W77537  35.844  31.602  14.812
 9320W        W77538   6.871  30.333  14.480
 9321W        W77539  41.330   3.402   4.061
 9322W        W77540   8.616  18.672  13.788
 9323W        W77541  20.563  12.566  13.444
 9324W        W77542  36.571  29.593  14.762
 9325W        W77543  23.294  33.161   1.775
 9326W        W77544  11.946  13.876  13.373
 9327W        W77545  32.806  44.404   2.029
 9328W        W77546  31.734  24.708   1.246
 9329W        W77547  43.062   1.039   4.378
 9330W        W77548   3.108  18.813  10.556
 9331W        W77549  14.750  23.801   1.753
 9332W        W77550  21.057  29.363   3.401
 9333W        W77551  17.154  15.827  10.927
 9334W        W77552  23.434   3.186  13.490
 9335W        W77553  20.365  23.005  14.970
 9336W        W77554  30.908  23.656  12.086
 9337W        W77555  26.329   1.116  12.021
 9338W        W77556   5.226  30.399   2.882
 9339W        W77557   8.616  11.980  11.176
 9340W        W77558  37.614  21.756  11.527
 9341W        W77559  20.297  43.498   4.226
 9342W        W77560  42.738  41.235  14.266
 9343W        W77561  28.038  20.283   4.572
 9344W        W77562  22.064  18.883  12.494
 9345W        W77563  36.998  40.316  14.432
 9346W        W77564  30.735  17.037  14.370
 9347W        W77565  35.300   3.435  12.858
 9348W        W77566  36.845  25.951   4.059
 9349W        W77567  33.561  13.386  14.560
 9350W        W77568  41.487  14.593   4.568
 9351W        W77569  13.633  15.796   0.003
 9352W        W77570   7.808  37.510   0.943
 9353W        W77571  42.946  13.861  12.544
 9354W        W77572  41.090   5.291   3.844
 9355W        W77573  40.004  29.924  13.026
 9356W        W77574  11.335  21.713   2.645
 9357W        W77575   1.217  36.477  14.504
 9358W        W77576  36.366  28.605   3.644
 9359W        W77577   8.240  21.342   1.474
 9360W        W77578  34.374   9.993  11.536
 9361W        W77579  27.886  25.512   1.339
 9362W        W77580  24.246  40.688   3.571
 9363W        W77581  17.717  42.745  13.977
 9364W        W77582  28.533  31.159  14.902
 9365W        W77583   7.776  26.492   9.930
 9366W        W77584  29.723  41.126   0.294
 9367W        W77585  15.742  16.086   4.576
 9368W        W77586  36.840  44.890   0.080
 9369W        W77587  33.784  38.054  10.837
 9370W        W77588  40.522  10.980  12.770
 9371W        W77589  19.437  26.871  12.497
 9372W        W77590  10.295  26.713   5.046
 9373W        W77591   8.835  10.767   4.466
 9374W        W77592  15.072  20.965   3.591
 9375W        W77593  15.906  16.710   3.012
 9376W        W77594  11.673  31.237   4.360
 9377W        W77595  24.558  13.483  12.361
 9378W        W77596   3.651   0.037   3.243
 9379W        W77597   4.825  30.847   4.649
 9380W        W77598  24.198  38.866   2.414
 9381W        W77599  34.778  33.881  14.291
 9382W        W77600  27.232   7.702   3.395
 9383W        W77601  18.392  40.980   2.615
 9384W        W77602  22.516   6.346   1.400
 9385W        W77603   1.090   6.164  11.855
 9386W        W77604  13.637  18.606   0.998
 9387W        W77605  40.082   1.705  10.313
 9388W        W77606  21.221  41.593   4.776
 9389W        W77607  19.060  27.004   4.208
 9390W        W77608   8.938  42.166  10.225
 9391W        W77609  37.366  17.939  11.042
 9392W        W77610  27.014   0.353  14.620
 9393W        W77611  43.388  39.265   2.877
 9394W        W77612  40.005  33.655   2.835
 9395W        W77613  24.004  29.077  10.069
 9396W        W77614  29.446  25.269  12.536
 9397W        W77615   6.319   9.042   1.669
 9398W        W77616  29.981  25.437  13.030
 9399W        W77617  10.633  10.663  14.381
 9400W        W77618  20.174  44.736  13.432
 9401W        W77619  25.747  36.383  12.983
 9402W        W77620  12.187  40.898   3.179
 9403W        W77621   3.917  21.030   3.656
 9404W        W77622  39.613  42.810   4.587
 9405W        W77623  28.123  26.043   0.545
 9406W        W77624  30.852  14.346  14.612
 9407W        W77625  22.924   4.383   4.553
 9408W        W77626  18.084  19.411  11.374
 9409W        W77627  28.935   0.843  10.860
 9410W        W77628  22.209  42.227   2.673
 9411W        W77629  38.186  21.657  13.369
 9412W        W77630   3.188  27.571   2.631
 9413W        W77631  15.548  19.479   0.296
 9414W        W77632  37.363  33.674  13.008
 9415W        W77633  15.122  25.340   2.706
 9416W        W77634  14.732  27.570  14.172
 9417W        W77635   8.769  33.694  14.298
 9418W        W77636  10.157  33.599  14.063
 9419W        W77637   8.685  38.539   0.363
 9420W        W77638  15.098   0.752   4.579
 9421W        W77639   4.937  36.921   2.846
 9422W        W77640  23.059  14.702   4.599
 9423W        W77641   7.148  15.229   2.816
 9424W        W77642  26.592  14.270  11.927
 9425W        W77643  14.983  33.520  12.492
 9426W        W77644  12.223  31.887  13.090
 9427W        W77645   5.450  27.198   1.697
 9428W        W77646  25.468  35.261  14.421
 9429W        W77647   9.591   0.845  14.637
 9430W        W77648  27.808  36.419  12.870
 9431W        W77649   2.921  11.306   2.259
 9432W        W77650  42.329  44.777   4.225
 9433W        W77651  41.370  27.416   1.742
 9434W        W77652  11.970   5.319   4.164
 9435W        W77653   4.160  23.897  10.639
 9436W        W77654   3.341  37.166  11.637
 9437W        W77655  28.107  26.971   4.869
 9438W        W77656  12.644  42.680  11.526
 9439W        W77657  17.856  25.637   2.876
 9440W        W77658  15.622   2.193   1.737
 9441W        W77659   1.268  19.480  13.944
 9442W        W77660  18.085  26.695   3.231
 9443W        W77661  36.858   3.796  14.779
 9444W        W77662  18.138  26.807   0.229
 9445W        W77663  43.313  32.408  10.648
 9446W        W77664  36.555  17.872   2.738
 9447W        W77665  13.160   7.108   1.677
 9448W        W77666  25.068  12.784   4.894
 9449W        W77667   2.270  25.910  13.324
 9450W        W77668  37.626   5.428  13.403
 9451W        W77669  43.393   5.461   2.400
 9452W        W77670  31.888   2.861   1.384
 9453W        W77671  17.030   1.240   4.219
 9454W        W77672   4.448   2.251   1.510
 9455W        W77673   2.405   9.668  14.797
 9456W        W77674   8.129  18.216  12.944
 9457W        W77675  10.610  15.314   3.454
 9458W        W77676  23.560  26.532   3.107
 9459W        W77677   1.744  10.186   2.419
 9460W        W77678  11.668  22.070   0.069
 9461W        W77679  12.232  42.070  12.831
 9462W        W77680  20.182  13.316   3.623
 9463W        W77681   2.821  15.361   3.364
 9464W        W77682  23.653  27.058   5.028
 9465W        W77683  25.117  40.202  13.932
 9466W        W77684  39.383  31.981   0.924
 9467W        W77685  22.972  28.841   2.322
 9468W        W77686  39.028   1.804   1.960
 9469W        W77687   1.875  21.309  11.543
 9470W        W77688  35.561   3.197   0.278
 9471W        W77689   4.479  23.632   4.716
 9472W        W77690  14.667  14.383   4.599
 9473W        W77691  14.264  20.069   2.820
 9474W        W77692  16.716  30.066  12.515
 9475W        W77693  18.888  29.112  10.821
 9476W        W77694  31.849   4.187   0.820
 9477W        W77695   2.716  23.033   4.702
 9478W        W77696  15.618  34.746  12.172
 9479W        W77697  16.124  17.720  11.076
 9480W        W77698  27.831  42.759  13.380
 9481W        W77699  42.386  29.500  10.726
 9482W        W77700  28.981   1.370  11.351
 9483W        W77701  40.478  26.646   1.355
 9484W        W77702   5.237   1.614   1.477
 9485W        W77703  15.935  44.081   4.142
 9486W        W77704  11.293   3.839  14.799
 9487W        W77705  27.617  41.585   1.043
 9488W        W77706   1.905  24.915   4.129
 9489W        W77707  38.367  27.661  11.493
 9490W        W77708  15.062  21.737  13.481
 9491W        W77709  17.784  44.390  12.072
 9492W        W77710   0.825  24.748  13.345
 9493W        W77711  25.406  30.681   3.325
 9494W        W77712  17.253  26.458   2.825
 9495W        W77713  29.538  24.426  13.801
 9496W        W77714  14.119  41.080   2.056
 9497W        W77715   6.277   1.471  13.478
 9498W        W77716  21.468  43.200  14.536
 9499W        W77717  30.696  38.799   5.314
 9500W        W77718  30.174  29.080  14.195
 9501W        W77719  29.491  15.322  13.387
 9502W        W77720  41.171   5.543   0.440
 9503W        W77721  44.806  16.825   0.818
 9504W        W77722   7.472  24.618   0.881
 9505W        W77723   5.734   0.068   0.339
 9506W        W77724  22.993  30.583   2.869
 9507W        W77725  37.364   3.717  12.501
 9508W        W77726   3.486  10.111  14.560
 9509W        W77727  37.857  11.189   1.644
 9510W        W77728   5.153  40.423   4.199
 9511W        W77729   3.849   6.947   3.207
 9512W        W77730  12.882  31.517  12.328
 9513W        W77731  26.243   8.699  13.049
 9514W        W77732   1.450  33.655   0.742
 9515W        W77733  35.163  26.519   4.687
 9516W        W77734  17.077  17.595   0.342
 9517W        W77735  26.181  18.155   3.107
 9518W        W77736  21.231  32.480   0.181
 9519W        W77737  16.102  36.882  12.546
 9520W        W77738  44.348   2.706  14.888
 9521W        W77739  11.350  35.045  13.222
 9522W        W77740  17.240  26.930  11.909
 9523W        W77741   0.116  18.146  10.505
 9524W        W77742  14.932   6.227   1.957
 9525W        W77743  22.804  25.599  12.914
 9526W        W77744  23.311  36.923   3.195
 9527W        W77745  11.865  39.462  13.949
 9528W        W77746  34.392  16.947   0.777
 9529W        W77747  18.092  33.287   1.649
 9530W        W77748  23.196  37.595   1.691
 9531W        W77749  38.206  40.488  11.676
 9532W        W77750  31.929  18.627  10.966
 9533W        W77751   0.273   8.693   2.924
 9534W        W77752   4.730  10.744  14.797
 9535W        W77753  37.771  24.011   0.435
 9536W        W77754  20.157   5.792   4.487
 9537W        W77755  40.321  20.432   3.239
 9538W        W77756  30.508  19.506  13.371
 9539W        W77757  23.081   5.464   0.575
 9540W        W77758  41.586  10.123  12.877
 9541W        W77759  12.763   2.423   3.259
 9542W        W77760  42.262   0.716   4.001
 9543W        W77761  31.054   8.955   4.671
 9544W        W77762  41.224  24.802   3.386
 9545W        W77763  41.477   1.490   1.717
 9546W        W77764  23.529  42.690   3.146
 9547W        W77765  41.354  40.575  14.271
 9548W        W77766  10.898   4.347  14.152
 9549W        W77767  16.991  11.253   1.612
 9550W        W77768  20.549  17.776   3.675
 9551W        W77769   3.400  15.596  10.268
 9552W        W77770   7.675   1.868  13.956
 9553W        W77771   3.539   4.756   3.481
 9554W        W77772  26.233  10.099  11.947
 9555W        W77773  33.914  42.652   1.723
 9556W        W77774   0.904  17.121   2.669
 9557W        W77775  24.652   6.714  13.892
 9558W        W77776  14.856  37.340  10.395
 9559W        W77777  40.436  20.091  14.698
 9560W        W77778  14.636   7.420  14.299
 9561W        W77779  15.707  17.836  10.605
 9562W        W77780  36.568   2.741  13.823
 9563W        W77781  25.154  28.661  12.084
 9564W        W77782   2.856  40.117  10.866
 9565W        W77783  18.229  40.110   4.188
 9566W        W77784  40.459  13.126  10.979
 9567W        W77785  37.817  11.131   3.514
 9568W        W77786  21.805  42.554   0.395
 9569W        W77787  20.019  32.630   3.321
 9570W        W77788  33.337  18.508  10.565
 9571W        W77789  28.405  10.638   0.437
 9572W        W77790  25.449  31.959   3.361
 9573W        W77791  27.184  36.842  12.142
 9574W        W77792   1.199   9.341  14.338
 9575W        W77793  11.055  27.342   1.217
 9576W        W77794  42.543  10.614   1.867
 9577W        W77795   0.374  10.570  13.027
 9578W        W77796  25.711  10.721  14.484
 9579W        W77797  16.842  26.289   1.272
 9580W        W77798   9.496  21.348  11.144
 9581W        W77799  34.421  18.093  11.699
 9582W        W77800  38.900  25.518  11.539
 9583W        W77801   4.248  44.438  10.735
 9584W        W77802  29.187   0.446  10.620
 9585W        W77803   1.771   0.503  13.242
 9586W        W77804   2.745  26.152  10.759
 9587W        W77805  38.294   6.185  12.921
 9588W        W77806  35.732   6.577   3.038
 9589W        W77807   9.089   7.673   3.850
 9590W        W77808  11.269  42.909   2.575
 9591W        W77809  41.631  20.266  12.642
 9592W        W77810  19.427  11.255   2.200
 9593W        W77811  42.850  17.059  12.071
 9594W        W77812   1.800   1.938  12.549
 9595W        W77813  27.969   3.264  13.306
 9596W        W77814  40.529   5.202  11.665
 9597W        W77815  34.947  40.898  13.321
 9598W        W77816   9.630  27.718  14.766
 9599W        W77817  22.739   7.785  12.513
 9600W        W77818   5.807  30.350  14.460
 9601W        W77819  33.035  36.152  13.553
 9602W        W77820  22.259  22.516   3.716
 9603W        W77821  30.059  42.853  10.632
 9604W        W77822  43.697   0.685   4.970
 9605W        W77823  43.975   4.448  11.867
 9606W        W77824  39.872  43.277   3.696
 9607W        W77825  19.764  41.830   1.439
 9608W        W77826   8.811  17.389   0.901
 9609W        W77827  29.995  13.771   2.183
 9610W        W77828   6.254  16.913  13.799
 9611W        W77829  32.056   4.263   3.213
 9612W        W77830  17.828  40.789  13.565
 9613W        W77831  25.388  12.325   2.160
 9614W        W77832  31.511  44.263   0.703
 9615W        W77833  24.235   0.886   9.815
 9616W        W77834  40.317  11.859  14.232
 9617W        W77835  14.759  23.712  14.097
 9618W        W77836  35.680  44.015   0.730
 9619W        W77837  24.669  42.030   3.129
 9620W        W77838   2.773  16.849   1.779
 9621W        W77839  31.619   1.518  10.412
 9622W        W77840  17.103  43.016  13.902
 9623W        W77841  13.626   2.184  13.015
 9624W        W77842   4.979  26.136   4.149
 9625W        W77843  24.751  41.561  13.036
 9626W        W77844   3.235  19.763   0.471
 9627W        W77845   5.248  38.557   4.810
 9628W        W77846  21.606  17.828  11.926
 9629W        W77847  42.288  16.725   3.320
 9630W        W77848  11.687  42.867   2.282
 9631W        W77849  38.281  37.953   0.871
 9632W        W77850  27.202  18.526  13.782
 9633W        W77851  26.192  43.849   4.126
 9634W        W77852  40.118  34.530   4.585
 9635W        W77853  21.700  13.771  14.735
 9636W        W77854  44.875  26.059  13.476
 9637W        W77855  33.448  28.266   1.801
 9638W        W77856  38.982  21.266   5.035
 9639W        W77857   1.400  17.612   1.827
 9640W        W77858  39.615  27.704  12.438
 9641W        W77859  24.712   3.259   0.265
 9642W        W77860  25.915  21.148   1.997
 9643W        W77861  15.057  20.332   1.866
 9644W        W77862   2.527  30.744  13.820
 9645W        W77863  43.585  33.599   1.902
 9646W        W77864   6.096   1.396  12.955
 9647W        W77865  20.825  41.454   2.685
 9648W        W77866  43.828  17.397  11.502
 9649W        W77867  15.548  24.020  14.969
 9650W        W77868  30.657  13.175  12.856
 9651W        W77869  26.101   6.669  11.926
 9652W        W77870   2.165   4.622  11.136
 9653W        W77871   6.092  15.211   3.728
 9654W        W77872  27.608   0.555  10.945
 9655W        W77873  40.757  33.405   0.488
 9656W        W77874   7.217   2.519  12.107
 9657W        W77875   9.274  19.955  10.043
 9658W        W77876  15.749   4.144  13.755
 9659W        W77877  10.298  29.440   2.783
 9660W        W77878  22.475  24.724  12.081
 9661W        W77879  18.770  37.912   3.206
 9662W        W77880  25.225  12.713  10.785
 9663W        W77881  10.667  14.990  14.906
 9664W        W77882  32.894  18.992   2.094
 9665W        W77883  24.414  38.104  13.835
 9666W        W77884  33.032  40.069   3.805
 9667W        W77885  41.963  21.022  14.132
 9668W        W77886  30.893  20.181   3.401
 9669W        W77887   4.835   3.209  12.664
 9670W        W77888  27.257  10.801  11.800
 9671W        W77889  23.442  17.678   0.841
 9672W        W77890   1.000   0.280  12.639
 9673W        W77891  14.325   8.436   0.369
 9674W        W77892  25.058  35.937  12.126
 9675W        W77893  38.921  19.514  11.367
 9676W        W77894  16.024   5.886   3.597
 9677W        W77895  11.781   1.796   1.628
 9678W        W77896  10.432   7.910  13.028
 9679W        W77897  28.144  27.665   2.382
 9680W        W77898  12.713  43.241   1.478
 9681W        W77899  11.403   2.366  13.631
 9682W        W77900  15.498  41.774   4.522
 9683W        W77901  35.481  15.872  13.420
 9684W        W77902  12.939  31.566   3.400
 9685W        W77903  19.503  15.796  11.143
 9686W        W77904  31.635  42.834   1.236
 9687W        W77905  20.547  43.893   4.012
 9688W        W77906   9.050  29.934   5.110
 9689W        W77907  35.966  37.043   3.335
 9690W        W77908  23.778  39.010  14.553
 9691W        W77909  31.184  20.049  11.636
 9692W        W77910  13.678  31.610  11.921
 9693W        W77911   3.871  28.846  12.866
 9694W        W77912  21.755   0.852   1.572
 9695W        W77913  16.070  15.563  13.019
 9696W        W77914  30.885   5.786   4.933
 9697W        W77915   5.683  44.627   5.379
 9698W        W77916  20.772  19.578  14.923
 9699W        W77917  34.528  26.678   3.191
 9700W        W77918  11.791  29.109   1.311
 9701W        W77919  41.501  30.178   3.775
 9702W        W77920  12.822   7.900   4.505
 9703W        W77921  37.240  39.663  13.240
 9704W        W77922  14.046  20.138   3.849
 9705W        W77923  34.080   9.910  10.726
 9706W        W77924  28.633  21.927  10.944
 9707W        W77925  43.748  23.500   1.749
 9708W        W77926  12.701   2.951   3.266
 9709W        W77927   8.954  43.343   0.363
 9710W        W77928   5.881  28.676   3.853
 9711W        W77929  15.839  15.884   0.021
 9712W        W77930   4.142  36.650   2.826
 9713W        W77931  27.983  22.282   0.379
 9714W        W77932  12.350  27.318  12.022
 9715W        W77933  13.639   2.388  10.882
 9716W        W77934  25.688  28.841   3.230
 9717W        W77935  21.587  26.934   2.747
 9718W        W77936  34.998  18.441   3.258
 9719W        W77937  35.647   6.360  14.484
 9720W        W77938  21.448   5.708  12.568
 9721W        W77939   1.706  42.813   4.671
 9722W        W77940  20.254  14.352   2.680
 9723W        W77941   9.287  17.751   0.320
 9724W        W77942  44.408  28.398   1.724
 9725W        W77943  11.302   0.224  13.871
 9726W        W77944   1.970  15.732   1.432
 9727W        W77945   6.252  11.702   0.906
 9728W        W77946   0.907  16.880   0.763
 9729W        W77947   2.518  29.547  11.661
 9730W        W77948   9.206  39.366   3.615
 9731W        W77949   5.199   6.466  13.006
 9732W        W77950   2.518   3.825  14.402
 9733W        W77951   5.592   8.104   1.422
 9734W        W77952  17.812  31.331  14.818
 9735W        W77953  13.903  36.020   3.210
 9736W        W77954   5.688  33.934   1.125
 9737W        W77955   2.489  35.728   4.441
 9738W        W77956   2.414   2.444  11.544
 9739W        W77957  37.338  42.803  14.039
 9740W        W77958   9.783  40.943   0.318
 9741W        W77959  32.305  10.345  13.558
 9742W        W77960  18.556  30.063  13.922
 9743W        W77961  12.406   5.583  10.749
 9744W        W77962  44.025  38.129  14.086
 9745W        W77963   8.591  10.812  13.129
 9746W        W77964  19.681  17.242   1.065
 9747W        W77965   6.701  35.421  12.988
 9748W        W77966  15.790  33.141   1.174
 9749W        W77967  37.052  34.871   4.040
 9750W        W77968  33.190  37.057   4.118
 9751W        W77969  42.312  28.518  11.671
 9752W        W77970   9.760   4.774   0.783
 9753W        W77971  43.479  39.279   0.829
 9754W        W77972   3.857  22.563  11.616
 9755W        W77973  26.444  17.257   2.672
 9756W        W77974  34.457  30.111  11.742
 9757W        W77975   7.480  32.483  13.888
 9758W        W77976  12.029  25.393   2.285
 9759W        W77977  44.043  41.809   2.778
 9760W        W77978  30.468  18.335  11.148
 9761W        W77979  37.994  33.537  14.934
 9762W        W77980  14.888  42.365  13.065
 9763W        W77981  39.841  19.127  11.458
 9764W        W77982  30.330  20.598  11.919
 9765W        W77983  32.419   8.482  10.795
 9766W        W77984  27.071  31.053   4.741
 9767W        W77985  30.568   7.285  14.080
 9768W        W77986  25.669  10.847   1.374
 9769W        W77987  40.029  13.148   0.481
 9770W        W77988  14.195  31.260  12.886
 9771W        W77989  28.142  37.117   0.513
 9772W        W77990  35.524  36.458   3.825
 9773W        W77991  13.653  40.798   4.766
 9774W        W77992  42.887   8.390  12.054
 9775W        W77993  12.592  38.374   1.401
 9776W        W77994  21.347  31.347   4.142
 9777W        W77995  30.740  17.689   4.112
 9778W        W77996  38.365  20.803  13.490
 9779W        W77997  19.206  21.261   4.111
 9780W        W77998  39.838  30.917   0.374
 9781W        W77999   8.165  25.960   1.287
 9782W        W78000   4.876  42.633  12.732
 9783W        W78001  28.589   4.409  10.943
 9784W        W78002  44.915  24.627   2.692
 9785W        W78003   1.008  24.137  13.472
 9786W        W78004   6.430  44.525  13.010
 9787W        W78005  16.589   1.337   2.950
 9788W        W78006  40.061  25.171   1.367
 9789W        W78007   1.502  14.198  11.100
 9790W        W78008  13.552  29.382   0.993
 9791W        W78009  37.121   6.796  14.322
 9792W        W78010  14.844  21.526  11.238
 9793W        W78011  13.377  30.326  14.957
 9794W        W78012  27.033  43.357  13.083
 9795W        W78013  25.914  19.625  13.911
 9796W        W78014  34.475  30.454  14.610
 9797W        W78015   6.955  23.739  14.863
 9798W        W78016  42.357  31.361  11.645
 9799W        W78017  20.201  33.094  14.079
 9800W        W78018  10.398  38.344  11.778
 9801W        W78019  31.527  40.580   4.635
 9802W        W78020   9.123   1.883   1.340
 9803W        W78021   7.649  20.270   5.110
 9804W        W78022   1.296  16.830  14.749
 9805W        W78023   1.733   7.851   3.287
 9806W        W78024  15.214  12.198   0.291
 9807W        W78025   3.144  44.824  11.074
 9808W        W78026  31.249   9.839   3.740
 9809W        W78027  26.480   3.746   2.368
 9810W        W78028   8.333  33.621  13.504
 9811W        W78029   8.151  17.559   1.760
 9812W        W78030   0.458   5.737  12.430
 9813W        W78031  10.104  36.569   2.139
 9814W        W78032  25.068  19.587  13.109
 9815W        W78033  18.232   6.681  14.058
 9816W        W78034  10.102  42.744   0.026
 9817W        W78035   9.584  13.840  13.822
 9818W        W78036  15.064  29.544   2.057
 9819W        W78037  44.259  17.168  13.046
 9820W        W78038  26.757  40.471  13.829
 9821W        W78039   4.466   1.471  10.721
 9822W        W78040  29.443  34.457   4.530
 9823W        W78041  14.695  19.050  13.841
 9824W        W78042  20.845  36.265   9.808
 9825W        W78043  42.013  30.372   2.814
 9826W        W78044  36.475  30.986  11.613
 9827W        W78045  20.736  43.531   4.499
 9828W        W78046   5.273  25.465  13.855
 9829W        W78047  29.319  36.863   2.829
 9830W        W78048  32.378   7.283   5.015
 9831W        W78049   1.927  38.165  13.986
 9832W        W78050   5.469  35.374   1.505
 9833W        W78051   9.684   3.825   2.467
 9834W        W78052  20.349  11.282   4.597
 9835W        W78053   2.584  11.889   9.847
 9836W        W78054  38.338  42.246   4.233
 9837W        W78055  10.104  20.559  12.498
 9838W        W78056   2.401  12.374  14.856
 9839W        W78057   7.820  36.014  10.359
 9840W        W78058  10.661  38.358   0.482
 9841W        W78059  15.369   0.319  11.477
 9842W        W78060  18.581  31.500   0.304
 9843W        W78061   5.461  44.699  11.029
 9844W        W78062  22.455  38.525  12.559
 9845W        W78063  14.893  42.032  14.797
 9846W        W78064  16.150  11.231   2.865
 9847W        W78065  22.666   4.555  10.883
 9848W        W78066   3.944  11.136  11.883
 9849W        W78067   2.872  41.500  12.432
 9850W        W78068  15.668  37.999   1.279
 9851W        W78069  40.886  34.570  12.571
 9852W        W78070  42.390  41.828   1.772
 9853W        W78071  40.834   2.034   2.628
 9854W        W78072   5.023   1.083   5.175
 9855W        W78073  27.129   2.717  11.613
 9856W        W78074  44.835  24.137   1.817
 9857W        W78075  38.632   2.288  11.666
 9858W        W78076  34.028   7.707  11.379
 9859W        W78077  33.387  16.278  10.634
 9860W        W78078  38.745   5.399  10.000
 9861W        W78079  29.963  24.096   2.805
 9862W        W78080  23.024  21.582   1.327
 9863W        W78081  13.154   8.207   3.100
 9864W        W78082  14.588   7.846  13.996
 9865W        W78083  13.147  14.880   4.137
 9866W        W78084  25.666  22.337  10.685
 9867W        W78085  13.733   0.784  14.498
 9868W        W78086  33.608  18.611  12.480
 9869W        W78087  40.125  23.705   2.220
 9870W        W78088  12.937  27.251   0.505
 9871W        W78089  44.871   1.290  12.018
 9872W        W78090  24.672   6.885   1.967
 9873W        W78091  28.929  14.795  13.211
 9874W        W78092  39.487  24.605  13.350
 9875W        W78093   8.669  40.799  11.643
 9876W        W78094  22.174  41.070   0.925
 9877W        W78095  19.702   9.106   1.658
 9878W        W78096  25.892   0.210   4.125
 9879W        W78097   9.815  29.448   1.789
 9880W        W78098  44.289  35.268   3.202
 9881W        W78099  29.226  11.642   2.677
 9882W        W78100   8.986   4.352  13.355
 9883W        W78101   9.232  22.113  14.025
 9884W        W78102  18.512  40.566  12.875
 9885W        W78103  33.496  22.339   3.625
 9886W        W78104   1.793  22.183  11.171
 9887W        W78105   5.405  44.109  10.305
 9888W        W78106  40.412   2.223  13.951
 9889W        W78107   3.461   5.077   4.506
 9890W        W78108  28.605  12.205  13.861
 9891W        W78109  18.827  28.689   3.775
 9892W        W78110  26.457  27.046  13.812
 9893W        W78111  13.261  26.426   1.765
 9894W        W78112  38.501  28.534   4.464
 9895W        W78113  21.821  36.891   3.163
 9896W        W78114  36.617  36.743  10.630
 9897W        W78115  26.834   6.321   3.728
 9898W        W78116   6.112   9.546  10.282
 9899W        W78117  42.676  12.684  13.550
 9900W        W78118  36.287  22.734   4.230
 9901W        W78119  21.730   3.896   1.930
 9902W        W78120  13.065  16.636  14.560
 9903W        W78121  18.768  27.486   2.300
 9904W        W78122  19.353  16.663  14.639
 9905W        W78123  28.904  10.434  12.575
 9906W        W78124  29.408  17.240  12.076
 9907W        W78125   8.293  20.624   2.735
 9908W        W78126  11.282  29.961   3.050
 9909W        W78127  42.517  44.704   2.861
 9910W        W78128  34.336  25.621  11.136
 9911W        W78129  26.198   1.572   2.817
 9912W        W78130  12.592   7.740   1.435
 9913W        W78131  43.782  14.641   0.466
 9914W        W78132   8.637  35.220  13.842
 9915W        W78133  43.828  19.802   4.353
 9916W        W78134  20.093  12.254  14.267
 9917W        W78135   7.255   5.704  14.783
 9918W        W78136  17.282  44.048   3.714
 9919W        W78137  13.115  35.997   1.682
 9920W        W78138  44.810  28.802   2.645
 9921W        W78139   2.443  31.254   4.056
 9922W        W78140  24.251  31.915   1.144
 9923W        W78141   6.645  19.267   1.893
 9924W        W78142   4.667   3.912  11.527
 9925W        W78143  15.333   2.354   4.581
 9926W        W78144  40.830  17.669   4.126
 9927W        W78145  20.723  21.245   1.685
 9928W        W78146  43.279   5.725   1.854
 9929W        W78147  43.038  29.599  14.470
 9930W        W78148   5.611  38.337  12.463
 9931W        W78149  38.830  17.302  14.340
 9932W        W78150  13.049  28.979   3.634
 9933W        W78151  17.654  25.863  12.745
 9934W        W78152  15.822  39.916   4.232
 9935W        W78153  33.863  15.370  12.476
 9936W        W78154  41.808  19.544  14.026
 9937W        W78155  17.203  17.249   3.723
 9938W        W78156  22.235   5.200  13.866
 9939W        W78157  40.028  36.003  11.973
 9940W        W78158  43.089  25.657  11.119
 9941W        W78159  21.308  42.428   5.057
 9942W        W78160   5.094  23.225   1.553
 9943W        W78161  10.155  22.789   0.942
 9944W        W78162  16.828  39.777   0.371
 9945W        W78163  35.074  30.407  14.043
 9946W        W78164   7.706  34.063  14.066
 9947W        W78165   2.422   7.751   1.383
 9948W        W78166  30.518  16.208   3.790
 9949W        W78167  27.114   7.243  14.319
 9950W        W78168  43.414  36.839   3.671
 9951W        W78169   7.148   7.305  13.858
 9952W        W78170  36.512   7.397  14.276
 9953W        W78171   5.109  11.595  13.315
 9954W        W78172  13.624  30.481   1.479
 9955W        W78173  25.564  12.606   4.967
 9956W        W78174  11.924  38.261   1.958
 9957W        W78175  41.729   6.423  13.020
 9958W        W78176  23.454  34.398   1.319
 9959W        W78177  39.359  42.484  14.295
 9960W        W78178  38.081  36.495   0.305
 9961W        W78179  26.103   3.567  13.995
 9962W        W78180   6.887  30.895  14.778
 9963W        W78181  38.518  44.060  13.257
 9964W        W78182  20.522  39.399   1.768
 9965W        W78183   5.917  43.095   0.062
 9966W        W78184  27.761  19.162  12.093
 9967W        W78185  10.336  17.519   4.630
 9968W        W78186  10.227   5.361   4.800
 9969W        W78187  35.072   6.880   2.274
 9970W        W78188  30.973  15.408   4.379
 9971W        W78189  23.533  25.187   4.719
 9972W        W78190   8.415  31.314  14.832
 9973W        W78191  42.297   2.217  10.740
 9974W        W78192  31.123   6.247   4.937
 9975W        W78193  29.007  43.728   3.199
 9976W        W78194  10.305   1.005  12.057
 9977W        W78195  21.217  44.601   4.242
 9978W        W78196  17.120  18.995  14.819
 9979W        W78197  22.249  27.669   1.439
 9980W        W78198   4.687  34.360   3.658
 9981W        W78199  38.974  35.942   2.610
 9982W        W78200  39.731  28.013   2.220
 9983W        W78201  30.178  13.865  14.818
 9984W        W78202  19.620  16.284  11.060
 9985W        W78203   5.691  35.403   2.939
 9986W        W78204   9.175   4.164   1.729
 9987W        W78205  23.674  29.610   1.971
 9988W        W78206   9.138  24.308   0.696
 9989W        W78207  39.172  11.661  10.378
 9990W        W78208  22.208  35.480   2.742
 9991W        W78209  14.675  11.177   1.392
 9992W        W78210  13.065   1.475   1.224
 9993W        W78211  17.595  30.750   4.594
 9994W        W78212  35.987   3.925   2.742
 9995W        W78213  44.027  27.919   4.158
 9996W        W78214  23.475  20.792  13.116
 9997W        W78215  22.006  18.251  10.824
 9998W        W78216  32.433   1.877   1.882
 9999W        W78217  30.184  20.459   0.318
10000W        W78218  42.558  23.394   0.342
10001W        W78219  36.466  34.967   4.802
10002W        W78220   7.821   8.327  12.622
10003W        W78221  18.750   3.128  14.287
10004W        W78222  28.082  23.222  11.762
10005W        W78223  17.127  42.603   4.082
10006W        W78224  24.022  39.835  10.898
10007W        W78225   8.790  11.696  11.572
10008W        W78226  35.058   0.372   0.227
10009W        W78227  13.777  15.802  12.387
10010W        W78228  24.316  40.245   2.195
10011W        W78229  30.022  42.577  11.068
10012W        W78230   1.352  39.603  10.654
10013W        W78231  11.149  40.256   0.743
10014W        W78232   7.194  13.027   4.108
10015W        W78233   3.937  22.092  14.519
10016W        W78234   7.265  30.006  10.810
10017W        W78235  20.271  18.709  11.116
10018W        W78236   8.363   8.777  11.473
10019W        W78237  10.187  15.739  14.889
10020W        W78238  18.351  15.706   4.020
10021W        W78239  13.393  30.535   9.686
10022W        W78240  29.025  32.158   4.518
10023W        W78241   6.380  36.488   2.976
10024W        W78242   1.039   3.854   0.737
10025W        W78243  19.299  24.776   4.127
10026W        W78244  21.113   3.703   4.588
10027W        W78245  20.842  34.870  10.375
10028W        W78246  38.867   3.948   0.970
10029W        W78247  11.655  33.698   0.012
10030W        W78248  36.479   5.262   4.105
10031W        W78249  36.615  13.342  14.206
10032W        W78250   7.801  34.571  14.805
10033W        W78251  17.098  13.267   1.246
10034W        W78252  34.847   5.216   0.520
10035W        W78253   8.285   4.111   1.381
10036W        W78254  34.890  24.206   1.330
10037W        W78255  25.773  39.437  13.039
10038W        W78256   9.907  19.840  14.421
10039W        W78257  41.824  24.254   0.933
10040W        W78258  12.580  25.407  12.606
10041W        W78259  36.845  11.426  12.413
10042W        W78260  32.592   8.582  12.527
10043W        W78261  20.950  29.051   4.249
10044W        W78262  38.543  14.242   0.224
10045W        W78263  10.571  41.737  12.535
10046W        W78264  30.799  37.053  14.986
10047W        W78265  21.576  25.964   3.722
10048W        W78266  36.146  15.257  12.944
10049W        W78267  42.983   8.926  10.682
10050W        W78268  25.992   8.605  14.913
10051W        W78269   7.841  31.871  10.798
10052W        W78270  40.948  34.929   1.501
10053W        W78271   7.240  44.167   3.123
10054W        W78272  21.984  36.245  13.024
10055W        W78273  28.273  23.938  14.286
10056W        W78274  25.374  43.488  14.025
10057W        W78275  18.935  29.648   0.204
10058W        W78276  31.544  14.173   1.349
10059W        W78277  32.843  18.601  14.856
10060W        W78278  30.510  17.634   2.839
10061W        W78279  17.293   1.844   2.407
10062W        W78280   1.408  20.286   2.179
10063W        W78281  40.993  10.777  12.636
10064W        W78282  39.200  35.091  12.151
10065W        W78283  43.111  42.454  11.185
10066W        W78284  17.244  30.381  12.918
10067W        W78285  14.140  32.830  11.584
10068W        W78286   3.299   2.982   3.362
10069W        W78287  36.476   8.895   4.153
10070W        W78288  37.315   8.885  11.976
10071W        W78289  37.489   9.329  11.312
10072W        W78290   7.225  29.071   1.471
10073W        W78291  21.074  25.687   1.443
10074W        W78292  44.690  16.286   1.539
10075W        W78293  41.943   4.454   1.523
10076W        W78294  35.747  35.485  11.299
10077W        W78295  42.774  42.725   2.394
10078W        W78296  20.502  11.369  12.983
10079W        W78297  42.292   2.490   4.086
10080W        W78298  33.441  30.881  10.080
10081W        W78299  43.181  31.893   3.743
10082W        W78300  28.048  19.143   4.017
10083W        W78301  22.492  20.316   2.216
10084W        W78302   8.891  30.139  12.157
10085W        W78303  32.974  22.110  14.413
10086W        W78304  29.119  29.391   0.389
10087W        W78305  25.523  40.818  10.981
10088W        W78306   2.473   2.936  14.038
10089W        W78307  27.456  31.697   0.910
10090W        W78308   8.613  29.917   3.280
10091W        W78309   4.309  34.631  11.322
10092W        W78310  42.290   6.485   3.269
10093W        W78311  17.025  20.285   2.176
10094W        W78312  11.738  32.139  13.826
10095W        W78313  26.886  44.234   0.827
10096W        W78314  35.359  17.006   2.757
10097W        W78315  12.334   6.812  14.350
10098W        W78316  25.979  31.203  11.869
10099W        W78317  26.416   7.253  13.075
10100W        W78318  20.752  23.540  12.185
10101W        W78319  25.132  36.459   0.949
10102W        W78320  34.402  31.459   3.708
10103W        W78321  23.458  17.633   4.089
10104W        W78322  35.806  20.844  12.300
10105W        W78323  13.156   1.973  12.920
10106W        W78324  20.488  32.365   3.735
10107W        W78325  44.865  36.587   3.992
10108W        W78326  37.335  21.770  13.020
10109W        W78327  23.032   4.910   1.361
10110W        W78328  29.926  41.913  14.442
10111W        W78329  41.016  32.075  13.760
10112W        W78330   6.334  21.330  12.153
10113W        W78331  15.562   2.424   0.681
10114W        W78332   2.767  38.583  14.498
10115W        W78333   9.947  43.378   2.363
10116W        W78334  42.277   8.110   0.732
10117W        W78335  29.699  36.013  13.019
10118W        W78336  35.183  32.289  14.036
10119W        W78337  25.805  27.013   2.756
10120W        W78338   7.357   9.080   4.727
10121W        W78339  11.612  23.789  12.635
10122W        W78340  33.579  40.173  14.543
10123W        W78341   4.832  12.866  10.753
10124W        W78342  34.468  15.089  13.542
10125W        W78343  21.514  24.722  12.003
10126W        W78344  35.389  28.708  14.125
10127W        W78345  43.959   0.839   1.867
10128W        W78346  22.446  43.385   0.302
10129W        W78347  38.648  36.810   4.674
10130W        W78348  42.406   8.324  13.973
10131W        W78349  30.974  39.978  13.066
10132W        W78350  40.577  13.131   4.810
10133W        W78351   5.302   7.294  13.428
10134W        W78352   6.480   9.845   4.599
10135W        W78353  30.035  14.838   5.752
10136W        W78354  29.629  29.590   2.171
10137W        W78355   6.055   0.513   0.246
10138W        W78356  35.903  43.937   2.819
10139W        W78357   9.731  37.031  13.950
10140W        W78358  28.961  23.134   3.952
10141W        W78359  32.101  24.599   3.918
10142W        W78360  38.045   7.796  13.592
10143W        W78361  44.378  29.406  11.740
10144W        W78362  27.454  12.414   3.745
10145W        W78363  16.068  15.073   2.229
10146W        W78364  10.446  41.337  10.736
10147W        W78365   7.840  25.524   0.405
10148W        W78366  41.561  31.340  11.166
10149W        W78367  14.552  25.011   3.288
10150W        W78368  44.049   3.909   1.134
10151W        W78369  44.125  14.258   0.413
10152W        W78370  35.764  15.345   3.728
10153W        W78371   8.116  26.445  14.520
10154W        W78372  41.058  15.144   1.437
10155W        W78373  25.136   7.957  14.465
10156W        W78374  21.681  10.045  10.141
10157W        W78375  14.332  20.720  10.894
10158W        W78376  44.431  32.388   1.691
10159W        W78377  34.885  23.842  11.210
10160W        W78378  18.088   1.797   0.452
10161W        W78379  25.059  18.468  10.658
10162W        W78380   2.287  15.625  11.867
10163W        W78381  24.438  41.175  11.655
10164W        W78382  43.971  28.320  12.873
10165W        W78383  24.214  24.615  14.295
10166W        W78384  30.498  34.485  12.096
10167W        W78385   4.352  39.981   2.222
10168W        W78386  44.305   7.690   0.361
10169W        W78387  14.580  18.773  10.836
10170W        W78388  17.843  39.954   0.840
10171W        W78389   3.824  22.852   2.343
10172W        W78390  32.603   3.918  13.560
10173W        W78391  17.679  35.118  14.550
10174W        W78392  27.676   7.814  13.290
10175W        W78393  33.442  29.863   2.895
10176W        W78394  21.013  43.907   3.786
10177W        W78395  17.657  29.143  12.029
10178W        W78396  24.527  44.867   3.293
10179W        W78397  13.761  34.607  14.092
10180W        W78398  14.758  38.522   2.781
10181W        W78399  31.234  21.464  10.793
10182W        W78400  23.439   5.309   4.088
10183W        W78401  20.662   7.002   4.086
10184W        W78402  30.964  12.354   2.225
10185W        W78403   2.933  15.658  11.614
10186W        W78404  32.887   8.168  10.860
10187W        W78405  15.339   8.817  12.489
10188W        W78406  22.621  27.389  14.646
10189W        W78407  27.273  20.656   4.117
10190W        W78408   1.240  33.902  12.941
10191W        W78409  26.705   5.465  13.037
10192W        W78410  34.378  21.955   0.954
10193W        W78411  26.572  29.547   4.937
10194W        W78412  15.166  43.196  13.013
10195W        W78413  31.474  24.796   2.007
10196W        W78414  21.031  25.649   0.223
10197W        W78415  34.702  39.487   3.907
10198W        W78416  31.213   9.262   1.704
10199W        W78417  44.396  28.989   5.021
10200W        W78418  16.547  32.382  10.960
10201W        W78419  11.382  21.216   2.789
10202W        W78420  41.238   3.978   3.159
10203W        W78421  14.151  42.474   4.743
10204W        W78422   1.911  10.830  13.766
10205W        W78423  36.494  41.866  11.655
10206W        W78424  23.836  33.716  13.412
10207W        W78425  22.837  22.520  10.735
10208W        W78426  37.607  32.973  14.601
10209W        W78427   2.524   5.356   0.813
10210W        W78428   1.998   5.992  11.166
10211W        W78429  38.826   9.936   3.203
10212W        W78430  28.749  19.968   4.084
10213W        W78431  26.174  26.020  10.963
10214W        W78432   5.614  28.967   1.866
10215W        W78433  21.768  11.420   3.343
10216W        W78434   8.026  14.855   4.980
10217W        W78435   7.257  21.413  11.111
10218W        W78436  34.934  23.665   2.887
10219W        W78437  44.568  42.488  13.314
10220W        W78438  33.360  41.109  10.986
10221W        W78439  21.122   3.371  10.506
10222W        W78440  11.074  34.277   4.125
10223W        W78441  25.029  31.117  14.936
10224W        W78442  44.483  18.053  11.096
10225W        W78443  19.235  14.088   3.255
10226W        W78444  33.840  13.190   3.229
10227W        W78445  36.959  28.292   1.073
10228W        W78446  36.491  22.084  13.024
10229W        W78447  21.069  15.110  11.129
10230W        W78448  25.653  24.384   1.393
10231W        W78449  29.699  24.640  14.986
10232W        W78450   8.747  16.057   0.213
10233W        W78451   5.786  31.142   0.861
10234W        W78452   1.280   6.855  13.371
10235W        W78453  43.752   4.968   3.289
10236W        W78454  19.638  41.497  12.318
10237W        W78455   6.755  23.533   0.421
10238W        W78456   2.206  26.886   2.738
10239W        W78457  44.543  25.580  10.216
10240W        W78458  25.682  41.909  12.674
10241W        W78459   9.933  12.168   2.189
10242W        W78460  36.917  20.097   4.474
10243W        W78461  23.009  21.095  11.099
10244W        W78462  31.127  29.987  11.506
10245W        W78463   0.351  25.030   4.523
10246W        W78464   2.912  22.243   1.141
10247W        W78465   0.487  44.047  11.144
10248W        W78466  37.184  19.682  12.295
10249W        W78467  11.088   6.779  14.711
10250W        W78468  13.267  39.229   1.357
10251W        W78469   9.148   9.323  13.827
10252W        W78470  29.116  17.670   0.934
10253W        W78471  42.323  39.050   4.865
10254W        W78472  42.934  12.632   4.895
10255W        W78473  35.969  24.401   0.461
10256W        W78474  24.654  14.221   1.881
10257W        W78475  22.485   4.179  12.237
10258W        W78476  38.914  38.881  14.449
10259W        W78477   6.094   4.382  13.456
10260W        W78478  24.465  13.738   2.732
10261W        W78479   8.373  20.128   5.142
10262W        W78480   2.198  35.330  11.247
10263W        W78481  39.091  40.948   4.114
10264W        W78482  40.378  20.574  10.797
10265W        W78483  37.171   3.889   3.273
10266W        W78484  15.756  35.334   4.440
10267W        W78485  10.226  24.024  13.494
10268W        W78486  30.186  21.204   4.077
10269W        W78487   1.271  34.397  12.369
10270W        W78488  34.197  22.144   2.805
10271W        W78489  23.670   9.167   0.055
10272W        W78490   4.754  34.907  13.868
10273W        W78491  22.628   5.964   4.086
10274W        W78492   4.069  43.153   4.995
10275W        W78493   8.728   6.176  10.543
10276W        W78494   6.328  44.590  14.450
10277W        W78495  31.031   4.698   1.404
10278W        W78496   0.298  34.063  13.514
10279W        W78497  21.301  21.746   2.927
10280W        W78498  44.453  12.652   1.679
10281W        W78499  28.881  13.271   2.131
10282W        W78500  21.770  18.110   1.166
10283W        W78501  14.118   5.731   3.643
10284W        W78502   5.155   4.798   1.166
10285W        W78503  38.825  14.636   0.452
10286W        W78504  20.867   8.250   2.945
10287W        W78505  15.491   8.144   1.332
10288W        W78506  19.225   7.477  11.246
10289W        W78507  28.044  10.764  14.329
10290W        W78508  27.699  43.041   1.478
10291W        W78509  33.903  32.331  11.223
10292W        W78510  38.800   7.873   2.282
10293W        W78511  17.852  35.040   0.583
10294W        W78512  35.984  36.621   0.661
10295W        W78513   4.655   6.635  13.501
10296W        W78514   7.929  28.362  13.032
10297W        W78515  21.295  43.059  11.320
10298W        W78516  37.932  19.665  10.551
10299W        W78517  29.210  16.590   0.373
10300W        W78518   8.383  22.415   4.298
10301W        W78519   1.765  20.103  12.457
10302W        W78520  39.042   4.837  12.933
10303W        W78521  34.115  27.932  13.031
10304W        W78522  37.894  28.089   0.877
10305W        W78523  24.541  29.531  14.943
10306W        W78524  33.716   6.308  14.006
10307W        W78525   8.134   5.735   0.032
10308W        W78526  30.452  42.267  13.057
10309W        W78527  37.826  24.435  12.444
10310W        W78528   4.171  29.427   3.887
10311W        W78529  36.314  41.968   4.514
10312W        W78530  39.625   6.272   3.606
10313W        W78531  14.082  32.363  12.035
10314W        W78532  18.707  29.383  11.877
10315W        W78533  23.627  22.623   2.867
10316W        W78534   7.338  31.589  13.066
10317W        W78535  26.723   7.437  14.615
10318W        W78536   3.464  26.972  11.573
10319W        W78537  21.546  19.319  13.462
10320W        W78538  27.971  17.248  10.299
10321W        W78539  28.348  34.849  12.044
10322W        W78540  43.468   8.068  10.633
10323W        W78541  28.047  32.304   1.853
10324W        W78542  12.801  17.556  14.467
10325W        W78543  18.270   2.655   3.495
10326W        W78544  20.191  38.829   1.207
10327W        W78545  42.463  27.763  13.031
10328W        W78546  39.553   9.304   1.343
10329W        W78547  38.041  12.571  12.864
10330W        W78548  28.405  28.690   1.574
10331W        W78549  43.506  13.087   0.356
10332W        W78550  38.596  20.966   4.844
10333W        W78551  29.595   6.985   4.192
10334W        W78552  29.616  24.864  11.642
10335W        W78553  37.882  39.101   4.100
10336W        W78554  33.237   8.777  13.099
10337W        W78555   9.724  37.809  10.818
10338W        W78556  40.813  27.571   0.859
10339W        W78557  38.956   0.987   1.437
10340W        W78558  37.812  44.017   4.053
10341W        W78559  26.649  17.637  14.577
10342W        W78560  19.271   5.970  14.417
10343W        W78561  37.897   2.240  14.798
10344W        W78562  31.347  22.569  11.198
10345W        W78563   4.260  17.278   1.480
10346W        W78564  31.063  35.876   1.003
10347W        W78565  13.978  11.578   0.902
10348W        W78566  41.269  33.569   3.556
10349W        W78567   1.201  36.885  12.985
10350W        W78568  34.492  22.590   3.515
10351W        W78569  24.323  38.558   0.829
10352W        W78570  12.221  39.377   4.598
10353W        W78571   2.458   5.438  11.582
10354W        W78572   1.505  37.461  14.362
10355W        W78573  44.019  26.368   4.624
10356W        W78574  15.046  21.269   2.636
10357W        W78575   3.833  40.886  11.793
10358W        W78576  19.714  27.939   1.844
10359W        W78577  38.934  16.292  14.368
10360W        W78578  22.277   1.660   4.157
10361W        W78579  32.548  41.507   0.481
10362W        W78580   2.112   4.141  12.884
10363W        W78581  36.422  19.786  10.802
10364W        W78582   2.301  44.377  10.553
10365W        W78583  39.952  30.974   2.221
10366W        W78584  23.136  21.769  14.383
10367W        W78585  16.086  19.049   2.656
10368W        W78586  33.529  22.239  12.384
10369W        W78587  27.383   8.130  12.955
10370W        W78588  42.743  34.455  12.132
10371W        W78589  28.186  30.966   3.333
10372W        W78590  30.535  23.334  14.562
10373W        W78591  33.699  25.098   2.215
10374W        W78592  19.648   8.684   0.306
10375W        W78593  28.453  18.836   1.285
10376W        W78594  27.508  12.825  14.538
10377W        W78595  23.156  21.708   4.415
10378W        W78596   4.229  36.477  10.876
10379W        W78597   0.331  39.246  14.953
10380W        W78598  27.175   0.867  11.628
10381W        W78599   0.049  14.821   1.276
10382W        W78600  32.780   8.108   4.217
10383W        W78601  44.116  43.228   3.741
10384W        W78602  25.906  19.173   2.558
10385W        W78603  32.379  16.266  10.636
10386W        W78604   6.004  11.133   3.328
10387W        W78605  40.372   0.251   3.307
10388W        W78606  10.703  27.974   0.488
10389W        W78607   0.002  38.359  10.749
10390W        W78608   6.503  33.157   1.987
10391W        W78609  38.892  43.431   4.627
10392W        W78610   8.872  27.207   4.117
10393W        W78611  41.356  33.972   3.218
10394W        W78612  12.852  24.916  11.390
10395W        W78613   3.953  13.820   2.541
10396W        W78614  33.446   8.373  11.651
10397W        W78615  38.357   2.192  13.947
10398W        W78616  16.128   1.771  10.794
10399W        W78617  36.491   5.014   2.669
10400W        W78618  27.546  12.949  10.979
10401W        W78619  35.042  23.275  11.872
10402W        W78620  36.737  28.891  14.850
10403W        W78621  19.724  21.107   2.965
10404W        W78622  12.531  41.983   4.579
10405W        W78623  39.490  14.329  13.305
10406W        W78624  14.631  37.950   4.765
10407W        W78625   7.078  24.236   4.083
10408W        W78626   3.955  22.758   4.808
10409W        W78627  20.727  13.236   0.252
10410W        W78628  31.171  17.752  11.840
10411W        W78629   2.922  15.285  12.021
10412W        W78630  20.986  13.215  11.660
10413W        W78631   8.195  19.915  12.660
10414W        W78632  43.081  36.032   4.736
10415W        W78633  19.609  26.942   4.857
10416W        W78634  44.815  42.203   0.278
10417W        W78635  21.902   8.136   2.824
10418W        W78636  35.864  39.624   1.178
10419W        W78637  21.706  37.832   3.045
10420W        W78638  17.983  32.149   2.814
10421W        W78639  36.222   9.502  11.608
10422W        W78640   2.672  20.168  13.413
10423W        W78641   4.005   8.634   4.418
10424W        W78642  30.948  34.387  12.619
10425W        W78643  12.307  33.893   1.179
10426W        W78644  20.763  38.301  14.313
10427W        W78645  37.458  35.568  12.946
10428W        W78646  20.036  17.922  10.617
10429W        W78647  39.985  12.514   4.142
10430W        W78648  20.964  10.255   0.291
10431W        W78649  31.381  23.077  13.049
10432W        W78650  32.949  17.548  10.651
10433W        W78651  12.617  36.107   4.536
10434W        W78652  26.105   9.193  10.628
10435W        W78653  19.233   2.895  14.499
10436W        W78654   0.763  29.618  13.148
10437W        W78655  29.465  13.605   2.247
10438W        W78656  23.997   5.699   2.783
10439W        W78657  28.519  40.985  14.370
10440W        W78658  35.702  27.450   4.409
10441W        W78659  20.002  11.756  10.398
10442W        W78660  18.745  22.687  12.649
10443W        W78661  13.152   1.445   3.243
10444W        W78662   9.409  38.432  13.031
10445W        W78663  44.511   4.776   3.688
10446W        W78664  43.233  24.434  11.066
10447W        W78665  43.876  28.009   0.613
10448W        W78666  33.836  35.810  12.660
10449W        W78667  35.554  38.311  14.771
10450W        W78668  15.844  32.425   3.199
10451W        W78669  26.005   6.362   2.201
10452W        W78670  26.480  13.800  10.632
10453W        W78671  35.002  31.872   2.229
10454W        W78672  30.503  21.041  13.082
10455W        W78673  42.835   4.716   0.315
10456W        W78674  21.120  44.491   1.398
10457W        W78675  11.045  14.338  11.610
10458W        W78676  11.049  40.599  14.730
10459W        W78677  18.300   1.303  13.154
10460W        W78678  29.462   8.014   4.226
10461W        W78679  18.416  41.212   3.628
10462W        W78680   4.877  26.359   4.635
10463W        W78681  15.619  24.258  11.281
10464W        W78682   0.008  21.044   1.705
10465W        W78683   5.370  10.376  10.622
10466W        W78684  28.896  24.429  14.392
10467W        W78685  33.157  15.762  11.910
10468W        W78686   8.391  39.451  12.704
10469W        W78687  41.597  26.689  13.452
10470W        W78688  30.849  12.802  13.299
10471W        W78689   0.503  17.190   0.814
10472W        W78690  36.523  26.182  13.756
10473W        W78691  17.122  25.020   2.233
10474W        W78692  11.032  15.794   1.839
10475W        W78693   5.371   7.489   4.099
10476W        W78694  18.857  19.608  12.367
10477W        W78695  13.063  10.427  11.140
10478W        W78696  35.284  12.292  14.211
10479W        W78697  27.205  23.095  11.902
10480W        W78698   1.333  35.547  12.070
10481W        W78699  44.017  21.217  10.545
10482W        W78700   5.687  36.549   2.741
10483W        W78701  19.068  34.040   0.027
10484W        W78702  20.750  20.383  13.472
10485W        W78703  40.092  12.299  12.627
10486W        W78704   0.833   6.669  10.031
10487W        W78705  33.702   8.366   4.268
10488W        W78706  35.554   5.713   1.883
10489W        W78707  31.390  27.048   2.596
10490W        W78708  16.845   6.659   0.453
10491W        W78709  19.603  28.168  13.954
10492W        W78710  22.374  20.866   1.444
10493W        W78711  18.659   1.423  13.526
10494W        W78712  30.472  31.295   2.624
10495W        W78713  34.364  34.393   3.279
10496W        W78714   3.457  44.752   2.865
10497W        W78715  26.403   0.515   1.728
10498W        W78716   4.973  44.312   4.636
10499W        W78717   6.313   2.677  10.626
10500W        W78718  10.070  25.262   4.896
10501W        W78719   4.622   9.112  14.304
10502W        W78720  13.373  33.731  13.433
10503W        W78721  39.690  18.841   3.626
10504W        W78722   2.051  16.330   3.640
10505W        W78723   0.441   7.185  10.261
10506W        W78724   8.915   0.390   0.816
10507W        W78725  24.997  22.069  13.007
10508W        W78726  42.478   5.422   3.370
10509W        W78727  10.841  34.051   2.349
10510W        W78728  37.898  29.444   1.681
10511W        W78729  19.192  10.118   2.284
10512W        W78730  24.683  21.521  14.826
10513W        W78731  24.115  26.600  11.629
10514W        W78732  14.056  26.278  13.000
10515W        W78733  44.452  24.124   0.011
10516W        W78734  41.423  41.585   3.692
10517W        W78735  43.745  29.653   2.689
10518W        W78736   5.931  25.185   1.556
10519W        W78737  33.113  44.474  12.964
10520W        W78738   0.385  19.821   1.712
10521W        W78739   5.734   2.631  14.510
10522W        W78740   2.631  11.794  13.925
10523W        W78741  38.997   6.751  13.772
10524W        W78742  44.924  14.275  10.706
10525W        W78743  38.782   8.830  11.964
10526W        W78744   4.411   7.280   3.788
10527W        W78745  30.721   9.187  13.400
10528W        W78746  37.601  16.118  14.803
10529W        W78747  23.874   2.775   1.385
10530W        W78748  38.803  20.968   2.691
10531W        W78749  15.907  11.701   0.478
10532W        W78750  40.533  38.645   0.978
10533W        W78751   9.207  22.805   2.827
10534W        W78752  15.194  28.209   1.229
10535W        W78753  39.373  38.110   4.595
10536W        W78754  33.825   1.854  14.531
10537W        W78755   5.169  22.225   3.709
10538W        W78756   4.226  18.516   1.809
10539W        W78757  37.300  20.054   2.304
10540W        W78758  27.440  15.555  14.221
10541W        W78759  23.218  28.138   3.731
10542W        W78760  21.319   8.879   1.809
10543W        W78761  40.928   0.971  12.848
10544W        W78762   0.460   2.032  11.085
10545W        W78763  14.774  38.765  12.678
10546W        W78764  16.274   6.389  13.312
10547W        W78765   2.041  22.358  11.589
10548W        W78766  31.110  29.194   4.987
10549W        W78767   8.391  26.528  12.395
10550W        W78768  20.460  26.374   3.118
10551W        W78769  11.721  41.863  10.634
10552W        W78770  43.293  28.554  13.168
10553W        W78771  37.577   9.778  11.039
10554W        W78772  25.385  38.809   1.248
10555W        W78773  19.177   3.262  12.525
10556W        W78774  44.532  39.323   1.229
10557W        W78775  23.593  19.571  13.512
10558W        W78776   0.891  32.109   4.125
10559W        W78777  10.391   0.078  11.127
10560W        W78778   1.757  37.667  12.181
10561W        W78779  39.235  12.093   4.565
10562W        W78780  34.485  34.180  12.584
10563W        W78781  32.999  26.185  14.619
10564W        W78782  34.888  25.213  14.381
10565W        W78783  41.362   7.906  12.506
10566W        W78784  32.192  36.012   2.239
10567W        W78785   1.363   8.839  12.159
10568W        W78786  26.079  23.560   1.805
10569W        W78787   6.640  44.975   2.249
10570W        W78788  32.418  33.483  14.487
10571W        W78789   3.635  37.995  13.456
10572W        W78790  13.934  23.671  14.686
10573W        W78791   4.656  38.441  12.526
10574W        W78792  21.421  35.500  13.059
10575W        W78793  26.943  43.816  13.531
10576W        W78794  30.593  19.585   0.712
10577W        W78795   9.860  44.558  12.980
10578W        W78796  35.786  11.077   3.640
10579W        W78797  32.995   1.389   0.414
10580W        W78798  14.316  32.996   1.431
10581W        W78799  40.284   1.614   1.704
10582W        W78800  38.063  26.467   3.787
10583W        W78801  39.280  38.323   1.938
10584W        W78802  19.586   2.014   2.990
10585W        W78803  17.299  44.964   4.509
10586W        W78804   5.790   4.828  13.642
10587W        W78805  34.442  43.482   0.826
10588W        W78806  44.464  15.277   4.903
10589W        W78807  15.533   9.435  13.408
10590W        W78808   2.996  36.402  13.910
10591W        W78809  34.819   7.192  13.274
10592W        W78810  17.650  28.524  11.066
10593W        W78811  20.102  25.157   1.144
10594W        W78812   0.769  11.343   1.016
10595W        W78813  13.234  39.519   3.710
10596W        W78814  25.612  34.023  11.703
10597W        W78815  37.445  32.707   2.735
10598W        W78816  13.604  19.477   2.745
10599W        W78817   9.006   8.287  10.841
10600W        W78818  11.616  19.090  13.975
10601W        W78819  43.066  35.922  10.170
10602W        W78820  33.040  31.076  13.607
10603W        W78821  33.609   4.627   4.269
10604W        W78822  17.197  15.534   1.465
10605W        W78823  22.959  16.481  12.803
10606W        W78824   2.810  29.474  14.761
10607W        W78825  39.518  36.495  12.322
10608W        W78826  31.554   4.500  14.308
10609W        W78827  11.793  34.583  10.362
10610W        W78828  32.424  12.212   1.921
10611W        W78829  33.615  34.057  11.697
10612W        W78830  34.682  42.525   2.135
10613W        W78831  41.471   7.620  13.439
10614W        W78832  12.260  11.106   2.920
10615W        W78833  11.852  11.569   1.773
10616W        W78834  16.281   1.202  13.111
10617W        W78835  44.406  18.591   1.980
10618W        W78836  16.804  37.428   3.345
10619W        W78837   3.735  18.245  13.809
10620W        W78838  37.834  37.538  10.111
10621W        W78839  12.311  36.907   0.862
10622W        W78840  42.485  38.805   0.230
10623W        W78841  31.168   6.780   1.616
10624W        W78842  34.493  33.573  11.397
10625W        W78843  10.013  13.810  11.016
10626W        W78844  13.358  38.398   3.139
10627W        W78845   5.808   2.924  10.637
10628W        W78846  34.847  39.241   2.964
10629W        W78847  13.919   5.709  12.897
10630W        W78848  24.591  21.294  14.356
10631W        W78849   2.322  20.833   2.215
10632W        W78850   9.760  14.709  14.829
10633W        W78851   4.323   2.995   2.325
10634W        W78852  23.232  43.855   2.623
10635W        W78853  13.125  26.226  13.520
10636W        W78854  20.537   4.795  14.308
10637W        W78855  27.241  32.017   4.849
10638W        W78856  15.263  21.705   4.672
10639W        W78857  15.646  10.303  14.927
10640W        W78858  17.813  25.672   3.816
10641W        W78859  28.361  33.792   0.510
10642W        W78860  28.661  37.270   1.364
10643W        W78861  37.562  29.427  11.758
10644W        W78862  11.781   8.310   2.739
10645W        W78863  44.027  19.544   0.507
10646W        W78864   0.024  23.896   3.109
10647W        W78865  15.485   6.697  14.366
10648W        W78866  37.565   1.181   0.826
10649W        W78867  44.056  25.333   3.917
10650W        W78868  19.170  17.403   2.282
10651W        W78869  30.039  39.039   1.158
10652W        W78870  23.243  33.137   0.620
10653W        W78871   9.624  38.083  12.266
10654W        W78872  14.116  13.775  14.602
10655W        W78873  31.108   2.421  12.873
10656W        W78874   3.994  17.652   0.592
10657W        W78875  31.036   0.413   3.526
10658W        W78876  33.900  17.681   2.750
10659W        W78877   6.668   3.171   3.700
10660W        W78878   4.158   2.218  13.115
10661W        W78879   3.662  44.390   9.791
10662W        W78880  41.178   7.950  14.375
10663W        W78881   4.228  24.388  10.744
10664W        W78882  31.524   2.640  13.823
10665W        W78883  38.843  32.861  13.278
10666W        W78884  24.203  20.957  14.380
10667W        W78885  40.095  28.564   3.446
10668W        W78886  43.899  35.152   4.264
10669W        W78887  19.363  15.873  13.334
10670W        W78888  23.710  15.737   1.466
10671W        W78889  15.180  32.956   0.946
10672W        W78890   9.634  15.286  13.917
10673W        W78891  36.951  37.071  14.420
10674W        W78892  16.419  30.660   3.178
10675W        W78893  20.645  33.434   4.035
10676W        W78894  27.487  29.934  13.917
10677W        W78895  29.422  17.545  11.540
10678W        W78896  36.072  22.173   1.394
10679W        W78897  19.032  11.882   0.969
10680W        W78898  43.213  43.429  13.889
10681W        W78899  17.748  36.845  11.200
10682W        W78900   1.403  41.398  12.320
10683W        W78901   9.302  12.555   4.544
10684W        W78902   9.763  38.090  14.938
10685W        W78903  30.538  32.188   1.780
10686W        W78904  35.457  10.175  11.178
10687W        W78905   6.814   5.609  11.210
10688W        W78906  26.074  42.018  13.433
10689W        W78907   8.918  17.700  12.519
10690W        W78908   3.234  24.851   1.185
10691W        W78909   0.910  24.470   2.339
10692W        W78910  15.259  26.577  10.568
10693W        W78911  20.872  37.313  11.111
10694W        W78912  41.648   5.832  11.244
10695W        W78913   8.333  11.418  11.589
10696W        W78914  23.229  11.350   4.239
10697W        W78915  33.411  17.035   2.709
10698W        W78916  36.788   1.954   3.169
10699W        W78917   8.716  30.183  14.388
10700W        W78918   3.925  26.915   2.053
10701W        W78919  14.608  15.071   0.468
10702W        W78920  38.297   7.948  12.007
10703W        W78921  33.425  35.328   3.740
10704W        W78922   3.699  43.036  13.877
10705W        W78923  38.374  33.643   4.247
10706W        W78924  38.218  21.706   4.628
10707W        W78925  29.994  37.495   1.700
10708W        W78926   9.818  11.410  11.555
10709W        W78927  31.082  39.302  11.940
10710W        W78928  13.261  31.821  12.135
10711W        W78929   2.733   5.243   0.350
10712W        W78930  28.489  27.727   4.692
10713W        W78931   0.395  12.580  10.631
10714W        W78932  10.692  38.793   0.943
10715W        W78933  39.529  27.001   1.797
10716W        W78934  11.671  29.497  12.163
10717W        W78935  23.656  40.949  10.632
10718W        W78936  13.541  16.091  10.929
10719W        W78937  14.058  12.086   4.476
10720W        W78938  25.051  25.163  14.498
10721W        W78939  44.397  27.097   2.322
10722W        W78940  12.854   4.649  14.431
10723W        W78941   0.316  16.078  13.505
10724W        W78942   0.022  39.015   2.473
10725W        W78943  42.540   4.983  12.757
10726W        W78944  26.463  39.023  13.022
10727W        W78945  31.123  20.217  12.115
10728W        W78946  34.433  21.339  13.924
10729W        W78947  32.125  21.135   3.609
10730W        W78948  34.572  14.525  14.799
10731W        W78949   9.349   6.282  14.999
10732W        W78950   8.856  38.610  12.077
10733W        W78951  39.067   3.795   0.501
10734W        W78952  15.519  42.416   5.128
10735W        W78953   2.283  25.221   2.388
10736W        W78954   2.792  24.953   2.563
10737W        W78955  18.023  14.033  11.615
10738W        W78956  28.319  20.467   0.035
10739W        W78957  15.200  34.946  11.907
10740W        W78958  16.568  14.862  10.198
10741W        W78959   0.342   1.284   4.698
10742W        W78960  37.148  12.257  12.975
10743W        W78961  34.156   1.404  13.994
10744W        W78962  44.101  21.092  12.492
10745W        W78963  37.994  38.437  12.757
10746W        W78964   6.903  11.700  10.771
10747W        W78965  40.115   1.563  13.896
10748W        W78966  12.701  19.322  12.917
10749W        W78967  16.478   7.568  11.556
10750W        W78968   7.887  14.074   3.565
10751W        W78969  28.396  39.900   0.932
10752W        W78970  44.819  35.474   1.234
10753W        W78971   4.276  39.922   3.094
10754W        W78972  29.661   0.365   4.333
10755W        W78973  11.323  14.138   1.284
10756W        W78974  16.010  44.051  13.064
10757W        W78975  12.864  34.129   3.685
10758W        W78976  12.213  20.067   1.667
10759W        W78977   7.227  11.161  11.154
10760W        W78978  36.544  44.319   2.790
10761W        W78979  38.049  37.885  14.029
10762W        W78980   4.961  38.428  12.113
10763W        W78981  16.596   4.756   3.628
10764W        W78982  14.990  30.527  13.104
10765W        W78983   6.280   1.716   4.080
10766W        W78984  16.317  25.671  10.762
10767W        W78985  41.743  35.146   1.169
10768W        W78986   4.736  24.561   2.751
10769W        W78987   5.323  16.802   5.465
10770W        W78988  16.904   0.669  10.397
10771W        W78989  24.134  19.581   3.254
10772W        W78990  23.575  33.208  13.521
10773W        W78991  28.486  24.770  11.143
10774W        W78992   0.165  30.230  13.020
10775W        W78993  17.956  18.545  13.681
10776W        W78994  42.136   4.217   1.940
10777W        W78995   8.477  20.003   3.481
10778W        W78996  34.352  22.059   0.439
10779W        W78997  35.981  32.108   4.386
10780W        W78998  15.330  15.770  14.933
10781W        W78999  39.792  18.042   2.901
10782W        W79000  23.029  34.472  13.814
10783W        W79001  38.467   5.185   3.119
10784W        W79002  40.295   9.407   3.772
10785W        W79003  32.951  12.802   0.922
10786W        W79004  27.579  24.711  13.010
10787W        W79005  36.568   8.060   1.804
10788W        W79006  43.515  25.454   4.817
10789W        W79007  35.136   3.896   1.687
10790W        W79008  19.300  24.966   0.512
10791W        W79009  22.922  38.132   4.212
10792W        W79010  33.141  18.121   1.320
10793W        W79011  28.186  33.178  14.510
10794W        W79012  23.668  27.605  10.858
10795W        W79013  30.575  24.481   0.520
10796W        W79014  14.809   1.258   3.663
10797W        W79015  35.491   6.406   4.580
10798W        W79016  24.706  19.160   1.819
10799W        W79017  25.658  39.042  10.683
10800W        W79018  44.443  26.277   4.360
10801W        W79019  42.956  38.870   4.218
10802W        W79020  14.233  12.717  12.093
10803W        W79021  27.660  36.456   2.834
10804W        W79022  34.356  17.580  12.410
10805W        W79023  28.169  31.360  13.959
10806W        W79024  42.023  15.286  11.077
10807W        W79025   3.715  17.057   3.725
10808W        W79026  32.955  37.632  13.971
10809W        W79027   0.779  25.512  11.654
10810W        W79028  28.846  37.031  14.862
10811W        W79029  27.566  33.549  14.046
10812W        W79030   2.022  31.556   4.030
10813W        W79031   3.882  12.624  10.770
10814W        W79032  38.298   8.860  12.184
10815W        W79033   8.663  28.595   2.830
10816W        W79034   5.950   3.231   2.376
10817W        W79035  19.998  27.089  12.838
10818W        W79036   9.702  24.694  14.502
10819W        W79037  41.967  30.183  13.680
10820W        W79038  35.171   1.521  12.947
10821W        W79039   5.800  13.306  11.514
10822W        W79040  36.646  44.050   1.241
10823W        W79041  41.626  36.258  12.904
10824W        W79042  11.996  26.556   5.103
10825W        W79043  22.018  14.829   4.645
10826W        W79044  23.770  44.035  13.046
10827W        W79045  34.449  25.069  10.963
10828W        W79046  41.849  34.381   2.800
10829W        W79047  21.779  35.020   1.067
10830W        W79048  14.762   4.657   3.858
10831W        W79049  29.458  20.496  14.825
10832W        W79050  22.956   2.974   3.160
10833W        W79051  44.376  18.191  12.536
10834W        W79052  20.265  15.661   2.717
10835W        W79053  16.195  27.144   4.753
10836W        W79054  28.559  28.487  10.940
10837W        W79055  22.543   9.509  12.109
10838W        W79056  15.826  29.725   3.125
10839W        W79057  34.465  23.577   1.954
10840W        W79058  26.850  43.891  14.980
10841W        W79059  38.541  10.658  12.517
10842W        W79060  38.746  33.900  11.631
10843W        W79061   3.109  40.963   3.755
10844W        W79062  17.549  26.127  10.689
10845W        W79063  39.966  15.765   0.719
10846W        W79064  43.435  28.119   2.422
10847W        W79065  17.668   2.423  12.991
10848W        W79066  43.391  16.639  14.304
10849W        W79067   5.758  10.367   2.813
10850W        W79068  32.424   0.234   3.686
10851W        W79069  32.032  18.154   1.634
10852W        W79070  31.198  36.086  13.906
10853W        W79071  17.282  16.582   3.025
10854W        W79072  19.166  37.482  14.322
10855W        W79073  27.220  35.408  14.479
10856W        W79074  23.106  26.019  12.994
10857W        W79075  40.359   7.270  14.204
10858W        W79076  29.783   1.525  13.638
10859W        W79077   6.222  13.147  12.905
10860W        W79078  29.391  22.397   1.244
10861W        W79079  29.341  36.193   4.312
10862W        W79080  17.125  25.081  10.797
10863W        W79081   9.242  29.255   3.446
10864W        W79082   9.749  37.813   2.744
10865W        W79083  41.387   3.201  14.706
10866W        W79084  36.051   1.208   4.959
10867W        W79085  24.200   7.441  11.113
10868W        W79086  42.424  21.689   3.636
10869W        W79087  43.649  39.398  14.372
10870W        W79088  40.662  14.635   1.895
10871W        W79089  16.222  16.824  13.531
10872W        W79090  30.509  25.274  13.827
10873W        W79091  35.032   2.717  12.350
10874W        W79092  33.714  39.312   4.218
10875W        W79093  39.778  37.512  14.392
10876W        W79094  28.795  37.014  11.454
10877W        W79095   1.446  31.039  13.422
10878W        W79096   8.263  32.832  14.893
10879W        W79097  20.735  14.156   5.012
10880W        W79098  38.095  31.905   1.836
10881W        W79099   0.966  39.515  13.944
10882W        W79100  21.101  18.174  13.011
10883W        W79101  24.208  20.989  11.513
10884W        W79102   0.857  19.629  13.695
10885W        W79103   7.741  42.333   1.796
10886W        W79104  37.892  37.148  13.459
10887W        W79105   9.825  27.650  12.463
10888W        W79106  32.038  22.731   1.213
10889W        W79107  31.311  28.139   1.308
10890W        W79108  39.060   5.138  14.865
10891W        W79109  32.523  38.128  12.151
10892W        W79110  14.164   7.274  11.613
10893W        W79111  41.832  37.578  14.824
10894W        W79112  31.536  11.858  12.906
10895W        W79113   4.329  20.654  12.698
10896W        W79114   0.333  15.745   3.602
10897W        W79115   0.699   2.965  12.091
10898W        W79116  32.892  24.736  14.686
10899W        W79117  20.515  21.192  13.464
10900W        W79118   7.328  16.158   2.415
10901W        W79119  26.014  13.491  12.141
10902W        W79120   9.028  15.624   0.357
10903W        W79121  26.439  32.891  11.487
10904W        W79122   2.249  23.519   0.333
10905W        W79123   9.770   4.502   4.607
10906W        W79124  44.158  32.544  14.052
10907W        W79125  15.735  27.095  13.366
10908W        W79126  16.225  29.364  12.316
10909W        W79127  11.144  15.332  13.787
10910W        W79128  16.911   1.942  10.206
10911W        W79129  12.981  36.170   0.748
10912W        W79130  15.722   1.498  13.894
10913W        W79131  21.991   8.879  10.619
10914W        W79132  26.599  26.588  12.165
10915W        W79133  38.279  41.848   0.790
10916W        W79134   9.409  18.093  11.446
10917W        W79135  43.449  43.943   4.135
10918W        W79136   4.329  15.874  13.004
10919W        W79137   1.260  10.632   2.852
10920W        W79138  18.936  10.234   1.842
10921W        W79139   9.712  28.342   3.618
10922W        W79140  31.259  43.212   1.244
10923W        W79141  38.418  23.101   2.748
10924W        W79142  14.594  32.433  14.915
10925W        W79143  18.504  43.075  10.148
10926W        W79144  13.769  14.059  12.046
10927W        W79145   7.915  44.765   3.346
10928W        W79146   4.849  25.321   1.038
10929W        W79147  21.785  32.018  12.126
10930W        W79148  16.670  19.220   4.636
10931W        W79149  37.218  16.349   2.660
10932W        W79150  28.658  31.663  14.975
10933W        W79151   0.179  14.544  13.444
10934W        W79152  38.960  35.667  13.003
10935W        W79153  15.698  23.725   1.752
10936W        W79154  39.604  31.382   0.272
10937W        W79155  28.096  18.520  10.311
10938W        W79156  14.653  31.143   3.913
10939W        W79157  19.411   1.965  14.361
10940W        W79158  12.845  16.079  10.409
10941W        W79159  13.074   0.128   2.314
10942W        W79160  25.738   8.257  13.791
10943W        W79161  13.289   5.182   1.184
10944W        W79162  37.947  38.067  11.633
10945W        W79163  29.293  38.024  12.012
10946W        W79164  30.426  31.042  13.424
10947W        W79165  26.133  32.091  11.531
10948W        W79166   4.965   3.449   0.723
10949W        W79167  26.017  18.741   3.760
10950W        W79168  44.837  20.588  11.461
10951W        W79169  10.200  37.582  13.468
10952W        W79170  27.010  10.389  11.112
10953W        W79171  35.123  20.447   4.425
10954W        W79172  15.269  34.664  13.914
10955W        W79173  25.734  41.806  14.466
10956W        W79174  28.367  17.410   4.127
10957W        W79175  29.569  27.967   2.158
10958W        W79176  12.130   3.265   3.121
10959W        W79177   7.960   8.295   0.960
10960W        W79178  24.231  43.817  11.995
10961W        W79179  38.479  24.503   4.579
10962W        W79180   8.257  18.733  11.478
10963W        W79181   5.343   4.759   9.581
10964W        W79182  41.913  13.572   3.749
10965W        W79183  31.562  13.935   0.715
10966W        W79184  14.052  23.601   3.380
10967W        W79185  25.661  31.999   1.780
10968W        W79186  17.581  43.824  13.947
10969W        W79187  42.786  20.180   3.336
10970W        W79188  17.683  18.668  11.993
10971W        W79189  34.936   3.454   4.650
10972W        W79190  40.464   1.067   2.632
10973W        W79191  33.152  40.837  11.353
10974W        W79192  16.774   8.261  14.001
10975W        W79193   9.156  43.370   0.841
10976W        W79194  41.667   7.463   0.749
10977W        W79195  22.767  22.709  11.576
10978W        W79196  42.772  20.488  10.394
10979W        W79197  37.034  13.146   3.618
10980W        W79198  38.887   8.640   1.821
10981W        W79199  30.522  37.314   3.815
10982W        W79200  41.329  36.940   4.123
10983W        W79201  25.670  34.901   0.242
10984W        W79202  37.453   1.382   5.026
10985W        W79203   3.271  43.911   2.311
10986W        W79204  19.139   4.900  11.375
10987W        W79205  15.693  42.464   0.345
10988W        W79206   2.685  44.864   4.934
10989W        W79207  18.477   2.723   2.135
10990W        W79208  37.423  20.329  10.666
10991W        W79209  22.644  37.882   2.624
10992W        W79210   1.681  37.074   3.207
10993W        W79211  19.165   5.974  14.961
10994W        W79212  35.300  28.802   4.965
10995W        W79213   0.890   3.266  10.882
10996W        W79214   1.747  13.688   4.279
10997W        W79215  23.870   6.782  10.683
10998W        W79216  24.417  15.240   0.465
10999W        W79217  31.524  36.818   0.422
11000W        W79218  40.177  24.016   4.224
11001W        W79219  37.262  44.405  11.076
11002W        W79220  21.480  21.699   1.478
11003W        W79221  38.849  43.609  11.915
11004W        W79222   3.047   6.673  12.740
11005W        W79223  26.485   0.380  11.415
11006W        W79224  37.058   0.563  13.948
11007W        W79225  18.999  13.795  11.618
11008W        W79226  16.291  44.406  12.691
11009W        W79227   4.661  44.813   1.420
11010W        W79228  33.834  29.591   0.880
11011W        W79229  28.512   5.227  11.574
11012W        W79230  25.967   4.425  11.641
11013W        W79231  21.681  13.844   3.751
11014W        W79232  30.347  36.484   3.239
11015W        W79233  44.760   9.139   2.454
11016W        W79234  33.052   2.837  11.441
11017W        W79235  28.403  38.903   4.600
11018W        W79236  22.761  17.733   1.433
11019W        W79237  43.611  28.409   0.810
11020W        W79238  34.613   1.949  12.127
11021W        W79239   7.837  44.518   3.793
11022W        W79240  20.070  23.761   3.721
11023W        W79241  40.983  41.725   0.274
11024W        W79242   2.297  35.581  14.709
11025W        W79243  22.453   4.720   2.213
11026W        W79244  44.780  38.012  12.063
11027W        W79245   7.584   1.051   3.695
11028W        W79246  21.958  29.345   2.238
11029W        W79247   7.563   9.171   1.849
11030W        W79248   3.841   3.794   4.616
11031W        W79249  22.930  29.888   1.536
11032W        W79250  27.783  10.369   5.183
11033W        W79251  17.663  22.246  13.042
11034W        W79252  40.976  36.445  13.893
11035W        W79253  23.234  36.863  12.899
11036W        W79254  22.354  34.966  13.032
11037W        W79255  39.592  16.095  14.017
11038W        W79256  39.383   0.714   1.239
11039W        W79257  26.308  11.237  11.185
11040W        W79258  30.447  43.068  12.416
11041W        W79259  22.792  38.938  11.973
11042W        W79260   1.431  14.383  12.952
11043W        W79261  17.380  44.441   4.597
11044W        W79262  10.532  19.318  13.862
11045W        W79263  12.710  26.452  13.305
11046W        W79264  28.328  42.736   2.774
11047W        W79265   8.298  18.496   2.761
11048W        W79266  19.174  11.680  13.160
11049W        W79267  22.982  37.823   3.808
11050W        W79268  27.873   4.215  14.059
11051W        W79269  38.129  41.996  14.062
11052W        W79270  16.126  24.521  14.035
11053W        W79271  33.666  27.208  12.816
11054W        W79272  18.702  36.593   3.587
11055W        W79273  32.362  20.506  12.338
11056W        W79274  15.905  23.651   3.175
11057W        W79275  25.190  17.649   1.276
11058W        W79276  32.920   2.324  11.496
11059W        W79277  36.868   4.904   0.894
11060W        W79278   3.057  34.035   4.232
11061W        W79279  28.004  23.978  10.755
11062W        W79280  29.722  36.530   1.955
11063W        W79281  29.019  33.538  11.122
11064W        W79282  14.178   4.833   3.166
11065W        W79283  44.870  33.507  10.643
11066W        W79284   4.876  14.199  13.542
11067W        W79285  21.650  19.388  12.079
11068W        W79286   5.795   7.582  10.449
11069W        W79287  28.948  27.117   0.861
11070W        W79288  30.826  12.269  12.918
11071W        W79289  44.110  28.474  11.634
11072W        W79290  29.601  36.209  14.258
11073W        W79291   1.425  11.796  12.470
11074W        W79292  20.233   5.990  12.963
11075W        W79293  27.524  17.667   2.205
11076W        W79294  22.443  25.444  12.559
11077W        W79295  43.647  37.156   4.847
11078W        W79296   3.920  29.162  13.285
11079W        W79297  15.149  16.606   3.943
11080W        W79298   9.893  17.220   4.363
11081W        W79299   3.536  14.617   4.533
11082W        W79300  27.934  27.157   0.758
11083W        W79301  29.648  39.735  12.977
11084W        W79302   4.208  26.676   4.146
11085W        W79303  30.782  36.370   1.966
11086W        W79304  40.870   3.895  12.430
11087W        W79305   1.873  33.496   2.459
11088W        W79306  24.617  20.498  14.784
11089W        W79307   7.986  44.357  11.689
11090W        W79308  31.660  30.567   2.636
11091W        W79309  18.937  31.007  10.626
11092W        W79310  13.086   6.710   2.131
11093W        W79311   0.872  27.075  14.843
11094W        W79312  41.756  23.525  13.902
11095W        W79313  44.011  11.689  14.934
11096W        W79314  43.906  32.413   3.349
11097W        W79315   3.419  44.331   4.382
11098W        W79316  14.686  37.065   4.681
11099W        W79317  20.737  14.124  12.466
11100W        W79318  32.856  22.686  11.480
11101W        W79319  30.435  33.970   0.842
11102W        W79320  20.707  28.064   1.669
11103W        W79321  43.774  22.030   1.688
11104W        W79322  35.171  14.357   4.597
11105W        W79323  27.176   1.380   1.052
11106W        W79324  27.184  38.662   0.031
11107W        W79325  36.303  41.527  11.998
11108W        W79326  14.758  22.426  11.536
11109W        W79327  20.542  39.058  12.453
11110W        W79328  27.171  27.104  11.599
11111W        W79329   5.700  40.548   0.238
11112W        W79330  38.655   7.346   4.588
11113W        W79331   9.387  26.766   0.266
11114W        W79332  19.004   6.628  12.410
11115W        W79333  31.074   6.633  13.868
11116W        W79334  19.557  30.601   1.243
11117W        W79335   3.889  41.304   0.894
11118W        W79336  22.319  26.030   3.143
11119W        W79337  31.374  19.707   1.211
11120W        W79338   6.305  32.735   1.758
11121W        W79339   9.680  10.297  14.864
11122W        W79340  26.402  20.107   3.263
11123W        W79341  13.733  44.427   2.427
11124W        W79342  16.883  13.249  11.781
11125W        W79343  43.871   5.228   2.481
11126W        W79344  17.728  10.472  11.130
11127W        W79345   1.394  20.978  10.887
11128W        W79346  17.241  24.544  13.522
11129W        W79347  17.312  38.912   0.453
11130W        W79348   1.907  13.119  10.708
11131W        W79349  14.572  36.292  11.908
11132W        W79350   5.408   3.423   0.048
11133W        W79351  30.462  10.665  13.412
11134W        W79352  33.790  34.014   0.940
11135W        W79353  39.548  10.499   1.935
11136W        W79354  32.013  12.565   0.323
11137W        W79355  31.573   5.655   5.464
11138W        W79356  17.873   8.800   2.226
11139W        W79357  26.875  28.768   3.742
11140W        W79358  37.397  18.095  14.466
11141W        W79359  44.525  36.127  11.171
11142W        W79360  13.468  40.418  12.457
11143W        W79361  43.213  25.981  10.708
11144W        W79362  39.996  24.476   4.442
11145W        W79363   9.062  44.246  10.718
11146W        W79364   7.938   4.637   2.216
11147W        W79365  26.459  36.608  14.502
11148W        W79366  19.078  40.120   0.294
11149W        W79367  34.881  20.582  12.443
11150W        W79368  26.244  24.176  13.866
11151W        W79369  42.903  33.050  14.710
11152W        W79370  16.816   0.755  13.697
11153W        W79371  31.953  34.706   2.103
11154W        W79372  26.257  20.017  12.129
11155W        W79373  40.610   0.847  13.682
11156W        W79374   7.885  42.330  10.284
11157W        W79375  30.000   9.498   4.644
11158W        W79376  12.714  43.809  13.459
11159W        W79377  37.817  11.373   0.378
11160W        W79378  26.140  32.412   3.885
11161W        W79379  39.026  27.695  10.290
11162W        W79380  16.291  39.208   3.234
11163W        W79381  36.025  12.761  12.067
11164W        W79382  41.266  30.051  11.018
11165W        W79383  44.867  13.037  11.202
11166W        W79384  29.396  25.967   0.892
11167W        W79385   2.411  32.421  14.896
11168W        W79386  39.782  23.963  14.542
11169W        W79387  13.161  17.632   0.578
11170W        W79388  44.345  18.575  11.184
11171W        W79389  14.603   4.748   4.880
11172W        W79390  42.406  24.593  11.474
11173W        W79391   8.890   1.861  14.578
11174W        W79392  35.921  40.478   2.637
11175W        W79393  11.013  10.828   0.796
11176W        W79394  17.059  26.449  10.098
11177W        W79395  40.759  12.641   2.843
11178W        W79396  11.100   3.689  12.449
11179W        W79397  35.588  11.303  10.935
11180W        W79398  33.587  10.219  12.026
11181W        W79399  42.090  16.377  13.114
11182W        W79400  11.677   7.736   1.453
11183W        W79401   6.754  22.997   1.362
11184W        W79402  19.105   5.468  14.868
11185W        W79403  27.086  33.092  12.887
11186W        W79404  17.954   8.360  12.187
11187W        W79405  15.013  15.592  11.791
11188W        W79406  30.189  12.700   2.635
11189W        W79407  24.754  12.573  11.529
11190W        W79408  43.967  30.610   2.680
11191W        W79409  36.358  18.742   2.260
11192W        W79410  13.058   7.410  11.748
11193W        W79411  28.695  35.665   0.819
11194W        W79412  37.482  10.939   2.719
11195W        W79413  29.878  42.931   0.227
11196W        W79414   1.726  20.124  14.769
11197W        W79415  28.195  35.296   4.892
11198W        W79416  13.247   2.686   3.926
11199W        W79417  35.393  17.340   0.001
11200W        W79418  16.066  44.058  14.095
11201W        W79419  13.782  27.920  13.490
11202W        W79420  21.666  15.082   4.305
11203W        W79421  41.097  13.796  11.674
11204W        W79422   4.358  14.108   2.802
11205W        W79423  42.848  15.131   0.184
11206W        W79424  22.001  29.389  10.735
11207W        W79425   4.002  36.592  13.853
11208W        W79426  41.474  42.239  14.879
11209W        W79427  20.506  35.426  14.378
11210W        W79428  43.257  20.702  11.125
11211W        W79429  41.033   2.903   4.507
11212W        W79430  33.356  17.228   1.770
11213W        W79431  14.634  29.212  13.391
11214W        W79432  23.254  11.239  14.783
11215W        W79433  42.043   1.631  14.342
11216W        W79434   8.462  12.705  11.191
11217W        W79435   3.792  34.553  14.115
11218W        W79436  44.809  26.370   3.514
11219W        W79437  16.703  15.678  10.589
11220W        W79438   5.912  23.766   1.800
11221W        W79439  36.614  37.896   4.494
11222W        W79440  19.438  42.269  12.042
11223W        W79441  28.457   1.413   4.603
11224W        W79442   4.752   1.567   0.791
11225W        W79443  11.241  39.929  13.629
11226W        W79444  20.650  36.140  10.710
11227W        W79445  17.201  18.517  12.070
11228W        W79446  12.226  29.703  14.421
11229W        W79447  15.417  23.519  14.901
11230W        W79448  11.306  17.602  11.285
11231W        W79449  38.273  29.193  11.735
11232W        W79450   1.015  23.981   2.112
11233W        W79451  16.825  44.788   3.396
11234W        W79452   1.490  34.846  12.627
11235W        W79453  10.167  44.783  14.472
11236W        W79454  33.634  36.909  11.565
11237W        W79455  31.448  20.152   0.868
11238W        W79456   8.355   6.342  12.115
11239W        W79457  32.612   2.723  13.342
11240W        W79458  26.314  44.410   4.782
11241W        W79459  32.511  16.766  10.503
11242W        W79460   4.105   5.867   1.047
11243W        W79461  29.055  35.607  12.027
11244W        W79462  24.530   3.924   4.471
11245W        W79463  29.576   2.835   0.641
11246W        W79464  36.748  35.944   4.212
11247W        W79465  44.051  19.979   0.238
11248W        W79466   4.825  39.821  12.948
11249W        W79467  41.058  44.976  13.589
11250W        W79468  21.641  19.175   2.396
11251W        W79469  31.741  29.504  13.393
11252W        W79470  38.733   2.202  12.166
11253W        W79471   7.632  21.718  13.869
11254W        W79472  44.109   0.269  13.022
11255W        W79473  19.977   9.183   0.329
11256W        W79474  43.349   4.262  14.707
11257W        W79475  13.496  14.672   0.810
11258W        W79476  27.972  17.098  14.581
11259W        W79477  39.167   4.478  10.256
11260W        W79478  25.724  21.706  13.244
11261W        W79479  10.125  32.665  10.721
11262W        W79480  35.836   3.840  10.165
11263W        W79481  36.555  18.400  14.305
11264W        W79482  41.494  28.383  14.950
11265W        W79483   1.871  36.644  11.228
11266W        W79484  17.648  16.587   1.304
11267W        W79485  25.211  36.454  12.114
11268W        W79486  37.622  28.149   3.409
11269W        W79487  42.448   7.667   0.949
11270W        W79488  35.723   2.450  10.635
11271W        W79489   0.818   6.411   1.999
11272W        W79490  15.042  15.659  11.268
11273W        W79491  22.306   9.731  14.223
11274W        W79492  36.807  31.615   0.538
11275W        W79493  39.300   7.159   2.725
11276W        W79494  27.021  17.812  13.285
11277W        W79495  37.356  12.777  14.420
11278W        W79496  31.858  22.825   0.331
11279W        W79497   4.727  28.529   3.103
11280W        W79498  20.108  34.511  13.324
11281W        W79499   2.818   2.482  14.881
11282W        W79500   9.129  16.622   3.945
11283W        W79501  39.855  30.969  12.495
11284W        W79502  36.408  32.340   4.712
11285W        W79503  11.148  43.486   1.824
11286W        W79504  26.572  42.374   3.374
11287W        W79505  17.987  36.399  14.845
11288W        W79506  30.662   8.619  11.604
11289W        W79507  10.149   3.786   0.012
11290W        W79508  38.437  37.353  11.417
11291W        W79509  28.958   7.288   4.990
11292W        W79510  18.997  27.064  10.797
11293W        W79511  37.322   1.063  12.784
11294W        W79512  37.527  17.219   3.745
11295W        W79513  11.738  13.195  13.141
11296W        W79514  16.513   5.425   3.534
11297W        W79515   2.879  37.377   1.832
11298W        W79516  29.032  34.946   1.956
11299W        W79517  34.051  44.727   2.958
11300W        W79518  42.933  44.965   2.681
11301W        W79519  21.703  28.833   2.667
11302W        W79520  30.879  18.574   4.009
11303W        W79521   7.438  38.644  11.486
11304W        W79522   6.217  27.202  11.073
11305W        W79523  43.491  12.708  13.427
11306W        W79524   6.210  35.094  14.880
11307W        W79525  13.440  43.380  10.195
11308W        W79526  11.713  19.036  11.702
11309W        W79527  20.014  14.189   3.619
11310W        W79528  23.187  41.241  10.668
11311W        W79529   1.432  27.941  11.041
11312W        W79530  15.829  33.464   4.366
11313W        W79531  25.759  17.640   4.204
11314W        W79532  35.524  43.961   3.624
11315W        W79533   7.406  12.056   4.091
11316W        W79534   3.495  21.778  13.383
11317W        W79535  36.149  10.333  12.156
11318W        W79536  15.673  18.006   1.899
11319W        W79537  39.840   9.971  12.590
11320W        W79538   8.710  37.896   1.952
11321W        W79539  12.787  25.884   4.165
11322W        W79540  26.714  30.329   0.430
11323W        W79541   8.887  31.437  13.927
11324W        W79542  44.147  10.822  12.519
11325W        W79543  21.239  14.194  11.619
11326W        W79544  16.026  34.953   4.675
11327W        W79545  17.844   5.365   4.559
11328W        W79546  27.954   4.561   3.218
11329W        W79547  40.810  14.056  14.327
11330W        W79548  14.542  33.185   0.328
11331W        W79549  24.518   1.561   2.649
11332W        W79550   2.417  40.556   2.892
11333W        W79551  28.697  10.964   0.811
11334W        W79552  38.656   3.737   4.949
11335W        W79553  33.440  30.191  10.704
11336W        W79554   9.179  34.593   1.445
11337W        W79555  30.799  15.725  10.238
11338W        W79556  25.093  14.625   4.327
11339W        W79557  25.980   0.483  11.430
11340W        W79558  32.975  27.637   3.255
11341W        W79559  12.607   4.155   0.777
11342W        W79560  12.866  37.913  14.611
11343W        W79561  18.265  37.048  14.847
11344W        W79562  30.887   3.252  14.344
11345W        W79563  42.306  10.772  12.910
11346W        W79564  28.040  11.385   1.409
11347W        W79565   8.479   6.141  14.571
11348W        W79566  19.989  23.450  14.801
11349W        W79567   2.971   4.723  11.551
11350W        W79568  35.790  28.173   3.130
11351W        W79569  13.824  24.896  11.619
11352W        W79570   0.836  20.786  11.612
11353W        W79571  30.520  20.767   1.608
11354W        W79572  44.706  23.213  12.517
11355W        W79573   3.256  43.267  11.601
11356W        W79574  25.561  42.809  13.411
11357W        W79575   3.203  20.697  12.900
11358W        W79576  42.565  22.179  10.691
11359W        W79577  15.082  32.817  11.063
11360W        W79578  30.104  42.057  11.947
11361W        W79579  28.887  28.443   1.353
11362W        W79580  41.075  28.116   4.163
11363W        W79581  14.336  41.449   0.831
11364W        W79582  24.943  44.765  13.390
11365W        W79583  37.893  12.814  14.100
11366W        W79584  22.580  17.117   0.186
11367W        W79585  16.491  15.382  10.170
11368W        W79586  23.730  39.027  11.854
11369W        W79587  16.198  32.469  14.731
11370W        W79588  20.782   6.789   2.808
11371W        W79589  20.702  42.576   4.275
11372W        W79590   3.133  12.360  14.049
11373W        W79591  21.278  16.521   0.389
11374W        W79592  44.299   7.486   2.705
11375W        W79593  43.004  35.185   0.758
11376W        W79594   8.309  38.105   1.281
11377W        W79595  20.877  20.978   5.016
11378W        W79596  31.905  29.307   1.613
11379W        W79597  30.667  33.512   2.030
11380W        W79598  16.304   8.895  13.400
11381W        W79599  24.815  34.412   3.300
11382W        W79600  10.744  35.390  11.991
11383W        W79601  24.722  30.673  12.309
11384W        W79602  37.340   1.236   4.205
11385W        W79603  41.329  18.817  13.843
11386W        W79604  29.039  30.906  11.910
11387W        W79605  16.237  12.087  11.542
11388W        W79606   0.247   5.262   4.706
11389W        W79607  40.709  38.433   4.210
11390W        W79608  19.217  10.557   1.267
11391W        W79609  40.338  35.789   2.900
11392W        W79610  32.328  30.902   2.165
11393W        W79611   8.236   4.384  11.280
11394W        W79612   1.660  24.525  11.123
11395W        W79613   6.268   2.962  11.913
11396W        W79614  24.514  10.761   3.181
11397W        W79615   5.138  14.239  10.744
11398W        W79616  38.914   2.234   0.104
11399W        W79617   7.447  36.076   0.087
11400W        W79618  11.238   3.282  13.581
11401W        W79619  33.043  21.113   4.599
11402W        W79620  34.648  36.753  14.594
11403W        W79621  41.873   0.263   3.590
11404W        W79622  38.002  18.024   2.111
11405W        W79623  42.774  26.464   2.277
11406W        W79624  34.337   5.260  13.859
11407W        W79625  40.816   1.097  11.525
11408W        W79626  28.118  17.024   4.753
11409W        W79627   4.210  37.368  11.970
11410W        W79628  15.382  22.367  13.950
11411W        W79629  36.421  20.254   4.900
11412W        W79630  42.308  18.073  13.654
11413W        W79631  18.571  37.925   4.108
11414W        W79632  11.651  18.680  10.414
11415W        W79633  10.830  28.448  13.725
11416W        W79634  19.025   8.171   3.382
11417W        W79635  25.101  22.558   3.989
11418W        W79636   0.331  44.522   3.768
11419W        W79637  33.394  42.508   0.866
11420W        W79638  33.029  23.275  13.259
11421W        W79639  21.213  44.189  14.717
11422W        W79640  23.826  41.351  13.505
11423W        W79641  37.339  12.723   3.511
11424W        W79642  21.122  29.973  14.803
11425W        W79643  43.260  42.867   2.277
11426W        W79644   8.223  40.345  12.382
11427W        W79645  34.884   7.941  13.830
11428W        W79646   2.993  35.183  14.231
11429W        W79647  35.517  20.495  13.858
11430W        W79648  38.662  13.024   4.562
11431W        W79649  11.733  15.260   1.211
11432W        W79650  20.337  13.469  11.090
11433W        W79651   0.458  38.946   0.431
11434W        W79652  41.026  30.456  12.654
11435W        W79653   2.286  41.997  13.347
11436W        W79654  43.932  25.444  10.774
11437W        W79655  35.867   3.247  11.261
11438W        W79656  15.093  41.523  12.132
11439W        W79657  41.471   8.245  10.723
11440W        W79658   9.288  27.126   1.440
11441W        W79659   0.340  24.493  14.572
11442W        W79660  20.740  31.961   5.003
11443W        W79661  33.172  21.686   0.220
11444W        W79662  38.113  16.121  13.819
11445W        W79663   3.273  24.593  12.488
11446W        W79664  10.181  31.043   2.253
11447W        W79665  37.844  38.910   0.823
11448W        W79666  37.042  39.503   1.211
11449W        W79667   2.012  10.371  13.970
11450W        W79668   2.938  37.988   4.817
11451W        W79669   1.262  12.637  14.713
11452W        W79670  39.899   0.306  13.994
11453W        W79671  24.475  18.877  11.993
11454W        W79672  38.906  31.574  10.387
11455W        W79673  17.907  26.284   4.535
11456W        W79674  18.218  28.652  10.668
11457W        W79675  29.655  43.465   1.757
11458W        W79676  37.951   2.479  13.827
11459W        W79677  19.952  31.086  14.426
11460W        W79678  22.753  35.729  14.814
11461W        W79679  28.488   2.909   1.376
11462W        W79680  41.426   9.467   1.936
11463W        W79681  32.818  21.330   1.917
11464W        W79682  42.806  24.492  14.787
11465W        W79683   6.922  22.305   3.834
11466W        W79684   7.288  43.851   2.186
11467W        W79685  44.304   0.167  10.678
11468W        W79686  31.203   1.360  10.689
11469W        W79687  33.278   3.963  14.783
11470W        W79688  22.592   3.922   0.784
11471W        W79689  13.219   1.751   1.728
11472W        W79690  22.568  10.475   4.856
11473W        W79691   9.716  17.664  13.550
11474W        W79692   4.698   8.340   3.301
11475W        W79693   2.728  31.603  12.233
11476W        W79694  35.538  11.280  10.415
11477W        W79695  40.494   2.400   4.389
11478W        W79696  42.984  11.178   2.175
11479W        W79697  32.640  43.078  12.921
11480W        W79698  35.376  33.656  11.360
11481W        W79699  27.326  31.161   3.345
11482W        W79700  30.150  38.982  10.408
11483W        W79701  25.047  23.051  11.126
11484W        W79702  18.320  29.933  12.950
11485W        W79703  38.785  25.510   1.678
11486W        W79704  44.460   2.257   4.153
11487W        W79705   5.154  21.232   3.186
11488W        W79706  32.822   5.461  13.922
11489W        W79707  42.479  28.065  12.056
11490W        W79708  11.742  42.710  12.385
11491W        W79709  25.904  40.295  13.437
11492W        W79710  19.738  18.287  12.636
11493W        W79711  32.525   2.253   1.341
11494W        W79712  41.961  23.238  12.513
11495W        W79713  40.771  38.887  14.368
11496W        W79714  43.498  39.339   1.941
11497W        W79715   1.897   7.162   3.159
11498W        W79716  33.086  43.564   4.069
11499W        W79717  42.898   7.212  11.065
11500W        W79718  27.993  24.416  12.938
11501W        W79719  20.965  40.550  12.045
11502W        W79720  32.479  43.239  11.097
11503W        W79721  30.993  22.349   5.086
11504W        W79722  35.481   1.611   3.215
11505W        W79723   8.729  35.582   3.351
11506W        W79724  25.273   0.715  12.963
11507W        W79725  12.666   9.663  11.080
11508W        W79726  18.967  41.435   4.043
11509W        W79727  34.617  27.080  13.997
11510W        W79728   4.871  10.151  10.602
11511W        W79729   9.261  11.582  13.663
11512W        W79730  21.452   8.417  13.062
11513W        W79731  43.043   9.308   0.506
11514W        W79732  37.996  25.229   4.151
11515W        W79733   9.689  18.828   2.310
11516W        W79734  21.417  29.556   3.081
11517W        W79735  22.686  41.367  11.896
11518W        W79736  14.788  29.218   1.527
11519W        W79737   6.350  10.057   4.114
11520W        W79738  40.249  23.020  14.075
11521W        W79739  10.414  16.592   1.420
11522W        W79740   5.601  43.184  13.231
11523W        W79741  22.640  41.096   4.325
11524W        W79742  40.609  32.042   3.083
11525W        W79743  35.365  10.660  12.040
11526W        W79744  29.676  23.084  14.770
11527W        W79745  19.018   8.629  14.003
11528W        W79746   0.375  18.241   1.454
11529W        W79747   6.419  25.529  10.752
11530W        W79748  31.419  26.725   4.090
11531W        W79749  28.702   8.286   3.582
11532W        W79750  33.775  11.884  13.531
11533W        W79751  33.117  22.554   0.502
11534W        W79752  22.675  16.087  12.553
11535W        W79753   0.790  35.070  13.373
11536W        W79754  24.566  11.148  11.055
11537W        W79755  40.546  32.977   0.254
11538W        W79756  30.614  29.223   1.328
11539W        W79757  19.749  40.324   2.868
11540W        W79758  36.732   8.741  12.994
11541W        W79759   6.150  35.906   0.905
11542W        W79760  43.567   0.418  12.077
11543W        W79761  34.861  14.298   4.156
11544W        W79762  34.609  35.741  12.457
11545W        W79763  11.636  27.931  12.444
11546W        W79764  10.181  32.343   2.679
11547W        W79765  12.368  18.135   2.735
11548W        W79766  31.950  36.530   0.022
11549W        W79767  30.667  23.982   0.533
11550W        W79768   1.198  28.009  14.991
11551W        W79769  43.459   1.405  14.049
11552W        W79770  13.307   4.383  12.347
11553W        W79771   9.733  14.306   1.658
11554W        W79772   5.731  28.392  11.242
11555W        W79773   5.960   4.830   4.898
11556W        W79774  16.834  24.476   0.495
11557W        W79775  30.000   6.392  14.265
11558W        W79776   5.371  36.385   1.324
11559W        W79777  15.258   9.848   3.018
11560W        W79778  33.386   2.158   0.882
11561W        W79779   0.374  36.864   2.329
11562W        W79780  13.123   8.078  13.989
11563W        W79781  36.621  19.177   1.389
11564W        W79782  10.799  36.056   0.515
11565W        W79783  40.215  10.426   2.285
11566W        W79784  24.237  42.819   3.832
11567W        W79785  36.308  17.251  14.746
11568W        W79786  34.537  32.086   1.460
11569W        W79787  10.808  11.259   1.120
11570W        W79788  28.521  36.740  13.663
11571W        W79789  39.004  25.015   2.091
11572W        W79790  14.098  29.589   2.296
11573W        W79791  37.157  11.353   2.790
11574W        W79792   2.236  37.613  11.057
11575W        W79793  12.912  38.654   3.813
11576W        W79794  26.965  19.064   2.764
11577W        W79795  35.184   4.510   0.225
11578W        W79796  38.249  26.111   2.901
11579W        W79797  20.888  39.507  11.559
11580W        W79798  29.867  18.827   2.633
11581W        W79799   0.914  36.858  13.417
11582W        W79800  28.964  26.318  14.071
11583W        W79801  10.896  18.599  14.484
11584W        W79802  19.315   4.214   4.647
11585W        W79803  27.429  16.321  13.035
11586W        W79804  41.254   8.675   2.701
11587W        W79805  27.166  42.648   3.448
11588W        W79806  32.790  18.066   1.700
11589W        W79807  29.533   4.835   4.532
11590W        W79808  25.198   5.485   3.803
11591W        W79809  33.604  32.643   4.653
11592W        W79810  33.988  23.554   3.205
11593W        W79811   8.920  18.557  12.011
11594W        W79812  14.576  44.486  14.971
11595W        W79813  10.286  32.037  11.625
11596W        W79814  26.682  42.959   2.128
11597W        W79815   5.815   7.937  13.906
11598W        W79816  33.196  33.033  10.707
11599W        W79817  11.651   4.839   0.362
11600W        W79818  34.157  35.804   4.741
11601W        W79819  24.250  17.318   1.933
11602W        W79820  41.334  27.992  14.241
11603W        W79821   4.201  43.273   2.422
11604W        W79822  18.470  17.996  13.060
11605W        W79823  35.356  23.800   4.236
11606W        W79824   8.179  23.882  12.455
11607W        W79825   2.435  20.584   0.045
11608W        W79826  18.086  23.183  10.652
11609W        W79827  19.627  36.352   3.759
11610W        W79828  41.404  31.455   0.900
11611W        W79829  11.237  24.057  13.822
11612W        W79830  38.495  43.989   0.384
11613W        W79831  36.334  30.529  13.751
11614W        W79832  35.952  27.656  10.531
11615W        W79833   2.488  14.287   2.803
11616W        W79834  24.254  38.801   3.666
11617W        W79835  32.267  11.998  10.953
11618W        W79836  19.213  22.471   4.799
11619W        W79837  37.236  21.207   1.188
11620W        W79838  21.625  15.529   4.044
11621W        W79839   7.704   1.728  10.664
11622W        W79840  20.549  11.070   2.841
11623W        W79841   1.029   7.477  12.532
11624W        W79842  10.716  30.996  14.984
11625W        W79843  10.638  25.920  11.592
11626W        W79844   3.708   8.740  11.999
11627W        W79845  11.692  44.498   2.270
11628W        W79846  15.749  10.907   1.779
11629W        W79847  25.473   3.509   3.778
11630W        W79848  16.833   3.169  13.019
11631W        W79849   1.817  38.287   4.272
11632W        W79850  10.345  21.267   1.792
11633W        W79851  35.488  39.760  12.918
11634W        W79852   9.243   8.956   0.837
11635W        W79853  38.199  42.884  14.938
11636W        W79854  30.662  43.683  10.709
11637W        W79855   2.532   1.400   2.820
11638W        W79856  19.118  23.250  11.489
11639W        W79857   0.507  25.148  11.038
11640W        W79858   7.438  14.797   2.673
11641W        W79859  16.798  26.700  13.889
11642W        W79860  20.535   2.961   4.149
11643W        W79861  28.547  23.020   4.248
11644W        W79862  40.538   4.895   2.875
11645W        W79863  16.640  18.093  14.960
11646W        W79864  36.068  39.140  13.631
11647W        W79865  37.624  37.340  12.452
11648W        W79866  31.572  35.727   0.805
11649W        W79867  41.627  38.496  10.793
11650W        W79868  22.475  10.240  11.633
11651W        W79869   2.704  21.457  14.930
11652W        W79870  25.633  20.627   2.922
11653W        W79871   0.598  30.453  12.859
11654W        W79872  18.891  19.171   2.839
11655W        W79873  16.148  23.654  11.020
11656W        W79874  40.069  29.918  11.541
11657W        W79875  34.853  25.072   5.132
11658W        W79876  10.374  13.783   3.322
11659W        W79877  27.653   5.878   2.832
11660W        W79878   6.884  28.551   0.211
11661W        W79879  13.059  28.552   2.243
11662W        W79880  19.477  34.564   4.269
11663W        W79881  19.345  30.374   4.000
11664W        W79882   2.782   5.322   3.760
11665W        W79883  29.520  26.728  12.305
11666W        W79884  17.115  23.454  10.688
11667W        W79885  29.437   0.108  14.305
11668W        W79886  22.236  28.636   2.594
11669W        W79887  36.698  25.914   1.787
11670W        W79888   7.142  33.559   4.591
11671W        W79889  19.084  20.102  10.708
11672W        W79890   6.239  34.425   4.317
11673W        W79891  34.451  11.079   0.539
11674W        W79892  29.490  13.427   0.436
11675W        W79893  14.877  11.809   0.827
11676W        W79894   6.746  32.884   0.685
11677W        W79895  19.214  38.474  11.570
11678W        W79896  30.862  23.978  12.967
11679W        W79897   4.973  17.343  14.812
11680W        W79898   4.669  42.411   3.137
11681W        W79899   6.460   7.116  11.196
11682W        W79900  19.170   3.771   3.382
11683W        W79901   4.954   0.749  10.773
11684W        W79902   5.395   3.862  13.764
11685W        W79903  42.337  32.524   0.287
11686W        W79904  31.376  27.982   2.146
11687W        W79905  29.374   7.890   2.716
11688W        W79906  29.098  18.569   3.213
11689W        W79907  36.377   8.142   0.544
11690W        W79908   6.283  16.678   3.612
11691W        W79909  23.460   1.436  14.410
11692W        W79910  16.041  12.993  12.835
11693W        W79911   4.182  25.753   4.353
11694W        W79912  25.685  10.148  12.971
11695W        W79913  20.116  11.696   0.911
11696W        W79914  13.317  39.779   0.301
11697W        W79915  23.542  17.107  14.476
11698W        W79916  10.872  10.745  13.082
11699W        W79917   8.799  23.068   2.545
11700W        W79918  20.859   2.738  11.157
11701W        W79919  16.145  33.975  12.445
11702W        W79920  35.448  30.447   4.229
11703W        W79921   9.134  28.834   2.660
11704W        W79922   3.456  14.847   0.846
11705W        W79923  10.453  23.921   0.135
11706W        W79924   8.605  30.150  12.590
11707W        W79925   6.231   2.250   2.714
11708W        W79926  33.979  21.481   2.387
11709W        W79927  44.733  17.214  13.850
11710W        W79928  15.457  21.838  14.451
11711W        W79929  27.055  44.488   1.456
11712W        W79930   3.732  37.519   1.257
11713W        W79931  26.213  30.125  12.342
11714W        W79932   0.910  43.033   4.178
11715W        W79933   8.167  33.107   3.704
11716W        W79934  11.257  36.674   3.846
11717W        W79935  39.778  22.279  10.441
11718W        W79936  19.807  39.976   2.488
11719W        W79937  10.620   9.517   1.380
11720W        W79938  16.042  27.649  11.919
11721W        W79939  38.972  27.718   3.720
11722W        W79940  24.500  25.957   0.189
11723W        W79941  23.082  35.361   2.221
11724W        W79942  34.046  22.961   0.683
11725W        W79943  22.397  42.052  11.259
11726W        W79944  26.462   9.242  13.462
11727W        W79945  44.495  17.529  14.508
11728W        W79946  13.113  42.146   2.129
11729W        W79947  10.907  15.677  10.247
11730W        W79948  44.840  22.072   1.400
11731W        W79949  13.829  43.079  12.026
11732W        W79950  27.645  32.524   2.840
11733W        W79951  31.864  44.420   3.198
11734W        W79952  44.351  42.743   0.956
11735W        W79953  35.672  40.290   0.540
11736W        W79954  43.304  33.682   3.291
11737W        W79955   8.193  36.432  13.037
11738W        W79956  41.840  41.897   4.270
11739W        W79957   5.768  18.743  10.730
11740W        W79958  35.965  21.008  13.305
11741W        W79959  40.572  16.697   0.818
11742W        W79960   1.811  41.732  13.416
11743W        W79961  10.823  16.304   1.767
11744W        W79962   3.543  43.182   4.958
11745W        W79963  43.546   3.283  14.932
11746W        W79964  29.723  40.482   3.190
11747W        W79965  42.858   6.518   0.790
11748W        W79966  20.629  30.069   4.472
11749W        W79967  13.214  16.084  13.255
11750W        W79968  10.357  37.026   2.150
11751W        W79969  39.901  21.237   0.300
11752W        W79970  42.802  25.755   4.614
11753W        W79971  18.732   1.999  13.549
11754W        W79972   4.455   9.726   2.535
11755W        W79973   8.815   4.377   1.350
11756W        W79974   7.225  15.227   1.975
11757W        W79975  15.737  37.255  14.628
11758W        W79976  18.085  31.991  10.232
11759W        W79977   9.620   0.803   2.016
11760W        W79978  16.219  26.072  13.498
11761W        W79979   3.731  30.143   3.646
11762W        W79980   1.927  13.821  12.281
11763W        W79981   2.582  36.401  14.911
11764W        W79982  35.608  25.417   5.025
11765W        W79983  34.508   4.677   2.188
11766W        W79984  31.442  30.570  14.674
11767W        W79985  43.913  31.173   1.897
11768W        W79986  39.088  35.519   2.306
11769W        W79987   1.228  14.173   4.900
11770W        W79988   8.245  26.011  11.516
11771W        W79989  19.861  20.198  11.187
11772W        W79990   3.317   5.917  13.953
11773W        W79991   6.429  15.773   2.567
11774W        W79992  26.085   9.512  11.471
11775W        W79993  16.411   0.801  12.772
11776W        W79994   9.659  29.936   0.842
11777W        W79995  10.361  21.504  14.470
11778W        W79996   2.516  27.529   2.231
11779W        W79997  26.635  29.601  14.828
11780W        W79998   3.730  35.488  11.019
11781W        W79999   8.102  22.959  14.970
11782W        W80000  34.809  25.414  11.096
11783W        W80001   9.835  25.748   1.234
11784W        W80002   3.934   4.680  13.147
11785W        W80003  38.220  10.238   4.053
11786W        W80004  16.643   1.752   2.656
11787W        W80005  38.823   1.182  13.494
11788W        W80006  23.792  20.062   1.099
11789W        W80007  11.824   0.943   2.290
11790W        W80008  13.672  39.501   3.347
11791W        W80009  29.054  19.224   1.265
11792W        W80010  40.975  30.460  11.125
11793W        W80011  14.506  10.137  11.027
11794W        W80012  23.554  23.196  12.741
11795W        W80013  24.564   8.458  13.329
11796W        W80014  29.065  28.941   0.037
11797W        W80015  12.269  44.439   0.855
11798W        W80016  34.907  16.635   4.159
11799W        W80017  38.999  11.692  11.298
11800W        W80018   0.768  30.683  10.328
11801W        W80019  28.210   6.121  11.454
11802W        W80020   7.782  22.716  12.419
11803W        W80021  20.696  19.837   4.251
11804W        W80022  39.487  13.722  14.081
11805W        W80023  25.005  21.086   3.350
11806W        W80024   8.848  37.670  12.121
11807W        W80025  15.845  28.422   3.312
11808W        W80026   8.105  26.450   0.426
11809W        W80027  26.021  31.456   0.682
11810W        W80028  19.057  31.651  14.373
11811W        W80029  21.577  26.160  14.147
11812W        W80030  12.700   5.601  12.311
11813W        W80031  39.112  22.338  12.449
11814W        W80032   8.750   8.200   4.322
11815W        W80033  24.963  13.109  12.850
11816W        W80034   5.344  43.861   0.587
11817W        W80035  40.971  25.704   4.427
11818W        W80036  22.367  29.980   1.253
11819W        W80037  35.953   9.408  10.717
11820W        W80038  20.277  39.868   2.672
11821W        W80039  31.352  23.138   1.870
11822W        W80040  22.249  42.983  12.996
11823W        W80041  44.626  44.130   1.780
11824W        W80042   5.829  33.468  12.990
11825W        W80043  44.258  30.773   1.846
11826W        W80044   9.499  40.461  11.604
11827W        W80045  24.157  36.964   3.564
11828W        W80046  19.464  15.145   5.022
11829W        W80047   6.548  12.107   0.876
11830W        W80048  33.283   0.943   0.631
11831W        W80049  16.251  25.274  14.777
11832W        W80050   3.959  17.160   3.252
11833W        W80051  13.957  41.966  11.614
11834W        W80052  17.623  27.324  12.612
11835W        W80053  16.094  33.904   2.253
11836W        W80054  32.096  16.331  12.693
11837W        W80055   3.458  19.716  13.341
11838W        W80056   3.783  36.574   0.984
11839W        W80057  19.005  28.975   3.381
11840W        W80058  16.004  10.070  14.520
11841W        W80059  23.669  30.201  14.013
11842W        W80060  17.347  23.546  10.232
11843W        W80061  27.595   8.850  13.418
11844W        W80062  17.516  28.700  12.435
11845W        W80063   2.884  40.052  14.565
11846W        W80064  17.535   3.235  13.379
11847W        W80065  18.699  16.860   2.740
11848W        W80066  36.171   3.527   1.707
11849W        W80067  18.881  25.008   0.191
11850W        W80068  10.400  40.090   3.719
11851W        W80069  27.153  41.791  12.938
11852W        W80070   7.423  26.541  12.414
11853W        W80071  37.619  36.001   4.658
11854W        W80072  35.636  38.374  13.915
11855W        W80073  35.539  37.913   2.605
11856W        W80074   0.166  39.030  12.018
11857W        W80075  21.733  40.411   3.143
11858W        W80076  28.237   8.020  12.022
11859W        W80077  35.023   6.377  12.844
11860W        W80078  18.978  30.501  14.846
11861W        W80079  17.665  17.197   3.531
11862W        W80080  15.760  34.839   4.224
11863W        W80081  33.993  25.981   1.256
11864W        W80082  20.725  13.566   2.740
11865W        W80083   0.045  33.631   1.699
11866W        W80084  19.594  25.485  12.484
11867W        W80085   7.911  11.698  12.064
11868W        W80086  25.568  43.591  10.658
11869W        W80087  23.634  32.229   2.325
11870W        W80088   6.782  36.326   3.255
11871W        W80089  21.646  31.183  11.685
11872W        W80090   5.026  41.256   1.341
11873W        W80091  26.520   8.448   2.988
11874W        W80092   0.973   0.676   1.478
11875W        W80093  21.983  31.176   2.448
11876W        W80094   9.634  33.102   0.880
11877W        W80095  26.230  41.804  14.989
11878W        W80096  35.326  18.137  13.895
11879W        W80097  36.931  13.736  13.313
11880W        W80098   1.720  27.604  10.778
11881W        W80099  42.475  36.854   1.377
11882W        W80100  22.701  15.113  13.881
11883W        W80101  27.208  24.533  12.686
11884W        W80102  32.426  30.005   4.416
11885W        W80103   7.438   0.053   4.593
11886W        W80104  14.851  33.364   2.660
11887W        W80105  15.574   3.870   2.976
11888W        W80106  37.951  22.658   0.451
11889W        W80107   2.733  14.214   1.442
11890W        W80108  28.502  26.932   2.716
11891W        W80109  33.222  37.378  13.602
11892W        W80110  11.359  19.898   0.759
11893W        W80111  23.260  14.336   3.698
11894W        W80112  29.075  38.367  13.824
11895W        W80113   8.655   3.951  14.867
11896W        W80114   2.323  22.072   4.323
11897W        W80115   0.850  23.546   1.774
11898W        W80116  34.443   6.376   2.672
11899W        W80117  24.231  30.640  13.911
11900W        W80118   1.307  11.235   1.060
11901W        W80119  43.914  24.866  12.398
11902W        W80120  38.598  13.762   3.176
11903W        W80121   7.989  23.236  13.485
11904W        W80122  35.128  40.425  13.527
11905W        W80123   3.934  10.120   0.816
11906W        W80124  32.575   1.517  11.896
11907W        W80125  34.789  42.359  13.838
11908W        W80126  42.305   3.785  12.044
11909W        W80127  31.185   0.383   4.505
11910W        W80128  14.556  42.922   0.756
11911W        W80129  42.449  18.755   2.198
11912W        W80130  41.550  26.674   0.492
11913W        W80131   4.742  19.163   2.216
11914W        W80132  44.613  16.147  14.450
11915W        W80133   2.466  30.689   1.757
11916W        W80134   2.674  42.093   4.161
11917W        W80135  40.924  40.238   2.354
11918W        W80136  34.779   7.519  12.869
11919W        W80137   3.318  34.483  10.501
11920W        W80138  16.789   9.195  13.937
11921W        W80139   6.825  13.834   4.162
11922W        W80140  15.968  14.498  13.059
11923W        W80141  36.952   1.251  12.414
11924W        W80142   0.418   0.390  12.395
11925W        W80143  20.753   1.489   3.338
11926W        W80144   8.647  36.784   3.620
11927W        W80145  31.936  22.220  12.840
11928W        W80146  13.052   2.351  13.971
11929W        W80147  30.878  44.297  14.464
11930W        W80148  19.119  43.700   4.573
11931W        W80149   9.298   2.395   3.229
11932W        W80150   3.682  25.896  14.452
11933W        W80151  15.569  20.748  12.615
11934W        W80152   1.219   8.281   1.189
11935W        W80153  42.343  37.590   2.586
11936W        W80154   3.432  42.906   0.248
11937W        W80155  30.634  30.525  12.454
11938W        W80156  15.317  37.138  10.248
11939W        W80157  17.668  33.293   1.288
11940W        W80158  40.569  37.502  10.697
11941W        W80159  37.913   5.797   2.171
11942W        W80160  19.943  13.191   0.729
11943W        W80161  16.571  13.436  12.148
11944W        W80162  15.400   2.962  12.111
11945W        W80163  36.119   7.226   1.947
11946W        W80164  30.471  17.278   1.008
11947W        W80165  12.644   4.240   1.695
11948W        W80166  42.336  40.605  12.837
11949W        W80167  13.878  12.275   2.641
11950W        W80168  32.169   9.668   3.239
11951W        W80169  21.247   9.829   2.557
11952W        W80170  13.748   1.182   4.548
11953W        W80171  31.187  22.614   1.752
11954W        W80172  16.137  33.810  13.424
11955W        W80173  22.097  21.310   2.858
11956W        W80174  37.518  25.769   3.663
11957W        W80175   2.801  29.673   4.675
11958W        W80176  21.337  32.670   1.828
11959W        W80177   9.160  33.434  14.531
11960W        W80178  22.571  22.293  13.902
11961W        W80179  20.478   0.432   3.920
11962W        W80180  21.342  14.112   0.838
11963W        W80181  26.793  11.602  11.917
11964W        W80182   9.813  14.213   4.566
11965W        W80183  15.349  25.203   1.250
11966W        W80184  14.311   6.914  11.211
11967W        W80185  41.004  18.046  12.093
11968W        W80186  22.639   4.360   3.057
11969W        W80187  43.582  18.409   3.680
11970W        W80188  23.670  33.319   0.358
11971W        W80189  24.176  34.373  10.167
11972W        W80190  44.710  39.603  13.158
11973W        W80191  41.037  32.426   2.244
11974W        W80192   6.354  15.288  14.544
11975W        W80193  18.128  10.968  12.086
11976W        W80194  35.885  14.889  13.978
11977W        W80195   4.348  27.083  14.042
11978W        W80196  27.746  11.096   0.787
11979W        W80197  35.795  37.470   2.658
11980W        W80198   1.911   1.006   1.786
11981W        W80199  34.708  26.915  11.054
11982W        W80200  18.779  39.650   2.191
11983W        W80201   2.156  18.159  14.101
11984W        W80202  34.218   4.942   3.540
11985W        W80203  37.515  37.264   9.750
11986W        W80204  32.977  43.842  11.216
11987W        W80205  28.569  32.109   5.181
11988W        W80206  24.203  29.014  13.031
11989W        W80207   4.327  28.119   4.249
11990W        W80208  12.641   5.904   4.103
11991W        W80209  30.160  11.662  13.360
11992W        W80210  17.466  11.416   4.116
11993W        W80211  36.381  15.755  14.970
11994W        W80212  32.068   3.946  13.973
11995W        W80213  40.474   8.760  11.289
11996W        W80214   1.387  12.990  10.738
11997W        W80215  16.282  27.260   3.065
11998W        W80216  11.255  31.454   3.844
11999W        W80217  12.392  43.576   4.697
12000W        W80218   0.394  29.795  12.329
12001W        W80219   3.023  25.608  11.651
12002W        W80220   8.323   5.953  12.441
12003W        W80221  37.964  11.141  14.306
12004W        W80222  38.399  16.299  12.597
12005W        W80223   2.338  14.556  13.869
12006W        W80224   7.360  15.331  13.896
12007W        W80225  11.280  11.779   4.667
12008W        W80226   6.376  10.786   2.426
12009W        W80227   9.134  23.312  14.928
12010W        W80228  39.001  40.241   1.097
12011W        W80229  14.466  13.941   2.078
12012W        W80230  39.451  18.485  12.019
12013W        W80231  25.180  14.823   1.025
12014W        W80232  13.260  12.172  12.939
12015W        W80233  38.737  33.436  13.888
12016W        W80234   3.900   8.673  10.784
12017W        W80235   6.846  38.337   3.140
12018W        W80236  33.565  17.360  12.130
12019W        W80237  27.906  41.913   2.291
12020W        W80238  39.139  31.315   2.764
12021W        W80239  34.689  33.993   2.300
12022W        W80240  14.506  33.001  12.649
12023W        W80241  12.654  10.368  12.964
12024W        W80242  34.706   2.224  13.598
12025W        W80243  33.484  33.163   4.469
12026W        W80244  14.534   0.569  14.094
12027W        W80245  31.458  12.295  10.438
12028W        W80246  16.281  14.125  14.427
12029W        W80247  15.258  25.744  13.026
12030W        W80248   3.101  11.029   1.787
12031W        W80249  42.033  40.214   4.673
12032W        W80250  18.600  33.937   0.242
12033W        W80251  18.145   1.318   2.218
12034W        W80252  35.118   4.808  10.656
12035W        W80253  22.161  10.308   4.538
12036W        W80254  13.781   0.423   3.442
12037W        W80255  23.800  36.893   1.249
12038W        W80256   9.896  25.305   0.317
12039W        W80257  36.823  30.999  13.341
12040W        W80258  43.492  29.047  10.440
12041W        W80259  16.072  23.333  11.423
12042W        W80260  19.319  12.720   2.237
12043W        W80261   8.727  26.544  12.017
12044W        W80262  40.557  21.091   4.211
12045W        W80263  13.115   1.412  12.865
12046W        W80264  33.137  25.506   1.397
12047W        W80265   7.393   6.718  12.933
12048W        W80266  26.118  14.516  11.062
12049W        W80267   1.095  27.693  12.419
12050W        W80268  29.628  39.573  14.316
12051W        W80269  26.333  42.866   3.348
12052W        W80270   8.731  25.546   3.573
12053W        W80271  34.828  31.427  14.939
12054W        W80272  21.736  41.527  13.908
12055W        W80273  44.897   8.980  10.787
12056W        W80274  44.839  43.496   0.869
12057W        W80275   8.790  14.087   3.604
12058W        W80276  39.349  36.084   2.281
12059W        W80277  11.724  32.963  12.988
12060W        W80278   6.660  27.001   1.359
12061W        W80279   5.769  11.358  13.775
12062W        W80280  43.942   2.697   3.333
12063W        W80281  15.323  36.991   4.106
12064W        W80282  12.459  37.466   4.257
12065W        W80283   7.264  20.614   2.859
12066W        W80284   1.524  11.450   1.511
12067W        W80285  25.215   6.826  12.993
12068W        W80286  26.971  29.560   1.002
12069W        W80287  26.097  38.962  12.233
12070W        W80288   9.423  35.068   2.216
12071W        W80289   0.360   3.472   4.606
12072W        W80290  26.803  39.003  11.169
12073W        W80291  29.910  17.975   2.347
12074W        W80292  41.778  38.496  14.919
12075W        W80293  32.101  40.901  10.679
12076W        W80294  24.580  39.184   2.290
12077W        W80295  16.151  15.863  12.593
12078W        W80296  44.827  16.663   2.838
12079W        W80297  24.505  31.085  13.864
12080W        W80298  35.838  28.891   4.975
12081W        W80299  33.746  14.524  14.251
12082W        W80300  23.157  36.716   3.666
12083W        W80301  29.009  19.565   3.880
12084W        W80302  35.445   8.335  10.933
12085W        W80303  23.799  20.604  14.465
12086W        W80304  30.579  19.099  10.705
12087W        W80305   3.640  12.089  11.597
12088W        W80306  43.950  27.504   2.985
12089W        W80307  36.801  12.297  12.126
12090W        W80308  35.946  19.525   1.094
12091W        W80309  14.651  42.713  10.959
12092W        W80310  23.014  24.190   2.680
12093W        W80311  29.326  41.875  13.822
12094W        W80312  24.628  29.878   2.459
12095W        W80313  35.126  41.979   4.951
12096W        W80314  30.590  37.550   0.874
12097W        W80315  17.712  19.310   2.687
12098W        W80316  21.673  12.555   2.637
12099W        W80317  41.816   7.334   3.565
12100W        W80318  41.451  33.625  13.347
12101W        W80319  42.252  34.036  13.467
12102W        W80320  34.120  29.823   1.256
12103W        W80321   1.426   7.920   2.430
12104W        W80322  13.596  35.572  12.749
12105W        W80323  21.338   1.919   3.129
12106W        W80324  33.870  33.990  12.128
12107W        W80325  12.226   0.732   3.184
12108W        W80326  30.617   8.610   0.743
12109W        W80327  43.255  21.164   3.009
12110W        W80328  27.133  24.232  13.835
12111W        W80329   8.728  12.136  10.515
12112W        W80330   3.266  26.121  10.754
12113W        W80331  38.817  20.093  11.991
12114W        W80332  10.814   2.427   2.314
12115W        W80333  29.120   6.270   0.289
12116W        W80334  40.950  40.690   0.190
12117W        W80335   0.164  39.918  13.840
12118W        W80336  34.094  30.251   3.993
12119W        W80337  18.742  43.498  14.500
12120W        W80338  32.016   4.507   3.831
12121W        W80339  29.105  33.848   2.824
12122W        W80340  35.005  36.812  12.691
12123W        W80341  29.711   0.698   3.180
12124W        W80342  17.355   0.309  13.440
12125W        W80343  30.814  41.754  12.411
12126W        W80344  38.750  24.561   5.011
12127W        W80345  10.609   1.303   2.805
12128W        W80346  28.184  24.967  10.175
12129W        W80347   2.326  32.695  14.472
12130W        W80348  18.668  20.979  11.661
12131W        W80349  17.705   1.058  13.343
12132W        W80350   4.306  23.151  11.118
12133W        W80351  18.159  41.193  12.447
12134W        W80352  41.465  18.642   1.639
12135W        W80353   9.768   1.355  11.198
12136W        W80354  25.964  42.373   4.716
12137W        W80355  20.422  31.686   9.763
12138W        W80356  12.196  39.917  13.286
12139W        W80357   7.634  24.162  11.574
12140W        W80358  42.020  26.542   0.713
12141W        W80359  24.961  14.391  11.649
12142W        W80360   6.686  30.073   2.295
12143W        W80361  13.395  40.228  11.620
12144W        W80362   4.478  36.470  14.939
12145W        W80363  28.005  12.800   0.468
12146W        W80364  31.010   3.152  12.086
12147W        W80365  44.361   2.857   2.192
12148W        W80366  26.979   5.378   3.862
12149W        W80367  39.339   2.440   3.199
12150W        W80368   9.701  28.397   4.828
12151W        W80369  20.722  13.125  10.228
12152W        W80370  30.567  31.422  12.485
12153W        W80371  10.602  27.537   2.718
12154W        W80372  15.439  13.648   3.646
12155W        W80373  29.708  25.279  10.818
12156W        W80374  12.471  41.831  11.890
12157W        W80375  15.829  22.728  13.097
12158W        W80376  23.018  26.046   1.849
12159W        W80377  10.472  33.391  14.904
12160W        W80378  31.444  39.453  10.641
12161W        W80379  23.060  28.388  10.645
12162W        W80380  23.206  23.739   2.859
12163W        W80381  37.586   7.440  11.905
12164W        W80382  23.970  25.921   3.690
12165W        W80383  35.453  41.789  14.074
12166W        W80384  43.236  16.622   3.560
12167W        W80385   4.041  12.003   3.199
12168W        W80386  43.012   0.993   0.139
12169W        W80387   9.444  29.082  14.510
12170W        W80388  26.978  32.681  14.683
12171W        W80389  43.330  28.570   2.744
12172W        W80390  32.129  30.963  10.928
12173W        W80391  21.241  43.330   4.601
12174W        W80392  36.753  41.859  14.884
12175W        W80393  29.725  18.561  11.691
12176W        W80394  41.726   9.077   0.959
12177W        W80395   8.813  12.391  11.472
12178W        W80396  40.142  33.416   1.451
12179W        W80397  15.192   1.804   5.440
12180W        W80398  26.382   8.183  13.006
12181W        W80399  27.234  14.562  11.886
12182W        W80400   5.842   9.809  11.125
12183W        W80401  29.468  14.102   1.550
12184W        W80402  10.255  18.181   3.882
12185W        W80403   0.483  26.674   4.613
12186W        W80404  44.412   2.477  10.736
12187W        W80405  25.926   5.883  10.454
12188W        W80406  43.455  12.568  12.920
12189W        W80407  41.902   0.973   2.702
12190W        W80408  31.906  21.656  14.400
12191W        W80409  28.191   4.359   2.350
12192W        W80410  30.103  29.892  13.860
12193W        W80411  21.053   9.209  11.364
12194W        W80412   0.865  10.792   3.295
12195W        W80413  10.205  42.401  12.423
12196W        W80414  30.532  44.056   1.306
12197W        W80415  32.007  15.672   2.097
12198W        W80416  41.293  27.906  11.630
12199W        W80417  15.296  44.964   1.176
12200W        W80418  38.386  30.840   0.424
12201W        W80419  25.735   2.186  13.793
12202W        W80420  23.277  21.169  12.440
12203W        W80421  41.996  40.145   0.797
12204W        W80422  10.421  23.585   3.980
12205W        W80423  24.926  20.974  11.997
12206W        W80424  22.271  36.618   1.984
12207W        W80425   4.502  19.807  12.411
12208W        W80426  38.049  27.404   3.722
12209W        W80427  24.042  18.806  10.784
12210W        W80428  36.007   0.403   3.643
12211W        W80429  24.564  25.635   1.544
12212W        W80430  26.465  44.861  14.340
12213W        W80431  24.451   9.236   3.779
12214W        W80432  22.217  29.655   4.005
12215W        W80433  28.219  17.695  10.210
12216W        W80434  41.803  12.182  14.886
12217W        W80435   6.404  26.831   2.565
12218W        W80436  37.495   9.810  11.949
12219W        W80437  37.973  21.121   1.893
12220W        W80438  41.921  43.379   0.365
12221W        W80439  25.639  29.946  13.050
12222W        W80440  40.960   3.708   1.212
12223W        W80441  30.784   6.814  14.297
12224W        W80442  35.884  12.705  14.432
12225W        W80443   0.537   0.045   0.884
12226W        W80444  42.032   0.480   2.709
12227W        W80445  22.425  16.120   0.051
12228W        W80446  10.440  30.997   0.997
12229W        W80447  11.305  22.584   4.245
12230W        W80448  38.490  18.448   4.207
12231W        W80449  37.067  10.870   0.632
12232W        W80450  24.272   8.870  12.991
12233W        W80451   2.185  10.226   0.341
12234W        W80452  42.043  41.820  12.051
12235W        W80453  28.513  23.429   0.587
12236W        W80454   9.930  44.701  13.810
12237W        W80455  10.695   0.597   2.222
12238W        W80456   6.413  34.011  11.990
12239W        W80457  16.266  30.085  13.796
12240W        W80458  11.766   2.876  10.955
12241W        W80459  26.061  23.496  12.626
12242W        W80460  35.904  38.642   0.069
12243W        W80461  39.105  24.799  11.656
12244W        W80462   6.975  24.712   0.865
12245W        W80463  42.046  33.559   3.071
12246W        W80464  10.677  15.329   2.011
12247W        W80465  18.366  44.355   2.754
12248W        W80466  44.886  22.637  13.608
12249W        W80467  34.971  41.714  13.272
12250W        W80468  12.224  32.397  11.951
12251W        W80469  31.198  34.475  14.552
12252W        W80470  35.556   0.005  10.718
12253W        W80471  32.065  16.137  13.179
12254W        W80472  18.529   1.703   3.664
12255W        W80473  39.941  14.650  11.593
12256W        W80474  25.207   6.229   1.621
12257W        W80475  29.473  13.297  10.552
12258W        W80476   6.853  39.230   1.320
12259W        W80477  15.507   9.838   3.879
12260W        W80478  44.959   8.929   2.022
12261W        W80479  39.737  35.886  10.539
12262W        W80480   6.981  10.224  12.613
12263W        W80481  18.353  22.491  13.447
12264W        W80482  12.825  19.983  12.033
12265W        W80483  22.150   7.001  13.390
12266W        W80484  29.665   2.747  11.578
12267W        W80485   7.807  13.274   3.384
12268W        W80486   4.753  29.915  13.875
12269W        W80487  32.232   8.226  11.200
12270W        W80488  19.775   2.916   2.250
12271W        W80489  18.043  10.701  13.412
12272W        W80490  44.639   9.799  14.868
12273W        W80491  16.617   9.337  11.188
12274W        W80492   5.252  36.588  13.537
12275W        W80493  44.592   0.372   4.569
12276W        W80494  26.726  27.468   1.969
12277W        W80495  34.874   7.837   4.144
12278W        W80496  32.994  31.161  14.107
12279W        W80497  14.786   7.422  11.557
12280W        W80498   2.574  42.426   1.363
12281W        W80499   7.470  32.114  11.086
12282W        W80500  22.325  12.399  13.475
12283W        W80501  41.543  33.604   4.510
12284W        W80502   8.298  21.508  14.488
12285W        W80503  33.439  10.372  12.616
12286W        W80504  23.422  21.631  12.606
12287W        W80505   9.848  16.073  12.525
12288W        W80506  36.086  18.111  14.256
12289W        W80507   1.843  39.350  10.933
12290W        W80508  40.331  44.752  12.922
12291W        W80509  19.059  44.073  12.060
12292W        W80510   1.257  25.410  12.875
12293W        W80511  32.671  19.664   2.286
12294W        W80512   4.857  14.105  10.070
12295W        W80513   8.654  22.626  12.616
12296W        W80514   2.408  26.829   0.009
12297W        W80515   9.133   6.328   3.291
12298W        W80516  27.052   4.756  12.542
12299W        W80517  30.293  36.531  11.092
12300W        W80518   2.474   0.807  14.883
12301W        W80519  37.664  39.839   1.828
12302W        W80520  14.978  35.821   0.339
12303W        W80521  10.274  32.213  13.770
12304W        W80522  22.226  19.689   3.767
12305W        W80523  15.337   4.431  13.964
12306W        W80524   2.826  44.787  13.033
12307W        W80525  44.265  34.953   9.954
12308W        W80526  44.005  26.175  12.084
12309W        W80527   0.846  38.149  12.025
12310W        W80528  39.460   0.689  14.659
12311W        W80529  19.061  32.568   4.705
12312W        W80530  21.606   4.827   4.713
12313W        W80531  15.408   4.237   4.202
12314W        W80532  24.784  38.090  12.079
12315W        W80533  31.384  24.688   2.929
12316W        W80534  27.743   2.840  13.135
12317W        W80535  17.035  13.826  12.947
12318W        W80536  14.667  10.101  13.836
12319W        W80537  39.303  41.926  13.438
12320W        W80538  32.626  37.275   0.055
12321W        W80539  36.672  24.987  11.822
12322W        W80540  43.991  41.341  10.473
12323W        W80541  24.974  40.893   2.812
12324W        W80542  25.101  12.200  11.464
12325W        W80543  41.153   1.828   9.833
12326W        W80544  35.014   4.362  11.023
12327W        W80545  31.432   9.176   0.463
12328W        W80546  11.380  14.338  14.758
12329W        W80547  30.698  44.360  12.208
12330W        W80548  35.508   5.204   1.930
12331W        W80549  33.170  15.197   4.623
12332W        W80550  17.912  15.675  13.231
12333W        W80551  41.362  15.660  11.616
12334W        W80552  26.013  34.392  12.326
12335W        W80553  19.858  28.044   4.981
12336W        W80554  31.315  41.809  11.107
12337W        W80555  16.312  10.169  14.104
12338W        W80556  11.123  24.552   2.444
12339W        W80557   4.304  39.626   1.214
12340W        W80558  29.657  28.194   2.605
12341W        W80559  29.663  34.453  13.113
12342W        W80560  24.522  41.556  13.912
12343W        W80561  23.771  16.822  12.382
12344W        W80562   8.726  28.244   2.225
12345W        W80563  17.600   6.901  10.631
12346W        W80564  39.964  23.171  14.963
12347W        W80565   4.843   8.362  14.738
12348W        W80566   3.159  14.929  12.372
12349W        W80567  38.039  22.954   4.430
12350W        W80568  26.443  21.245  13.582
12351W        W80569  43.504   3.832  12.956
12352W        W80570  38.366  36.402  13.509
12353W        W80571  31.893  19.435  13.577
12354W        W80572   2.552  35.137  14.906
12355W        W80573   9.720  36.112  10.637
12356W        W80574   0.877  27.927   2.166
12357W        W80575  29.503  34.022  11.562
12358W        W80576   9.311  20.763   0.942
12359W        W80577  22.617  33.139   2.158
12360W        W80578  42.774  38.436   3.974
12361W        W80579   6.154  22.681  13.101
12362W        W80580   3.823   3.257  12.441
12363W        W80581   3.170  19.225   1.656
12364W        W80582  17.263   6.419  12.009
12365W        W80583  17.880  15.997   2.516
12366W        W80584   6.410   1.694   0.902
12367W        W80585  31.014  11.356   4.148
12368W        W80586  30.165  27.677  11.138
12369W        W80587  34.539  27.458  14.742
12370W        W80588   2.545  26.881  12.432
12371W        W80589  36.355  44.499   1.320
12372W        W80590  37.253  34.897   4.528
12373W        W80591   1.309  35.667   1.895
12374W        W80592  41.550  41.798  13.933
12375W        W80593   3.228  40.576   1.790
12376W        W80594  22.206  37.621   2.576
12377W        W80595  37.395  30.648   4.496
12378W        W80596   4.983  28.146   2.829
12379W        W80597  18.343   3.205  13.957
12380W        W80598  35.317  20.043   0.218
12381W        W80599  15.854  33.884   1.794
12382W        W80600  34.418  11.701  13.878
12383W        W80601   9.198  33.953   3.644
12384W        W80602   1.029  41.331   2.189
12385W        W80603   4.293  33.812   0.487
12386W        W80604  42.989  15.673  14.283
12387W        W80605  36.553   4.242  10.679
12388W        W80606  37.276  40.481  14.006
12389W        W80607  16.511  11.302   3.249
12390W        W80608  25.771   7.273   4.100
12391W        W80609  37.075  25.114   1.634
12392W        W80610  24.083  44.938  11.522
12393W        W80611  18.214  12.193  11.633
12394W        W80612  15.794  34.295  12.045
12395W        W80613  24.198   6.804  12.949
12396W        W80614   0.029  16.000   2.319
12397W        W80615  15.660  19.606   1.918
12398W        W80616  41.313  40.061   3.763
12399W        W80617  18.495  23.738  11.053
12400W        W80618  14.283  14.688   0.072
12401W        W80619   3.829  24.781  11.995
12402W        W80620  29.305  42.288  14.114
12403W        W80621  28.727   5.116  13.807
12404W        W80622  34.015  13.865  13.422
12405W        W80623  22.049  28.055   1.157
12406W        W80624  36.125  32.372  10.643
12407W        W80625  22.557   2.552  11.566
12408W        W80626  35.440   9.176   4.195
12409W        W80627  16.053  39.985  11.148
12410W        W80628   8.173  31.504  10.986
12411W        W80629  18.728  35.423   0.411
12412W        W80630   4.470  34.321   4.192
12413W        W80631  40.029  15.489   4.809
12414W        W80632  34.916  27.120  14.418
12415W        W80633  10.223  43.146  14.697
12416W        W80634  22.325  40.838  12.434
12417W        W80635  33.327   5.438  13.892
12418W        W80636  32.142   3.447   3.551
12419W        W80637  41.113   1.958   0.852
12420W        W80638  18.784   5.710  11.520
12421W        W80639  31.671  41.766  14.003
12422W        W80640   8.871  14.158   2.162
12423W        W80641  33.017  18.507   1.863
12424W        W80642   3.495  35.128  12.411
12425W        W80643  17.782  16.526  14.578
12426W        W80644  30.065  15.132   0.362
12427W        W80645  23.416  19.711   0.943
12428W        W80646  18.661  11.188  11.601
12429W        W80647  11.294  43.391   3.376
12430W        W80648  25.175  44.127   1.658
12431W        W80649  12.449  31.429   0.779
12432W        W80650  19.707  15.772   1.391
12433W        W80651  16.712  28.415   4.422
12434W        W80652  20.055   0.104   4.135
12435W        W80653   3.378   1.288  12.901
12436W        W80654  21.092  34.027   4.514
12437W        W80655  38.555  23.304   2.286
12438W        W80656  33.992  11.733   3.775
12439W        W80657  13.067   0.470  10.746
12440W        W80658  35.514  32.449   4.867
12441W        W80659  25.722  25.646  11.967
12442W        W80660  29.514  26.264  11.040
12443W        W80661  34.713  40.093  11.737
12444W        W80662  28.681  22.985   5.145
12445W        W80663  34.805  21.298   4.981
12446W        W80664  15.229  44.320  12.811
12447W        W80665   1.362  13.677  13.721
12448W        W80666  10.473  13.032  12.926
12449W        W80667   4.627  30.081  12.972
12450W        W80668  24.862  41.479  11.687
12451W        W80669  24.957  10.183   3.591
12452W        W80670   9.436  42.355   9.453
12453W        W80671   8.383  20.287  12.326
12454W        W80672   9.393   4.526  13.118
12455W        W80673   5.393  10.997  13.826
12456W        W80674  37.891   1.043   3.376
12457W        W80675  40.722  22.538   1.810
12458W        W80676  19.707  31.401   1.696
12459W        W80677  10.765  40.779  14.314
12460W        W80678  15.310  43.928  10.956
12461W        W80679  35.160  42.687   2.096
12462W        W80680  12.184  36.486   3.420
12463W        W80681  43.966  20.654   0.790
12464W        W80682  15.161   4.761   1.346
12465W        W80683  24.150  22.487   2.812
12466W        W80684  15.605  18.300   1.209
12467W        W80685  38.304  27.952  13.838
12468W        W80686   0.784  16.625  13.899
12469W        W80687  22.139  10.599  11.465
12470W        W80688  24.597  20.650  11.600
12471W        W80689  21.490  37.334   1.334
12472W        W80690  22.147  29.158  12.554
12473W        W80691  43.102  19.599   2.320
12474W        W80692  17.798   5.701   4.143
12475W        W80693  27.397   9.319  13.501
12476W        W80694  29.493  43.075  10.887
12477W        W80695  30.635   3.706   0.229
12478W        W80696   2.557  13.105  13.937
12479W        W80697  24.281  21.821  11.246
12480W        W80698  28.550   8.602  12.588
12481W        W80699  21.093  15.666  13.000
12482W        W80700  26.125  34.018  14.100
12483W        W80701  10.548  21.177   3.550
12484W        W80702  28.224  41.293  11.182
12485W        W80703  14.030  35.225   3.152
12486W        W80704   9.147   9.734   2.126
12487W        W80705  35.930  36.893  14.539
12488W        W80706  39.042  28.240   3.767
12489W        W80707  20.530  43.440   3.061
12490W        W80708   7.912  32.154   3.746
12491W        W80709  20.873  23.055  12.091
12492W        W80710  42.527   3.258   1.818
12493W        W80711  28.076  27.433   0.340
12494W        W80712  16.039  41.801   4.643
12495W        W80713  36.951  27.699   2.940
12496W        W80714  43.367  29.214  13.413
12497W        W80715   6.538   2.186   0.976
12498W        W80716  13.420  30.670   4.967
12499W        W80717   8.718  24.727   2.284
12500W        W80718  34.457  15.354  11.435
12501W        W80719  13.213  24.775  11.050
12502W        W80720   1.313  22.065   4.942
12503W        W80721   2.843  39.440   2.604
12504W        W80722  38.112   8.298   0.750
12505W        W80723   1.922  30.160   4.521
12506W        W80724  31.579  37.886   0.325
12507W        W80725  44.512  15.784  13.572
12508W        W80726  38.033   4.877  12.905
12509W        W80727  24.274  41.738   1.698
12510W        W80728  30.280  26.689   4.125
12511W        W80729  32.418  36.518  10.456
12512W        W80730  29.511  38.895  12.011
12513W        W80731   7.595  28.328  14.504
12514W        W80732  15.369  32.015  13.883
12515W        W80733  12.056  16.632   3.565
12516W        W80734  33.571  29.731  14.012
12517W        W80735   2.872  16.665  10.733
12518W        W80736  36.864  41.977   4.489
12519W        W80737  37.425  10.393  10.746
12520W        W80738  25.192  44.368   0.317
12521W        W80739  16.327  13.005   3.177
12522W        W80740  31.099  35.899   4.119
12523W        W80741  26.926  24.114   2.736
12524W        W80742   2.521  18.627   0.439
12525W        W80743   3.313   1.524  14.285
12526W        W80744  13.415  11.384  10.962
12527W        W80745  16.888  39.940  10.737
12528W        W80746  41.646   8.684   4.233
12529W        W80747  13.904  18.451  13.095
12530W        W80748   3.226  25.013   3.356
12531W        W80749  17.618  34.683  13.972
12532W        W80750  19.730   6.386  10.475
12533W        W80751  19.833  41.951  12.106
12534W        W80752  35.394  42.300   4.660
12535W        W80753  30.034  31.548   2.722
12536W        W80754  28.538  41.535   0.941
12537W        W80755  23.331   6.689   1.213
12538W        W80756   0.020  17.297   0.785
12539W        W80757  28.684  41.305   1.389
12540W        W80758  35.881  12.814   2.478
12541W        W80759   3.909  25.730  14.900
12542W        W80760   2.693   4.132  13.945
12543W        W80761   2.414  21.629   3.438
12544W        W80762   7.740   1.980   1.903
12545W        W80763  13.386  44.599   3.662
12546W        W80764   4.662  13.734  13.360
12547W        W80765  18.728  17.497  14.542
12548W        W80766  34.608  19.339  10.514
12549W        W80767  42.955   5.733   3.209
12550W        W80768  39.430  35.766   4.088
12551W        W80769  27.512  36.088  10.586
12552W        W80770   9.017   8.364  14.772
12553W        W80771  30.622  23.070   0.562
12554W        W80772   0.648  17.846   1.245
12555W        W80773  42.752  36.662  14.974
12556W        W80774  16.578  31.480   1.768
12557W        W80775  37.972  33.564  12.220
12558W        W80776  32.516  43.421   1.914
12559W        W80777  17.850  17.543   1.635
12560W        W80778  12.343  35.526   0.836
12561W        W80779   2.798  10.598   3.650
12562W        W80780  27.016  40.335  12.344
12563W        W80781  43.837  37.140   1.951
12564W        W80782   8.691   3.363  13.379
12565W        W80783   9.885  42.543   3.857
12566W        W80784  24.520  29.561  11.539
12567W        W80785  36.030  22.478   0.621
12568W        W80786  14.150  32.366   9.945
12569W        W80787  23.081  23.290  14.415
12570W        W80788   3.817  23.865   1.004
12571W        W80789   6.889   3.489  12.904
12572W        W80790  42.343   7.796  14.081
12573W        W80791  29.163  20.544  14.034
12574W        W80792  28.371   4.970   2.682
12575W        W80793   7.974   5.849  14.001
12576W        W80794   6.418  13.512  13.657
12577W        W80795   2.183  24.026   4.521
12578W        W80796   9.009  20.229   2.144
12579W        W80797   7.115  10.734   0.029
12580W        W80798  32.032  12.788   0.799
12581W        W80799   2.383  31.613  11.858
12582W        W80800   7.819  14.746  14.186
12583W        W80801   0.609  38.087   0.439
12584W        W80802  13.045  31.002  13.012
12585W        W80803  39.108  32.374   2.262
12586W        W80804  35.964  36.022  13.953
12587W        W80805  43.677  33.686  12.721
12588W        W80806  40.900   9.422  10.568
12589W        W80807   9.276  11.548  14.544
12590W        W80808  37.973  35.708  14.915
12591W        W80809  35.523  11.282   2.097
12592W        W80810   2.304  42.072   0.458
12593W        W80811  24.962   5.475  11.277
12594W        W80812   0.018  13.652   1.415
12595W        W80813  13.334  18.206   2.360
12596W        W80814  17.337  14.090   0.719
12597W        W80815  14.566  28.696   3.649
12598W        W80816   0.324  13.025  13.303
12599W        W80817  31.915  37.253   4.007
12600W        W80818  31.681  20.948   2.290
12601W        W80819  30.867  38.993  14.596
12602W        W80820  12.248  13.293  12.129
12603W        W80821   2.229  11.877  13.133
12604W        W80822  24.128   2.945  10.680
12605W        W80823  18.708  14.143   1.281
12606W        W80824  18.595   5.011  10.199
12607W        W80825  24.499  34.141  12.712
12608W        W80826  14.627  42.526  13.999
12609W        W80827  24.213  17.605  14.931
12610W        W80828  40.207  15.648  10.973
12611W        W80829   6.673   8.019  12.806
12612W        W80830   5.364  44.942  10.595
12613W        W80831  19.197  33.792  13.136
12614W        W80832  14.132   5.582  10.692
12615W        W80833  25.515  22.043   3.180
12616W        W80834  35.079  12.927   3.521
12617W        W80835  43.111  11.203  13.078
12618W        W80836  27.348  27.007  14.044
12619W        W80837  11.702  40.664  10.229
12620W        W80838  25.997  14.098  11.481
12621W        W80839  43.905   1.390  10.411
12622W        W80840  27.975  42.260  13.278
12623W        W80841  13.783  27.737   4.651
12624W        W80842   8.195   8.863   0.569
12625W        W80843  35.096  23.091  13.846
12626W        W80844  14.060  32.504   2.674
12627W        W80845  27.086  41.556   3.322
12628W        W80846  33.940  43.387   0.725
12629W        W80847   3.206  24.988   3.889
12630W        W80848   5.949  42.852  10.999
12631W        W80849  33.363  43.253  10.881
12632W        W80850   8.825  32.060  14.999
12633W        W80851  31.689  20.824  13.080
12634W        W80852  15.802  40.628  14.354
12635W        W80853  12.104  28.250  13.455
12636W        W80854  17.536  13.708   1.880
12637W        W80855  15.145  24.709  14.870
12638W        W80856  34.347  22.754  11.533
12639W        W80857  43.504  37.973  14.861
12640W        W80858   2.156  20.966  12.542
12641W        W80859  13.909  23.434  14.085
12642W        W80860  37.168  40.383  10.480
12643W        W80861  33.898  12.739  12.421
12644W        W80862  34.450  33.787  10.826
12645W        W80863  34.836  30.965  12.833
12646W        W80864  38.754  13.619  12.905
12647W        W80865  18.674  12.774  13.798
12648W        W80866  25.554  23.727   0.509
12649W        W80867  10.501  23.503   1.457
12650W        W80868  37.495  33.341  14.956
12651W        W80869  27.981  28.019  10.165
12652W        W80870  28.332  18.012  12.697
12653W        W80871  13.622   1.533  10.619
12654W        W80872   7.884   9.100  14.406
12655W        W80873  12.649  23.717   1.748
12656W        W80874   6.403  16.320  10.319
12657W        W80875  13.038  40.900  12.946
12658W        W80876  31.821  15.034   4.187
12659W        W80877   2.064  23.364  10.733
12660W        W80878  23.577  10.826  12.145
12661W        W80879  41.030  27.223  14.417
12662W        W80880  21.307   3.361   9.821
12663W        W80881   4.226  11.299  13.659
12664W        W80882  15.726   0.614   5.530
12665W        W80883  16.111  10.281  13.636
12666W        W80884  29.254  21.738  11.026
12667W        W80885  25.592   4.029  11.603
12668W        W80886  15.190  24.193   3.298
12669W        W80887  22.236   4.784   0.887
12670W        W80888  14.771   3.244   0.036
12671W        W80889  18.887  17.814  13.563
12672W        W80890   2.440  10.999   3.834
12673W        W80891  42.546  44.003  14.325
12674W        W80892  31.029  36.400  12.630
12675W        W80893  14.108   4.850  10.816
12676W        W80894  31.654  27.899   3.125
12677W        W80895  42.501  28.546  11.169
12678W        W80896  37.310  17.201   1.199
12679W        W80897   2.587  13.034  14.610
12680W        W80898  21.162  33.098   5.558
12681W        W80899  15.948  13.743   1.773
12682W        W80900  40.952   5.471   3.394
12683W        W80901  38.954  28.520   4.751
12684W        W80902   6.424  38.795  12.740
12685W        W80903  35.572  29.362   0.562
12686W        W80904  23.603   0.712   0.464
12687W        W80905  25.560  41.041  10.513
12688W        W80906  28.420  33.913   1.324
12689W        W80907  11.897  41.948  14.058
12690W        W80908  12.612  16.147   4.602
12691W        W80909  17.230  18.270  13.300
12692W        W80910  35.479  18.844   0.843
12693W        W80911  40.705  26.984  13.422
12694W        W80912  39.057  12.749  11.961
12695W        W80913  12.177  23.133   4.248
12696W        W80914  18.077  26.078   1.851
12697W        W80915  27.622  32.172   3.881
12698W        W80916   6.194  12.268   1.763
12699W        W80917   3.758  16.715   3.106
12700W        W80918  16.561  18.584  13.394
12701W        W80919  40.848  35.055  11.176
12702W        W80920  14.156  32.056   2.912
12703W        W80921  38.451  35.887   0.122
12704W        W80922  42.330  32.363  13.875
12705W        W80923  13.448   7.623  14.682
12706W        W80924  32.036   4.725  14.442
12707W        W80925   3.317  31.850   4.086
12708W        W80926   1.032  23.064  10.687
12709W        W80927  27.151  35.998   1.796
12710W        W80928  14.373  18.781   4.567
12711W        W80929  22.640   6.600   5.204
12712W        W80930  24.396  20.661  12.977
12713W        W80931  24.795  21.183  10.761
12714W        W80932  25.481  39.787  14.408
12715W        W80933  44.891  38.698   2.096
12716W        W80934  31.740   7.892   0.996
12717W        W80935  29.909  14.627   3.818
12718W        W80936  42.975  19.045  14.522
12719W        W80937  21.125  10.797   4.708
12720W        W80938  40.375  21.758   2.588
12721W        W80939  16.714  42.126   3.850
12722W        W80940  19.334  12.278  10.364
12723W        W80941  21.065  39.391  10.652
12724W        W80942  42.434  41.085  10.413
12725W        W80943  35.130  29.656   3.130
12726W        W80944  19.013  23.774   0.928
12727W        W80945   3.289  30.952  13.146
12728W        W80946  10.068  35.654   3.684
12729W        W80947  19.635  33.546   0.875
12730W        W80948  12.083  36.041  14.973
12731W        W80949  22.538  42.341   0.923
12732W        W80950  37.617  30.977  13.865
12733W        W80951   3.668  23.203   2.726
12734W        W80952  12.410   2.403   1.449
12735W        W80953  20.181  20.046  11.599
12736W        W80954   5.447  12.223  13.345
12737W        W80955  19.869  10.899  13.879
12738W        W80956  23.476  35.816   2.201
12739W        W80957  42.530  42.349   1.727
12740W        W80958  12.676  16.016   1.333
12741W        W80959  24.938  20.328  13.827
12742W        W80960   7.751  18.302  13.771
12743W        W80961   8.424  27.178  14.913
12744W        W80962  20.124   4.689  12.987
12745W        W80963  25.730  26.558  14.873
12746W        W80964  19.875  33.612   0.440
12747W        W80965  43.023   0.924   1.747
12748W        W80966   8.965   9.327   1.826
12749W        W80967  21.021  42.376   2.085
12750W        W80968  11.920  10.297  14.607
12751W        W80969  34.643  18.980  12.477
12752W        W80970  32.087  30.180   3.169
12753W        W80971  41.815  15.282   4.552
12754W        W80972  30.132   0.444   4.077
12755W        W80973  27.235  37.810   4.898
12756W        W80974  29.745  28.694   1.456
12757W        W80975  11.066  36.413  12.509
12758W        W80976  13.938  14.843   0.984
12759W        W80977   9.939  10.765  12.881
12760W        W80978   4.543  27.571  14.140
12761W        W80979  12.050  19.687  11.896
12762W        W80980  39.530  12.813  13.003
12763W        W80981  40.344  13.105  14.791
12764W        W80982  40.102   7.249   1.412
12765W        W80983   3.992  37.809  12.582
12766W        W80984   5.700  41.371   4.245
12767W        W80985  18.566   2.787   2.645
12768W        W80986  15.366   3.815   1.043
12769W        W80987  26.821   0.183  10.625
12770W        W80988  39.876  40.566   1.745
12771W        W80989  16.585  42.596  11.207
12772W        W80990  31.923  11.059   3.231
12773W        W80991  35.089  16.961  12.017
12774W        W80992  22.982  25.480   2.617
12775W        W80993   4.622  19.014  11.336
12776W        W80994  14.565  32.905  11.133
12777W        W80995  15.858  21.002  13.372
12778W        W80996  32.200  21.235  11.586
12779W        W80997  16.740   0.316  14.904
12780W        W80998   6.287  32.207   1.837
12781W        W80999  28.064  14.033   4.031
12782W        W81000   4.124   9.100   4.228
12783W        W81001   0.890  42.795   1.467
12784W        W81002  23.132  15.885  14.295
12785W        W81003  28.916  20.602   2.691
12786W        W81004  44.220  39.731  13.408
12787W        W81005  16.752  15.990   2.780
12788W        W81006  31.500  41.895   4.126
12789W        W81007  32.850  40.355   2.237
12790W        W81008  40.352  31.645  13.522
12791W        W81009  16.528  27.622  11.721
12792W        W81010  22.589   2.383  14.396
12793W        W81011  34.930  42.544   3.859
12794W        W81012  39.648  30.896   1.577
12795W        W81013  22.154   7.385   3.235
12796W        W81014  40.210   6.167  11.609
12797W        W81015  18.631  18.156   4.483
12798W        W81016  10.770  22.234   4.664
12799W        W81017  17.216  38.481  13.535
12800W        W81018  43.516  39.777   0.954
12801W        W81019  21.985  39.856  14.893
12802W        W81020  37.341  14.846  12.366
12803W        W81021  24.381  40.543   1.767
12804W        W81022  10.041  16.273   0.750
12805W        W81023   2.813   4.853   2.352
12806W        W81024  33.987  36.651  10.803
12807W        W81025  27.568  15.655  14.707
12808W        W81026  20.160  11.764  12.874
12809W        W81027  37.794  41.951  14.890
12810W        W81028   7.886  21.924   3.795
12811W        W81029  10.366   5.906  12.830
12812W        W81030  22.966  18.199  14.597
12813W        W81031  20.740   1.351   4.270
12814W        W81032  34.536   5.496  13.412
12815W        W81033  40.085  19.617   0.030
12816W        W81034   6.208  20.570  12.346
12817W        W81035  27.320   0.934   3.321
12818W        W81036   9.602  18.321   2.258
12819W        W81037  36.235  38.449   1.692
12820W        W81038   0.463  42.376  12.405
12821W        W81039  44.681  31.922  12.513
12822W        W81040  36.490  15.846  10.314
12823W        W81041  41.426  21.689  14.383
12824W        W81042  16.085  16.143   4.968
12825W        W81043  35.930  27.608  12.363
12826W        W81044   0.533  43.757   2.701
12827W        W81045  35.361   1.215   0.040
12828W        W81046  18.202   2.329   4.144
12829W        W81047  27.698  10.977  13.973
12830W        W81048  24.617  12.682   2.807
12831W        W81049  44.731  21.837  11.171
12832W        W81050  15.425  16.280  14.901
12833W        W81051  14.930  21.044  13.051
12834W        W81052  37.149  37.098  12.024
12835W        W81053   1.123   9.401   0.250
12836W        W81054   9.224  26.125   3.826
12837W        W81055   2.181  32.155   0.280
12838W        W81056  35.012  38.397   2.176
12839W        W81057  19.278  41.777   0.572
12840W        W81058  23.933  34.612   1.417
12841W        W81059  20.568   3.997   1.406
12842W        W81060   2.024  10.637   3.294
12843W        W81061  37.905   8.158  11.076
12844W        W81062  24.560   9.684  13.338
12845W        W81063  30.680  35.881   1.375
12846W        W81064  32.373  15.739   2.844
12847W        W81065   6.824   5.158  11.581
12848W        W81066  11.096  23.713   3.226
12849W        W81067  22.852   9.205   3.695
12850W        W81068  30.026  36.060   5.371
12851W        W81069  18.985  20.269   1.237
12852W        W81070  21.513  26.951  12.622
12853W        W81071  18.770  25.030   5.060
12854W        W81072  13.159  17.211  14.712
12855W        W81073  14.275  30.694   0.088
12856W        W81074  34.013   5.998   4.119
12857W        W81075  28.666  37.345   4.703
12858W        W81076  28.437  32.525  13.844
12859W        W81077   0.049   5.782  12.134
12860W        W81078   0.960  26.467   1.443
12861W        W81079  18.691  14.509   0.356
12862W        W81080  41.166  13.714   3.065
12863W        W81081   9.577  39.041   1.080
12864W        W81082  43.788   6.731  14.356
12865W        W81083  33.431   8.388   2.784
12866W        W81084  11.358  27.450  13.921
12867W        W81085  30.941  21.059  11.209
12868W        W81086  25.243   6.820  11.569
12869W        W81087   1.380  20.755   2.392
12870W        W81088  36.616  39.510   2.352
12871W        W81089  31.203  31.229  11.098
12872W        W81090  15.699  33.613   0.974
12873W        W81091   7.397  23.018  12.831
12874W        W81092  17.292  15.659   3.350
12875W        W81093  17.766  29.427  11.466
12876W        W81094  25.100  18.026   3.806
12877W        W81095   0.838   9.879   0.395
12878W        W81096  26.660  10.893   3.337
12879W        W81097  25.763  24.117  11.515
12880W        W81098  25.628  25.785   2.239
12881W        W81099  33.558  18.810   4.168
12882W        W81100  28.672  22.396  13.287
12883W        W81101  11.419   4.797  11.448
12884W        W81102   1.460  41.558  13.819
12885W        W81103  15.895  43.633  11.741
12886W        W81104  13.054  30.034   0.256
12887W        W81105  44.864  16.851  10.676
12888W        W81106   0.036  18.828  12.533
12889W        W81107  23.667   1.053   0.068
12890W        W81108  44.603  43.295  13.295
12891W        W81109  24.051  30.584   1.914
12892W        W81110   8.648  32.652   0.410
12893W        W81111   9.092  40.035   4.161
12894W        W81112  10.102  24.278   0.443
12895W        W81113  23.691  19.610   4.991
12896W        W81114  16.211   7.241  11.205
12897W        W81115  26.052  14.856   2.827
12898W        W81116   2.349  11.074   1.226
12899W        W81117  11.681  22.745   3.288
12900W        W81118  44.459  34.456  14.280
12901W        W81119   2.210   2.920   0.882
12902W        W81120   3.872  16.348   1.823
12903W        W81121  42.968  24.818   3.698
12904W        W81122   9.428  42.831   1.349
12905W        W81123  13.090  29.424   1.874
12906W        W81124  37.994  11.757  11.748
12907W        W81125  20.186  13.571  14.427
12908W        W81126  10.286  26.005   2.730
12909W        W81127   5.901  38.597   2.777
12910W        W81128  30.920  11.561   2.283
12911W        W81129  12.186  16.363  11.825
12912W        W81130   9.486  15.649   2.772
12913W        W81131  24.805   5.797  14.401
12914W        W81132  25.021  36.579   3.759
12915W        W81133  16.133  24.036   3.446
12916W        W81134  41.544  28.460   0.836
12917W        W81135  21.038  31.038  13.026
12918W        W81136  26.515  29.525  13.315
12919W        W81137  22.759  21.125  10.639
12920W        W81138  44.458  23.760   2.374
12921W        W81139   1.771  13.808   1.449
12922W        W81140   1.443   6.658   4.369
12923W        W81141  37.102  27.388  11.083
12924W        W81142   4.719  29.085   1.504
12925W        W81143  35.537  27.018   3.797
12926W        W81144  11.266  13.264   0.247
12927W        W81145  25.301   4.854   4.533
12928W        W81146  18.647  16.827  14.113
12929W        W81147   9.760  44.734   1.917
12930W        W81148   7.829  28.214  10.209
12931W        W81149  42.846  25.610  10.670
12932W        W81150  24.181  24.725  13.495
12933W        W81151  44.515  17.282   0.844
12934W        W81152  28.028  40.358  14.438
12935W        W81153   0.805  35.850   3.671
12936W        W81154  25.230  10.192   1.761
12937W        W81155   4.364  17.748   5.033
12938W        W81156  15.629   7.954   2.301
12939W        W81157  24.753   0.819  12.036
12940W        W81158   6.443  24.080  14.279
12941W        W81159   8.894  37.406  14.271
12942W        W81160  11.143  29.760  11.607
12943W        W81161   0.861  28.605   4.075
12944W        W81162  20.447  36.059  12.024
12945W        W81163  42.079  41.396   2.750
12946W        W81164   5.950  12.357  13.351
12947W        W81165  28.198   2.371  10.276
12948W        W81166  40.931  12.039   4.210
12949W        W81167  17.703  26.875   2.218
12950W        W81168  31.143  36.531   1.623
12951W        W81169   6.629   7.307   0.224
12952W        W81170  43.747  43.367  13.989
12953W        W81171  13.084  36.087   5.123
12954W        W81172  30.517  12.409  13.378
12955W        W81173  44.836  24.578  14.548
12956W        W81174  34.399   1.937   0.947
12957W        W81175  12.257   1.597  13.081
12958W        W81176  19.530  26.218  10.959
12959W        W81177   7.166  29.912  11.296
12960W        W81178  20.911  14.613   5.130
12961W        W81179   3.768  36.971  14.949
12962W        W81180  26.645  33.068   0.465
12963W        W81181  23.944   3.600  11.699
12964W        W81182   9.456  24.666   1.744
12965W        W81183  22.051   3.208   3.781
12966W        W81184  17.808  27.571   4.216
12967W        W81185  17.546  12.284  13.020
12968W        W81186  19.208  32.859  13.743
12969W        W81187  28.635  17.624  12.839
12970W        W81188  30.099   9.390  10.837
12971W        W81189   7.064  30.623   0.779
12972W        W81190  11.857   3.762  14.453
12973W        W81191  27.618  33.122  12.875
12974W        W81192  18.218   0.423   4.167
12975W        W81193  44.327  28.030  11.589
12976W        W81194  40.314  37.680  12.041
12977W        W81195  41.917  28.110  10.521
12978W        W81196  19.425  18.820   1.241
12979W        W81197  39.043   0.951  12.613
12980W        W81198   5.484  24.447  12.459
12981W        W81199  43.981  18.184  11.109
12982W        W81200  30.262  22.208   2.201
12983W        W81201  22.762  14.075  12.422
12984W        W81202  28.611  41.292   4.549
12985W        W81203  26.461  15.772  12.764
12986W        W81204  12.382  35.059  13.606
12987W        W81205  15.633  37.119  12.442
12988W        W81206  28.933  30.174  12.538
12989W        W81207   4.721  11.935  11.132
12990W        W81208   3.767  17.719   2.046
12991W        W81209  36.967  44.238  14.342
12992W        W81210  12.114  11.724   1.317
12993W        W81211  21.765  14.346   3.713
12994W        W81212   2.182  40.489   1.164
12995W        W81213  28.216   8.395   1.362
12996W        W81214   8.500  24.032  14.195
12997W        W81215  21.702  30.436   2.841
12998W        W81216   2.678  41.291  11.120
12999W        W81217   7.806  20.843   0.667
13000W        W81218  26.665  43.905  14.004
13001W        W81219   8.269  43.344  11.876
13002W        W81220  28.215   3.359   1.285
13003W        W81221  14.739   2.061  10.342
13004W        W81222  29.116  30.631  11.500
13005W        W81223   3.479  23.555   1.892
13006W        W81224  31.599  23.028   1.413
13007W        W81225  29.196  24.019   3.293
13008W        W81226  35.493  40.416  12.066
13009W        W81227  23.530  21.886   1.399
13010W        W81228  32.871  29.588   3.829
13011W        W81229   4.759  11.298   3.705
13012W        W81230   3.286  32.171  12.514
13013W        W81231  19.512  39.378   0.655
13014W        W81232  14.702  26.520  13.931
13015W        W81233   0.366  35.575   3.727
13016W        W81234   1.460   9.315  10.750
13017W        W81235  36.897  11.711  13.128
13018W        W81236   6.339   1.739   2.687
13019W        W81237  28.186  44.548  13.383
13020W        W81238  41.313   1.035  12.489
13021W        W81239  40.343  17.506   4.210
13022W        W81240  14.618   9.557   1.995
13023W        W81241  42.075   2.925   3.508
13024W        W81242  42.811  16.722   3.261
13025W        W81243  31.418  44.418   4.124
13026W        W81244  10.051  39.249  11.494
13027W        W81245  40.484  28.239  13.269
13028W        W81246  42.873  11.657  12.974
13029W        W81247  13.073   4.009  11.582
13030W        W81248   6.254   8.319   3.123
13031W        W81249  17.342  12.683  14.564
13032W        W81250  30.224  38.564  11.511
13033W        W81251   1.670  41.923  12.110
13034W        W81252  18.667  35.561   3.836
13035W        W81253  41.378   8.000   1.918
13036W        W81254   3.226   5.484  12.138
13037W        W81255  27.616  17.837  14.961
13038W        W81256  10.012  30.453  10.408
13039W        W81257   8.740  15.635  14.883
13040W        W81258  37.459  42.160   4.875
13041W        W81259   6.571  18.713  13.984
13042W        W81260   4.818  32.137   2.341
13043W        W81261   5.435  24.671  13.733
13044W        W81262  16.837  39.443  10.582
13045W        W81263  37.616  12.108   4.115
13046W        W81264  25.068  13.316  11.469
13047W        W81265   3.464  33.854   3.969
13048W        W81266  36.867  29.902  11.173
13049W        W81267  30.863  11.973   0.802
13050W        W81268  15.750  24.050   2.705
13051W        W81269  37.829  40.526  12.007
13052W        W81270  22.857  23.830   1.718
13053W        W81271  31.404  38.461   2.306
13054W        W81272   7.645  10.695  12.756
13055W        W81273  31.394  29.608   2.830
13056W        W81274  10.305  29.499   3.764
13057W        W81275   2.196  44.877  13.926
13058W        W81276  12.114  40.771   4.152
13059W        W81277   3.481  33.375   0.729
13060W        W81278  11.152  22.591   2.643
13061W        W81279   7.406  44.945  14.335
13062W        W81280  10.921  11.535   3.285
13063W        W81281  26.508  32.839  14.984
13064W        W81282  32.455  17.641   4.979
13065W        W81283  21.544  33.382   2.154
13066W        W81284  11.197   4.109  12.785
13067W        W81285  35.343  14.661   2.714
13068W        W81286  21.238  25.261  14.306
13069W        W81287  19.603  33.570  13.406
13070W        W81288  38.591  37.566  12.527
13071W        W81289   8.375  28.479  12.501
13072W        W81290  23.252  15.062   0.896
13073W        W81291  27.907  22.123   1.184
13074W        W81292   6.377  19.763   4.156
13075W        W81293  25.460  28.244   2.407
13076W        W81294  43.889  42.514  11.794
13077W        W81295   2.982   1.399  10.699
13078W        W81296  39.143  20.408   1.855
13079W        W81297  11.230  32.653  12.793
13080W        W81298   6.108  15.727  14.783
13081W        W81299  30.657  33.927  12.547
13082W        W81300  41.791  27.585   4.177
13083W        W81301   3.887  26.460   1.302
13084W        W81302  36.453  31.638  11.092
13085W        W81303  28.769   5.776  10.248
13086W        W81304  29.842  22.066   3.987
13087W        W81305  30.593  37.426   2.875
13088W        W81306  20.245  25.097   2.849
13089W        W81307  35.535  25.485  13.097
13090W        W81308  12.575  16.593  14.358
13091W        W81309  11.186   7.548  12.459
13092W        W81310   2.278   0.193   3.430
13093W        W81311  28.102  29.957   0.378
13094W        W81312  12.588  18.842  12.983
13095W        W81313  42.902  42.907   4.642
13096W        W81314  40.069  18.577  12.643
13097W        W81315  16.236  18.148  12.018
13098W        W81316  14.518  43.126  10.268
13099W        W81317  16.129  28.036  14.034
13100W        W81318   0.211  40.147  11.179
13101W        W81319  37.241   0.252  12.522
13102W        W81320  40.006   2.198   0.251
13103W        W81321  17.125   1.239  12.036
13104W        W81322   7.732  26.752   0.242
13105W        W81323  41.549  33.409   1.717
13106W        W81324   6.036  41.062   4.490
13107W        W81325  20.135  31.945   1.512
13108W        W81326   0.367  43.433  13.969
13109W        W81327  14.468  34.457   4.188
13110W        W81328  29.040  37.664   2.550
13111W        W81329  18.088  22.191  11.587
13112W        W81330  11.248  16.458   1.269
13113W        W81331  35.321  35.313   4.210
13114W        W81332   0.411  11.612  11.161
13115W        W81333   4.322  24.264   1.671
13116W        W81334  37.292  12.804  11.544
13117W        W81335   7.714  26.262   1.295
13118W        W81336  20.907   8.291  13.871
13119W        W81337  19.512  30.535  11.804
13120W        W81338   7.916  11.856   0.776
13121W        W81339  19.268  19.257   2.154
13122W        W81340  13.915  20.790   2.180
13123W        W81341  32.507  16.543  12.943
13124W        W81342  25.666  27.433  13.928
13125W        W81343  39.342  20.068  14.682
13126W        W81344  32.559  27.287   2.240
13127W        W81345   3.652   8.331  12.427
13128W        W81346   3.003  35.087  13.703
13129W        W81347  23.632  39.802  12.353
13130W        W81348  10.110  20.146  12.834
13131W        W81349  37.193  22.172   2.134
13132W        W81350  24.172   3.267   0.227
13133W        W81351  22.943   0.967   1.953
13134W        W81352   3.718   5.064   0.474
13135W        W81353  20.779   6.584  14.576
13136W        W81354  20.699  24.071  10.706
13137W        W81355  29.231  21.149  13.388
13138W        W81356  34.842   4.785   4.788
13139W        W81357  29.404  29.025  11.218
13140W        W81358   6.378  29.451   3.593
13141W        W81359  27.487  16.354   1.862
13142W        W81360   8.183  27.911  11.079
13143W        W81361   7.913  13.240   2.295
13144W        W81362  42.075   7.441  13.684
13145W        W81363  13.359  26.238   0.281
13146W        W81364  21.047   1.730   0.458
13147W        W81365  10.623   8.403  11.836
13148W        W81366   3.332  27.242   3.687
13149W        W81367  25.927  33.421  14.796
13150W        W81368  17.723  18.203  14.897
13151W        W81369  20.740  38.265   4.868
13152W        W81370  14.739  25.704   2.691
13153W        W81371  34.372  22.749  14.880
13154W        W81372   0.727  26.566   9.964
13155W        W81373   7.394  33.910   2.785
13156W        W81374   3.955   8.520   2.446
13157W        W81375  18.526  13.257  10.828
13158W        W81376   1.301  32.672  13.451
13159W        W81377  22.673   3.469  14.809
13160W        W81378  39.667   9.636  12.937
13161W        W81379  10.546  39.178   0.061
13162W        W81380  35.017  33.990  14.773
13163W        W81381   7.137  17.223  12.904
13164W        W81382  14.618  26.640  13.407
13165W        W81383  34.539  44.344   2.729
13166W        W81384  26.718  38.867   1.263
13167W        W81385   1.028  35.389   3.643
13168W        W81386  41.028  14.063  11.225
13169W        W81387   4.025  21.789   4.000
13170W        W81388  12.409   5.860   2.966
13171W        W81389  39.455  32.816  11.135
13172W        W81390  37.382  41.475  13.698
13173W        W81391  30.591  26.444   3.744
13174W        W81392  39.499  36.654   3.134
13175W        W81393  34.589  15.423   5.101
13176W        W81394  29.943  14.204  14.519
13177W        W81395  15.251   9.838  12.094
13178W        W81396  44.390  22.524   4.568
13179W        W81397  36.253  27.795  11.908
13180W        W81398  10.282  13.796  14.490
13181W        W81399   5.231  44.314   4.120
13182W        W81400  34.367  25.184  14.444
13183W        W81401  40.929  17.047  11.995
13184W        W81402  32.943  17.840  11.130
13185W        W81403   3.001   2.943   2.489
13186W        W81404  41.261  21.906  12.435
13187W        W81405  20.646  42.189  14.053
13188W        W81406  10.746   8.508  10.425
13189W        W81407  11.671  27.395  11.683
13190W        W81408  26.443  37.270   3.379
13191W        W81409  18.272   4.045   4.191
13192W        W81410   3.842  43.671  14.796
13193W        W81411  21.501   5.419   1.649
13194W        W81412  36.433  26.246   4.137
13195W        W81413  34.830   1.598   3.729
13196W        W81414  44.663  13.312   1.216
13197W        W81415   6.312  42.977   0.429
13198W        W81416  40.809  21.283  12.280
13199W        W81417   0.526  13.398   2.216
13200W        W81418   1.482   9.062   0.822
13201W        W81419   7.773  44.843   0.774
13202W        W81420  39.421  31.191   4.105
13203W        W81421  24.190  21.720  13.047
13204W        W81422   3.850  40.642   4.007
13205W        W81423   9.314   1.584  11.045
13206W        W81424  43.902   5.699  14.648
13207W        W81425   8.392   8.861   4.611
13208W        W81426  10.243   0.975  13.902
13209W        W81427  40.946  30.611   1.674
13210W        W81428  30.696  17.633  13.072
13211W        W81429  25.514  26.615  12.843
13212W        W81430  23.197  38.826   3.032
13213W        W81431   2.572   5.672   1.491
13214W        W81432  11.652  44.379   4.225
13215W        W81433  10.660   4.435  10.439
13216W        W81434  12.700   2.469   1.874
13217W        W81435  15.280  21.646  10.943
13218W        W81436   3.271  34.921   1.234
13219W        W81437  31.644   2.338  12.052
13220W        W81438  32.380   3.284  11.911
13221W        W81439   8.229  17.068   1.819
13222W        W81440  14.872  38.673   3.724
13223W        W81441  10.228  27.797   2.142
13224W        W81442   4.811  33.878   2.862
13225W        W81443  15.099  27.331  14.540
13226W        W81444  14.183   4.132   2.867
13227W        W81445   4.713  40.292  12.686
13228W        W81446  14.250   6.060   0.921
13229W        W81447  18.232  11.516  10.351
13230W        W81448  26.629  38.591   0.829
13231W        W81449  40.102  10.160  10.771
13232W        W81450  11.806  41.713   0.893
13233W        W81451   6.766  14.299   4.751
13234W        W81452  27.566  16.630   0.439
13235W        W81453   9.104  38.449   2.204
13236W        W81454  28.583  32.658  11.137
13237W        W81455  38.806  15.790  13.058
13238W        W81456  13.832  19.668  13.769
13239W        W81457  35.622  23.748   0.437
13240W        W81458  42.103  39.516   4.930
13241W        W81459  20.099   1.709  11.199
13242W        W81460  15.802   0.020   1.293
13243W        W81461   8.445   2.786   4.798
13244W        W81462  17.293  37.448   3.567
13245W        W81463   5.485  21.035   3.521
13246W        W81464  27.130  32.333   3.972
13247W        W81465  36.195  20.754   2.404
13248W        W81466  21.501  44.538   2.857
13249W        W81467  32.970  14.661   3.197
13250W        W81468   9.756  29.893   3.942
13251W        W81469   3.434  43.175   1.144
13252W        W81470   6.915  23.979   3.660
13253W        W81471   5.020  14.688   2.323
13254W        W81472  43.499  35.352  10.805
13255W        W81473  25.380  40.563  14.199
13256W        W81474   5.086  34.433   1.247
13257W        W81475  18.347   0.495  14.423
13258W        W81476   1.592   1.689  13.017
13259W        W81477  30.736  12.568  10.844
13260W        W81478  26.408  44.417   0.745
13261W        W81479   8.475  20.571  11.918
13262W        W81480  10.408   4.277   3.858
13263W        W81481  18.632  28.404   2.364
13264W        W81482  22.563   9.708   2.327
13265W        W81483   7.271  25.935   4.220
13266W        W81484  37.979   1.707  11.699
13267W        W81485  26.522  27.505   3.349
13268W        W81486   2.049  18.722  13.437
13269W        W81487  23.134  32.015   3.078
13270W        W81488  28.001  39.910   4.091
13271W        W81489  35.807  22.855   2.261
13272W        W81490   2.024  21.014   4.065
13273W        W81491  25.423  38.586  12.722
13274W        W81492  10.603  28.507  12.044
13275W        W81493  25.468  12.244   3.185
13276W        W81494  28.029  35.607   2.577
13277W        W81495  18.283  39.211  13.796
13278W        W81496  27.578  44.347  12.617
13279W        W81497  32.353  34.342   2.129
13280W        W81498  38.055  26.127  10.579
13281W        W81499  22.505  33.389  12.086
13282W        W81500   7.874   4.476   0.059
13283W        W81501  40.341  16.625  13.087
13284W        W81502  11.704   7.187  10.822
13285W        W81503  33.439  28.687   0.259
13286W        W81504  10.230  19.476  11.646
13287W        W81505  32.503  17.154   2.250
13288W        W81506  25.005  24.808   1.736
13289W        W81507  30.620  39.396  11.046
13290W        W81508  33.075  39.014  14.115
13291W        W81509  42.505  11.789   0.154
13292W        W81510   6.835  18.332   1.828
13293W        W81511  40.582   5.009   4.728
13294W        W81512   7.786  18.467  12.353
13295W        W81513  36.466   8.845  13.906
13296W        W81514  25.017  33.389  12.427
13297W        W81515  36.480  41.208   0.971
13298W        W81516  34.871  17.017  11.524
13299W        W81517   8.736   1.703  11.929
13300W        W81518  22.217  29.432   1.352
13301W        W81519  34.650  13.363  12.385
13302W        W81520   7.249  27.209  13.042
13303W        W81521  42.251  30.359   1.454
13304W        W81522   0.308  28.607   2.784
13305W        W81523  42.178  35.647  11.058
13306W        W81524  19.167  18.116  14.387
13307W        W81525  21.119   7.293   2.361
13308W        W81526  10.019  11.808   4.535
13309W        W81527  27.745  14.214  14.034
13310W        W81528  14.419  38.637   1.805
13311W        W81529   6.726  14.757  12.496
13312W        W81530   6.376  42.438   4.407
13313W        W81531  41.673  19.323  14.762
13314W        W81532   1.320  36.885  12.034
13315W        W81533  40.380  30.634  13.998
13316W        W81534   5.839  42.813  12.323
13317W        W81535   1.652  39.140   4.195
13318W        W81536  29.563  44.264   0.477
13319W        W81537   1.743  29.461  13.339
13320W        W81538  22.843  29.057  13.942
13321W        W81539  42.359  31.579   2.089
13322W        W81540  28.378  20.041   3.222
13323W        W81541   0.330  15.109  11.741
13324W        W81542  17.752  22.655  14.272
13325W        W81543   8.629  13.377   1.816
13326W        W81544  12.768  13.360   2.388
13327W        W81545  13.282  39.066   4.760
13328W        W81546  17.694  37.345   4.912
13329W        W81547  17.344  14.831   2.291
13330W        W81548  11.657  43.977   2.231
13331W        W81549   0.778  33.963  13.325
13332W        W81550  20.042   6.468  13.992
13333W        W81551  35.859  17.512  12.441
13334W        W81552  34.525   9.660  10.553
13335W        W81553  25.097  17.105   1.306
13336W        W81554  32.961   2.263   3.294
13337W        W81555  32.113  10.591   3.210
13338W        W81556  14.816   7.306   2.324
13339W        W81557  41.898  44.338   3.102
13340W        W81558  25.059  24.256  10.270
13341W        W81559  14.520  39.116   1.560
13342W        W81560  35.841  21.701  11.580
13343W        W81561  35.975  22.472   2.560
13344W        W81562  31.124  10.565  12.452
13345W        W81563   6.760  42.049  12.973
13346W        W81564  32.100  15.959   1.561
13347W        W81565  41.272  40.810  14.749
13348W        W81566  36.047   0.202  12.107
13349W        W81567   4.381  10.327  10.510
13350W        W81568   6.732   3.391  13.915
13351W        W81569  37.422   6.912   2.384
13352W        W81570  35.581  43.963   4.151
13353W        W81571  24.257  42.822   0.550
13354W        W81572  13.826  38.641   2.458
13355W        W81573   1.559  16.773   0.235
13356W        W81574  24.543  27.024  13.681
13357W        W81575  44.213  44.443   1.688
13358W        W81576  42.539  28.119   1.160
13359W        W81577  24.578  34.485   4.893
13360W        W81578   4.149  27.118   0.787
13361W        W81579   6.295  34.943   1.834
13362W        W81580  22.899  23.028  10.212
13363W        W81581  39.848  43.353   3.194
13364W        W81582  33.351  27.981   2.334
13365W        W81583   7.451  29.551   1.371
13366W        W81584   4.995  36.750   3.754
13367W        W81585  29.602  25.119  10.324
13368W        W81586  23.511  44.705   4.595
13369W        W81587  23.100  27.236   0.434
13370W        W81588  27.439  36.999   0.847
13371W        W81589  29.663  25.634   2.626
13372W        W81590  31.857  17.182   1.652
13373W        W81591   9.520  13.953  11.047
13374W        W81592  28.262  18.419   9.819
13375W        W81593  40.859  11.308   2.951
13376W        W81594  28.368   0.651  14.857
13377W        W81595  10.166  11.482   0.186
13378W        W81596  26.749   3.068  11.619
13379W        W81597  22.329  16.300  14.277
13380W        W81598  31.198  16.317  12.233
13381W        W81599  41.548  38.445   4.767
13382W        W81600  36.829  41.954  12.473
13383W        W81601   0.800  40.149   0.839
13384W        W81602  38.715  31.876   4.359
13385W        W81603  19.588  30.976   0.877
13386W        W81604  36.147  28.378  10.100
13387W        W81605  42.252   5.146   4.715
13388W        W81606  29.959  27.909   2.901
13389W        W81607  41.384  10.823  13.912
13390W        W81608  36.342  42.547   1.445
13391W        W81609  40.983  34.397   1.312
13392W        W81610  39.872  26.006  12.159
13393W        W81611   9.911  22.231   0.429
13394W        W81612  40.276  16.539   1.221
13395W        W81613   2.333  34.445   1.644
13396W        W81614  10.094  43.200  11.064
13397W        W81615  21.525   5.947  14.385
13398W        W81616  40.568  10.676   1.386
13399W        W81617  23.518   4.057   2.372
13400W        W81618  20.211  18.563   1.832
13401W        W81619  27.201  44.435  12.287
13402W        W81620  33.111  16.976  14.395
13403W        W81621  34.237   2.305  14.235
13404W        W81622   6.218  26.442  12.165
13405W        W81623  30.975   2.472   5.007
13406W        W81624  35.229  44.499   0.379
13407W        W81625  43.896  35.040   2.805
13408W        W81626  44.696   5.426  12.383
13409W        W81627  28.471   3.707  10.715
13410W        W81628  20.580   7.502   4.285
13411W        W81629  11.600  40.877  11.118
13412W        W81630  42.277  30.249   2.366
13413W        W81631  32.559  22.577  13.451
13414W        W81632  20.850   8.506   3.765
13415W        W81633  37.427  31.026  10.719
13416W        W81634  23.208  32.494   0.439
13417W        W81635  15.462  23.706  12.314
13418W        W81636  15.069  12.636  14.399
13419W        W81637  40.450  30.490   1.931
13420W        W81638  44.653  34.378   0.905
13421W        W81639  39.941  39.180   2.393
13422W        W81640   0.082   2.774   4.699
13423W        W81641  44.901   4.493  13.928
13424W        W81642  21.827   7.248   0.684
13425W        W81643  36.929  44.438  12.090
13426W        W81644  12.456  31.693   3.604
13427W        W81645  12.725  10.113   2.156
13428W        W81646  28.501  31.464  11.586
13429W        W81647   2.858  35.617   1.479
13430W        W81648  30.965   0.949   1.784
13431W        W81649  18.572   1.293   0.756
13432W        W81650  18.216  43.560  10.335
13433W        W81651   1.538  26.993   3.420
13434W        W81652   9.710  16.659   0.767
13435W        W81653   5.501  26.081   4.121
13436W        W81654  37.597  14.248  11.159
13437W        W81655  20.245  13.372   2.672
13438W        W81656  41.830  30.005   0.664
13439W        W81657  37.284  10.843  12.959
13440W        W81658  18.808  25.735   3.550
13441W        W81659   4.976  15.145  12.129
13442W        W81660   3.138  34.636   2.440
13443W        W81661   4.909  30.546  12.884
13444W        W81662  19.982  26.612  10.230
13445W        W81663   9.174  30.989  14.395
13446W        W81664   2.260  32.933  14.957
13447W        W81665  10.059   8.690   4.046
13448W        W81666  37.121  29.255  11.406
13449W        W81667  27.298  17.241  11.137
13450W        W81668  22.487  29.956   3.235
13451W        W81669  19.651  22.643   5.074
13452W        W81670  25.559   8.387   1.830
13453W        W81671  26.420  19.019  13.410
13454W        W81672  23.581  34.770  14.961
13455W        W81673  27.420  22.586   2.268
13456W        W81674  19.603  35.545   4.152
13457W        W81675   7.734  33.448   1.032
13458W        W81676  12.089  27.580   0.049
13459W        W81677   5.289  21.238   1.192
13460W        W81678  16.996  35.067   5.229
13461W        W81679  39.441  33.167  12.763
13462W        W81680  33.455   8.977   1.701
13463W        W81681  33.045   4.392   1.346
13464W        W81682   6.397  14.095   2.111
13465W        W81683  36.957   3.799   0.897
13466W        W81684  30.485  20.837  14.044
13467W        W81685  33.985  25.439  11.471
13468W        W81686  18.463  43.995  14.933
13469W        W81687  17.202  10.077  11.020
13470W        W81688  33.001  31.974  11.024
13471W        W81689  25.398   8.352  12.854
13472W        W81690   7.774  14.093   1.369
13473W        W81691  11.317  16.218  14.923
13474W        W81692  36.903  40.563   0.722
13475W        W81693  43.123  40.067  12.413
13476W        W81694  38.964  16.806   2.820
13477W        W81695  24.827  29.977  14.936
13478W        W81696  31.610  17.037   3.176
13479W        W81697   9.377  33.942   4.516
13480W        W81698  24.248  25.360   1.240
13481W        W81699  28.591   0.674  12.943
13482W        W81700   0.033   1.219   4.281
13483W        W81701   8.764  10.422   3.604
13484W        W81702  44.727  17.157   0.379
13485W        W81703  26.385  22.645   2.228
13486W        W81704  11.678  34.062  10.695
13487W        W81705   8.687  18.291  11.605
13488W        W81706  42.836  41.684  14.517
13489W        W81707  41.648   0.943  13.998
13490W        W81708   6.133   5.948  11.539
13491W        W81709   5.412   6.294  11.595
13492W        W81710  27.635   9.780  12.190
13493W        W81711  38.253  22.451  12.549
13494W        W81712  30.203   7.972  12.386
13495W        W81713  34.532  18.939   4.866
13496W        W81714  24.800  35.666  13.567
13497W        W81715  15.178   3.166  14.673
13498W        W81716   0.959  25.290   2.660
13499W        W81717  11.464   6.671   0.605
13500W        W81718  28.170   3.213  11.124
13501W        W81719  37.786  41.584   0.710
13502W        W81720  43.129  44.850   3.812
13503W        W81721   9.380   9.116  14.255
13504W        W81722   8.750  14.408   4.026
13505W        W81723  42.046  33.169  15.000
13506W        W81724   7.622   9.289   0.951
13507W        W81725  30.043  40.086   3.775
13508W        W81726  36.121  18.728  11.893
13509W        W81727  30.446  24.238  14.020
13510W        W81728  15.925  37.575   3.962
13511W        W81729  26.919   9.399   2.198
13512W        W81730   1.359   1.998   0.593
13513W        W81731  33.530  39.370  10.656
13514W        W81732  41.409  43.483  12.198
13515W        W81733  24.516  34.995   4.195
13516W        W81734  32.702  43.226  14.750
13517W        W81735  28.903  31.906  13.498
13518W        W81736  28.058   2.111   5.059
13519W        W81737   0.743  15.247   3.404
13520W        W81738  22.633  38.895   5.053
13521W        W81739   6.745  24.291   1.866
13522W        W81740  37.440  31.736   0.872
13523W        W81741  26.763   9.829   4.615
13524W        W81742   4.463   8.171   3.751
13525W        W81743   0.584  15.463  14.811
13526W        W81744  17.174  38.347  14.478
13527W        W81745  42.066   6.238  13.417
13528W        W81746  44.589  27.140  11.643
13529W        W81747  11.213  33.897   0.701
13530W        W81748  11.472  32.993   0.254
13531W        W81749  14.353  41.334  12.847
13532W        W81750  32.165  20.351   2.860
13533W        W81751   8.907  10.045   3.279
13534W        W81752   5.049  42.938   5.058
13535W        W81753  34.397  34.616  14.345
13536W        W81754  44.473  40.989  12.968
13537W        W81755  26.544  17.562   0.924
13538W        W81756  20.073   3.210   4.106
13539W        W81757  18.824   3.421   4.568
13540W        W81758  44.402  40.013   4.508
13541W        W81759   2.266  36.889   2.686
13542W        W81760   8.149  11.212  12.010
13543W        W81761  13.255  10.371  11.979
13544W        W81762  19.811  37.112   0.844
13545W        W81763  19.096  36.662  11.168
13546W        W81764  37.888  34.334   4.042
13547W        W81765  11.049  17.235  12.937
13548W        W81766  10.425  42.377  12.909
13549W        W81767  42.259  33.337  13.964
13550W        W81768  34.007  34.616   3.708
13551W        W81769   0.563  10.794  13.499
13552W        W81770  33.946   7.172  14.314
13553W        W81771  15.342  19.737  13.828
13554W        W81772  33.370  29.918   0.939
13555W        W81773  40.377   0.276  10.302
13556W        W81774  11.928  15.742   0.511
13557W        W81775  17.370  19.584  12.069
13558W        W81776   3.946  28.056  12.562
13559W        W81777  39.222  11.762   2.009
13560W        W81778   4.816   6.163   2.505
13561W        W81779   0.829  24.542   3.278
13562W        W81780  22.463  26.595  14.357
13563W        W81781  30.890  24.601   3.149
13564W        W81782  21.813  11.232  10.782
13565W        W81783  35.426  30.473  11.082
13566W        W81784  39.300  19.741   2.818
13567W        W81785   6.185   0.730  11.539
13568W        W81786   1.557  13.123   2.787
13569W        W81787  28.213   8.761   0.201
13570W        W81788  12.314  37.305   2.783
13571W        W81789  12.024  22.985  14.352
13572W        W81790  19.761  30.124   1.227
13573W        W81791  11.810   1.444  11.880
13574W        W81792  35.825   4.960  13.845
13575W        W81793  35.482  31.917  12.647
13576W        W81794  13.979  33.570  14.066
13577W        W81795  16.292   6.596  11.421
13578W        W81796  22.641   3.158   0.255
13579W        W81797   6.153  41.418   2.176
13580W        W81798  15.151  44.299   4.151
13581W        W81799  10.259   8.713   1.765
13582W        W81800  29.446  25.920   2.180
13583W        W81801   3.125  25.577  12.529
13584W        W81802  10.895  35.681  12.416
13585W        W81803  17.279  34.607  11.626
13586W        W81804  11.484  29.135  12.782
13587W        W81805  15.770  26.978  12.493
13588W        W81806   0.346  25.979  11.085
13589W        W81807  21.082   8.674   4.237
13590W        W81808  20.624  39.049   3.296
13591W        W81809  16.835   1.754  13.253
13592W        W81810   1.489  37.535   3.440
13593W        W81811  25.317  14.592  14.417
13594W        W81812  26.284  15.361   2.786
13595W        W81813   8.334  11.329  13.858
13596W        W81814  44.165  13.335   2.001
13597W        W81815  39.534   0.437   1.866
13598W        W81816  20.287   9.100  13.479
13599W        W81817  31.459  15.249   3.125
13600W        W81818   0.376  28.426  12.855
13601W        W81819   2.019  30.461  14.675
13602W        W81820  18.809   1.351   3.440
13603W        W81821   0.953  22.702   0.335
13604W        W81822  20.135   2.205   1.322
13605W        W81823  19.065  40.458  10.690
13606W        W81824  36.609  22.990  12.520
13607W        W81825  32.566  27.180   1.742
13608W        W81826  26.131  19.852   4.900
13609W        W81827  17.599   6.655   4.627
13610W        W81828   4.914  21.798   3.732
13611W        W81829  26.097  19.982  10.767
13612W        W81830  32.397   8.360   0.754
13613W        W81831  31.071  11.108   0.646
13614W        W81832  44.029   9.159   1.440
13615W        W81833  31.207   5.002   1.806
13616W        W81834  12.159  19.143   2.614
13617W        W81835  18.877  44.221   2.764
13618W        W81836  12.698   6.427   0.893
13619W        W81837  29.468   0.267   2.415
13620W        W81838  36.461  32.251   2.832
13621W        W81839   9.956   2.129   1.181
13622W        W81840  31.038  40.186  12.035
13623W        W81841   9.113  22.956   2.146
13624W        W81842   2.746  32.535   4.274
13625W        W81843  40.531  37.926   4.144
13626W        W81844   3.248  33.282   4.031
13627W        W81845  34.895  33.586   3.746
13628W        W81846  39.533  26.417   4.553
13629W        W81847  25.043  21.672   4.501
13630W        W81848  24.964  33.380  14.535
13631W        W81849   4.466  35.569   1.902
13632W        W81850  20.948   4.510  11.342
13633W        W81851  27.444  23.451  11.343
13634W        W81852   2.211  25.489  14.505
13635W        W81853  27.501  41.814  11.112
13636W        W81854  18.700  27.490  11.462
13637W        W81855  35.985   0.303   1.255
13638W        W81856  20.162  10.204  14.566
13639W        W81857  29.695   6.190   3.144
13640W        W81858  44.816  16.613   3.365
13641W        W81859   0.104  39.030  11.236
13642W        W81860  25.981  41.034  11.121
13643W        W81861  10.133  18.096  12.027
13644W        W81862   7.057  44.533  14.894
13645W        W81863   0.029  15.296   2.658
13646W        W81864   5.713  24.117  14.926
13647W        W81865  36.841  36.094  12.671
13648W        W81866  36.045  44.808   3.191
13649W        W81867  16.566  41.323  11.675
13650W        W81868  17.809  33.389  12.331
13651W        W81869  34.954   8.747  11.684
13652W        W81870  37.966  10.145   1.429
13653W        W81871  16.745  28.459   3.464
13654W        W81872  35.799  34.925  14.314
13655W        W81873   9.712  31.695  11.964
13656W        W81874   3.469   1.225   3.603
13657W        W81875  11.222  42.000   2.229
13658W        W81876  31.161  21.114  10.346
13659W        W81877  21.588  32.950  14.584
13660W        W81878  11.982  16.837   4.043
13661W        W81879  41.840   3.655  10.518
13662W        W81880  41.191  24.758  11.019
13663W        W81881   6.840   7.447  11.107
13664W        W81882  41.829   9.063  10.720
13665W        W81883  43.111  12.128  12.081
13666W        W81884   7.936  18.116   0.500
13667W        W81885   1.767  25.366  13.004
13668W        W81886   7.323  26.930  10.536
13669W        W81887  29.277  11.225  14.887
13670W        W81888  22.266  18.990  11.269
13671W        W81889   9.286  27.357   3.286
13672W        W81890  44.269  16.516   2.718
13673W        W81891  30.190   9.167  11.695
13674W        W81892  16.366  11.665   2.515
13675W        W81893  12.325   6.370  11.988
13676W        W81894  12.663  41.432  10.587
13677W        W81895  25.888  43.488   1.446
13678W        W81896  39.432  12.292  10.927
13679W        W81897  30.013  33.978   0.508
13680W        W81898  12.927  20.008  13.416
13681W        W81899  41.054  26.530   0.476
13682W        W81900  23.562  10.815   3.170
13683W        W81901   9.338  34.150  13.940
13684W        W81902  38.361   6.766   2.896
13685W        W81903  11.971   9.827   4.084
13686W        W81904  36.905  35.946  13.944
13687W        W81905  42.055  21.617  13.442
13688W        W81906  11.785   3.295  11.265
13689W        W81907  21.978  15.796   4.313
13690W        W81908   6.609  12.259  12.028
13691W        W81909   4.316  19.343  12.527
13692W        W81910  43.348  43.331   0.501
13693W        W81911  27.767  12.174  13.794
13694W        W81912  14.836   6.627   2.301
13695W        W81913  20.524  21.383   2.689
13696W        W81914  32.121  21.157  14.489
13697W        W81915  16.061  42.230   2.412
13698W        W81916  23.084  39.422   2.176
13699W        W81917  25.733   6.400  11.643
13700W        W81918  24.194  20.098   3.398
13701W        W81919  25.948  32.891  11.144
13702W        W81920  15.296  39.956   4.261
13703W        W81921  44.514  25.717   2.237
13704W        W81922  13.449  39.483   2.853
13705W        W81923  31.217  36.058   1.449
13706W        W81924  19.286  24.755  11.664
13707W        W81925  16.582  12.861   2.662
13708W        W81926  36.617  33.937  10.775
13709W        W81927  36.932  26.026  14.025
13710W        W81928  24.700  44.505  12.973
13711W        W81929  43.275   6.180  11.209
13712W        W81930  43.385   6.873  13.094
13713W        W81931   0.209  29.106   2.669
13714W        W81932  20.125  16.186   2.739
13715W        W81933  40.475  28.492  11.025
13716W        W81934  33.120  33.947  12.584
13717W        W81935  28.774   9.682   3.809
13718W        W81936  33.510  33.046   0.561
13719W        W81937  11.680   2.773  10.449
13720W        W81938  22.975  17.575  11.482
13721W        W81939   5.415   5.633   4.531
13722W        W81940   8.888   6.714  13.926
13723W        W81941  21.310  36.962   3.106
13724W        W81942  17.646  37.834   4.068
13725W        W81943  33.896  19.997  12.993
13726W        W81944  32.930   2.375  10.987
13727W        W81945   8.712   3.447   3.731
13728W        W81946  18.368  27.581  13.967
13729W        W81947  16.299   5.360  10.680
13730W        W81948  32.481   3.072  13.953
13731W        W81949  38.066   6.811  12.698
13732W        W81950  35.957  33.807   1.895
13733W        W81951  10.151  41.889   0.699
13734W        W81952  34.783  15.692  10.251
13735W        W81953  41.830  17.865  13.466
13736W        W81954   4.777   2.393   3.369
13737W        W81955   9.905  37.803  14.303
13738W        W81956  37.585   7.608   3.448
13739W        W81957   8.813   9.797  13.528
13740W        W81958  13.442  14.699   4.619
13741W        W81959  13.770  44.259  14.337
13742W        W81960  28.079  22.554  13.915
13743W        W81961  14.755   8.857   4.867
13744W        W81962  41.257  18.291   4.624
13745W        W81963  16.554  24.790  14.066
13746W        W81964   8.238  33.647   2.903
13747W        W81965  12.706  17.850   1.815
13748W        W81966   2.870  35.636   3.665
13749W        W81967   0.319  13.267  11.228
13750W        W81968  43.026  27.408   1.350
13751W        W81969  42.075  17.580  14.407
13752W        W81970  10.228  12.557   2.557
13753W        W81971  19.346  41.759  11.983
13754W        W81972  27.929   2.194   3.127
13755W        W81973  40.506  18.726  12.942
13756W        W81974  33.412  26.073  11.658
13757W        W81975   3.899  37.099   0.460
13758W        W81976  12.401  35.984   4.038
13759W        W81977   7.326  12.361   0.486
13760W        W81978  32.430  23.945   2.683
13761W        W81979  25.940  15.143  12.186
13762W        W81980  33.026  28.404   0.366
13763W        W81981  23.100  21.536  11.381
13764W        W81982  42.927  27.341  10.999
13765W        W81983  16.588  42.934   2.614
13766W        W81984   9.643  41.258  11.154
13767W        W81985   8.685  16.720   2.317
13768W        W81986   1.267  27.993  14.483
13769W        W81987  38.538  39.217  11.479
13770W        W81988  12.159  43.296  11.027
13771W        W81989  10.755  30.991  13.474
13772W        W81990  30.093  38.226   4.127
13773W        W81991   3.716   8.204   0.921
13774W        W81992  24.062   0.368  13.963
13775W        W81993  26.290  11.231  14.802
13776W        W81994   2.334  16.709  12.313
13777W        W81995  30.585  26.599  10.095
13778W        W81996  21.972  42.901  11.439
13779W        W81997  25.291  14.069  12.617
13780W        W81998  44.941   8.932   1.309
13781W        W81999  12.143  32.596   1.356
13782W        W82000  20.137  31.969  10.098
13783W        W82001  14.328  21.612   5.096
13784W        W82002   7.929  29.088   0.805
13785W        W82003  29.027  21.989  10.587
13786W        W82004   3.131  22.163   0.684
13787W        W82005  34.091  31.364   0.399
13788W        W82006  44.593  37.439  14.307
13789W        W82007  29.087   8.820   0.207
13790W        W82008  25.053  12.761   0.437
13791W        W82009  29.260  32.890  14.490
13792W        W82010  38.782  27.917  11.651
13793W        W82011  23.526   4.906  13.502
13794W        W82012  30.459   7.991   1.864
13795W        W82013   8.901  34.059  10.347
13796W        W82014  21.140  11.847   3.808
13797W        W82015  19.049  36.543   3.187
13798W        W82016   4.388  30.162  14.910
13799W        W82017  17.717  33.036   1.929
13800W        W82018  14.246  19.587  10.755
13801W        W82019  30.623  15.078   3.660
13802W        W82020   5.589   6.296   0.336
13803W        W82021  26.450  36.434   1.637
13804W        W82022  31.116   0.303   2.604
13805W        W82023  23.937  26.199  13.427
13806W        W82024   2.257  43.553   2.396
13807W        W82025  32.160  21.258   3.111
13808W        W82026  22.410  29.552   2.219
13809W        W82027  41.940   7.795   0.442
13810W        W82028  14.606  18.881   2.331
13811W        W82029  19.591  11.876  12.606
13812W        W82030  15.161  29.943  13.502
13813W        W82031   6.740  15.035   2.188
13814W        W82032  21.140  28.154   4.124
13815W        W82033  25.947  11.870  14.099
13816W        W82034  40.385  16.160   0.884
13817W        W82035  18.127  42.293   3.147
13818W        W82036  34.138  32.284  10.754
13819W        W82037  28.479  43.886  12.389
13820W        W82038  36.104  13.254  14.446
13821W        W82039  19.177  12.600  13.083
13822W        W82040  24.927  13.295  13.328
13823W        W82041  43.491  18.035   3.362
13824W        W82042  38.608  44.847  13.713
13825W        W82043  31.325   8.763   2.420
13826W        W82044  17.103  23.651   0.420
13827W        W82045  18.920  43.290   4.331
13828W        W82046   4.873  40.228  14.842
13829W        W82047  11.153  35.798   2.800
13830W        W82048  17.158  41.820  12.077
13831W        W82049  25.569  41.529  10.692
13832W        W82050   2.456  11.751  11.647
13833W        W82051  33.088  33.816  11.161
13834W        W82052  42.095  44.271  14.274
13835W        W82053  20.107   5.027   0.030
13836W        W82054   1.029   5.699   2.356
13837W        W82055  33.078  35.565   4.543
13838W        W82056  25.472  19.488   1.241
13839W        W82057  30.802  21.185  10.718
13840W        W82058  12.109  22.129  13.758
13841W        W82059  39.324  11.781  11.695
13842W        W82060   4.382   8.668   1.035
13843W        W82061  31.034  19.455  14.869
13844W        W82062  28.417  43.554  10.938
13845W        W82063  20.761  14.085   2.838
13846W        W82064  12.801   5.156   3.274
13847W        W82065  12.502  35.230  14.114
13848W        W82066  30.807  32.004  12.310
13849W        W82067  37.110  10.945   0.116
13850W        W82068   1.854  32.439   3.344
13851W        W82069  43.717   6.873   1.368
13852W        W82070  33.872  18.585  14.840
13853W        W82071  30.393  10.081  14.330
13854W        W82072  36.800  18.728   0.312
13855W        W82073  44.225  14.977  13.230
13856W        W82074   5.783  20.241   3.611
13857W        W82075  38.851  29.468  11.133
13858W        W82076  24.351   5.987  12.657
13859W        W82077  11.591  12.700  13.956
13860W        W82078   5.304  42.955   0.654
13861W        W82079  13.097   3.365   5.053
13862W        W82080  38.033  29.588   0.712
13863W        W82081   4.893  31.881   2.786
13864W        W82082   1.935  18.226  10.628
13865W        W82083  31.226   5.460   4.713
13866W        W82084  23.642  22.382   1.442
13867W        W82085  38.051  17.162   3.654
13868W        W82086  16.905   7.689   0.504
13869W        W82087  12.631  18.619  14.802
13870W        W82088  41.503   7.287  12.706
13871W        W82089  33.087  20.436  14.779
13872W        W82090   8.947   6.693   1.152
13873W        W82091  26.032  20.267   0.252
13874W        W82092   8.306  31.405   1.940
13875W        W82093   6.406   3.385   0.428
13876W        W82094  25.096  28.507   1.295
13877W        W82095  42.816   1.107  12.628
13878W        W82096  39.088   1.762   3.771
13879W        W82097   9.862  19.996   1.022
13880W        W82098  39.849  15.078  14.034
13881W        W82099  18.360   2.509   1.660
13882W        W82100  44.835   2.025   3.845
13883W        W82101  16.473  27.651  14.807
13884W        W82102   3.477   1.854  13.103
13885W        W82103   0.304  34.037  12.562
13886W        W82104  12.148  42.804  11.504
13887W        W82105  24.149  23.618  11.139
13888W        W82106  23.828   1.349   3.619
13889W        W82107  31.692   0.212  14.852
13890W        W82108  36.212  44.810   2.240
13891W        W82109  32.939  25.252  13.494
13892W        W82110  31.250  20.644   2.386
13893W        W82111  15.770  28.629   0.766
13894W        W82112  14.351   2.304  11.684
13895W        W82113  10.216  27.423  12.688
13896W        W82114  34.178  39.525  14.907
13897W        W82115   6.878  43.700  10.557
13898W        W82116  16.546  31.440   3.199
13899W        W82117   0.513   4.571  14.214
13900W        W82118  40.369  33.105  12.861
13901W        W82119  40.833   8.930   4.480
13902W        W82120  23.200  28.136   2.745
13903W        W82121  15.286  11.428   3.346
13904W        W82122   6.311  38.518  13.880
13905W        W82123   8.624  44.637  12.849
13906W        W82124   4.307   1.220   0.538
13907W        W82125  42.315   7.220   3.673
13908W        W82126  34.060   5.640  13.581
13909W        W82127  21.931  37.765  11.267
13910W        W82128   1.317  27.954  13.201
13911W        W82129  36.571  21.067   0.732
13912W        W82130  30.842  41.919  14.234
13913W        W82131  37.135  33.836  14.305
13914W        W82132  21.125   6.266  12.185
13915W        W82133  21.077  32.113   4.591
13916W        W82134  21.271  14.191   2.717
13917W        W82135  35.485   9.826   3.446
13918W        W82136  30.438   9.900   0.042
13919W        W82137   8.299  14.987  10.105
13920W        W82138   4.253   4.832   3.402
13921W        W82139  34.600  35.496   3.710
13922W        W82140   9.973  13.068  13.128
13923W        W82141  29.084  42.373  13.220
13924W        W82142  43.633  36.665   3.113
13925W        W82143  34.913   0.247   0.710
13926W        W82144  33.049  13.614   4.078
13927W        W82145  44.219   7.948  14.939
13928W        W82146   2.145   2.795  11.087
13929W        W82147   4.756  15.317  10.300
13930W        W82148  19.906   1.680  10.713
13931W        W82149  34.987  37.587  14.824
13932W        W82150  34.196  42.791   3.954
13933W        W82151  27.667   7.776   4.385
13934W        W82152   2.429  25.736  14.929
13935W        W82153  37.831  42.314   2.289
13936W        W82154  42.330  20.787  13.805
13937W        W82155  18.543  39.725   3.944
13938W        W82156  30.650  29.314  12.500
13939W        W82157  18.053  21.494  13.722
13940W        W82158  44.277  38.539   0.036
13941W        W82159  30.931  38.014  10.722
13942W        W82160  36.880   2.808   2.872
13943W        W82161   5.185  27.202   1.212
13944W        W82162  19.161  27.478   4.707
13945W        W82163  18.913  12.851   1.281
13946W        W82164  33.028  34.643  10.736
13947W        W82165  20.542  18.889   3.208
13948W        W82166   7.398  26.703   3.919
13949W        W82167  36.179  43.588  14.048
13950W        W82168   6.810  12.890   1.879
13951W        W82169   9.232  33.135   1.787
13952W        W82170  32.530   1.317  13.490
13953W        W82171   9.870  23.476   3.643
13954W        W82172  23.191  20.740   0.900
13955W        W82173  17.254   5.626  12.379
13956W        W82174   2.382  12.221  10.460
13957W        W82175  12.835  32.307  11.227
13958W        W82176  13.319   6.631  11.986
13959W        W82177  26.182  39.437   0.004
13960W        W82178  28.876   4.312  11.643
13961W        W82179   9.649  38.303   0.497
13962W        W82180   7.171  13.098  12.232
13963W        W82181  28.067  11.712  10.783
13964W        W82182  16.637  23.426   0.546
13965W        W82183  43.909  19.874   3.371
13966W        W82184  33.090  33.356   0.699
13967W        W82185  40.664  30.470  11.938
13968W        W82186  12.917  42.090  12.244
13969W        W82187  29.445  18.078   1.854
13970W        W82188  36.593  27.049  14.955
13971W        W82189   1.902  22.824  14.368
13972W        W82190   5.002  31.951   1.853
13973W        W82191   5.825   1.432  14.753
13974W        W82192   4.812  26.522   0.165
13975W        W82193  29.981  31.011   3.818
13976W        W82194   6.257  37.280   3.625
13977W        W82195  38.528  29.407  14.049
13978W        W82196  41.105  19.475  14.776
13979W        W82197  24.526  19.470  14.934
13980W        W82198   5.708   6.582   1.435
13981W        W82199  37.375  20.173   4.112
13982W        W82200  12.918   7.355   1.234
13983W        W82201  13.330  18.963   1.706
13984W        W82202  31.615  23.998  13.484
13985W        W82203  17.770  11.041   0.434
13986W        W82204  43.190  16.415   1.381
13987W        W82205  41.326  14.845   2.811
13988W        W82206   6.199   9.902  12.922
13989W        W82207  28.458  37.629   1.010
13990W        W82208   9.460  21.719  14.326
13991W        W82209  25.569   6.891  14.906
13992W        W82210  16.813   2.478   5.239
13993W        W82211   6.683   1.320   2.630
13994W        W82212  15.793  10.393  11.019
13995W        W82213  22.277  22.689   1.222
13996W        W82214  18.580  18.041  10.714
13997W        W82215  32.146  42.312  11.273
13998W        W82216  10.855   2.334  13.507
13999W        W82217   8.087  14.366   4.900
14000W        W82218  16.059  33.570   2.700
14001W        W82219  12.095   2.954  13.358
14002W        W82220  40.419  38.129   0.905
14003W        W82221  35.929  23.730  12.947
14004W        W82222  16.249  41.816  13.538
14005W        W82223  10.227  21.437  13.967
14006W        W82224  31.008  15.226  14.288
14007W        W82225  36.921   1.549  13.962
14008W        W82226   8.995  15.640  13.551
14009W        W82227  33.458  43.837  14.872
14010W        W82228  13.621  33.578   3.670
14011W        W82229  19.886  29.643  12.012
14012W        W82230   6.601  15.859   3.047
14013W        W82231   6.206   0.377  11.981
14014W        W82232  35.064  35.874  12.173
14015W        W82233  41.791  24.745  12.197
14016W        W82234  12.099  12.544   3.334
14017W        W82235  41.658  25.020  10.988
14018W        W82236  26.185  10.083  12.805
14019W        W82237  23.295   0.589   3.258
14020W        W82238  24.650  43.939   3.296
14021W        W82239   7.369  43.414   2.963
14022W        W82240  23.806  24.706   2.681
14023W        W82241   9.903   8.605  10.655
14024W        W82242  35.072  19.330  14.934
14025W        W82243  31.538  44.938   2.000
14026W        W82244  23.992  32.814  10.701
14027W        W82245   6.159  24.163   0.252
14028W        W82246  27.002  43.080   2.654
14029W        W82247   0.194  25.233   0.945
14030W        W82248  15.658  21.499  10.565
14031W        W82249  15.454   0.005   2.214
14032W        W82250  35.059  16.958   0.330
14033W        W82251  22.208  12.997  10.752
14034W        W82252   4.681  40.845  13.917
14035W        W82253  40.896   9.961   3.371
14036W        W82254  24.711  15.739  10.670
14037W        W82255   2.903  11.964   0.439
14038W        W82256  10.768   6.275   3.228
14039W        W82257  11.872   2.297   1.426
14040W        W82258  20.172  41.011   0.282
14041W        W82259   2.204  18.187  11.162
14042W        W82260   0.412  29.437  11.132
14043W        W82261   8.466   6.049   4.153
14044W        W82262  31.069  42.011  11.970
14045W        W82263  22.738  39.517   1.813
14046W        W82264  11.354  19.326  14.371
14047W        W82265  36.843  40.378   3.806
14048W        W82266  20.218  17.649  11.947
14049W        W82267  14.669   1.430   2.750
14050W        W82268  36.133  39.509  13.260
14051W        W82269  19.533  11.927   3.218
14052W        W82270  42.483  39.585  12.997
14053W        W82271  36.081  11.294  14.155
14054W        W82272  17.537  23.588  13.167
14055W        W82273  25.902  25.658  10.709
14056W        W82274  21.811  22.943  11.924
14057W        W82275  12.252  29.612   1.224
14058W        W82276  38.702  27.619  14.492
14059W        W82277  21.321  12.146   2.775
14060W        W82278  31.041  12.875  11.157
14061W        W82279   6.941  24.663  12.559
14062W        W82280  21.465   1.921   1.356
14063W        W82281   7.154  28.951   0.408
14064W        W82282  41.572   5.828   1.321
14065W        W82283  16.261  33.864  14.809
14066W        W82284  26.549  26.494   3.203
14067W        W82285  27.862  19.652   4.089
14068W        W82286  21.872  29.900  11.990
14069W        W82287  35.264  38.261   3.871
14070W        W82288  29.049  10.583   4.198
14071W        W82289  22.698  39.917   4.915
14072W        W82290  37.381  38.605   2.176
14073W        W82291  39.595  27.680  11.510
14074W        W82292  10.917  43.675   4.136
14075W        W82293   0.325   8.242   3.658
14076W        W82294  23.289  36.300   2.323
14077W        W82295  30.283   6.947  13.405
14078W        W82296   4.140  28.067  10.665
14079W        W82297  28.962   8.100   4.359
14080W        W82298  41.556  34.058  12.408
14081W        W82299  29.024   2.992  14.280
14082W        W82300  26.741   8.219   2.159
14083W        W82301  12.156  21.024   2.415
14084W        W82302  16.703  42.494   0.144
14085W        W82303  16.294  22.149   2.141
14086W        W82304   4.164  18.997  11.125
14087W        W82305  40.489  17.125   3.669
14088W        W82306  23.762  43.481   4.169
14089W        W82307   5.834  30.946   2.215
14090W        W82308  18.639  12.696  14.720
14091W        W82309  43.551  44.014  11.003
14092W        W82310  41.780   5.717   3.316
14093W        W82311  33.578  44.839  12.103
14094W        W82312  21.363   2.095   9.919
14095W        W82313  24.733  30.306  13.942
14096W        W82314   5.438  16.590   3.125
14097W        W82315  15.026  40.853   2.289
14098W        W82316  28.748  42.174  10.868
14099W        W82317  26.484   2.387   2.416
14100W        W82318  24.048  36.485  12.415
14101W        W82319  21.179   5.176  14.342
14102W        W82320   6.543   6.354   3.230
14103W        W82321  41.354  31.203   0.388
14104W        W82322  10.468  31.197   1.829
14105W        W82323   2.193  10.603   1.498
14106W        W82324   0.212  15.323  11.199
14107W        W82325  20.177  31.683   2.611
14108W        W82326   6.392  12.413   1.283
14109W        W82327  38.033  38.162   1.300
14110W        W82328  24.577  38.198  11.614
14111W        W82329  12.025  31.422  11.750
14112W        W82330   1.214  36.827  11.084
14113W        W82331  19.722  21.028   3.473
14114W        W82332   8.818  43.987  10.115
14115W        W82333  34.258  20.014   3.076
14116W        W82334  42.546  40.152   2.510
14117W        W82335  18.278  10.724   4.219
14118W        W82336  33.910  40.988   0.505
14119W        W82337  16.089  29.303   3.235
14120W        W82338  34.034  19.693   3.569
14121W        W82339  28.480  18.100  11.532
14122W        W82340   7.152   5.507   3.120
14123W        W82341  44.378  43.596   4.541
14124W        W82342  30.901  13.883  11.059
14125W        W82343  23.649  36.732  13.185
14126W        W82344  15.799  24.607   2.898
14127W        W82345  44.434  39.622   0.013
14128W        W82346  20.259   5.572  14.248
14129W        W82347  12.233  27.645  10.608
14130W        W82348  31.999  22.079  14.753
14131W        W82349  41.719  23.799   1.795
14132W        W82350  19.058  18.816  11.983
14133W        W82351  11.723  42.417  11.954
14134W        W82352  36.969  27.789   1.199
14135W        W82353   0.356  32.860   2.693
14136W        W82354   0.322   7.216   3.186
14137W        W82355  22.291  43.439  13.833
14138W        W82356   4.746  23.651  11.637
14139W        W82357   1.526  19.456  11.607
14140W        W82358   9.809   5.414   4.504
14141W        W82359   0.371  35.121   2.752
14142W        W82360  43.736   6.669  13.476
14143W        W82361  32.167  14.596   1.217
14144W        W82362   2.777  41.239  13.501
14145W        W82363  34.355  14.193  13.109
14146W        W82364  11.102  19.075  11.007
14147W        W82365  26.494  27.187  10.939
14148W        W82366  17.610  24.662  11.158
14149W        W82367  13.445  43.309  11.466
14150W        W82368  28.944  40.538  12.086
14151W        W82369  27.473  33.841  14.500
14152W        W82370  27.103   0.353  12.990
14153W        W82371  44.988  28.971   3.113
14154W        W82372  13.321  26.765   3.142
14155W        W82373  41.253   6.824  13.808
14156W        W82374   0.979  43.389  13.888
14157W        W82375  12.284  30.220  12.376
14158W        W82376  18.184  17.732   2.391
14159W        W82377  14.979  42.959   3.754
14160W        W82378  37.153   8.443   1.036
14161W        W82379  28.399  15.391   2.830
14162W        W82380  38.201  30.715  11.701
14163W        W82381  22.973  32.438   4.514
14164W        W82382  18.725  41.328  10.773
14165W        W82383  21.636  41.210   3.733
14166W        W82384  12.138  42.519  10.666
14167W        W82385  26.030  13.968   3.307
14168W        W82386  10.366  37.083   2.657
14169W        W82387  37.811  43.686  13.356
14170W        W82388   5.797  14.172   3.361
14171W        W82389  18.839   6.982   2.904
14172W        W82390  27.042   0.689  13.414
14173W        W82391  24.214  33.170   1.479
14174W        W82392  31.030  39.977   4.527
14175W        W82393   8.056  13.565   3.749
14176W        W82394   8.688   6.298   4.584
14177W        W82395  26.492   7.324   4.647
14178W        W82396  28.772  15.783   3.564
14179W        W82397  14.707  16.189  11.546
14180W        W82398  39.526   5.511   1.442
14181W        W82399   3.276  41.238   2.566
14182W        W82400  10.323  18.186  14.064
14183W        W82401   0.382  24.466  13.391
14184W        W82402  38.830  29.490   4.176
14185W        W82403  13.580  38.854   1.199
14186W        W82404  25.230  35.145   0.518
14187W        W82405  28.888   1.046  10.376
14188W        W82406   4.447  32.582   3.585
14189W        W82407  24.544  33.147  12.436
14190W        W82408  42.462  28.760  13.133
14191W        W82409  22.189   4.282  10.847
14192W        W82410  40.355  30.892   2.580
14193W        W82411  11.068  15.032   2.677
14194W        W82412  22.730  42.742   1.743
14195W        W82413   8.464  35.005   0.679
14196W        W82414  28.964  39.079   4.093
14197W        W82415  28.932  23.546   3.124
14198W        W82416   4.451   0.726   1.259
14199W        W82417  35.908  17.259   1.562
14200W        W82418  38.249   6.465   2.454
14201W        W82419  13.291   0.450  14.268
14202W        W82420   3.929  32.860   1.735
14203W        W82421  16.798  15.333  11.977
14204W        W82422  36.799  25.440   4.138
14205W        W82423  26.534  40.937  12.009
14206W        W82424  23.857  14.553  13.679
14207W        W82425  24.228  37.853  13.436
14208W        W82426  29.268  23.036   2.271
14209W        W82427  33.015  41.507   0.208
14210W        W82428  12.700  39.838  11.441
14211W        W82429  38.586  21.389  12.618
14212W        W82430  21.622   9.727   3.396
14213W        W82431  18.995  33.369  11.034
14214W        W82432   9.233   9.225   2.912
14215W        W82433  41.425  33.901  14.856
14216W        W82434   6.637  35.109  11.680
14217W        W82435   7.714   6.982   5.067
14218W        W82436  14.277  41.116   3.584
14219W        W82437   7.767  39.244  13.947
14220W        W82438  36.139  31.186   3.756
14221W        W82439  16.708  28.378   4.921
14222W        W82440  26.275  10.810   3.805
14223W        W82441  36.858   0.971  11.984
14224W        W82442  16.313  43.210   0.290
14225W        W82443   7.732  44.037  10.350
14226W        W82444  29.260  32.274  13.456
14227W        W82445  44.993  10.745  10.476
14228W        W82446   1.281  34.113  11.143
14229W        W82447  40.149  14.724   3.293
14230W        W82448  41.068  14.364  12.480
14231W        W82449  27.257  18.231  12.140
14232W        W82450   8.714  11.292  12.875
14233W        W82451  24.636   7.653  12.985
14234W        W82452  38.461  17.530  10.658
14235W        W82453  44.965  33.505   2.217
14236W        W82454   1.583  44.207   3.184
14237W        W82455  15.630  13.758  10.842
14238W        W82456  15.169  29.662  12.048
14239W        W82457  10.848  34.424  11.999
14240W        W82458  28.369  37.462  12.589
14241W        W82459  37.971   8.352  11.951
14242W        W82460  17.270  43.998  10.281
14243W        W82461  16.037  16.142   2.178
14244W        W82462  14.412  20.943  11.691
14245W        W82463  12.129  34.364   1.384
14246W        W82464  44.868  28.467   3.053
14247W        W82465  44.218   8.357  13.491
14248W        W82466   4.016  18.740   3.638
14249W        W82467   0.791  23.234   2.187
14250W        W82468  36.923  43.370   4.353
14251W        W82469  43.420  11.771   2.152
14252W        W82470  42.359  32.108   2.197
14253W        W82471   7.353  29.631  14.072
14254W        W82472   5.238  10.602  11.949
14255W        W82473  12.659  31.558   0.034
14256W        W82474  28.803  17.220  13.114
14257W        W82475  35.183   9.650  13.414
14258W        W82476  33.281  34.228   3.354
14259W        W82477  20.202   2.385  13.829
14260W        W82478   4.668   9.615   0.768
14261W        W82479   1.832  35.976   0.930
14262W        W82480  17.254  20.543   3.750
14263W        W82481  31.915  42.571   3.839
14264W        W82482  44.312  37.327  11.647
14265W        W82483  15.737   3.689  11.640
14266W        W82484  40.325  25.257   4.667
14267W        W82485  34.510  19.819   2.390
14268W        W82486  22.801  35.944   3.224
14269W        W82487  41.800   1.220  11.631
14270W        W82488  35.906  23.203  12.832
14271W        W82489  34.744  24.772  11.524
14272W        W82490  32.627  33.363  11.610
14273W        W82491  22.317   0.239  12.216
14274W        W82492  19.076   1.329  11.855
14275W        W82493  34.041  16.630  11.684
14276W        W82494  30.086  41.827   1.565
14277W        W82495  43.445   4.772   3.646
14278W        W82496   8.440  20.547  11.129
14279W        W82497   1.721  38.030  14.502
14280W        W82498   7.843  20.506  13.898
14281W        W82499  39.969   1.501  11.139
14282W        W82500  30.580  34.568  11.086
14283W        W82501  31.100  13.702   0.689
14284W        W82502  19.076   6.874   3.651
14285W        W82503  18.155  30.110   0.752
14286W        W82504   3.194  38.067  13.768
14287W        W82505  28.238   7.265   3.337
14288W        W82506  21.075   3.567  12.998
14289W        W82507   3.853  44.447   1.800
14290W        W82508  23.953  21.123   1.401
14291W        W82509  25.687   1.514  10.823
14292W        W82510  11.393   9.722  12.188
14293W        W82511  12.647   9.056  10.389
14294W        W82512  10.353  38.002   3.724
14295W        W82513  42.107  27.063  12.100
14296W        W82514  12.371  11.097  11.436
14297W        W82515  15.933   4.743  12.559
14298W        W82516  34.130  13.307  12.395
14299W        W82517   5.203  29.668   2.386
14300W        W82518  19.999   0.007  12.047
14301W        W82519   6.753   7.812   1.735
14302W        W82520   6.457   9.443  13.021
14303W        W82521   9.764  25.727   2.678
14304W        W82522  40.518  19.475   1.428
14305W        W82523  18.225  13.548  14.744
14306W        W82524   2.653  24.623  13.627
14307W        W82525   4.765  20.311  10.402
14308W        W82526  23.650  31.869  14.942
14309W        W82527  32.602  27.812   1.400
14310W        W82528  38.391  11.052   0.450
14311W        W82529  44.308  20.125  12.954
14312W        W82530  15.124  41.281   1.365
14313W        W82531   4.905   4.226  12.499
14314W        W82532   5.124  29.696   0.007
14315W        W82533  21.401   0.970   1.203
14316W        W82534   1.303  11.149   4.400
14317W        W82535  29.476   9.695   4.608
14318W        W82536  18.249  16.659  10.769
14319W        W82537  38.871  14.289   5.298
14320W        W82538  28.988   1.695  13.859
14321W        W82539  18.411  16.407   5.065
14322W        W82540   2.288  19.776  12.066
14323W        W82541   0.694   5.253  12.383
14324W        W82542   2.446  32.414  14.063
14325W        W82543  20.731  36.819  14.970
14326W        W82544   5.260   0.154  12.382
14327W        W82545  34.359   2.401   3.865
14328W        W82546  30.483  40.056   4.066
14329W        W82547  35.480  19.841   3.223
14330W        W82548  20.711  35.350   3.692
14331W        W82549   7.697  22.998   3.734
14332W        W82550  44.967   0.924  12.960
14333W        W82551  28.105  16.959   4.248
14334W        W82552  12.213  18.189  12.536
14335W        W82553  42.496  24.670   4.762
14336W        W82554  32.413  10.858   2.274
14337W        W82555  33.662   0.547  11.631
14338W        W82556  25.434   0.820   0.184
14339W        W82557  26.435   0.676  14.048
14340W        W82558  34.218  36.961  11.727
14341W        W82559  34.031  42.421   4.281
14342W        W82560  34.625  25.701  13.130
14343W        W82561   7.297  23.231   2.175
14344W        W82562   4.504  34.007  14.746
14345W        W82563  41.083   6.330   3.319
14346W        W82564   6.736  41.762  13.422
14347W        W82565  16.769  29.657  13.083
14348W        W82566  43.016   8.307  14.554
14349W        W82567  41.922   4.219   2.788
14350W        W82568  21.058  41.983   5.035
14351W        W82569  18.777  10.697   4.338
14352W        W82570  37.109  26.261  11.997
14353W        W82571   4.401  36.363   3.216
14354W        W82572  14.339  26.441   4.514
14355W        W82573  23.286  31.090   1.673
14356W        W82574  31.140  30.677   2.737
14357W        W82575  36.858  13.376   4.037
14358W        W82576  10.361  10.353  11.897
14359W        W82577  15.749  18.253   4.431
14360W        W82578  21.045  37.014   1.354
14361W        W82579  19.090  41.899  14.765
14362W        W82580   7.840  27.572  11.159
14363W        W82581  36.474  34.318   0.320
14364W        W82582   4.452  36.471   1.499
14365W        W82583  44.115  35.657   4.150
14366W        W82584  36.469   8.333  13.136
14367W        W82585   0.499  21.203   4.455
14368W        W82586  13.856  30.625   1.920
14369W        W82587  34.070   1.335  11.678
14370W        W82588  34.479  23.523  14.402
14371W        W82589   0.788  14.176  14.333
14372W        W82590  21.581  16.812  13.888
14373W        W82591  29.525  39.098   0.634
14374W        W82592   0.676  38.384  13.370
14375W        W82593  32.630  14.242   3.840
14376W        W82594  24.174  24.207  12.014
14377W        W82595  20.939  40.253   4.497
14378W        W82596   2.416   5.161   2.422
14379W        W82597   4.314   4.384   3.630
14380W        W82598   0.454  40.607  11.104
14381W        W82599  36.101  30.182   1.801
14382W        W82600  16.324  41.433   1.795
14383W        W82601  13.198  36.570   3.768
14384W        W82602   1.917  37.278   4.232
14385W        W82603  20.518  40.815   4.170
14386W        W82604  14.436  13.729   2.840
14387W        W82605   6.376  22.694  11.555
14388W        W82606  40.047  19.758  10.767
14389W        W82607  38.827  35.857  12.558
14390W        W82608  24.545  37.006  10.586
14391W        W82609   6.599  23.890  10.509
14392W        W82610  26.247  20.743  12.454
14393W        W82611  30.051  20.560  11.063
14394W        W82612  25.993  23.713  14.085
14395W        W82613  26.725   0.147   3.818
14396W        W82614  27.665   1.211   2.572
14397W        W82615  10.347  26.776   3.191
14398W        W82616  11.649  31.002  13.356
14399W        W82617  17.277  20.926   4.583
14400W        W82618   6.095  40.287  13.798
14401W        W82619  28.533  35.449  11.560
14402W        W82620  39.920  43.466   4.548
14403W        W82621  28.952  37.504   0.808
14404W        W82622  31.186  15.620  14.950
14405W        W82623   8.941   5.341  14.813
14406W        W82624  22.749   8.516  12.065
14407W        W82625  42.383  34.712  10.649
14408W        W82626  21.216  34.460  12.172
14409W        W82627  28.518  22.581   3.300
14410W        W82628  24.200  16.836   3.601
14411W        W82629  24.105  37.006   1.668
14412W        W82630  35.981  22.279  13.957
14413W        W82631  30.028   9.166  14.372
14414W        W82632  38.274  21.080  10.676
14415W        W82633   9.871  44.288   2.151
14416W        W82634   8.287  11.259   2.321
14417W        W82635  23.756  13.632   3.966
14418W        W82636   4.565  20.176   3.071
14419W        W82637  10.055  27.554  14.409
14420W        W82638  30.447  34.402  13.593
14421W        W82639  18.608  25.846  12.386
14422W        W82640  35.008   2.593   3.813
14423W        W82641   8.351   4.796   0.334
14424W        W82642   5.814  25.069   2.210
14425W        W82643   7.606  39.395   0.351
14426W        W82644   1.652   4.838   4.119
14427W        W82645  11.641  41.483  13.903
14428W        W82646  22.322  20.039  12.029
14429W        W82647  18.532  12.115  10.686
14430W        W82648  27.132  39.797  13.772
14431W        W82649  19.497  39.016  14.893
14432W        W82650   1.310  28.144  12.372
14433W        W82651  43.088  10.329  12.832
14434W        W82652  27.474  11.689  12.940
14435W        W82653  31.369  10.279  14.417
14436W        W82654  28.177   8.603   4.194
14437W        W82655  29.639  30.026   4.888
14438W        W82656  16.134   3.996  10.858
14439W        W82657  20.902   8.821  10.816
14440W        W82658  28.096  28.126   2.728
14441W        W82659  11.364  34.531  13.069
14442W        W82660  23.159  19.896  14.560
14443W        W82661   3.610  15.282   3.729
14444W        W82662  31.066  43.736   3.527
14445W        W82663  42.526  14.651  14.476
14446W        W82664  20.744   0.559   2.933
14447W        W82665  14.363  33.601   4.191
14448W        W82666  31.959  19.592   1.941
14449W        W82667  25.137   8.439  10.973
14450W        W82668  28.130   3.933   1.319
14451W        W82669  37.466   4.995  13.089
14452W        W82670  43.808  33.470  10.649
14453W        W82671   3.764  41.976   3.292
14454W        W82672  11.913  34.581   1.820
14455W        W82673  35.452   1.022   4.116
14456W        W82674  21.184   4.269   4.369
14457W        W82675  15.633  27.215   3.644
14458W        W82676  39.364   3.003  13.559
14459W        W82677  15.178   4.632  13.516
14460W        W82678  42.403  12.738   0.517
14461W        W82679  42.868  18.578   3.349
14462W        W82680  43.807  43.414  11.715
14463W        W82681  23.116  43.716  14.847
14464W        W82682   6.782  39.154  11.977
14465W        W82683  44.524   4.023  14.518
14466W        W82684  34.098  32.444   3.230
14467W        W82685  25.519  21.539   0.071
14468W        W82686  41.770  15.065   3.685
14469W        W82687  21.798  30.665   2.346
14470W        W82688  30.005  31.415   0.025
14471W        W82689   9.884   6.076   2.759
14472W        W82690  21.566   6.169  13.418
14473W        W82691  24.282  25.066  14.023
14474W        W82692   1.574  16.768   4.634
14475W        W82693   2.346  18.154   1.389
14476W        W82694  43.272  16.331  11.949
14477W        W82695  15.894  20.554   4.830
14478W        W82696  26.720  12.829  13.535
14479W        W82697  38.517  40.361  12.124
14480W        W82698  13.069   3.502  13.811
14481W        W82699  38.783  38.601  14.031
14482W        W82700  27.115  25.508   2.327
14483W        W82701  31.350  12.853   0.502
14484W        W82702  33.022  12.416  12.026
14485W        W82703  41.497  12.888  11.940
14486W        W82704   4.507  14.162   0.917
14487W        W82705  25.228  38.930  11.983
14488W        W82706  14.079  37.829   2.140
14489W        W82707   7.711  42.255  13.409
14490W        W82708  39.898  25.886  11.630
14491W        W82709   0.676  19.550   4.217
14492W        W82710   5.187   6.905   2.281
14493W        W82711  21.903   2.482  12.043
14494W        W82712  43.454  27.563   3.704
14495W        W82713  20.915   5.821   2.795
14496W        W82714  22.981  32.628  10.654
14497W        W82715  28.275   1.939   1.960
14498W        W82716  24.425  30.563   3.035
14499W        W82717   5.313  10.614   4.822
14500W        W82718  43.229  13.489  11.636
14501W        W82719  19.077   0.421   2.274
14502W        W82720  27.039  41.002   3.687
14503W        W82721   3.962   0.454   2.641
14504W        W82722  41.525  15.116   4.155
14505W        W82723  38.360  25.231  14.372
14506W        W82724  25.117   7.487  12.893
14507W        W82725  13.648  18.290  13.525
14508W        W82726   0.872   5.775  12.144
14509W        W82727  11.395  42.355  12.629
14510W        W82728   5.726  24.764   1.790
14511W        W82729  39.074  28.028  14.343
14512W        W82730   0.411  14.061  10.647
14513W        W82731   6.174  32.120   4.063
14514W        W82732  33.632  34.561   2.609
14515W        W82733  11.677  30.403   1.322
14516W        W82734  31.047  32.402   0.361
14517W        W82735  16.716  41.969  12.318
14518W        W82736  44.509   0.344   0.795
14519W        W82737   7.936   3.414   2.444
14520W        W82738  41.521  29.065  11.259
14521W        W82739  12.623   8.953  12.949
14522W        W82740   6.339  31.124  13.432
14523W        W82741  30.733  41.094   0.536
14524W        W82742  17.767   0.712   1.009
14525W        W82743  35.926  39.774  11.355
14526W        W82744  19.074  22.696  10.679
14527W        W82745  12.120  41.815  11.501
14528W        W82746  31.762  12.949  11.602
14529W        W82747  38.101  30.147   0.174
14530W        W82748  40.477  40.627  14.608
14531W        W82749   3.104  32.236   1.272
14532W        W82750  24.146   6.426   0.262
14533W        W82751   7.348  29.194  13.145
14534W        W82752  19.871   9.411   0.780
14535W        W82753  44.115  42.294   0.838
14536W        W82754  18.043  38.070  11.842
14537W        W82755  14.234  24.578   3.183
14538W        W82756  12.873  42.016   3.761
14539W        W82757  44.341  12.807  14.048
14540W        W82758  40.419  17.163   5.404
14541W        W82759   7.122  35.769  14.819
14542W        W82760  44.223   3.082   5.339
14543W        W82761  31.507  39.975  10.594
14544W        W82762   9.316  17.967  14.857
14545W        W82763  11.107  36.928   0.035
14546W        W82764  42.249  30.657   3.193
14547W        W82765  32.669   5.054   3.255
14548W        W82766  19.170  44.511   1.364
14549W        W82767  28.540  34.846  14.573
14550W        W82768   3.751  27.645   0.387
14551W        W82769  32.958  13.288   0.745
14552W        W82770  43.951  28.153  14.629
14553W        W82771  14.720   9.216   0.516
14554W        W82772  42.249   9.790  14.499
14555W        W82773  33.870  32.515   3.726
14556W        W82774  30.016  18.691   3.582
14557W        W82775  19.200  28.185  11.492
14558W        W82776  21.163  24.164  13.141
14559W        W82777  18.171  27.501  11.653
14560W        W82778  38.756  19.616   4.693
14561W        W82779   7.262   7.930   1.720
14562W        W82780  40.987  18.491  12.971
14563W        W82781  25.944  38.874   2.614
14564W        W82782  22.663  40.960  12.838
14565W        W82783  23.618  42.544   1.816
14566W        W82784   0.970  22.128  13.421
14567W        W82785   3.190   4.279   2.667
14568W        W82786  28.361  31.471  12.874
14569W        W82787   0.800  15.328  12.119
14570W        W82788  30.404  44.389  14.912
14571W        W82789  32.884  35.433   0.927
14572W        W82790  24.655  25.602   9.653
14573W        W82791   0.302  21.155   3.811
14574W        W82792  43.336  14.108  14.405
14575W        W82793  37.154   1.166   1.696
14576W        W82794   5.152  16.560   4.103
14577W        W82795  33.881  30.724   9.354
14578W        W82796  12.194   1.433   4.604
14579W        W82797  12.353  34.278   3.616
14580W        W82798  16.969   5.713  14.389
14581W        W82799  31.438  26.289  10.967
14582W        W82800  28.445  12.058  11.567
14583W        W82801   7.503  10.524   1.757
14584W        W82802  26.956  19.724  10.611
14585W        W82803   5.465  11.226   2.337
14586W        W82804   1.511  36.379   0.949
14587W        W82805  23.813  29.632  11.156
14588W        W82806  10.654  36.702  14.888
14589W        W82807  12.809  13.765   0.428
14590W        W82808  44.742  24.074  11.540
14591W        W82809  32.404  20.140  13.316
14592W        W82810  29.523  18.839   3.672
14593W        W82811  20.813  42.734   1.227
14594W        W82812  31.187   1.043   2.247
14595W        W82813  29.705  14.768  11.094
14596W        W82814   7.950   2.287   2.856
14597W        W82815  15.082  12.868   0.739
14598W        W82816  13.925  43.293   5.226
14599W        W82817   8.346   1.107  13.806
14600W        W82818   7.257   8.962   3.138
14601W        W82819   8.242  33.999   0.373
14602W        W82820   6.374   4.911  14.396
14603W        W82821  37.012  30.695   0.154
14604W        W82822   1.550  30.791  13.901
14605W        W82823  26.910  27.378  10.672
14606W        W82824  31.842  34.502  12.464
14607W        W82825  29.035  43.984   4.595
14608W        W82826   4.205   1.797  13.949
14609W        W82827  36.486  40.285   4.758
14610W        W82828  35.798  24.668  10.764
14611W        W82829  26.415   0.250  12.433
14612W        W82830   7.874  17.756   0.898
14613W        W82831  31.953  40.141  10.371
14614W        W82832  25.204  26.590  14.767
14615W        W82833   5.828  38.115   2.975
14616W        W82834  25.668  31.274   1.033
14617W        W82835  33.378  18.982   0.926
14618W        W82836   6.644   3.014  11.550
14619W        W82837   2.987  32.000  10.342
14620W        W82838  36.293  24.703  11.543
14621W        W82839  35.241  29.609  11.971
14622W        W82840  43.838  11.407  10.692
14623W        W82841   1.007  21.134   0.346
14624W        W82842  10.379  17.562   1.407
14625W        W82843   1.035  16.600  14.354
14626W        W82844   2.943  36.973   1.477
14627W        W82845  27.145  29.096   0.511
14628W        W82846  40.017  17.513   0.813
14629W        W82847  21.134   6.083  14.084
14630W        W82848  33.405  30.163   2.466
14631W        W82849  10.648  17.095   0.860
14632W        W82850   0.393  40.269  14.975
14633W        W82851  11.339  41.075  10.719
14634W        W82852  34.529  44.304   0.355
14635W        W82853   1.355   7.398   2.424
14636W        W82854   2.957  29.145  11.099
14637W        W82855  27.093  23.573  11.696
14638W        W82856  14.015  30.212   1.249
14639W        W82857   2.241  37.999  14.693
14640W        W82858  20.336  20.069   0.870
14641W        W82859  26.771  10.632  12.634
14642W        W82860  39.514  41.522   0.085
14643W        W82861   0.830  21.566   2.256
14644W        W82862   0.009   3.699  10.787
14645W        W82863  41.497   9.840   0.987
14646W        W82864  23.208   3.789   2.754
14647W        W82865  12.321  40.428   3.608
14648W        W82866  27.533  23.749   0.781
14649W        W82867  35.824  41.824   1.244
14650W        W82868  43.392   1.457   1.374
14651W        W82869  30.423  12.246   2.211
14652W        W82870   8.957  31.018   3.872
14653W        W82871  12.072  21.602   3.026
14654W        W82872  35.313  24.203   2.479
14655W        W82873  28.064  28.860  13.859
14656W        W82874  37.700  22.615  13.347
14657W        W82875  40.912  15.560   1.744
14658W        W82876  33.709   4.432   9.827
14659W        W82877  41.423  28.985  13.743
14660W        W82878   4.147  20.802  11.841
14661W        W82879  24.428  10.920  12.501
14662W        W82880   1.275  18.629  10.381
14663W        W82881  27.723  24.652   3.698
14664W        W82882   6.138  28.407  14.329
14665W        W82883  31.946  26.109  10.247
14666W        W82884   5.537  11.749   1.949
14667W        W82885  17.823   0.897  12.484
14668W        W82886  33.933   7.295  12.004
14669W        W82887   8.201  37.863  10.230
14670W        W82888   5.712  11.293   4.602
14671W        W82889  20.684  42.315   3.816
14672W        W82890  33.007   1.758   4.189
14673W        W82891  30.840  16.603   2.479
14674W        W82892  16.602   8.725  13.847
14675W        W82893   6.337  41.762  14.159
14676W        W82894   2.364  25.937   0.421
14677W        W82895  23.092  10.699  13.296
14678W        W82896  18.974  36.539  12.027
14679W        W82897  32.102  44.674   2.567
14680W        W82898  35.345  35.041  13.490
14681W        W82899  22.456   4.217  13.783
14682W        W82900   3.236  24.132   3.028
14683W        W82901  27.661  17.766   2.757
14684W        W82902  20.150  11.725  14.443
14685W        W82903  15.186  35.398  12.544
14686W        W82904   8.589   8.214  13.853
14687W        W82905   8.249  18.061   3.621
14688W        W82906  42.031   4.886   3.784
14689W        W82907  39.789  18.959  13.510
14690W        W82908  44.367  21.457  11.110
14691W        W82909  34.783  42.864   1.718
14692W        W82910  43.809   5.766   1.778
14693W        W82911  34.317   9.968  12.479
14694W        W82912  28.746  30.085   3.122
14695W        W82913  22.205  10.108  10.894
14696W        W82914  39.303  28.904   2.509
14697W        W82915  35.576  29.388  10.724
14698W        W82916  18.186  21.575  10.978
14699W        W82917  25.074  34.173   0.458
14700W        W82918  34.579   7.593  14.931
14701W        W82919  34.745   6.155  10.971
14702W        W82920  31.552   1.443  14.510
14703W        W82921  14.768  28.402  11.577
14704W        W82922  30.630   9.703  12.461
14705W        W82923  28.693  20.652  13.101
14706W        W82924   0.666  15.776  11.927
14707W        W82925  35.898  13.211   5.203
14708W        W82926  20.114  10.406  11.167
14709W        W82927   0.385  29.049   4.962
14710W        W82928  37.208  27.288   2.771
14711W        W82929  33.019  38.957   4.544
14712W        W82930  29.093  38.927   3.217
14713W        W82931  32.015  12.175  11.707
14714W        W82932   8.562  43.108  10.132
14715W        W82933  29.230  14.531   1.372
14716W        W82934   4.192   6.059  10.931
14717W        W82935   0.735  40.204  11.228
14718W        W82936  31.226  19.649   5.126
14719W        W82937   6.453   7.854   3.083
14720W        W82938  34.423  40.431  12.090
14721W        W82939  43.912  27.586   0.327
14722W        W82940  32.376  44.540  14.444
14723W        W82941  36.397  12.646   4.558
14724W        W82942  23.290  39.557  10.641
14725W        W82943  39.608  38.345   2.911
14726W        W82944  13.154  13.097   3.626
14727W        W82945  24.803  18.761   2.856
14728W        W82946  20.542  30.721  10.722
14729W        W82947  26.453  38.327   2.477
14730W        W82948  24.041  24.713  11.946
14731W        W82949   8.776   6.699   2.054
14732W        W82950  19.668  13.423  14.439
14733W        W82951  11.535  27.862   0.336
14734W        W82952  28.134  18.251   4.579
14735W        W82953  13.797  42.456   4.356
14736W        W82954  39.894  41.572  12.138
14737W        W82955  19.565  27.049  11.979
14738W        W82956   6.145   5.099   2.712
14739W        W82957   2.895   2.725  14.279
14740W        W82958   6.154  43.810   1.708
14741W        W82959   1.290  40.455   4.352
14742W        W82960   6.396  22.487   1.639
14743W        W82961   5.027  40.735   0.036
14744W        W82962  12.954  16.482   4.780
14745W        W82963   9.900  24.582  10.637
14746W        W82964  11.091  43.925   9.754
14747W        W82965  39.071  31.951  11.607
14748W        W82966  12.922   7.761   0.419
14749W        W82967   4.811  15.041   3.285
14750W        W82968  42.310  11.593   1.765
14751W        W82969  11.287  33.936   1.204
14752W        W82970   8.214  16.071  11.213
14753W        W82971  36.218  31.598   1.201
14754W        W82972  42.277   5.959   4.181
14755W        W82973  33.084   9.135  14.987
14756W        W82974  42.032   3.447  11.758
14757W        W82975  40.579   8.347  13.965
14758W        W82976   4.825  10.201  13.599
14759W        W82977  22.745  25.975   0.468
14760W        W82978  41.183  16.349  13.314
14761W        W82979  18.035  24.047   2.355
14762W        W82980  13.189  37.580   3.659
14763W        W82981  28.931  41.469   0.085
14764W        W82982  32.968  16.461  13.526
14765W        W82983  22.584  34.058   1.392
14766W        W82984  13.211  40.081  12.079
14767W        W82985  35.551   4.218   4.748
14768W        W82986   5.789  16.731   1.840
14769W        W82987   2.783  14.767  13.088
14770W        W82988  41.503   0.303  12.893
14771W        W82989  31.928  16.572  14.394
14772W        W82990  30.389  15.749   1.471
14773W        W82991  16.543   2.631   1.907
14774W        W82992  20.985   4.151   3.889
14775W        W82993  16.445  31.122  11.056
14776W        W82994  44.843  44.220   3.405
14777W        W82995  38.935  11.372  11.707
14778W        W82996  28.802  14.047  10.335
14779W        W82997  18.220  11.146   1.220
14780W        W82998   8.891   3.456   9.736
14781W        W82999  29.989  20.258   4.356
14782W        W83000  40.563   1.752   2.124
14783W        W83001  17.733  41.347  14.367
14784W        W83002   6.448  17.587   0.728
14785W        W83003   6.389  24.075  13.760
14786W        W83004  21.021  13.427  14.008
14787W        W83005  32.656  30.541   0.311
14788W        W83006  13.051   0.956  11.646
14789W        W83007  11.061   3.022   0.353
14790W        W83008  42.625  17.285  14.069
14791W        W83009   6.887   6.923  12.922
14792W        W83010  39.473   8.205   3.097
14793W        W83011  24.785  39.920  13.626
14794W        W83012  23.662  15.576  12.351
14795W        W83013  21.037  42.297  14.987
14796W        W83014  42.786  32.913   4.347
14797W        W83015  10.369  17.140   2.270
14798W        W83016  22.181  12.748   4.289
14799W        W83017  12.180  44.350  12.289
14800W        W83018  43.173  30.192   4.364
14801W        W83019   8.441  14.664   0.529
14802W        W83020  29.086  13.316  14.541
14803W        W83021  20.468  36.967  12.525
14804W        W83022   6.176   1.530  12.087
14805W        W83023   7.091   3.294  11.599
14806W        W83024  36.698  28.942  12.595
14807W        W83025   9.805   8.335  14.401
14808W        W83026  10.281  11.181   1.165
14809W        W83027  32.085  28.295   4.117
14810W        W83028  11.110  13.883   2.179
14811W        W83029  42.228  14.714  11.211
14812W        W83030  15.681   6.707  12.172
14813W        W83031   2.441   5.907   1.945
14814W        W83032  17.872  13.255  12.534
14815W        W83033   2.510  36.178   0.395
14816W        W83034  40.754  12.178   3.668
14817W        W83035  44.463  11.924  10.064
14818W        W83036  11.357  22.143   2.973
14819W        W83037  43.533   7.663   1.295
14820W        W83038   2.349  31.879  14.882
14821W        W83039   4.604   9.456  11.030
14822W        W83040  31.041  19.661   2.671
14823W        W83041   6.941  13.110   3.162
14824W        W83042  33.406  29.473  14.861
14825W        W83043  29.398  33.980  12.987
14826W        W83044  14.578   5.788   4.512
14827W        W83045  17.069  43.467  14.874
14828W        W83046  41.437  44.714  11.766
14829W        W83047  31.691  21.199   4.514
14830W        W83048  39.966   2.776  14.312
14831W        W83049  31.396  18.640  10.891
14832W        W83050  32.813  11.913   4.092
14833W        W83051   3.430   1.944  14.578
14834W        W83052  17.208  16.232   2.635
14835W        W83053  22.476  16.062  12.074
14836W        W83054  41.511  26.221  10.577
14837W        W83055  21.750  42.849  13.175
14838W        W83056   3.958  38.781  11.203
14839W        W83057  17.183  39.371  12.987
14840W        W83058  34.873   5.866  13.543
14841W        W83059  40.867  13.083  13.562
14842W        W83060  42.460  37.552   4.078
14843W        W83061  19.736  20.149  12.478
14844W        W83062   0.309  22.710  11.355
14845W        W83063   7.887  14.593   3.424
14846W        W83064  28.031  21.637  10.282
14847W        W83065   9.693  26.669   2.753
14848W        W83066  19.232  19.522  14.383
14849W        W83067  33.259  44.062   4.031
14850W        W83068  10.115  34.440  10.278
14851W        W83069  16.393  41.441   0.824
14852W        W83070  10.689  11.717  12.605
14853W        W83071   9.246  15.363   2.406
14854W        W83072  29.095   3.816  12.389
14855W        W83073  40.405  30.186   4.575
14856W        W83074  32.509  32.072  11.133
14857W        W83075  32.006  16.520  12.178
14858W        W83076  16.188  31.522  12.991
14859W        W83077  40.379  41.947  10.962
14860W        W83078   0.053   5.692   1.531
14861W        W83079   6.071   8.866  12.282
14862W        W83080  24.450   3.907   3.357
14863W        W83081  43.981   3.504  13.901
14864W        W83082  35.806  27.011   5.511
14865W        W83083  21.665   2.564  14.270
14866W        W83084  39.825  20.512  13.482
14867W        W83085   9.551  42.188   4.063
14868W        W83086   1.698   2.503  11.949
14869W        W83087  26.691  32.604  12.455
14870W        W83088  24.520  14.098  11.582
14871W        W83089  18.398  24.934   3.646
14872W        W83090   2.035  13.631  13.240
14873W        W83091   0.332  15.644  10.760
14874W        W83092  24.537  24.864  11.987
14875W        W83093  42.918   0.845  11.606
14876W        W83094  34.518  36.509  13.602
14877W        W83095  30.558  37.102   2.226
14878W        W83096  37.973  39.304  10.664
14879W        W83097  35.389   6.903   3.717
14880W        W83098   7.181  13.198   1.685
14881W        W83099  39.151  20.014  12.377
14882W        W83100  29.489  34.774  11.114
14883W        W83101  29.153  16.800   1.303
14884W        W83102  40.326  40.337  13.617
14885W        W83103  30.207  36.041   1.190
14886W        W83104   6.949  31.580  13.920
14887W        W83105  18.818  18.738  13.442
14888W        W83106  18.806   4.958  12.357
14889W        W83107  10.226  26.990   1.178
14890W        W83108  34.680  19.140   0.372
14891W        W83109  17.644  14.255  14.889
14892W        W83110  34.644   7.877   1.831
14893W        W83111   1.917  17.203   4.548
14894W        W83112   0.003  36.677   1.712
14895W        W83113   0.422  28.910  11.150
14896W        W83114  39.333  19.758   0.540
14897W        W83115  43.393  34.791  10.682
14898W        W83116  32.045  22.568  11.797
14899W        W83117  15.252  22.555   4.337
14900W        W83118  34.895  41.944   1.409
14901W        W83119  36.548   4.312   3.768
14902W        W83120  30.908  13.577  10.628
14903W        W83121  25.520  11.642   1.041
14904W        W83122   0.293  33.126  11.036
14905W        W83123  33.392  15.574  12.864
14906W        W83124  30.703  30.845   2.496
14907W        W83125   5.320   1.948   3.714
14908W        W83126  32.291   5.846   1.834
14909W        W83127  31.189  22.000  12.502
14910W        W83128  10.909  13.736   0.842
14911W        W83129  27.696  18.358   3.356
14912W        W83130  32.947  23.020   0.311
14913W        W83131  22.707   5.748   1.427
14914W        W83132  29.909  14.045   4.543
14915W        W83133  31.771  17.067   1.078
14916W        W83134  40.127  32.884   3.252
14917W        W83135  25.896  40.433   3.537
14918W        W83136  33.158  31.594  10.685
14919W        W83137   9.203  24.879   2.403
14920W        W83138  20.783  37.899  13.029
14921W        W83139  24.067  27.110  11.855
14922W        W83140  13.001  41.881  11.235
14923W        W83141   5.784  40.035   5.363
14924W        W83142  34.814  41.996  11.182
14925W        W83143  26.448  29.960   0.801
14926W        W83144  21.561  13.118   0.890
14927W        W83145  40.628  12.632  12.087
14928W        W83146   1.773   8.633  14.025
14929W        W83147  39.266  25.640  13.525
14930W        W83148  33.334  22.594   2.759
14931W        W83149   2.510  25.683  11.608
14932W        W83150  30.240  22.126   3.155
14933W        W83151  32.397  33.214  13.623
14934W        W83152  41.838  22.082   0.171
14935W        W83153  22.564  13.192   1.777
14936W        W83154  38.282  33.472   3.757
14937W        W83155  19.107  15.082   4.575
14938W        W83156  35.599  13.251  14.358
14939W        W83157  39.780  38.831  14.998
14940W        W83158  25.603   3.037   4.573
14941W        W83159  16.624  21.443  13.974
14942W        W83160  15.188  41.913  13.478
14943W        W83161  11.190  24.894  13.582
14944W        W83162  20.703   5.533   1.254
14945W        W83163  19.686  29.058   3.867
14946W        W83164   9.758  21.207  10.710
14947W        W83165  19.175  38.975   2.664
14948W        W83166  34.575  35.247  11.517
14949W        W83167  31.423  43.504  11.197
14950W        W83168  41.965  37.974  13.829
14951W        W83169  14.889  11.207  10.563
14952W        W83170  23.260  36.885   0.315
14953W        W83171   7.898  17.451  14.985
14954W        W83172  36.164  41.737   3.240
14955W        W83173   4.609  42.393   4.116
14956W        W83174  35.501  12.619  11.234
14957W        W83175   4.711  25.435  12.963
14958W        W83176  26.579  42.237   2.193
14959W        W83177  15.852  37.756  13.943
14960W        W83178  27.921   8.160   4.071
14961W        W83179   8.619   9.182  12.383
14962W        W83180   3.381  43.116   1.669
14963W        W83181   8.211  17.978   2.711
14964W        W83182  42.331   0.036  14.023
14965W        W83183   1.400  27.144  14.852
14966W        W83184  41.698  29.204  12.780
14967W        W83185   3.769  41.276   4.655
14968W        W83186  11.309  42.777  12.923
14969W        W83187  44.736  38.626  11.137
14970W        W83188  39.519   1.119   4.503
14971W        W83189  41.108  23.590  11.727
14972W        W83190  15.710  34.327   4.121
14973W        W83191  10.246  28.536  13.349
14974W        W83192  11.119   5.200   3.825
14975W        W83193  23.856  14.314   2.322
14976W        W83194  28.323   6.789   0.423
14977W        W83195  30.605  30.943   2.990
14978W        W83196   4.785   5.747  11.210
14979W        W83197   3.210   4.338  13.554
14980W        W83198  12.216  24.764  14.457
14981W        W83199  22.169  44.938  14.873
14982W        W83200  43.314  29.698  12.163
14983W        W83201  23.022  27.294  11.897
14984W        W83202  36.404  24.258   4.268
14985W        W83203  38.639   7.149  10.235
14986W        W83204   6.309   6.256  10.751
14987W        W83205  18.246  38.934   1.425
14988W        W83206  33.438  22.219   1.288
14989W        W83207  41.320  35.056  11.395
14990W        W83208  27.551   3.667  12.393
14991W        W83209  27.235   0.889  12.975
14992W        W83210  23.210   7.650  11.119
14993W        W83211   1.266  32.005   2.831
14994W        W83212  27.499  37.851  13.466
14995W        W83213  27.868   7.667  14.165
14996W        W83214  32.969  24.986   5.175
14997W        W83215   8.776  42.364   9.770
14998W        W83216  42.248  37.084  12.093
14999W        W83217   3.437  10.508  14.883
15000W        W83218  40.959   5.963  14.798
15001W        W83219  33.786  37.975  12.239
15002W        W83220  10.305  29.252   1.769
15003W        W83221  17.144  26.050  11.010
15004W        W83222  20.210  41.387   4.622
15005W        W83223   5.801   7.237  12.605
15006W        W83224  42.351   5.887   0.100
15007W        W83225  44.619  13.111   1.915
15008W        W83226  22.075  20.140   1.411
15009W        W83227  12.363  31.867  11.293
15010W        W83228   6.723  42.012  13.883
15011W        W83229  23.104  27.529  14.858
15012W        W83230   7.345  38.355   0.438
15013W        W83231  34.010  10.101  12.898
15014W        W83232   7.617  18.148  12.010
15015W        W83233   3.268  29.931   4.634
15016W        W83234  36.463  25.735  13.503
15017W        W83235  13.739  22.734   3.083
15018W        W83236  35.806  24.632   4.797
15019W        W83237  26.484  18.771   3.444
15020W        W83238  27.445   9.604  10.708
15021W        W83239   8.831  38.383   2.877
15022W        W83240   9.223  13.028   4.726
15023W        W83241  41.552  20.003  13.424
15024W        W83242  32.167  31.444  11.143
15025W        W83243   7.800  31.558   1.963
15026W        W83244  26.010  31.016  13.957
15027W        W83245  30.109  40.408   1.946
15028W        W83246  23.755  31.002  10.727
15029W        W83247  24.018  20.220  13.925
15030W        W83248  10.873   7.864  11.992
15031W        W83249  16.522   9.685   3.824
15032W        W83250   1.412  21.590  11.626
15033W        W83251  22.925   6.413  11.205
15034W        W83252   0.461  30.183  11.529
15035W        W83253  14.206  40.269  11.191
15036W        W83254  44.244  33.042   3.816
15037W        W83255  26.988  29.068   2.724
15038W        W83256  44.937  16.546   2.344
15039W        W83257  14.304  16.807   4.467
15040W        W83258  29.138  21.404  11.519
15041W        W83259   8.448  43.401  14.477
15042W        W83260   0.449  26.925  10.714
15043W        W83261  19.075  41.370  14.690
15044W        W83262  38.895  34.477  13.693
15045W        W83263  11.195   6.823   3.601
15046W        W83264  39.491  24.834   5.067
15047W        W83265  13.665  21.222   2.332
15048W        W83266  20.614  35.990  14.357
15049W        W83267  21.820  22.436   4.010
15050W        W83268  10.840  44.880   3.375
15051W        W83269  24.448  21.580  12.600
15052W        W83270   6.187  30.046  14.289
15053W        W83271  31.642  20.463   3.777
15054W        W83272  27.623   4.687  14.928
15055W        W83273   8.610  33.014   2.856
15056W        W83274  11.118  38.738  10.785
15057W        W83275  22.556  34.130   2.309
15058W        W83276  24.537  30.624   1.720
15059W        W83277  38.940  33.200   1.017
15060W        W83278  44.684  30.278  12.860
15061W        W83279  10.621   4.669  12.800
15062W        W83280  26.505  31.391   1.259
15063W        W83281  21.517  35.060   0.630
15064W        W83282  20.410  44.611  13.984
15065W        W83283   0.526  36.463  11.556
15066W        W83284  39.934  22.935   2.393
15067W        W83285  26.703   3.447  12.899
15068W        W83286  27.969  38.001   3.228
15069W        W83287  20.017   5.171  12.859
15070W        W83288  31.971  31.940   2.604
15071W        W83289   3.740  24.666   1.446
15072W        W83290  19.096   3.817   4.356
15073W        W83291  17.661  34.661  14.896
15074W        W83292  18.605   0.012   3.236
15075W        W83293  27.146  30.610  12.536
15076W        W83294  18.764  10.593  14.715
15077W        W83295   4.232  24.966   3.202
15078W        W83296  27.679  33.139  14.412
15079W        W83297  13.243  12.916  12.453
15080W        W83298  11.434  25.693   0.836
15081W        W83299  16.876  41.509  13.084
15082W        W83300   5.392  44.668  12.350
15083W        W83301  28.691  43.499   3.829
15084W        W83302  41.398  13.982  12.580
15085W        W83303  10.429  43.414  14.263
15086W        W83304  27.103   4.852  10.077
15087W        W83305  31.614   1.718  11.582
15088W        W83306  39.393  26.660  11.234
15089W        W83307  35.953  13.735   2.953
15090W        W83308  35.261  14.609   4.128
15091W        W83309  42.268   6.302  14.774
15092W        W83310  12.772   0.672  10.335
15093W        W83311  36.353  39.494   3.626
15094W        W83312  19.622  21.159  12.916
15095W        W83313  34.925  24.697   4.317
15096W        W83314   3.201   2.019   3.431
15097W        W83315  17.725  44.995   3.804
15098W        W83316  26.521   7.268  10.621
15099W        W83317   8.306  32.644   0.850
15100W        W83318   3.810  36.783  13.040
15101W        W83319  18.201  44.760   0.454
15102W        W83320  20.718  20.338   4.281
15103W        W83321  35.556   3.246  11.882
15104W        W83322  19.530  40.851   4.540
15105W        W83323   2.494  23.354  14.040
15106W        W83324   9.462  18.517   4.168
15107W        W83325   8.760  33.565   2.133
15108W        W83326   3.590  34.847   0.846
15109W        W83327   9.451  38.855   4.485
15110W        W83328  15.673  43.300   4.696
15111W        W83329   1.771  40.679   4.538
15112W        W83330  10.394   0.742   1.429
15113W        W83331  17.705  16.382   2.809
15114W        W83332  24.844  26.627   5.019
15115W        W83333  42.927   4.925   3.654
15116W        W83334  22.083   6.194  12.049
15117W        W83335   9.107  37.785  13.951
15118W        W83336   4.822   1.333   4.497
15119W        W83337  33.938  44.370  10.496
15120W        W83338  31.025  10.674  11.126
15121W        W83339  27.975  33.822  11.797
15122W        W83340   6.738   5.339  12.075
15123W        W83341  11.198   3.820   4.587
15124W        W83342  18.199  11.572   2.149
15125W        W83343  18.968  21.976  11.978
15126W        W83344  15.166  32.106   2.755
15127W        W83345  20.330  29.568  11.099
15128W        W83346  16.748   0.293   4.617
15129W        W83347  16.757  23.183  14.726
15130W        W83348  11.131  34.139   3.632
15131W        W83349  43.941  26.722  12.093
15132W        W83350  38.516  14.297  14.703
15133W        W83351  35.749  31.620  13.994
15134W        W83352  19.039  34.618  12.845
15135W        W83353  35.958  22.857   0.252
15136W        W83354  37.074   0.760  11.576
15137W        W83355  27.070  26.333   5.019
15138W        W83356  13.584  33.248  13.839
15139W        W83357  13.637  11.547   2.223
15140W        W83358  36.578  30.190   2.756
15141W        W83359  26.212  41.493  11.487
15142W        W83360  16.985  21.466   1.832
15143W        W83361  26.605  20.548   0.001
15144W        W83362  32.483   5.586   3.171
15145W        W83363  13.355   9.365   3.819
15146W        W83364  12.270  35.302  10.523
15147W        W83365   4.707   3.690   2.495
15148W        W83366  42.886  15.404  13.025
15149W        W83367  36.610  26.404  12.227
15150W        W83368  31.113  12.033   0.252
15151W        W83369  28.028  26.341   4.110
15152W        W83370  14.793   8.856  13.200
15153W        W83371  43.369  13.216  14.878
15154W        W83372  25.466  24.321   3.632
15155W        W83373  15.806  40.024   2.879
15156W        W83374  22.636  21.445  11.996
15157W        W83375  27.689  39.138  10.780
15158W        W83376   2.875  12.046  10.510
15159W        W83377  27.526   4.338   2.717
15160W        W83378  26.315  14.270   3.591
15161W        W83379   1.292   3.037   3.817
15162W        W83380  23.615  44.734  10.748
15163W        W83381  20.964   4.737  12.414
15164W        W83382  32.310  36.898  14.883
15165W        W83383  12.961  40.052  14.379
15166W        W83384  40.230  36.436  13.527
15167W        W83385  19.578  13.003   5.156
15168W        W83386  26.639  23.778  11.547
15169W        W83387  15.169  33.474   0.898
15170W        W83388   3.165  27.471  13.631
15171W        W83389   8.595  17.255   9.789
15172W        W83390  32.864  25.798   4.508
15173W        W83391  40.924   9.402  14.431
15174W        W83392  27.383  26.548  12.671
15175W        W83393  20.545   9.231  14.432
15176W        W83394  22.173   4.463  13.350
15177W        W83395  23.780  35.980   4.913
15178W        W83396  35.935   5.285   3.367
15179W        W83397  12.915   6.119  12.375
15180W        W83398  23.467  25.659   4.916
15181W        W83399  12.133  26.054   3.111
15182W        W83400  25.741   9.378  11.882
15183W        W83401   8.791   7.960  13.456
15184W        W83402  32.092  30.494   2.348
15185W        W83403   1.295  42.247  11.876
15186W        W83404  30.688  13.202   1.004
15187W        W83405  40.989  13.334   4.569
15188W        W83406  13.167  29.939   1.701
15189W        W83407   4.188  43.267  13.106
15190W        W83408  30.607  24.398  12.486
15191W        W83409  19.841   9.222  13.163
15192W        W83410  35.651  31.121  14.895
15193W        W83411   0.420  11.072  13.096
15194W        W83412  41.750  14.317   0.352
15195W        W83413  28.547  22.746  12.482
15196W        W83414   5.969   9.857   2.070
15197W        W83415  21.545  36.853  12.517
15198W        W83416  17.654   8.224   0.034
15199W        W83417  14.489  12.048  10.984
15200W        W83418  14.104  10.089  14.396
15201W        W83419  14.216  33.330  11.890
15202W        W83420  25.498  34.005   1.481
15203W        W83421  16.522  27.045   2.638
15204W        W83422   2.224  27.673  10.729
15205W        W83423  18.323  33.314  14.743
15206W        W83424  32.729   4.156   3.987
15207W        W83425  37.820  43.916  12.540
15208W        W83426  43.425  30.256   1.578
15209W        W83427  14.585  15.105  12.796
15210W        W83428  17.820   3.473   3.069
15211W        W83429  20.985  30.471  14.717
15212W        W83430  38.604   4.894   4.648
15213W        W83431   0.943  18.809  14.417
15214W        W83432  40.748  32.670   1.865
15215W        W83433  15.357  13.792  12.560
15216W        W83434  17.458   1.947  13.078
15217W        W83435  22.242  27.511   2.427
15218W        W83436  15.950  31.182  12.644
15219W        W83437  24.593  26.520  11.850
15220W        W83438   6.922  25.850  11.868
15221W        W83439   4.258   2.916  12.354
15222W        W83440  41.811  35.251   1.981
15223W        W83441  38.780  16.039   4.178
15224W        W83442  24.208  37.409  10.510
15225W        W83443  11.200  31.942   4.055
15226W        W83444   7.682  15.253   2.879
15227W        W83445  17.240  13.085   4.105
15228W        W83446  41.536  38.016  14.961
15229W        W83447  28.902  25.333   2.820
15230W        W83448  35.115   0.303   2.604
15231W        W83449  29.529  22.672  13.336
15232W        W83450   8.601  25.131   3.207
15233W        W83451   8.904   8.830  12.125
15234W        W83452  38.341  38.779   3.394
15235W        W83453  38.128   1.463  12.126
15236W        W83454   1.676   5.517  12.390
15237W        W83455   9.870   0.277   3.815
15238W        W83456  29.385  36.210   1.036
15239W        W83457   1.646   9.026   4.915
15240W        W83458   1.940   7.807   3.955
15241W        W83459  11.106   4.591  14.575
15242W        W83460  26.739  29.333   3.127
15243W        W83461   6.901   2.278   3.599
15244W        W83462  14.343  20.196   0.357
15245W        W83463  40.778   0.771   4.079
15246W        W83464  43.516  35.894   1.637
15247W        W83465  13.200   0.781  11.163
15248W        W83466  19.187  37.311   3.700
15249W        W83467  14.745   4.377  13.365
15250W        W83468  17.062  22.675  13.044
15251W        W83469  32.072  20.361   0.560
15252W        W83470  28.144  26.072  12.558
15253W        W83471  14.255  33.372   4.640
15254W        W83472  42.998  20.796   1.253
15255W        W83473   2.892  28.904  13.994
15256W        W83474  43.038  15.774  11.537
15257W        W83475  22.293   0.883   1.447
15258W        W83476   3.108   5.988   2.767
15259W        W83477   8.238  38.003  11.812
15260W        W83478   0.395   6.216  13.841
15261W        W83479  28.133   5.691  13.575
15262W        W83480  12.653  28.112   0.983
15263W        W83481  22.058  39.344  14.819
15264W        W83482   7.590   1.559  11.141
15265W        W83483  21.670  28.226   0.817
15266W        W83484  39.315  38.381   2.502
15267W        W83485  12.932  22.567   0.250
15268W        W83486  37.014  23.658  12.098
15269W        W83487   6.012  35.809   2.446
15270W        W83488   8.458  43.255   1.233
15271W        W83489  33.474  10.626  14.892
15272W        W83490  16.292  17.706   4.270
15273W        W83491  20.647  32.045  13.722
15274W        W83492  16.745  33.759   1.452
15275W        W83493  25.161  21.434  12.133
15276W        W83494  39.521   7.909   0.291
15277W        W83495   6.762  20.700   0.691
15278W        W83496   9.983  19.170   4.629
15279W        W83497  42.973  15.030  13.415
15280W        W83498  23.509  22.172   0.968
15281W        W83499  41.725  30.068   1.207
15282W        W83500  26.298  33.650  14.458
15283W        W83501  17.655  29.170  13.301
15284W        W83502   1.559  35.414   2.296
15285W        W83503  11.388  42.321  13.158
15286W        W83504  40.990  28.392  11.005
15287W        W83505   5.720  12.826  13.478
15288W        W83506  20.583  17.853   0.804
15289W        W83507  18.823  32.387   2.108
15290W        W83508  38.894  23.607   2.811
15291W        W83509  33.920  13.737   4.596
15292W        W83510   6.903   2.889  14.868
15293W        W83511  37.341  38.805   0.945
15294W        W83512  36.033  15.888  14.172
15295W        W83513  30.651   9.604   0.948
15296W        W83514  27.539   0.364   0.787
15297W        W83515   9.982  15.143   4.214
15298W        W83516  17.884  14.606   0.829
15299W        W83517  36.111  22.364   0.126
15300W        W83518  17.288  28.240  12.381
15301W        W83519  32.051   1.461  13.587
15302W        W83520  28.632   2.335   1.727
15303W        W83521   0.459  37.108  13.407
15304W        W83522   8.934  30.047  11.285
15305W        W83523   6.134  39.651   0.367
15306W        W83524  44.886  42.608  12.334
15307W        W83525  10.382  42.316   3.291
15308W        W83526  42.565  28.696   3.200
15309W        W83527  31.852  42.795  11.165
15310W        W83528  16.553  44.918  13.190
15311W        W83529  18.709  42.579  13.291
15312W        W83530   1.852  18.259   1.538
15313W        W83531  40.805  40.306  11.412
15314W        W83532  20.197   0.775   0.750
15315W        W83533  25.956  20.026   2.473
15316W        W83534  21.553  31.152   0.267
15317W        W83535   9.725  19.637   1.908
15318W        W83536  43.337  23.969   1.864
15319W        W83537  33.451  39.420  14.004
15320W        W83538   7.877  25.528  13.850
15321W        W83539  37.480  43.888  14.295
15322W        W83540  40.315   0.215   0.879
15323W        W83541   5.759  41.752   2.306
15324W        W83542  11.884  40.902  11.564
15325W        W83543   3.188   9.778  12.865
15326W        W83544  35.296  29.564  11.142
15327W        W83545  19.478  28.667  14.050
15328W        W83546  10.993   2.719   0.759
15329W        W83547  25.231  32.101   1.484
15330W        W83548  39.012  10.186   2.779
15331W        W83549  35.907  35.168   4.633
15332W        W83550   5.783  34.983   1.874
15333W        W83551  40.740  23.079   0.501
15334W        W83552  34.962   2.450   4.314
15335W        W83553   0.069  38.874   4.228
15336W        W83554  41.409   2.986  14.226
15337W        W83555  40.710  26.727   2.379
15338W        W83556  36.653  19.745   2.767
15339W        W83557  37.973  12.299  14.034
15340W        W83558  37.978   6.351  12.402
15341W        W83559  14.076  22.000   1.772
15342W        W83560  16.593   7.279   1.168
15343W        W83561   2.781  31.299  11.412
15344W        W83562  39.983  28.271   2.591
15345W        W83563  18.327  22.738  12.967
15346W        W83564  43.249  34.181  11.531
15347W        W83565   8.258  33.002  12.579
15348W        W83566   8.743  23.242   4.288
15349W        W83567  20.540  23.130   2.685
15350W        W83568  17.633   7.275   1.884
15351W        W83569  43.453  32.365   2.168
15352W        W83570   8.471  16.199  14.797
15353W        W83571  12.133  42.588   2.344
15354W        W83572  44.266  18.243  11.575
15355W        W83573  29.927  16.780  13.427
15356W        W83574  26.650  12.289  12.581
15357W        W83575  10.731  37.427   1.468
15358W        W83576   9.257  33.166   3.133
15359W        W83577   1.449   0.512   3.788
15360W        W83578  22.200   2.404   3.557
15361W        W83579   4.659   5.514   1.885
15362W        W83580   7.471  41.204  13.825
15363W        W83581  37.444  42.276   0.092
15364W        W83582  32.429   6.773   0.565
15365W        W83583  39.938  19.061  11.970
15366W        W83584  21.597  44.221  14.350
15367W        W83585  19.803   7.849   3.269
15368W        W83586  41.425  18.506  14.993
15369W        W83587  37.612  13.709   1.923
15370W        W83588   8.544   3.484   4.929
15371W        W83589   3.675  40.942  13.885
15372W        W83590  18.760  13.136   3.227
15373W        W83591   4.838  34.524   4.555
15374W        W83592   7.292  24.111  11.113
15375W        W83593  35.372  13.529  11.550
15376W        W83594  30.192   0.871  12.051
15377W        W83595  35.239  18.211  11.070
15378W        W83596  29.756   8.687   2.993
15379W        W83597  43.778   6.775  10.751
15380W        W83598  41.483   2.421   1.700
15381W        W83599   1.381  26.609  11.438
15382W        W83600  25.256  26.799  12.406
15383W        W83601  24.682  10.774  12.974
15384W        W83602  39.387  24.716   2.693
15385W        W83603   2.689  18.166  13.855
15386W        W83604  24.462   7.405   3.275
15387W        W83605  19.202  39.473   3.872
15388W        W83606  31.063  38.622  13.576
15389W        W83607  19.034  22.122  14.298
15390W        W83608  31.934  44.307   4.160
15391W        W83609  40.066   0.231   0.402
15392W        W83610  12.858   4.934   4.233
15393W        W83611  31.719   0.932   2.248
15394W        W83612  10.143  31.733  14.488
15395W        W83613  24.027  30.028   0.150
15396W        W83614  21.307  41.525  12.076
15397W        W83615  43.699  44.313   0.809
15398W        W83616  17.639  33.518  10.347
15399W        W83617   0.231  10.413  13.531
15400W        W83618  41.776   4.357   2.309
15401W        W83619  14.691  13.361  13.096
15402W        W83620  16.513   4.914   4.623
15403W        W83621   6.495  15.634  11.065
15404W        W83622   2.722  38.734   1.799
15405W        W83623  12.625  38.999   3.174
15406W        W83624  13.242   9.144  11.779
15407W        W83625  38.885  15.151   3.323
15408W        W83626  19.112  36.624  13.877
15409W        W83627  29.128  29.542  10.889
15410W        W83628  13.860  17.760   1.139
15411W        W83629  17.194   4.721   0.284
15412W        W83630  13.676  25.227  12.061
15413W        W83631  36.098  32.089  14.933
15414W        W83632  29.723   9.726  12.565
15415W        W83633  39.792  15.875   3.920
15416W        W83634  34.894  36.976   1.909
15417W        W83635   7.409  25.689   3.675
15418W        W83636  20.519  16.283  10.748
15419W        W83637  40.285  34.359  14.667
15420W        W83638  31.723   8.107  12.579
15421W        W83639  41.435  22.641  14.429
15422W        W83640   3.944  13.050   4.201
15423W        W83641   9.676   1.700  10.685
15424W        W83642  43.921  24.222   1.473
15425W        W83643  27.961  14.801   3.601
15426W        W83644  19.940   8.623  10.730
15427W        W83645  35.720  30.888  12.715
15428W        W83646  27.435  34.952  12.311
15429W        W83647  18.207  41.106  14.496
15430W        W83648  38.348   1.912  13.491
15431W        W83649  16.547  42.420   2.374
15432W        W83650  40.293   0.854   2.177
15433W        W83651  10.221   3.281   1.853
15434W        W83652  26.545   0.411   9.789
15435W        W83653  44.873  25.316   3.528
15436W        W83654   2.489   0.543  12.941
15437W        W83655  18.818  21.207  14.020
15438W        W83656   6.809   5.169  14.465
15439W        W83657  15.073   9.063  14.886
15440W        W83658  42.252  14.278   2.106
15441W        W83659   0.396  27.904  11.981
15442W        W83660  39.938   6.195   4.751
15443W        W83661  23.102  29.963  14.223
15444W        W83662  24.687   5.453   0.712
15445W        W83663   3.940  27.159  10.624
15446W        W83664   9.132  44.167  14.753
15447W        W83665   8.285  16.630   0.839
15448W        W83666  20.891  43.997   1.199
15449W        W83667   9.361  26.592   4.595
15450W        W83668  14.929  11.749   0.310
15451W        W83669  34.363  19.602  12.384
15452W        W83670  30.095   8.848  11.282
15453W        W83671  26.934   3.559   2.463
15454W        W83672  20.387  15.377  12.353
15455W        W83673  31.126  32.499   1.323
15456W        W83674  36.278  22.591   2.155
15457W        W83675  44.059   3.329  10.747
15458W        W83676  30.632  25.590  11.624
15459W        W83677  26.534  12.047   1.014
15460W        W83678  34.293  28.180   2.305
15461W        W83679  12.717  21.138   1.015
15462W        W83680   2.897  30.568   3.053
15463W        W83681  13.489  26.725  14.403
15464W        W83682  14.320  42.944   4.863
15465W        W83683  29.555  43.947   0.060
15466W        W83684  41.452   3.333  13.837
15467W        W83685  44.610   0.159  12.964
15468W        W83686  43.465   3.154  11.535
15469W        W83687   7.225  23.953   4.475
15470W        W83688  43.394  29.287   1.364
15471W        W83689  35.592  25.859   4.709
15472W        W83690  28.614   3.321  14.823
15473W        W83691  16.843   8.289   3.657
15474W        W83692  22.589   1.835   0.027
15475W        W83693  12.728  27.893   2.731
15476W        W83694   7.722  30.401  12.516
15477W        W83695  35.036  33.437  13.074
15478W        W83696  17.979  11.306  10.737
15479W        W83697  14.746  29.911  12.582
15480W        W83698  20.840   7.262   0.907
15481W        W83699  30.992  43.326  11.457
15482W        W83700  23.697  42.479  11.496
15483W        W83701   2.008  41.045  12.095
15484W        W83702  33.571  19.021   2.890
15485W        W83703  14.984   2.817   1.701
15486W        W83704  12.386   4.458  14.248
15487W        W83705  41.516  44.454  13.058
15488W        W83706  10.051   6.682  13.332
15489W        W83707  18.684  28.234   1.866
15490W        W83708  24.316  34.671   2.408
15491W        W83709   2.944  33.115   1.725
15492W        W83710  19.618  25.292  13.863
15493W        W83711   4.381   0.502   3.411
15494W        W83712  11.823  38.775   1.963
15495W        W83713  23.005  43.472  14.379
15496W        W83714  25.966  32.935  13.334
15497W        W83715  42.993  10.194   0.274
15498W        W83716   9.746  11.662   4.079
15499W        W83717  21.796  15.073  12.382
15500W        W83718  24.750   2.453  13.971
15501W        W83719  13.695  21.554  14.499
15502W        W83720  17.283  13.455  11.459
15503W        W83721  35.829   9.313   5.032
15504W        W83722  17.901  20.260  14.034
15505W        W83723  29.998  41.268   1.737
15506W        W83724  31.958  25.420   3.360
15507W        W83725  20.833  14.085   0.999
15508W        W83726   0.059  22.521   1.207
15509W        W83727  23.176  10.970  12.844
15510W        W83728  26.643  14.806   4.501
15511W        W83729   4.008  27.434  11.046
15512W        W83730   2.237  41.201  12.951
15513W        W83731   7.605  26.552  11.937
15514W        W83732  40.041  33.886  14.095
15515W        W83733  43.323  39.379  11.876
15516W        W83734   5.521  31.516   5.064
15517W        W83735  27.033  17.873   2.154
15518W        W83736   8.148  18.357   4.899
15519W        W83737  25.385   2.239  11.295
15520W        W83738  26.291   5.684  13.285
15521W        W83739   9.147   3.317  13.702
15522W        W83740  43.263  19.228   4.989
15523W        W83741  28.595  23.470  14.107
15524W        W83742   4.640  37.427  14.787
15525W        W83743  41.478  36.390   3.181
15526W        W83744  20.085  37.472   2.807
15527W        W83745   0.474  36.492   3.200
15528W        W83746  36.359  25.913  12.435
15529W        W83747  13.673  13.756   3.713
15530W        W83748  26.681   7.463  11.079
15531W        W83749   1.668  20.270   2.772
15532W        W83750  19.604   8.965   0.736
15533W        W83751  18.149   6.555  11.608
15534W        W83752  43.877  35.573   1.826
15535W        W83753  29.958   2.861  13.897
15536W        W83754  34.171  35.124   2.871
15537W        W83755  33.080  41.276  12.891
15538W        W83756  21.068   4.204  11.804
15539W        W83757  25.979   9.768  10.629
15540W        W83758  33.371  40.039   4.863
15541W        W83759  29.402  20.809   0.941
15542W        W83760  34.888  10.936   1.367
15543W        W83761  39.452  23.510   3.566
15544W        W83762  23.578  43.774  11.267
15545W        W83763  44.933  13.841   4.662
15546W        W83764   1.681   2.336  11.191
15547W        W83765   2.808  24.488  10.459
15548W        W83766  37.887  39.878   0.429
15549W        W83767  15.219  23.508  11.056
15550W        W83768  12.076  19.648   2.780
15551W        W83769   7.416  29.875   1.771
15552W        W83770  44.752  16.705  13.708
15553W        W83771  16.069  43.874   1.774
15554W        W83772  15.962  20.684  13.791
15555W        W83773   9.497  11.309  13.317
15556W        W83774   4.418  31.855   0.877
15557W        W83775  27.463  21.595   2.878
15558W        W83776  16.065  38.955  12.735
15559W        W83777   1.889  26.553   0.998
15560W        W83778   7.304  41.445   3.149
15561W        W83779  39.935  42.353   3.614
15562W        W83780   8.214   8.803  10.603
15563W        W83781   8.804  14.668  10.953
15564W        W83782  21.165  19.843   0.302
15565W        W83783  37.136  34.572  11.877
15566W        W83784   2.668   7.867   3.206
15567W        W83785  31.713  28.042  11.567
15568W        W83786  43.879  43.502  12.220
15569W        W83787  13.119  26.210   3.283
15570W        W83788   2.771  25.121   1.191
15571W        W83789   3.243  33.769  11.026
15572W        W83790   2.336  27.808   0.420
15573W        W83791  15.321  28.683  13.834
15574W        W83792  19.560  42.507  11.599
15575W        W83793  37.082  41.203  10.946
15576W        W83794  14.743  27.000   2.245
15577W        W83795  21.752  15.986   2.302
15578W        W83796  44.128  26.708   9.949
15579W        W83797  37.909  34.531   0.293
15580W        W83798  22.216   8.881   0.727
15581W        W83799  40.270  11.743   0.998
15582W        W83800  23.009  41.404   0.732
15583W        W83801  19.438  12.818   1.344
15584W        W83802  10.249  37.026   1.662
15585W        W83803  19.301  20.934   5.035
15586W        W83804  35.881   5.179  13.059
15587W        W83805  10.394  11.997  10.741
15588W        W83806  20.505  10.267   3.207
15589W        W83807  32.855  28.695   0.750
15590W        W83808  29.268   9.808   3.732
15591W        W83809  18.156  16.977  13.939
15592W        W83810  44.515  41.966  13.012
15593W        W83811   6.153  19.075   1.862
15594W        W83812   0.701  15.237  14.358
15595W        W83813  25.635  40.932   3.595
15596W        W83814  13.628  39.835  11.875
15597W        W83815   1.365   9.296   3.207
15598W        W83816   3.677  34.638   1.345
15599W        W83817  24.325  30.934  12.046
15600W        W83818  34.348   7.914   2.689
15601W        W83819  28.467  38.305   0.058
15602W        W83820  27.682  18.873  12.532
15603W        W83821  18.184  26.025   2.773
15604W        W83822  24.969  22.001   0.348
15605W        W83823  25.194  36.998   0.755
15606W        W83824  25.547  14.781   3.586
15607W        W83825  20.205  36.107   0.317
15608W        W83826  35.376  27.968  11.889
15609W        W83827  34.506  41.821  14.940
15610W        W83828   6.403  13.170  10.594
15611W        W83829  11.136  33.492  11.182
15612W        W83830   0.979  42.883  11.255
15613W        W83831  24.255  13.085   0.309
15614W        W83832  24.637  37.882  14.245
15615W        W83833   0.573  40.019   3.750
15616W        W83834  19.566  14.831   4.615
15617W        W83835  23.587  33.658   4.212
15618W        W83836  19.759  25.624   2.215
15619W        W83837   5.721  40.491   0.765
15620W        W83838  35.273  27.513  12.065
15621W        W83839   2.317   4.923   1.718
15622W        W83840  16.149  27.697  10.972
15623W        W83841  35.410  16.038  10.645
15624W        W83842  26.008  33.551   3.307
15625W        W83843  39.570  21.132  14.520
15626W        W83844  42.529  24.920   1.220
15627W        W83845  25.399  26.067  11.978
15628W        W83846   1.305   1.172   2.142
15629W        W83847  27.669  29.864  13.152
15630W        W83848  10.603  11.039   3.299
15631W        W83849   6.801  38.454  13.736
15632W        W83850  11.794  14.332  13.220
15633W        W83851   7.398  14.127   2.270
15634W        W83852   3.874  34.439  11.128
15635W        W83853   4.244  25.134  11.903
15636W        W83854   9.332  14.068  13.416
15637W        W83855  12.622  33.028  10.653
15638W        W83856   7.651  34.347  11.326
15639W        W83857  26.754  12.724   3.250
15640W        W83858  12.853  11.716  12.378
15641W        W83859   4.551   5.027  12.212
15642W        W83860  12.348  44.397  14.441
15643W        W83861  13.101   5.445  14.365
15644W        W83862  39.856  38.787   0.509
15645W        W83863  12.611   3.880   3.446
15646W        W83864   7.331  25.517  10.694
15647W        W83865  42.904  14.265  11.340
15648W        W83866  41.568  34.003   3.690
15649W        W83867  18.989  18.125   4.840
15650W        W83868  20.633   7.943  10.856
15651W        W83869  33.087  44.863   3.102
15652W        W83870  37.898  25.158  11.046
15653W        W83871  21.917  27.697  14.242
15654W        W83872  36.689  43.070  13.365
15655W        W83873  24.504  23.755   2.060
15656W        W83874  35.231  39.525   3.700
15657W        W83875  10.775   1.770   4.509
15658W        W83876   7.769   3.518   0.808
15659W        W83877  36.019  31.812   2.402
15660W        W83878  26.479  43.910  10.012
15661W        W83879   5.539   1.682   2.350
15662W        W83880   3.178  18.270   2.125
15663W        W83881  44.620  44.919  14.506
15664W        W83882  10.210  34.612  12.994
15665W        W83883  30.395  10.795  12.924
15666W        W83884   8.880   0.027   2.104
15667W        W83885  29.020   0.992   1.939
15668W        W83886   9.748   6.308  12.636
15669W        W83887  41.615   0.496   4.140
15670W        W83888  30.179  34.361  11.347
15671W        W83889  11.215  16.096   3.177
15672W        W83890  23.262   2.405   0.355
15673W        W83891  19.615  27.716  13.431
15674W        W83892  35.906  33.582   3.108
15675W        W83893   8.849   8.641   1.900
15676W        W83894  35.435  28.705   1.256
15677W        W83895  37.348  17.540  13.518
15678W        W83896  36.557  41.955   4.058
15679W        W83897  44.214   0.575   4.920
15680W        W83898  41.825  22.627   3.875
15681W        W83899  43.672   1.733   0.099
15682W        W83900  27.763  13.639  11.878
15683W        W83901  17.546  25.715   4.726
15684W        W83902  14.648  12.481  11.206
15685W        W83903   3.153  17.078  14.814
15686W        W83904  35.968  36.282   0.268
15687W        W83905  30.499  42.572  10.712
15688W        W83906   4.643  16.320  14.378
15689W        W83907  27.718   9.727   4.611
15690W        W83908  15.056   5.921  10.575
15691W        W83909  38.320  40.113   0.286
15692W        W83910  10.423  39.844  14.997
15693W        W83911   6.147  31.489  11.634
15694W        W83912  23.430   2.697   0.754
15695W        W83913   4.198  44.433   9.857
15696W        W83914  16.103  38.543   4.281
15697W        W83915  17.238  26.813   2.455
15698W        W83916  15.975  44.819   1.760
15699W        W83917  16.162  33.206   3.096
15700W        W83918  38.594   3.679   3.191
15701W        W83919  11.152  22.586   3.187
15702W        W83920  12.221  36.411  14.554
15703W        W83921  18.214   2.832  12.067
15704W        W83922  32.116  31.236   0.786
15705W        W83923  31.953  13.078   0.370
15706W        W83924  27.923   2.785  10.621
15707W        W83925  12.705  21.926  13.182
15708W        W83926  33.117  10.179   1.812
15709W        W83927  27.042  14.137  12.137
15710W        W83928  22.011  24.128   1.766
15711W        W83929  26.348  14.120   4.929
15712W        W83930   6.201   1.891  13.064
15713W        W83931  25.279   8.915  11.191
15714W        W83932  33.450   7.660   1.358
15715W        W83933  42.857  15.517  11.970
15716W        W83934  38.980  35.872  13.467
15717W        W83935  19.039  40.870  11.971
15718W        W83936   0.924   8.447  14.870
15719W        W83937   2.383  15.840  10.631
15720W        W83938  22.264  21.937   1.758
15721W        W83939  37.418   5.366  11.097
15722W        W83940  43.295  43.854   2.305
15723W        W83941  37.643  37.556  14.789
15724W        W83942  22.518  16.824   1.079
15725W        W83943  39.541   0.313   0.010
15726W        W83944  22.300  10.525   0.436
15727W        W83945  42.393  38.941   2.093
15728W        W83946   1.482  12.988   0.638
15729W        W83947  33.875  40.158  13.409
15730W        W83948   0.835  28.448   2.803
15731W        W83949   1.209  39.452   0.355
15732W        W83950   5.341  22.178   4.197
15733W        W83951   1.685  21.558  12.926
15734W        W83952  13.650  18.189   1.870
15735W        W83953  13.793  30.155   2.868
15736W        W83954  20.851  28.173   2.657
15737W        W83955  32.475  29.921   0.876
15738W        W83956  13.626   1.331  12.605
15739W        W83957  41.185  28.021   1.262
15740W        W83958  31.477  17.782  10.541
15741W        W83959  24.521   7.310  12.393
15742W        W83960   8.269  34.422   0.051
15743W        W83961  23.204  16.666  11.947
15744W        W83962  35.216  40.171  11.684
15745W        W83963  31.858   1.821   2.293
15746W        W83964  26.057   1.654  10.480
15747W        W83965  14.698   5.186   4.613
15748W        W83966  41.817   4.155   0.764
15749W        W83967  19.563  36.416  11.162
15750W        W83968  25.033   0.108  14.740
15751W        W83969  26.553  31.106  13.885
15752W        W83970   1.124   4.725   5.038
15753W        W83971  43.775  33.261  12.415
15754W        W83972  25.945  19.589   3.278
15755W        W83973  14.186  11.684  13.414
15756W        W83974  44.945   9.658  11.421
15757W        W83975   6.391  35.159  14.360
15758W        W83976  13.551  35.885  11.042
15759W        W83977   4.323  20.778  10.835
15760W        W83978  11.726  16.732   1.185
15761W        W83979   5.816  13.065   2.432
15762W        W83980  19.090  16.052   3.572
15763W        W83981  22.229  44.239   2.291
15764W        W83982  21.300   3.214  10.990
15765W        W83983  14.757  36.020  13.017
15766W        W83984   3.909  40.912   9.502
15767W        W83985  33.416  40.815   1.829
15768W        W83986  31.588  13.301   0.086
15769W        W83987  23.520  28.514  13.152
15770W        W83988  30.410  32.839   4.499
15771W        W83989  27.313  39.838   2.658
15772W        W83990  42.538  37.614  13.022
15773W        W83991  27.899  40.265   2.777
15774W        W83992  34.394  36.368  10.889
15775W        W83993   7.359  20.107   0.716
15776W        W83994   8.425  21.252  12.947
15777W        W83995  17.758  31.995  11.342
15778W        W83996  37.810  15.804  14.083
15779W        W83997   5.428  16.486  14.926
15780W        W83998  28.140  28.626   2.889
15781W        W83999  33.528  11.282  10.756
15782W        W84000   8.247  33.222   1.829
15783W        W84001   4.882  32.333  11.479
15784W        W84002   9.837   5.741   0.301
15785W        W84003  20.132  35.142   3.376
15786W        W84004  40.116  17.812  10.794
15787W        W84005   0.802  22.605  10.686
15788W        W84006   0.826  13.123   0.379
15789W        W84007  18.751  28.771   1.934
15790W        W84008   7.751  39.421  10.504
15791W        W84009   2.447   6.286   2.296
15792W        W84010  28.469   9.426  12.202
15793W        W84011  22.473  40.571  11.586
15794W        W84012  16.257   0.263   1.795
15795W        W84013  44.603   8.854  13.939
15796W        W84014  40.394  38.653   3.733
15797W        W84015   0.276  34.109  14.045
15798W        W84016  26.077  29.363  11.643
15799W        W84017  34.174  28.083  12.543
15800W        W84018  35.093  40.526   3.662
15801W        W84019   4.004  32.536   2.180
15802W        W84020   9.583  23.298  12.928
15803W        W84021   3.714  30.686   3.655
15804W        W84022  41.941  38.539  12.186
15805W        W84023  44.920  27.977   0.517
15806W        W84024  44.269  15.809  12.015
15807W        W84025  31.635  31.963  13.589
15808W        W84026  31.891   1.716  14.882
15809W        W84027   2.722   2.993  14.957
15810W        W84028   8.184   6.423   0.956
15811W        W84029  27.100   0.561   0.576
15812W        W84030  41.985  28.039  14.711
15813W        W84031  35.262  31.020  12.542
15814W        W84032  27.299  17.134   0.636
15815W        W84033  44.365  44.683  11.651
15816W        W84034  18.836  44.549  11.462
15817W        W84035  16.244   2.278  10.866
15818W        W84036  17.410   9.997  10.339
15819W        W84037  39.226   3.145   0.828
15820W        W84038  32.369   4.282  12.026
15821W        W84039  26.613  13.890  12.309
15822W        W84040  44.289  12.542  10.101
15823W        W84041  13.457   6.439   1.158
15824W        W84042   6.683  10.643  12.506
15825W        W84043  44.254  15.746   0.567
15826W        W84044  33.519  41.377   2.735
15827W        W84045  24.564  10.565   2.171
15828W        W84046   6.269  29.289  13.039
15829W        W84047  30.427   5.824  12.975
15830W        W84048  38.779   1.350   1.816
15831W        W84049  41.035  16.645  13.696
15832W        W84050  16.720   7.904   0.027
15833W        W84051   2.535  13.682   3.436
15834W        W84052  25.063  18.053   4.732
15835W        W84053  42.446   6.806   2.367
15836W        W84054  18.810  10.650  11.595
15837W        W84055  10.404  32.977  13.787
15838W        W84056   6.985  27.715   2.168
15839W        W84057   6.324   7.367   3.222
15840W        W84058   6.899  43.598   3.782
15841W        W84059  23.775  21.069  10.757
15842W        W84060  42.358   1.292  11.013
15843W        W84061  37.487  15.903  12.086
15844W        W84062  25.927   3.462   4.678
15845W        W84063   6.668  25.036   4.586
15846W        W84064  10.444  33.758  11.262
15847W        W84065  43.434   6.689   3.412
15848W        W84066  36.945  31.573  11.225
15849W        W84067  40.577  12.901   0.692
15850W        W84068   2.374  29.544   4.943
15851W        W84069  10.904  44.343   0.124
15852W        W84070  34.371  11.326  12.595
15853W        W84071   3.641  25.586  12.485
15854W        W84072  43.254  37.367   2.811
15855W        W84073  22.155  31.117  13.829
15856W        W84074  38.671  35.686   4.094
15857W        W84075  20.953  13.534   3.216
15858W        W84076  27.380  21.002  12.999
15859W        W84077  43.843   0.988  13.527
15860W        W84078  31.958  16.105  11.883
15861W        W84079  11.226   7.901  13.639
15862W        W84080   5.744  12.705   0.910
15863W        W84081  34.557  43.493  11.232
15864W        W84082   2.126  42.523   3.480
15865W        W84083   2.022  40.284  13.612
15866W        W84084  43.636   9.663  12.565
15867W        W84085   9.730  36.819  13.443
15868W        W84086   6.151  27.283   2.751
15869W        W84087  36.094   7.183  13.049
15870W        W84088  20.741  44.056   4.469
15871W        W84089  21.561  27.420   2.643
15872W        W84090  27.612  39.009   0.752
15873W        W84091  12.895  18.527  13.209
15874W        W84092  30.652  20.035   4.701
15875W        W84093  27.026  24.903  14.881
15876W        W84094  44.393  41.968  13.910
15877W        W84095  35.131  43.367  11.336
15878W        W84096  16.529   0.776  11.464
15879W        W84097  14.666  17.620  13.920
15880W        W84098  33.168   2.530   2.867
15881W        W84099  32.916   5.301  12.954
15882W        W84100  40.512  16.373   0.425
15883W        W84101  12.054  26.376  12.062
15884W        W84102   6.414  39.933   2.276
15885W        W84103  15.391   4.445   0.380
15886W        W84104  38.126  38.921  11.120
15887W        W84105   4.854  30.016   0.360
15888W        W84106  39.310  28.729  12.760
15889W        W84107   4.282  44.811   0.534
15890W        W84108  15.506  30.128   0.317
15891W        W84109  15.770   1.870  12.607
15892W        W84110  42.546  38.888   3.851
15893W        W84111  29.404  36.731   0.941
15894W        W84112  14.846  12.272  13.264
15895W        W84113  44.179  36.808  12.491
15896W        W84114  11.012  16.904   2.072
15897W        W84115  12.680  23.255   4.545
15898W        W84116   5.025  33.502   2.192
15899W        W84117  21.749  21.516  13.341
15900W        W84118  32.243   2.951   3.112
15901W        W84119   8.790  41.356  12.505
15902W        W84120  43.950  31.687   2.810
15903W        W84121  30.386  15.834  11.181
15904W        W84122   7.342   3.159   0.018
15905W        W84123  38.560   3.974  13.280
15906W        W84124  13.281  27.046   4.438
15907W        W84125  28.357  37.284  13.069
15908W        W84126   8.747  38.503  11.217
15909W        W84127  12.972  39.400  10.790
15910W        W84128  38.557  38.515  13.406
15911W        W84129  13.374  21.282   2.766
15912W        W84130  24.192  33.977  13.117
15913W        W84131  44.229  25.712  14.561
15914W        W84132   1.148   3.848  12.970
15915W        W84133  43.055   3.870   4.601
15916W        W84134  44.430  16.611   2.198
15917W        W84135  23.133  25.706  14.306
15918W        W84136  19.753   1.017  14.985
15919W        W84137   2.216  39.587   1.788
15920W        W84138  21.161  42.296  11.630
15921W        W84139  33.010  17.359  14.008
15922W        W84140  20.134  21.666   0.057
15923W        W84141  34.974  39.087  14.839
15924W        W84142   3.889   1.921  13.425
15925W        W84143  27.478   1.173  12.605
15926W        W84144  18.026  12.533  10.309
15927W        W84145  32.737  15.071   3.676
15928W        W84146  27.477  21.080   4.587
15929W        W84147   1.214  42.653   2.404
15930W        W84148  16.117  24.616   2.160
15931W        W84149  30.066  25.097  13.570
15932W        W84150  35.880  42.491   2.733
15933W        W84151  35.474   9.864   3.967
15934W        W84152   6.979  43.697   5.587
15935W        W84153  32.614  21.083   3.358
15936W        W84154  33.598  14.115   1.223
15937W        W84155  36.070  33.843  11.697
15938W        W84156  35.434  13.714   2.871
15939W        W84157  27.705  18.305  14.768
15940W        W84158  25.254  26.560  11.063
15941W        W84159  18.223   4.984   4.495
15942W        W84160  36.821   0.428   4.165
15943W        W84161  32.877   1.934  11.978
15944W        W84162  38.706   7.052   1.850
15945W        W84163  17.592  41.460   3.298
15946W        W84164  27.059   2.731   4.873
15947W        W84165  29.097  18.894   0.277
15948W        W84166   6.241  12.062  11.258
15949W        W84167  27.693  24.103   1.404
15950W        W84168  29.107   6.726   4.246
15951W        W84169  34.600  44.949  14.978
15952W        W84170   2.976   2.201  12.490
15953W        W84171  41.096  33.931   4.600
15954W        W84172  26.485  15.718  11.052
15955W        W84173  26.518   3.342   2.706
15956W        W84174  37.111  31.469  14.519
15957W        W84175  20.188  14.337  10.321
15958W        W84176  34.850   6.690  14.432
15959W        W84177  29.575   2.972  10.258
15960W        W84178  15.079  27.206  14.005
15961W        W84179  15.190   1.496   2.776
15962W        W84180  31.868  28.830  12.542
15963W        W84181  27.473  20.194  14.021
15964W        W84182  44.748  27.488  10.829
15965W        W84183  32.462  25.979   2.754
15966W        W84184   8.151  14.315   1.797
15967W        W84185  19.682  27.989  11.525
15968W        W84186  13.604  24.451   3.648
15969W        W84187   3.897   7.025  13.706
15970W        W84188  36.306  42.299  13.990
15971W        W84189  16.758  36.957   3.115
15972W        W84190  43.392  18.025   2.844
15973W        W84191  13.107  13.678  10.796
15974W        W84192   4.494  30.042   4.108
15975W        W84193  27.837  31.925  12.343
15976W        W84194  30.477  44.293   3.191
15977W        W84195  43.564  29.731   2.203
15978W        W84196   8.909  31.744  10.914
15979W        W84197  24.068  11.873   3.189
15980W        W84198   4.576  32.110   0.419
15981W        W84199  43.568   8.744   2.016
15982W        W84200  30.698   3.199   2.727
15983W        W84201  13.522  10.818  11.979
15984W        W84202  37.169  21.750   1.836
15985W        W84203  39.937  23.233  13.485
15986W        W84204  41.465  22.239   3.177
15987W        W84205  23.605  13.121  14.736
15988W        W84206  23.677  18.564  14.469
15989W        W84207  15.774   4.982  11.055
15990W        W84208   0.892  24.966   4.607
15991W        W84209  27.040  31.765  14.277
15992W        W84210  14.803  13.105   4.121
15993W        W84211   0.297  43.456   0.374
15994W        W84212  30.552   0.515   3.779
15995W        W84213  28.149   6.479   2.849
15996W        W84214  17.302  26.629  13.061
15997W        W84215  38.368  44.083   2.381
15998W        W84216  30.223  44.969  11.532
15999W        W84217  27.602  13.700  13.056
16000W        W84218  19.732  10.586   4.204
16001W        W84219  37.271  13.076   4.073
16002W        W84220  17.880  13.212  12.020
16003W        W84221  19.719  23.380   1.864
16004W        W84222  28.344  19.503  10.617
16005W        W84223  42.534   8.071  11.803
16006W        W84224  13.432   8.795  11.438
16007W        W84225   8.685  12.916  10.786
16008W        W84226  25.542  43.319   0.485
16009W        W84227  35.446  44.588   1.353
16010W        W84228  40.746   4.185  10.896
16011W        W84229  38.977   8.842  11.485
16012W        W84230  22.113   5.229   2.852
16013W        W84231  11.779  28.449  10.662
16014W        W84232  29.976  29.079  13.426
16015W        W84233  14.612  12.280  12.823
16016W        W84234  37.890  28.175   1.403
16017W        W84235  27.509  11.184  11.595
16018W        W84236  42.896  34.616   1.449
16019W        W84237  17.638   7.319  12.959
16020W        W84238  21.127  22.769  10.609
16021W        W84239  32.061  15.188  11.191
16022W        W84240  11.647   6.142  13.765
16023W        W84241  18.311  15.192  11.157
16024W        W84242  36.111  41.530  11.510
16025W        W84243  15.330   0.013  11.925
16026W        W84244  33.149  30.688  10.568
16027W        W84245  19.700  38.952  10.681
16028W        W84246   2.966  10.326  14.864
16029W        W84247  44.637  14.172  12.122
16030W        W84248  30.561   7.268  12.646
16031W        W84249   9.504  11.401   0.829
16032W        W84250  21.532  43.293  10.937
16033W        W84251  30.417  35.485  11.997
16034W        W84252  20.558  19.206   1.791
16035W        W84253  27.481   7.822   3.902
16036W        W84254   0.426   2.481  14.796
16037W        W84255  33.922   7.982  12.905
16038W        W84256   3.414   1.386   0.307
16039W        W84257   3.792   8.447  12.912
16040W        W84258   5.231  35.636  11.560
16041W        W84259  39.583  39.130   3.701
16042W        W84260  29.621  12.688  14.872
16043W        W84261  29.741  40.974  13.375
16044W        W84262  14.347  40.566   1.721
16045W        W84263  35.836   8.547  11.162
16046W        W84264  38.490  30.079   3.578
16047W        W84265  35.993  44.942  11.656
16048W        W84266  25.467  39.550   3.181
16049W        W84267  11.644   6.332  10.657
16050W        W84268   9.476  44.136  11.088
16051W        W84269  23.427  37.114  12.454
16052W        W84270  39.556   3.934  12.096
16053W        W84271  33.803  42.989   1.311
16054W        W84272   3.444  27.015  12.888
16055W        W84273  17.506  19.513  11.429
16056W        W84274   3.444   0.302   1.784
16057W        W84275  31.111  31.732   0.873
16058W        W84276   0.469   9.275  13.774
16059W        W84277  12.703  18.623  13.664
16060W        W84278  35.530  36.917  11.854
16061W        W84279  20.821  29.431   0.203
16062W        W84280  35.556   4.953   2.385
16063W        W84281   1.637  40.947   2.661
16064W        W84282   6.485  19.241   0.067
16065W        W84283  44.320  25.022   9.985
16066W        W84284  11.797  18.632  10.899
16067W        W84285  33.612  20.554   3.661
16068W        W84286  28.468   6.451   1.221
16069W        W84287  32.231   4.100   4.089
16070W        W84288  24.430  23.578  14.926
16071W        W84289  42.291  35.839  11.547
16072W        W84290  40.378  24.081   2.981
16073W        W84291  10.114  43.927  11.592
16074W        W84292  28.477  39.493  13.409
16075W        W84293  31.383  35.860  11.264
16076W        W84294  20.017  28.569  12.598
16077W        W84295  24.970  36.945   4.167
16078W        W84296  17.299  39.002  13.395
16079W        W84297   6.331  19.750   3.273
16080W        W84298   2.401   1.188   3.266
16081W        W84299  15.098  30.390   4.015
16082W        W84300  11.683  40.742   1.846
16083W        W84301   0.734   7.276   5.017
16084W        W84302   6.290  17.812  11.091
16085W        W84303  41.391  22.479  11.176
16086W        W84304  21.559  25.590   1.609
16087W        W84305   1.211  39.982  13.961
16088W        W84306   0.936  22.470   3.802
16089W        W84307   4.700  35.069  14.354
16090W        W84308   8.406  15.828  11.638
16091W        W84309  24.456  22.223   1.931
16092W        W84310  11.074  33.602   1.543
16093W        W84311  37.471   8.739   3.558
16094W        W84312  10.314  15.196   0.739
16095W        W84313  10.888  16.576  11.250
16096W        W84314   6.313  29.071  12.561
16097W        W84315  26.461  18.928   3.940
16098W        W84316  15.287  25.705   2.344
16099W        W84317  25.716  18.876  12.429
16100W        W84318  10.221  22.956  14.260
16101W        W84319  39.488  11.107  12.481
16102W        W84320   4.225  17.683   1.815
16103W        W84321  34.165  36.071   1.971
16104W        W84322   5.375  13.418   4.123
16105W        W84323   4.648  42.557   0.950
16106W        W84324   9.967  27.434   4.568
16107W        W84325  33.570  10.725   4.193
16108W        W84326   5.408  32.587   1.242
16109W        W84327  35.371  44.823  14.561
16110W        W84328   7.227  11.567   3.193
16111W        W84329  38.530  11.680  11.563
16112W        W84330  25.864  12.783  14.290
16113W        W84331  37.347   6.839   2.889
16114W        W84332  20.984  15.947   4.592
16115W        W84333  19.122  41.523  12.394
16116W        W84334   1.549  35.410  12.532
16117W        W84335   2.000  32.380  12.049
16118W        W84336  42.354   4.038   2.384
16119W        W84337  37.942  11.011   1.146
16120W        W84338  30.086  44.907   2.835
16121W        W84339  11.130  24.955  14.085
16122W        W84340  18.614  30.910  11.649
16123W        W84341  33.448  37.571  14.121
16124W        W84342  16.685  29.964   4.681
16125W        W84343   2.704  39.786   1.766
16126W        W84344  37.835  17.615   3.937
16127W        W84345  33.088  39.877   3.285
16128W        W84346  34.116   7.801   3.138
16129W        W84347  30.129  39.466  10.968
16130W        W84348  27.822  42.616   2.888
16131W        W84349  19.967  35.664   0.066
16132W        W84350  37.970  30.561   2.746
16133W        W84351  10.591  24.042   2.678
16134W        W84352  33.499  39.574   3.226
16135W        W84353  43.487  38.822   4.221
16136W        W84354  32.842   5.350  12.082
16137W        W84355   1.232  31.951  12.461
16138W        W84356  17.764  24.242  14.251
16139W        W84357  43.663  30.514   0.109
16140W        W84358  20.318  11.208   2.410
16141W        W84359  41.515  42.260   2.852
16142W        W84360   7.820  41.836   2.876
16143W        W84361  32.606  44.515   4.795
16144W        W84362  25.740  30.654   4.728
16145W        W84363  10.154  35.781   0.087
16146W        W84364   7.780   4.655  13.644
16147W        W84365  38.800  14.751   4.128
16148W        W84366  26.956  30.544   0.014
16149W        W84367  19.424  43.537  12.934
16150W        W84368  20.290  42.812   3.160
16151W        W84369  25.964  17.019   3.665
16152W        W84370  22.788  19.582  14.693
16153W        W84371   0.896   1.795   4.656
16154W        W84372  44.890  33.374  13.869
16155W        W84373  12.642  37.591  13.681
16156W        W84374   9.563  24.034  10.698
16157W        W84375  29.943   2.659  10.606
16158W        W84376  14.380  17.675  11.552
16159W        W84377  33.445  24.107   2.657
16160W        W84378  23.418  39.496  13.880
16161W        W84379  17.056  31.985  12.927
16162W        W84380  30.673   9.124  11.574
16163W        W84381   9.283   4.394  11.132
16164W        W84382  18.290  19.514   4.140
16165W        W84383  20.785  39.729  12.967
16166W        W84384  27.319  21.532   4.784
16167W        W84385  24.660   8.252  13.818
16168W        W84386  10.179  22.245   2.468
16169W        W84387  31.699  20.012  12.591
16170W        W84388  29.214  35.926   0.018
16171W        W84389   5.763  15.324   4.639
16172W        W84390  43.236  25.892   4.902
16173W        W84391  25.418   8.814   0.267
16174W        W84392  19.194  29.426   1.176
16175W        W84393  20.384  21.130  12.506
16176W        W84394   6.979  35.007  13.080
16177W        W84395  35.336  18.065   2.408
16178W        W84396  10.321   0.719  12.497
16179W        W84397   4.298  14.704  11.588
16180W        W84398   8.408   0.858  10.969
16181W        W84399  37.560   9.145   3.205
16182W        W84400   4.730  25.961   3.741
16183W        W84401   9.358  30.223  11.031
16184W        W84402  29.209  36.779  12.981
16185W        W84403   0.706  27.237  11.192
16186W        W84404  35.941  19.080   0.820
16187W        W84405   6.811   8.475  12.587
16188W        W84406  34.880  27.693   0.506
16189W        W84407   7.658  44.009  12.379
16190W        W84408  38.292  39.433  14.599
16191W        W84409  27.462   6.141   1.253
16192W        W84410  43.094  25.435  13.269
16193W        W84411   5.921  22.260   1.816
16194W        W84412  39.501  20.533  10.975
16195W        W84413   3.290  27.730   1.264
16196W        W84414  44.761  15.604  12.057
16197W        W84415   6.812  44.372  11.784
16198W        W84416  10.426  26.603  12.480
16199W        W84417  39.792  28.003  10.654
16200W        W84418  20.131  33.627  14.415
16201W        W84419  18.798  28.598  12.965
16202W        W84420  20.278   2.037   2.302
16203W        W84421   2.906  10.098   1.615
16204W        W84422  40.510  20.296  11.948
16205W        W84423   9.493  17.817   1.377
16206W        W84424   8.103  13.384   1.782
16207W        W84425  22.920  24.264   0.729
16208W        W84426  32.956  30.584  10.078
16209W        W84427  14.829   5.458   1.145
16210W        W84428  40.379  22.141   1.857
16211W        W84429  22.725   1.300   3.669
16212W        W84430   4.254  32.979   1.288
16213W        W84431  31.876   4.163   2.359
16214W        W84432  44.190  44.424   4.235
16215W        W84433  28.894  21.318   2.304
16216W        W84434   1.053  22.431  14.900
16217W        W84435  19.266  26.135   4.097
16218W        W84436  17.561  28.227   1.314
16219W        W84437  22.540   1.204   4.135
16220W        W84438  14.590   4.747  12.169
16221W        W84439  40.179  27.023   1.192
16222W        W84440  35.139  22.936   2.925
16223W        W84441  30.987  32.627  10.392
16224W        W84442  32.022  30.029   2.155
16225W        W84443  24.973  43.183   4.133
16226W        W84444  43.999   5.865   3.157
16227W        W84445   9.842  13.722   4.407
16228W        W84446  28.767  22.201   3.066
16229W        W84447  33.602  16.796   2.178
16230W        W84448  13.355   0.950  12.892
16231W        W84449  33.331  29.145   3.241
16232W        W84450  14.430  23.281  12.890
16233W        W84451   6.366  11.702  10.861
16234W        W84452  10.925  31.641  14.027
16235W        W84453  16.513  15.358   2.341
16236W        W84454  21.133  22.460   5.080
16237W        W84455  20.961  26.948  11.070
16238W        W84456  39.990  19.199   2.266
16239W        W84457   1.560  17.839  11.318
16240W        W84458  34.505  44.107   1.851
16241W        W84459  27.714  33.680   1.735
16242W        W84460  33.179  29.626  14.347
16243W        W84461  34.064   0.441  13.156
16244W        W84462  16.324  41.507  13.067
16245W        W84463  28.674  40.391   0.980
16246W        W84464  43.845  37.604  11.618
16247W        W84465  30.077  36.380  13.105
16248W        W84466  18.693  33.992   9.317
16249W        W84467  38.526   5.350   1.160
16250W        W84468   9.729  21.518   0.813
16251W        W84469  16.335  32.199   3.162
16252W        W84470  29.563  20.057   4.144
16253W        W84471   2.292  12.558  14.384
16254W        W84472  20.807  21.788   2.589
16255W        W84473  10.653  39.506   4.849
16256W        W84474  40.082   4.642   0.660
16257W        W84475  12.138  39.412  13.433
16258W        W84476   2.218  25.760   1.715
16259W        W84477   3.499  40.977   0.839
16260W        W84478  16.736   6.753  10.709
16261W        W84479  40.513  15.523   2.355
16262W        W84480  44.090   0.716  11.093
16263W        W84481  30.943  24.097   1.679
16264W        W84482  33.524  20.706  11.246
16265W        W84483   9.587  15.555   4.142
16266W        W84484  31.819  35.860   4.079
16267W        W84485  18.191  35.457   0.251
16268W        W84486  24.876  40.346   1.784
16269W        W84487   7.003  44.991   3.444
16270W        W84488  12.200   6.413   2.179
16271W        W84489  34.013   7.720  14.385
16272W        W84490  13.375   0.553  11.608
16273W        W84491  41.517   0.619   2.734
16274W        W84492   3.567   7.872  14.072
16275W        W84493  18.149  40.934   3.973
16276W        W84494  31.765  13.704   1.442
16277W        W84495  31.703  16.576  11.134
16278W        W84496  39.368   1.782  12.627
16279W        W84497  21.052  23.643   2.379
16280W        W84498  20.085   4.474  11.524
16281W        W84499   9.307   2.920   3.402
16282W        W84500  18.146  37.301   1.994
16283W        W84501  40.593  15.824  12.460
16284W        W84502  15.337  40.361  14.543
16285W        W84503  11.865  33.007   1.253
16286W        W84504  15.428  13.288   5.280
16287W        W84505  40.690  42.698   3.150
16288W        W84506   3.378  33.623  11.708
16289W        W84507  13.782   3.017  12.009
16290W        W84508   2.925  13.153   4.197
16291W        W84509   5.685  43.988   3.971
16292W        W84510  21.593   4.228   3.186
16293W        W84511  39.055  39.804  12.474
16294W        W84512  19.552  14.494  11.551
16295W        W84513   8.607   3.372  12.343
16296W        W84514  20.771  36.649  10.752
16297W        W84515  15.282   3.778   4.892
16298W        W84516   4.715  23.195   4.536
16299W        W84517  12.677   2.181   0.968
16300W        W84518  28.399  41.700   4.867
16301W        W84519  14.910  35.314  12.138
16302W        W84520   2.305  28.912   3.888
16303W        W84521  31.397  28.953   3.246
16304W        W84522  27.501  16.095   1.420
16305W        W84523  44.116  39.137  11.176
16306W        W84524   8.837  11.302  13.736
16307W        W84525   0.268   1.787  11.974
16308W        W84526   9.818  42.391  11.121
16309W        W84527   4.046   3.526   5.041
16310W        W84528  43.263  25.484  11.950
16311W        W84529  41.007  32.486   4.926
16312W        W84530  38.480  33.216  13.389
16313W        W84531  40.092   0.130  10.766
16314W        W84532  28.154  30.905  11.886
16315W        W84533  18.737  26.765   3.630
16316W        W84534   7.680  18.306   0.930
16317W        W84535  27.625  17.124   1.452
16318W        W84536  14.647  22.477  14.514
16319W        W84537   0.578  29.434   2.633
16320W        W84538  16.238   6.210   2.409
16321W        W84539  42.252  26.027  12.557
16322W        W84540  31.946  24.778  11.049
16323W        W84541  42.694  30.446  12.947
16324W        W84542  38.624  41.043  12.409
16325W        W84543  35.598  37.884  11.201
16326W        W84544  15.296  43.284   4.043
16327W        W84545  36.586  18.386  12.844
16328W        W84546   5.753  43.691  12.012
16329W        W84547  32.018  33.895  11.517
16330W        W84548   1.890  43.038   1.905
16331W        W84549   6.777  22.831  12.130
16332W        W84550  40.306  13.265  12.419
16333W        W84551  43.904  28.657  14.732
16334W        W84552   8.310  11.740   4.687
16335W        W84553  24.676  18.247  10.945
16336W        W84554  28.813  41.923  13.294
16337W        W84555   1.300  18.096   0.337
16338W        W84556  26.062  35.596   0.043
16339W        W84557  36.511   5.943  12.351
16340W        W84558  18.169  13.489   3.645
16341W        W84559  34.140   3.237   3.243
16342W        W84560  18.945  15.154   1.356
16343W        W84561  22.622  20.451  11.106
16344W        W84562   4.865  18.376  12.115
16345W        W84563   9.979   1.658  11.581
16346W        W84564  30.717  29.440  12.004
16347W        W84565  17.831   2.043  14.417
16348W        W84566  28.192  26.573  11.973
16349W        W84567  23.721   0.005   2.074
16350W        W84568  18.660  23.007  14.539
16351W        W84569  31.081  36.592  13.898
16352W        W84570  27.282  14.108  13.123
16353W        W84571  28.669  10.169  14.528
16354W        W84572  44.602  32.001   1.369
16355W        W84573  40.095   4.430  14.747
16356W        W84574  10.735  21.196  11.027
16357W        W84575   3.786  28.418   4.649
16358W        W84576   3.829   2.938  12.032
16359W        W84577  36.477   4.036  11.530
16360W        W84578  36.905  37.062  13.898
16361W        W84579  22.927  39.556  13.974
16362W        W84580  16.767  39.275  11.994
16363W        W84581  34.301  19.307   4.559
16364W        W84582  44.194  35.458   2.705
16365W        W84583  30.045  27.995  13.537
16366W        W84584  16.868  28.152  14.665
16367W        W84585   1.863  27.108  13.511
16368W        W84586  39.326  44.351   1.004
16369W        W84587   9.191  12.713  10.744
16370W        W84588  24.638  24.626   4.733
16371W        W84589  43.069  27.142  12.985
16372W        W84590  15.581  28.994  11.608
16373W        W84591   8.809  25.376   1.872
16374W        W84592   6.811  23.014   2.277
16375W        W84593  28.557   9.226  14.491
16376W        W84594  40.064  18.532  12.101
16377W        W84595  36.533  18.787  14.712
16378W        W84596  40.634   7.145  13.378
16379W        W84597   4.655  25.157  11.005
16380W        W84598   2.129  34.925   1.799
16381W        W84599   3.619  29.836  14.414
16382W        W84600  29.985   0.775   4.435
16383W        W84601  35.078   9.669  14.803
16384W        W84602  43.339  30.800  13.496
16385W        W84603  21.619  10.841   0.642
16386W        W84604  11.671  39.811  14.482
16387W        W84605  34.545  19.537  11.106
16388W        W84606  21.548  25.084   2.945
16389W        W84607  22.348   6.289  14.424
16390W        W84608  37.370  36.080  12.816
16391W        W84609   9.564  33.918   0.780
16392W        W84610   4.767  10.677  13.383
16393W        W84611  36.634  32.345  10.788
16394W        W84612  25.454  21.137   4.200
16395W        W84613  12.869   8.895  12.042
16396W        W84614  11.955   8.649  11.914
16397W        W84615  28.962   2.140   4.066
16398W        W84616  16.705  26.474   2.858
16399W        W84617  25.472  36.498  13.437
16400W        W84618  13.580  16.596  14.516
16401W        W84619   4.721  38.299   4.755
16402W        W84620  30.600   2.521  12.908
16403W        W84621  37.944  20.526   2.638
16404W        W84622  32.421   4.742  14.061
16405W        W84623  29.495  27.136   2.641
16406W        W84624  37.330  18.333  13.991
16407W        W84625  39.980   9.308  14.473
16408W        W84626  24.149   6.867  12.422
16409W        W84627  15.035  35.428   2.863
16410W        W84628  27.723  10.276   4.096
16411W        W84629  17.297  39.046   9.875
16412W        W84630  20.867  29.472   4.593
16413W        W84631  35.858  26.491  10.286
16414W        W84632  18.732   8.930   0.053
16415W        W84633  18.320  10.783  11.657
16416W        W84634  21.092  15.217  10.630
16417W        W84635  27.645  14.636   1.988
16418W        W84636  30.551   4.951  12.386
16419W        W84637  16.803   1.176  10.553
16420W        W84638  20.061  34.928   2.423
16421W        W84639  12.119   3.247  14.875
16422W        W84640  29.955   2.021   3.807
16423W        W84641  38.948  39.663  12.952
16424W        W84642  34.943   6.111   0.907
16425W        W84643  22.390  10.722   1.727
16426W        W84644  19.659  42.433  12.470
16427W        W84645   9.943  14.236   5.063
16428W        W84646   3.832   3.849  10.974
16429W        W84647  15.234  43.601  12.172
16430W        W84648   3.690   2.999   2.677
16431W        W84649   5.618  13.532   2.347
16432W        W84650  41.074  21.522   2.877
16433W        W84651  14.073  15.089   2.302
16434W        W84652  10.074  34.406   3.944
16435W        W84653  43.498   0.366   0.752
16436W        W84654   4.798  27.914  14.750
16437W        W84655  41.150  30.556  12.116
16438W        W84656  20.101  25.214   4.810
16439W        W84657  30.990  27.707   4.216
16440W        W84658  38.462  26.205  12.595
16441W        W84659  11.821   8.860  14.836
16442W        W84660  35.450  35.088  11.678
16443W        W84661   1.213  31.498   3.726
16444W        W84662   8.720  37.926  11.664
16445W        W84663   9.176  35.556   3.579
16446W        W84664   4.177   6.219   4.745
16447W        W84665  14.855  27.684   0.496
16448W        W84666  10.875  12.767  14.690
16449W        W84667  25.920  42.997  12.109
16450W        W84668  34.719  32.060   0.225
16451W        W84669  42.707  16.085  14.489
16452W        W84670  38.410   9.167  14.771
16453W        W84671  22.745  10.399  12.048
16454W        W84672  26.253  43.228   3.777
16455W        W84673   0.381  10.907  12.617
16456W        W84674  14.188  24.412  11.160
16457W        W84675   1.819  19.029   2.239
16458W        W84676  41.452  40.543  12.017
16459W        W84677  25.422  19.027   2.428
16460W        W84678  23.808   2.806   4.043
16461W        W84679  44.864  14.850   0.468
16462W        W84680   5.533  22.051  11.257
16463W        W84681  17.504   9.180   0.216
16464W        W84682  22.538  37.498  13.904
16465W        W84683  39.918  33.601   0.151
16466W        W84684   5.759   3.855  12.962
16467W        W84685  16.345  20.926   0.923
16468W        W84686  21.193  16.338  14.216
16469W        W84687  17.060   2.582  14.837
16470W        W84688  27.290  20.792  12.321
16471W        W84689  38.478   3.489  14.342
16472W        W84690   5.752  17.814   9.812
16473W        W84691   6.879  40.169   2.269
16474W        W84692  24.179  20.572  12.436
16475W        W84693  41.704  11.358   3.599
16476W        W84694  30.578   6.722   2.292
16477W        W84695  23.116  18.042  11.518
16478W        W84696  18.623  40.551   3.277
16479W        W84697  29.048   4.471  13.443
16480W        W84698  19.828  23.961  13.533
16481W        W84699  23.287   3.453  11.196
16482W        W84700  41.810  31.604   1.359
16483W        W84701  28.675   6.695  10.415
16484W        W84702  26.447   4.018  11.554
16485W        W84703  20.115  38.940   0.213
16486W        W84704   1.694  37.113   2.144
16487W        W84705  30.608  17.045   4.748
16488W        W84706  37.109  40.274   0.327
16489W        W84707  23.074  30.190   0.228
16490W        W84708  25.403  28.561  11.614
16491W        W84709  24.665  31.214  12.316
16492W        W84710  16.240  29.328  14.343
16493W        W84711  40.498  42.359  11.949
16494W        W84712  21.208  20.752   0.112
16495W        W84713  17.809  37.449   1.628
16496W        W84714  13.209  22.826  13.978
16497W        W84715  20.451  34.457   1.886
16498W        W84716  10.728  13.279   4.054
16499W        W84717  41.350  19.274   4.533
16500W        W84718  38.782  17.255  13.593
16501W        W84719  31.847  14.854  14.808
16502W        W84720  35.029  40.576  14.931
16503W        W84721  15.864  30.301   4.672
16504W        W84722  26.992  35.602   4.583
16505W        W84723  18.313  31.855   3.079
16506W        W84724  34.107   3.916   2.797
16507W        W84725   3.996  25.196   3.617
16508W        W84726  31.605  42.784   4.773
16509W        W84727  27.498  10.856  14.443
16510W        W84728  19.654   6.364   3.196
16511W        W84729  35.851  26.041  12.467
16512W        W84730  41.391  10.406   3.197
16513W        W84731  13.574  20.732   4.126
16514W        W84732   0.964  28.434  14.435
16515W        W84733  30.221  25.631  12.544
16516W        W84734  38.466  34.067  12.855
16517W        W84735   0.400   1.660   2.204
16518W        W84736  25.247  32.576   0.734
16519W        W84737  42.856  41.110   3.211
16520W        W84738  19.679  26.493   4.099
16521W        W84739  30.883  14.561   0.621
16522W        W84740  16.289  17.266   4.520
16523W        W84741  13.280  15.419   0.327
16524W        W84742  39.083   4.088   4.274
16525W        W84743  12.610   5.795  10.324
16526W        W84744  41.888  43.193   0.859
16527W        W84745  14.285  15.843   1.993
16528W        W84746  17.359  42.216  13.559
16529W        W84747  21.290  39.288   0.382
16530W        W84748  34.570  28.617   1.103
16531W        W84749  10.649  40.302  12.563
16532W        W84750   0.150  15.858  11.197
16533W        W84751   1.418  25.610  13.326
16534W        W84752  13.289  21.633   0.482
16535W        W84753   4.208  41.430  11.934
16536W        W84754  36.857  22.385  11.586
16537W        W84755   1.579  23.611   1.010
16538W        W84756   2.254   4.973  12.545
16539W        W84757  41.088  27.532  13.066
16540W        W84758  11.463  43.508  14.236
16541W        W84759  16.014  38.841   1.707
16542W        W84760  17.523  17.929   1.470
16543W        W84761  17.009  39.772   1.246
16544W        W84762   2.866  42.987  11.142
16545W        W84763  22.198   2.819  13.803
16546W        W84764  32.042  33.840  14.356
16547W        W84765   8.106  10.707   2.658
16548W        W84766  36.033   5.858  14.356
16549W        W84767   1.698  29.368  11.820
16550W        W84768  40.173  17.305  13.377
16551W        W84769  38.475   9.067  13.379
16552W        W84770  41.949   5.728  10.794
16553W        W84771   8.972  15.715  12.300
16554W        W84772  22.604  34.445  14.740
16555W        W84773  24.304  39.340  12.956
16556W        W84774  29.404  14.640  11.509
16557W        W84775   1.288   1.499  12.627
16558W        W84776   5.143  12.758  12.644
16559W        W84777  43.984  35.908   1.427
16560W        W84778  12.308  21.635  11.897
16561W        W84779  19.411  33.531   3.694
16562W        W84780  34.875  11.734  14.956
16563W        W84781  20.486  14.629  12.615
16564W        W84782  22.230  44.831  10.987
16565W        W84783  40.774  33.482   2.293
16566W        W84784   1.491  22.365   1.372
16567W        W84785   7.398  29.385  13.618
16568W        W84786  34.283   3.730   5.347
16569W        W84787   2.831   4.707   4.100
16570W        W84788  42.498  27.268   0.714
16571W        W84789   7.810  12.665  10.536
16572W        W84790  44.233  40.871  10.551
16573W        W84791   7.491   4.485   1.037
16574W        W84792  34.906  30.561   0.989
16575W        W84793  24.559   4.205  13.265
16576W        W84794  24.049  32.594   2.435
16577W        W84795  31.029  23.283   0.836
16578W        W84796  38.254   0.050  11.330
16579W        W84797   1.563   6.205  11.133
16580W        W84798   8.232  15.263  10.628
16581W        W84799  22.719  41.843  14.289
16582W        W84800   0.832  40.847   3.087
16583W        W84801   0.441  14.828   3.460
16584W        W84802  39.570  22.918   1.164
16585W        W84803  12.874  39.566  13.951
16586W        W84804   8.120  16.277   1.248
16587W        W84805  22.138  12.656  10.343
16588W        W84806   8.682   8.694  10.749
16589W        W84807  28.647   9.116  13.997
16590W        W84808  42.414  12.875   4.715
16591W        W84809  43.389  25.876  13.395
16592W        W84810  36.834   4.260   2.022
16593W        W84811  34.509   3.644  13.904
16594W        W84812  15.233   1.815   1.376
16595W        W84813  31.070  37.062   0.453
16596W        W84814  37.871  40.991  14.817
16597W        W84815  33.750  11.100  11.194
16598W        W84816  12.810  35.119  12.446
16599W        W84817   9.171  18.683  12.438
16600W        W84818   3.666  38.412   1.614
16601W        W84819  18.142   4.077   1.122
16602W        W84820  24.469   5.407  14.313
16603W        W84821  40.988  13.842   0.857
16604W        W84822  44.251  26.142  10.788
16605W        W84823  32.309  21.737  11.901
16606W        W84824   4.486  15.258  11.170
16607W        W84825  26.929  39.115   2.515
16608W        W84826  39.625  41.742   0.546
16609W        W84827   1.044   8.144   4.190
16610W        W84828  14.528  36.641  11.061
16611W        W84829  43.318  23.495  10.747
16612W        W84830  36.399  14.809  12.821
16613W        W84831   7.138  27.078  11.260
16614W        W84832  18.241  41.950   2.702
16615W        W84833  37.938  31.399   1.920
16616W        W84834   9.901  10.281  12.659
16617W        W84835  34.574   9.259  13.910
16618W        W84836  10.165   9.334   1.195
16619W        W84837  40.040  20.026  12.394
16620W        W84838  38.924   4.448   0.821
16621W        W84839  44.972  23.068   0.520
16622W        W84840  30.120  36.357  12.202
16623W        W84841  18.872   7.743  14.461
16624W        W84842  33.677  31.665  13.125
16625W        W84843  37.493  18.958   0.979
16626W        W84844  23.064   1.136  13.491
16627W        W84845  16.384  13.784   0.401
16628W        W84846  34.108  25.533   0.983
16629W        W84847  21.677   3.278   3.333
16630W        W84848  37.466  26.732   0.531
16631W        W84849   4.994  24.947   3.664
16632W        W84850  31.506  21.675   2.713
16633W        W84851  17.845  24.425  11.557
16634W        W84852  39.261   5.321  12.415
16635W        W84853  42.524  44.028   3.386
16636W        W84854  36.735   1.778   5.524
16637W        W84855   6.522  27.313  11.888
16638W        W84856  18.440   7.978  13.357
16639W        W84857  33.198   0.354   4.771
16640W        W84858  22.001   9.049  12.881
16641W        W84859  33.764   3.884   5.290
16642W        W84860   3.748  43.484   2.938
16643W        W84861   5.164  31.745   2.363
16644W        W84862  14.323   6.240  14.507
16645W        W84863  40.308  29.039  12.611
16646W        W84864  32.409  17.187  14.877
16647W        W84865  37.387   9.766   2.386
16648W        W84866  18.239  26.963   3.788
16649W        W84867  25.334  42.021  14.733
16650W        W84868  24.626  40.406  13.810
16651W        W84869  44.801  26.539   4.062
16652W        W84870  10.938  42.411  13.488
16653W        W84871  25.223   7.887   1.037
16654W        W84872  28.964  17.897  14.498
16655W        W84873  29.343  23.935  12.979
16656W        W84874  13.367  34.418  11.946
16657W        W84875   2.515  29.898   2.857
16658W        W84876  42.850  19.753   4.749
16659W        W84877  28.466  42.313   1.364
16660W        W84878   9.828  25.718   0.039
16661W        W84879  21.102  41.520   3.122
16662W        W84880   1.427  29.141   3.883
16663W        W84881  34.154  27.126  12.592
16664W        W84882  34.488  29.531  14.571
16665W        W84883  22.780  24.691   2.762
16666W        W84884  41.032  37.209  12.907
16667W        W84885  30.670  13.330  13.327
16668W        W84886   7.319   8.623  10.452
16669W        W84887  23.133  39.060  11.608
16670W        W84888   5.671   1.956  11.608
16671W        W84889  26.841  20.189   3.514
16672W        W84890  19.744  34.782  12.015
16673W        W84891  23.975   7.322   4.701
16674W        W84892  43.658   7.305  11.886
16675W        W84893   1.015  21.315   4.451
16676W        W84894  33.545  26.257   4.949
16677W        W84895  34.367  23.827  12.466
16678W        W84896  28.612  43.579   0.283
16679W        W84897   6.952  29.025  11.273
16680W        W84898  11.129  35.308   1.796
16681W        W84899  13.584  32.470   1.700
16682W        W84900  11.919  22.616  13.930
16683W        W84901  24.797  17.599   3.655
16684W        W84902   9.548  25.975  11.740
16685W        W84903  28.992  15.276  12.563
16686W        W84904   5.477  23.028  14.374
16687W        W84905  39.342  10.868  14.404
16688W        W84906  44.905   8.328   2.824
16689W        W84907  24.384  32.419   1.181
16690W        W84908  21.500   4.497  12.004
16691W        W84909  40.130  42.028  12.015
16692W        W84910   3.817   2.235  14.416
16693W        W84911  15.522  21.315   1.797
16694W        W84912  26.524  10.253  11.154
16695W        W84913  14.098  14.095   3.659
16696W        W84914  25.239  38.033  14.817
16697W        W84915  23.105  20.239   2.660
16698W        W84916   9.461  14.312   4.936
16699W        W84917  40.482   6.963  12.925
16700W        W84918  20.528  11.789   4.373
16701W        W84919   9.144  24.073  12.512
16702W        W84920  22.941   1.371  14.415
16703W        W84921  16.181   3.593  11.178
16704W        W84922  15.659  36.730   4.463
16705W        W84923  32.114   3.798   1.283
16706W        W84924  12.701   5.084  12.118
16707W        W84925   7.899  26.125   2.588
16708W        W84926  40.663   0.972   3.611
16709W        W84927   1.227  25.841   4.685
16710W        W84928  16.820  12.108  12.436
16711W        W84929  27.102  19.978   0.990
16712W        W84930  34.094   7.592  10.877
16713W        W84931   5.237   1.564  11.150
16714W        W84932  29.898  11.106   1.358
16715W        W84933  10.365  11.300   2.585
16716W        W84934  22.542  34.729   1.709
16717W        W84935  30.335  44.720  12.390
16718W        W84936  19.499  32.080   2.589
16719W        W84937  33.135  38.481   3.625
16720W        W84938  28.251  20.341  10.972
16721W        W84939  37.989  25.384   1.287
16722W        W84940  23.127  33.884   3.352
16723W        W84941  21.853  32.288   5.029
16724W        W84942  36.393   5.474   1.706
16725W        W84943  11.134  24.061   0.869
16726W        W84944  16.560  37.662   1.295
16727W        W84945  38.881  15.694  11.365
16728W        W84946  42.197   5.404   0.329
16729W        W84947  26.608  26.645   1.784
16730W        W84948  37.001  31.415   1.729
16731W        W84949  40.300  39.096  10.204
16732W        W84950  24.090   4.983  11.357
16733W        W84951   5.213  15.080  14.035
16734W        W84952  33.480  39.118  14.443
16735W        W84953  36.320  40.362  13.799
16736W        W84954  35.497  38.266   2.248
16737W        W84955  27.559  15.609   3.417
16738W        W84956  42.450  29.996  14.795
16739W        W84957  23.859  41.330   2.900
16740W        W84958  37.693   3.298   3.939
16741W        W84959  36.098   8.342  11.547
16742W        W84960  39.141  14.732   3.188
16743W        W84961  33.638  23.411   4.525
16744W        W84962  29.035  38.868  14.014
16745W        W84963  17.640  38.067  11.530
16746W        W84964  11.125  43.545   0.653
16747W        W84965  17.725   6.198  14.354
16748W        W84966   1.802  38.056   3.788
16749W        W84967  38.240  44.286   4.610
16750W        W84968   5.163  37.623  11.141
16751W        W84969  17.606  33.442   3.069
16752W        W84970  41.576   6.707   0.231
16753W        W84971  16.041  36.829   1.774
16754W        W84972  17.067   9.647  13.996
16755W        W84973  23.620  28.053  14.384
16756W        W84974  12.201  22.133  11.786
16757W        W84975  35.619   1.674  12.024
16758W        W84976  44.357  39.064  14.253
16759W        W84977  36.123  24.081   1.816
16760W        W84978  18.535  40.374  13.442
16761W        W84979  19.368  29.479  14.924
16762W        W84980  41.486  15.760  13.016
16763W        W84981   0.420  27.914  13.762
16764W        W84982  40.321  24.662  11.032
16765W        W84983  40.333  21.285   2.823
16766W        W84984  35.766  44.536  12.951
16767W        W84985  36.557   8.781   0.953
16768W        W84986  15.267   7.736  10.681
16769W        W84987   4.379  18.716  13.679
16770W        W84988   5.192   2.198   4.188
16771W        W84989  34.368  11.575   0.682
16772W        W84990  42.312  13.215  13.792
16773W        W84991   6.244  30.240  13.274
16774W        W84992  36.136  38.372   3.151
16775W        W84993  42.293  20.659   4.595
16776W        W84994  26.393  40.489   3.701
16777W        W84995  22.696  44.740   2.334
16778W        W84996  39.403   1.679   0.031
16779W        W84997  37.144  21.576  13.465
16780W        W84998   7.250  26.761   0.057
16781W        W84999  44.566  31.600  11.992
16782W        W85000  22.666  22.949   3.267
16783W        W85001  20.628  43.214  10.532
16784W        W85002  40.405  19.803   1.828
16785W        W85003  16.022  16.255  11.245
16786W        W85004  18.494   8.595   3.570
16787W        W85005  35.022   4.178   1.225
16788W        W85006  33.710   3.503   9.976
16789W        W85007  20.544   1.263  12.432
16790W        W85008   9.584  43.333  11.076
16791W        W85009  17.375  25.459   2.887
16792W        W85010  43.399  34.054  12.995
16793W        W85011   6.312  22.637   4.151
16794W        W85012  14.669  22.757   1.712
16795W        W85013  10.139  25.253   3.249
16796W        W85014   0.828  18.885  10.467
16797W        W85015   2.763  27.854  14.091
16798W        W85016  35.045   4.518  12.036
16799W        W85017   8.846  10.296   4.155
16800W        W85018   3.379  17.964  11.600
16801W        W85019  36.976  38.136  11.047
16802W        W85020  40.432   4.420  11.205
16803W        W85021   8.659   7.423  12.007
16804W        W85022   1.524  21.698  13.957
16805W        W85023  31.362  28.525   4.567
16806W        W85024   7.660  30.091   2.561
16807W        W85025   5.568   6.983   3.172
16808W        W85026  16.346  34.433  12.341
16809W        W85027  11.601  28.578  11.913
16810W        W85028   7.034  21.705   4.152
16811W        W85029   3.600  20.955  13.947
16812W        W85030   3.216  38.750  14.235
16813W        W85031  30.193  11.642   2.831
16814W        W85032  36.841  12.226  14.781
16815W        W85033  15.108  18.700  11.639
16816W        W85034  33.691  36.593  13.948
16817W        W85035   1.200  10.373   4.368
16818W        W85036  15.317  14.160   3.736
16819W        W85037   7.975  15.640  13.361
16820W        W85038  21.376   1.339  10.900
16821W        W85039  27.760  43.040   1.993
16822W        W85040  32.705   6.143   1.077
16823W        W85041  11.328   8.573   2.758
16824W        W85042  37.171  21.542   2.786
16825W        W85043   6.958   1.671  11.848
16826W        W85044  42.724  17.664  14.976
16827W        W85045  26.538  30.584  12.015
16828W        W85046  32.041  21.003  13.476
16829W        W85047   2.673   3.835   3.790
16830W        W85048   1.762  10.579  10.715
16831W        W85049  25.435  15.508  11.900
16832W        W85050  13.844  18.682   4.561
16833W        W85051  34.464  38.786  13.438
16834W        W85052   1.818  22.253  12.398
16835W        W85053  33.143   4.981   5.129
16836W        W85054  36.554  29.173   0.745
16837W        W85055  10.858  16.795   1.589
16838W        W85056  13.054   2.308   4.972
16839W        W85057  29.764  28.119   0.388
16840W        W85058   7.641   6.943  11.666
16841W        W85059   2.939   5.417  13.096
16842W        W85060   2.370  38.353   1.250
16843W        W85061  32.689  12.743  11.635
16844W        W85062  27.641  20.147  11.133
16845W        W85063  36.979   7.277  14.525
16846W        W85064  22.632  34.982   2.161
16847W        W85065  14.158   2.244  10.293
16848W        W85066  30.036   1.230   3.372
16849W        W85067  28.981  19.476   3.378
16850W        W85068  14.339  43.486   4.124
16851W        W85069  17.793  12.396   2.288
16852W        W85070   2.177  44.790  11.171
16853W        W85071  32.472  35.781   3.619
16854W        W85072   5.189  31.436  14.937
16855W        W85073   2.651  40.662   9.927
16856W        W85074   0.439  44.845   3.336
16857W        W85075   3.472  28.696   4.303
16858W        W85076  44.679  39.839  13.623
16859W        W85077  23.952  32.961   0.068
16860W        W85078  10.556  23.141   2.615
16861W        W85079  26.171  25.218   4.630
16862W        W85080  15.069  40.029   1.722
16863W        W85081  35.013  11.212  10.395
16864W        W85082  15.153  14.913   2.593
16865W        W85083  30.899  43.596   1.234
16866W        W85084  13.252  24.455  12.031
16867W        W85085  43.589  34.302  14.323
16868W        W85086   7.636  13.642  11.917
16869W        W85087   8.130  29.445   0.017
16870W        W85088  31.730  34.112  10.639
16871W        W85089   8.609   9.047  11.111
16872W        W85090  18.191  30.118  14.346
16873W        W85091   9.621   2.765  10.677
16874W        W85092  18.179  16.299   9.959
16875W        W85093  34.053  31.897  13.431
16876W        W85094  25.632  32.195  10.771
16877W        W85095  43.391  27.219  10.761
16878W        W85096  22.539  30.198   4.175
16879W        W85097  35.593  30.220  11.593
16880W        W85098  14.709  35.597   4.616
16881W        W85099  22.802  40.901  10.744
16882W        W85100  38.833   2.330   2.225
16883W        W85101   3.757   5.851   4.006
16884W        W85102  16.632  24.198  12.791
16885W        W85103  32.416   9.392  11.071
16886W        W85104  21.753  35.914   1.661
16887W        W85105   0.619   0.790  11.136
16888W        W85106  21.589  20.792  13.980
16889W        W85107  44.171  11.890   0.398
16890W        W85108  32.909   9.678   2.763
16891W        W85109  11.374   3.437   3.703
16892W        W85110  16.892  33.918  10.125
16893W        W85111  22.971   9.742  14.308
16894W        W85112  25.451  28.189  12.003
16895W        W85113  35.222  10.892  11.617
16896W        W85114  37.329   2.501  11.589
16897W        W85115  43.281  31.251  13.780
16898W        W85116  11.110  41.479  13.967
16899W        W85117   6.858  35.557  11.552
16900W        W85118   1.310  17.812   2.293
16901W        W85119  37.259   7.116  12.172
16902W        W85120  20.754   8.920  13.345
16903W        W85121  38.783   0.953   3.835
16904W        W85122  33.809   4.294  14.902
16905W        W85123  37.455  17.310   4.262
16906W        W85124  13.881  27.803  11.486
16907W        W85125  32.421  37.786   3.726
16908W        W85126  13.297  18.817   0.527
16909W        W85127  23.686  30.600   3.583
16910W        W85128   7.229   3.713  12.592
16911W        W85129   0.069  32.121   4.680
16912W        W85130  23.504  44.355   3.738
16913W        W85131  27.416  13.644   4.241
16914W        W85132  39.524   4.974   3.246
16915W        W85133  30.707  36.255  13.988
16916W        W85134  27.983  22.810   0.254
16917W        W85135  25.998  36.460   3.875
16918W        W85136  18.102  14.786  14.309
16919W        W85137  17.977  40.922  14.934
16920W        W85138  28.078  39.898  14.813
16921W        W85139  33.414  29.185   0.285
16922W        W85140   8.336  25.617   1.763
16923W        W85141  44.711  21.171   2.582
16924W        W85142  27.011  32.619   3.548
16925W        W85143  32.955  38.325  14.691
16926W        W85144  18.732  17.675   4.777
16927W        W85145  27.140  29.678  12.192
16928W        W85146  23.074  42.031   4.248
16929W        W85147  20.774  13.794  12.016
16930W        W85148  43.571  18.567  12.217
16931W        W85149   5.370  28.460  14.793
16932W        W85150  13.115  17.159  11.732
16933W        W85151  42.741   6.895  13.777
16934W        W85152  36.135   1.047   1.888
16935W        W85153  36.898  21.553   1.420
16936W        W85154   5.854   7.330   1.832
16937W        W85155  15.728   8.458  12.481
16938W        W85156  37.755   5.391   2.698
16939W        W85157  16.179  37.481   0.726
16940W        W85158  11.570  17.206  13.367
16941W        W85159  15.804   6.353   2.711
16942W        W85160   6.760  25.926  10.822
16943W        W85161   0.250  15.081   4.301
16944W        W85162  15.122  16.283   2.992
16945W        W85163  10.769  14.533   0.086
16946W        W85164  13.876  11.934   1.954
16947W        W85165  41.809   7.117  11.562
16948W        W85166   3.504  26.474  11.641
16949W        W85167  16.211  44.062   2.807
16950W        W85168  26.069  44.431   3.786
16951W        W85169  44.169  16.115  12.892
16952W        W85170  38.572  31.959  10.630
16953W        W85171  20.644  32.347  14.457
16954W        W85172  10.527  42.354  14.829
16955W        W85173  31.973   0.008  13.386
16956W        W85174  25.438  35.521  12.132
16957W        W85175   9.142  38.375   1.353
16958W        W85176  41.131  29.282  14.513
16959W        W85177  29.163  12.789  10.427
16960W        W85178  31.234  43.010  11.790
16961W        W85179   5.448   1.520   0.132
16962W        W85180  30.907  40.069   1.864
16963W        W85181  27.577  35.567   0.447
16964W        W85182  28.264  29.914  14.399
16965W        W85183  22.512  24.238   2.687
16966W        W85184  10.316   7.678  11.632
16967W        W85185  38.022  14.435  14.816
16968W        W85186  30.891   1.607  11.880
16969W        W85187  19.994  43.380  10.712
16970W        W85188  10.923  12.619  11.053
16971W        W85189  17.442  28.090  10.825
16972W        W85190   4.651  21.175  10.720
16973W        W85191  20.993  38.956  10.351
16974W        W85192  32.395  13.217   1.883
16975W        W85193   3.174  17.202  13.097
16976W        W85194  41.507  29.666   3.814
16977W        W85195  11.225  11.575  12.895
16978W        W85196  11.282  28.629   3.206
16979W        W85197  11.283   4.861  11.944
16980W        W85198  11.272   3.258   4.694
16981W        W85199   4.229   5.136   1.195
16982W        W85200  44.566  15.326  14.855
16983W        W85201  20.967  13.854   0.519
16984W        W85202   4.724  43.096  11.586
16985W        W85203   7.487  23.512   3.854
16986W        W85204  13.282  31.707  12.636
16987W        W85205   5.915   9.766   0.385
16988W        W85206   2.225  24.963  13.465
16989W        W85207  17.102  33.329   0.898
16990W        W85208   2.861  14.640  10.844
16991W        W85209  13.602   5.652   1.352
16992W        W85210  16.836  20.538  14.779
16993W        W85211  11.686  15.706  14.463
16994W        W85212   5.983  37.791   4.469
16995W        W85213  18.737  36.426  11.573
16996W        W85214  28.997  10.307  11.664
16997W        W85215   3.313  40.063   0.946
16998W        W85216  30.896   6.968   3.633
16999W        W85217  23.196   7.799   3.189
17000W        W85218  30.966  38.862  11.697
17001W        W85219  22.196   1.412   3.711
17002W        W85220  29.132  35.009  10.735
17003W        W85221  28.190  11.988   3.589
17004W        W85222   1.453  44.645  11.850
17005W        W85223  43.107  42.325  12.499
17006W        W85224   6.641   1.793  12.238
17007W        W85225  14.300  13.132  13.352
17008W        W85226  14.256   3.341  12.574
17009W        W85227  13.080  31.611   4.046
17010W        W85228  40.444  31.100  12.807
17011W        W85229  25.128  22.840  13.844
17012W        W85230  13.581  14.184  11.578
17013W        W85231  10.189   7.216   4.001
17014W        W85232  44.327  41.809  10.734
17015W        W85233  37.855  17.713  13.386
17016W        W85234  10.228  23.548  11.582
17017W        W85235  44.659  38.997   1.646
17018W        W85236  31.517  14.577   3.004
17019W        W85237   6.092  10.952   1.175
17020W        W85238  17.794   8.343  11.168
17021W        W85239  30.212   8.475  12.460
17022W        W85240  34.355   5.252  11.023
17023W        W85241   0.425   9.291  12.499
17024W        W85242   1.497  21.413  10.641
17025W        W85243  24.931  33.384  10.667
17026W        W85244  39.616  29.486  10.757
17027W        W85245  32.596  32.471  12.884
17028W        W85246   5.742  14.290   2.844
17029W        W85247   6.332  43.054   9.686
17030W        W85248  28.592  15.493  13.560
17031W        W85249   8.321  21.155   3.760
17032W        W85250  37.455   3.649   0.852
17033W        W85251  35.864  25.045  14.373
17034W        W85252  38.969  24.124  11.996
17035W        W85253  27.155   9.879  12.780
17036W        W85254  36.947  43.862   4.186
17037W        W85255  43.600   4.794  12.071
17038W        W85256  18.323  18.788   4.894
17039W        W85257  41.804  28.231  14.270
17040W        W85258  11.760   8.747   2.445
17041W        W85259  26.337  16.247  10.333
17042W        W85260  16.414  36.071  10.735
17043W        W85261   3.462  12.800   0.484
17044W        W85262  43.378  27.613   2.207
17045W        W85263  44.388  44.236   3.687
17046W        W85264   4.474  33.803   4.254
17047W        W85265   4.652  11.319   1.921
17048W        W85266  34.908   0.967  10.984
17049W        W85267  34.575  22.436   1.158
17050W        W85268  23.085  42.519  13.432
17051W        W85269  12.871  34.949   1.471
17052W        W85270   6.310   0.191   1.741
17053W        W85271  20.982  24.969   4.293
17054W        W85272  33.747  37.799  14.502
17055W        W85273  18.110  44.391   0.002
17056W        W85274  30.947  18.676  10.587
17057W        W85275  42.230   9.558   2.661
17058W        W85276   1.323  29.671  12.399
17059W        W85277  41.379  10.092   2.778
17060W        W85278  32.126  28.854   9.773
17061W        W85279  34.565  43.330   1.835
17062W        W85280  40.422  37.173  12.075
17063W        W85281  35.106  29.575   0.389
17064W        W85282  39.063   9.137  12.260
17065W        W85283  33.978  37.955  14.942
17066W        W85284  14.732  13.272  12.059
17067W        W85285   7.616   7.077  13.532
17068W        W85286  15.957  40.250   1.855
17069W        W85287  26.816  24.765   5.300
17070W        W85288   1.493  23.500   3.380
17071W        W85289  43.611  12.032  13.026
17072W        W85290   7.697  17.121   0.309
17073W        W85291  40.323   4.806   3.859
17074W        W85292  16.690  14.235   2.837
17075W        W85293  41.804  39.941  11.230
17076W        W85294   2.254  34.373  11.591
17077W        W85295   9.931  10.266   1.188
17078W        W85296  42.439  17.286   4.853
17079W        W85297  28.052   4.006   4.105
17080W        W85298  15.521  16.119   9.745
17081W        W85299  12.185  40.879  12.761
17082W        W85300  30.641  29.979  10.802
17083W        W85301  21.163  31.577  13.601
17084W        W85302  16.743  17.056  12.500
17085W        W85303  22.316  11.598   1.671
17086W        W85304  11.674  25.927   3.810
17087W        W85305  23.269  30.874  12.225
17088W        W85306  29.976   0.837   4.941
17089W        W85307  33.061  44.482   2.679
17090W        W85308   5.675  30.055  13.084
17091W        W85309  27.171  16.653   0.772
17092W        W85310  37.248  25.888   2.677
17093W        W85311  40.067   2.269  14.371
17094W        W85312  38.963  27.277   0.740
17095W        W85313  43.470  17.671   2.161
17096W        W85314   4.907  16.585  11.480
17097W        W85315  37.112  30.926  13.784
17098W        W85316  32.469  12.604   0.998
17099W        W85317  44.013  43.701  14.423
17100W        W85318  42.820  41.682   2.297
17101W        W85319  22.778   2.212   0.371
17102W        W85320  42.812   2.066  11.983
17103W        W85321  12.274  29.936   4.272
17104W        W85322  14.356  34.717   3.058
17105W        W85323  35.013   6.793  10.787
17106W        W85324  36.343  35.344   1.860
17107W        W85325  23.257  21.368   3.994
17108W        W85326  43.500   9.020  10.639
17109W        W85327  26.544  25.054   3.112
17110W        W85328   2.430  11.769  11.131
17111W        W85329  14.975  30.323  10.157
17112W        W85330  44.213  33.485  14.453
17113W        W85331  44.292  29.439  12.998
17114W        W85332  16.237  21.061   3.545
17115W        W85333  43.728   4.925   4.109
17116W        W85334  29.174  24.189   1.448
17117W        W85335  41.587  28.063   4.097
17118W        W85336  29.201   2.476   2.322
17119W        W85337  12.724  38.212   4.782
17120W        W85338  32.681   2.409  11.942
17121W        W85339  24.646  39.459  11.604
17122W        W85340  40.002   9.809  14.663
17123W        W85341  41.932  41.922  14.972
17124W        W85342   1.866   1.228   3.433
17125W        W85343  16.764  32.976   3.686
17126W        W85344  12.073  34.619   0.917
17127W        W85345  42.817   8.282  13.558
17128W        W85346  35.696  22.086  14.969
17129W        W85347  34.092   0.449   1.651
17130W        W85348  44.618  14.403   0.449
17131W        W85349  40.322  34.275   0.157
17132W        W85350  21.864  37.363   2.841
17133W        W85351   3.967  22.198  12.512
17134W        W85352   2.000   2.399   3.416
17135W        W85353  10.131  21.429  12.985
17136W        W85354   9.830  44.968   0.480
17137W        W85355  11.664   4.408   1.740
17138W        W85356   0.292  15.869  14.911
17139W        W85357  12.120   8.130   0.420
17140W        W85358   6.683  34.965  13.942
17141W        W85359   7.691   9.229  12.412
17142W        W85360  29.024  21.926  14.861
17143W        W85361  24.435  27.509  13.508
17144W        W85362  35.752  25.317  14.937
17145W        W85363  14.730  23.666   4.444
17146W        W85364   5.630  44.985  11.725
17147W        W85365   8.810  11.153  10.783
17148W        W85366  35.401   0.428  11.134
17149W        W85367  21.742  39.219   2.379
17150W        W85368  19.701  10.441  13.224
17151W        W85369  36.449  32.030  14.453
17152W        W85370  19.253  15.093  12.026
17153W        W85371  14.104  31.857  12.045
17154W        W85372  44.647  30.497   0.933
17155W        W85373   7.125  23.800  10.641
17156W        W85374   0.162   8.894  11.724
17157W        W85375  17.501  17.730  14.741
17158W        W85376  36.083  39.451  12.392
17159W        W85377   9.267  21.604  11.530
17160W        W85378  20.224  20.780  12.143
17161W        W85379  11.350  38.899  12.592
17162W        W85380  29.065  15.767  12.408
17163W        W85381  14.090  27.930  12.057
17164W        W85382  26.469  40.427   2.665
17165W        W85383  28.936  34.437   4.613
17166W        W85384  16.270   6.152   0.847
17167W        W85385  18.381  15.418   5.044
17168W        W85386   2.838   6.819   4.048
17169W        W85387  38.331   4.420   5.406
17170W        W85388  34.529  20.576   3.168
17171W        W85389  30.930  28.614  12.960
17172W        W85390  35.975   4.461   0.060
17173W        W85391  27.146  43.588   2.625
17174W        W85392  25.672  25.595  13.866
17175W        W85393  24.285  33.509  13.337
17176W        W85394  30.228  11.055   3.703
17177W        W85395  20.201  21.007   2.769
17178W        W85396  14.214  33.748   3.331
17179W        W85397  21.934  20.113   3.688
17180W        W85398   4.557   2.845  14.028
17181W        W85399  35.119  29.214   0.801
17182W        W85400  17.793  21.759  13.352
17183W        W85401  33.103  36.498   3.374
17184W        W85402   6.046   9.897   2.586
17185W        W85403  20.037   7.292   4.958
17186W        W85404  11.784  26.731  14.824
17187W        W85405  28.035  23.092   1.371
17188W        W85406   5.862  35.306  13.626
17189W        W85407  34.073  33.546   2.820
17190W        W85408  31.352  20.848   4.644
17191W        W85409  43.192  12.895  12.591
17192W        W85410   0.304  36.394  10.718
17193W        W85411  39.977  38.712  13.439
17194W        W85412   7.250  24.895  12.951
17195W        W85413  30.719  16.591   4.983
17196W        W85414  11.330  28.009  14.799
17197W        W85415  27.963  44.330   1.780
17198W        W85416  28.808  40.838  13.402
17199W        W85417  14.107  17.282  11.766
17200W        W85418  17.916  14.848  10.997
17201W        W85419  43.398  25.193   1.218
17202W        W85420   5.402   6.145  14.857
17203W        W85421  38.307  28.940  14.835
17204W        W85422  31.412  23.702   0.022
17205W        W85423   0.940  38.464  11.121
17206W        W85424  22.055  37.835  10.255
17207W        W85425  32.523  25.176  12.388
17208W        W85426  34.629  37.062  11.431
17209W        W85427  27.680   1.481  10.443
17210W        W85428  44.126  43.087   4.767
17211W        W85429  44.265  10.941   0.560
17212W        W85430   4.235  13.607   3.755
17213W        W85431  16.813  22.252  14.366
17214W        W85432  34.659  14.622   2.343
17215W        W85433   7.779  35.451  12.924
17216W        W85434  43.326  19.568  13.016
17217W        W85435  13.702   4.945   3.562
17218W        W85436   0.580  37.472   3.340
17219W        W85437  43.816  12.197   1.267
17220W        W85438  34.967  37.235  13.032
17221W        W85439  15.187  19.304   1.888
17222W        W85440  29.379   5.024  14.969
17223W        W85441  18.118  42.594  10.593
17224W        W85442  42.221  13.548   0.078
17225W        W85443   5.890  39.513   3.506
17226W        W85444  43.529  14.494  11.617
17227W        W85445  29.138  42.878   1.766
17228W        W85446  42.784   4.284   4.780
17229W        W85447  32.461  42.257   4.263
17230W        W85448  23.615  40.577  12.971
17231W        W85449  29.083   9.835   1.801
17232W        W85450  22.580  40.258   1.278
17233W        W85451   6.169  37.494   1.832
17234W        W85452  12.097  44.824   2.250
17235W        W85453   4.097  18.481  12.964
17236W        W85454  39.311   2.064   2.295
17237W        W85455  36.740   7.998  14.974
17238W        W85456  43.302   2.607   4.152
17239W        W85457   7.687  21.785   3.340
17240W        W85458  12.198  20.792   3.689
17241W        W85459  13.604  35.561  14.298
17242W        W85460  32.348  14.218  11.042
17243W        W85461   7.291  27.788   0.882
17244W        W85462  43.247  18.795   4.559
17245W        W85463  31.716   3.410   3.854
17246W        W85464  37.574  21.251   2.646
17247W        W85465  21.693  14.910  14.303
17248W        W85466  16.616  26.645   0.014
17249W        W85467   3.150   1.505  11.984
17250W        W85468  14.727  38.582   0.130
17251W        W85469  43.513   7.910  11.478
17252W        W85470  26.901  34.068   3.395
17253W        W85471  20.272   0.467  12.035
17254W        W85472  12.669  30.519  12.566
17255W        W85473  42.763   2.512   0.964
17256W        W85474  28.231  11.871   2.712
17257W        W85475  13.234   2.551  10.629
17258W        W85476  13.732  16.266   3.151
17259W        W85477   3.902  18.131  10.698
17260W        W85478  16.502  17.343  10.967
17261W        W85479  26.060  30.131   4.326
17262W        W85480  22.569  18.013  14.270
17263W        W85481  26.539   8.301  13.513
17264W        W85482  27.216  43.230   4.054
17265W        W85483  41.276  10.529  13.001
17266W        W85484  18.717   1.766   9.966
17267W        W85485  27.607  12.757   4.555
17268W        W85486   1.553  25.738  14.997
17269W        W85487   9.714  32.907  13.305
17270W        W85488  23.428  44.668   3.270
17271W        W85489  25.208   1.896  14.421
17272W        W85490  39.498  27.584   0.357
17273W        W85491   9.656   4.737  11.165
17274W        W85492   7.551  16.113   1.113
17275W        W85493  14.245  22.405   4.150
17276W        W85494  42.825  33.750  14.392
17277W        W85495  18.225   6.330  14.478
17278W        W85496   2.811  19.530  12.094
17279W        W85497   1.677  33.022   3.614
17280W        W85498  40.318   3.456   2.716
17281W        W85499  24.248   5.972  13.480
17282W        W85500  25.247   7.812   2.924
17283W        W85501  38.906  33.637  14.991
17284W        W85502   2.473  12.551  11.108
17285W        W85503  31.149  30.144   3.691
17286W        W85504  31.515   7.235  10.682
17287W        W85505   6.283  40.581   2.608
17288W        W85506  22.616   0.966  11.560
17289W        W85507  33.565   2.941  11.960
17290W        W85508  27.344   5.253   0.820
17291W        W85509  26.020  39.027  13.275
17292W        W85510  16.866  38.484   0.846
17293W        W85511  14.810  27.544   3.170
17294W        W85512   1.614  21.156   3.731
17295W        W85513  15.919  10.334  10.521
17296W        W85514  35.692  10.390   2.254
17297W        W85515   4.557   5.829  10.631
17298W        W85516  37.370  14.925   2.103
17299W        W85517   9.200  23.826  14.808
17300W        W85518   9.139  29.008  13.870
17301W        W85519  32.444  21.162   0.363
17302W        W85520  14.900  43.446   1.763
17303W        W85521   2.942  25.963   4.176
17304W        W85522   7.928  16.621   1.821
17305W        W85523  13.088  41.126  13.414
17306W        W85524  18.584  34.924  12.625
17307W        W85525  43.311  23.941   0.339
17308W        W85526  15.190   8.324   3.188
17309W        W85527  28.617   2.617  10.100
17310W        W85528  15.563  20.976  14.342
17311W        W85529  24.141  30.259   0.581
17312W        W85530  15.522  36.441  11.924
17313W        W85531  40.548  20.679   1.894
17314W        W85532  43.916  16.844  10.678
17315W        W85533  40.303  28.644   2.868
17316W        W85534   7.868   1.349  11.877
17317W        W85535  41.436  16.125  10.840
17318W        W85536  30.173  19.805   2.735
17319W        W85537  25.164  11.910   0.481
17320W        W85538   9.985  17.493   2.236
17321W        W85539   1.649  41.863  11.621
17322W        W85540   6.863   7.427  12.029
17323W        W85541  32.519  40.810  13.891
17324W        W85542  20.710  29.409  11.973
17325W        W85543  30.546  44.053  13.446
17326W        W85544  37.005   0.356   0.233
17327W        W85545   5.372  11.857   4.084
17328W        W85546  17.025  17.203  10.100
17329W        W85547  32.117  30.613   2.871
17330W        W85548  14.417  26.423   1.385
17331W        W85549  43.701  15.220  12.638
17332W        W85550  16.784   1.446   0.457
17333W        W85551  35.146  19.848  14.759
17334W        W85552   0.277  43.918  12.665
17335W        W85553  18.676   5.300  11.959
17336W        W85554  41.447  34.181  11.445
17337W        W85555  39.222  24.246  13.032
17338W        W85556  21.614  43.716   4.581
17339W        W85557  19.551  42.894  13.948
17340W        W85558   9.183  21.590  13.886
17341W        W85559  44.806  35.823  14.551
17342W        W85560  17.604  40.550  13.065
17343W        W85561  12.822   4.316  14.001
17344W        W85562  28.132  32.464   4.405
17345W        W85563  36.867  29.008   2.222
17346W        W85564  42.044  13.692   2.677
17347W        W85565   8.733  34.332   1.287
17348W        W85566  30.627   2.214   1.803
17349W        W85567   2.838  17.526  14.765
17350W        W85568   6.819  30.633   3.242
17351W        W85569  26.268  32.829   1.681
17352W        W85570  31.972  24.168   4.459
17353W        W85571   1.381  23.974  11.942
17354W        W85572  12.548   0.336   2.975
17355W        W85573  13.568   6.827   1.986
17356W        W85574  13.894   4.320   1.264
17357W        W85575  44.458   7.491   4.547
17358W        W85576   6.144  17.302  12.407
17359W        W85577  23.983  35.626   0.298
17360W        W85578  42.965  22.245   3.632
17361W        W85579  14.319  12.238  13.328
17362W        W85580  29.003  40.920   4.504
17363W        W85581  43.993   0.331  13.911
17364W        W85582  18.806  38.359   0.763
17365W        W85583  38.387  42.769   4.236
17366W        W85584   5.690  24.005   4.197
17367W        W85585  29.314  41.728  10.449
17368W        W85586  35.887  41.938  12.821
17369W        W85587  28.246   9.253   0.877
17370W        W85588  19.088  16.326   0.397
17371W        W85589  38.804   8.831  13.986
17372W        W85590  37.030  16.902  12.000
17373W        W85591  30.086  26.910   2.991
17374W        W85592  39.821   1.716   9.855
17375W        W85593  36.131  24.895  11.099
17376W        W85594  11.656  13.150   4.951
17377W        W85595  32.357  43.321   4.160
17378W        W85596  19.855  40.330  14.331
17379W        W85597  10.834   4.314   2.413
17380W        W85598   8.247  28.224   2.042
17381W        W85599  20.036  13.052   4.248
17382W        W85600  39.465  21.957   0.413
17383W        W85601   6.052  40.272  12.714
17384W        W85602   2.627  31.973   0.717
17385W        W85603  37.962  20.253   4.774
17386W        W85604  29.254  22.263  13.109
17387W        W85605  11.849  36.566   1.353
17388W        W85606  11.912  36.293   0.454
17389W        W85607  18.737   0.887  12.564
17390W        W85608  18.607  42.268   1.425
17391W        W85609  35.404  29.046  12.892
17392W        W85610  13.852  29.958  11.300
17393W        W85611  14.781  14.603  13.607
17394W        W85612  37.899  23.272  10.626
17395W        W85613  40.751  33.621  14.467
17396W        W85614  26.907  15.544  12.948
17397W        W85615  11.188  34.167  11.647
17398W        W85616  20.644  15.552   0.906
17399W        W85617   1.350   0.527   4.678
17400W        W85618  39.066  36.640   2.371
17401W        W85619  44.335  19.125   1.983
17402W        W85620  34.352  12.346   1.833
17403W        W85621  25.225   3.111   0.003
17404W        W85622   3.183  41.956   1.037
17405W        W85623  10.372  30.690   0.230
17406W        W85624  20.269   6.488  14.453
17407W        W85625  37.107  28.669  12.439
17408W        W85626  38.915  37.604  12.119
17409W        W85627   7.168  15.215   0.931
17410W        W85628   9.384  30.682   1.171
17411W        W85629  27.763   3.258  11.463
17412W        W85630  24.766   7.434   4.184
17413W        W85631  39.121  37.499  12.577
17414W        W85632  10.406  44.261   0.334
17415W        W85633  24.731  38.613   3.215
17416W        W85634  33.801  14.103   3.093
17417W        W85635  33.036  22.758  11.945
17418W        W85636  33.620  36.478  14.896
17419W        W85637  31.430  27.470   2.895
17420W        W85638   1.983  32.088   4.598
17421W        W85639  10.187  16.105   9.849
17422W        W85640  19.660  30.554   3.140
17423W        W85641  43.595  25.414  13.456
17424W        W85642   9.931  32.431  11.606
17425W        W85643  35.984  34.472  12.574
17426W        W85644   7.769  35.469   3.770
17427W        W85645   9.804  15.216   2.248
17428W        W85646  15.267   7.261  11.603
17429W        W85647  41.036  38.379   3.221
17430W        W85648  33.643  21.958   1.805
17431W        W85649  28.973  33.588   2.383
17432W        W85650  29.500  17.152   4.325
17433W        W85651  31.638  33.648   0.933
17434W        W85652  24.804  35.793  11.367
17435W        W85653  42.451   9.658  12.055
17436W        W85654  17.377   5.906   1.915
17437W        W85655   7.440  11.141  14.986
17438W        W85656   9.320   7.260  10.421
17439W        W85657   7.848   0.970  14.871
17440W        W85658  16.721  34.324  11.009
17441W        W85659  32.358  32.048   5.123
17442W        W85660  40.000  30.406   2.864
17443W        W85661   3.701  30.672  11.011
17444W        W85662  27.093  37.683  11.464
17445W        W85663  32.099   9.244   1.743
17446W        W85664  14.707  29.052   0.526
17447W        W85665  13.684  32.008   4.643
17448W        W85666   3.946  29.738  11.850
17449W        W85667  20.249  40.551   0.052
17450W        W85668  38.102  38.942   1.734
17451W        W85669  34.341  35.754  11.550
17452W        W85670  44.786   3.697  12.490
17453W        W85671  39.544  26.116   1.233
17454W        W85672  37.190  20.684  12.017
17455W        W85673   7.138   4.690  10.907
17456W        W85674  36.421  31.372   0.280
17457W        W85675  11.587  35.335   3.336
17458W        W85676  12.396   5.665  13.718
17459W        W85677   6.836  35.417  10.716
17460W        W85678   1.330  33.968   1.225
17461W        W85679  23.704  12.675  13.455
17462W        W85680   6.830   6.172  11.627
17463W        W85681  10.293  13.067  10.641
17464W        W85682  27.612  29.442   2.664
17465W        W85683  12.241  36.875  13.323
17466W        W85684  31.543  17.342   0.398
17467W        W85685  42.048  24.760   1.879
17468W        W85686  17.982  43.776   5.619
17469W        W85687   6.749   4.725   5.015
17470W        W85688   2.388  10.686  14.200
17471W        W85689   3.953  32.463   0.011
17472W        W85690  29.005  36.008  10.722
17473W        W85691   9.384  21.625   4.678
17474W        W85692  35.622  21.487   0.389
17475W        W85693  30.406   4.932   2.604
17476W        W85694  39.120  14.016   0.035
17477W        W85695  18.508   4.950  14.952
17478W        W85696  12.513  44.026  10.358
17479W        W85697  27.872  29.076  10.936
17480W        W85698  15.055   7.690  12.922
17481W        W85699   5.906  32.305  14.299
17482W        W85700   4.981   2.453  12.960
17483W        W85701  22.674  15.144   1.548
17484W        W85702  40.506  34.004  10.383
17485W        W85703  18.052  23.573  13.095
17486W        W85704  12.221   4.696   0.067
17487W        W85705  32.589  12.137   2.805
17488W        W85706  21.780  12.630   0.928
17489W        W85707  18.853  19.826  14.919
17490W        W85708   3.503  42.551   3.867
17491W        W85709  36.352  33.240   5.192
17492W        W85710   0.226  24.211   2.718
17493W        W85711  26.263  40.385  11.474
17494W        W85712  27.712   6.623   3.655
17495W        W85713  37.640   5.832  13.029
17496W        W85714  10.629  32.027   2.782
17497W        W85715  23.906  29.698  12.519
17498W        W85716  35.126  44.764   1.756
17499W        W85717  32.033   9.340  13.788
17500W        W85718   1.014  16.193  13.003
17501W        W85719  24.527  21.183   3.573
17502W        W85720  35.834  18.172  13.811
17503W        W85721   7.917  37.094   0.030
17504W        W85722   8.084   6.799   0.101
17505W        W85723  10.932  14.923   1.787
17506W        W85724  12.041  43.947   0.831
17507W        W85725  13.355  13.937  11.175
17508W        W85726  31.652  17.260  12.509
17509W        W85727  40.777  30.609  13.657
17510W        W85728  24.177  24.410   4.581
17511W        W85729  13.340  17.839   1.408
17512W        W85730  26.656  20.779   0.484
17513W        W85731  15.018   5.498  10.878
17514W        W85732   1.339   8.050   0.704
17515W        W85733  34.912  31.988   0.723
17516W        W85734  19.342  12.284  10.875
17517W        W85735  33.234  10.155  11.037
17518W        W85736  31.176  13.318   3.906
17519W        W85737  15.560  16.285   1.686
17520W        W85738  23.481   7.436   3.818
17521W        W85739  25.134  32.492   3.904
17522W        W85740  13.853   9.523   3.810
17523W        W85741  31.091   4.935   0.836
17524W        W85742  25.760  30.460  12.380
17525W        W85743  36.800  34.518   2.235
17526W        W85744   1.809  34.344   3.596
17527W        W85745  35.125  40.864  13.877
17528W        W85746  29.975   8.925  12.115
17529W        W85747  19.318  14.798   1.400
17530W        W85748  30.946  38.610   4.527
17531W        W85749  42.730  17.208   1.316
17532W        W85750  20.454   8.822   9.867
17533W        W85751  13.220   2.587  10.090
17534W        W85752  41.371   9.806  12.493
17535W        W85753  27.046  17.082  11.562
17536W        W85754   5.147  40.563  13.956
17537W        W85755   7.640  28.015  12.743
17538W        W85756  14.183  33.022   4.237
17539W        W85757  44.592   4.947   2.167
17540W        W85758   6.916   4.774   4.530
17541W        W85759  23.769  11.641  11.502
17542W        W85760  26.248  17.022   4.828
17543W        W85761  22.542  36.493  12.185
17544W        W85762  27.711  10.963  12.019
17545W        W85763  27.218   0.304   3.723
17546W        W85764  34.374  33.974  12.132
17547W        W85765  15.781  25.234   9.776
17548W        W85766   3.782   3.434  10.182
17549W        W85767  10.306  25.712  13.806
17550W        W85768  15.706   7.776   3.775
17551W        W85769  44.632  21.286   5.008
17552W        W85770  26.513  44.763  11.988
17553W        W85771   8.692  44.020   3.369
17554W        W85772   5.089   4.999  12.018
17555W        W85773  31.253  29.643  10.270
17556W        W85774  21.669  17.466   2.354
17557W        W85775  24.255  15.186  13.130
17558W        W85776  18.282  16.307  11.402
17559W        W85777  28.670   4.321   1.940
17560W        W85778  25.224  40.872  13.382
17561W        W85779  28.227  13.279   2.960
17562W        W85780  22.220   2.567   3.069
17563W        W85781  23.672  14.586  10.939
17564W        W85782  20.171  30.073  11.889
17565W        W85783   8.717   3.555  13.868
17566W        W85784  34.096  29.545   4.535
17567W        W85785  24.088  28.894  11.148
17568W        W85786  17.651  16.687  11.517
17569W        W85787  15.735  26.632  14.007
17570W        W85788  38.508   7.913  10.735
17571W        W85789  33.019   6.760  11.110
17572W        W85790  33.537  25.019   4.575
17573W        W85791  10.155  35.338   0.381
17574W        W85792  11.190  10.254   3.564
17575W        W85793  24.744   1.224   1.382
17576W        W85794  27.254  22.251  10.531
17577W        W85795  15.741   7.165   4.595
17578W        W85796  25.612  17.263   1.273
17579W        W85797  44.025  30.603  14.471
17580W        W85798  12.089   9.113  13.628
17581W        W85799  32.661  32.867  13.302
17582W        W85800  23.587  33.688  12.459
17583W        W85801  17.575  15.245   4.586
17584W        W85802  12.194  20.270  11.181
17585W        W85803  18.230  43.190  12.348
17586W        W85804  36.457  31.431   2.293
17587W        W85805   7.181  20.510   0.425
17588W        W85806  26.420  19.722   1.459
17589W        W85807  16.301   3.015  11.900
17590W        W85808  19.226  18.481   4.459
17591W        W85809   6.998   1.239  10.852
17592W        W85810   2.382  23.181  12.100
17593W        W85811   4.388  12.760  13.456
17594W        W85812  10.305  19.318   1.631
17595W        W85813   7.870  32.317   2.766
17596W        W85814  14.936  31.942   2.307
17597W        W85815  23.768  34.354   2.116
17598W        W85816  32.524  26.679  11.181
17599W        W85817   7.006  41.320   2.736
17600W        W85818  14.505  25.175  13.660
17601W        W85819   6.301  23.746  10.915
17602W        W85820  24.535   6.344   0.836
17603W        W85821   6.966  20.092   1.044
17604W        W85822   2.859   3.527  13.136
17605W        W85823   0.533  31.320   0.721
17606W        W85824   7.261  20.468   1.440
17607W        W85825  31.776  11.636   0.017
17608W        W85826  24.612   6.867  12.619
17609W        W85827  40.436   8.095  13.498
17610W        W85828   2.276   0.694   3.286
17611W        W85829  19.938  26.520   0.475
17612W        W85830  41.068  11.578   1.580
17613W        W85831  22.213  14.558  14.441
17614W        W85832  34.574   0.764  12.124
17615W        W85833  24.011  13.281  13.906
17616W        W85834  42.456  12.230   0.429
17617W        W85835  28.063  14.588   0.795
17618W        W85836   7.750  13.765   3.154
17619W        W85837  39.889  16.232  11.219
17620W        W85838  41.504  44.819  10.784
17621W        W85839  37.075  21.847  14.386
17622W        W85840   6.823  12.146  13.560
17623W        W85841  35.490   8.740   1.877
17624W        W85842  42.327  28.603  12.177
17625W        W85843  33.983  28.085  10.258
17626W        W85844  34.289  15.311  14.537
17627W        W85845  12.242  18.679   4.044
17628W        W85846  44.876  24.033  13.780
17629W        W85847  18.291  26.874  14.712
17630W        W85848   4.301  29.583   4.352
17631W        W85849  12.159  25.943   0.433
17632W        W85850  12.280  44.325  12.913
17633W        W85851  22.670  36.660  10.857
17634W        W85852   7.799  32.153   5.047
17635W        W85853  26.023   4.420  11.127
17636W        W85854  25.970   5.891  12.940
17637W        W85855  38.548   8.226   1.143
17638W        W85856  21.796  26.392  14.874
17639W        W85857  19.602  20.808   1.257
17640W        W85858  32.914  41.267  14.260
17641W        W85859  34.141  40.070   0.299
17642W        W85860  15.626  27.956   0.359
17643W        W85861  10.184   3.539   3.135
17644W        W85862   3.294  10.419   3.692
17645W        W85863  12.860  43.704   4.079
17646W        W85864  14.110  16.705   1.786
17647W        W85865  43.986  13.888  13.224
17648W        W85866  16.558  30.350  10.710
17649W        W85867  14.713  35.408  14.338
17650W        W85868   1.510  23.221  13.984
17651W        W85869  22.718   3.813  13.531
17652W        W85870  32.564  37.429  11.639
17653W        W85871  44.242  21.578  13.182
17654W        W85872   1.726  22.984  12.796
17655W        W85873  44.818  25.359   1.322
17656W        W85874  37.412  20.166  12.294
17657W        W85875  13.146  44.303   4.036
17658W        W85876  19.662  35.076  13.378
17659W        W85877  43.869  43.282   0.698
17660W        W85878  17.588   8.746  10.895
17661W        W85879  39.307  16.003   4.116
17662W        W85880  37.097  12.360  11.697
17663W        W85881   3.691   4.934  10.235
17664W        W85882  31.812  36.348  12.117
17665W        W85883  35.393  16.331  13.214
17666W        W85884  31.606   8.619  12.505
17667W        W85885   4.692  15.751  13.610
17668W        W85886  33.070  21.715  10.720
17669W        W85887  17.129  23.598   4.041
17670W        W85888  44.920  33.033   0.891
17671W        W85889  35.764  27.182   5.004
17672W        W85890  21.878  30.485  12.538
17673W        W85891   7.185  44.107   2.618
17674W        W85892  30.641  14.755   1.552
17675W        W85893  17.115  28.537  13.642
17676W        W85894  29.126  39.935   2.361
17677W        W85895  30.374   6.268  14.900
17678W        W85896  37.557  17.201  11.597
17679W        W85897  33.710  41.577   3.163
17680W        W85898  17.955  10.264  11.602
17681W        W85899  29.399  29.005  12.014
17682W        W85900   2.440  35.490  11.675
17683W        W85901  20.066  18.174   0.831
17684W        W85902  26.740  10.786   0.567
17685W        W85903   0.953  10.146  12.453
17686W        W85904  26.269  23.333   4.245
17687W        W85905  37.447  35.608  10.646
17688W        W85906   6.155  11.271   0.164
17689W        W85907  32.963  40.814   3.099
17690W        W85908  34.419  43.077  11.554
17691W        W85909  22.581  12.313   1.930
17692W        W85910   3.192  34.384   0.943
17693W        W85911  43.361  14.372  13.957
17694W        W85912  29.392  28.342   1.247
17695W        W85913   5.280  29.939  13.894
17696W        W85914  17.676  36.050   0.086
17697W        W85915  19.374  12.683   3.761
17698W        W85916  25.446  23.937   1.591
17699W        W85917  43.335  13.070  13.068
17700W        W85918  22.676  12.185   2.906
17701W        W85919  31.377  12.015   0.924
17702W        W85920   3.985  42.879  11.899
17703W        W85921  44.808   1.370  14.760
17704W        W85922  32.673  15.709  13.893
17705W        W85923   7.448  29.069   0.013
17706W        W85924  23.265  19.248   1.757
17707W        W85925  25.254   0.951   2.605
17708W        W85926  43.530  20.211  11.712
17709W        W85927  23.218  14.422  11.138
17710W        W85928  18.658   2.687   1.267
17711W        W85929  39.592  21.258   3.384
17712W        W85930  23.529  40.322   1.343
17713W        W85931  17.151  41.886  14.720
17714W        W85932   6.157   7.421   4.556
17715W        W85933   8.201   8.530  11.050
17716W        W85934  42.403  10.006  12.452
17717W        W85935   7.671  23.519  11.692
17718W        W85936  36.066  14.109  14.723
17719W        W85937  27.689  30.991  11.711
17720W        W85938   1.878  15.974  14.445
17721W        W85939   8.759   2.795  14.292
17722W        W85940  34.152   3.508  14.502
17723W        W85941  41.943  38.041  13.041
17724W        W85942  23.289  14.562  14.556
17725W        W85943  44.223   7.377   9.943
17726W        W85944  11.581  38.041   1.325
17727W        W85945  16.662  10.285  12.510
17728W        W85946  13.849  40.556  14.838
17729W        W85947  37.846  22.643  10.101
17730W        W85948  21.844  21.099   4.057
17731W        W85949  36.964  23.379   0.998
17732W        W85950  14.681   4.721   4.361
17733W        W85951   3.464  20.210   0.421
17734W        W85952  29.877   0.965  10.674
17735W        W85953  33.191   3.141   4.526
17736W        W85954  36.488  43.242   4.668
17737W        W85955  11.057  35.388   1.283
17738W        W85956  11.533  10.592   3.768
17739W        W85957  19.226  10.791  12.002
17740W        W85958  26.164  16.820  10.687
17741W        W85959  36.895   0.116  13.350
17742W        W85960  29.558  43.459   2.557
17743W        W85961  18.180   3.705  13.950
17744W        W85962  40.610   7.391   3.713
17745W        W85963  25.509  21.003  11.308
17746W        W85964  20.072  42.015   2.752
17747W        W85965   1.044  16.201   2.592
17748W        W85966  11.580  28.381   0.176
17749W        W85967  18.072  42.818   3.226
17750W        W85968   4.672  22.969   1.420
17751W        W85969  10.356  40.060  13.468
17752W        W85970   3.030  25.066  11.136
17753W        W85971   8.122   9.399   4.132
17754W        W85972  24.410  15.836   4.395
17755W        W85973  44.951   3.278   0.033
17756W        W85974   7.443  29.171   1.024
17757W        W85975  10.289   9.930  13.962
17758W        W85976  28.405   0.869  12.186
17759W        W85977  41.364  42.858   1.657
17760W        W85978  16.768  40.940  10.481
17761W        W85979   2.394  20.439   0.896
17762W        W85980   6.450  16.043  12.059
17763W        W85981   1.800   3.606   2.732
17764W        W85982  31.242  37.488  10.667
17765W        W85983  12.137   2.865   3.772
17766W        W85984  37.441  21.646   1.400
17767W        W85985  24.224   4.730   2.827
17768W        W85986  18.302  37.102  12.034
17769W        W85987  42.884  31.032   3.648
17770W        W85988  29.072   3.478   4.803
17771W        W85989  33.647  29.602   3.335
17772W        W85990   3.835  42.705  14.946
17773W        W85991  29.660   6.885  13.613
17774W        W85992  34.613  42.706  10.668
17775W        W85993  31.180  33.403   4.230
17776W        W85994   4.994  26.273  11.638
17777W        W85995   7.639  14.872   3.775
17778W        W85996  20.391  18.020   2.751
17779W        W85997  29.173  40.387  12.930
17780W        W85998   1.222  10.269  14.337
17781W        W85999  14.009  40.739   3.825
17782W        W86000  33.459  12.693  12.123
17783W        W86001   5.729  36.764   1.246
17784W        W86002  29.958   4.140   3.181
17785W        W86003  37.388  14.655  12.830
17786W        W86004  19.353  21.575  13.372
17787W        W86005  23.447  37.607  11.271
17788W        W86006   1.952  38.455  14.719
17789W        W86007   2.496  28.587   1.340
17790W        W86008   6.829  12.815   4.835
17791W        W86009  40.473  38.502   5.095
17792W        W86010  20.432  29.123   3.074
17793W        W86011  14.339  23.487  10.960
17794W        W86012  28.559   4.240  13.519
17795W        W86013  32.044   0.415  11.253
17796W        W86014  22.706  37.467   3.358
17797W        W86015  18.574  36.610  13.343
17798W        W86016  13.158  27.809  10.882
17799W        W86017  40.095   9.220  13.972
17800W        W86018   6.440  15.149  12.675
17801W        W86019  14.322  38.411   3.660
17802W        W86020  24.955  35.502   0.929
17803W        W86021  44.320  33.467   3.533
17804W        W86022  40.610  41.371   0.456
17805W        W86023  31.273   3.032  11.642
17806W        W86024   2.941  40.389   1.088
17807W        W86025  19.591   1.989   4.808
17808W        W86026  34.039  25.570   4.129
17809W        W86027   4.403  11.579   4.906
17810W        W86028  13.467  43.287  12.370
17811W        W86029  18.127  42.119   4.601
17812W        W86030  34.052  40.804   3.622
17813W        W86031   0.425  12.360  14.275
17814W        W86032  42.040   6.899   2.857
17815W        W86033   3.237  27.917  13.362
17816W        W86034  20.998   4.666   1.170
17817W        W86035  39.906   6.740  13.525
17818W        W86036  29.844   9.308  11.296
17819W        W86037   6.427   2.855  13.306
17820W        W86038   8.307  36.072   0.202
17821W        W86039  31.933  15.142   3.283
17822W        W86040  44.744   9.306   4.100
17823W        W86041   8.141  24.132   1.183
17824W        W86042   2.412  11.731  10.619
17825W        W86043   6.551  25.008   2.871
17826W        W86044   0.261  44.132   0.941
17827W        W86045  32.535  25.760  11.290
17828W        W86046  32.286  16.238   4.650
17829W        W86047  15.790  43.941  13.640
17830W        W86048  41.436  12.373  13.989
17831W        W86049  35.634  16.800   3.657
17832W        W86050  39.845  10.482  12.513
17833W        W86051   6.140  43.088  11.537
17834W        W86052  38.532   6.680  14.001
17835W        W86053  27.914  17.831  12.433
17836W        W86054  32.960   3.573   3.624
17837W        W86055  10.231  11.864   3.207
17838W        W86056  11.710  41.929   3.177
17839W        W86057  40.346  34.221  11.956
17840W        W86058  27.150  31.970   2.252
17841W        W86059   9.965  23.665   1.404
17842W        W86060  36.794   9.121  13.631
17843W        W86061   5.164   1.868  11.565
17844W        W86062  31.423  10.579  13.199
17845W        W86063   8.220  16.174   1.769
17846W        W86064  13.165  36.561  11.629
17847W        W86065  42.824  32.460  14.031
17848W        W86066  34.317  28.457   2.842
17849W        W86067   0.534  22.059  13.160
17850W        W86068  35.468  22.124  10.931
17851W        W86069  40.328  11.321  14.285
17852W        W86070   3.759  43.975   4.851
17853W        W86071  42.723  24.664   3.252
17854W        W86072  29.088  17.308  13.609
17855W        W86073  13.575  26.102   1.508
17856W        W86074  11.215  29.491   1.217
17857W        W86075  37.757  31.605   0.446
17858W        W86076  11.529  20.669   4.484
17859W        W86077  30.946  25.294   0.458
17860W        W86078  40.848  21.984   0.044
17861W        W86079  20.965  43.659  13.906
17862W        W86080  23.809  32.889   9.770
17863W        W86081  24.458   5.160   2.633
17864W        W86082  43.710   2.476   1.300
17865W        W86083   3.506  39.517   3.392
17866W        W86084  33.044  40.436  11.680
17867W        W86085  28.886   4.828  11.049
17868W        W86086  41.000  31.305  11.182
17869W        W86087   1.725  19.024  12.861
17870W        W86088  41.892  39.295  14.022
17871W        W86089  23.271  21.069  11.528
17872W        W86090  34.534   3.140   4.493
17873W        W86091  34.401   5.785   4.703
17874W        W86092  23.262  21.416   3.201
17875W        W86093   1.760   9.260  11.159
17876W        W86094  11.350  40.016  10.718
17877W        W86095  43.303   9.131  14.541
17878W        W86096  16.765  35.036   2.336
17879W        W86097  17.576  40.757   2.731
17880W        W86098   0.734  15.132  11.162
17881W        W86099  15.266  39.829  13.314
17882W        W86100  12.248  42.252   2.730
17883W        W86101  32.891  15.816   2.905
17884W        W86102  22.299  35.996  13.873
17885W        W86103  40.520  41.396   0.977
17886W        W86104  20.693  24.882   2.650
17887W        W86105  24.531  29.202   1.757
17888W        W86106  20.598  14.827  11.157
17889W        W86107  19.978  43.493   0.737
17890W        W86108  11.837  30.882   1.235
17891W        W86109   4.291   4.679   1.490
17892W        W86110  44.919  38.137   1.233
17893W        W86111  27.198   7.065   2.899
17894W        W86112  37.924  44.488   3.225
17895W        W86113  15.653  22.570   2.191
17896W        W86114  33.014   2.537   3.749
17897W        W86115  44.992  10.586  12.628
17898W        W86116  34.780  28.586   0.490
17899W        W86117  16.268  33.526  14.355
17900W        W86118  30.115  39.362  14.206
17901W        W86119   6.499  29.944   3.742
17902W        W86120   0.444  25.960  12.069
17903W        W86121  39.753  24.754   1.433
17904W        W86122  44.716  42.627   4.522
17905W        W86123  24.917  23.505   2.213
17906W        W86124  28.153  20.659  12.621
17907W        W86125  18.736  22.480  14.570
17908W        W86126  20.559   8.355   0.537
17909W        W86127  30.497  21.765  11.483
17910W        W86128   9.831   8.396   1.312
17911W        W86129  25.806  13.907  14.760
17912W        W86130   8.489  24.519  13.668
17913W        W86131  17.745  39.551   1.561
17914W        W86132  25.258  30.583  12.368
17915W        W86133  31.681  27.119  10.727
17916W        W86134  19.178  13.185  14.500
17917W        W86135   7.816   4.713   4.608
17918W        W86136  41.864   7.297   0.277
17919W        W86137  25.154  14.241  11.186
17920W        W86138  10.842  12.324   4.291
17921W        W86139  42.917  18.720  11.381
17922W        W86140  40.843   4.967  13.499
17923W        W86141   1.003  38.672  12.006
17924W        W86142  42.798  28.079   0.270
17925W        W86143  41.086  35.986   1.904
17926W        W86144  28.403  40.945   2.292
17927W        W86145  12.242  32.546  12.440
17928W        W86146  36.097  12.210  11.596
17929W        W86147   6.496  41.588  12.985
17930W        W86148  40.014  11.105   2.898
17931W        W86149   5.317   5.211  12.598
17932W        W86150  27.525   9.146  11.561
17933W        W86151   7.356  33.185  10.747
17934W        W86152   6.898  26.420   0.216
17935W        W86153  20.643  31.952  12.871
17936W        W86154  11.195   7.329  10.630
17937W        W86155  15.720  37.463  10.151
17938W        W86156  36.777   3.184  11.206
17939W        W86157  44.933   1.950   2.938
17940W        W86158  35.855  13.529   4.753
17941W        W86159  39.782   2.923   2.749
17942W        W86160  16.219   3.238  13.310
17943W        W86161  19.099  22.271   0.469
17944W        W86162  20.135  10.777   1.654
17945W        W86163  44.562   4.806   4.550
17946W        W86164  17.213  38.875   3.549
17947W        W86165   5.058   9.220  10.985
17948W        W86166  33.175  13.997  10.624
17949W        W86167  11.890   8.297  14.250
17950W        W86168  30.174  22.519   1.551
17951W        W86169  24.600  21.487   4.274
17952W        W86170  21.217  34.408  14.826
17953W        W86171  30.086   0.957   3.950
17954W        W86172  35.164  30.174   3.871
17955W        W86173  34.083   5.384  11.461
17956W        W86174   9.304  36.798  13.759
17957W        W86175  18.237  29.219  13.909
17958W        W86176  38.016  37.049   1.800
17959W        W86177   9.490   1.909   4.117
17960W        W86178   1.493  24.209  10.697
17961W        W86179  22.704   4.267  11.286
17962W        W86180  35.126  34.871  13.062
17963W        W86181  11.522  16.726   4.277
17964W        W86182  19.117  12.615  14.029
17965W        W86183   9.393  20.078   4.364
17966W        W86184  44.822  34.785  11.136
17967W        W86185  15.649  10.907  11.176
17968W        W86186  27.663   6.212   2.259
17969W        W86187  15.809  22.017   1.231
17970W        W86188  35.569   5.221  14.870
17971W        W86189  10.194   3.312  11.189
17972W        W86190  35.611  12.138  11.443
17973W        W86191  41.341  30.144   4.668
17974W        W86192   7.879  11.358  12.451
17975W        W86193  35.963  15.783  13.613
17976W        W86194   1.932  23.934   2.193
17977W        W86195  40.806  24.402  13.544
17978W        W86196   5.330  15.637   2.339
17979W        W86197  17.316   9.640  10.713
17980W        W86198  18.585  34.719  14.834
17981W        W86199  44.289  21.085   2.125
17982W        W86200  28.406   8.680   4.660
17983W        W86201  29.094  22.210  11.997
17984W        W86202   4.384   1.745   3.756
17985W        W86203  20.380  24.082   2.808
17986W        W86204   1.346  38.458   2.185
17987W        W86205  20.498  33.594  11.461
17988W        W86206  12.388  42.300   1.384
17989W        W86207  10.273  19.098  10.504
17990W        W86208  43.495  25.873  11.594
17991W        W86209  12.059  24.593   1.281
17992W        W86210  23.757   3.537  12.562
17993W        W86211  34.005  39.504   4.610
17994W        W86212   4.559  21.537  14.764
17995W        W86213  10.529  18.839  13.643
17996W        W86214  18.346   7.242  14.412
17997W        W86215   6.451  13.830  14.891
17998W        W86216  25.414   1.360   4.545
17999W        W86217  44.868  13.424   4.974
18000W        W86218  36.161  12.271  13.040
18001W        W86219  43.559   4.330  12.380
18002W        W86220  41.906  18.059  14.784
18003W        W86221   6.935   3.973   1.807
18004W        W86222  26.261   7.655  11.277
18005W        W86223  17.701  17.224  13.885
18006W        W86224  41.423   1.842  11.979
18007W        W86225  14.759  36.543   2.301
18008W        W86226   4.332  34.847   0.457
18009W        W86227   5.423  18.724  10.346
18010W        W86228  20.269  37.093  12.056
18011W        W86229  29.153  22.982  14.392
18012W        W86230  14.232   0.544   0.907
18013W        W86231   9.464  23.721   1.255
18014W        W86232  41.023  12.354  13.015
18015W        W86233  42.130  27.447   4.539
18016W        W86234  26.149  27.183   3.106
18017W        W86235   3.846  44.932   1.063
18018W        W86236  28.508  29.739   0.090
18019W        W86237   3.645  41.401   2.239
18020W        W86238  27.037  38.306   0.969
18021W        W86239  25.936   5.817   4.507
18022W        W86240  18.874   6.783  11.950
18023W        W86241  28.569   9.498   4.807
18024W        W86242  38.056  41.823   0.316
18025W        W86243  19.528  32.441   3.259
18026W        W86244  17.756  44.506   0.348
18027W        W86245  18.659  12.145   0.415
18028W        W86246   0.848  29.929   3.396
18029W        W86247   8.998  11.110  13.263
18030W        W86248   2.756  17.625   4.486
18031W        W86249  23.087  36.972  10.782
18032W        W86250  39.276  22.766  11.235
18033W        W86251   7.421  14.079  12.474
18034W        W86252   9.937  29.523  14.940
18035W        W86253  23.518  24.483   4.195
18036W        W86254  11.757   0.547  14.820
18037W        W86255   4.039  36.165   4.928
18038W        W86256   0.066  22.835  12.452
18039W        W86257  19.873  40.638   3.657
18040W        W86258  17.237  33.936   3.380
18041W        W86259   6.314  42.004  13.264
18042W        W86260   2.243   5.721   1.101
18043W        W86261   0.742  36.856  11.301
18044W        W86262  15.444  32.007  13.039
18045W        W86263  35.853   4.379  14.038
18046W        W86264   7.513  41.410   1.310
18047W        W86265  27.695  21.580   3.869
18048W        W86266  33.478  37.410   4.605
18049W        W86267  26.001  19.640  11.900
18050W        W86268  39.575  22.307   0.846
18051W        W86269  12.791  40.209   2.358
18052W        W86270  36.491  28.493  11.778
18053W        W86271  28.435  42.570   3.772
18054W        W86272  14.147  23.157   3.125
18055W        W86273  16.082   0.494   3.877
18056W        W86274  28.107   3.737  14.022
18057W        W86275  29.395   3.525   9.861
18058W        W86276  22.629  31.497  13.510
18059W        W86277  27.477   5.110   4.569
18060W        W86278  30.527  18.136  13.769
18061W        W86279   7.153  35.286  13.925
18062W        W86280   6.726  16.758  14.486
18063W        W86281  22.784  15.549  13.356
18064W        W86282  28.747  21.024  14.743
18065W        W86283  39.086   7.187   4.846
18066W        W86284   5.927  26.643   2.649
18067W        W86285  13.688  20.209  13.650
18068W        W86286  25.669  33.951   4.782
18069W        W86287  26.064  39.434   4.851
18070W        W86288  10.107  24.623   1.298
18071W        W86289   5.303  14.334  12.828
18072W        W86290   5.917  25.948   4.384
18073W        W86291  17.674   2.539  12.055
18074W        W86292  42.548  18.903  11.043
18075W        W86293  18.024   8.887  10.652
18076W        W86294  29.665  29.088   2.275
18077W        W86295   3.318  28.568  10.799
18078W        W86296  40.466   6.736  14.223
18079W        W86297  37.346  24.539   4.144
18080W        W86298   9.001  23.981  12.996
18081W        W86299  13.894   1.088  10.737
18082W        W86300  11.121  15.736   5.156
18083W        W86301  39.865  16.835   3.304
18084W        W86302  18.027  40.322  13.436
18085W        W86303  22.226  38.620  11.460
18086W        W86304   8.846  15.200   1.150
18087W        W86305   0.329  14.700   3.958
18088W        W86306  13.775   8.868   0.928
18089W        W86307   9.715  25.171  14.321
18090W        W86308  19.625  15.151   2.185
18091W        W86309   1.731  13.512   3.800
18092W        W86310  37.061  42.517  11.561
18093W        W86311  37.768  40.085   2.475
18094W        W86312  23.921  43.074  12.560
18095W        W86313  25.363  10.672   3.755
18096W        W86314   6.391  34.923  13.472
18097W        W86315  29.855   4.822  14.853
18098W        W86316  37.345  31.058  13.335
18099W        W86317   8.058  44.027  14.971
18100W        W86318  26.924   9.266   0.403
18101W        W86319   3.298  22.094   1.471
18102W        W86320  22.534   7.375  13.562
18103W        W86321  12.080  17.202  12.910
18104W        W86322  27.659   1.911  11.246
18105W        W86323  33.444  40.883   2.836
18106W        W86324   1.345  19.560   0.846
18107W        W86325  44.697  20.721  10.597
18108W        W86326   3.806  26.453   3.908
18109W        W86327  37.352  37.339   4.998
18110W        W86328  43.076  19.590  10.455
18111W        W86329  16.745  32.117  14.349
18112W        W86330  35.311  22.752  14.991
18113W        W86331  31.350  24.821  12.907
18114W        W86332  27.647  21.867   2.027
18115W        W86333  18.379  30.711   3.763
18116W        W86334  31.809  26.185  11.311
18117W        W86335  19.246  17.560  14.974
18118W        W86336  32.650  18.237  12.181
18119W        W86337  10.383  11.633  14.456
18120W        W86338  16.804  23.484   4.444
18121W        W86339  22.814  35.068   0.334
18122W        W86340  40.976  10.904  11.222
18123W        W86341  36.806  22.909   1.170
18124W        W86342  35.673   9.808  13.344
18125W        W86343  13.271  10.219  10.714
18126W        W86344   3.965  29.586   1.787
18127W        W86345  36.406   0.333   0.903
18128W        W86346  34.460  34.069  11.247
18129W        W86347  11.368   4.214   1.342
18130W        W86348   9.956  21.810  14.350
18131W        W86349   6.320   4.670  14.860
18132W        W86350  10.309  38.854   4.625
18133W        W86351  36.041  34.271   3.720
18134W        W86352  41.388  36.148   3.627
18135W        W86353   3.381  36.311   3.457
18136W        W86354  14.335  23.228  11.561
18137W        W86355  10.436  14.530   2.343
18138W        W86356  35.654  40.814  13.941
18139W        W86357  33.433   4.912   0.229
18140W        W86358  25.607  32.203  12.442
18141W        W86359  26.567  41.448   0.824
18142W        W86360  28.462  27.492   0.703
18143W        W86361  21.053  31.694  10.181
18144W        W86362  41.364  10.821   0.814
18145W        W86363  36.464   6.874  11.626
18146W        W86364  38.391  32.308  14.527
18147W        W86365  13.045  26.223  10.856
18148W        W86366  11.330  15.068  14.229
18149W        W86367  27.893  23.266   2.884
18150W        W86368  17.331  31.925  14.718
18151W        W86369   9.318  28.596   4.042
18152W        W86370  15.401  11.258  10.647
18153W        W86371   4.759  26.968   2.272
18154W        W86372  35.578  31.411  12.631
18155W        W86373  41.559  18.393  11.094
18156W        W86374  40.064  42.579  12.065
18157W        W86375  15.728  13.298   0.827
18158W        W86376   2.129  12.207  10.909
18159W        W86377   9.766   5.025  13.853
18160W        W86378  34.584  24.100  11.533
18161W        W86379   6.312  19.136  13.871
18162W        W86380   9.195  15.208   1.919
18163W        W86381   0.544  23.627   5.027
18164W        W86382   9.337  24.191   3.615
18165W        W86383  12.439   7.542  13.888
18166W        W86384  27.952  12.160   0.973
18167W        W86385  24.952  31.662   1.754
18168W        W86386   9.405  26.065  13.981
18169W        W86387   5.394  13.064   0.417
18170W        W86388  19.046  40.402   3.498
18171W        W86389  22.522  19.308   3.616
18172W        W86390  40.396  34.393   1.965
18173W        W86391  15.217  22.719  11.626
18174W        W86392   9.980  27.822  12.001
18175W        W86393  36.386  22.080  10.950
18176W        W86394  31.993  36.009   3.623
18177W        W86395   3.041   2.057   4.085
18178W        W86396  39.622  23.065   2.805
18179W        W86397   9.435  28.573  13.941
18180W        W86398  11.313  30.455   3.229
18181W        W86399  31.486  28.037  11.097
18182W        W86400  13.114  16.628   0.964
18183W        W86401  27.427   1.675   4.482
18184W        W86402  42.519  10.789   3.996
18185W        W86403  22.710   7.468  12.095
18186W        W86404  15.185  35.474   1.818
18187W        W86405  43.821   2.216   0.262
18188W        W86406  29.411  31.495  12.860
18189W        W86407  30.758  19.294  12.003
18190W        W86408  37.437  42.487   4.475
18191W        W86409  22.980  42.727  14.933
18192W        W86410  18.948  17.337  12.572
18193W        W86411   7.232  41.494   0.870
18194W        W86412   1.816  16.670  11.571
18195W        W86413  44.845  24.607   4.136
18196W        W86414  10.609  20.587  12.601
18197W        W86415  42.252  34.683  14.510
18198W        W86416  44.253  34.979  13.446
18199W        W86417  21.522  42.306   0.851
18200W        W86418  39.366  29.953   3.662
18201W        W86419  13.774   5.796  13.911
18202W        W86420   3.896  36.966   4.341
18203W        W86421   9.867  29.138   4.557
18204W        W86422  12.556  41.797  10.959
18205W        W86423  38.939  44.091   0.782
18206W        W86424  30.944   9.366   0.212
18207W        W86425  34.896  42.064   3.621
18208W        W86426  24.061  42.266  12.822
18209W        W86427  24.585  15.122  14.449
18210W        W86428  22.124  40.906   1.827
18211W        W86429  43.411  27.043   3.779
18212W        W86430  44.668  28.630   2.182
18213W        W86431  17.742  24.781  10.686
18214W        W86432  29.386   8.738   3.827
18215W        W86433   8.623  42.230  13.969
18216W        W86434  25.673  29.108   2.333
18217W        W86435   6.464   9.813   2.215
18218W        W86436  44.741  27.985   1.679
18219W        W86437  11.730  32.595  12.622
18220W        W86438   3.690   5.659  12.026
18221W        W86439  16.692  34.839   1.631
18222W        W86440  10.970   3.888  13.291
18223W        W86441   6.733  24.962  12.995
18224W        W86442  22.027  32.105  13.957
18225W        W86443   3.152   0.983  10.454
18226W        W86444  28.256  31.944  12.657
18227W        W86445  42.885  37.838   1.983
18228W        W86446  19.960  39.479  11.826
18229W        W86447  31.663   3.018  11.271
18230W        W86448  15.691   9.641   2.741
18231W        W86449  29.793  13.490  13.418
18232W        W86450   1.128  21.768  10.745
18233W        W86451   9.893  31.708  11.107
18234W        W86452  37.870   5.362  13.906
18235W        W86453  11.668  27.205   3.320
18236W        W86454  14.820  44.179  11.066
18237W        W86455  36.561  43.372  10.573
18238W        W86456  30.658  35.999   4.393
18239W        W86457  13.019  42.676   2.280
18240W        W86458  12.315  42.718   5.049
18241W        W86459  41.035  12.244  12.505
18242W        W86460  31.296  39.722  12.150
18243W        W86461  36.578  37.507   1.825
18244W        W86462  40.499  26.517  11.538
18245W        W86463   0.905   9.535  10.459
18246W        W86464  27.135  33.795  11.454
18247W        W86465   8.659  41.628  11.112
18248W        W86466  21.180  41.364   0.769
18249W        W86467   5.355  37.659  12.920
18250W        W86468  28.975  20.699  13.578
18251W        W86469  26.166   6.216   2.708
18252W        W86470  38.117   3.549   3.261
18253W        W86471  19.503  21.071  13.410
18254W        W86472  28.293  41.759  14.049
18255W        W86473  19.757  15.837   4.707
18256W        W86474  24.179  13.897   2.289
18257W        W86475  25.115  10.226   2.653
18258W        W86476  23.914  20.771  12.842
18259W        W86477   7.178  22.097   1.249
18260W        W86478  13.175  20.759  13.022
18261W        W86479   1.695  44.297  13.521
18262W        W86480  16.967  28.735  13.197
18263W        W86481  37.159   1.527   0.790
18264W        W86482  31.384  19.774  11.224
18265W        W86483   8.511  44.275  11.858
18266W        W86484  43.531  17.273  14.456
18267W        W86485   0.770  11.726   3.325
18268W        W86486  21.435  18.469  13.267
18269W        W86487  15.577   8.061  14.011
18270W        W86488  24.425  10.750   2.648
18271W        W86489  25.594  30.654   3.826
18272W        W86490  22.748  16.127  14.597
18273W        W86491  12.628   9.131   4.170
18274W        W86492   8.085  42.023   3.360
18275W        W86493  14.886  41.493   1.797
18276W        W86494   9.824  27.884   0.217
18277W        W86495  37.767   7.714  13.163
18278W        W86496  10.151   7.460   2.705
18279W        W86497  21.076  41.605  14.377
18280W        W86498  18.158  12.325   0.487
18281W        W86499  44.030   4.459  11.363
18282W        W86500  35.932  22.168  10.681
18283W        W86501  27.495  34.585   0.376
18284W        W86502  16.768  40.473  10.764
18285W        W86503  21.594  31.498   2.119
18286W        W86504  18.601   7.198  12.037
18287W        W86505   5.900  34.011  11.961
18288W        W86506  13.902  37.057   3.255
18289W        W86507  41.812  34.574   0.297
18290W        W86508  17.379  31.311   0.916
18291W        W86509  42.105   9.368  12.503
18292W        W86510   2.798   1.842   2.649
18293W        W86511   5.361  39.315  14.310
18294W        W86512  15.700  13.225   1.371
18295W        W86513  34.613  25.072  11.977
18296W        W86514   5.196   9.271   0.094
18297W        W86515  41.720   4.861   4.174
18298W        W86516  21.102  30.868  13.900
18299W        W86517   7.325  14.563   4.079
18300W        W86518  26.952  33.296  11.515
18301W        W86519  33.041  40.841  14.005
18302W        W86520  29.687  20.161   2.875
18303W        W86521  32.439  30.843  12.550
18304W        W86522  15.257  30.639  14.967
18305W        W86523  35.089   3.471   0.421
18306W        W86524   7.215  19.065   1.275
18307W        W86525  36.449  36.935  13.724
18308W        W86526  34.151  35.883   3.330
18309W        W86527   7.876  36.386   3.815
18310W        W86528   4.399  36.054  11.158
18311W        W86529  39.306  33.624   4.055
18312W        W86530  42.796  39.742   2.251
18313W        W86531  43.687  32.961   2.217
18314W        W86532  10.066  25.230  12.054
18315W        W86533   4.280  20.649  13.446
18316W        W86534  39.928  39.575  13.806
18317W        W86535  19.328   3.281   0.810
18318W        W86536  24.587  34.826  14.438
18319W        W86537  40.347  44.758  14.920
18320W        W86538   5.669   1.932  14.903
18321W        W86539  38.333   8.933   2.717
18322W        W86540  17.061   3.739   1.861
18323W        W86541  43.629   3.677   4.879
18324W        W86542  26.981  19.454  14.162
18325W        W86543  27.562   8.651  10.833
18326W        W86544  12.263   1.843  10.774
18327W        W86545  14.140  10.527  13.486
18328W        W86546   0.696   2.539   0.972
18329W        W86547  15.610  42.759   1.939
18330W        W86548  23.952   9.198   3.768
18331W        W86549   7.253  12.024  14.720
18332W        W86550  42.018  27.849  12.705
18333W        W86551   1.931  31.854   2.082
18334W        W86552  25.870  37.902   2.853
18335W        W86553  43.964  22.052  12.066
18336W        W86554  19.148  16.420  10.774
18337W        W86555  20.668   2.860  14.317
18338W        W86556  39.789   6.339  14.945
18339W        W86557  18.504  12.591   0.202
18340W        W86558  39.839   8.770  13.813
18341W        W86559  31.922   4.744   3.314
18342W        W86560   6.832  10.206   4.245
18343W        W86561  34.049  25.612  12.486
18344W        W86562  38.265  14.127  12.991
18345W        W86563   2.797   8.255  12.899
18346W        W86564  15.171   8.962   4.103
18347W        W86565  32.053  15.257   3.773
18348W        W86566  40.059  18.479   0.999
18349W        W86567  23.837  11.729  14.470
18350W        W86568  37.401  21.305  10.731
18351W        W86569  31.267   8.992   0.007
18352W        W86570  14.531  29.595  10.801
18353W        W86571   8.920   0.774  13.602
18354W        W86572   5.957  25.673   0.109
18355W        W86573  27.033  22.713   0.981
18356W        W86574  21.521  20.617   3.230
18357W        W86575  14.396  37.406  13.150
18358W        W86576   7.622  11.062   1.826
18359W        W86577  32.506   4.479   0.317
18360W        W86578   7.651  16.583   2.415
18361W        W86579   3.014  21.760   1.816
18362W        W86580   3.972   1.440   3.620
18363W        W86581  41.353  11.247  11.162
18364W        W86582  22.898   3.499   0.819
18365W        W86583  12.189  17.854  11.158
18366W        W86584  34.946   2.778  11.448
18367W        W86585  42.165   2.469   5.060
18368W        W86586  13.110  11.925   3.864
18369W        W86587   0.372   8.412  11.169
18370W        W86588  27.468   0.228  12.370
18371W        W86589  40.031  38.335   2.612
18372W        W86590   4.430  17.229   1.971
18373W        W86591  26.655   6.865  13.699
18374W        W86592  41.426   7.384   2.341
18375W        W86593  30.705  17.447  11.500
18376W        W86594  18.320  28.809  12.015
18377W        W86595  11.021  19.205  14.010
18378W        W86596  14.446  24.625   4.558
18379W        W86597  11.661  12.397  12.029
18380W        W86598   4.226  15.942   1.832
18381W        W86599  11.762   0.451  13.896
18382W        W86600  38.650   4.482  10.255
18383W        W86601  15.015  18.555   2.343
18384W        W86602  25.408  19.725   4.166
18385W        W86603   2.721  39.899   2.307
18386W        W86604  10.078  30.815   0.623
18387W        W86605  21.316  32.522   4.047
18388W        W86606  44.591  18.946   4.831
18389W        W86607  32.557  30.975   0.822
18390W        W86608  25.652  25.186  10.671
18391W        W86609  23.145  36.556  12.327
18392W        W86610  44.781  25.664   1.782
18393W        W86611  44.459  36.169   5.033
18394W        W86612  15.746  14.090  10.460
18395W        W86613  43.752  10.670  14.864
18396W        W86614  44.186   4.656   0.447
18397W        W86615  12.493  20.451   1.450
18398W        W86616  12.402  42.066  12.343
18399W        W86617   1.930   6.762   4.164
18400W        W86618  26.544  36.487   0.803
18401W        W86619   5.504  30.709   0.882
18402W        W86620   9.977  11.088  12.432
18403W        W86621  18.100  29.466  13.105
18404W        W86622  35.854   2.963   3.723
18405W        W86623  34.937  19.768  12.897
18406W        W86624  42.264  35.854   1.426
18407W        W86625  40.360  34.597  10.355
18408W        W86626  10.262  28.744  13.822
18409W        W86627  25.158  43.147   0.812
18410W        W86628  42.409   9.873   3.049
18411W        W86629  37.815   5.350  12.929
18412W        W86630  31.454   9.244   4.134
18413W        W86631  19.626  27.230  13.166
18414W        W86632  16.528  33.489   3.936
18415W        W86633   9.122  32.120   1.748
18416W        W86634  23.682  42.003   0.914
18417W        W86635  25.691   6.214  14.517
18418W        W86636   8.269  23.080   3.275
18419W        W86637  15.642  27.922  14.074
18420W        W86638  30.065   5.237   4.090
18421W        W86639  15.200  22.239  12.556
18422W        W86640  10.408  37.606   4.153
18423W        W86641  34.890  44.277  10.656
18424W        W86642   4.434   3.487   3.522
18425W        W86643   0.505  43.787  10.679
18426W        W86644   9.486  13.619   4.028
18427W        W86645  39.072  40.549   3.778
18428W        W86646  44.469  21.735  14.071
18429W        W86647  17.304  39.351   1.297
18430W        W86648  42.212  44.238   4.262
18431W        W86649  32.590   9.067   1.768
18432W        W86650  11.807   1.345  11.359
18433W        W86651  20.903   0.744  13.700
18434W        W86652   4.590  16.117   0.382
18435W        W86653   5.213  22.906  11.428
18436W        W86654  12.188  31.717  14.885
18437W        W86655  23.307  27.093   4.627
18438W        W86656  42.389   8.297   1.670
18439W        W86657  27.863  11.853   5.090
18440W        W86658  24.444   1.432  13.090
18441W        W86659  17.144   0.242   4.969
18442W        W86660  23.216  12.645   2.820
18443W        W86661  38.135  31.490  14.423
18444W        W86662  25.576   0.766   1.210
18445W        W86663   4.235  36.046  14.754
18446W        W86664  12.117  20.208  13.173
18447W        W86665  19.682  35.114  14.301
18448W        W86666  31.817  28.299   1.291
18449W        W86667   0.200  38.776   0.881
18450W        W86668   1.397   9.905   1.297
18451W        W86669  39.800  40.342   3.156
18452W        W86670   6.481  37.185  10.015
18453W        W86671  35.902  44.430   0.953
18454W        W86672  19.604  27.267  13.722
18455W        W86673  17.249  29.961   3.874
18456W        W86674  28.508   0.398  13.357
18457W        W86675  37.740  12.792  10.728
18458W        W86676  13.698  40.495   0.877
18459W        W86677  18.994  29.008  13.219
18460W        W86678  33.101  11.853  12.961
18461W        W86679   0.805  12.147  11.625
18462W        W86680   5.770  36.388   1.696
18463W        W86681  24.069  31.900  10.980
18464W        W86682  20.021   0.825  13.113
18465W        W86683  20.984  39.068   1.851
18466W        W86684  13.400  25.780   3.292
18467W        W86685   3.364  10.340   2.332
18468W        W86686   7.969  12.081  12.994
18469W        W86687  30.418  36.105   2.867
18470W        W86688  36.606   7.218   4.750
18471W        W86689  13.569  12.212   1.337
18472W        W86690  30.611  29.951  12.142
18473W        W86691  24.425  25.723   3.568
18474W        W86692  26.829  21.361   4.702
18475W        W86693  14.559  23.154  12.017
18476W        W86694   5.626  10.872   4.150
18477W        W86695  41.253  25.134  13.273
18478W        W86696  27.689   4.489  13.184
18479W        W86697   1.499  24.624   3.923
18480W        W86698  39.012   0.477  10.295
18481W        W86699  23.582  44.309  13.501
18482W        W86700   0.666  39.066  12.006
18483W        W86701  17.821   0.756   4.078
18484W        W86702   5.962  23.187  12.097
18485W        W86703  24.511   5.486  12.568
18486W        W86704   7.283  13.752   4.541
18487W        W86705   2.407  27.283   0.267
18488W        W86706  11.602  39.410  11.530
18489W        W86707  39.785  11.368  11.147
18490W        W86708   9.896  22.300   4.294
18491W        W86709   9.837  32.653   3.584
18492W        W86710  14.739  42.830  11.924
18493W        W86711  35.040   2.309  14.801
18494W        W86712  28.172   5.831  12.116
18495W        W86713  37.119  35.013   1.561
18496W        W86714  42.338  38.528   2.621
18497W        W86715   0.407  20.126  12.014
18498W        W86716  15.801  32.830  12.083
18499W        W86717  10.763  18.179   1.706
18500W        W86718  13.674  20.080   3.454
18501W        W86719  39.019  19.661  14.851
18502W        W86720   8.358  12.238   1.366
18503W        W86721  37.373  39.268  12.911
18504W        W86722  34.257  39.560   0.926
18505W        W86723  30.964  38.541  10.741
18506W        W86724  26.220  38.548  14.881
18507W        W86725  38.064  25.467   3.642
18508W        W86726  22.521  31.145   2.373
18509W        W86727   5.836   0.297  10.571
18510W        W86728  39.987  24.726  12.979
18511W        W86729  17.117   3.724   4.146
18512W        W86730  23.524   2.770   3.597
18513W        W86731   9.888  14.830  13.913
18514W        W86732  21.107  37.816   0.697
18515W        W86733  41.822  44.413   4.561
18516W        W86734  24.819  32.549  12.006
18517W        W86735   8.114  10.905  12.419
18518W        W86736  13.310  41.436   1.664
18519W        W86737  14.137   4.339   3.333
18520W        W86738  18.599  17.090   1.308
18521W        W86739  40.398   0.809   0.038
18522W        W86740  20.644  20.143  12.622
18523W        W86741  21.453  40.451   1.832
18524W        W86742  12.223  29.949   2.074
18525W        W86743  36.190  31.720  13.198
18526W        W86744  11.844  34.422   3.641
18527W        W86745  15.779  41.453  12.862
18528W        W86746  24.945   3.528  14.853
18529W        W86747  40.410  40.457  14.134
18530W        W86748  16.387  16.293  13.923
18531W        W86749  21.476  17.509  12.333
18532W        W86750   7.086  44.406  10.762
18533W        W86751   0.728  31.348   3.811
18534W        W86752  11.285   4.905  14.952
18535W        W86753  44.348   3.264   0.754
18536W        W86754   9.365   2.588  13.459
18537W        W86755  28.628  27.327   1.711
18538W        W86756  16.615  28.911   3.680
18539W        W86757  44.876  37.381  12.477
18540W        W86758  17.802  37.195  12.064
18541W        W86759  34.807  24.097   2.618
18542W        W86760  44.344  12.269   2.443
18543W        W86761  23.974   3.992  10.938
18544W        W86762   4.424  31.075  14.805
18545W        W86763  41.907  41.913   0.514
18546W        W86764  25.661  18.145   2.954
18547W        W86765  35.799   7.787   2.748
18548W        W86766  23.662  22.651   3.848
18549W        W86767  37.020   0.467  12.010
18550W        W86768   4.764  18.562  11.590
18551W        W86769  11.065  27.526  14.819
18552W        W86770  14.289   8.630   2.199
18553W        W86771  31.448   7.303   2.938
18554W        W86772   8.806   9.073  11.600
18555W        W86773  17.592  25.597   2.428
18556W        W86774  40.461   4.935  12.091
18557W        W86775  12.849  24.971  13.245
18558W        W86776   6.915  44.141   4.298
18559W        W86777  41.773  20.006   1.048
18560W        W86778  43.273  38.761   2.785
18561W        W86779  22.160  38.758  12.897
18562W        W86780  22.455  29.533  13.513
18563W        W86781   4.384  33.128   4.483
18564W        W86782  17.219  11.273  10.276
18565W        W86783   1.502  35.159  14.827
18566W        W86784  43.331  16.085  13.037
18567W        W86785   7.989  14.453  13.773
18568W        W86786  39.391  22.709  12.642
18569W        W86787  28.189  12.873   3.713
18570W        W86788  32.299  39.771  12.480
18571W        W86789  44.482  38.604  12.028
18572W        W86790  20.613  27.834   3.002
18573W        W86791  22.649  32.639   1.271
18574W        W86792  14.076  30.740   1.450
18575W        W86793  39.803   7.944  11.190
18576W        W86794   1.426  34.155  11.929
18577W        W86795  41.116  26.988  11.066
18578W        W86796  44.414  34.396   1.889
18579W        W86797  42.378   3.784   1.734
18580W        W86798  25.921  43.002   0.251
18581W        W86799   6.117  13.348  12.388
18582W        W86800   8.108  40.293   2.023
18583W        W86801  41.938   9.794   2.155
18584W        W86802  42.990  42.823  12.542
18585W        W86803  28.905  20.238  12.894
18586W        W86804  28.722  15.934   2.189
18587W        W86805  17.793  31.007  12.555
18588W        W86806  19.416  35.925   1.439
18589W        W86807   7.936  43.270  14.495
18590W        W86808   0.154  11.183   2.764
18591W        W86809  43.685  22.437   3.180
18592W        W86810  41.380  12.613  12.387
18593W        W86811  12.309  42.959  12.964
18594W        W86812  22.659   3.408   3.175
18595W        W86813   3.763  42.524   3.238
18596W        W86814   4.702  38.989  11.714
18597W        W86815  38.886  39.991  12.018
18598W        W86816  17.315  11.929   1.869
18599W        W86817  30.624  35.322  14.648
18600W        W86818  33.034  21.283  10.977
18601W        W86819  18.555  10.656  12.489
18602W        W86820  28.553   9.920  12.316
18603W        W86821   1.481  40.259  13.624
18604W        W86822   4.817  41.904   3.293
18605W        W86823  36.863   3.870   4.509
18606W        W86824  35.642  40.671  10.707
18607W        W86825  23.659   2.328   3.821
18608W        W86826   4.188  10.417   2.143
18609W        W86827  21.404  32.517  10.293
18610W        W86828  11.787   2.734   1.931
18611W        W86829  15.656  24.726  14.027
18612W        W86830  44.368  18.535   4.599
18613W        W86831  35.121  33.274   4.614
18614W        W86832  24.476  14.609  12.906
18615W        W86833  17.336   3.250   1.889
18616W        W86834  24.855  14.160  13.528
18617W        W86835  39.851   8.640   4.564
18618W        W86836  32.957  34.896  12.196
18619W        W86837  10.273   2.808  12.930
18620W        W86838  43.503   1.007  11.597
18621W        W86839  36.005   8.626   4.188
18622W        W86840   4.515  34.870   2.343
18623W        W86841  11.394  36.908   3.047
18624W        W86842   7.593  12.268   0.041
18625W        W86843   6.306  44.720  12.499
18626W        W86844   9.689  29.563  11.614
18627W        W86845  34.462  20.789   4.790
18628W        W86846  36.913   2.256  11.387
18629W        W86847  17.347  21.534  12.462
18630W        W86848   4.936  34.028   4.425
18631W        W86849  28.207   3.570   0.536
18632W        W86850  20.663  41.333  11.593
18633W        W86851  20.108  25.155  13.861
18634W        W86852  35.535  32.928   0.901
18635W        W86853   0.856  23.647   2.493
18636W        W86854  19.328  33.392   4.544
18637W        W86855  38.919  26.666  14.025
18638W        W86856  10.292  41.559   2.373
18639W        W86857  43.904  36.420  11.621
18640W        W86858  18.624  17.619   0.442
18641W        W86859   1.064   5.980   5.231
18642W        W86860  16.734  29.479  14.422
18643W        W86861  44.282  36.889   4.030
18644W        W86862  33.932   8.778   1.839
18645W        W86863  21.609  15.190  10.650
18646W        W86864   3.720  26.838   4.281
18647W        W86865  20.916  18.135   2.690
18648W        W86866  40.373  32.112   4.331
18649W        W86867   7.459  25.023   1.733
18650W        W86868  35.509  29.154   3.644
18651W        W86869  40.287  40.590  13.161
18652W        W86870  29.975   0.378  12.016
18653W        W86871  19.274  29.031  12.326
18654W        W86872  17.100  25.197   4.147
18655W        W86873  23.906   8.662  10.787
18656W        W86874  32.607  23.130  14.450
18657W        W86875  26.068   1.841   1.482
18658W        W86876  39.843  15.272  10.878
18659W        W86877  39.756  11.929  12.553
18660W        W86878  22.717  39.505   0.449
18661W        W86879  25.703  28.919   4.139
18662W        W86880  28.359  22.493   2.294
18663W        W86881  22.265  38.963   2.672
18664W        W86882  17.369  36.477   1.803
18665W        W86883  25.964   6.332  11.192
18666W        W86884  12.121  22.434  11.072
18667W        W86885  39.627  12.740  11.085
18668W        W86886  35.981  40.130  12.130
18669W        W86887   5.437  43.253   2.982
18670W        W86888   2.265  21.113  13.570
18671W        W86889   7.875  42.996   3.601
18672W        W86890  10.344  33.020   4.097
18673W        W86891  39.386   5.415  11.242
18674W        W86892  20.977  32.463   3.625
18675W        W86893  15.915  35.606   1.207
18676W        W86894   7.298  22.811   4.635
18677W        W86895   8.263  20.595   4.899
18678W        W86896   9.754  27.956  10.052
18679W        W86897  14.180  44.725  12.997
18680W        W86898  35.523  42.055   2.760
18681W        W86899  10.531   7.729   2.912
18682W        W86900  41.881  44.772   0.876
18683W        W86901  31.010  14.093  13.639
18684W        W86902  29.618   2.225   1.962
18685W        W86903  18.193  22.331   2.851
18686W        W86904   2.703   4.798   3.231
18687W        W86905  28.673  22.064  14.473
18688W        W86906  39.351  40.070   2.348
18689W        W86907  14.556  16.684   2.850
18690W        W86908  27.943  28.984   1.667
18691W        W86909   8.443  29.642   3.700
18692W        W86910  35.090   8.778  14.972
18693W        W86911   6.819  26.946  11.675
18694W        W86912   4.926  32.709  14.856
18695W        W86913  14.877   6.001  11.612
18696W        W86914   6.285  26.322   2.403
18697W        W86915  25.491  14.269   0.347
18698W        W86916  32.977  27.189   3.527
18699W        W86917  29.579  15.410  11.096
18700W        W86918   9.656  32.181  11.101
18701W        W86919  40.948  22.441   2.253
18702W        W86920  32.899  15.943  13.497
18703W        W86921  40.497  18.997   1.228
18704W        W86922   4.213  14.276  11.170
18705W        W86923  23.258  22.294   3.719
18706W        W86924   0.904  26.718  13.035
18707W        W86925   0.440  26.375   1.760
18708W        W86926   2.481   6.806   2.374
18709W        W86927  15.244  28.248   2.129
18710W        W86928   0.077  38.787   3.343
18711W        W86929  23.125  24.079  11.100
18712W        W86930  15.163  11.722  10.540
18713W        W86931   5.143  24.692  12.755
18714W        W86932   3.016  40.596  10.707
18715W        W86933   5.710  40.779   3.566
18716W        W86934   3.795  40.165  12.451
18717W        W86935  12.717   5.889   1.254
18718W        W86936  32.622  38.675  12.525
18719W        W86937  13.384  27.017   0.677
18720W        W86938  36.017  17.810  12.839
18721W        W86939  26.406  27.633  12.992
18722W        W86940  42.898  26.399  11.327
18723W        W86941   7.242  41.457   1.751
18724W        W86942  30.423   3.187   3.160
18725W        W86943  30.334  15.968  14.761
18726W        W86944  30.490  39.256   1.034
18727W        W86945   2.844  37.349  13.564
18728W        W86946   4.187   4.712  12.029
18729W        W86947  20.453  13.396   3.181
18730W        W86948   7.167  13.256   3.634
18731W        W86949  41.637   8.324   2.234
18732W        W86950  43.543  20.990  13.425
18733W        W86951  33.880  36.107   2.836
18734W        W86952  41.384  20.231  11.627
18735W        W86953  40.089  33.027  12.405
18736W        W86954  34.678  31.545   4.235
18737W        W86955  16.543  19.924   0.287
18738W        W86956  29.111  28.258   4.074
18739W        W86957   9.818  11.665  14.505
18740W        W86958  26.094  23.718   0.889
18741W        W86959  34.858  14.349  13.847
18742W        W86960  32.203   6.260  12.171
18743W        W86961  29.030   5.963  13.366
18744W        W86962  12.189  42.580   0.973
18745W        W86963  30.171  28.186  10.695
18746W        W86964  40.222  22.292   3.350
18747W        W86965  23.034   7.357   2.994
18748W        W86966  13.754  39.994  13.773
18749W        W86967  41.869  12.956  11.121
18750W        W86968  28.956  33.551  13.897
18751W        W86969  29.058  10.705  13.909
18752W        W86970  36.809   5.219   1.897
18753W        W86971  13.685  37.311   2.829
18754W        W86972  10.788  24.663   3.388
18755W        W86973  41.653  31.708  13.268
18756W        W86974  39.310  34.856   1.887
18757W        W86975   0.120   6.956   2.753
18758W        W86976  30.419   8.941   2.246
18759W        W86977  41.410  36.779  12.063
18760W        W86978  27.833  30.564  14.725
18761W        W86979  39.897  39.710   0.071
18762W        W86980   2.187  13.734   3.813
18763W        W86981  30.144   7.906   1.212
18764W        W86982  12.635  15.878  10.893
18765W        W86983  20.517  25.711   0.211
18766W        W86984  10.986  19.199   4.471
18767W        W86985   9.136   3.359  11.427
18768W        W86986  44.745   0.295   3.206
18769W        W86987  22.937  31.564  11.556
18770W        W86988  39.393  16.781   3.122
18771W        W86989  27.425  24.730   0.154
18772W        W86990  40.884   0.844   0.218
18773W        W86991  31.923  33.766   3.631
18774W        W86992  20.032  12.442  12.081
18775W        W86993   6.208  31.091  10.694
18776W        W86994  19.625  35.345   3.647
18777W        W86995   9.868  44.671   4.248
18778W        W86996  10.232  30.662  12.472
18779W        W86997  11.763  24.305   4.410
18780W        W86998  34.423  14.623   1.874
18781W        W86999  40.258   5.167  12.485
18782W        W87000  21.652  30.089   4.715
18783W        W87001   6.253  11.549  11.332
18784W        W87002   8.340  36.588   0.283
18785W        W87003   3.196  28.931  13.354
18786W        W87004  21.843  42.979   5.029
18787W        W87005  43.512  37.789   2.667
18788W        W87006   6.429  15.035   4.105
18789W        W87007  36.934   5.719  14.351
18790W        W87008  23.485  10.883   2.643
18791W        W87009   7.099  36.881   0.419
18792W        W87010  41.669  28.167   2.058
18793W        W87011   7.275   5.455  11.428
18794W        W87012  10.791  32.837   1.696
18795W        W87013  25.805  12.329   1.211
18796W        W87014  40.269  41.086  14.756
18797W        W87015   1.079  10.207   1.892
18798W        W87016  40.085  30.377  11.267
18799W        W87017   4.678  17.477   1.265
18800W        W87018  26.203  26.655   5.106
18801W        W87019  38.408  10.328   1.193
18802W        W87020   5.871  40.994  11.540
18803W        W87021  20.577   5.285  13.500
18804W        W87022  37.694  37.810  10.617
18805W        W87023   7.222  14.871   0.292
18806W        W87024  18.392   9.405  12.952
18807W        W87025  37.199  28.714   3.988
18808W        W87026  36.994  20.294   2.621
18809W        W87027  44.497  42.875  11.028
18810W        W87028  37.372  32.750  12.875
18811W        W87029  19.517  36.763   3.203
18812W        W87030   5.281  16.235  13.841
18813W        W87031  31.607  43.172  10.856
18814W        W87032   9.397  22.336   3.296
18815W        W87033  13.378  10.145  13.095
18816W        W87034  32.527  31.867   1.319
18817W        W87035  23.024  40.569   1.365
18818W        W87036  38.644  15.611   5.463
18819W        W87037  11.924   0.309   5.576
18820W        W87038   7.855  19.891  10.636
18821W        W87039   4.292  31.432  11.102
18822W        W87040  14.881  40.986  11.967
18823W        W87041  26.299  39.009  11.279
18824W        W87042  30.585  27.090   4.264
18825W        W87043  10.565  23.119   4.168
18826W        W87044  34.921  37.067  14.908
18827W        W87045  33.538  13.522   3.702
18828W        W87046   2.343  13.723  12.604
18829W        W87047   7.239  27.562   4.141
18830W        W87048  39.245  38.529   4.322
18831W        W87049  27.120  16.609  11.430
18832W        W87050  29.369   6.449  13.367
18833W        W87051  33.406  18.582   1.269
18834W        W87052  41.397  32.391  12.061
18835W        W87053  44.201  16.872  11.116
18836W        W87054   1.815   8.335  15.000
18837W        W87055  42.716  28.119  13.864
18838W        W87056  23.565  11.159  11.485
18839W        W87057  34.941   0.782   4.200
18840W        W87058  41.196  37.756  13.670
18841W        W87059   5.445   0.119   4.503
18842W        W87060   5.204  19.063  12.509
18843W        W87061  12.919  12.283   2.496
18844W        W87062  11.874  17.325  14.329
18845W        W87063  44.867  44.957   0.751
18846W        W87064  15.095  13.019   4.575
18847W        W87065   8.158  20.646   3.811
18848W        W87066  22.242  12.664   0.733
18849W        W87067  33.875  41.050   3.149
18850W        W87068  33.155  24.039  11.266
18851W        W87069  15.104   2.174  13.718
18852W        W87070  32.876  22.194  10.786
18853W        W87071  27.457  37.587   4.139
18854W        W87072  29.002   0.853   4.301
18855W        W87073   0.207  36.414   1.313
18856W        W87074  42.847  19.344  13.037
18857W        W87075  19.101  39.828  14.839
18858W        W87076   1.684  12.819  12.657
18859W        W87077  17.972  15.546   2.731
18860W        W87078   0.061  18.050  11.077
18861W        W87079  43.199  22.130   1.602
18862W        W87080  15.828  13.702   2.675
18863W        W87081   7.094   4.551   2.048
18864W        W87082  40.884  28.167   1.671
18865W        W87083  13.715  26.466  11.640
18866W        W87084   8.941  20.075   4.614
18867W        W87085  17.207   4.081  14.266
18868W        W87086  44.559  22.517   1.277
18869W        W87087  19.473  10.338  11.938
18870W        W87088  13.083  33.512   4.493
18871W        W87089   1.850   2.175   0.520
18872W        W87090  39.834   8.659   1.425
18873W        W87091  17.089  20.688  12.516
18874W        W87092   3.966  21.680  12.513
18875W        W87093  25.145  28.176  13.540
18876W        W87094  40.131  20.797  14.004
18877W        W87095  13.195  13.190  14.374
18878W        W87096  34.296  43.319   0.347
18879W        W87097  31.982   5.984   0.789
18880W        W87098  33.285  37.226  12.409
18881W        W87099  29.734  34.251  11.146
18882W        W87100   9.892   3.383  13.167
18883W        W87101  11.823  41.289   2.248
18884W        W87102  28.828  36.712  11.857
18885W        W87103   7.769  33.880  12.955
18886W        W87104  28.518  13.857   9.915
18887W        W87105  16.685  14.195  12.664
18888W        W87106  14.219  44.898  12.528
18889W        W87107  32.279   0.324  12.567
18890W        W87108  36.824  36.816   1.809
18891W        W87109  38.163  19.183   2.266
18892W        W87110  31.899  20.472  13.418
18893W        W87111   3.462   5.478  13.061
18894W        W87112  35.428  34.700  14.583
18895W        W87113  34.555  39.657  13.639
18896W        W87114  40.279  10.391  11.962
18897W        W87115  38.597  15.146  14.725
18898W        W87116   4.717  15.304   4.659
18899W        W87117  16.439  12.939   5.071
18900W        W87118  41.990  30.175  11.423
18901W        W87119  31.604  17.590   1.843
18902W        W87120  28.331  30.650  11.141
18903W        W87121  23.818   9.551   1.417
18904W        W87122  41.304  30.318   3.313
18905W        W87123  44.248  17.133   2.176
18906W        W87124  28.838  39.763   1.896
18907W        W87125   5.348  35.482  12.917
18908W        W87126   9.119  43.839   2.363
18909W        W87127   6.047  15.354   4.220
18910W        W87128  32.998  25.234  14.010
18911W        W87129   4.313  14.618   2.825
18912W        W87130   6.670  35.008  12.654
18913W        W87131   1.110  30.450  11.702
18914W        W87132  23.875  42.930  11.221
18915W        W87133  30.704  25.657   2.709
18916W        W87134   1.113  25.751  12.469
18917W        W87135  35.990  29.887   3.565
18918W        W87136  25.572  28.403  13.820
18919W        W87137   5.743  26.776   0.403
18920W        W87138  32.126   8.552  13.960
18921W        W87139  27.250   1.315   1.773
18922W        W87140  20.423  38.276  13.906
18923W        W87141   3.366   3.238   0.397
18924W        W87142  33.831  40.883   4.516
18925W        W87143  42.419   3.267  12.145
18926W        W87144  35.362  12.985  11.612
18927W        W87145  26.094  12.178   2.842
18928W        W87146  13.077  33.288  11.676
18929W        W87147  21.586  38.295   5.310
18930W        W87148  25.407  12.737  14.523
18931W        W87149  43.388  35.807  10.570
18932W        W87150  29.386  30.127  13.461
18933W        W87151   0.664   8.930  11.571
18934W        W87152  23.166   2.887  13.809
18935W        W87153  20.607  31.928   1.235
18936W        W87154  18.130  12.538   1.808
18937W        W87155   2.394   7.703   4.596
18938W        W87156   9.210  35.570  11.975
18939W        W87157   8.739  22.060   0.454
18940W        W87158   3.330  44.246   0.488
18941W        W87159  22.870  35.559   5.093
18942W        W87160  37.947  42.997  12.620
18943W        W87161   8.803  33.127  10.908
18944W        W87162  39.804  44.260   3.199
18945W        W87163  40.944  21.928   2.439
18946W        W87164  23.045  44.419  11.725
18947W        W87165   2.265  16.777  12.817
18948W        W87166   7.167  18.166  13.047
18949W        W87167  20.977  19.200   2.086
18950W        W87168  18.524  39.098   0.989
18951W        W87169   7.406  43.467  13.255
18952W        W87170  28.417  26.570  14.752
18953W        W87171  29.911  29.063  12.063
18954W        W87172  35.997   0.561   1.708
18955W        W87173  22.601  41.024   1.735
18956W        W87174  36.084  43.770   0.546
18957W        W87175   5.738  17.024  10.125
18958W        W87176  44.984  19.270   0.876
18959W        W87177  27.511  39.421  11.929
18960W        W87178  35.019  36.167   4.415
18961W        W87179   6.385  34.003   4.587
18962W        W87180  14.483  26.979   1.386
18963W        W87181  18.044  43.903  10.684
18964W        W87182  42.089  13.239  12.435
18965W        W87183  23.574  22.613  11.961
18966W        W87184  15.275  13.542  11.140
18967W        W87185  44.287  33.715   5.058
18968W        W87186  28.910   5.172  12.041
18969W        W87187   0.802  32.856   3.698
18970W        W87188  43.613  31.007   2.337
18971W        W87189  27.403  42.864   0.880
18972W        W87190  19.453  36.221   3.254
18973W        W87191  31.418  21.544   0.256
18974W        W87192  16.760   6.418   3.647
18975W        W87193  40.904  40.924  11.620
18976W        W87194   9.133  20.194  14.320
18977W        W87195  19.327  44.919   2.157
18978W        W87196  21.621  30.132  13.601
18979W        W87197  15.398   2.310   1.230
18980W        W87198  43.871  37.550   3.653
18981W        W87199   7.736  37.954   3.907
18982W        W87200   9.315  38.309   0.071
18983W        W87201  30.653  11.437   2.866
18984W        W87202   8.936  22.669   1.317
18985W        W87203  35.963  40.471  14.404
18986W        W87204  31.926  14.000  11.815
18987W        W87205  29.081  13.705   4.831
18988W        W87206  38.003  11.147   2.183
18989W        W87207  24.750  20.193  10.778
18990W        W87208  35.052  20.141  10.960
18991W        W87209  42.373  17.322  10.930
18992W        W87210  14.317  14.046  12.024
18993W        W87211  36.556  23.004  13.888
18994W        W87212  26.555  16.189  10.802
18995W        W87213  11.579  37.408  11.574
18996W        W87214  24.817   4.663   1.983
18997W        W87215  14.545  19.218   2.770
18998W        W87216  39.564   3.637  12.540
18999W        W87217  15.205  30.947  13.367
19000W        W87218  32.866  44.465  10.504
19001W        W87219  11.095   5.219  14.502
19002W        W87220  42.823  27.605  14.986
19003W        W87221   1.383  27.344  14.362
19004W        W87222  18.633   8.825  13.113
19005W        W87223  38.569  38.303  11.400
19006W        W87224   7.185  12.446   2.823
19007W        W87225  28.059  16.880  12.190
19008W        W87226  38.878  34.396  12.806
19009W        W87227  27.636   3.432   0.336
19010W        W87228  35.674   3.726  12.016
19011W        W87229  39.469  35.155   2.353
19012W        W87230  34.643  33.257  13.417
19013W        W87231  19.753  36.296   2.338
19014W        W87232   1.317   2.031  12.738
19015W        W87233   0.707   3.863  11.491
19016W        W87234  41.257  12.724   2.885
19017W        W87235   6.333   8.966  13.767
19018W        W87236  14.001  23.069  13.478
19019W        W87237  21.038  29.182   1.406
19020W        W87238  42.980  21.732   3.755
19021W        W87239  15.805   2.945  13.913
19022W        W87240  12.774  31.133  11.876
19023W        W87241  10.616  38.976  14.490
19024W        W87242  37.988   7.611   1.706
19025W        W87243   1.281  41.296   1.315
19026W        W87244   3.795  19.004  10.771
19027W        W87245  15.171   7.242   0.928
19028W        W87246  14.653  35.834  14.017
19029W        W87247  35.904  12.197   0.330
19030W        W87248  25.683  36.084  13.938
19031W        W87249  21.004  22.405  10.247
19032W        W87250  40.469  34.624   2.434
19033W        W87251   9.687  11.255  13.821
19034W        W87252  23.610  41.815   2.256
19035W        W87253  43.108  42.493  14.374
19036W        W87254  25.170  39.561  13.623
19037W        W87255  14.098   0.211  14.911
19038W        W87256  37.475  35.935  13.300
19039W        W87257  29.337  31.014  12.639
19040W        W87258  43.753  25.974  14.899
19041W        W87259  36.848  13.663   2.404
19042W        W87260  34.305   8.289   1.770
19043W        W87261   3.675  33.503   4.263
19044W        W87262   9.401   6.907   3.594
19045W        W87263  15.079   6.401  11.316
19046W        W87264  21.195  17.986   3.327
19047W        W87265  41.870  20.431  13.529
19048W        W87266  20.223   0.277  13.392
19049W        W87267  24.698  14.217  10.331
19050W        W87268  36.944   5.885   0.750
19051W        W87269   7.955  37.996  13.322
19052W        W87270   3.336  26.547   4.804
19053W        W87271  35.862  12.527   3.792
19054W        W87272  21.736  42.415  10.663
19055W        W87273  14.755  25.481   4.602
19056W        W87274  36.009  30.460  12.812
19057W        W87275   5.755  11.342  11.440
19058W        W87276   2.189  31.165   4.512
19059W        W87277  41.383   0.136   2.745
19060W        W87278  23.987  36.000  11.188
19061W        W87279  33.045  14.469  12.881
19062W        W87280   0.484  34.460  14.409
19063W        W87281   6.767  44.316  12.352
19064W        W87282   4.930   5.421   4.566
19065W        W87283  22.136  21.396   1.044
19066W        W87284   6.914  12.105  14.081
19067W        W87285  14.177  16.598  13.444
19068W        W87286  35.261  43.826  12.504
19069W        W87287  42.707  22.582   5.024
19070W        W87288   2.962  41.917  12.921
19071W        W87289  28.515  43.235  12.382
19072W        W87290   7.948  15.592   9.935
19073W        W87291   1.790  43.492   0.076
19074W        W87292  43.117  43.517  12.923
19075W        W87293  43.278  23.156   1.324
19076W        W87294  11.593  38.417   2.382
19077W        W87295  25.737  16.634   3.967
19078W        W87296  23.749  14.509  14.298
19079W        W87297  11.864  25.597   3.174
19080W        W87298  11.151  17.704   9.601
19081W        W87299   6.352   7.621  13.487
19082W        W87300  40.103  17.692   3.167
19083W        W87301   7.417  25.831   1.325
19084W        W87302  17.860   4.073  12.147
19085W        W87303  28.630  22.252  14.946
19086W        W87304  27.487  24.187  12.995
19087W        W87305  33.451  30.336  12.590
19088W        W87306  37.598   8.928  14.887
19089W        W87307  22.716  28.216  10.290
19090W        W87308  30.716  30.138   2.392
19091W        W87309  43.345  23.013   3.725
19092W        W87310  23.099  13.139  14.491
19093W        W87311   9.162   7.319   2.883
19094W        W87312  31.355  44.492   5.009
19095W        W87313  19.079  41.562  13.228
19096W        W87314  35.194  43.444  14.547
19097W        W87315  21.090  11.262  14.947
19098W        W87316  25.016   7.366  10.704
19099W        W87317  35.073  14.391   1.379
19100W        W87318  44.960  31.964   0.871
19101W        W87319  36.454  41.501   2.410
19102W        W87320  43.929  19.695  10.986
19103W        W87321   2.238   5.337  10.717
19104W        W87322   5.136  36.344   4.046
19105W        W87323  44.188  39.428   2.367
19106W        W87324  38.506  13.598  13.906
19107W        W87325  17.617   3.366   2.607
19108W        W87326  41.936  27.988  12.117
19109W        W87327  22.976  40.133   2.680
19110W        W87328   9.219  20.845   2.848
19111W        W87329  30.869  19.110   1.823
19112W        W87330   8.056  33.476  12.686
19113W        W87331  24.190  21.556   4.608
19114W        W87332  10.768  17.251   3.227
19115W        W87333  42.272  31.723  14.288
19116W        W87334  13.220   6.415   0.279
19117W        W87335   9.414  22.883   3.293
19118W        W87336  41.267   5.012  10.800
19119W        W87337  18.726   9.124  12.607
19120W        W87338  36.657  40.870   4.670
19121W        W87339  20.594   8.867   3.489
19122W        W87340   2.851  30.120   4.950
19123W        W87341  28.131  11.233   4.907
19124W        W87342  23.274   4.544  11.717
19125W        W87343  36.538  26.112   0.921
19126W        W87344  36.799  39.510  11.236
19127W        W87345  39.361  16.995  11.631
19128W        W87346  37.196  42.380  12.825
19129W        W87347  28.862  39.017  12.825
19130W        W87348  21.714   5.103   0.246
19131W        W87349  21.598  16.467   2.101
19132W        W87350  39.092  22.108   0.811
19133W        W87351  22.640   5.297  12.421
19134W        W87352  42.264   4.269   4.670
19135W        W87353  43.808   3.467   4.036
19136W        W87354  42.603  39.085  13.145
19137W        W87355  13.733  26.582   1.643
19138W        W87356  28.618  30.102  14.723
19139W        W87357  20.058  29.232  11.493
19140W        W87358  30.513  15.448   5.021
19141W        W87359   4.219  43.347   1.459
19142W        W87360  38.188  11.849   1.382
19143W        W87361   7.833  42.049   1.359
19144W        W87362  23.113  30.345   1.431
19145W        W87363   1.902  13.851  14.886
19146W        W87364   6.922  19.313   3.715
19147W        W87365  37.495  24.720   4.609
19148W        W87366  15.507  27.722  11.966
19149W        W87367   4.339  17.117   4.239
19150W        W87368  24.716  24.790   3.818
19151W        W87369  19.337  28.868  14.860
19152W        W87370  34.208   5.197  14.373
19153W        W87371  23.649  29.172   1.237
19154W        W87372  29.890  38.246   0.015
19155W        W87373  13.027  34.005   0.343
19156W        W87374  15.102  28.498   4.517
19157W        W87375   8.253  22.324  11.728
19158W        W87376  26.077   0.304   4.620
19159W        W87377  40.102   2.750   0.867
19160W        W87378  36.351  11.860  11.345
19161W        W87379  44.988  18.192   2.730
19162W        W87380  23.738  10.337  12.090
19163W        W87381  13.646   4.859  11.778
19164W        W87382  14.655  24.227  14.963
19165W        W87383  22.589  23.705  13.795
19166W        W87384  31.947   3.929  14.867
19167W        W87385  40.466  15.383  12.219
19168W        W87386  32.533  25.182   2.061
19169W        W87387  40.334  21.490   3.940
19170W        W87388  34.596  15.181   4.339
19171W        W87389  19.247  22.959  11.092
19172W        W87390   3.833  18.639  14.971
19173W        W87391  17.528   2.221  12.473
19174W        W87392   7.364  43.430  11.451
19175W        W87393  42.051   0.840  13.601
19176W        W87394  21.606  30.163   2.388
19177W        W87395   7.922  44.472   5.056
19178W        W87396  33.386  13.826  14.814
19179W        W87397  39.578  41.013  13.292
19180W        W87398  32.513  37.241  12.360
19181W        W87399  19.200   4.295  11.201
19182W        W87400  23.058   9.758   0.336
19183W        W87401  22.236  24.558   0.939
19184W        W87402  25.590  34.341   1.881
19185W        W87403   5.677  34.984  11.275
19186W        W87404  14.237   1.375  12.940
19187W        W87405  10.141  23.823  11.160
19188W        W87406  28.391   9.572  13.967
19189W        W87407  40.542  22.663   3.169
19190W        W87408  14.344  18.180   0.465
19191W        W87409  26.527   7.710  12.840
19192W        W87410  10.006  22.600   0.060
19193W        W87411   0.824  18.985   3.354
19194W        W87412  32.158  38.052   3.336
19195W        W87413  25.038   4.042  14.955
19196W        W87414  10.113  18.961  11.516
19197W        W87415  12.356  36.663   1.351
19198W        W87416  16.082  28.964  11.569
19199W        W87417  37.092  39.516   0.692
19200W        W87418  28.044  29.610   2.908
19201W        W87419   4.579  30.240  13.467
19202W        W87420  22.303  35.084  13.979
19203W        W87421   6.622  43.298  12.643
19204W        W87422  20.517  44.882   2.678
19205W        W87423  14.277  27.095  12.650
19206W        W87424  22.360  27.180   1.847
19207W        W87425  16.092   4.709   4.858
19208W        W87426  34.488  43.375  14.039
19209W        W87427  11.690   8.897   2.920
19210W        W87428  27.608  35.731   1.765
19211W        W87429  40.038  28.679   0.997
19212W        W87430  41.840  37.338   1.737
19213W        W87431  35.448  36.835  13.236
19214W        W87432   1.146  13.644  10.275
19215W        W87433  39.059  15.885  10.846
19216W        W87434   8.080   4.237  14.591
19217W        W87435   7.609  19.230  11.903
19218W        W87436   1.298   9.194   4.581
19219W        W87437  11.618  22.049   1.369
19220W        W87438   7.920  21.046   1.153
19221W        W87439  16.356  31.982  12.162
19222W        W87440  41.477  24.468  13.973
19223W        W87441  13.660  44.448   1.459
19224W        W87442   6.910  21.293   3.568
19225W        W87443   8.764  23.006   3.052
19226W        W87444  18.624  18.288   2.965
19227W        W87445  30.569  41.780   0.918
19228W        W87446  11.808  35.444   1.762
19229W        W87447  26.114   2.080  13.461
19230W        W87448  18.228  25.778  13.576
19231W        W87449  42.534   6.935   3.279
19232W        W87450  21.750  44.678   4.096
19233W        W87451   1.922  40.332  14.944
19234W        W87452   8.844  26.527  13.955
19235W        W87453  32.573  14.131  12.952
19236W        W87454   3.275   5.673   4.097
19237W        W87455  11.821  20.977  11.705
19238W        W87456   5.179  20.578  11.695
19239W        W87457   3.822  38.239  12.852
19240W        W87458  40.422  25.583   1.286
19241W        W87459  19.497  10.159   0.278
19242W        W87460   7.709  31.372  10.743
19243W        W87461   3.179  18.530   0.566
19244W        W87462  35.838  15.940  11.624
19245W        W87463  35.553  31.505   4.379
19246W        W87464  19.043  10.824   3.014
19247W        W87465  20.421   0.826  11.689
19248W        W87466  25.172   9.221   1.820
19249W        W87467  19.729  26.989   1.782
19250W        W87468  25.759  11.838   3.030
19251W        W87469  34.990  22.923   4.133
19252W        W87470  23.203  36.364  10.439
19253W        W87471   3.924  14.608  14.021
19254W        W87472  26.659  16.564  14.384
19255W        W87473  29.333  23.168   3.604
19256W        W87474   5.110  39.242   0.969
19257W        W87475  35.589  28.075  12.357
19258W        W87476  36.090  31.038   1.465
19259W        W87477  40.479  14.244   0.621
19260W        W87478  34.168  43.420   2.824
19261W        W87479   0.708  26.040  14.864
19262W        W87480  19.055  42.907   2.255
19263W        W87481  19.798   1.252  14.540
19264W        W87482  24.540  35.445   4.975
19265W        W87483  21.115  17.142   3.535
19266W        W87484  22.317  15.800  13.392
19267W        W87485  28.551  35.397   1.648
19268W        W87486  30.958   2.981   1.831
19269W        W87487  26.830  21.429   4.127
19270W        W87488  23.211  13.866  12.578
19271W        W87489  26.666  41.254   3.349
19272W        W87490   0.374  38.921  14.545
19273W        W87491  22.263  37.421   3.633
19274W        W87492  36.821   9.740   4.219
19275W        W87493  17.263   4.439   0.705
19276W        W87494  13.851   8.209   0.353
19277W        W87495  13.517  35.533   1.190
19278W        W87496  27.099  36.462  10.492
19279W        W87497  37.708  12.215   1.844
19280W        W87498  41.514   0.949   4.502
19281W        W87499  38.079   6.294   1.385
19282W        W87500  21.190  31.590   0.214
19283W        W87501  39.604  14.567   0.397
19284W        W87502  22.503  44.457  10.353
19285W        W87503  25.724  26.481   2.763
19286W        W87504   8.454  36.535  11.612
19287W        W87505  41.400  28.942  14.249
19288W        W87506  28.614  11.786  13.533
19289W        W87507  39.429   8.217  13.028
19290W        W87508   6.182  32.228  11.122
19291W        W87509  20.441  11.783   3.197
19292W        W87510  43.228  44.502  13.861
19293W        W87511   8.966  15.301  13.093
19294W        W87512  31.557  14.824   5.012
19295W        W87513  26.038   3.755   0.069
19296W        W87514  35.911  19.999   1.352
19297W        W87515  19.135  42.767  11.645
19298W        W87516  24.575  26.461  13.836
19299W        W87517  30.174  12.888  13.942
19300W        W87518  10.760  22.170   1.649
19301W        W87519  15.177  19.285   0.994
19302W        W87520   2.426   8.699  14.601
19303W        W87521   3.348   5.944   1.757
19304W        W87522  14.962   9.242   4.508
19305W        W87523  19.891  15.234  12.410
19306W        W87524  25.215   0.858   0.669
19307W        W87525  32.956  31.070   1.296
19308W        W87526  16.186  22.621   2.302
19309W        W87527  25.011  37.923  11.110
19310W        W87528  17.832  15.683   0.663
19311W        W87529   1.734   9.803  13.104
19312W        W87530   4.707  38.100  14.295
19313W        W87531  15.268  17.654   4.128
19314W        W87532  23.631  13.832  13.517
19315W        W87533  35.607  34.966  10.647
19316W        W87534  26.656  27.244   1.077
19317W        W87535  23.071   5.958   0.214
19318W        W87536  31.632  29.644  12.515
19319W        W87537  32.623   6.908  12.835
19320W        W87538  22.062  21.741  12.546
19321W        W87539  27.060  17.323   4.158
19322W        W87540   5.187  40.040  13.290
19323W        W87541  41.253   1.627  10.301
19324W        W87542  11.482  22.281   3.455
19325W        W87543  42.484  19.524  14.350
19326W        W87544  15.243  34.109   4.253
19327W        W87545  41.757  26.436   2.450
19328W        W87546  23.565  27.592   1.179
19329W        W87547  33.129  38.658   0.739
19330W        W87548  30.039  12.542  13.131
19331W        W87549  16.869  33.865   3.804
19332W        W87550  41.130  10.670   3.576
19333W        W87551  17.983   3.915  14.401
19334W        W87552  30.425   5.281   0.524
19335W        W87553   3.616   9.457   4.174
19336W        W87554  10.140  43.742  12.580
19337W        W87555  35.700  42.409  11.476
19338W        W87556   6.699  27.400   4.785
19339W        W87557  26.179  32.642  12.623
19340W        W87558  29.787  23.470   4.235
19341W        W87559  13.486  26.276  11.196
19342W        W87560  23.574  42.962  11.666
19343W        W87561   2.475  10.152   4.675
19344W        W87562  17.631  35.583  13.363
19345W        W87563  37.977  33.356   1.330
19346W        W87564  33.352   4.312   0.930
19347W        W87565  29.508   7.379   2.762
19348W        W87566  16.832  42.949  12.136
19349W        W87567   3.998   4.262   3.153
19350W        W87568  12.623  42.342   2.381
19351W        W87569   0.476  29.599   1.808
19352W        W87570  29.197  42.032  11.952
19353W        W87571   1.987  43.266   4.611
19354W        W87572   6.875  30.994  11.162
19355W        W87573  28.348  30.411  13.040
19356W        W87574   5.385  40.821  11.536
19357W        W87575  40.369  23.643  11.224
19358W        W87576  25.475  22.480  14.428
19359W        W87577  41.757   0.267   3.090
19360W        W87578  41.045  13.862   3.587
19361W        W87579  17.580  33.091   0.813
19362W        W87580  33.405   3.288   4.960
19363W        W87581  26.839  43.425  13.879
19364W        W87582  11.691   9.349   2.667
19365W        W87583   9.608  32.697   4.038
19366W        W87584  42.536   8.934   1.150
19367W        W87585  42.946  35.519   3.365
19368W        W87586   1.739  21.252  12.435
19369W        W87587  27.464  14.837  13.030
19370W        W87588  17.831  34.499  13.485
19371W        W87589   4.447  39.493  11.746
19372W        W87590   4.112  44.825  13.962
19373W        W87591  26.012  25.533  14.827
19374W        W87592  16.669  34.293   2.966
19375W        W87593  24.418  19.673  13.823
19376W        W87594  26.702   7.346   0.178
19377W        W87595  11.673  31.738  10.985
19378W        W87596  31.658  30.142  11.594
19379W        W87597  29.912  29.406  13.870
19380W        W87598  23.012  29.455  11.527
19381W        W87599  44.989   8.327   0.473
19382W        W87600  22.194   1.349   2.382
19383W        W87601  39.774  14.741  13.485
19384W        W87602  44.325  44.819  13.690
19385W        W87603   1.861   0.883   3.043
19386W        W87604  18.140   6.675   0.032
19387W        W87605   6.744  40.434  10.725
19388W        W87606  32.392  38.274   2.348
19389W        W87607   2.968  13.850   3.219
19390W        W87608  15.154  29.043   1.863
19391W        W87609  34.791  43.547   3.746
19392W        W87610  26.556   1.952  14.239
19393W        W87611   6.494  43.570  14.549
19394W        W87612  41.815  39.038   4.988
19395W        W87613   3.864  28.295  11.627
19396W        W87614  25.730   0.853   0.620
19397W        W87615  20.682  23.616   1.294
19398W        W87616  35.444  41.288  13.875
19399W        W87617   2.865  23.027   2.357
19400W        W87618  25.528  21.544  14.552
19401W        W87619  15.379  31.908  10.771
19402W        W87620  38.943   0.013  10.514
19403W        W87621   6.894  40.440   3.300
19404W        W87622  14.285  30.571  12.396
19405W        W87623   7.464  12.300   4.543
19406W        W87624  10.209  23.516   1.884
19407W        W87625  34.682   5.834  12.417
19408W        W87626  14.766   9.702  10.899
19409W        W87627   2.182   1.321   2.445
19410W        W87628   6.365  24.438  11.538
19411W        W87629  41.715  41.344   3.271
19412W        W87630  11.122  37.413   0.230
19413W        W87631   7.627  40.613  14.832
19414W        W87632  12.186  15.285   1.461
19415W        W87633   9.505  27.081  13.152
19416W        W87634  39.168   5.489  10.375
19417W        W87635   1.886   8.291   0.535
19418W        W87636  27.635  25.257  14.372
19419W        W87637  22.797  15.225   3.431
19420W        W87638   6.021  40.914   0.045
19421W        W87639  21.517  10.727  14.815
19422W        W87640  31.898  11.705  10.751
19423W        W87641  37.929   1.718  14.806
19424W        W87642  42.798  10.663  11.138
19425W        W87643   3.968  34.940  12.331
19426W        W87644  17.292  44.749   0.393
19427W        W87645  29.369  36.980  14.921
19428W        W87646  10.887  24.513   0.833
19429W        W87647   4.888  44.426  12.069
19430W        W87648   5.022  12.693   0.413
19431W        W87649   2.343  14.169   3.627
19432W        W87650  39.558   7.759  10.782
19433W        W87651  14.863  36.514  12.913
19434W        W87652  33.983  20.548   2.497
19435W        W87653  41.406  31.004  14.303
19436W        W87654  37.105  23.730  13.943
19437W        W87655  36.593  43.885   0.724
19438W        W87656   2.516  20.850  12.108
19439W        W87657   0.081  20.092   0.351
19440W        W87658   9.958   3.182  11.676
19441W        W87659   4.148  24.124   3.398
19442W        W87660  20.144  33.098   1.596
19443W        W87661  30.843  11.896  12.545
19444W        W87662  18.299  16.567   0.859
19445W        W87663  22.254   7.688  11.945
19446W        W87664  19.508  40.465   0.229
19447W        W87665  42.818   9.446  10.794
19448W        W87666  13.009  30.090   2.623
19449W        W87667  20.628  27.724   3.534
19450W        W87668  32.714  10.947   1.718
19451W        W87669  36.565  10.582  11.478
19452W        W87670  11.715  25.696  12.608
19453W        W87671  33.109  21.140   1.181
19454W        W87672   9.424  20.110   0.255
19455W        W87673   1.037  25.033   1.823
19456W        W87674  13.912  22.584   2.607
19457W        W87675  15.190  44.275   0.231
19458W        W87676  15.237  38.818  12.440
19459W        W87677  40.618  20.739  14.768
19460W        W87678  22.581  24.976  11.274
19461W        W87679  28.720  35.882   3.075
19462W        W87680  40.493   9.264   0.465
19463W        W87681  17.191  23.712  11.979
19464W        W87682  11.258  30.993  14.790
19465W        W87683  33.086  26.251   3.758
19466W        W87684  25.397  37.538   3.633
19467W        W87685   6.381  25.250   5.299
19468W        W87686  32.243  27.980   0.425
19469W        W87687  22.989  42.932  14.395
19470W        W87688  12.164  29.200   0.929
19471W        W87689   4.327  38.065  12.879
19472W        W87690   9.425  43.855   4.577
19473W        W87691  30.174  12.299   1.743
19474W        W87692  12.770   8.423   2.763
19475W        W87693  23.969  42.442  13.311
19476W        W87694   7.763  13.581   1.395
19477W        W87695   7.712  43.213  10.728
19478W        W87696  18.795  25.450  12.123
19479W        W87697  29.472  40.986   0.856
19480W        W87698   9.900  17.617  12.100
19481W        W87699  13.886   5.256   0.304
19482W        W87700  14.555  17.612  12.527
19483W        W87701  37.859  15.800   4.133
19484W        W87702  19.135   1.877  11.348
19485W        W87703   6.133  43.297   1.801
19486W        W87704  43.823   4.341   2.680
19487W        W87705  33.950  34.061   4.127
19488W        W87706   6.678   3.523   1.722
19489W        W87707  23.771  44.271   4.499
19490W        W87708  35.017   9.947  13.813
19491W        W87709  23.181   2.207   3.636
19492W        W87710  42.644  29.601   2.488
19493W        W87711  26.800  18.305  10.396
19494W        W87712  22.366  43.570   1.671
19495W        W87713  22.188  23.239   1.894
19496W        W87714   1.989  41.675   0.208
19497W        W87715  36.300  14.786  12.289
19498W        W87716  18.726   4.313   3.281
19499W        W87717  36.472  29.594  13.835
19500W        W87718  41.817  35.557  13.536
19501W        W87719  12.038   3.903   2.659
19502W        W87720  22.580  39.386   0.939
19503W        W87721  37.779  24.430   1.430
19504W        W87722  36.544  28.692  13.599
19505W        W87723   7.431  16.715   1.666
19506W        W87724  20.957  32.529  11.180
19507W        W87725   5.993   7.865  14.473
19508W        W87726  27.975   0.938  10.829
19509W        W87727  41.554  18.274   2.846
19510W        W87728   0.044  44.717  10.939
19511W        W87729  22.948   3.759   2.318
19512W        W87730  28.664  44.366  13.260
19513W        W87731  34.205  37.791  12.008
19514W        W87732  41.017  29.011  13.414
19515W        W87733  10.197  37.020  14.219
19516W        W87734  17.557  37.958   1.229
19517W        W87735  41.715  16.829   0.491
19518W        W87736  26.142   2.826  12.556
19519W        W87737  41.074  10.394   4.169
19520W        W87738  23.965  40.561   0.767
19521W        W87739  14.021  41.377  11.967
19522W        W87740  29.183   3.872  10.198
19523W        W87741  11.087  32.441   1.515
19524W        W87742  14.993  11.934  12.797
19525W        W87743  28.112  22.665   4.500
19526W        W87744   1.900  26.253   3.741
19527W        W87745  13.301   6.616  11.139
19528W        W87746  12.109  42.059  14.539
19529W        W87747  41.899  18.511  11.548
19530W        W87748  23.218   0.383   0.347
19531W        W87749   1.325  17.264   2.289
19532W        W87750  42.093  21.937  13.012
19533W        W87751  13.921  18.251   3.269
19534W        W87752  20.818  33.520   4.698
19535W        W87753   9.106  10.133  10.393
19536W        W87754  29.506  11.694   4.585
19537W        W87755   9.627  41.930  11.019
19538W        W87756  16.326  13.196   4.074
19539W        W87757  16.272  18.283  11.134
19540W        W87758   2.005  39.531  13.878
19541W        W87759   7.514  12.657   2.413
19542W        W87760  10.308   9.659  11.710
19543W        W87761  20.181  25.434   4.327
19544W        W87762  27.054   4.821   0.733
19545W        W87763  11.713  42.974   4.610
19546W        W87764  31.453  16.816  11.542
19547W        W87765  33.189  41.005  13.527
19548W        W87766  35.267  23.615  13.796
19549W        W87767  38.757  29.855   0.382
19550W        W87768  14.048  21.979  11.408
19551W        W87769  15.978  26.118  11.636
19552W        W87770  10.599  27.121  12.533
19553W        W87771  42.905   8.250   4.490
19554W        W87772  36.765  17.621   1.778
19555W        W87773  12.053  29.909  12.947
19556W        W87774  43.903  28.597   4.456
19557W        W87775  39.547  25.653  13.087
19558W        W87776  18.764  40.873  12.514
19559W        W87777   8.485  14.858   4.112
19560W        W87778  44.455  42.000   0.579
19561W        W87779  28.876  20.954   1.233
19562W        W87780   9.882  36.291   0.829
19563W        W87781  22.965  40.412  10.776
19564W        W87782  10.848  23.593   2.690
19565W        W87783  11.143   3.906   0.307
19566W        W87784   4.636  32.245  10.217
19567W        W87785  21.563  19.618  12.569
19568W        W87786  29.380  22.658  11.847
19569W        W87787  17.450   0.302  14.399
19570W        W87788  44.779  38.996   9.850
19571W        W87789  42.944  16.778   1.114
19572W        W87790  41.032   9.149  13.966
19573W        W87791  21.812  30.530   1.840
19574W        W87792   0.574  37.926  11.629
19575W        W87793  40.706   2.934   9.972
19576W        W87794  38.996  11.231  10.166
19577W        W87795  32.263  14.096   5.121
19578W        W87796  19.230  38.711  12.032
19579W        W87797  31.085   1.457   1.873
19580W        W87798  22.496  40.144  13.885
19581W        W87799  26.556   5.443   0.812
19582W        W87800  41.100  32.338  12.856
19583W        W87801  23.080  38.862  11.138
19584W        W87802  11.777  24.152   4.894
19585W        W87803  15.673  27.709   5.082
19586W        W87804  15.797  15.239  11.663
19587W        W87805   4.361  24.544   0.812
19588W        W87806  27.493   7.552  14.537
19589W        W87807  28.655  20.745   3.613
19590W        W87808  12.791  40.846  12.125
19591W        W87809  40.875   9.084   0.766
19592W        W87810  42.820  21.308  14.281
19593W        W87811  26.981   1.176   2.426
19594W        W87812  31.877  16.280  13.972
19595W        W87813  30.012  44.451  12.704
19596W        W87814  13.915  33.999   3.700
19597W        W87815  32.380  18.117  12.639
19598W        W87816  33.659  33.474  14.815
19599W        W87817  16.183  44.299  13.659
19600W        W87818  30.678   1.277   0.383
19601W        W87819  16.010  16.520   3.726
19602W        W87820  22.330   6.966   4.135
19603W        W87821  22.172  11.646  13.862
19604W        W87822  21.146  11.411  12.022
19605W        W87823   4.392  43.917   4.058
19606W        W87824  39.250  22.661   4.168
19607W        W87825   9.873   6.926  13.756
19608W        W87826  31.228  16.769   5.039
19609W        W87827  44.058  24.064  13.297
19610W        W87828  11.331  37.461   0.709
19611W        W87829  12.987  44.070   1.498
19612W        W87830  34.901  17.651   2.822
19613W        W87831  38.828  19.203   1.717
19614W        W87832   2.906  11.723  11.887
19615W        W87833  32.910  42.827  14.506
19616W        W87834  44.396   0.661   3.638
19617W        W87835  31.911  37.163   0.777
19618W        W87836  37.092  15.537  11.931
19619W        W87837  43.360  36.441  12.416
19620W        W87838  17.203  27.896  12.004
19621W        W87839   5.200  38.843   2.639
19622W        W87840   8.633  40.496  14.391
19623W        W87841   3.321  26.069  12.489
19624W        W87842  12.582  27.087  10.452
19625W        W87843  28.563  12.991  11.491
19626W        W87844   0.773   8.724  11.107
19627W        W87845  43.982  22.642  13.925
19628W        W87846   2.442  39.765   2.723
19629W        W87847   4.733   3.744   4.657
19630W        W87848  18.686  22.844   4.004
19631W        W87849   0.412  40.281  13.537
19632W        W87850  29.133  12.119   0.368
19633W        W87851  35.444  32.362  12.292
19634W        W87852  43.752  17.321   0.455
19635W        W87853   7.671   2.763   4.397
19636W        W87854  31.203   1.419   2.689
19637W        W87855  11.654  35.693  11.087
19638W        W87856  41.113  16.157   4.300
19639W        W87857  19.287  22.529   1.351
19640W        W87858  14.148  36.432  14.643
19641W        W87859  20.175   2.969  12.443
19642W        W87860  37.794  30.086   0.576
19643W        W87861  21.542  17.277   1.203
19644W        W87862  21.416  30.528   0.838
19645W        W87863  21.487  12.796  11.106
19646W        W87864  15.255  16.301  12.812
19647W        W87865  32.974  27.523  13.475
19648W        W87866  26.680  17.728   2.720
19649W        W87867  22.719  11.838   0.767
19650W        W87868   8.823   7.600   1.624
19651W        W87869   0.566  11.021  13.968
19652W        W87870   8.574  18.672   3.248
19653W        W87871   3.148  26.612   0.300
19654W        W87872  27.321  39.403   2.339
19655W        W87873  22.765  39.325   4.796
19656W        W87874   9.006  22.092   2.333
19657W        W87875  27.108  11.183   3.246
19658W        W87876  10.743  42.790   4.407
19659W        W87877  33.907   1.406   3.738
19660W        W87878  43.752  13.575  14.900
19661W        W87879   3.320  34.683  12.597
19662W        W87880   1.456  35.148  11.754
19663W        W87881  35.902  29.746  13.955
19664W        W87882  14.192  29.905   3.682
19665W        W87883  23.552  27.434   0.692
19666W        W87884  41.586  13.862   2.821
19667W        W87885  42.448  33.067   0.337
19668W        W87886  16.669   3.233   3.641
19669W        W87887  12.782  11.148  13.783
19670W        W87888  35.334  28.882  14.640
19671W        W87889  20.100   6.469  13.090
19672W        W87890   2.027  11.173   0.817
19673W        W87891  29.000  28.072   2.690
19674W        W87892  25.991  17.842   4.806
19675W        W87893  33.684  33.279  13.304
19676W        W87894  24.627  43.705  10.584
19677W        W87895   8.439  39.984   2.304
19678W        W87896  40.617  33.882  12.271
19679W        W87897   1.192   1.167   1.331
19680W        W87898   5.028  36.466  14.016
19681W        W87899  27.188  40.495   3.300
19682W        W87900  14.344  22.657   4.583
19683W        W87901  15.779  11.328   4.646
19684W        W87902   3.333  44.613  12.028
19685W        W87903   9.404   0.779  13.430
19686W        W87904  20.621  36.463  12.575
19687W        W87905  14.266  25.452   0.871
19688W        W87906  34.734  27.129   4.128
19689W        W87907  35.206  21.061  11.624
19690W        W87908  42.959   9.805   2.188
19691W        W87909   5.692   4.398  12.139
19692W        W87910  21.005  28.017   1.240
19693W        W87911  21.409  15.629   3.195
19694W        W87912  34.044   5.373   1.565
19695W        W87913  32.591  36.040  10.670
19696W        W87914  31.757  12.725  10.733
19697W        W87915  40.780  12.552  13.554
19698W        W87916  10.452  29.569  10.457
19699W        W87917  17.605  29.902  11.031
19700W        W87918  20.812  37.851   4.557
19701W        W87919  25.663  10.825   2.298
19702W        W87920   1.230  19.770  14.367
19703W        W87921  29.948   7.056  12.431
19704W        W87922  13.680  26.225   4.161
19705W        W87923  43.729  40.079   1.326
19706W        W87924  34.598  16.688   0.273
19707W        W87925  19.283  12.244   3.525
19708W        W87926  25.383  41.911   3.693
19709W        W87927  38.488  16.533   2.753
19710W        W87928   2.626  16.941   0.461
19711W        W87929   7.607  13.369  13.055
19712W        W87930  13.642   3.849   0.296
19713W        W87931   3.207   4.187  14.502
19714W        W87932  24.895  29.102  11.951
19715W        W87933  30.591  24.426   1.912
19716W        W87934  16.336  42.055   4.235
19717W        W87935  43.837  33.397  14.073
19718W        W87936  41.849  14.207  13.919
19719W        W87937  29.989  43.764   3.625
19720W        W87938  25.796  44.341   4.658
19721W        W87939  28.386   7.723  14.139
19722W        W87940  18.643   7.141  12.983
19723W        W87941  33.208  16.070  14.477
19724W        W87942  20.754  33.141   3.159
19725W        W87943   5.857  40.538  14.729
19726W        W87944  26.628  22.481  11.579
19727W        W87945  42.738  21.234   1.203
19728W        W87946  26.677   5.074  14.987
19729W        W87947   6.919  33.166  12.136
19730W        W87948  24.612   7.144  14.679
19731W        W87949  23.610   0.017  14.925
19732W        W87950  12.245  17.103   3.644
19733W        W87951  38.437  19.290   0.765
19734W        W87952  16.912  21.324   4.138
19735W        W87953   6.781  38.416  14.725
19736W        W87954  24.968  11.436   2.472
19737W        W87955  35.747   9.872  11.486
19738W        W87956  29.674  11.277  12.934
19739W        W87957  29.236  16.241   0.828
19740W        W87958   1.889  40.480   4.087
19741W        W87959   3.754  22.745   3.000
19742W        W87960  23.259  26.616   0.800
19743W        W87961  43.394  31.437  11.688
19744W        W87962  29.088   9.319   3.611
19745W        W87963  23.910  34.053  10.992
19746W        W87964  31.865  29.182   5.166
19747W        W87965  19.680  14.335   1.658
19748W        W87966   7.697  20.824   3.044
19749W        W87967  40.601  38.252   1.839
19750W        W87968  23.682  36.836  14.861
19751W        W87969  41.371  28.472  14.458
19752W        W87970  42.900  39.241   4.601
19753W        W87971  12.014  36.796   0.328
19754W        W87972  12.179  16.361   4.909
19755W        W87973  22.604   1.545  10.685
19756W        W87974  34.105  37.411  13.314
19757W        W87975  27.148   8.353  12.061
19758W        W87976  35.174  42.937  12.010
19759W        W87977   3.366   5.327  14.064
19760W        W87978  40.774  11.795  12.469
19761W        W87979  39.003  18.520   0.966
19762W        W87980  42.988   6.961   2.681
19763W        W87981   0.035  28.631   4.068
19764W        W87982  24.091  23.419   5.014
19765W        W87983  20.706  33.037  13.985
19766W        W87984  11.061  42.044  14.431
19767W        W87985  38.759  44.486  10.225
19768W        W87986  37.011  29.517   2.078
19769W        W87987  25.556  15.182   5.015
19770W        W87988  39.324  34.068   4.324
19771W        W87989  44.037  13.326  12.841
19772W        W87990  40.278  17.447  14.631
19773W        W87991  27.948  29.961   1.964
19774W        W87992  43.112   1.299  11.390
19775W        W87993  25.130  33.790   2.331
19776W        W87994  26.607  24.800  12.880
19777W        W87995   7.254  41.543  11.790
19778W        W87996   1.940  18.288   4.594
19779W        W87997  17.245   4.173   3.919
19780W        W87998  39.184  26.975  13.357
19781W        W87999   4.272  34.623  10.298
19782W        W88000  16.832  44.315   4.607
19783W        W88001  19.557  11.378   0.356
19784W        W88002  30.071  19.064   1.095
19785W        W88003  31.951   2.140   0.948
19786W        W88004  30.001  44.994   1.332
19787W        W88005  29.645  33.074   2.765
19788W        W88006  19.469   0.264  12.436
19789W        W88007  42.997   5.745  14.449
19790W        W88008  23.503  15.971  11.207
19791W        W88009  19.586   3.281  14.543
19792W        W88010  19.071  30.764  12.081
19793W        W88011   4.953  23.046  12.276
19794W        W88012  26.818  14.831   2.258
19795W        W88013  43.224  17.531   2.599
19796W        W88014  40.428  25.575  13.447
19797W        W88015  23.474  19.152   4.538
19798W        W88016  41.091  33.286   2.636
19799W        W88017  32.962  38.682   1.231
19800W        W88018  44.111  34.260   2.893
19801W        W88019   4.342  12.901   2.405
19802W        W88020  30.589  15.096   2.727
19803W        W88021   9.054  33.992   0.588
19804W        W88022   8.779   1.479   1.299
19805W        W88023  14.976  36.375  11.036
19806W        W88024  14.597  34.640   0.905
19807W        W88025  11.342  44.234   4.634
19808W        W88026   3.330   6.485   0.741
19809W        W88027   3.891  40.325  13.075
19810W        W88028   3.335  29.175   3.080
19811W        W88029   5.056  19.893   2.819
19812W        W88030   2.420  16.122   0.767
19813W        W88031  35.547  24.242  12.450
19814W        W88032  33.621  14.608   1.352
19815W        W88033   0.439  11.366   2.375
19816W        W88034  13.201  40.827   3.552
19817W        W88035  29.850   0.471   2.714
19818W        W88036  26.915   3.468  11.333
19819W        W88037  11.803  33.399  13.558
19820W        W88038  21.646  41.246   0.991
19821W        W88039  18.427  40.866  13.680
19822W        W88040   6.890  38.539  10.397
19823W        W88041  19.281  15.615   2.960
19824W        W88042  31.675  10.214  12.937
19825W        W88043  15.273  40.975   3.933
19826W        W88044  19.765   0.219   0.463
19827W        W88045  37.800  24.662   1.905
19828W        W88046  32.694   0.309  14.733
19829W        W88047  43.895  33.556   4.766
19830W        W88048  15.232  33.767  11.213
19831W        W88049  10.481  11.782  12.122
19832W        W88050   1.969  43.085  12.969
19833W        W88051   8.672   7.143   1.816
19834W        W88052   0.504  22.075  12.638
19835W        W88053   0.009   3.238   0.538
19836W        W88054  25.539  19.276   0.448
19837W        W88055  37.401  14.894   0.223
19838W        W88056  10.628  37.953   1.733
19839W        W88057  29.916  44.278  13.574
19840W        W88058  29.067  14.228   4.609
19841W        W88059   0.032  41.492   0.941
19842W        W88060   5.296  19.517  10.730
19843W        W88061  25.530  17.789  14.004
19844W        W88062  36.790   1.796   4.558
19845W        W88063  14.132  39.114  13.361
19846W        W88064  10.111  19.252   2.880
19847W        W88065  37.845  44.623  13.298
19848W        W88066  13.705  42.665  12.974
19849W        W88067  33.412  37.959   3.876
19850W        W88068  34.132  44.176   9.945
19851W        W88069   2.402  23.832   4.963
19852W        W88070  25.157  44.047   1.158
19853W        W88071  44.778   1.930   1.983
19854W        W88072  14.389  44.898   0.233
19855W        W88073  26.770  27.624  13.355
19856W        W88074   4.317  14.169   4.650
19857W        W88075   0.441   4.486  12.102
19858W        W88076  31.437  36.225   0.982
19859W        W88077   5.428  31.068  14.671
19860W        W88078  41.438  35.514   4.550
19861W        W88079  23.123  10.289   3.205
19862W        W88080  40.292  14.169  13.880
19863W        W88081  31.521  34.879  13.124
19864W        W88082   9.705   2.123   2.192
19865W        W88083  43.526   3.667   2.776
19866W        W88084   7.716  14.343   2.664
19867W        W88085  20.530  40.454  12.387
19868W        W88086   9.134  10.603  13.326
19869W        W88087   1.524   6.489   2.209
19870W        W88088  40.964  38.522  13.429
19871W        W88089  33.760  15.330  10.710
19872W        W88090   5.958  44.017   1.271
19873W        W88091  40.487  44.255  14.919
19874W        W88092  21.377  43.755  10.746
19875W        W88093  20.788  43.150  12.869
19876W        W88094  27.537   4.726   0.918
19877W        W88095   3.306  25.234   4.337
19878W        W88096   1.030  17.226  14.948
19879W        W88097  12.601  40.742   3.983
19880W        W88098  15.089  24.632   0.411
19881W        W88099  10.343  11.184   5.077
19882W        W88100  39.450  34.106  13.477
19883W        W88101  30.832  13.418  12.414
19884W        W88102  28.190  11.856  13.831
19885W        W88103  22.671  31.934  12.858
19886W        W88104  38.351  22.159  13.409
19887W        W88105  29.115  38.553   4.152
19888W        W88106  44.371  33.550   4.534
19889W        W88107  20.737  10.628  12.315
19890W        W88108  43.035  20.644   0.468
19891W        W88109  24.670   1.909  11.614
19892W        W88110  17.243  23.198  11.998
19893W        W88111   5.795   6.338   2.073
19894W        W88112  36.120  39.249   3.218
19895W        W88113  40.848  22.305  11.176
19896W        W88114  10.840   5.190   1.353
19897W        W88115  20.221  23.903   4.194
19898W        W88116  22.150  18.094  13.957
19899W        W88117  32.084   8.783   0.033
19900W        W88118  43.777  31.088  11.968
19901W        W88119  22.487  37.598   1.576
19902W        W88120   7.412   9.267   3.583
19903W        W88121   7.772   2.980   2.156
19904W        W88122  10.244   8.847   0.944
19905W        W88123  24.617  21.552   0.747
19906W        W88124  16.991  26.578  11.019
19907W        W88125   9.885  39.859  12.335
19908W        W88126  12.125  31.007   4.161
19909W        W88127   4.160  40.531   0.300
19910W        W88128  19.520  34.017  12.470
19911W        W88129  33.090  19.228  13.997
19912W        W88130  40.841   6.221  11.930
19913W        W88131   0.319  26.120   3.450
19914W        W88132  38.340  33.125   4.164
19915W        W88133  16.610  30.878   0.828
19916W        W88134  20.799   1.553   0.006
19917W        W88135   6.888  19.971  13.758
19918W        W88136   3.829  16.183   4.231
19919W        W88137   2.881   1.714  12.403
19920W        W88138  13.700  34.252   4.497
19921W        W88139  32.732   8.085  12.488
19922W        W88140   4.783  31.528   1.635
19923W        W88141  32.494  32.987   4.561
19924W        W88142  31.113  27.032  14.013
19925W        W88143  19.360   9.973  11.588
19926W        W88144  33.906  25.442  13.078
19927W        W88145  28.028  23.066  11.275
19928W        W88146  28.785  29.801  14.335
19929W        W88147  21.248  16.754  10.576
19930W        W88148   9.744  32.077  13.685
19931W        W88149  20.449  24.332   1.863
19932W        W88150  35.606   8.725  14.861
19933W        W88151   7.430  23.591   0.925
19934W        W88152  18.076   6.816  14.535
19935W        W88153  31.182   5.861  13.405
19936W        W88154   9.137  13.655   3.625
19937W        W88155  19.099  28.447   2.136
19938W        W88156  35.105  18.096  14.551
19939W        W88157  12.159  15.114  12.604
19940W        W88158  44.395  33.040   0.959
19941W        W88159   8.124  24.615   3.324
19942W        W88160  26.644  11.758   2.323
19943W        W88161  19.292   0.147  14.619
19944W        W88162  24.663   8.568   2.603
19945W        W88163  26.079   6.446   0.352
19946W        W88164  30.987  12.886   1.798
19947W        W88165  27.870   1.866   4.653
19948W        W88166  41.635  13.884   4.717
19949W        W88167  39.515  24.764  14.276
19950W        W88168   4.446  43.286   1.962
19951W        W88169  28.104  40.974   0.580
19952W        W88170  14.312  14.334   5.000
19953W        W88171   2.817   5.091   2.811
19954W        W88172   2.447  25.193  14.852
19955W        W88173  28.698  19.756  12.668
19956W        W88174  13.520  34.109   0.265
19957W        W88175  32.750  12.215  11.001
19958W        W88176  27.679   7.252   0.314
19959W        W88177  28.387  33.619   3.178
19960W        W88178  15.809   1.077   4.746
19961W        W88179   2.987  36.062  11.125
19962W        W88180  18.762   3.255   2.795
19963W        W88181   0.750  14.695  14.375
19964W        W88182  13.909  20.692  10.615
19965W        W88183  11.580   1.893   4.987
19966W        W88184   6.901  36.485  14.171
19967W        W88185   8.407  38.883  11.384
19968W        W88186   9.723   8.689   0.895
19969W        W88187   4.819   8.630  11.546
19970W        W88188  24.727  29.545   4.061
19971W        W88189  20.581  37.338   2.742
19972W        W88190  21.439  37.558  12.254
19973W        W88191  22.225  24.236  13.151
19974W        W88192  27.248  21.721   1.586
19975W        W88193  39.924   3.451   3.716
19976W        W88194  21.117   3.936   1.032
19977W        W88195  15.083  34.559  14.369
19978W        W88196  14.257  30.921   0.556
19979W        W88197  44.933  42.469   2.744
19980W        W88198   8.777  32.001   2.783
19981W        W88199  42.491  16.288  14.928
19982W        W88200  18.801  34.454   3.849
19983W        W88201  38.897  14.279   3.328
19984W        W88202  28.679  40.986  12.055
19985W        W88203  31.928  44.925   3.009
19986W        W88204  11.992  43.888   2.630
19987W        W88205  17.570   7.390  10.762
19988W        W88206  40.741  16.298   1.303
19989W        W88207  44.375  29.053   2.425
19990W        W88208  25.087  28.674   4.775
19991W        W88209   3.470  19.593   3.650
19992W        W88210   1.354  38.959   3.712
19993W        W88211   7.482  41.541  11.322
19994W        W88212  27.070  25.461   4.128
19995W        W88213   0.551   5.785   2.182
19996W        W88214  34.607  24.304  13.371
19997W        W88215  33.723  31.065  11.320
19998W        W88216  17.813  11.370  11.207
19999W        W88217  10.737  33.017  14.673
20000W        W88218  41.243   6.305  14.513
20001W        W88219  11.276  12.781   3.478
20002W        W88220  32.017   5.942   4.247
20003W        W88221   2.322  15.054  13.864
20004W        W88222  19.852  30.363   4.128
20005W        W88223  42.590   9.808  11.167
20006W        W88224   4.728  18.462  13.993
20007W        W88225  29.005   8.644  12.007
20008W        W88226   4.413   4.212  11.083
20009W        W88227  11.486  36.650   0.286
20010W        W88228  31.926  32.355  11.175
20011W        W88229   1.251  34.530   0.638
20012W        W88230  16.343  32.590   4.143
20013W        W88231   9.620  27.116  12.500
20014W        W88232  37.629   4.799  11.204
20015W        W88233  21.574  31.502  11.261
20016W        W88234   8.488  11.349  13.346
20017W        W88235  39.094  32.961  11.470
20018W        W88236  20.840  12.625   2.280
20019W        W88237  19.853  14.224  11.240
20020W        W88238  30.577  18.378  14.276
20021W        W88239  36.377  12.383   0.511
20022W        W88240  13.042  24.223  12.613
20023W        W88241  31.931  44.639  12.371
20024W        W88242  21.003  19.569  14.449
20025W        W88243  20.105  13.079  12.919
20026W        W88244  28.022  13.182   4.597
20027W        W88245   2.295  27.440   4.811
20028W        W88246   4.183  21.206  10.535
20029W        W88247  18.347  24.763   2.562
20030W        W88248  11.787   0.348   3.660
20031W        W88249   1.942  33.089  12.601
20032W        W88250  17.673  41.814  11.939
20033W        W88251  44.197  26.452   0.959
20034W        W88252   8.596   7.418   4.090
20035W        W88253   2.278  26.230  10.573
20036W        W88254  28.157  23.484  10.941
20037W        W88255  14.352  21.522  14.929
20038W        W88256  21.967  34.885   3.833
20039W        W88257  14.430  40.612   2.792
20040W        W88258   5.701  22.466  12.632
20041W        W88259   5.942  34.391   0.945
20042W        W88260  24.043  33.472   0.004
20043W        W88261  31.398  19.087   1.871
20044W        W88262  19.296  15.592   0.817
20045W        W88263   4.202  23.004  10.643
20046W        W88264  10.287  25.928  14.941
20047W        W88265  24.074   0.637  14.837
20048W        W88266   6.148  16.206   4.471
20049W        W88267  12.612  36.540  14.221
20050W        W88268  19.055  20.387   0.455
20051W        W88269  28.182  40.027   1.423
20052W        W88270  21.424  41.496   4.101
20053W        W88271   9.303  24.709   3.662
20054W        W88272  19.321  38.599  10.790
20055W        W88273  21.758  39.974  12.475
20056W        W88274  17.125  27.809   4.998
20057W        W88275  40.299  16.868  10.203
20058W        W88276  36.826   0.611  10.585
20059W        W88277  21.233   2.409   0.670
20060W        W88278   3.658  32.598   4.689
20061W        W88279   8.250  21.790  13.022
20062W        W88280  38.473   6.523  13.408
20063W        W88281  40.819  12.134  12.053
20064W        W88282  26.624  19.976   1.903
20065W        W88283  28.977   3.452  13.543
20066W        W88284  19.020  15.822  12.523
20067W        W88285  24.726  20.114   1.090
20068W        W88286  29.993  14.394  14.027
20069W        W88287  41.926   1.742   4.655
20070W        W88288  20.881  20.040  11.068
20071W        W88289   2.729  16.448   0.502
20072W        W88290  34.828   5.298  12.394
20073W        W88291  32.347  13.055  14.013
20074W        W88292   1.302  35.337  14.380
20075W        W88293  10.969   9.148   1.374
20076W        W88294  27.210  19.563   0.703
20077W        W88295   4.008  17.233  10.715
20078W        W88296  18.700   2.175   1.454
20079W        W88297  41.979   0.360  13.779
20080W        W88298  22.577  35.960   2.201
20081W        W88299  14.318  13.472   1.913
20082W        W88300   5.616   0.304   3.774
20083W        W88301  40.941  37.783   2.276
20084W        W88302  24.516   5.387   0.222
20085W        W88303  42.877  18.657  13.649
20086W        W88304  12.568  33.589   2.448
20087W        W88305  28.907  30.555  14.843
20088W        W88306  27.264   0.485   0.065
20089W        W88307  15.995  40.366  13.276
20090W        W88308   8.237  40.481  14.745
20091W        W88309  32.543  42.503   2.385
20092W        W88310  35.891   6.810  10.993
20093W        W88311  28.923  17.662   3.294
20094W        W88312   1.979  17.656  13.852
20095W        W88313  38.524   6.107   2.190
20096W        W88314   5.170  44.167  14.686
20097W        W88315  36.897  29.672   0.187
20098W        W88316  16.674  19.027  14.093
20099W        W88317   5.945  14.474  14.503
20100W        W88318  14.725  42.200   0.296
20101W        W88319  11.704  27.748   4.691
20102W        W88320   2.244  11.358   4.353
20103W        W88321  26.174  24.252   3.253
20104W        W88322  44.870  37.920   3.360
20105W        W88323  28.704  27.089  12.469
20106W        W88324  43.859  36.057  10.562
20107W        W88325  14.773  30.915   0.480
20108W        W88326  12.214  12.016  11.784
20109W        W88327  24.888  28.557  14.427
20110W        W88328   0.608  26.035   2.299
20111W        W88329  14.242   7.007  14.929
20112W        W88330  36.926   6.409   0.845
20113W        W88331  38.687  33.487  10.044
20114W        W88332   8.309  11.931  11.593
20115W        W88333  26.564  17.605  13.164
20116W        W88334  30.754  43.027  11.982
20117W        W88335  39.961   4.725   0.152
20118W        W88336  37.070   7.662   2.678
20119W        W88337  12.051   1.915   0.320
20120W        W88338  29.577  27.998  13.843
20121W        W88339   6.706   0.693  13.698
20122W        W88340  17.263  37.499  10.963
20123W        W88341  43.468  23.619   2.193
20124W        W88342  29.122  38.379   2.720
20125W        W88343  14.134  12.026   1.183
20126W        W88344   8.064  25.123   3.147
20127W        W88345   4.571  41.536  11.593
20128W        W88346  13.804   5.271   4.182
20129W        W88347  11.372  34.100   3.177
20130W        W88348  26.999  15.734  11.059
20131W        W88349  27.942  14.227   1.850
20132W        W88350  39.326  24.496   1.181
20133W        W88351  32.177  32.197   4.626
20134W        W88352  10.352   4.246   1.348
20135W        W88353  25.761   7.857   4.834
20136W        W88354   0.246   1.185  14.936
20137W        W88355  37.244   0.833   2.123
20138W        W88356  23.600  37.164  11.935
20139W        W88357  25.437  42.609   1.509
20140W        W88358  17.149   8.682  10.636
20141W        W88359   8.852   9.244  14.276
20142W        W88360  21.541  21.063  13.536
20143W        W88361  42.260  41.001   2.409
20144W        W88362  26.638   1.258   1.037
20145W        W88363  16.774  33.899   4.583
20146W        W88364  42.935  36.013   1.399
20147W        W88365  44.858   4.013  11.519
20148W        W88366  11.528  21.571   2.195
20149W        W88367   7.909   1.016   1.586
20150W        W88368  33.375  22.968  14.001
20151W        W88369   3.844   2.204  11.493
20152W        W88370   8.580   2.519  11.442
20153W        W88371  29.943  30.076   2.859
20154W        W88372  43.698  32.800  11.478
20155W        W88373  13.067  10.667   4.897
20156W        W88374  10.632  24.549   2.588
20157W        W88375  18.145  34.417  14.888
20158W        W88376  25.752  25.075  11.522
20159W        W88377   8.321  22.503   3.307
20160W        W88378  10.463  35.391  12.462
20161W        W88379   7.570   5.475   2.408
20162W        W88380   7.893   3.109  11.231
20163W        W88381  38.648  36.543  13.950
20164W        W88382  16.412   2.435   1.433
20165W        W88383  18.055  27.083  10.883
20166W        W88384  10.589  23.179   2.116
20167W        W88385  24.010  23.695  11.994
20168W        W88386  26.306  24.539   2.497
20169W        W88387  12.813  10.153  11.690
20170W        W88388  41.233  36.343  10.933
20171W        W88389  39.052  19.218  12.943
20172W        W88390  43.800  25.568   0.687
20173W        W88391  32.120  32.817  11.580
20174W        W88392  36.375  20.488   1.993
20175W        W88393  35.045  32.221   1.425
20176W        W88394  36.027  14.601  13.576
20177W        W88395  38.643  22.144  12.443
20178W        W88396  42.431   3.781   0.367
20179W        W88397  22.167   4.280   0.158
20180W        W88398  25.686   1.663  13.713
20181W        W88399  28.527  18.473  12.649
20182W        W88400  23.202   3.801  13.814
20183W        W88401  33.120  28.225  13.869
20184W        W88402  18.703  10.492   3.876
20185W        W88403  37.340  30.418  12.559
20186W        W88404  14.781  19.012  11.394
20187W        W88405  13.687   6.462  14.365
20188W        W88406  10.260   0.758  13.427
20189W        W88407   4.625  29.632  11.080
20190W        W88408  34.826  12.516   3.306
20191W        W88409  43.333  26.993   1.450
20192W        W88410  21.854  35.048   0.219
20193W        W88411   3.407  21.048   3.624
20194W        W88412  20.147  36.928   2.636
20195W        W88413  12.074  42.360  14.960
20196W        W88414  29.535  38.905   1.126
20197W        W88415  28.944   2.752  10.768
20198W        W88416  38.019  36.642   2.105
20199W        W88417  28.267  13.489  14.780
20200W        W88418  38.125   3.416   1.496
20201W        W88419  11.838  30.538  11.580
20202W        W88420  43.511  16.735   3.148
20203W        W88421  35.080  26.460  13.712
20204W        W88422  16.838  10.910   1.248
20205W        W88423  20.487  32.831   0.434
20206W        W88424   3.838  16.409  10.413
20207W        W88425  30.277  35.491   0.054
20208W        W88426  20.567  30.514  13.269
20209W        W88427  19.802  11.000   2.440
20210W        W88428  20.443   3.977  11.061
20211W        W88429  15.104  26.687   2.614
20212W        W88430  24.162  11.489  13.617
20213W        W88431  44.983   4.485  11.353
20214W        W88432  17.181  12.502   1.335
20215W        W88433  42.975   5.759   2.295
20216W        W88434  23.360  41.918  12.701
20217W        W88435  26.089  41.321   2.117
20218W        W88436  40.749  40.567   1.939
20219W        W88437  34.602  12.727  12.219
20220W        W88438  38.020  26.820  12.892
20221W        W88439  29.072  27.740   3.965
20222W        W88440  12.230  31.090  12.112
20223W        W88441  26.837  31.592   0.158
20224W        W88442  38.402  31.862   4.762
20225W        W88443   2.214  39.363  14.363
20226W        W88444  39.218  10.781   2.254
20227W        W88445  39.090  33.495  11.601
20228W        W88446  26.611  22.736   1.398
20229W        W88447  43.498  44.359   3.737
20230W        W88448  20.574  26.143  10.743
20231W        W88449  22.957   3.820  11.123
20232W        W88450  22.834  25.298   4.158
20233W        W88451   8.714   4.793   1.019
20234W        W88452  22.011  28.230   0.277
20235W        W88453  42.552  22.102   3.894
20236W        W88454  32.566  26.982  12.886
20237W        W88455  19.430  14.041  12.016
20238W        W88456  20.658   6.147  14.347
20239W        W88457   1.870  43.535  10.716
20240W        W88458   6.939  32.492  13.887
20241W        W88459  20.041  20.605   3.995
20242W        W88460  37.514  37.854   4.395
20243W        W88461  37.044  38.773   2.550
20244W        W88462  26.004  15.831  13.021
20245W        W88463  13.225  15.176  13.093
20246W        W88464  38.861   6.702   4.762
20247W        W88465  42.144   4.945  13.094
20248W        W88466  44.867  13.608   2.439
20249W        W88467  16.315  12.862   1.309
20250W        W88468  15.866  34.437  11.530
20251W        W88469  35.818  12.397   2.774
20252W        W88470   3.909  18.289   3.858
20253W        W88471   1.236  11.226   1.908
20254W        W88472  38.654  39.195   3.195
20255W        W88473  27.676  10.900   3.417
20256W        W88474  26.408  35.375   1.488
20257W        W88475  16.159  10.288  14.970
20258W        W88476   6.448  23.645   0.875
20259W        W88477   9.119  41.880  11.037
20260W        W88478   6.668  32.414  11.578
20261W        W88479   2.367  36.044   0.889
20262W        W88480  21.197  44.342   4.716
20263W        W88481  34.695  31.555   1.345
20264W        W88482  22.057  42.497   2.271
20265W        W88483  15.733  42.537   1.490
20266W        W88484  12.062  31.476  11.200
20267W        W88485  35.570  42.955  13.607
20268W        W88486  35.349  32.419  14.523
20269W        W88487  17.804  17.545  11.743
20270W        W88488  38.833  33.866   4.264
20271W        W88489  11.666  33.603   4.311
20272W        W88490  24.996   1.394   3.089
20273W        W88491   2.914  10.390  13.020
20274W        W88492   1.707  30.018  14.481
20275W        W88493  40.722  32.010   2.180
20276W        W88494  16.608  44.967  11.665
20277W        W88495  26.485  28.020  12.586
20278W        W88496  43.460   9.411   2.890
20279W        W88497  40.360  21.485   0.331
20280W        W88498  10.815  38.160   4.685
20281W        W88499   8.199  43.675   3.863
20282W        W88500   1.357  13.569  14.642
20283W        W88501  15.311  24.570  14.379
20284W        W88502   9.024   0.217  12.614
20285W        W88503  16.083  43.170  10.329
20286W        W88504   2.739  16.190   2.954
20287W        W88505  38.407  27.573   2.436
20288W        W88506  40.310  33.519  12.515
20289W        W88507   1.334  33.393  14.287
20290W        W88508  34.296   4.391   2.674
20291W        W88509  18.928  28.234   4.997
20292W        W88510  36.380  10.722  11.935
20293W        W88511  33.550   8.853  11.438
20294W        W88512   7.129   7.259   0.002
20295W        W88513  42.962  38.986   3.117
20296W        W88514   7.584   6.974  14.990
20297W        W88515  11.841  39.456  11.973
20298W        W88516  17.148  16.723  12.370
20299W        W88517  32.039  27.837   1.254
20300W        W88518  15.767  38.385  13.083
20301W        W88519  14.711   3.181   1.426
20302W        W88520  32.936   4.708  11.650
20303W        W88521  23.539  19.693  11.617
20304W        W88522   6.375  24.142  13.236
20305W        W88523  37.330  24.770  12.901
20306W        W88524  38.830   7.444  12.448
20307W        W88525  28.224   5.169  13.739
20308W        W88526  35.382  11.772  11.144
20309W        W88527  37.295   4.527   1.951
20310W        W88528  37.652  14.295   5.189
20311W        W88529  32.052  30.706  12.214
20312W        W88530  41.570  35.858   3.165
20313W        W88531  33.478  19.611  13.852
20314W        W88532  17.138  40.589  14.318
20315W        W88533  38.481  15.995   0.530
20316W        W88534  16.236  37.526   1.753
20317W        W88535  19.501  42.119  10.720
20318W        W88536   8.042  41.455   1.243
20319W        W88537   9.796  12.911   3.756
20320W        W88538  22.507  15.303   4.836
20321W        W88539  44.862  16.499  12.521
20322W        W88540  16.203  36.211   5.008
20323W        W88541  40.484  12.257   3.197
20324W        W88542  34.003  13.017  14.498
20325W        W88543   4.932   7.732   4.355
20326W        W88544  20.757   6.147  13.312
20327W        W88545  36.566  25.762   2.282
20328W        W88546  38.934  37.086   4.222
20329W        W88547  10.762   5.341   0.439
20330W        W88548  15.910  41.458  13.873
20331W        W88549  32.602  10.460  11.483
20332W        W88550  26.881   8.676   1.734
20333W        W88551  30.713   2.001  12.985
20334W        W88552  20.115  12.125  12.486
20335W        W88553  31.112  10.250   1.308
20336W        W88554  36.336   4.098  10.230
20337W        W88555   1.656  25.622  12.555
20338W        W88556  27.561  23.066   2.050
20339W        W88557  33.082  28.723  12.094
20340W        W88558   8.718  30.890  14.004
20341W        W88559  17.278  43.649  12.147
20342W        W88560  38.304  12.178   2.735
20343W        W88561  22.583  34.395  12.120
20344W        W88562   5.378  36.481   2.291
20345W        W88563  20.614  37.571   0.803
20346W        W88564  24.070  35.072  12.675
20347W        W88565   1.487  38.981   0.416
20348W        W88566  23.669   0.205   4.767
20349W        W88567  36.877  18.343  13.773
20350W        W88568  41.933   9.183  12.976
20351W        W88569  24.359  27.903   1.159
20352W        W88570   8.959  29.186  13.406
20353W        W88571  42.980  17.808  11.928
20354W        W88572  30.389  23.025  13.125
20355W        W88573  40.362  11.803   2.933
20356W        W88574   4.702   2.258   0.311
20357W        W88575  35.365   5.132  12.968
20358W        W88576   4.864  37.082   1.923
20359W        W88577  16.129  43.945  12.549
20360W        W88578  10.748  25.192  14.340
20361W        W88579   6.939  44.984  14.536
20362W        W88580  15.886   9.624   1.287
20363W        W88581  32.163  26.468   1.329
20364W        W88582  30.821   2.830   2.363
20365W        W88583   7.200  28.040  11.006
20366W        W88584  39.384  19.266  11.289
20367W        W88585  44.483  44.732   1.343
20368W        W88586  17.130  40.959   9.994
20369W        W88587  36.056  44.998   0.337
20370W        W88588   9.115  21.807  11.969
20371W        W88589  11.184  39.498  10.618
20372W        W88590  25.568  41.812  13.606
20373W        W88591   1.784   7.262  11.549
20374W        W88592  22.492  40.509   1.750
20375W        W88593  13.796  26.443  10.769
20376W        W88594  30.064  25.391   3.217
20377W        W88595  28.378  16.180   4.420
20378W        W88596   0.825  18.884   0.794
20379W        W88597   4.813  22.132   4.161
20380W        W88598  24.628  27.239   3.943
20381W        W88599  26.066  38.385   2.803
20382W        W88600  29.976  19.009  14.052
20383W        W88601  20.073   9.379   1.935
20384W        W88602   8.607  14.771   1.367
20385W        W88603   7.942  41.158  13.608
20386W        W88604  13.815   2.009  13.481
20387W        W88605  41.402  10.364   1.083
20388W        W88606  27.742  31.022  14.479
20389W        W88607  24.527  28.140  12.455
20390W        W88608  31.496   5.776  10.808
20391W        W88609   0.810  33.837  12.009
20392W        W88610   0.439  14.530   1.437
20393W        W88611  26.250   7.190   2.820
20394W        W88612  44.914  23.573   4.291
20395W        W88613  35.958  18.022  14.747
20396W        W88614  30.163  13.720  13.899
20397W        W88615  21.057  34.976  12.534
20398W        W88616  34.085  21.202   2.792
20399W        W88617  37.361  43.657   0.256
20400W        W88618  13.107  19.545  13.242
20401W        W88619  28.899  41.231   2.777
20402W        W88620   9.191  38.855   3.523
20403W        W88621  23.192  41.507  11.551
20404W        W88622  18.134  20.805  11.672
20405W        W88623  21.127   2.334  10.645
20406W        W88624  32.017  27.359   4.309
20407W        W88625   0.772  43.236   0.284
20408W        W88626  34.789  15.291   0.352
20409W        W88627  26.923  11.272   0.817
20410W        W88628  37.716  12.825   1.135
20411W        W88629  15.700  27.998   2.267
20412W        W88630  18.629  19.274   2.439
20413W        W88631   2.219  23.505   1.971
20414W        W88632   2.880  28.007   2.674
20415W        W88633  19.457  30.507   0.040
20416W        W88634  33.145  16.523   1.904
20417W        W88635   1.513  21.665   0.010
20418W        W88636  19.521  34.579  11.599
20419W        W88637  33.019  11.148  12.745
20420W        W88638  22.508  17.281  11.642
20421W        W88639   1.382   2.427  13.780
20422W        W88640  15.313  15.229  11.552
20423W        W88641  42.230   3.664  13.947
20424W        W88642  43.008  36.476  11.543
20425W        W88643  33.041  25.802  11.417
20426W        W88644  16.222  31.623   4.565
20427W        W88645  21.331  11.351   4.905
20428W        W88646   4.742  15.328   2.439
20429W        W88647  35.861  30.683   3.924
20430W        W88648   5.718  28.954  13.285
20431W        W88649  21.671   1.533  12.246
20432W        W88650  18.249   8.779  12.167
20433W        W88651  42.400  41.980   0.333
20434W        W88652  13.308  34.099  11.086
20435W        W88653  21.074  38.036   4.168
20436W        W88654  37.078  39.050   4.543
20437W        W88655  44.829  11.539   0.979
20438W        W88656  19.456  16.846  13.341
20439W        W88657  14.024  39.065   3.229
20440W        W88658  36.022   9.699   0.849
20441W        W88659  36.362  26.932  11.672
20442W        W88660   6.871  27.733  12.015
20443W        W88661   8.694  14.308   1.686
20444W        W88662  39.513  34.637   2.354
20445W        W88663  25.677   9.708  13.279
20446W        W88664  26.715  41.056   1.421
20447W        W88665  10.300  18.768   4.569
20448W        W88666  40.562  38.086  11.822
20449W        W88667  38.134   4.477  10.229
20450W        W88668  29.609  39.811  14.836
20451W        W88669  42.806  30.559   1.366
20452W        W88670  37.964  42.424  14.996
20453W        W88671  19.218   0.026  10.778
20454W        W88672  38.922   4.231   2.080
20455W        W88673  13.311  10.575  14.158
20456W        W88674   8.936  36.041  11.995
20457W        W88675   8.943  20.071   4.088
20458W        W88676   0.245   3.890  11.224
20459W        W88677  32.765  44.871  10.808
20460W        W88678   6.194  32.073   3.196
20461W        W88679  37.359   1.428  13.549
20462W        W88680  24.087  22.811  14.768
20463W        W88681  20.716  26.655   0.853
20464W        W88682  39.051  40.612  10.537
20465W        W88683  22.766  22.214   2.897
20466W        W88684  24.101  16.352  13.315
20467W        W88685   3.452   5.955  12.427
20468W        W88686  20.149  12.657  12.564
20469W        W88687   6.746  15.678   4.779
20470W        W88688   2.159   5.395   2.788
20471W        W88689   6.690  17.331  14.544
20472W        W88690   6.006  30.621  10.809
20473W        W88691  18.745   1.254  14.896
20474W        W88692   1.946   3.908  13.418
20475W        W88693  42.816  37.450   0.722
20476W        W88694   3.805  28.574  13.984
20477W        W88695  32.417  38.309   4.640
20478W        W88696   6.909  22.916  13.583
20479W        W88697   3.953  37.988   1.363
20480W        W88698   3.781  40.451  14.082
20481W        W88699  28.730  13.216  11.064
20482W        W88700  36.900  11.801  12.054
20483W        W88701  43.889  11.609   2.536
20484W        W88702  26.070  16.009   5.092
20485W        W88703  19.730  11.399  14.505
20486W        W88704  36.773  28.290   3.539
20487W        W88705  42.307   2.423  14.858
20488W        W88706   3.505  27.838  12.493
20489W        W88707  15.160  37.079  14.372
20490W        W88708  42.742   3.827   0.785
20491W        W88709  34.406  42.901  14.478
20492W        W88710  11.866  39.555  14.903
20493W        W88711  14.362   0.427  12.029
20494W        W88712  16.197  24.854  11.293
20495W        W88713   1.803   7.637   4.963
20496W        W88714  19.505  19.097   0.807
20497W        W88715  18.689  19.183  12.086
20498W        W88716  16.083   0.746   1.882
20499W        W88717  41.417   1.312  12.041
20500W        W88718  40.970  29.106   4.000
20501W        W88719  41.858  18.642   4.030
20502W        W88720   9.380  37.655  12.075
20503W        W88721  39.832  44.168  11.764
20504W        W88722  25.262   2.119   1.379
20505W        W88723  11.630  37.058   1.327
20506W        W88724  37.802  27.651   4.693
20507W        W88725  19.169  32.083   0.542
20508W        W88726  14.562  18.656  14.831
20509W        W88727  17.079  38.442  12.098
20510W        W88728  16.152  41.292  14.924
20511W        W88729   1.521  10.646  13.369
20512W        W88730  41.756   3.362  10.933
20513W        W88731  19.686   6.932   2.317
20514W        W88732   2.874  16.820  12.213
20515W        W88733  15.427  24.647   3.276
20516W        W88734  16.175  12.153   4.171
20517W        W88735  23.447   5.336   1.390
20518W        W88736  34.640  21.032  12.415
20519W        W88737  30.005  18.687   4.185
20520W        W88738   8.604  13.579   3.681
20521W        W88739  22.772   4.701  10.011
20522W        W88740  38.615  13.797   4.137
20523W        W88741  27.355  27.369  12.680
20524W        W88742   6.691  32.821   2.839
20525W        W88743   2.662  42.230  12.108
20526W        W88744  29.405  35.544  12.814
20527W        W88745   7.371  17.714  14.363
20528W        W88746  40.974   8.142  13.012
20529W        W88747  31.830  38.936  11.556
20530W        W88748  34.085  19.539   4.098
20531W        W88749  29.094  44.581   2.803
20532W        W88750  40.792  21.746  12.540
20533W        W88751  30.650  33.056  14.441
20534W        W88752  31.810  36.655   4.978
20535W        W88753   2.217  29.553   3.183
20536W        W88754  11.106  41.615   2.754
20537W        W88755   1.122  31.148   4.833
20538W        W88756  26.887  16.061  14.941
20539W        W88757  23.493  14.579  10.454
20540W        W88758  24.600  21.663   3.783
20541W        W88759  41.606  16.658   0.022
20542W        W88760  25.597  13.721  12.334
20543W        W88761  42.662  32.021   3.696
20544W        W88762   5.351  33.018   3.614
20545W        W88763  27.332  35.202   4.461
20546W        W88764   9.459  38.535  11.423
20547W        W88765   0.551   6.406  10.867
20548W        W88766  36.572   1.533  14.406
20549W        W88767  43.924  14.376   0.890
20550W        W88768  14.246  40.465   4.192
20551W        W88769   6.116   6.175   2.928
20552W        W88770   3.402  33.541   3.573
20553W        W88771  41.285  13.342  13.755
20554W        W88772   6.922  21.822   3.663
20555W        W88773  20.815  27.525  12.480
20556W        W88774  23.336  29.665   4.617
20557W        W88775  40.962   9.939  11.301
20558W        W88776  40.805  13.818   4.489
20559W        W88777  32.490  20.198  11.577
20560W        W88778  40.356   8.753  12.312
20561W        W88779   0.896  15.743  12.398
20562W        W88780  19.680   3.938   2.222
20563W        W88781  42.335  33.593  14.478
20564W        W88782  13.045  39.864   2.785
20565W        W88783  31.961  20.854   0.486
20566W        W88784  19.679  27.430   3.717
20567W        W88785  31.022   8.855   1.464
20568W        W88786  13.345  24.016   4.027
20569W        W88787  34.206  30.975  11.165
20570W        W88788  24.031  33.060  12.513
20571W        W88789  22.466   7.989   2.834
20572W        W88790  44.071   1.425   2.278
20573W        W88791  29.427  37.386   3.509
20574W        W88792  29.707   8.864   0.876
20575W        W88793   2.919  43.811   4.772
20576W        W88794  38.370   3.307   2.864
20577W        W88795  43.711  42.233   4.580
20578W        W88796   1.186  13.297   4.625
20579W        W88797  16.239  42.331  14.892
20580W        W88798   7.905   6.174   2.818
20581W        W88799   0.758   2.918  14.543
20582W        W88800  39.125   8.771   3.225
20583W        W88801  32.637   4.873  11.184
20584W        W88802   4.947   7.372  13.018
20585W        W88803   0.959  14.654  12.992
20586W        W88804  31.347  14.814  12.885
20587W        W88805   7.003  39.529  12.259
20588W        W88806   2.888  22.684  14.358
20589W        W88807   3.538   1.719   3.703
20590W        W88808  23.072  27.985   1.229
20591W        W88809   0.761  11.208   0.048
20592W        W88810  15.662   3.310  10.358
20593W        W88811  20.526   6.996   3.194
20594W        W88812  28.415   0.839   2.740
20595W        W88813  41.488  17.840  13.881
20596W        W88814  38.774  38.819   1.133
20597W        W88815   7.248  25.799   2.273
20598W        W88816  41.780  31.649   3.724
20599W        W88817  19.315   7.757   3.352
20600W        W88818  26.308   3.989   3.813
20601W        W88819  29.580  18.966  14.924
20602W        W88820  29.913  33.940  14.035
20603W        W88821  33.961  22.441  13.530
20604W        W88822  35.970  13.236   2.198
20605W        W88823  36.529  41.890   0.420
20606W        W88824  38.342  17.882  13.588
20607W        W88825  28.198  25.232   2.216
20608W        W88826  33.190   8.495  11.200
20609W        W88827  43.349  40.911   0.013
20610W        W88828  25.829  44.626  12.603
20611W        W88829  22.003  25.160   2.677
20612W        W88830   0.247  26.210  13.856
20613W        W88831  18.445  34.251   4.954
20614W        W88832  28.088  33.484   3.573
20615W        W88833   1.206  44.353   2.852
20616W        W88834  29.000   0.861  11.365
20617W        W88835  41.480  11.683  10.894
20618W        W88836   4.649  25.001   1.391
20619W        W88837  28.619   1.831   2.365
20620W        W88838  19.688  44.717   0.490
20621W        W88839  32.535  39.355  10.441
20622W        W88840  16.238  26.128  11.185
20623W        W88841   9.866   9.706   0.910
20624W        W88842  32.521  13.922  13.443
20625W        W88843  11.208  33.383  12.069
20626W        W88844  44.054   7.541  14.605
20627W        W88845  35.941  18.174   0.740
20628W        W88846  12.250  37.900  13.421
20629W        W88847   8.713  12.110   4.672
20630W        W88848  30.434   5.499   4.948
20631W        W88849  12.932   0.677  12.996
20632W        W88850  20.543  31.439   3.776
20633W        W88851  17.161  12.063  12.052
20634W        W88852  44.940   2.381  14.192
20635W        W88853  18.674   7.059   0.393
20636W        W88854  13.776  13.207   1.741
20637W        W88855  15.303  10.465  11.097
20638W        W88856  18.631  23.025   4.521
20639W        W88857  37.684  34.289  13.843
20640W        W88858  18.777  37.382  12.858
20641W        W88859   6.263   7.701  14.934
20642W        W88860  24.129  13.854  12.494
20643W        W88861  33.374  31.028   2.312
20644W        W88862  24.272  19.696   2.247
20645W        W88863  17.004  21.259  14.339
20646W        W88864  31.506  23.066  11.085
20647W        W88865  19.619  14.348   2.172
20648W        W88866  39.419   7.049  11.221
20649W        W88867  34.139  21.466   0.662
20650W        W88868  44.767  14.140  14.374
20651W        W88869   7.912  28.091  14.879
20652W        W88870  13.589  21.435   1.240
20653W        W88871   1.787   1.888   4.706
20654W        W88872  32.436  37.626   3.177
20655W        W88873  29.650  27.125   3.320
20656W        W88874  24.328  24.644   0.152
20657W        W88875   6.855  30.251  10.562
20658W        W88876  22.326  37.378  14.398
20659W        W88877  23.230  11.620  11.481
20660W        W88878  31.986  25.032   3.684
20661W        W88879  36.073  37.625   0.220
20662W        W88880  39.815  29.113   0.701
20663W        W88881  37.487  18.708   4.225
20664W        W88882  30.391  41.062   1.440
20665W        W88883   0.841  27.219  12.916
20666W        W88884  42.950  19.555   4.074
20667W        W88885   9.938   0.910   1.021
20668W        W88886  19.224   0.475  12.844
20669W        W88887  44.998  13.541   0.882
20670W        W88888   2.535  42.206   2.190
20671W        W88889  25.199  31.026   1.767
20672W        W88890  44.259  20.590   1.941
20673W        W88891  33.512  25.543  11.684
20674W        W88892  34.056  34.904  12.395
20675W        W88893  37.321  11.642   4.344
20676W        W88894   1.003  29.965   4.370
20677W        W88895  26.785  42.611   2.516
20678W        W88896  12.164  43.017  10.615
20679W        W88897   3.924  43.498  13.780
20680W        W88898  25.639  12.305  14.264
20681W        W88899  34.466   4.124  10.349
20682W        W88900  10.423  17.641   2.467
20683W        W88901  38.078  35.005   4.170
20684W        W88902  28.686  30.339  10.848
20685W        W88903  34.512  14.791  13.092
20686W        W88904  29.231  18.363   5.460
20687W        W88905   2.807  15.222  14.990
20688W        W88906  21.990  28.616   4.046
20689W        W88907  18.760  19.442   0.419
20690W        W88908  29.558  20.104   1.139
20691W        W88909  13.104  41.339  10.304
20692W        W88910  33.058  31.246   0.781
20693W        W88911  17.778  27.191   1.338
20694W        W88912  42.491   3.760  13.515
20695W        W88913  36.538  43.586  11.958
20696W        W88914   4.646  28.655   2.186
20697W        W88915  44.829  10.442   3.763
20698W        W88916   2.824  35.106   2.772
20699W        W88917   2.404  43.262   2.815
20700W        W88918  31.091  13.277  11.983
20701W        W88919   6.493  22.719   2.680
20702W        W88920   3.765  29.410   2.237
20703W        W88921   5.014  42.952  11.995
20704W        W88922   6.097  42.886  13.106
20705W        W88923   1.507  43.456  13.826
20706W        W88924  44.837  11.835  13.881
20707W        W88925  23.026  44.000  14.369
20708W        W88926  22.182  31.028   4.042
20709W        W88927  28.848   7.302   1.316
20710W        W88928   9.200   5.796   0.902
20711W        W88929   6.497  19.243   4.026
20712W        W88930  44.477   7.604  12.913
20713W        W88931  34.040  27.857  11.652
20714W        W88932  41.031   4.825   2.689
20715W        W88933  31.042   7.205   4.087
20716W        W88934  14.386   2.326  10.739
20717W        W88935   6.491  22.566   5.051
20718W        W88936  35.767  15.544   1.244
20719W        W88937  44.005  12.590  14.805
20720W        W88938  17.080   6.925  11.959
20721W        W88939  33.941   4.943  11.091
20722W        W88940  31.036   2.939   5.215
20723W        W88941  42.093  26.482  13.374
20724W        W88942  12.988  20.681  12.070
20725W        W88943  25.699  35.798   2.654
20726W        W88944  18.361  10.376   1.707
20727W        W88945  31.607  11.744   4.514
20728W        W88946  26.504   6.836   1.967
20729W        W88947   3.125  37.202   0.975
20730W        W88948  40.834   6.926   1.409
20731W        W88949   0.912  40.507  10.804
20732W        W88950   2.761  11.443   0.442
20733W        W88951   1.406  41.362  13.343
20734W        W88952  16.204  29.669   2.741
20735W        W88953  43.853  22.577  10.527
20736W        W88954   0.995   3.182   0.515
20737W        W88955   3.458   4.710   0.755
20738W        W88956   2.274  40.294  12.332
20739W        W88957  18.123  37.550  14.784
20740W        W88958  14.212  15.319   4.276
20741W        W88959  42.667  41.538   4.175
20742W        W88960  25.517   7.774  13.877
20743W        W88961  28.165   7.622  14.887
20744W        W88962  40.467  26.138  14.727
20745W        W88963   0.383  31.250   4.196
20746W        W88964  28.252  27.024   1.394
20747W        W88965  37.979  15.831  14.567
20748W        W88966  18.532  39.325  13.321
20749W        W88967   2.861   9.837   0.037
20750W        W88968  41.882   5.143  11.627
20751W        W88969  32.326  28.733   3.982
20752W        W88970   7.331  27.515  13.936
20753W        W88971   7.300  38.286  13.863
20754W        W88972  29.783  43.530   4.623
20755W        W88973  43.834  18.299   4.120
20756W        W88974   3.925  10.290  13.107
20757W        W88975  33.339  21.202   1.649
20758W        W88976  42.383  42.861  13.057
20759W        W88977  32.153  25.368  12.074
20760W        W88978   5.651  27.984   2.110
20761W        W88979   6.721  44.214  10.454
20762W        W88980  32.452  12.839   0.490
20763W        W88981  22.364  35.370  11.037
20764W        W88982   6.854  40.772  13.435
20765W        W88983  10.583  15.694   3.814
20766W        W88984  38.289  25.503   1.712
20767W        W88985  11.885  21.434  13.367
20768W        W88986  25.755  23.141   1.663
20769W        W88987  38.925  16.015  14.829
20770W        W88988  20.995  27.580  14.709
20771W        W88989  42.041  44.867  13.588
20772W        W88990  24.949  41.925   0.090
20773W        W88991  29.578  18.784  10.828
20774W        W88992   9.448  17.877   3.683
20775W        W88993  37.280  32.837  14.981
20776W        W88994  13.307  39.572  12.171
20777W        W88995  41.540  24.126   0.043
20778W        W88996   3.530  37.229   3.145
20779W        W88997  41.955  13.606   1.204
20780W        W88998  12.606  41.797   1.278
20781W        W88999  41.453   7.822  13.907
20782W        W89000   1.109  28.967   1.344
20783W        W89001  24.177   8.869   1.738
20784W        W89002   1.338  39.674   1.688
20785W        W89003  37.348  43.382   0.763
20786W        W89004   5.147  33.511   0.195
20787W        W89005   3.070   3.754  10.711
20788W        W89006  19.075  39.040   4.110
20789W        W89007  23.021   1.346   2.755
20790W        W89008  35.247  31.489  14.028
20791W        W89009  27.989   9.281  11.407
20792W        W89010  17.737  24.463  13.367
20793W        W89011  11.333  19.095   3.277
20794W        W89012  15.224  20.689  10.644
20795W        W89013  12.898   3.496  10.679
20796W        W89014  41.372  44.226  14.922
20797W        W89015  14.962  31.111   4.868
20798W        W89016  40.218  22.625   1.823
20799W        W89017  37.479  39.763  11.627
20800W        W89018   4.838  17.141   1.652
20801W        W89019   3.487  20.369  10.373
20802W        W89020   3.460  16.343   0.848
20803W        W89021  24.625  30.705  14.241
20804W        W89022   7.421   3.538  13.070
20805W        W89023  27.551  17.092  14.297
20806W        W89024  44.662  17.750  14.966
20807W        W89025  32.454  38.061  13.487
20808W        W89026  25.650  35.886  12.812
20809W        W89027  37.055  17.556  11.153
20810W        W89028  14.699  17.301  10.009
20811W        W89029   1.776  15.826  11.932
20812W        W89030  29.721  13.332   3.219
20813W        W89031  38.790   3.834  11.444
20814W        W89032  13.436  18.854  11.714
20815W        W89033  44.518  34.962   0.057
20816W        W89034  43.464  36.291  11.336
20817W        W89035   9.900  10.773  14.828
20818W        W89036   1.188  14.044  13.361
20819W        W89037  22.988  20.029   1.433
20820W        W89038   4.713   3.904   0.860
20821W        W89039  36.658  20.694  12.019
20822W        W89040  16.118   6.486  13.826
20823W        W89041  44.039  16.576   3.368
20824W        W89042   1.369   9.984   4.053
20825W        W89043   1.381  23.816  14.835
20826W        W89044  37.177  29.194  12.549
20827W        W89045  18.391  12.187   3.150
20828W        W89046   6.815  15.028   3.156
20829W        W89047  31.878  15.649  13.309
20830W        W89048  29.973  38.298   1.958
20831W        W89049  26.907  36.990   1.731
20832W        W89050  12.575   1.741   1.217
20833W        W89051  35.512  10.865  12.483
20834W        W89052  35.028  40.296   1.926
20835W        W89053  40.840  16.824   2.311
20836W        W89054   4.239  37.609  14.512
20837W        W89055  11.392  19.209  13.534
20838W        W89056  18.662  11.284  13.744
20839W        W89057  41.744  19.959   3.468
20840W        W89058  27.017  25.234  13.495
20841W        W89059  16.345  12.698  10.699
20842W        W89060  27.504  38.162   3.463
20843W        W89061  24.475  16.981  14.425
20844W        W89062  10.552  14.722   1.401
20845W        W89063  11.611   6.922  14.514
20846W        W89064  43.961  13.751  11.927
20847W        W89065  30.261  30.354   2.567
20848W        W89066  22.100   2.301  10.702
20849W        W89067   0.233   3.407  13.424
20850W        W89068  16.715  33.934   3.317
20851W        W89069  42.130  43.462   3.966
20852W        W89070  25.159  41.280   4.138
20853W        W89071  27.103   0.967   0.216
20854W        W89072  39.282  41.065   0.948
20855W        W89073  25.993  23.412   0.482
20856W        W89074   5.040   3.646   5.067
20857W        W89075  29.003   4.433  10.637
20858W        W89076  31.958  42.612   4.404
20859W        W89077   5.455  27.947   2.850
20860W        W89078  10.400   7.477   3.586
20861W        W89079  27.813  35.992   3.380
20862W        W89080  41.480  24.577   3.798
20863W        W89081   8.335   7.009  12.110
20864W        W89082  32.331  19.508  11.262
20865W        W89083   9.430   7.120   0.340
20866W        W89084  12.261  13.711   1.282
20867W        W89085   5.488   3.003  13.446
20868W        W89086  25.010  28.906   3.664
20869W        W89087   7.877  41.021  13.072
20870W        W89088  13.782  37.915   1.071
20871W        W89089  16.095  36.306   1.832
20872W        W89090  32.024  38.118   1.479
20873W        W89091  29.130  19.006   4.687
20874W        W89092  41.071  44.845   3.702
20875W        W89093  36.594  13.373  12.458
20876W        W89094  34.843  22.015   0.236
20877W        W89095  18.656  26.395   1.506
20878W        W89096  40.520  44.920  10.941
20879W        W89097  22.711  10.132  10.216
20880W        W89098  25.642   1.851   4.651
20881W        W89099  24.168  21.783   4.150
20882W        W89100  22.953  36.638  14.909
20883W        W89101  44.848  17.888  14.488
20884W        W89102  40.815  39.911   4.673
20885W        W89103  16.181  18.059  10.671
20886W        W89104  24.573  24.184   1.167
20887W        W89105  39.055  17.012   0.690
20888W        W89106   6.233   4.340  12.945
20889W        W89107  18.206  17.081   4.640
20890W        W89108  13.271   9.125   1.729
20891W        W89109  39.773  34.142  11.452
20892W        W89110  33.514   6.949  14.511
20893W        W89111  36.440  13.430   2.180
20894W        W89112  25.207  30.001   3.682
20895W        W89113  21.000  17.176   3.017
20896W        W89114  32.559  40.062  11.000
20897W        W89115  38.412  19.998  10.638
20898W        W89116  15.380  11.792  10.995
20899W        W89117   8.370  40.611  10.140
20900W        W89118  18.219  16.872   5.107
20901W        W89119  29.175  38.630  10.742
20902W        W89120  34.646  15.703  12.118
20903W        W89121  23.925  44.097   2.452
20904W        W89122  28.314   3.936  11.158
20905W        W89123  27.658   1.425  11.463
20906W        W89124  31.957  24.114  14.993
20907W        W89125   0.046  21.616   1.212
20908W        W89126  44.791  27.939   2.957
20909W        W89127   8.484  36.411  12.597
20910W        W89128  30.037  42.183  14.874
20911W        W89129  36.512   4.541   2.876
20912W        W89130  29.086  18.724   0.940
20913W        W89131  25.334  12.074   1.288
20914W        W89132   0.957  35.675   5.005
20915W        W89133  29.539  42.507   1.044
20916W        W89134   3.653  32.474   2.825
20917W        W89135   2.763  37.488   3.783
20918W        W89136  15.641  15.710  14.519
20919W        W89137  31.363   3.753   1.516
20920W        W89138  31.545  42.265   1.932
20921W        W89139  30.475  28.258  13.301
20922W        W89140  44.301  39.897   2.168
20923W        W89141   0.768  25.011   2.274
20924W        W89142  41.134   3.842   4.583
20925W        W89143  18.874   8.923   3.779
20926W        W89144  21.123   6.463  10.682
20927W        W89145   2.004  28.707   1.338
20928W        W89146  10.473   6.938  13.837
20929W        W89147  43.790  42.492   3.361
20930W        W89148   4.038   6.626  14.839
20931W        W89149   8.831   1.467  11.477
20932W        W89150  21.745  42.709  12.688
20933W        W89151  17.745  27.641   0.294
20934W        W89152  16.106  14.628  11.620
20935W        W89153   0.305  41.149   1.791
20936W        W89154  33.606  20.435  14.834
20937W        W89155  35.273  20.443  11.596
20938W        W89156  36.483  20.243   2.497
20939W        W89157  37.391  22.275  12.097
20940W        W89158  34.299  40.714   1.471
20941W        W89159  37.619  20.114   3.288
20942W        W89160  14.679  16.204   2.727
20943W        W89161  25.995   2.895   0.594
20944W        W89162  41.277  16.154   2.730
20945W        W89163  19.929   5.985  13.400
20946W        W89164   7.702  32.935   2.764
20947W        W89165  44.040  14.558  12.706
20948W        W89166  13.724  11.028   2.164
20949W        W89167   5.949  38.437   3.686
20950W        W89168  13.495  13.377   0.335
20951W        W89169  10.627  32.135  14.897
20952W        W89170   3.759  13.688  14.802
20953W        W89171   4.211  44.743  12.051
20954W        W89172  19.021  24.021  13.100
20955W        W89173  19.270  40.585  13.446
20956W        W89174   2.898  35.607  10.866
20957W        W89175  18.209   9.505  12.151
20958W        W89176  23.693  21.708   4.507
20959W        W89177  35.151  15.841   4.624
20960W        W89178  25.130  42.624   0.886
20961W        W89179  40.315  28.941   0.052
20962W        W89180  19.620  22.682   4.577
20963W        W89181  25.574   1.734   3.683
20964W        W89182   0.741  43.267  11.513
20965W        W89183  30.234  16.564  11.236
20966W        W89184   0.809   7.231   2.418
20967W        W89185   5.985  25.881  13.415
20968W        W89186  37.968  40.005  13.003
20969W        W89187   9.299  19.226  13.857
20970W        W89188  21.717  36.115  11.584
20971W        W89189  22.290  30.631   1.663
20972W        W89190   7.484   4.894  12.833
20973W        W89191   1.569  23.226  11.562
20974W        W89192  44.860  10.537   2.073
20975W        W89193  13.895  33.608  12.177
20976W        W89194  23.635   0.685  10.588
20977W        W89195  11.054   2.806  14.884
20978W        W89196  42.670  25.678   3.730
20979W        W89197  37.332   4.232   1.170
20980W        W89198  20.015  39.190  14.083
20981W        W89199  11.541  44.551   1.405
20982W        W89200  14.574   1.079   3.235
20983W        W89201  29.927   6.553  13.294
20984W        W89202  42.532  18.106   4.431
20985W        W89203  41.814  11.149  13.837
20986W        W89204  43.049   3.286   5.262
20987W        W89205   3.315   1.225  13.872
20988W        W89206  17.495  27.603  11.702
20989W        W89207  35.434  26.968   3.283
20990W        W89208  31.484  42.941   0.229
20991W        W89209  24.555  38.551   2.200
20992W        W89210   7.509   2.837   3.694
20993W        W89211  17.068  21.652   3.187
20994W        W89212  36.001  26.114   4.950
20995W        W89213   3.228  28.102  10.605
20996W        W89214  24.111   1.255  11.735
20997W        W89215  20.400  43.169   4.798
20998W        W89216  27.871  29.621   0.737
20999W        W89217   1.433  16.037   3.421
21000W        W89218  29.440  41.505   3.629
21001W        W89219  41.531  20.397   3.638
21002W        W89220   4.648   1.179   0.162
21003W        W89221  12.311  42.553  12.628
21004W        W89222  33.542  44.294   1.791
21005W        W89223   0.358  39.760  14.294
21006W        W89224  23.497  27.032   1.024
21007W        W89225   6.258   4.177  10.657
21008W        W89226   9.365  38.980  13.042
21009W        W89227  12.301   6.652  12.917
21010W        W89228  24.986  27.102   1.368
21011W        W89229  31.439  25.282  14.803
21012W        W89230   8.913   2.515   2.549
21013W        W89231   7.790  26.743  14.194
21014W        W89232   2.200  36.378  14.314
21015W        W89233  11.642  15.880   2.990
21016W        W89234  30.882  36.270  13.505
21017W        W89235  19.444   4.345   0.476
21018W        W89236  23.216  21.999  14.855
21019W        W89237  25.938  39.480   0.983
21020W        W89238  29.137  34.340  11.772
21021W        W89239  27.404  28.322  12.406
21022W        W89240   2.180  12.128  11.406
21023W        W89241  17.972  28.603  13.331
21024W        W89242  24.283  10.298   0.483
21025W        W89243   7.869   0.037   3.775
21026W        W89244  35.979  22.974   0.758
21027W        W89245  21.627   9.383  13.044
21028W        W89246  15.311   1.465  11.526
21029W        W89247  33.048  12.982  10.431
21030W        W89248  20.756  26.166  14.510
21031W        W89249  16.293   6.025  12.453
21032W        W89250   8.280  33.488  11.071
21033W        W89251  37.737  22.415   5.100
21034W        W89252  25.344   7.832   5.280
21035W        W89253  36.080  26.577  14.315
21036W        W89254   0.724  37.904  13.543
21037W        W89255  33.525   7.869  12.569
21038W        W89256  31.571  11.352   4.134
21039W        W89257  35.708   8.870   3.844
21040W        W89258  23.486  34.924  12.093
21041W        W89259  18.785   8.198   2.258
21042W        W89260  20.682   5.414   3.198
21043W        W89261   2.711  10.170   0.398
21044W        W89262   4.727  17.987   1.281
21045W        W89263   9.546  18.124  10.427
21046W        W89264  30.828  36.893   1.814
21047W        W89265   1.391   4.297   0.754
21048W        W89266  24.267   6.321  12.214
21049W        W89267   5.467  40.729  14.425
21050W        W89268  43.566   4.361  11.553
21051W        W89269  12.440  19.136  14.387
21052W        W89270  19.993  41.998  14.887
21053W        W89271   5.623  10.361   0.367
21054W        W89272  11.214  17.269  12.451
21055W        W89273   7.747   4.452  12.690
21056W        W89274   5.562   7.719  13.328
21057W        W89275  23.502  17.261  12.479
21058W        W89276  16.199  15.566  10.562
21059W        W89277  28.736  32.934  14.568
21060W        W89278   4.329  12.065   4.619
21061W        W89279  35.391  29.411  12.428
21062W        W89280  22.257  21.006  10.624
21063W        W89281  26.891  27.892   3.337
21064W        W89282  34.922  43.833  14.331
21065W        W89283  42.468  29.051   4.498
21066W        W89284  42.259  11.789   1.216
21067W        W89285  42.285  42.560  11.578
21068W        W89286   3.427  35.339  14.471
21069W        W89287  11.900  23.543  12.284
21070W        W89288  30.593  23.398   3.847
21071W        W89289  42.020  43.897   3.333
21072W        W89290  41.425   0.519  10.608
21073W        W89291  29.762  32.179  13.409
21074W        W89292   2.696  16.535  12.653
21075W        W89293   0.339   5.665  11.494
21076W        W89294  42.453  25.630  13.105
21077W        W89295  44.665  20.173   3.694
21078W        W89296  40.901   1.474  11.196
21079W        W89297  30.611  20.287   3.817
21080W        W89298  32.021  44.861  14.666
21081W        W89299  44.548  21.626   1.335
21082W        W89300  44.137  16.135  14.260
21083W        W89301   5.928  25.143   0.257
21084W        W89302   6.755  42.613   3.384
21085W        W89303  22.629   7.171   3.265
21086W        W89304  15.539  37.906  13.045
21087W        W89305   9.234  25.713   2.720
21088W        W89306   0.031  22.307  11.061
21089W        W89307  29.209  14.339  13.362
21090W        W89308  16.252  21.853  11.769
21091W        W89309   2.475   6.048   0.124
21092W        W89310  38.968   2.671   3.928
21093W        W89311  30.258  17.346  11.751
21094W        W89312   9.280   5.340   3.049
21095W        W89313  23.569  31.636  14.378
21096W        W89314  15.145  24.048   4.611
21097W        W89315  23.640  22.385  11.520
21098W        W89316  40.305  35.418   3.738
21099W        W89317  11.329  12.190   2.230
21100W        W89318  42.344  33.368  11.917
21101W        W89319  37.465  11.111  12.522
21102W        W89320  34.084  40.289   2.714
21103W        W89321  31.737  17.565   3.184
21104W        W89322  14.748  28.976  12.905
21105W        W89323  35.600   1.830  12.972
21106W        W89324   0.992  21.233   1.885
21107W        W89325  25.813  22.105  11.122
21108W        W89326  13.282  38.065   0.884
21109W        W89327  35.473   1.967  13.512
21110W        W89328  23.128  35.298   1.273
21111W        W89329   4.126   9.616   4.235
21112W        W89330  17.226  36.591   3.604
21113W        W89331  27.042  26.354   3.150
21114W        W89332  29.088   7.450  10.712
21115W        W89333  14.912   6.818   0.523
21116W        W89334  31.869  10.217  10.765
21117W        W89335  43.871   9.569  13.008
21118W        W89336   6.880  29.895   1.792
21119W        W89337  17.824  36.071  10.733
21120W        W89338  44.179  33.642   2.652
21121W        W89339  13.915  41.916   3.732
21122W        W89340  38.653  20.240  11.175
21123W        W89341  20.998  26.126   0.003
21124W        W89342  17.606  42.856  10.383
21125W        W89343  27.866  43.169  12.847
21126W        W89344  20.658  18.285  11.142
21127W        W89345  13.588  11.831  13.910
21128W        W89346  24.947  41.814   2.733
21129W        W89347   1.247  22.249   4.305
21130W        W89348  42.273  12.286  13.340
21131W        W89349  10.635   5.018  14.292
21132W        W89350   9.370  44.315   2.325
21133W        W89351  38.984   8.903   2.262
21134W        W89352   5.427   0.101   1.799
21135W        W89353  21.756  44.984   1.335
21136W        W89354  24.109  24.144  14.434
21137W        W89355  31.376  17.304   1.473
21138W        W89356  30.980  34.940   3.249
21139W        W89357  25.903   0.672  10.585
21140W        W89358  16.915  41.525   2.598
21141W        W89359   8.375  40.850  12.418
21142W        W89360   0.502   7.157  13.774
21143W        W89361  21.505  10.408   1.914
21144W        W89362   6.780  28.559   4.911
21145W        W89363  39.800   7.756   2.068
21146W        W89364  32.977  12.664  14.454
21147W        W89365  37.660  41.568  12.975
21148W        W89366   0.204  13.754  11.437
21149W        W89367  12.720  33.563   1.946
21150W        W89368  19.153  13.188  10.392
21151W        W89369   0.105  15.130  13.516
21152W        W89370  15.042  36.057   4.644
21153W        W89371  19.248  38.375   1.476
21154W        W89372  22.299  34.181   0.262
21155W        W89373  28.532  26.390   2.671
21156W        W89374  24.184   7.454   2.812
21157W        W89375  23.884  34.557  11.094
21158W        W89376  40.731  39.943  14.961
21159W        W89377  19.680  20.154  14.492
21160W        W89378  23.988   4.330   1.751
21161W        W89379  33.361  22.450  13.881
21162W        W89380  33.196   5.006   3.320
21163W        W89381  15.080  26.996  13.496
21164W        W89382  30.382  40.862   1.949
21165W        W89383   5.344  39.138   0.398
21166W        W89384  34.905   1.505   1.927
21167W        W89385  16.029   7.820  13.876
21168W        W89386  39.877   9.171  12.878
21169W        W89387  36.830   1.808   0.502
21170W        W89388  38.487  13.115  11.645
21171W        W89389  12.722  20.949   2.318
21172W        W89390  35.963   1.515  13.900
21173W        W89391  20.220  35.880  11.596
21174W        W89392  41.689  17.099   4.154
21175W        W89393  15.273   7.381   4.734
21176W        W89394  19.388  44.101   2.668
21177W        W89395  42.269  34.939  14.063
21178W        W89396  23.528   8.172  11.424
21179W        W89397  24.968  17.648  12.433
21180W        W89398  42.827  23.864  12.579
21181W        W89399  26.499  34.626   1.232
21182W        W89400  22.078  29.800   3.526
21183W        W89401  18.093  44.405   0.872
21184W        W89402   4.232  28.588   3.268
21185W        W89403   0.451  39.543   3.578
21186W        W89404  23.551  22.225   4.630
21187W        W89405  31.782  16.271   4.537
21188W        W89406  26.125  37.093  14.687
21189W        W89407  39.572  44.894   0.328
21190W        W89408   1.906   9.454   2.651
21191W        W89409  39.342  38.870   0.286
21192W        W89410  43.978  40.970  10.105
21193W        W89411  22.156   5.395  14.338
21194W        W89412  25.556   0.400   0.839
21195W        W89413  11.862   0.941  10.492
21196W        W89414   2.076   4.456   1.771
21197W        W89415   2.135   0.849   2.231
21198W        W89416  42.886  38.572  14.931
21199W        W89417   0.408  16.139   4.247
21200W        W89418   7.170  23.529  12.972
21201W        W89419   6.394  22.344   1.122
21202W        W89420  40.145  18.765   1.867
21203W        W89421  20.469  28.585  13.831
21204W        W89422  22.551   1.783   3.659
21205W        W89423  34.589   3.938  11.633
21206W        W89424  11.620  37.124  12.087
21207W        W89425  29.031  22.963   4.416
21208W        W89426  18.778  24.531  10.828
21209W        W89427  23.694   9.238   0.928
21210W        W89428   6.711  24.657   0.410
21211W        W89429  38.452   4.797  11.998
21212W        W89430   1.825  10.366  11.487
21213W        W89431  21.651  40.327   4.092
21214W        W89432  14.305  35.457  14.011
21215W        W89433  14.264  38.380   2.617
21216W        W89434   0.472  30.582   3.390
21217W        W89435  19.874  31.934  10.545
21218W        W89436  31.166  24.147  14.314
21219W        W89437  30.911  23.032   2.683
21220W        W89438   5.874  15.373  10.464
21221W        W89439  14.510  24.051   1.309
21222W        W89440  13.005  18.859   3.719
21223W        W89441  11.172  18.845   2.330
21224W        W89442  13.670  36.772   3.682
21225W        W89443  11.697  42.346  10.914
21226W        W89444  44.552  37.876   0.225
21227W        W89445  11.313  40.168  14.608
21228W        W89446  15.689  24.145   3.190
21229W        W89447  19.125  18.587  13.043
21230W        W89448  30.267  21.079  12.618
21231W        W89449  31.283  10.128   3.310
21232W        W89450  44.930  29.425  14.269
21233W        W89451  25.814  30.110  12.009
21234W        W89452  36.646  28.492  12.268
21235W        W89453   2.416  24.249   3.250
21236W        W89454   2.109  11.735   2.310
21237W        W89455   3.964  33.913   4.172
21238W        W89456  38.575  18.575   1.268
21239W        W89457  23.496  38.075   3.156
21240W        W89458  13.789  11.296  11.307
21241W        W89459  24.984  11.118  11.334
21242W        W89460  26.414  26.126  12.073
21243W        W89461  38.145  25.935   1.949
21244W        W89462  36.827  44.745   1.412
21245W        W89463  30.291  14.714   3.521
21246W        W89464  41.208  14.218   1.212
21247W        W89465  34.109  40.273   1.716
21248W        W89466   3.711  30.539   0.797
21249W        W89467  15.318  39.788  12.813
21250W        W89468  10.337   2.514   1.059
21251W        W89469  20.764   9.685  14.309
21252W        W89470  20.090  32.218   1.947
21253W        W89471  44.490  36.953   0.253
21254W        W89472  29.475  29.405  10.524
21255W        W89473  26.373  19.389   4.941
21256W        W89474  13.262  42.311   3.532
21257W        W89475   3.664   0.772   3.410
21258W        W89476  28.174   3.021  14.689
21259W        W89477  10.724  39.708  12.211
21260W        W89478  25.261   9.267  11.597
21261W        W89479   0.798   0.100   2.678
21262W        W89480   1.755   3.284  14.096
21263W        W89481   7.874  21.267  14.351
21264W        W89482  32.703  22.360   1.757
21265W        W89483   5.253  20.845   0.855
21266W        W89484  20.729  14.410   3.244
21267W        W89485  16.426   8.902   4.501
21268W        W89486  11.420  20.095  13.282
21269W        W89487   9.783  39.910   0.738
21270W        W89488   1.628   6.089  12.088
21271W        W89489  40.073  29.123   4.166
21272W        W89490  38.037   5.956  11.692
21273W        W89491  43.787  43.001  12.982
21274W        W89492   6.948   3.756   1.333
21275W        W89493  12.321  25.564  10.840
21276W        W89494  15.620  39.444  12.060
21277W        W89495   1.716  31.982  11.748
21278W        W89496  40.255  15.321   0.604
21279W        W89497  30.078  37.606  11.633
21280W        W89498  10.800  34.641   0.349
21281W        W89499   0.019  28.071  10.927
21282W        W89500  12.761  10.630  11.538
21283W        W89501   0.362  20.754   4.686
21284W        W89502   0.949  43.877  10.935
21285W        W89503   3.211  35.469  13.435
21286W        W89504  10.465  44.627   0.698
21287W        W89505  34.472  13.123   4.964
21288W        W89506   8.302  19.623   5.194
21289W        W89507  33.577  29.584   4.582
21290W        W89508  18.790   6.298  13.390
21291W        W89509   7.195  36.946  11.965
21292W        W89510  24.005   8.153  11.591
21293W        W89511  43.188   7.836   0.913
21294W        W89512  36.196  20.745  10.648
21295W        W89513  22.596  26.964   0.333
21296W        W89514   7.862  19.532  12.824
21297W        W89515   3.825  29.097   4.286
21298W        W89516  31.624  16.096  14.381
21299W        W89517   9.900   7.881   0.432
21300W        W89518  31.892   6.381  14.823
21301W        W89519  14.615  24.403   0.462
21302W        W89520  15.716  43.587   0.040
21303W        W89521  37.976  19.767   0.031
21304W        W89522   4.255  38.087   4.655
21305W        W89523   0.917  44.332  14.043
21306W        W89524   6.668  25.056  10.817
21307W        W89525  34.965  13.117   0.816
21308W        W89526  39.041  11.986   4.110
21309W        W89527  37.535  19.490  10.236
21310W        W89528  16.821   5.922  11.175
21311W        W89529   9.429  14.276  14.814
21312W        W89530  36.420   5.854   0.898
21313W        W89531  38.290   3.261  11.604
21314W        W89532  18.118   2.352  14.137
21315W        W89533   7.705  24.292   3.172
21316W        W89534  18.230  27.185   4.856
21317W        W89535  41.327  18.642  13.343
21318W        W89536  42.061  25.920   1.327
21319W        W89537  13.355  16.192  10.446
21320W        W89538   5.132  35.031   3.268
21321W        W89539  23.051  43.879   2.127
21322W        W89540  42.369   7.233   0.184
21323W        W89541   9.220  20.878  12.037
21324W        W89542  25.621  22.551   3.175
21325W        W89543   1.785  36.823   0.405
21326W        W89544  20.504  34.651  10.722
21327W        W89545  30.186  16.790   1.308
21328W        W89546  27.216  14.239   1.274
21329W        W89547   5.724  42.623  14.932
21330W        W89548   1.394  33.893   3.246
21331W        W89549  31.163   2.960   2.741
21332W        W89550  23.021  34.933   1.702
21333W        W89551   1.889  26.044   1.201
21334W        W89552  16.086  24.438  13.054
21335W        W89553  43.024  20.029   1.624
21336W        W89554  37.937  26.070  11.572
21337W        W89555  25.215  11.124   2.816
21338W        W89556  11.537  36.533   2.196
21339W        W89557  16.065  17.050   1.649
21340W        W89558  31.746  27.609  12.040
21341W        W89559  20.198   7.778   4.059
21342W        W89560   1.261  18.198   3.439
21343W        W89561  43.671  31.498   3.194
21344W        W89562  33.661   1.483  13.833
21345W        W89563  17.970   4.618   3.236
21346W        W89564  25.389  22.706   0.517
21347W        W89565  28.405  28.707   0.432
21348W        W89566  17.871   6.720  12.131
21349W        W89567  29.443  42.884  13.488
21350W        W89568  32.124  22.623  10.487
21351W        W89569  36.613  38.496   2.693
21352W        W89570  38.542  34.055   1.169
21353W        W89571  40.390  27.028  12.333
21354W        W89572  42.685  38.051   4.934
21355W        W89573   6.449  40.385  11.887
21356W        W89574  37.376  40.670  13.055
21357W        W89575  32.397  36.036  11.173
21358W        W89576  36.572  14.322  14.901
21359W        W89577  41.420  17.614   1.114
21360W        W89578  18.979  37.090  14.036
21361W        W89579  26.557  32.060   0.394
21362W        W89580  40.012  30.363  14.226
21363W        W89581  25.607  14.728  10.275
21364W        W89582  30.171  13.293  13.082
21365W        W89583  29.217  44.565   1.407
21366W        W89584  40.883   9.697  14.885
21367W        W89585  42.576  30.746  12.480
21368W        W89586  31.404  43.730   1.243
21369W        W89587  35.877  20.489   3.729
21370W        W89588   1.885  17.184   1.027
21371W        W89589  34.039  30.374  11.527
21372W        W89590  37.413  10.524   2.168
21373W        W89591   2.389  19.710   5.135
21374W        W89592  29.618  32.478  13.808
21375W        W89593  36.924  24.205  14.868
21376W        W89594  15.871  35.426  12.882
21377W        W89595  29.371  25.201   2.629
21378W        W89596  11.718   3.450  13.050
21379W        W89597  43.286  22.822   0.929
21380W        W89598  12.120  43.447  12.862
21381W        W89599  44.644  22.148   3.148
21382W        W89600  37.070  16.655   2.242
21383W        W89601  21.801  40.839  12.427
21384W        W89602  15.659   7.194  14.285
21385W        W89603   3.944  10.298  14.419
21386W        W89604  32.370  38.101  14.059
21387W        W89605  37.489   9.439  14.967
21388W        W89606   2.388  15.870  14.356
21389W        W89607  12.878   0.949  13.447
21390W        W89608   2.236  28.327  14.548
21391W        W89609  37.399  29.382   1.785
21392W        W89610  29.457  30.008   4.392
21393W        W89611   7.043   1.073   3.784
21394W        W89612  31.733  42.100   3.705
21395W        W89613  12.683  43.953   1.906
21396W        W89614  44.479   2.319   1.452
21397W        W89615  22.788  20.073   4.861
21398W        W89616  27.403  14.653   0.204
21399W        W89617   0.878  29.094   0.018
21400W        W89618  40.366  34.630  13.840
21401W        W89619  36.925  12.412   4.562
21402W        W89620  17.560   6.395   2.201
21403W        W89621  39.839  32.813   2.837
21404W        W89622   8.147  12.163  12.048
21405W        W89623   1.367  30.661  12.111
21406W        W89624  30.326  17.140   2.938
21407W        W89625  38.341   4.919  12.473
21408W        W89626  37.080   7.203  10.855
21409W        W89627  25.475  30.406  12.833
21410W        W89628  15.627  11.606   1.338
21411W        W89629  37.091   0.981  10.808
21412W        W89630  13.708   2.745  14.313
21413W        W89631   9.192  44.751  11.633
21414W        W89632   9.449  28.058  10.591
21415W        W89633  31.910   7.291  11.010
21416W        W89634  16.695  35.124  14.578
21417W        W89635  35.181  44.361   3.602
21418W        W89636   7.826  10.694  13.739
21419W        W89637   9.602  38.526  13.882
21420W        W89638  31.859  40.408   3.672
21421W        W89639  42.566  28.512   4.460
21422W        W89640  15.691   8.100   3.222
21423W        W89641  34.042  12.722   3.370
21424W        W89642  10.192  42.978   3.737
21425W        W89643  44.822   4.666   4.127
21426W        W89644  33.089  44.630   0.963
21427W        W89645  26.087  34.077   2.777
21428W        W89646  36.726  43.838   1.738
21429W        W89647   4.229  13.091   3.738
21430W        W89648   2.825   4.227  10.737
21431W        W89649  40.589  33.613   3.376
21432W        W89650  36.663  27.653  11.016
21433W        W89651   3.250  40.020   3.211
21434W        W89652  17.262  41.009   4.380
21435W        W89653  16.439   9.882  11.590
21436W        W89654  33.437  11.768   1.217
21437W        W89655  36.789  12.106   0.288
21438W        W89656  23.961  24.121   3.646
21439W        W89657  28.899  33.648  10.637
21440W        W89658  21.096  23.763  14.371
21441W        W89659  29.603  44.592  10.754
21442W        W89660   5.881   9.872   4.030
21443W        W89661  16.747  25.454  11.516
21444W        W89662  16.175  12.426  10.308
21445W        W89663   7.307   8.286  11.258
21446W        W89664  22.620  32.927   1.696
21447W        W89665  32.537  12.276  11.876
21448W        W89666   0.789  41.919   4.960
21449W        W89667  21.476   2.174   2.233
21450W        W89668  24.738  41.342   2.676
21451W        W89669  44.078  10.289  12.489
21452W        W89670   9.421  31.434   4.680
21453W        W89671  41.295   4.050   0.901
21454W        W89672  14.328  17.176   4.053
21455W        W89673  40.470  30.723   4.500
21456W        W89674  27.533   9.764   1.027
21457W        W89675  32.553  38.989   0.495
21458W        W89676  41.931  17.267  12.957
21459W        W89677  19.543  36.135  14.225
21460W        W89678  39.946  37.400   2.202
21461W        W89679   2.739  15.745   0.933
21462W        W89680  27.007   2.351   1.286
21463W        W89681  12.157  16.712  12.204
21464W        W89682  43.483  11.325   4.705
21465W        W89683  26.491  34.552   4.566
21466W        W89684   3.420   8.936  12.380
21467W        W89685   3.627  24.643   2.793
21468W        W89686  27.524  16.060  14.360
21469W        W89687  41.493  10.534  10.000
21470W        W89688  17.962  37.186  14.428
21471W        W89689  26.528   5.255   4.112
21472W        W89690  44.728  10.387  14.020
21473W        W89691  27.510  20.439   0.461
21474W        W89692  21.795  18.770  14.776
21475W        W89693  40.729  30.358   3.316
21476W        W89694  40.954  13.045   1.938
21477W        W89695  34.504  25.943   2.411
21478W        W89696  25.604  31.562  13.397
21479W        W89697  17.301  26.064  14.405
21480W        W89698  23.571  40.360  12.027
21481W        W89699  18.806  23.864   4.087
21482W        W89700  40.269  10.703   3.166
21483W        W89701  37.706  15.353   4.324
21484W        W89702  41.810  22.474  10.323
21485W        W89703  35.506  42.936   2.814
21486W        W89704   9.257  33.819  13.526
21487W        W89705  10.209  14.503   2.830
21488W        W89706  31.485  14.633   4.026
21489W        W89707  44.940  16.988  12.434
21490W        W89708  37.981   1.967   3.149
21491W        W89709  10.404   3.218  13.208
21492W        W89710  29.490  27.408   4.142
21493W        W89711  21.760  29.386   4.030
21494W        W89712  26.909   7.868  12.003
21495W        W89713  24.361   7.865   1.740
21496W        W89714  25.665  37.454  10.764
21497W        W89715  32.391  19.834  12.887
21498W        W89716   4.402  26.083   1.723
21499W        W89717   7.179  16.629   2.595
21500W        W89718  18.257  35.163   4.863
21501W        W89719   3.452   8.366  10.669
21502W        W89720  18.198  39.854  11.910
21503W        W89721  31.066  42.300  12.386
21504W        W89722  12.363  10.206   1.288
21505W        W89723  44.999  40.420   3.284
21506W        W89724   9.169  42.745  13.549
21507W        W89725  10.176  14.084  13.017
21508W        W89726  35.167   6.274  14.353
21509W        W89727  27.124   3.239  13.157
21510W        W89728  31.108  32.430   2.341
21511W        W89729   8.183   2.625  12.114
21512W        W89730   2.694   4.385   3.566
21513W        W89731  23.754  17.305  14.029
21514W        W89732   7.858   3.097   3.308
21515W        W89733  31.944  23.069  14.830
21516W        W89734  14.828  17.583  12.093
21517W        W89735  30.995  36.581   0.272
21518W        W89736  44.983   6.475  13.997
21519W        W89737  10.437  26.518   2.725
21520W        W89738  42.255  10.383   1.471
21521W        W89739  21.350  44.006  12.103
21522W        W89740  26.924  24.712   1.813
21523W        W89741  35.648   2.203   1.864
21524W        W89742  20.665   6.431  12.364
21525W        W89743  43.491  21.160   4.460
21526W        W89744  18.721  39.332  12.395
21527W        W89745   2.837  38.763  14.975
21528W        W89746  28.649  31.459  13.288
21529W        W89747  28.915  43.501   1.180
21530W        W89748  33.430   8.256  12.917
21531W        W89749   6.680  31.058   2.187
21532W        W89750  32.588  28.864  12.188
21533W        W89751   6.254  39.252  12.504
21534W        W89752  20.151   2.155  12.854
21535W        W89753  26.883  10.446   0.928
21536W        W89754  39.338   9.711  13.869
21537W        W89755  27.820  13.563  10.430
21538W        W89756   6.358   5.682  14.904
21539W        W89757  35.808  42.011   4.509
21540W        W89758  40.084  16.538  14.850
21541W        W89759  37.043   7.344   4.512
21542W        W89760  26.737  38.412   3.968
21543W        W89761  41.322  44.406   4.396
21544W        W89762  39.409  33.367  11.981
21545W        W89763  20.290  19.197   1.345
21546W        W89764   4.153  20.996   2.280
21547W        W89765  19.144   5.370  11.145
21548W        W89766  22.216  41.991   0.698
21549W        W89767  38.071  13.112  10.967
21550W        W89768  33.804  26.646   0.751
21551W        W89769  34.129   4.230   5.459
21552W        W89770   5.489  27.412   4.122
21553W        W89771   9.957  18.045   1.335
21554W        W89772   5.464  30.698  14.332
21555W        W89773  10.313  40.128  11.157
21556W        W89774  27.107   6.076   0.265
21557W        W89775  20.585  36.318   4.536
21558W        W89776  19.799  20.469   3.549
21559W        W89777  12.088   9.648   2.836
21560W        W89778  36.962  37.050   2.833
21561W        W89779  38.370   8.388   4.587
21562W        W89780  11.086   0.273   2.039
21563W        W89781  41.469  13.397   1.282
21564W        W89782  16.615  18.946   0.613
21565W        W89783  42.286   3.423   4.513
21566W        W89784  32.296   8.398  13.485
21567W        W89785  25.237  39.542   2.718
21568W        W89786   3.004  30.403   0.400
21569W        W89787   6.728   1.518   1.775
21570W        W89788  41.851  28.124   0.493
21571W        W89789  41.858  35.040  14.365
21572W        W89790  44.895  15.432   4.128
21573W        W89791  35.397  36.327  13.103
21574W        W89792   8.380  13.588   2.673
21575W        W89793  13.776  37.229   1.087
21576W        W89794  41.411  18.620   3.780
21577W        W89795  34.013  10.498  11.905
21578W        W89796  18.511  27.678   1.274
21579W        W89797  44.876  22.075  12.006
21580W        W89798  16.298  12.672  14.478
21581W        W89799  35.911  26.160   3.379
21582W        W89800  30.095   2.236  10.365
21583W        W89801   2.209   2.331  12.827
21584W        W89802  44.759  10.072   0.385
21585W        W89803  26.543  43.385  14.423
21586W        W89804  28.953  11.876  10.728
21587W        W89805  14.363  37.997  12.520
21588W        W89806  43.387  31.511   4.054
21589W        W89807  38.964  30.855   2.968
21590W        W89808  17.194  31.884  13.432
21591W        W89809  25.248  21.406   2.443
21592W        W89810  31.618  10.647   2.973
21593W        W89811  16.273  27.320   0.176
21594W        W89812  36.398  17.133  11.600
21595W        W89813   1.806   8.641   2.227
21596W        W89814  27.038  25.794   5.024
21597W        W89815  20.579  43.928  11.163
21598W        W89816   7.454  18.554  14.379
21599W        W89817  17.188  31.159  10.622
21600W        W89818   2.288  13.881  10.808
21601W        W89819  31.115   8.931   3.884
21602W        W89820  11.572  34.642  10.837
21603W        W89821  33.395  41.285   3.949
21604W        W89822   1.556  10.815  11.543
21605W        W89823  41.497  41.018   1.899
21606W        W89824   1.201  40.601   0.763
21607W        W89825  38.434  16.261   3.805
21608W        W89826  17.208  44.287  13.313
21609W        W89827  32.326  33.971  13.058
21610W        W89828  39.393   5.509   1.957
21611W        W89829  28.081  18.620   4.957
21612W        W89830  15.293  23.019   4.547
21613W        W89831  43.760  31.008   0.830
21614W        W89832  27.157  26.515   4.050
21615W        W89833  11.359  37.922   2.371
21616W        W89834  41.076  23.998   3.686
21617W        W89835   5.904  33.663  11.598
21618W        W89836  22.772  14.262  13.953
21619W        W89837  25.043  43.394   2.817
21620W        W89838  11.430  40.494  12.846
21621W        W89839  16.070   9.427  12.637
21622W        W89840  11.326   0.045   0.173
21623W        W89841  23.382  14.319  13.593
21624W        W89842  14.309   5.245  12.866
21625W        W89843  26.184  39.104   3.555
21626W        W89844   0.730  44.769  10.484
21627W        W89845   7.936  22.766   0.419
21628W        W89846  38.594  26.731  12.505
21629W        W89847   6.925  37.340  11.739
21630W        W89848  38.429  23.721  13.532
21631W        W89849  36.335  23.584   1.833
21632W        W89850  14.362  13.798  14.156
21633W        W89851  33.891  39.905   4.932
21634W        W89852  44.418  16.684   4.369
21635W        W89853   2.785   2.916   3.487
21636W        W89854  32.772   3.152   9.962
21637W        W89855  30.532  13.319   4.958
21638W        W89856   9.218  31.995  11.255
21639W        W89857  40.392  24.301  10.161
21640W        W89858  43.870  29.674  14.824
21641W        W89859  32.107  10.488  11.628
21642W        W89860   0.800  32.852  13.760
21643W        W89861  29.710  23.197  13.387
21644W        W89862  32.483   5.733   4.148
21645W        W89863  29.639  40.101  14.346
21646W        W89864  14.720  28.559  14.832
21647W        W89865  33.512  18.330   3.247
21648W        W89866   8.872  29.703   4.649
21649W        W89867  26.709   5.671   1.285
21650W        W89868  11.352  14.270   0.267
21651W        W89869  19.338  37.696   0.098
21652W        W89870  15.857   9.220  11.701
21653W        W89871  39.180  37.898   0.353
21654W        W89872  32.582  10.181  12.423
21655W        W89873  28.023   3.848   2.473
21656W        W89874  11.155  37.438   2.315
21657W        W89875   6.628  34.154   1.337
21658W        W89876  32.425  21.086   1.361
21659W        W89877  23.461  43.177  14.414
21660W        W89878  38.013   9.872  12.788
21661W        W89879  36.108  20.470  12.898
21662W        W89880  30.125  39.944  11.116
21663W        W89881  29.537   6.669   3.281
21664W        W89882   9.325  22.968  14.600
21665W        W89883  16.144   4.710   1.230
21666W        W89884  33.580   8.851  12.573
21667W        W89885  27.527  14.005  13.577
21668W        W89886  17.487  35.992   1.321
21669W        W89887  31.116  32.489  14.010
21670W        W89888  11.827  26.732   2.421
21671W        W89889  18.342  40.204  12.527
21672W        W89890  41.128  20.369  12.553
21673W        W89891  44.805   3.981   2.777
21674W        W89892  14.117  43.803  14.742
21675W        W89893   2.131  23.152   2.880
21676W        W89894  19.164  39.057   3.586
21677W        W89895  40.642  42.198   3.210
21678W        W89896   9.393  39.101   0.211
21679W        W89897  22.567  32.059  10.953
21680W        W89898  44.714  33.346  13.066
21681W        W89899   4.626  15.906   3.114
21682W        W89900  21.051  44.403  11.642
21683W        W89901  19.222  13.201   3.416
21684W        W89902  41.890  33.088   3.226
21685W        W89903  25.228  37.568  13.420
21686W        W89904  15.201  26.960   1.998
21687W        W89905   0.777   9.335  12.858
21688W        W89906   1.364  21.077  13.230
21689W        W89907  16.708   8.207   0.472
21690W        W89908   0.533  17.148   4.427
21691W        W89909   6.155  41.958  11.449
21692W        W89910  32.848   0.577  11.965
21693W        W89911   6.834  43.888   3.340
21694W        W89912   4.654  13.294  10.966
21695W        W89913   2.393  25.717   2.412
21696W        W89914   4.776   6.563   2.172
21697W        W89915  22.740  17.230  11.174
21698W        W89916  22.163  24.724  11.497
21699W        W89917  41.103   0.446   1.912
21700W        W89918  37.806  44.925  11.117
21701W        W89919  29.278  27.514   3.557
21702W        W89920  39.049   7.794  10.723
21703W        W89921  38.603  19.530  14.512
21704W        W89922   7.890  20.994   3.520
21705W        W89923  24.867  31.468   2.763
21706W        W89924  17.076  31.482  14.555
21707W        W89925   5.204  41.518  13.477
21708W        W89926   0.812   2.173   1.420
21709W        W89927   1.317  13.104  14.919
21710W        W89928  11.017  32.392   0.259
21711W        W89929  15.052  39.039   0.857
21712W        W89930  33.898  35.813  11.212
21713W        W89931   2.030  41.290  10.357
21714W        W89932   2.906  23.232  11.094
21715W        W89933  34.018  31.969   1.206
21716W        W89934  22.228  24.579   4.738
21717W        W89935  30.494  36.022  11.934
21718W        W89936  23.394  34.994  10.224
21719W        W89937  38.122  21.813  11.638
21720W        W89938  42.046   7.870  14.518
21721W        W89939   4.400  42.137  14.194
21722W        W89940  42.169  32.266   4.757
21723W        W89941   3.828  33.802   2.704
21724W        W89942  12.171  11.860  10.767
21725W        W89943  41.286  29.349   4.364
21726W        W89944  43.828  41.800  10.637
21727W        W89945  31.524  40.015   1.430
21728W        W89946  40.938  17.390   3.713
21729W        W89947  30.514  17.484  14.523
21730W        W89948  10.776  17.821   2.142
21731W        W89949   1.743  18.419  12.008
21732W        W89950  34.315  36.916  13.377
21733W        W89951  18.668   7.431   1.284
21734W        W89952  23.576  22.184   1.909
21735W        W89953  24.259   3.658  11.238
21736W        W89954  10.604  29.264   3.341
21737W        W89955  33.624  30.466   4.759
21738W        W89956  33.861  44.299   3.238
21739W        W89957  12.875  13.749  11.244
21740W        W89958  10.711  24.961   3.816
21741W        W89959  20.842  30.927   1.178
21742W        W89960  19.389   5.790   2.741
21743W        W89961   6.840   5.875  13.765
21744W        W89962  30.376   6.791  12.463
21745W        W89963  36.107  28.090  12.369
21746W        W89964  26.627  31.641  10.457
21747W        W89965   0.882   6.509   0.516
21748W        W89966   0.174  31.341  13.814
21749W        W89967  32.037  42.392   3.378
21750W        W89968  10.692  44.474  10.585
21751W        W89969  40.462   3.515   1.272
21752W        W89970  41.448   6.212  11.734
21753W        W89971  18.652  36.143  14.258
21754W        W89972   0.367   1.469  10.440
21755W        W89973  38.649  31.124   2.686
21756W        W89974  20.166  10.893   4.202
21757W        W89975   7.666  38.514   4.677
21758W        W89976  23.495   4.938   2.309
21759W        W89977  34.476   7.655   1.380
21760W        W89978   3.415  18.002  10.760
21761W        W89979  30.094  19.150  13.436
21762W        W89980  31.665  40.492   2.937
21763W        W89981   0.663  26.737   3.537
21764W        W89982  22.581  40.834  11.992
21765W        W89983  30.186  23.285   0.791
21766W        W89984  30.090   7.524  12.588
21767W        W89985  31.111   6.749  10.244
21768W        W89986  14.035   4.339  12.836
21769W        W89987  24.263  26.776   0.883
21770W        W89988  19.056   3.872   3.861
21771W        W89989  16.112  20.065   1.094
21772W        W89990   9.874  40.278  13.334
21773W        W89991  33.249  31.033   4.664
21774W        W89992  12.272  21.474   0.321
21775W        W89993  42.421   2.739   2.670
21776W        W89994  32.864  21.285   2.943
21777W        W89995   8.200  21.052  14.724
21778W        W89996  24.184  27.986  12.082
21779W        W89997  26.734  43.219   0.357
21780W        W89998  44.729  15.739   2.734
21781W        W89999   6.817  37.456  14.104
21782W        W90000  30.835  33.065   4.837
21783W        W90001  40.999   3.761  10.989
21784W        W90002  21.555  26.431   2.787
21785W        W90003   1.405  29.149   4.398
21786W        W90004  16.811  30.266   2.317
21787W        W90005  32.508  25.527   2.453
21788W        W90006   1.351  10.945   1.487
21789W        W90007  25.531  10.036   0.928
21790W        W90008  20.553   8.457   1.589
21791W        W90009  41.529   6.685  14.730
21792W        W90010   1.702   3.876  14.806
21793W        W90011  20.191  23.072   3.144
21794W        W90012  22.705  29.189   1.544
21795W        W90013   6.341  35.343  13.825
21796W        W90014  17.665  29.438   3.278
21797W        W90015  15.168  24.813  13.845
21798W        W90016   1.849   4.426   2.246
21799W        W90017   8.571  27.221  14.389
21800W        W90018  30.174  26.183   1.203
21801W        W90019  16.313  39.748   4.167
21802W        W90020  34.386  20.876  14.687
21803W        W90021  29.798  29.580   1.680
21804W        W90022  39.383  21.779  13.059
21805W        W90023  12.905  39.271   2.354
21806W        W90024   8.944  35.117  12.004
21807W        W90025  37.308  18.750   3.712
21808W        W90026  22.113  12.813   2.478
21809W        W90027  10.476  23.559  12.037
21810W        W90028  15.899  15.504   4.496
21811W        W90029  30.636  32.491  12.480
21812W        W90030   1.870  24.726   0.740
21813W        W90031  10.359  24.360  14.893
21814W        W90032   6.631  30.966  13.862
21815W        W90033  32.031  12.891  11.140
21816W        W90034  36.304  30.934  13.333
21817W        W90035  20.579  43.072   4.318
21818W        W90036  33.046  27.577   4.290
21819W        W90037  26.859   2.380  14.136
21820W        W90038   4.283  12.048  10.899
21821W        W90039   8.365   7.172   3.705
21822W        W90040  26.574  16.482  14.916
21823W        W90041  29.391  20.220  14.392
21824W        W90042  15.912   8.420  14.883
21825W        W90043   3.630  31.044  11.571
21826W        W90044  11.395  28.439   2.707
21827W        W90045  21.248  24.133   2.383
21828W        W90046   2.767   4.317   2.297
21829W        W90047   4.425  12.338   3.217
21830W        W90048  33.125  11.595  10.950
21831W        W90049  17.214  39.495   0.783
21832W        W90050   1.841   0.506   1.727
21833W        W90051  20.652  25.926   2.764
21834W        W90052  40.456   6.459   1.600
21835W        W90053  18.724  10.430  10.322
21836W        W90054  11.575   0.030   2.244
21837W        W90055  17.660  10.336   1.123
21838W        W90056  43.543  27.559   1.198
21839W        W90057  42.377  17.996   1.873
21840W        W90058   0.417  14.967  14.767
21841W        W90059  23.947  19.349   3.676
21842W        W90060   3.850  29.623   3.533
21843W        W90061  20.700  11.685  12.040
21844W        W90062  41.530  38.791  12.073
21845W        W90063  18.623  27.798   2.711
21846W        W90064   0.026  34.506  13.442
21847W        W90065  30.595  25.225   3.234
21848W        W90066  38.350  10.176   3.177
21849W        W90067  29.144  17.922   9.863
21850W        W90068  43.685   2.455   2.275
21851W        W90069  34.904  30.869   2.322
21852W        W90070  13.888  29.642  14.547
21853W        W90071  25.678   9.939  11.081
21854W        W90072  24.162  24.152  11.153
21855W        W90073  17.198  30.438   1.292
21856W        W90074  40.679  42.438   0.614
21857W        W90075  20.188  21.964  11.502
21858W        W90076   5.241  35.882  13.906
21859W        W90077  30.357  39.495  12.413
21860W        W90078  10.339  42.617   2.390
21861W        W90079  44.356  13.777  11.066
21862W        W90080  24.194  29.591   4.302
21863W        W90081  13.695  35.837  14.876
21864W        W90082   4.524  38.578  14.366
21865W        W90083  31.398   2.217  11.595
21866W        W90084  33.430  32.563   0.385
21867W        W90085  44.800  40.512   0.874
21868W        W90086  33.222   8.012  11.964
21869W        W90087  22.194  22.130  12.205
21870W        W90088  38.907  10.805  11.560
21871W        W90089   8.991  12.530   2.296
21872W        W90090  11.972   5.812  13.447
21873W        W90091  14.489  22.048  14.224
21874W        W90092  13.357  19.245  13.581
21875W        W90093   1.064  15.740   2.260
21876W        W90094  30.953  33.068  10.094
21877W        W90095   0.780  24.852   3.709
21878W        W90096  38.449  22.538   0.363
21879W        W90097  31.335  42.541  13.539
21880W        W90098  41.821   8.225  11.187
21881W        W90099   2.777   2.493   4.181
21882W        W90100  24.812  44.892  11.707
21883W        W90101  40.348   7.728  12.466
21884W        W90102  25.364   3.147   2.167
21885W        W90103  17.847   1.319  12.887
21886W        W90104  10.868   6.160   3.715
21887W        W90105  20.309  44.134   2.237
21888W        W90106  16.827  22.940   0.733
21889W        W90107  42.504  43.283  12.083
21890W        W90108  38.853  23.179  11.874
21891W        W90109  36.839  23.255  12.925
21892W        W90110  21.259   5.786   2.368
21893W        W90111  35.958  18.493   4.508
21894W        W90112  20.586  43.574   1.056
21895W        W90113  20.788   1.719  12.487
21896W        W90114  37.575  20.709  14.907
21897W        W90115  34.440  22.001  14.447
21898W        W90116  36.305  17.060  12.522
21899W        W90117  27.919  38.866  12.951
21900W        W90118  34.286  23.951   2.649
21901W        W90119   8.678  39.815   1.823
21902W        W90120  11.843  27.952  13.095
21903W        W90121  30.872  33.410   0.353
21904W        W90122   6.924  10.643  13.305
21905W        W90123  37.962   5.391  11.073
21906W        W90124  24.410  36.823  12.661
21907W        W90125  13.849  38.979  11.836
21908W        W90126  26.901   8.630  11.650
21909W        W90127  25.101   8.017  11.255
21910W        W90128  29.075  37.249  11.098
21911W        W90129  10.303  28.735   1.635
21912W        W90130   3.261  21.186  14.304
21913W        W90131  39.797  40.305  12.999
21914W        W90132  29.288  27.816   1.242
21915W        W90133   5.881  37.601  13.773
21916W        W90134  12.593  14.944  11.100
21917W        W90135  18.511  13.609  11.467
21918W        W90136   7.837  22.780   3.287
21919W        W90137  23.605  38.569   3.194
21920W        W90138  21.171   6.842  13.541
21921W        W90139  38.398  14.261  10.643
21922W        W90140   7.739  42.101  13.907
21923W        W90141  21.984  16.135   1.328
21924W        W90142  24.943  38.233   4.550
21925W        W90143  14.088  34.355  11.492
21926W        W90144  29.202  17.810  11.176
21927W        W90145  38.545  20.693  11.409
21928W        W90146  39.681  38.293   4.162
21929W        W90147  39.297  14.303   0.852
21930W        W90148   6.208  13.354   1.016
21931W        W90149  28.881  23.032   2.603
21932W        W90150   1.865  21.142   1.697
21933W        W90151  27.446   6.297  11.989
21934W        W90152  32.160   4.745  12.041
21935W        W90153  25.419  43.275  12.389
21936W        W90154  33.909   2.215  11.148
21937W        W90155   0.912  23.264  12.973
21938W        W90156  11.918   5.816  10.759
21939W        W90157  18.824  11.755  12.067
21940W        W90158  38.427  44.694   3.239
21941W        W90159   3.574   0.752  10.664
21942W        W90160  41.552  36.834  13.421
21943W        W90161  27.072  16.561   2.703
21944W        W90162  24.086  11.286  11.250
21945W        W90163  17.783  11.357   1.412
21946W        W90164  14.648  24.524  11.950
21947W        W90165  25.013  25.958   2.718
21948W        W90166   8.721  13.897   4.108
21949W        W90167   7.861   3.790  13.320
21950W        W90168  12.240  16.313  13.708
21951W        W90169  21.643  33.626   3.138
21952W        W90170  42.479  33.821  10.610
21953W        W90171  29.968  41.414  12.451
21954W        W90172  24.806  17.847  14.519
21955W        W90173   7.955  31.545  14.845
21956W        W90174  36.920  30.757  11.582
21957W        W90175   6.495  30.983   3.829
21958W        W90176  43.727  39.150   4.551
21959W        W90177   9.218  31.359   2.419
21960W        W90178  11.664  14.022   9.971
21961W        W90179   2.717   2.436  11.959
21962W        W90180  11.412  31.169   1.260
21963W        W90181  23.166  23.266  13.061
21964W        W90182  12.722  36.698   3.591
21965W        W90183   3.931  20.048   0.903
21966W        W90184   2.166   0.504   0.182
21967W        W90185  34.174  36.842   4.137
21968W        W90186   3.887  11.482  13.295
21969W        W90187  37.921  41.432  14.050
21970W        W90188  15.609   2.717   0.264
21971W        W90189  23.289   0.844  13.851
21972W        W90190   8.132  27.332  13.040
21973W        W90191  34.849  37.776  13.056
21974W        W90192  10.132  12.427  14.068
21975W        W90193   3.020  18.672   3.864
21976W        W90194  18.697  23.698   4.953
21977W        W90195  37.448  12.839   2.626
21978W        W90196  38.917   9.088  14.484
21979W        W90197  37.804   9.687  11.490
21980W        W90198  23.459  33.520  14.344
21981W        W90199  22.091  32.675   4.686
21982W        W90200  24.680  11.172   2.805
21983W        W90201  31.831  43.495   3.280
21984W        W90202  22.219  16.308   3.221
21985W        W90203  18.889  21.143   4.825
21986W        W90204  40.737   5.254   2.536
21987W        W90205   5.562   0.020   1.297
21988W        W90206  17.577  44.801  14.960
21989W        W90207  17.515  43.745  14.888
21990W        W90208  20.115  10.722   3.198
21991W        W90209  12.316   8.289  12.078
21992W        W90210  25.551  21.516   4.524
21993W        W90211  33.682  36.039   1.212
21994W        W90212  10.146  22.418  14.111
21995W        W90213   6.643  27.274  11.325
21996W        W90214  11.223  25.672   3.829
21997W        W90215  17.972  38.333   0.515
21998W        W90216  10.789  30.594  13.959
21999W        W90217  19.521   6.430   2.342
22000W        W90218  44.296  12.549  11.573
22001W        W90219  11.171  13.365   5.049
22002W        W90220   9.078  16.629  14.364
22003W        W90221   2.456  37.175  11.544
22004W        W90222  17.591  20.326   2.769
22005W        W90223  17.192  17.561   4.633
22006W        W90224  20.676   5.849  11.191
22007W        W90225  17.693  44.819   2.780
22008W        W90226   0.906  41.564  10.657
22009W        W90227  22.254   0.537   3.231
22010W        W90228  31.178  23.002  12.525
22011W        W90229  39.050  12.415   3.292
22012W        W90230   8.826  28.481   3.870
22013W        W90231   3.357  35.478  10.662
22014W        W90232  33.810  12.724  10.658
22015W        W90233   3.269   2.599  13.348
22016W        W90234  21.744  24.931  12.453
22017W        W90235  13.412  10.302   4.671
22018W        W90236  25.976  41.498  12.453
22019W        W90237  27.073  16.378  10.882
22020W        W90238  30.987  41.507   1.751
22021W        W90239  34.486  38.863   3.784
22022W        W90240   3.149   3.099  13.231
22023W        W90241   9.300   5.702   2.678
22024W        W90242  33.816  27.440  14.534
22025W        W90243  33.803  18.654  11.982
22026W        W90244  38.905  43.303   3.190
22027W        W90245  13.107  41.631  13.565
22028W        W90246   0.455  11.082  11.129
22029W        W90247  29.231  14.310   0.512
22030W        W90248  32.459  20.227  11.071
22031W        W90249  16.785   2.950   3.211
22032W        W90250  26.161   0.595  11.919
22033W        W90251  31.534   5.924   5.016
22034W        W90252  16.551  25.081   2.868
22035W        W90253  20.709  10.882   2.369
22036W        W90254   1.417  26.177  11.682
22037W        W90255  37.804   0.123  13.420
22038W        W90256  39.987  32.477  13.439
22039W        W90257  31.235  34.920   1.283
22040W        W90258   5.878  39.077   4.473
22041W        W90259  19.285  21.573  12.055
22042W        W90260  10.359  20.514   3.102
22043W        W90261  23.164  41.560   3.229
22044W        W90262   0.736  13.119   3.240
22045W        W90263  30.562  12.267   1.352
22046W        W90264  18.598  35.380   4.307
22047W        W90265   1.372  19.617   2.722
22048W        W90266  32.832  29.135  10.277
22049W        W90267  13.115  38.312  11.349
22050W        W90268  37.270  31.437   0.433
22051W        W90269   2.337   5.408   1.948
22052W        W90270  40.072  44.981   1.345
22053W        W90271  28.546  30.539  12.588
22054W        W90272  33.530  36.392  13.505
22055W        W90273  25.024  13.199  14.374
22056W        W90274  27.624   0.342  12.846
22057W        W90275  23.119  44.036  13.484
22058W        W90276  38.863  35.727   4.581
22059W        W90277   8.742  30.928   3.429
22060W        W90278   6.193  23.642   2.236
22061W        W90279   2.716  38.055  14.473
22062W        W90280  11.868   5.702  11.609
22063W        W90281  19.223  19.584  13.327
22064W        W90282  14.699  29.601   1.183
22065W        W90283  10.767  20.770  11.335
22066W        W90284  38.336  40.660   3.280
22067W        W90285  40.696  31.686   5.186
22068W        W90286  44.086  41.749  14.278
22069W        W90287   1.492  14.056   4.012
22070W        W90288   9.239  26.181   1.740
22071W        W90289  24.053  44.434   2.822
22072W        W90290   3.814  35.490   4.074
22073W        W90291  40.386  39.103  11.701
22074W        W90292  39.878  11.583  14.231
22075W        W90293   3.862   3.053   3.569
22076W        W90294  40.564  27.410   0.411
22077W        W90295  21.828  42.740  12.196
22078W        W90296  15.102  17.044  11.482
22079W        W90297  11.242  42.425  12.147
22080W        W90298  32.168  23.979  13.417
22081W        W90299  44.275  44.706   2.698
22082W        W90300  43.917  18.995   2.333
22083W        W90301   5.374  26.541  12.551
22084W        W90302  39.071  26.953  12.548
22085W        W90303  44.465  15.156   4.383
22086W        W90304  19.727   0.009   1.814
22087W        W90305  16.143   0.059   0.903
22088W        W90306  25.010   4.340   2.737
22089W        W90307  43.488   6.797   0.473
22090W        W90308   7.387  43.460   3.875
22091W        W90309   7.062  34.094   2.327
22092W        W90310  36.859   0.225   1.212
22093W        W90311  29.136  33.159   3.704
22094W        W90312   4.811  12.171  14.513
22095W        W90313  37.278  17.513   2.335
22096W        W90314  21.251  21.202   2.264
22097W        W90315  13.684  40.998   2.808
22098W        W90316  26.513  29.577   3.525
22099W        W90317  13.777   4.730  13.900
22100W        W90318  38.291   9.997  13.206
22101W        W90319  12.306  23.088   1.972
22102W        W90320   5.022  40.940   9.656
22103W        W90321  17.982  36.105   1.442
22104W        W90322  41.960  41.826  10.592
22105W        W90323  32.009  34.895  10.441
22106W        W90324  42.984   0.391   0.849
22107W        W90325  31.108  10.747  14.386
22108W        W90326   2.323   5.948  13.901
22109W        W90327  30.897  33.402   1.219
22110W        W90328   6.745  13.936  12.931
22111W        W90329  33.660  25.013  12.367
22112W        W90330  24.666  33.128   4.303
22113W        W90331  22.752  37.429   0.859
22114W        W90332  21.471  21.183   4.994
22115W        W90333  16.868  10.773  11.522
22116W        W90334  15.683  30.684   3.705
22117W        W90335  30.252  26.682   2.366
22118W        W90336  16.025   5.440  11.108
22119W        W90337   0.869  17.023  11.843
22120W        W90338  15.503   9.238   1.956
22121W        W90339  18.771  30.866  10.140
22122W        W90340  34.999  38.803   2.699
22123W        W90341  20.319  39.528   2.250
22124W        W90342  30.971  15.302   0.300
22125W        W90343  43.572  39.554  10.385
22126W        W90344  29.662  42.507   0.002
22127W        W90345  20.806  12.591   1.743
22128W        W90346   6.934  15.265  14.488
22129W        W90347  19.052   1.458   2.460
22130W        W90348  39.416  13.493  13.619
22131W        W90349  44.465  22.001   4.537
22132W        W90350  22.758  21.795   2.452
22133W        W90351   3.715   9.004   5.079
22134W        W90352  39.802  14.257   0.754
22135W        W90353  28.859   3.267   2.201
22136W        W90354  21.994   0.186   4.127
22137W        W90355  16.698  32.604  14.539
22138W        W90356  11.749   0.783  14.327
22139W        W90357  10.258   7.138  12.406
22140W        W90358  12.001  38.323   4.323
22141W        W90359  31.022  42.019  12.830
22142W        W90360  25.714  35.002   2.639
22143W        W90361  31.611  20.088  10.871
22144W        W90362  16.087  44.042  10.790
22145W        W90363  44.835  26.101   2.108
22146W        W90364  17.762  17.848  12.169
22147W        W90365   7.187  41.825  12.705
22148W        W90366  21.133  43.921   0.693
22149W        W90367  31.635  43.721  13.855
22150W        W90368  23.459  15.294   1.370
22151W        W90369  34.192  31.382   2.048
22152W        W90370  30.978  20.822  13.324
22153W        W90371  36.967   0.682   1.707
22154W        W90372   2.231  33.934  10.970
22155W        W90373  23.030  41.774   4.726
22156W        W90374  28.454   0.989  10.654
22157W        W90375   4.812   4.358   3.801
22158W        W90376  21.236   3.407  12.400
22159W        W90377  21.933  42.734   4.562
22160W        W90378  17.305   3.169  14.375
22161W        W90379  14.853   1.779   3.700
22162W        W90380  38.609  31.137   0.068
22163W        W90381   6.329  11.234  13.114
22164W        W90382  39.775  36.436  11.698
22165W        W90383   8.400  10.505   4.353
22166W        W90384  21.621  43.804   4.078
22167W        W90385  34.375  38.582   3.342
22168W        W90386   5.312  18.444   0.230
22169W        W90387  27.613  17.229  10.720
22170W        W90388  35.170  32.232   4.011
22171W        W90389  27.752  33.433   4.051
22172W        W90390  17.776  35.419   4.903
22173W        W90391  32.833  14.267   1.936
22174W        W90392  20.230  22.587  14.122
22175W        W90393  37.956  19.997  12.452
22176W        W90394  39.128  27.534  11.637
22177W        W90395  23.973  16.654   4.544
22178W        W90396   0.806  36.557   4.492
22179W        W90397  30.118  39.447  12.856
22180W        W90398  43.248  34.595   4.692
22181W        W90399  28.141  22.077  14.451
22182W        W90400   6.323   0.428  10.489
22183W        W90401  14.080  37.219  13.556
22184W        W90402  31.202  13.245   1.012
22185W        W90403  21.589   9.823  10.622
22186W        W90404  22.209  43.897   1.024
22187W        W90405  12.785   8.854   1.785
22188W        W90406  40.310   6.924  12.109
22189W        W90407  11.815  42.235   0.863
22190W        W90408  14.274   8.882   3.098
22191W        W90409  35.030   8.957   3.250
22192W        W90410  43.633  41.873   4.986
22193W        W90411  40.152  33.464  11.950
22194W        W90412   5.646  18.159   1.015
22195W        W90413   9.168   2.240  13.102
22196W        W90414  27.685  13.268   2.833
22197W        W90415  36.880  26.175  14.525
22198W        W90416  12.898  27.066   2.988
22199W        W90417  21.469  27.848  11.187
22200W        W90418  35.080  37.052  11.157
22201W        W90419  17.487  12.628   4.862
22202W        W90420  10.168   2.581   4.585
22203W        W90421  38.374   2.077   2.345
22204W        W90422   8.598  37.292  13.839
22205W        W90423   4.583  14.674   4.551
22206W        W90424  27.251   8.848  11.243
22207W        W90425   3.231  15.665   3.688
22208W        W90426  28.855   8.415   3.123
22209W        W90427  23.575   4.464   4.478
22210W        W90428  37.501  26.179   2.284
22211W        W90429  25.186  17.532   3.265
22212W        W90430  13.043  22.583   4.970
22213W        W90431  32.656  14.136  10.641
22214W        W90432   4.680   2.385  14.333
22215W        W90433  14.640  16.722   0.918
22216W        W90434   8.783   8.889  14.886
22217W        W90435  44.294  33.072  11.018
22218W        W90436  27.612  22.121   0.750
22219W        W90437  36.469  15.538  11.691
22220W        W90438   1.492   8.555   2.641
22221W        W90439  26.134  16.905  11.510
22222W        W90440  19.771  37.481  13.777
22223W        W90441  13.193  32.709   2.385
22224W        W90442  11.150   6.592  12.365
22225W        W90443  36.961   4.299   2.873
22226W        W90444  30.667  19.590   4.306
22227W        W90445  24.850  34.805  11.999
22228W        W90446  21.042  22.887  13.495
22229W        W90447  42.863  27.626   2.908
22230W        W90448  42.928  30.893   5.074
22231W        W90449   0.922  12.704  10.732
22232W        W90450  40.994  39.737  12.672
22233W        W90451  25.965  41.956  13.963
22234W        W90452  39.103  42.457   2.556
22235W        W90453  34.730   4.973   0.954
22236W        W90454  25.407  18.705  11.954
22237W        W90455  37.456   9.302  10.792
22238W        W90456  26.411   7.298   0.637
22239W        W90457  23.569  24.219   1.854
22240W        W90458  28.334   9.089   4.361
22241W        W90459   8.853  24.272   4.215
22242W        W90460  40.949  15.799   2.227
22243W        W90461  24.814  23.907  14.846
22244W        W90462  27.406  16.131   3.204
22245W        W90463  44.522  12.797   1.169
22246W        W90464  11.720  20.192   1.726
22247W        W90465  36.353   6.871  10.764
22248W        W90466  11.181  27.662   3.383
22249W        W90467   9.738  34.532   3.319
22250W        W90468   9.370  18.053   5.431
22251W        W90469  11.400   0.323  13.054
22252W        W90470  41.047  35.570   4.207
22253W        W90471  27.271   2.384   4.115
22254W        W90472  14.973  21.652  11.721
22255W        W90473  19.569  10.509  11.045
22256W        W90474  33.934  17.704  10.568
22257W        W90475  15.649  31.848   2.865
22258W        W90476  33.059  44.110   1.658
22259W        W90477  16.177  32.968  14.488
22260W        W90478  19.121  21.682  10.677
22261W        W90479   4.204  12.331   0.327
22262W        W90480   9.779   8.577   4.482
22263W        W90481  13.877  34.470  14.976
22264W        W90482  40.700   6.470   0.518
22265W        W90483  11.564  29.561   3.323
22266W        W90484  14.101  19.594   2.663
22267W        W90485  43.880  37.607   4.175
22268W        W90486  14.031  16.287  12.279
22269W        W90487  28.349  35.987   2.737
22270W        W90488  22.582  28.538  14.012
22271W        W90489   4.851  12.134   1.411
22272W        W90490  19.387  12.882  12.377
22273W        W90491  11.616  41.236   0.971
22274W        W90492  23.229  32.235  13.480
22275W        W90493  23.960   7.751  13.798
22276W        W90494  42.732  36.056   0.519
22277W        W90495  24.082   2.802   4.939
22278W        W90496  14.469  15.487   0.184
22279W        W90497   0.566  16.897  13.489
22280W        W90498  10.148  21.750  14.869
22281W        W90499  17.049  39.182  14.711
22282W        W90500  16.906   4.710   0.954
22283W        W90501   3.198  31.435  12.068
22284W        W90502   4.050  10.059  11.741
22285W        W90503  16.572  39.970   4.558
22286W        W90504  27.672  26.342   5.036
22287W        W90505  30.354   7.912   3.665
22288W        W90506  20.600   8.444   1.064
22289W        W90507   2.767  33.854   4.638
22290W        W90508  37.791   3.763   1.758
22291W        W90509   2.612  31.729   2.416
22292W        W90510  14.023  17.774   4.749
22293W        W90511  20.643   9.965   1.388
22294W        W90512  15.309  11.126  12.646
22295W        W90513  16.594  42.194  11.533
22296W        W90514  11.825  41.133  10.032
22297W        W90515  26.644  26.445   0.542
22298W        W90516   1.341  28.996  11.123
22299W        W90517  12.128  14.795   4.031
22300W        W90518   3.078  25.762   2.844
22301W        W90519  15.198  22.410   3.313
22302W        W90520  39.644  13.787  10.722
22303W        W90521  35.993  37.922   2.826
22304W        W90522  17.810   2.795   0.989
22305W        W90523  21.369   0.884  13.909
22306W        W90524   6.827  43.895  11.982
22307W        W90525  41.967  24.798   3.983
22308W        W90526   8.691  12.797  12.492
22309W        W90527   2.287   5.111  11.183
22310W        W90528   5.879   2.416  10.522
22311W        W90529  43.084  27.415   4.094
22312W        W90530  10.652  18.211  12.011
22313W        W90531  23.039  34.085  10.703
22314W        W90532  31.895  41.792  14.920
22315W        W90533  10.714  38.295  13.433
22316W        W90534  27.083  19.958  14.236
22317W        W90535  35.276  18.809   0.008
22318W        W90536  24.418  39.537  10.699
22319W        W90537   2.255  21.923  11.239
22320W        W90538  16.144  43.552  13.891
22321W        W90539   0.933  39.433   3.316
22322W        W90540  31.379   7.175  12.202
22323W        W90541  13.733  30.109  12.150
22324W        W90542  29.967   8.786  13.390
22325W        W90543  25.338  11.873  11.752
22326W        W90544  20.646   4.308  13.573
22327W        W90545   9.171   9.241  14.713
22328W        W90546  13.439  23.392  10.114
22329W        W90547  42.942  24.055  14.484
22330W        W90548   7.810  25.483  11.901
22331W        W90549  37.797  11.624  14.370
22332W        W90550  15.662  38.073   2.201
22333W        W90551  40.736   9.538   2.585
22334W        W90552  23.239   7.740  12.479
22335W        W90553  28.678   0.533  10.523
22336W        W90554  13.740  11.890  14.427
22337W        W90555  41.998  31.151  12.083
22338W        W90556  20.342  33.283   4.663
22339W        W90557  19.965  24.443  13.395
22340W        W90558  25.127   1.769   3.409
22341W        W90559  24.661   9.348  10.732
22342W        W90560  27.011  25.732   1.849
22343W        W90561   6.410  14.653  11.992
22344W        W90562   7.084  32.670   3.328
22345W        W90563  19.288  20.934   4.502
22346W        W90564  10.917  35.627  13.384
22347W        W90565  40.219   3.930   2.883
22348W        W90566  33.410   4.300  12.134
22349W        W90567  22.700   9.344  10.732
22350W        W90568   2.499  20.687  14.509
22351W        W90569  41.738  21.284  14.508
22352W        W90570  34.531  38.258   1.579
22353W        W90571  13.441  10.123   1.943
22354W        W90572   3.344  22.437  11.569
22355W        W90573  25.158  43.793  13.020
22356W        W90574  12.720  42.909  13.925
22357W        W90575  12.614  14.299  13.015
22358W        W90576  37.527   4.953   4.075
22359W        W90577  11.085  44.791  11.874
22360W        W90578   8.638   4.740   4.919
22361W        W90579  32.286  13.880   4.585
22362W        W90580  12.357  22.829   1.513
22363W        W90581  36.678  42.995   2.335
22364W        W90582  41.973  29.671  11.253
22365W        W90583   6.414  38.974   1.401
22366W        W90584  25.187  26.212   3.615
22367W        W90585  18.532  30.681  13.566
22368W        W90586   3.728  31.574  13.824
22369W        W90587  38.721  38.508   3.982
22370W        W90588  30.005  37.015  14.467
22371W        W90589  15.260  11.182   1.799
22372W        W90590  39.118  26.536  11.652
22373W        W90591  11.087   3.206   0.843
22374W        W90592  13.235   2.663  11.134
22375W        W90593  41.456  14.741  13.945
22376W        W90594  29.230  30.916   3.267
22377W        W90595   7.812  35.431  14.332
22378W        W90596  39.860  42.719   0.394
22379W        W90597   0.510  34.417   0.284
22380W        W90598  39.300   6.479  14.873
22381W        W90599  31.130  31.598  14.527
22382W        W90600  35.805   6.400   2.367
22383W        W90601  19.361  31.812  10.624
22384W        W90602   2.422  36.849   3.935
22385W        W90603   2.034  25.042  11.263
22386W        W90604  10.900  18.455   3.989
22387W        W90605  15.933  13.649   3.543
22388W        W90606  39.646  14.785   3.251
22389W        W90607  40.620  41.314  12.141
22390W        W90608   8.801  17.939  14.776
22391W        W90609  38.380  32.807   1.631
22392W        W90610  13.486   1.388  14.078
22393W        W90611  20.273   6.763  12.373
22394W        W90612  25.728  21.075  10.080
22395W        W90613  28.997  36.374  13.724
22396W        W90614  40.493  27.855  13.664
22397W        W90615  38.651   6.345   0.280
22398W        W90616  37.559  43.026   3.267
22399W        W90617  43.548  21.204   3.474
22400W        W90618  22.030  23.011  14.339
22401W        W90619  21.968   9.162  13.983
22402W        W90620  43.947  24.191   4.623
22403W        W90621   7.126  20.683   3.888
22404W        W90622  33.550  22.291  10.253
22405W        W90623   7.639  15.790  12.356
22406W        W90624  24.965  43.937   4.732
22407W        W90625   7.088  14.344   1.931
22408W        W90626  24.326  18.456  13.513
22409W        W90627  24.518  42.988   4.233
22410W        W90628   8.202  28.896  11.185
22411W        W90629   0.069  27.354  11.626
22412W        W90630  15.173  40.347   2.290
22413W        W90631  44.512  36.022   0.405
22414W        W90632  13.800  22.078   2.412
22415W        W90633  33.794  35.839  13.938
22416W        W90634  27.420  37.094   1.734
22417W        W90635  41.818   7.365   4.554
22418W        W90636   4.190   5.909  11.407
22419W        W90637   7.775  12.213  14.035
22420W        W90638  15.344  25.047  11.158
22421W        W90639  31.303  18.311  14.461
22422W        W90640   6.835  26.715  14.256
22423W        W90641  11.221   0.826  13.012
22424W        W90642   1.200  26.179  10.669
22425W        W90643  35.366  10.726   3.649
22426W        W90644  13.088   4.711   1.418
22427W        W90645   6.851  40.783   4.182
22428W        W90646  23.955   5.260   1.372
22429W        W90647  28.217  38.057  12.274
22430W        W90648  41.229  33.612   0.267
22431W        W90649  43.835   6.748  11.617
22432W        W90650  32.150  18.674   3.633
22433W        W90651  19.542   3.818  14.583
22434W        W90652  13.260   9.754  14.431
22435W        W90653  35.490  24.742   4.240
22436W        W90654  44.484  34.536   1.379
22437W        W90655  41.703  40.579   0.718
22438W        W90656  15.635  13.755   5.149
22439W        W90657  22.032  43.891   1.934
22440W        W90658  25.519  11.266  10.724
22441W        W90659  26.716  30.140  11.582
22442W        W90660  16.831  37.897  12.971
22443W        W90661  26.022  27.931   4.763
22444W        W90662  32.340  10.354  14.509
22445W        W90663  14.332  12.733  10.908
22446W        W90664   5.056  37.746   5.031
22447W        W90665  28.481  42.438  11.699
22448W        W90666  12.639  14.196   3.656
22449W        W90667  35.518  26.068  10.410
22450W        W90668   6.222   7.218   1.408
22451W        W90669   5.342  34.929  12.071
22452W        W90670   6.055  40.398   3.402
22453W        W90671  26.979  33.575  12.480
22454W        W90672  10.312   2.992   4.342
22455W        W90673  17.796  35.831  12.932
22456W        W90674  11.627  11.881  14.927
22457W        W90675  28.598   7.791  13.408
22458W        W90676  23.560   4.845   1.396
22459W        W90677   2.397  37.793   2.600
22460W        W90678  29.399  16.369  13.785
22461W        W90679  42.832  22.763   3.668
22462W        W90680  25.201   1.593   1.433
22463W        W90681  19.459  24.061  11.211
22464W        W90682   4.362  28.498  13.839
22465W        W90683   4.381  15.377  12.873
22466W        W90684  14.679  34.838  14.468
22467W        W90685  17.529   2.791  14.906
22468W        W90686  42.448  39.788  12.016
22469W        W90687  25.713  22.217   2.735
22470W        W90688  37.786   8.441  14.399
22471W        W90689   6.936  29.090  13.509
22472W        W90690  16.603  25.590   0.225
22473W        W90691  39.621   5.198   3.771
22474W        W90692  29.622   4.215   0.787
22475W        W90693  35.453  33.036   1.809
22476W        W90694   0.321  22.693  10.856
22477W        W90695  17.869  35.934   4.676
22478W        W90696  37.392  20.787   2.844
22479W        W90697   4.140  24.752   1.822
22480W        W90698  14.279  10.322  10.605
22481W        W90699  24.038  18.673   4.115
22482W        W90700   8.857  20.930  12.871
22483W        W90701  26.656  19.748  14.483
22484W        W90702  43.115   4.531   1.821
22485W        W90703  10.588  18.180   4.301
22486W        W90704  16.338  44.945   1.392
22487W        W90705  43.174   1.714  14.998
22488W        W90706   3.491  16.781  12.960
22489W        W90707  21.266  15.098   1.445
22490W        W90708  16.733   8.241  14.526
22491W        W90709  10.246  44.834   1.687
22492W        W90710  34.428  17.694  10.378
22493W        W90711  25.891  27.696  13.183
22494W        W90712  13.392  20.707   2.240
22495W        W90713  30.993   8.534  14.947
22496W        W90714  33.897  31.805   0.230
22497W        W90715   8.918  43.005   4.905
22498W        W90716  40.391  27.163   2.380
22499W        W90717  10.214   4.917   5.061
22500W        W90718  43.051  10.815   1.724
22501W        W90719   7.684  37.468  11.235
22502W        W90720  26.071  30.304   1.707
22503W        W90721   3.288  25.515  11.215
22504W        W90722  31.447  32.844  10.740
22505W        W90723   7.364  32.594  10.834
22506W        W90724  28.055   4.879   1.362
22507W        W90725   6.366  12.618   4.655
22508W        W90726  14.055   0.046   0.957
22509W        W90727  36.836   5.409  13.906
22510W        W90728  19.887  12.939  12.226
22511W        W90729   7.818  24.113   1.609
22512W        W90730  34.336  38.778   1.941
22513W        W90731  43.062  11.781  13.437
22514W        W90732  13.237  37.572   2.704
22515W        W90733  11.781  30.485   0.432
22516W        W90734  42.886  14.936  14.716
22517W        W90735  43.058  24.303   3.651
22518W        W90736  22.484  15.005   2.048
22519W        W90737  11.180   8.050  14.941
22520W        W90738  40.304   1.291  14.847
22521W        W90739   5.461  13.354  11.128
22522W        W90740   2.754   7.974  12.422
22523W        W90741  27.283  30.415   0.884
22524W        W90742  11.114  23.050   4.132
22525W        W90743  36.328  27.019   1.421
22526W        W90744   8.127  41.120  12.013
22527W        W90745   4.158   5.764  11.888
22528W        W90746   7.423  28.448  13.927
22529W        W90747   9.705  15.731   2.270
22530W        W90748   4.939  12.975   1.892
22531W        W90749  19.191  11.478  10.781
22532W        W90750  32.896  13.010   2.341
22533W        W90751  40.865  26.634  14.471
22534W        W90752  17.486  38.131  12.210
22535W        W90753  38.887  44.008  10.543
22536W        W90754  18.626  33.403  11.648
22537W        W90755  31.170   6.489   5.404
22538W        W90756  13.992  26.648  14.430
22539W        W90757  10.638  37.966  12.072
22540W        W90758  15.149  19.518   3.696
22541W        W90759  10.811  23.648   0.790
22542W        W90760  22.268  44.747   4.117
22543W        W90761  38.819   8.878   4.073
22544W        W90762  43.984  14.221  11.587
22545W        W90763  11.823   0.665   0.719
22546W        W90764  37.871   3.241  13.384
22547W        W90765  42.956  31.168  11.547
22548W        W90766  35.934  24.491  12.158
22549W        W90767  19.583  36.430  13.755
22550W        W90768  12.968  21.945  11.553
22551W        W90769  33.905  28.114  12.111
22552W        W90770  27.803  39.750   2.766
22553W        W90771  13.084  41.542   4.625
22554W        W90772  24.928  35.887  12.973
22555W        W90773   7.690  25.014   1.198
22556W        W90774  44.392  23.071  13.539
22557W        W90775  24.196   9.134  10.765
22558W        W90776  35.258  39.418  11.247
22559W        W90777  16.268  14.612   2.203
22560W        W90778   1.954  20.346   0.180
22561W        W90779  40.502   2.622  14.275
22562W        W90780   1.440  15.685   1.369
22563W        W90781  31.009  15.115   3.324
22564W        W90782  10.306  36.441   3.690
22565W        W90783   3.744  14.747  10.850
22566W        W90784   3.407  30.353  13.904
22567W        W90785  32.907  35.429  12.985
22568W        W90786  40.901  11.740  10.728
22569W        W90787  26.672  39.671  12.524
22570W        W90788   0.298   5.995   2.762
22571W        W90789   7.629  37.615  10.757
22572W        W90790  30.034  21.074   2.633
22573W        W90791  25.608   9.476  12.375
22574W        W90792  35.403  29.923   4.256
22575W        W90793  18.741   9.137   3.332
22576W        W90794  43.822  28.442   2.532
22577W        W90795  10.811  37.678   4.500
22578W        W90796  13.917   6.365  13.897
22579W        W90797   2.346  16.362  10.737
22580W        W90798   5.308  29.982   1.933
22581W        W90799   3.680  40.467  10.020
22582W        W90800  44.190  14.091  10.687
22583W        W90801  39.567  26.446  12.057
22584W        W90802  38.159  12.850   3.226
22585W        W90803  21.614   6.337  10.847
22586W        W90804  13.120  24.323   0.454
22587W        W90805   3.918  18.663  13.419
22588W        W90806  33.457   4.896   2.865
22589W        W90807  35.947   7.841  10.649
22590W        W90808  40.585  28.560   3.318
22591W        W90809  27.106  14.759   4.254
22592W        W90810  40.107  29.035  11.782
22593W        W90811  38.396  30.418   4.479
22594W        W90812  31.635  34.496   0.933
22595W        W90813   0.561  33.710   3.516
22596W        W90814  34.737  24.172   0.797
22597W        W90815  20.157   4.334   2.154
22598W        W90816   1.964  40.808   2.142
22599W        W90817  34.174  20.692   4.327
22600W        W90818  22.198  23.840   2.702
22601W        W90819   0.472  13.066  12.484
22602W        W90820  23.106  43.341  10.713
22603W        W90821  18.033  11.721  12.530
22604W        W90822  15.689   8.187   0.327
22605W        W90823  25.528  41.323   0.874
22606W        W90824  40.979  12.541   4.227
22607W        W90825  21.967  35.943  11.149
22608W        W90826  43.129  26.113  13.012
22609W        W90827  35.975   8.250  13.008
22610W        W90828   4.293  36.346  12.486
22611W        W90829  27.956  33.627  14.386
22612W        W90830  35.589   5.973   0.255
22613W        W90831  26.467  15.290  12.990
22614W        W90832  12.570  34.500  14.653
22615W        W90833  28.607   7.151  12.555
22616W        W90834  32.421  14.677   3.664
22617W        W90835   9.946  14.230  14.914
22618W        W90836  22.202  25.602  11.712
22619W        W90837  22.247   9.813   2.728
22620W        W90838  20.728  20.817  12.096
22621W        W90839   0.059  22.049  11.504
22622W        W90840   5.502  43.399   0.817
22623W        W90841  22.999  43.946   4.434
22624W        W90842  28.162   7.752   4.280
22625W        W90843  18.775  26.477   0.994
22626W        W90844  31.385  16.289  11.466
22627W        W90845  24.069  21.226  13.052
22628W        W90846   0.334   7.055  12.871
22629W        W90847   6.178  38.714  14.650
22630W        W90848   8.684  40.766  13.948
22631W        W90849   3.241  33.967   1.299
22632W        W90850  23.010   7.237  14.828
22633W        W90851  16.976  12.342   0.815
22634W        W90852   6.256  34.346  13.894
22635W        W90853   1.475   5.892   0.246
22636W        W90854  11.245  21.673  11.469
22637W        W90855  16.629  33.710  13.140
22638W        W90856   5.876   6.951   4.879
22639W        W90857   5.706   1.392   4.459
22640W        W90858  16.029  11.677  12.387
22641W        W90859  31.951  30.700  13.057
22642W        W90860  25.515   4.512   2.714
22643W        W90861  42.846  28.120   4.645
22644W        W90862  31.870  30.112   1.300
22645W        W90863  29.951  40.959   3.215
22646W        W90864  11.788  22.787  13.463
22647W        W90865  10.920   1.725  12.925
22648W        W90866  17.692  40.805   4.141
22649W        W90867   7.514  10.252   3.440
22650W        W90868  39.039  32.686   0.996
22651W        W90869  43.645  37.642   5.163
22652W        W90870  40.084  12.249   2.868
22653W        W90871  17.443  29.560  10.063
22654W        W90872   7.918   2.199  10.524
22655W        W90873  19.766   8.330   1.303
22656W        W90874   9.382  27.197  11.003
22657W        W90875  27.531   0.762   2.850
22658W        W90876  38.504  43.773  11.530
22659W        W90877   5.734  38.201   2.463
22660W        W90878  44.355  30.221   4.191
22661W        W90879  10.798  36.618   2.770
22662W        W90880   6.955  29.145   0.849
22663W        W90881   4.696  33.376   4.092
22664W        W90882  21.485   4.194  13.526
22665W        W90883  32.123   5.913  14.824
22666W        W90884  36.520  40.409   1.465
22667W        W90885  13.409  20.322   3.827
22668W        W90886  33.453  40.802   4.160
22669W        W90887  42.100  23.010   4.633
22670W        W90888  21.741  28.155  12.907
22671W        W90889  34.185  38.269  13.940
22672W        W90890  29.135   7.624   4.249
22673W        W90891  20.229  40.063  11.039
22674W        W90892  41.315   8.110  13.439
22675W        W90893  39.623  14.316  12.450
22676W        W90894  23.336  22.687  10.717
22677W        W90895  33.427  13.932  11.161
22678W        W90896  25.984   0.218   2.732
22679W        W90897  41.382  21.745  10.673
22680W        W90898  19.331  31.578  13.294
22681W        W90899  17.276  40.358  13.892
22682W        W90900  13.597  22.617   0.847
22683W        W90901   0.850  14.403  11.737
22684W        W90902  10.762  16.662   3.894
22685W        W90903   9.912  20.298  11.585
22686W        W90904  31.943  43.975   1.300
22687W        W90905  31.455   3.389  11.989
22688W        W90906  39.280  25.615  12.628
22689W        W90907  37.441  39.951  10.360
22690W        W90908  41.960  23.489  12.071
22691W        W90909   9.302  19.554   5.157
22692W        W90910   4.677  10.682  10.752
22693W        W90911   8.834   3.409  10.570
22694W        W90912  26.921  18.041  11.313
22695W        W90913  40.517  19.202   4.579
22696W        W90914  36.596   9.638   4.677
22697W        W90915   5.282  40.508  13.461
22698W        W90916  29.979  11.755  13.895
22699W        W90917  28.575  44.197  11.855
22700W        W90918   4.312  35.079  13.090
22701W        W90919  19.734  21.528   3.266
22702W        W90920  19.477  11.785  10.466
22703W        W90921   7.425  10.693   3.668
22704W        W90922  35.378   5.402   1.435
22705W        W90923  18.008  37.830   1.998
22706W        W90924   9.263  38.406   3.198
22707W        W90925  14.614  17.779   3.674
22708W        W90926  32.450  31.984  14.299
22709W        W90927  42.938  16.006   4.075
22710W        W90928   4.174  30.411   3.797
22711W        W90929  13.475  42.841   4.605
22712W        W90930  44.547   6.782  13.871
22713W        W90931   1.138  26.098   4.119
22714W        W90932  35.893  16.216  13.326
22715W        W90933  42.401   8.302   4.364
22716W        W90934  22.470  23.927  12.394
22717W        W90935  10.992  17.294  13.999
22718W        W90936  11.550   4.394  10.955
22719W        W90937   5.206   1.889   1.941
22720W        W90938  28.082  33.940   1.968
22721W        W90939  26.703  28.101  14.468
22722W        W90940  19.594  28.488  10.772
22723W        W90941  30.640   6.752   4.756
22724W        W90942  17.139  14.274   0.273
22725W        W90943   2.991   8.404   1.634
22726W        W90944   7.325  40.010   4.526
22727W        W90945   5.693  21.987   0.554
22728W        W90946  14.135  19.239   4.897
22729W        W90947   8.828  11.345  14.789
22730W        W90948  19.089  17.374  10.489
22731W        W90949  23.885  13.138  10.600
22732W        W90950  36.038  39.954  10.889
22733W        W90951  18.483  36.585   0.725
22734W        W90952  20.047   4.714  10.913
22735W        W90953  43.427   0.772   2.642
22736W        W90954  15.219  31.603   3.652
22737W        W90955   5.291   5.190   4.293
22738W        W90956  13.807  10.073  13.417
22739W        W90957  34.774  37.526   5.080
22740W        W90958   0.327   4.827  12.515
22741W        W90959  11.241   2.756  11.678
22742W        W90960  28.554   9.383  13.095
22743W        W90961  37.796  33.102  11.022
22744W        W90962  19.754  34.372  14.869
22745W        W90963  14.840  19.251  11.858
22746W        W90964   4.209   1.368  11.155
22747W        W90965  14.205   8.316  13.970
22748W        W90966  34.030  15.838  11.376
22749W        W90967  24.530   6.865   3.318
22750W        W90968  19.245  17.610  12.905
22751W        W90969  38.538  10.133  11.699
22752W        W90970  23.345  34.849  13.997
22753W        W90971   3.024  25.452  10.754
22754W        W90972  44.892  10.028   2.236
22755W        W90973  22.478  33.140   4.045
22756W        W90974  36.964  16.010  12.016
22757W        W90975  13.152   9.093   4.255
22758W        W90976  31.013  11.269  14.582
22759W        W90977   0.425  30.925  14.344
22760W        W90978   0.112  10.797  11.468
22761W        W90979  26.095  43.374  11.634
22762W        W90980  22.786   2.870  12.834
22763W        W90981  14.896  26.115   4.639
22764W        W90982  32.011   7.364   3.560
22765W        W90983   3.504  11.902  12.605
22766W        W90984  23.290   4.232   4.127
22767W        W90985  37.330  22.017  12.562
22768W        W90986  44.390  32.629  10.754
22769W        W90987  15.084  39.100  11.449
22770W        W90988  34.443  20.297   4.078
22771W        W90989  41.671  10.606   3.609
22772W        W90990  32.404  16.248  14.858
22773W        W90991  28.672   1.937  14.898
22774W        W90992  28.469  13.197  12.494
22775W        W90993  12.962  20.971  14.921
22776W        W90994  11.287   7.933  14.162
22777W        W90995  44.025  13.025  10.831
22778W        W90996  29.803  37.394   3.155
22779W        W90997   3.840   5.966  13.807
22780W        W90998  34.505   8.172   2.240
22781W        W90999  34.166  18.162  10.711
22782W        W91000  20.629   1.936  12.938
22783W        W91001  12.367   8.209  14.555
22784W        W91002   4.900  35.384   3.631
22785W        W91003  24.561  28.823  14.059
22786W        W91004  14.100  17.982   3.691
22787W        W91005  14.629  36.801  12.453
22788W        W91006  14.052   6.152   2.405
22789W        W91007   4.447  28.052  12.522
22790W        W91008   5.996  36.449  14.876
22791W        W91009  33.841  16.266   4.599
22792W        W91010   1.906  12.173   0.751
22793W        W91011  12.405  44.539   3.773
22794W        W91012  34.935  30.867  11.591
22795W        W91013  38.681  12.253  13.147
22796W        W91014  32.516  29.322  14.371
22797W        W91015  30.907  42.441   3.694
22798W        W91016  35.891  30.646   4.434
22799W        W91017  33.132  26.455   0.335
22800W        W91018  15.319  32.633   1.340
22801W        W91019   2.344  37.327  10.238
22802W        W91020   4.415  11.863  12.623
22803W        W91021  31.557  40.878   0.558
22804W        W91022  35.972  16.788  12.975
22805W        W91023  11.647  20.019  14.062
22806W        W91024  14.718   4.874   2.889
22807W        W91025  27.907  36.897   2.628
22808W        W91026  11.336  36.647  12.095
22809W        W91027  15.481   9.131   3.326
22810W        W91028  32.962  22.265  13.583
22811W        W91029  16.578  23.735  14.049
22812W        W91030   5.464   9.683   2.086
22813W        W91031  24.246   1.959   1.340
22814W        W91032  13.628  32.180   2.795
22815W        W91033  35.997  22.180   4.923
22816W        W91034  11.778   6.916   0.944
22817W        W91035  39.791  23.515   1.805
22818W        W91036  31.269   3.645   3.189
22819W        W91037  40.171  25.088   4.205
22820W        W91038  35.917  30.416  11.208
22821W        W91039  21.578  27.510  10.662
22822W        W91040  20.151  29.279   1.963
22823W        W91041  10.880  38.548  10.347
22824W        W91042   6.995  39.871  12.952
22825W        W91043   1.131  33.593  13.353
22826W        W91044  40.359  14.122   4.644
22827W        W91045  21.110  23.593   0.383
22828W        W91046   9.433  36.307  12.490
22829W        W91047   4.177   2.363   0.408
22830W        W91048   1.908  29.426  11.206
22831W        W91049  16.722  29.148  12.325
22832W        W91050  18.642  19.091  11.582
22833W        W91051  28.293  19.831   2.269
22834W        W91052  39.796  14.834  12.529
22835W        W91053  20.685  11.742   0.838
22836W        W91054  31.392  38.823   1.893
22837W        W91055  11.722  30.238  12.135
22838W        W91056  35.370  13.814  12.340
22839W        W91057  40.572  16.259  11.710
22840W        W91058  43.578  19.239   4.574
22841W        W91059   4.764  20.167   1.327
22842W        W91060  29.962  12.603  11.873
22843W        W91061  44.265  29.436   3.146
22844W        W91062  28.892  18.615  13.817
22845W        W91063  36.047   4.925  14.805
22846W        W91064  15.624  41.647  14.252
22847W        W91065   1.932  20.749  13.753
22848W        W91066  28.427  32.074   0.885
22849W        W91067  14.561  16.739  11.830
22850W        W91068  34.958  39.436   0.424
22851W        W91069  20.212  15.322  13.744
22852W        W91070   9.703   6.895  14.517
22853W        W91071   7.858   7.846  12.042
22854W        W91072   1.925  23.173  13.647
22855W        W91073  13.595  32.899  10.888
22856W        W91074  44.937  27.111   2.168
22857W        W91075  23.670  12.246   0.805
22858W        W91076  43.701  20.264   1.216
22859W        W91077  38.032  27.431  13.860
22860W        W91078  24.073  36.342   0.507
22861W        W91079  21.651  22.755  10.520
22862W        W91080   2.771  18.192   0.710
22863W        W91081   8.519   9.058   1.912
22864W        W91082   7.310  41.942   2.953
22865W        W91083  12.768  41.018   0.316
22866W        W91084  37.495  34.105   2.793
22867W        W91085  29.159  26.115   4.666
22868W        W91086  13.366  38.057   3.655
22869W        W91087  28.630  35.010  12.466
22870W        W91088  11.640  39.749   0.843
22871W        W91089  32.003  35.636  12.890
22872W        W91090   6.260   9.327  12.176
22873W        W91091  40.862  42.328   1.083
22874W        W91092  23.885  41.929  11.993
22875W        W91093   9.946  40.504  11.905
22876W        W91094  33.871  19.176  14.498
22877W        W91095  30.132  27.105   3.516
22878W        W91096   6.453  16.505  13.519
22879W        W91097  21.740  26.433   1.320
22880W        W91098  23.541  35.371   2.962
22881W        W91099  20.667  28.148  14.007
22882W        W91100   3.183   5.523   4.593
22883W        W91101   5.034  11.165  14.840
22884W        W91102  18.775   5.680  14.243
22885W        W91103   6.263   2.269   4.706
22886W        W91104   8.907  16.205   3.579
22887W        W91105   7.579   3.297  12.526
22888W        W91106  11.588  42.062  14.471
22889W        W91107   1.226  17.688  10.609
22890W        W91108  18.790  35.169   0.855
22891W        W91109  25.432  21.046   0.258
22892W        W91110  12.121  43.835  11.686
22893W        W91111  30.094   2.376   0.760
22894W        W91112  32.194  22.660  13.039
22895W        W91113   8.893  28.597  11.832
22896W        W91114  25.723   0.427   2.276
22897W        W91115  25.310  39.705  12.200
22898W        W91116  42.570  23.917   2.299
22899W        W91117   1.240  14.355   4.366
22900W        W91118  28.677  14.788  14.800
22901W        W91119  17.228   0.053   3.612
22902W        W91120   4.310  16.818   3.803
22903W        W91121  30.365  25.254  11.272
22904W        W91122  22.649  24.894   3.242
22905W        W91123  38.236  28.886   3.716
22906W        W91124  24.248  30.015   3.706
22907W        W91125   5.688  23.505   2.190
22908W        W91126   1.424  17.584  12.403
22909W        W91127  26.569  14.074  14.363
22910W        W91128  26.570  20.263  12.592
22911W        W91129  24.979  10.435  14.301
22912W        W91130   7.434  26.599  13.790
22913W        W91131   7.454  34.574   1.253
22914W        W91132  27.430  24.236   0.400
22915W        W91133  24.065  31.697  13.452
22916W        W91134  22.226  16.299  13.433
22917W        W91135  23.025  38.318  11.127
22918W        W91136  38.899  31.655   3.523
22919W        W91137  15.022  21.565  14.337
22920W        W91138  26.302  25.972   1.580
22921W        W91139  35.527  39.536  12.422
22922W        W91140  40.303  12.645   2.615
22923W        W91141  39.319  30.791   4.987
22924W        W91142  22.151  16.220   4.599
22925W        W91143  33.217  35.882  14.807
22926W        W91144  21.820  10.306  10.585
22927W        W91145   0.263  29.178  11.560
22928W        W91146  11.271  20.478  14.030
22929W        W91147  42.918  21.597  11.409
22930W        W91148   7.207   0.655  12.453
22931W        W91149   4.513   3.546  12.972
22932W        W91150  14.480  35.514   3.224
22933W        W91151  28.634  27.171  10.741
22934W        W91152  38.030   5.009   9.970
22935W        W91153  19.742  28.759   3.161
22936W        W91154  41.760   4.941  14.382
22937W        W91155  39.403  12.646   3.584
22938W        W91156   5.333  34.041  13.116
22939W        W91157   6.295  37.455  12.399
22940W        W91158  16.408  16.495  14.937
22941W        W91159  13.091  17.735   2.371
22942W        W91160  36.609  10.290  10.485
22943W        W91161  24.132   2.389   4.616
22944W        W91162  17.006  13.261  12.926
22945W        W91163  19.124  11.108   0.406
22946W        W91164  22.169  41.999   4.174
22947W        W91165  41.277  26.664  10.428
22948W        W91166  22.688  28.398   2.390
22949W        W91167  16.079  16.737   0.290
22950W        W91168  22.566  42.823   0.744
22951W        W91169   0.478  21.988  14.165
22952W        W91170  26.271  11.197   3.444
22953W        W91171  12.127  30.585  14.018
22954W        W91172  36.360   0.291   2.178
22955W        W91173  13.145  22.101  10.602
22956W        W91174  18.581   7.710  10.747
22957W        W91175   2.587   5.321  14.833
22958W        W91176  22.491  15.171  11.189
22959W        W91177  31.643  40.530  12.636
22960W        W91178  33.995  37.080   0.392
22961W        W91179  40.908  37.892   0.879
22962W        W91180  12.174  16.212  14.206
22963W        W91181  42.777  29.857  11.136
22964W        W91182   9.918  40.972  14.274
22965W        W91183  36.889  44.320   1.882
22966W        W91184   2.578  27.107   3.046
22967W        W91185  28.177  20.595  13.130
22968W        W91186  36.127  13.573  11.698
22969W        W91187   2.389  42.766  12.930
22970W        W91188  43.759  32.533  14.408
22971W        W91189  16.641  22.157  10.874
22972W        W91190  15.706  14.038   9.937
22973W        W91191  10.905   5.754   2.574
22974W        W91192  42.892  34.812   4.149
22975W        W91193  36.970  25.893   4.550
22976W        W91194  30.501  32.615  11.631
22977W        W91195  41.531  30.673   3.655
22978W        W91196  33.836  31.074  10.819
22979W        W91197  34.757  40.784  12.421
22980W        W91198  33.878  15.646   0.282
22981W        W91199  18.132  22.674   0.762
22982W        W91200   8.396  11.135   2.817
22983W        W91201   3.326  14.782  14.357
22984W        W91202   6.950  10.856  13.767
22985W        W91203  33.501  23.449   3.068
22986W        W91204   8.567  44.018  14.869
22987W        W91205   6.783  39.149   2.185
22988W        W91206  11.921  29.982   1.194
22989W        W91207  34.399  41.007  13.309
22990W        W91208   2.793   8.805  13.495
22991W        W91209  39.128   1.440   1.251
22992W        W91210  21.847   0.054  12.207
22993W        W91211  32.853  16.549  11.477
22994W        W91212  34.632   1.564   0.636
22995W        W91213  17.590   2.913   3.749
22996W        W91214  28.378  13.596  12.918
22997W        W91215   4.331  21.328  14.285
22998W        W91216  33.854  31.073  13.149
22999W        W91217  42.519   3.519   3.093
23000W        W91218  39.349  40.070  12.831
23001W        W91219  43.585   5.987  10.360
23002W        W91220  38.956   7.585   1.863
23003W        W91221   7.467  30.983   3.387
23004W        W91222  42.217  38.575   0.893
23005W        W91223  15.148  30.174  10.631
23006W        W91224  38.608  29.669   2.116
23007W        W91225  15.726  40.104  12.532
23008W        W91226   5.689  39.084   2.632
23009W        W91227   8.751  11.857   4.218
23010W        W91228  24.216   9.391   1.731
23011W        W91229   3.550   0.969   4.407
23012W        W91230  26.552   8.038  11.100
23013W        W91231  17.861  43.707   4.187
23014W        W91232  32.143   7.151   3.067
23015W        W91233  25.021  44.332   2.713
23016W        W91234  44.502   6.618  13.148
23017W        W91235  27.218   5.870   4.085
23018W        W91236  38.239   3.935  10.256
23019W        W91237  16.005   7.356  13.316
23020W        W91238  12.082  20.804   0.188
23021W        W91239   6.442  17.100   1.338
23022W        W91240  41.839  14.608  13.605
23023W        W91241  44.511   3.669  13.058
23024W        W91242  26.044  25.535  13.505
23025W        W91243   5.204  13.904   4.201
23026W        W91244  29.074  32.905   4.156
23027W        W91245  21.841   1.818   3.112
23028W        W91246   1.440   7.092  11.893
23029W        W91247  36.184  10.464   2.439
23030W        W91248  30.587  39.058   4.186
23031W        W91249  27.111  32.398  10.632
23032W        W91250  20.014  25.231   1.939
23033W        W91251  17.211  31.027  13.327
23034W        W91252  32.185   4.181  11.495
23035W        W91253  37.328  20.599  12.579
23036W        W91254  28.603  39.314   2.775
23037W        W91255  24.022  24.638   5.020
23038W        W91256  21.738  16.516  14.321
23039W        W91257  25.984   2.958   0.081
23040W        W91258  35.888  24.191   1.370
23041W        W91259  36.916  34.612  13.564
23042W        W91260  25.744  32.421  11.227
23043W        W91261  33.997   1.220   0.518
23044W        W91262  34.639  23.634   2.439
23045W        W91263   5.420   6.664  14.976
23046W        W91264  12.325  14.760  14.981
23047W        W91265   0.446  32.224  13.391
23048W        W91266  44.112  38.014  14.919
23049W        W91267  15.117  18.246   1.001
23050W        W91268  23.013  27.427  14.302
23051W        W91269  44.338  28.093  14.289
23052W        W91270  25.131   7.962  13.079
23053W        W91271  16.161  27.856   1.056
23054W        W91272   6.396  30.427  11.431
23055W        W91273  12.207  39.529  12.930
23056W        W91274  16.286  32.974   1.807
23057W        W91275  22.631  18.586   0.397
23058W        W91276  25.129  14.593  13.523
23059W        W91277   9.343  14.834  11.174
23060W        W91278  12.258   9.879   2.215
23061W        W91279  35.872  38.107  11.588
23062W        W91280  10.084  42.827   3.248
23063W        W91281  26.812  31.284  14.318
23064W        W91282   1.899  26.556  12.373
23065W        W91283   2.038   2.408   2.450
23066W        W91284  12.189  29.267   0.363
23067W        W91285  18.129  40.819   3.465
23068W        W91286  40.969  29.640   4.693
23069W        W91287  40.037  34.821  12.503
23070W        W91288  22.194  15.848  12.530
23071W        W91289  25.810  34.882  14.364
23072W        W91290   2.361  35.477   2.918
23073W        W91291  27.211  31.213   1.792
23074W        W91292  28.330  23.217  13.301
23075W        W91293  35.112  19.980   1.301
23076W        W91294  32.205  24.309   0.434
23077W        W91295  36.932   8.768   4.877
23078W        W91296  20.071  37.109   3.553
23079W        W91297  13.933  21.293   4.766
23080W        W91298  22.429  19.264  11.682
23081W        W91299  41.747  11.821   0.748
23082W        W91300  10.465  19.246   0.712
23083W        W91301  44.310  34.915   1.773
23084W        W91302   0.495  26.905   1.679
23085W        W91303   2.725  19.703   0.464
23086W        W91304  39.547  15.131  10.406
23087W        W91305  39.522  17.022   3.846
23088W        W91306  20.744   4.767   1.947
23089W        W91307   6.694   3.233   2.784
23090W        W91308  44.389  24.934   4.813
23091W        W91309  29.880   0.567   0.464
23092W        W91310  18.333  38.618   0.827
23093W        W91311  37.847  23.276   0.857
23094W        W91312  14.835   8.903  12.556
23095W        W91313   3.214   8.250  11.106
23096W        W91314   0.406  22.446  14.377
23097W        W91315   7.116  10.849   2.708
23098W        W91316  27.411  40.900   4.752
23099W        W91317   2.493   1.695   1.129
23100W        W91318  39.953   6.805  14.077
23101W        W91319   2.751  22.265  12.127
23102W        W91320  35.393  13.533  10.468
23103W        W91321  21.017  40.906  13.859
23104W        W91322  24.771  11.326   4.062
23105W        W91323   9.042  36.999   2.719
23106W        W91324   1.357  30.699   4.727
23107W        W91325   7.770  30.669  11.218
23108W        W91326  12.223  13.984  13.823
23109W        W91327   8.914  28.151  14.877
23110W        W91328  39.291  30.543   0.817
23111W        W91329  23.642  31.414  13.346
23112W        W91330  29.182  34.396   1.150
23113W        W91331  43.898  10.241  14.589
23114W        W91332   0.540  42.520   2.259
23115W        W91333  20.035  16.359  12.473
23116W        W91334  36.020   0.907  10.719
23117W        W91335  26.059   3.422  11.102
23118W        W91336  18.589   5.267   0.970
23119W        W91337  41.902   5.395  11.191
23120W        W91338   3.911  30.909   5.021
23121W        W91339   4.712  41.405   3.138
23122W        W91340   5.852   1.099  11.646
23123W        W91341   2.923  25.472  14.037
23124W        W91342  25.403  16.720   4.850
23125W        W91343  43.569   5.712  12.093
23126W        W91344  19.428   8.869   3.905
23127W        W91345  23.775  18.659   2.747
23128W        W91346  41.794  30.194  12.646
23129W        W91347   3.514  15.568   1.166
23130W        W91348  32.534  32.348  10.697
23131W        W91349   8.346  42.819   2.153
23132W        W91350  27.096   5.351  14.761
23133W        W91351  11.890  20.554   2.334
23134W        W91352  26.128  16.729   0.146
23135W        W91353  20.665  27.575   4.610
23136W        W91354  40.575  32.057  10.807
23137W        W91355  44.408  10.185  13.270
23138W        W91356  23.975   7.116  11.546
23139W        W91357  44.291  18.036   2.195
23140W        W91358   8.543  20.030  11.083
23141W        W91359  41.454   3.850   1.333
23142W        W91360  23.157   5.959   0.718
23143W        W91361  21.543  13.779   4.684
23144W        W91362   5.972  11.635   0.471
23145W        W91363   2.463  31.712  11.370
23146W        W91364  36.525  19.714   0.370
23147W        W91365   0.478  27.438   1.534
23148W        W91366  30.087   0.477  10.678
23149W        W91367   8.886  24.803  11.699
23150W        W91368  20.323  21.613   4.331
23151W        W91369  31.674  35.180  10.734
23152W        W91370   2.225  40.971   1.297
23153W        W91371  19.090  10.350  12.305
23154W        W91372  39.580   1.655   3.633
23155W        W91373  23.768  18.146   3.189
23156W        W91374  12.628   8.099   3.198
23157W        W91375   4.063  21.616  10.219
23158W        W91376  13.007  15.616  10.626
23159W        W91377  35.878  15.838   3.735
23160W        W91378  42.598  35.750  11.950
23161W        W91379  18.698   9.452   1.543
23162W        W91380  41.523  34.839  14.883
23163W        W91381  21.012  44.686   2.762
23164W        W91382  31.873  32.350   1.599
23165W        W91383  16.144  15.138   0.375
23166W        W91384  31.101  40.300  12.567
23167W        W91385   1.798   7.451  13.265
23168W        W91386  33.495  20.765   3.222
23169W        W91387  13.270  44.411   1.787
23170W        W91388  11.207  35.005   2.233
23171W        W91389   7.713  23.120  12.064
23172W        W91390  32.020  35.133   2.365
23173W        W91391  32.619  32.481   4.593
23174W        W91392  12.888  22.775   2.733
23175W        W91393   4.862  38.196   5.233
23176W        W91394  40.543  13.666   1.201
23177W        W91395  15.948  16.032   0.758
23178W        W91396  13.739  16.050   3.628
23179W        W91397  27.784   3.274  14.320
23180W        W91398  16.836  19.171   4.141
23181W        W91399  40.502  43.491  13.484
23182W        W91400   2.722  20.633   5.076
23183W        W91401  42.625  31.809   1.708
23184W        W91402   8.658  20.046  11.932
23185W        W91403   8.661  39.103   1.319
23186W        W91404  27.413  17.876  11.587
23187W        W91405  29.336  42.068  12.465
23188W        W91406  35.655  18.723  11.617
23189W        W91407  12.290  14.850  11.503
23190W        W91408  35.727  13.128  12.442
23191W        W91409   4.392   1.506  12.472
23192W        W91410  25.995  43.782  12.502
23193W        W91411  44.165  33.543  12.637
23194W        W91412  38.442  27.052  11.082
23195W        W91413  30.436  29.011  12.128
23196W        W91414  42.916   7.442   2.404
23197W        W91415  29.631   6.293   2.221
23198W        W91416   4.817  40.379   0.822
23199W        W91417  28.898   8.334  11.322
23200W        W91418   4.690  13.373   3.743
23201W        W91419  22.790  30.412  12.994
23202W        W91420  43.452  43.418   1.024
23203W        W91421  41.317  23.277  13.401
23204W        W91422   4.004  31.405  11.541
23205W        W91423  19.257  10.854   4.194
23206W        W91424  22.313  42.413   1.810
23207W        W91425  33.849  34.331   3.255
23208W        W91426  15.546  39.452  13.529
23209W        W91427   8.852  14.471  12.410
23210W        W91428  16.172  30.595   1.799
23211W        W91429  15.354  10.151   1.787
23212W        W91430   1.448  15.707  11.492
23213W        W91431  27.081  38.998  14.563
23214W        W91432  18.408  20.997  12.092
23215W        W91433  43.824  39.910  14.455
23216W        W91434  42.833  17.101   4.176
23217W        W91435  42.373   6.883  12.938
23218W        W91436  26.988  42.558  13.420
23219W        W91437  38.466   1.186   1.452
23220W        W91438  34.619  38.678  13.930
23221W        W91439  31.636  31.014   0.799
23222W        W91440  30.712  41.914   3.764
23223W        W91441   4.890  42.779  13.294
23224W        W91442  15.576  24.693   3.776
23225W        W91443  22.462  41.828   3.049
23226W        W91444   5.681  37.820   2.104
23227W        W91445  32.595  10.110   1.849
23228W        W91446  25.256   1.698   2.120
23229W        W91447  30.178  43.499  10.814
23230W        W91448  20.568  34.071   0.991
23231W        W91449  33.935   7.491  13.917
23232W        W91450  35.116  43.412  10.821
23233W        W91451  30.455  30.893  14.343
23234W        W91452  24.903  20.222  14.463
23235W        W91453  31.979  11.441   1.489
23236W        W91454  11.509  38.104  14.694
23237W        W91455  32.318  38.448  11.725
23238W        W91456  19.242  17.993   1.264
23239W        W91457  15.970  40.411  13.798
23240W        W91458  29.476  28.545   4.362
23241W        W91459  40.832   7.734   3.296
23242W        W91460  19.959   9.608  14.752
23243W        W91461  11.899  41.016  10.575
23244W        W91462  14.650  42.033   2.678
23245W        W91463  17.580  13.844   3.285
23246W        W91464  31.083  11.359  11.931
23247W        W91465  31.517  28.417   3.228
23248W        W91466  27.144  38.781   2.178
23249W        W91467   7.378  13.879  11.508
23250W        W91468  16.850  37.372  12.977
23251W        W91469  16.702  33.857  11.225
23252W        W91470  33.086  17.581  11.664
23253W        W91471  34.458  25.712   1.364
23254W        W91472  26.158  11.839   2.266
23255W        W91473   0.102  10.270   1.720
23256W        W91474  26.682  25.322  14.282
23257W        W91475  31.619  10.180   0.319
23258W        W91476  15.621   6.531   3.191
23259W        W91477  34.427   9.476  11.390
23260W        W91478  27.586   1.440   1.406
23261W        W91479  15.757  38.986   2.136
23262W        W91480  34.106  24.753  14.308
23263W        W91481   2.703  16.171  13.867
23264W        W91482  30.874  20.553  11.131
23265W        W91483  34.870  12.633   3.873
23266W        W91484   2.939  10.358   4.069
23267W        W91485  32.409   2.168  14.097
23268W        W91486  39.091  33.834   5.084
23269W        W91487  36.695  33.572  11.124
23270W        W91488  35.676  42.254   0.950
23271W        W91489  34.333  38.368  13.052
23272W        W91490  40.211  26.972   0.444
23273W        W91491  12.036  12.219  13.796
23274W        W91492  29.018  15.874  11.202
23275W        W91493  30.374  17.064   4.264
23276W        W91494  42.399  27.711   3.170
23277W        W91495  22.951  10.228  14.048
23278W        W91496  31.903  17.006  11.307
23279W        W91497  20.690   4.436   2.354
23280W        W91498  16.245  15.566   4.866
23281W        W91499  14.598  39.072   0.075
23282W        W91500   9.721  18.063   5.031
23283W        W91501  12.592  11.329   0.895
23284W        W91502  13.904   5.069  12.588
23285W        W91503  23.240   5.127  11.142
23286W        W91504   6.823   7.766  13.250
23287W        W91505  37.577  18.745   3.275
23288W        W91506  17.058   9.774   3.859
23289W        W91507  38.487  41.864   1.328
23290W        W91508   1.725  39.380   1.990
23291W        W91509  22.018   0.450   1.295
23292W        W91510  28.638  16.290   4.848
23293W        W91511  22.294  25.521  14.934
23294W        W91512  40.422  25.907   1.707
23295W        W91513  16.302  22.810  13.982
23296W        W91514  34.118  21.081   1.267
23297W        W91515   5.257  33.967   1.498
23298W        W91516  29.929  30.496   3.663
23299W        W91517   4.210  17.717  10.604
23300W        W91518  42.326  40.786  13.319
23301W        W91519   6.454  30.693  13.128
23302W        W91520  43.854  12.355   3.159
23303W        W91521  41.561   0.070  13.601
23304W        W91522  24.472  10.397  11.623
23305W        W91523   5.887  25.231  11.653
23306W        W91524  12.140  26.434   4.370
23307W        W91525  22.800  41.106  12.362
23308W        W91526  43.248  25.962   3.153
23309W        W91527  12.334  26.670  10.658
23310W        W91528  41.907  22.550  12.313
23311W        W91529   6.276  43.665  14.102
23312W        W91530   5.436  33.061   0.986
23313W        W91531   7.239  17.053  13.385
23314W        W91532   7.901   8.725  12.185
23315W        W91533  35.669  12.309   4.232
23316W        W91534  13.368  30.563   0.398
23317W        W91535  24.313   7.587   4.994
23318W        W91536  16.880  20.673  12.982
23319W        W91537  35.017  28.709   1.839
23320W        W91538   0.426  38.598   4.647
23321W        W91539  11.123  16.030   0.375
23322W        W91540  23.370  44.940   2.832
23323W        W91541   9.135  41.159  12.160
23324W        W91542  44.617  17.687  14.026
23325W        W91543  18.763  21.525   2.178
23326W        W91544  38.026  30.952   1.043
23327W        W91545  42.959  19.549   1.347
23328W        W91546   3.685  31.434   4.172
23329W        W91547  23.466  39.362  12.171
23330W        W91548  12.879  22.512   1.535
23331W        W91549   0.738   4.728  14.802
23332W        W91550  27.846   1.661   2.338
23333W        W91551   0.930  38.488   0.629
23334W        W91552   4.335  28.002   0.917
23335W        W91553  34.495  13.840  14.325
23336W        W91554  10.805  19.269   2.358
23337W        W91555   0.808  30.332   3.044
23338W        W91556  19.774   3.450   1.703
23339W        W91557  33.599  15.632   5.060
23340W        W91558  22.860   6.909  12.888
23341W        W91559  22.992  10.248  11.605
23342W        W91560  38.928   6.711  10.119
23343W        W91561  31.680  15.070  12.489
23344W        W91562  43.260  25.011  13.500
23345W        W91563   5.328  14.452  13.881
23346W        W91564  20.265  41.202   0.972
23347W        W91565  42.359   1.552   4.402
23348W        W91566  37.064  26.482   0.947
23349W        W91567  33.855  29.950   3.657
23350W        W91568  38.783   8.296  11.386
23351W        W91569  34.523   1.061   0.751
23352W        W91570  14.750  18.999   0.787
23353W        W91571  20.187  23.012   4.026
23354W        W91572   7.204   5.300  12.914
23355W        W91573  27.696  10.674   2.543
23356W        W91574  35.373  26.662  12.146
23357W        W91575  14.914   3.178  13.043
23358W        W91576  29.502  44.564  13.572
23359W        W91577  34.630  44.040   3.685
23360W        W91578  16.695  16.176   0.296
23361W        W91579  17.801  18.307   4.339
23362W        W91580  32.017   2.365   1.396
23363W        W91581  37.932  43.805  14.545
23364W        W91582  41.911   7.129  12.416
23365W        W91583  17.024  43.183  10.495
23366W        W91584  17.057  19.228  14.371
23367W        W91585   6.827  32.507   1.393
23368W        W91586  19.624  39.316   3.612
23369W        W91587  10.486   6.989   4.793
23370W        W91588   2.803  31.051  14.830
23371W        W91589  39.768  12.721  12.522
23372W        W91590  37.810  10.753   1.923
23373W        W91591  30.488  15.195  14.475
23374W        W91592   6.185  26.088  14.380
23375W        W91593  44.476   7.624   2.219
23376W        W91594  38.230  22.571   4.163
23377W        W91595  10.847  39.988   1.330
23378W        W91596   9.644  15.147   4.614
23379W        W91597  35.093  36.367  12.395
23380W        W91598  42.558   8.844   2.155
23381W        W91599   5.584  24.331   4.579
23382W        W91600  20.649  38.319  12.104
23383W        W91601   4.883  17.370   0.739
23384W        W91602  22.769  25.537   0.157
23385W        W91603  13.050  22.210  12.929
23386W        W91604  32.218  40.629   5.053
23387W        W91605  41.529   7.565  14.500
23388W        W91606  38.926   5.365   0.316
23389W        W91607  31.662   4.310   3.528
23390W        W91608  19.837  30.795  11.505
23391W        W91609  29.984  34.406  12.357
23392W        W91610   3.757  16.038   1.423
23393W        W91611  16.816  17.673  11.198
23394W        W91612  30.743  15.935   5.042
23395W        W91613   9.078  21.130   1.862
23396W        W91614   0.744  27.920   2.669
23397W        W91615  19.432  32.541  14.976
23398W        W91616   9.682  44.810   3.774
23399W        W91617  11.644  24.995   1.824
23400W        W91618  15.781  11.221  12.483
23401W        W91619  38.671  27.310  12.440
23402W        W91620  33.117  32.102  11.972
23403W        W91621  33.386   0.800   1.697
23404W        W91622  18.829  24.271   0.835
23405W        W91623   7.245  24.236  12.249
23406W        W91624  33.150   9.263   2.022
23407W        W91625  40.076   3.298  13.370
23408W        W91626   0.241  42.519   4.584
23409W        W91627  37.036  43.776  12.857
23410W        W91628  35.612  35.461   3.380
23411W        W91629  27.040  16.113   1.733
23412W        W91630  13.359  42.253  11.162
23413W        W91631  14.319  37.411   4.594
23414W        W91632  33.116  40.769  13.078
23415W        W91633  38.557  13.615  12.162
23416W        W91634  13.224   5.705   2.326
23417W        W91635   5.929  11.745  11.703
23418W        W91636  41.762  22.406   1.935
23419W        W91637  37.081   4.698  14.344
23420W        W91638  30.532   9.335  13.864
23421W        W91639  12.260  41.368   1.403
23422W        W91640  27.533  30.463  11.047
23423W        W91641  27.998  44.452  13.890
23424W        W91642   6.719  24.849  13.892
23425W        W91643  36.571  35.854   0.742
23426W        W91644  14.125  11.566  12.916
23427W        W91645   6.452  31.301  11.972
23428W        W91646   0.126  39.801  10.792
23429W        W91647  29.865   9.851   3.187
23430W        W91648  24.478   5.843  12.191
23431W        W91649   6.439  18.317  11.102
23432W        W91650   9.325  12.594  14.558
23433W        W91651  15.126  22.735   0.759
23434W        W91652  20.800  44.515   2.269
23435W        W91653  26.351  30.914  14.320
23436W        W91654   4.324  26.030   4.801
23437W        W91655  32.138  39.501   3.739
23438W        W91656  29.132  14.866   3.750
23439W        W91657  11.762   7.927   3.125
23440W        W91658  35.924  14.076   1.123
23441W        W91659  34.003  29.442  13.867
23442W        W91660  40.783  39.975  13.067
23443W        W91661  33.638  41.730   4.048
23444W        W91662  28.927  13.160  13.483
23445W        W91663  38.478  19.060   4.547
23446W        W91664  44.986  43.344   1.996
23447W        W91665  42.926   6.692   2.234
23448W        W91666  32.617   8.717   3.681
23449W        W91667  10.065  11.339  14.180
23450W        W91668  41.556  43.997   0.966
23451W        W91669  19.532  19.680   2.319
23452W        W91670  39.997   4.176  11.936
23453W        W91671   9.916  24.511   2.007
23454W        W91672  10.284   0.497  12.028
23455W        W91673  24.721  10.305   1.724
23456W        W91674  15.258  33.651   2.813
23457W        W91675  26.164  24.955  12.598
23458W        W91676  10.395  14.781   3.221
23459W        W91677  17.049  12.238  10.841
23460W        W91678   1.562  22.905   2.086
23461W        W91679  17.393   6.438  10.742
23462W        W91680  15.539  42.518   4.180
23463W        W91681  36.600  34.661   4.195
23464W        W91682  32.662  20.708   2.212
23465W        W91683   8.833  19.690   1.382
23466W        W91684   9.935  35.935  12.195
23467W        W91685  17.783   2.993   2.910
23468W        W91686  17.832   8.315  11.680
23469W        W91687  36.073  14.823   0.307
23470W        W91688   1.823  39.842  10.634
23471W        W91689   8.776  35.259   0.326
23472W        W91690  21.316  11.208  10.664
23473W        W91691  12.567  42.142  11.386
23474W        W91692  34.095  38.233  12.583
23475W        W91693  11.824  30.562  13.130
23476W        W91694  24.647  28.003  13.440
23477W        W91695  34.028   6.179  10.271
23478W        W91696  13.300  43.523   2.244
23479W        W91697  31.735  15.342  13.702
23480W        W91698  26.421  37.296   4.040
23481W        W91699  13.153  43.099   0.511
23482W        W91700  12.843  34.432  13.968
23483W        W91701  30.001   7.429   0.306
23484W        W91702  19.202   6.146   0.467
23485W        W91703  43.209  43.786  10.655
23486W        W91704   9.872  32.874  14.439
23487W        W91705  28.936  24.257  12.944
23488W        W91706  28.325  30.698   2.288
23489W        W91707  35.582  26.107   3.789
23490W        W91708  44.195  16.729  13.319
23491W        W91709  32.099  16.724   4.664
23492W        W91710  37.005  16.320  11.611
23493W        W91711  28.497   3.243  14.326
23494W        W91712  16.036  20.783  14.287
23495W        W91713  20.613   2.461   4.060
23496W        W91714   7.831   7.132  12.089
23497W        W91715   5.922  14.807  11.077
23498W        W91716  29.855  21.646  11.896
23499W        W91717  41.707   0.818   0.890
23500W        W91718  19.671  19.393  10.577
23501W        W91719  20.746   1.500   1.232
23502W        W91720  14.111  43.034   4.009
23503W        W91721  25.223  43.555   1.336
23504W        W91722  32.952  10.649  10.767
23505W        W91723  43.988   4.427  13.917
23506W        W91724  25.509  15.114   3.139
23507W        W91725  16.147  39.330  12.388
23508W        W91726  35.515  37.517  12.471
23509W        W91727  27.213  33.099   3.621
23510W        W91728  26.637   8.968  11.936
23511W        W91729  43.343  34.882   1.472
23512W        W91730   9.941  27.015  12.882
23513W        W91731  44.344  12.333   2.952
23514W        W91732  21.263   7.601  14.840
23515W        W91733  16.212  40.781   0.025
23516W        W91734  38.974  27.446   0.255
23517W        W91735   8.834   0.309  12.143
23518W        W91736  11.730  29.898   0.330
23519W        W91737  39.230   8.340   3.549
23520W        W91738  23.227   5.804   1.394
23521W        W91739  16.730  10.380  11.160
23522W        W91740   0.879  16.283   4.098
23523W        W91741  36.565   0.182   0.432
23524W        W91742  43.767  37.790  11.147
23525W        W91743  31.482   4.792  11.177
23526W        W91744   3.384   5.913  10.963
23527W        W91745  19.035  23.774   2.731
23528W        W91746  16.995  20.994   3.160
23529W        W91747   0.457  31.787   0.932
23530W        W91748  11.530  30.464  14.963
23531W        W91749  27.992  33.213  14.011
23532W        W91750  29.885  44.358   0.022
23533W        W91751  33.812  13.182   1.826
23534W        W91752  11.368  26.585  11.010
23535W        W91753   3.657  20.018   4.521
23536W        W91754  40.439  23.086  13.569
23537W        W91755  42.086  42.714   0.960
23538W        W91756  11.758  25.671   1.275
23539W        W91757  10.043   3.232  10.182
23540W        W91758   1.335   1.858   2.919
23541W        W91759  40.744  40.417  13.302
23542W        W91760  15.683  19.012   3.512
23543W        W91761   8.236   3.197   3.688
23544W        W91762  12.208  24.025   4.352
23545W        W91763  26.026   5.830   2.409
23546W        W91764  21.949  40.477  11.605
23547W        W91765  32.328  40.306  13.072
23548W        W91766  44.198  18.656   4.144
23549W        W91767  19.155  32.349   2.889
23550W        W91768  10.578   6.287  11.638
23551W        W91769  40.517   2.058   0.395
23552W        W91770  33.709  19.666   1.191
23553W        W91771  42.082  35.826   3.126
23554W        W91772  33.183  39.894  12.805
23555W        W91773  17.119   3.100  14.875
23556W        W91774  26.741  28.622   2.646
23557W        W91775   1.745  29.033   2.004
23558W        W91776   2.650  33.723  13.099
23559W        W91777  23.065  22.260   4.929
23560W        W91778   8.629  33.479   2.634
23561W        W91779  18.394  20.108   4.729
23562W        W91780   0.894  37.959   3.852
23563W        W91781  38.975  28.589   1.813
23564W        W91782   1.940  36.772   4.150
23565W        W91783  41.771  31.714  11.534
23566W        W91784  37.125  23.554   1.457
23567W        W91785  22.267   4.650  11.205
23568W        W91786  16.900  35.445   0.404
23569W        W91787  37.313  36.839  14.119
23570W        W91788  11.650  20.752  12.589
23571W        W91789  34.130  11.167   0.923
23572W        W91790   1.564  33.982  13.801
23573W        W91791  19.524  20.483  13.856
23574W        W91792  22.235  42.069  14.278
23575W        W91793  42.423  44.906   2.387
23576W        W91794   9.331  39.128  14.483
23577W        W91795  23.153  36.532   0.963
23578W        W91796   1.741  26.118   4.628
23579W        W91797  42.612  11.473  11.493
23580W        W91798  33.502  29.659   5.383
23581W        W91799   0.793  13.469  11.228
23582W        W91800  36.923  24.606   2.575
23583W        W91801  43.490   5.779   3.191
23584W        W91802  27.783  41.527   1.947
23585W        W91803   2.339  38.354   4.162
23586W        W91804  16.802  11.417   0.620
23587W        W91805  38.496  15.514   1.359
23588W        W91806   7.654  40.263   0.689
23589W        W91807  21.365  34.029   0.284
23590W        W91808  38.644  39.379  10.418
23591W        W91809  26.817   3.916   3.809
23592W        W91810   7.848   8.895   5.383
23593W        W91811  36.807  13.209   3.168
23594W        W91812   3.958   8.155  10.624
23595W        W91813  25.229   2.823  11.575
23596W        W91814  10.272   7.184  14.667
23597W        W91815  14.315  26.238  10.750
23598W        W91816  32.416  37.512   1.798
23599W        W91817  12.178  44.614   1.658
23600W        W91818  39.003  10.723  11.059
23601W        W91819  27.044  38.856   4.123
23602W        W91820  38.301  26.586   4.232
23603W        W91821  36.426  38.238   0.901
23604W        W91822   0.058  44.894  13.017
23605W        W91823  41.413  32.911  12.066
23606W        W91824  33.136  31.084  12.086
23607W        W91825  11.147   1.011  13.496
23608W        W91826  44.373   8.357   5.095
23609W        W91827  11.392  42.817  11.169
23610W        W91828  41.063  38.012  11.972
23611W        W91829  33.441  35.393   1.846
23612W        W91830   4.075  44.873   4.535
23613W        W91831   3.817  38.104   3.351
23614W        W91832  29.607   6.951  11.161
23615W        W91833  39.543  25.708  10.868
23616W        W91834  20.657  36.262   2.912
23617W        W91835  28.009  42.571   1.356
23618W        W91836   2.916  36.445  12.574
23619W        W91837   4.230  31.523  14.960
23620W        W91838  20.131  11.825  13.931
23621W        W91839   4.132  23.649  11.603
23622W        W91840  10.428   1.093  14.748
23623W        W91841   6.136  17.516   3.835
23624W        W91842  22.624   1.784  14.507
23625W        W91843  17.495   5.885  14.823
23626W        W91844  25.654  27.199   3.801
23627W        W91845  40.762  26.563  13.098
23628W        W91846   3.419  19.772   2.417
23629W        W91847  42.841  12.327  10.972
23630W        W91848  17.878  33.161   3.864
23631W        W91849  27.522  20.732  14.485
23632W        W91850   4.847   0.352  12.108
23633W        W91851  40.053  29.393  10.432
23634W        W91852   8.755  15.173  13.614
23635W        W91853  34.525  35.435   2.527
23636W        W91854   2.780  28.360   2.265
23637W        W91855   0.400  17.042  11.563
23638W        W91856   1.302  43.327   4.014
23639W        W91857   2.763  17.152  11.604
23640W        W91858  29.395  30.179   1.516
23641W        W91859   1.860  10.322   0.758
23642W        W91860  40.010  34.611  12.024
23643W        W91861  30.183   9.387   0.929
23644W        W91862  22.327  17.011  14.744
23645W        W91863  25.649  32.784  14.459
23646W        W91864   3.073  18.585   2.764
23647W        W91865   3.853  41.598  12.505
23648W        W91866  42.639  11.409  10.755
23649W        W91867  26.492  39.349  10.442
23650W        W91868  35.887  29.447  13.078
23651W        W91869  43.374  21.096   1.878
23652W        W91870  28.362  30.104  13.443
23653W        W91871   1.511  36.279  11.110
23654W        W91872  26.511  20.623   3.494
23655W        W91873   8.680  43.061  11.048
23656W        W91874  37.073  15.083   3.201
23657W        W91875   4.112  43.364   0.576
23658W        W91876  38.090  41.498  11.645
23659W        W91877  16.176  25.057   4.554
23660W        W91878  41.765  10.204   2.454
23661W        W91879  27.106  38.946   3.543
23662W        W91880  15.590  24.953  13.555
23663W        W91881  20.777  37.119  11.658
23664W        W91882  35.644  22.592  10.784
23665W        W91883  34.568   1.479  11.863
23666W        W91884  16.778  12.144  13.426
23667W        W91885   4.651   2.625   2.898
23668W        W91886  38.933  21.742  10.687
23669W        W91887  23.579  20.477   4.090
23670W        W91888   2.427  26.534  14.578
23671W        W91889  44.936   0.704   1.861
23672W        W91890  43.860   3.724   0.204
23673W        W91891  17.288  32.946   1.211
23674W        W91892  11.062  23.101   2.499
23675W        W91893  31.900   9.830  12.014
23676W        W91894  44.087   6.309  13.124
23677W        W91895  39.504  15.177  13.658
23678W        W91896   1.247  25.444   4.297
23679W        W91897   9.740   6.899   4.016
23680W        W91898  39.561  27.094  14.263
23681W        W91899  25.777  11.213  14.743
23682W        W91900  10.291  10.548  10.032
23683W        W91901  27.544  28.082   4.643
23684W        W91902   6.425  31.750   2.673
23685W        W91903  36.852  33.283   1.091
23686W        W91904   1.891  39.351   0.521
23687W        W91905  26.720  33.318   3.925
23688W        W91906  31.692   5.989  14.509
23689W        W91907  27.739   4.145  11.150
23690W        W91908   4.964   4.798  12.487
23691W        W91909  14.050   3.801   3.255
23692W        W91910  12.721  23.008  10.909
23693W        W91911  21.194  40.039  12.812
23694W        W91912   7.408   5.703  12.084
23695W        W91913  31.691  44.003  14.287
23696W        W91914  24.144  31.298  11.106
23697W        W91915   3.918  38.398  10.400
23698W        W91916   4.328  41.452   4.019
23699W        W91917  42.839  41.810  10.639
23700W        W91918  16.289   7.849   2.860
23701W        W91919  10.179  20.186  14.685
23702W        W91920   9.916  25.484  11.596
23703W        W91921  39.479  11.783   2.985
23704W        W91922   8.787  15.068  14.151
23705W        W91923   5.372  17.306   1.434
23706W        W91924  37.775  21.552  14.771
23707W        W91925   4.129  30.134  12.793
23708W        W91926  15.047  36.783   2.626
23709W        W91927  40.264  42.615  11.550
23710W        W91928  28.389  26.021   4.244
23711W        W91929  18.556   9.589   0.658
23712W        W91930  30.752  29.210   0.386
23713W        W91931  29.562  23.963   9.855
23714W        W91932  13.885   9.713  13.038
23715W        W91933  13.427  40.784  10.786
23716W        W91934  16.229   5.461  14.006
23717W        W91935  35.408  23.303   1.374
23718W        W91936   7.425   6.243   4.133
23719W        W91937  24.510  23.661   1.290
23720W        W91938   4.555  41.715  13.854
23721W        W91939  26.192  41.877  11.871
23722W        W91940  13.293   2.802  12.518
23723W        W91941  41.058   2.210   0.390
23724W        W91942   6.974  34.938   1.199
23725W        W91943   5.027  19.352  12.003
23726W        W91944  22.200   6.546   3.667
23727W        W91945  20.551  20.289  12.101
23728W        W91946  32.027  28.257   3.172
23729W        W91947  24.975  22.907  14.791
23730W        W91948   6.107  20.690   3.757
23731W        W91949  40.824  13.534  12.063
23732W        W91950  29.177   0.570  14.412
23733W        W91951   2.897  19.784  10.653
23734W        W91952  32.658  13.305  14.376
23735W        W91953   5.651   3.523   1.744
23736W        W91954  14.828  33.019   4.891
23737W        W91955   3.032   3.439   3.734
23738W        W91956  35.086   5.679  12.154
23739W        W91957  27.928   4.415   0.402
23740W        W91958   4.991  39.538  11.054
23741W        W91959   0.663  10.805   4.891
23742W        W91960  43.402  14.240  11.174
23743W        W91961  24.950  26.137  13.977
23744W        W91962  27.945   4.473  12.060
23745W        W91963  19.144   8.181  12.719
23746W        W91964  17.979  28.972  12.959
23747W        W91965   1.958   4.409   4.859
23748W        W91966   0.296   6.796   0.032
23749W        W91967  38.497  26.959   2.587
23750W        W91968  22.956   4.890   2.263
23751W        W91969  41.423  24.593  11.436
23752W        W91970   6.077   5.788   4.156
23753W        W91971  36.543  41.966   2.213
23754W        W91972  13.877  42.581   1.277
23755W        W91973  42.276   5.886   3.319
23756W        W91974  30.708   0.940  12.087
23757W        W91975  20.091  23.596   3.196
23758W        W91976  14.290  37.477   4.081
23759W        W91977   5.457  39.440  10.927
23760W        W91978  39.855   9.653  13.769
23761W        W91979  40.305  20.505  12.643
23762W        W91980  34.411  26.787  10.649
23763W        W91981   7.808  43.750   1.653
23764W        W91982  42.880  41.610   0.867
23765W        W91983   1.765  12.674   1.338
23766W        W91984  12.699  33.674  14.588
23767W        W91985   5.625  33.619  11.185
23768W        W91986  10.689   2.661  13.887
23769W        W91987  22.680  36.346   0.817
23770W        W91988  21.957   3.228   2.524
23771W        W91989  15.276   7.358   3.343
23772W        W91990  40.029  12.658  12.988
23773W        W91991  21.969  36.971  14.311
23774W        W91992  42.098  44.207  10.302
23775W        W91993  16.235  31.150   4.263
23776W        W91994  40.742   5.393  14.113
23777W        W91995  35.626  15.820  11.147
23778W        W91996  37.115  20.506  11.082
23779W        W91997   5.225  30.495   3.853
23780W        W91998   8.706  36.922  11.027
23781W        W91999  20.660  25.398   2.689
23782W        W92000   0.114  23.780   0.937
23783W        W92001  14.228  42.083  12.462
23784W        W92002  27.610  10.656   1.062
23785W        W92003  35.361  21.643   2.250
23786W        W92004  40.910  29.500  11.780
23787W        W92005   5.854  19.052  10.327
23788W        W92006  26.026   4.385   4.016
23789W        W92007  12.806  12.653   4.539
23790W        W92008  27.247  35.038  14.109
23791W        W92009  44.479  43.259  12.798
23792W        W92010  12.664  19.020   2.412
23793W        W92011   5.216  39.608   0.226
23794W        W92012   8.177  26.105   4.180
23795W        W92013  27.548  32.128  10.412
23796W        W92014  14.741  35.118  11.680
23797W        W92015  14.191  12.146  14.338
23798W        W92016  38.134  25.308  12.991
23799W        W92017  28.417  16.262  12.959
23800W        W92018  37.381  29.106   2.240
23801W        W92019   8.415  14.352   3.342
23802W        W92020  36.543  40.973   2.381
23803W        W92021  19.065  26.182   1.797
23804W        W92022  35.632  43.212  12.048
23805W        W92023   6.437  34.862   4.523
23806W        W92024   2.363  14.086  14.958
23807W        W92025   2.501  29.292   4.506
23808W        W92026  18.080  36.164   2.348
23809W        W92027  40.623  19.217  12.906
23810W        W92028  26.961  16.819  14.745
23811W        W92029  40.760   6.309  14.018
23812W        W92030  14.409  25.474   4.186
23813W        W92031  36.386   9.738   0.283
23814W        W92032  11.435  41.436  12.408
23815W        W92033  42.857  39.766   4.451
23816W        W92034   1.853   0.576   4.157
23817W        W92035  33.146  38.689  11.149
23818W        W92036  25.609  31.415  11.468
23819W        W92037  15.860   9.901  13.367
23820W        W92038  12.975  41.811  11.797
23821W        W92039  40.444   7.867   3.737
23822W        W92040  23.014  31.143   0.841
23823W        W92041   8.731  44.103  14.389
23824W        W92042  38.411  13.312  12.619
23825W        W92043  32.590  16.711   1.433
23826W        W92044  26.989  24.953  11.936
23827W        W92045  20.784  38.126  10.375
23828W        W92046  14.109   7.602   4.565
23829W        W92047  15.245  31.997  11.268
23830W        W92048  33.158  18.088  14.766
23831W        W92049  32.494   7.673  13.876
23832W        W92050  34.844  17.729  12.341
23833W        W92051  16.590  26.254  13.785
23834W        W92052  44.468  16.265  13.858
23835W        W92053   3.430  25.269   1.795
23836W        W92054  32.559  37.166   3.374
23837W        W92055  24.210  27.005   1.722
23838W        W92056  32.416  24.790   0.330
23839W        W92057  21.732  23.593  10.258
23840W        W92058   4.388  25.405  10.659
23841W        W92059  41.288   4.519   2.292
23842W        W92060   7.781  43.303  14.989
23843W        W92061   8.703   4.027  14.042
23844W        W92062  37.444   7.293  13.171
23845W        W92063  44.516  19.139   3.388
23846W        W92064  11.103   9.168   4.573
23847W        W92065  22.710  16.329   2.348
23848W        W92066  29.587  37.558   2.596
23849W        W92067  19.922   0.191  14.788
23850W        W92068  11.150  29.125   3.545
23851W        W92069   3.001  32.940  10.659
23852W        W92070  31.050  23.216  14.370
23853W        W92071  41.259  14.331   0.027
23854W        W92072  17.226  14.068  14.335
23855W        W92073  12.858   7.255   0.321
23856W        W92074  17.225   7.756  10.757
23857W        W92075   5.248  10.713   3.325
23858W        W92076   8.705   6.209   3.632
23859W        W92077  25.961  18.226   3.605
23860W        W92078   7.732  37.338   2.777
23861W        W92079  19.013  35.513  14.676
23862W        W92080   9.553   3.708  11.586
23863W        W92081   5.790   4.914  10.768
23864W        W92082  40.885  10.771  14.039
23865W        W92083  36.913  40.384   4.468
23866W        W92084  26.794   9.457  14.506
23867W        W92085   6.245   5.327   4.002
23868W        W92086  26.814  29.568  11.814
23869W        W92087  39.356  39.293   2.071
23870W        W92088  32.477  43.336  10.576
23871W        W92089  30.782  14.751  12.583
23872W        W92090  16.632  15.867   4.127
23873W        W92091  15.712  22.585   4.565
23874W        W92092  36.969  21.999   2.924
23875W        W92093   0.906   4.409   3.334
23876W        W92094   1.415  15.875  10.785
23877W        W92095  40.618  29.195  14.428
23878W        W92096  41.483  25.073   1.346
23879W        W92097   8.392  43.059   4.319
23880W        W92098   7.713   8.731   0.739
23881W        W92099  37.837  27.665  14.576
23882W        W92100  24.513  21.743   0.274
23883W        W92101  25.794  41.287  13.527
23884W        W92102  29.001  17.394  14.447
23885W        W92103   5.369  29.120  12.926
23886W        W92104  22.427  37.867  12.085
23887W        W92105   7.713   4.411  12.144
23888W        W92106  21.156  17.026   0.381
23889W        W92107   2.487   9.917   1.913
23890W        W92108  21.164  22.464  13.208
23891W        W92109  27.129  16.372   0.317
23892W        W92110  29.752  25.597   0.846
23893W        W92111  19.764  40.987  12.387
23894W        W92112  33.919  36.533  11.761
23895W        W92113  36.985  29.390   4.548
23896W        W92114  24.670  37.630  12.581
23897W        W92115   4.721  28.229   1.846
23898W        W92116  16.560  32.525  13.572
23899W        W92117  16.613  41.831  12.798
23900W        W92118  32.842  29.219   3.444
23901W        W92119  19.518  12.580  11.965
23902W        W92120  11.342  37.122  12.887
23903W        W92121  20.413   5.925   2.793
23904W        W92122  11.467  12.159  13.111
23905W        W92123  21.248  29.770   2.573
23906W        W92124  44.446   0.673  11.534
23907W        W92125  10.077   3.772  10.203
23908W        W92126  10.465  17.180   3.674
23909W        W92127  38.630  12.663   3.126
23910W        W92128  25.677   8.695   0.770
23911W        W92129  19.081   3.264   3.185
23912W        W92130  38.472  11.135  11.611
23913W        W92131  36.035   3.791  11.416
23914W        W92132  11.876   9.562  13.813
23915W        W92133  24.843  44.308  14.207
23916W        W92134  27.614  22.112  14.418
23917W        W92135   4.451  37.546  13.858
23918W        W92136  24.652  21.752   1.239
23919W        W92137  14.683  24.224  10.985
23920W        W92138   8.451   5.215  11.255
23921W        W92139  34.776   7.138  12.455
23922W        W92140   3.484  36.323  14.944
23923W        W92141   9.659  23.948  12.423
23924W        W92142  25.557   8.097   4.237
23925W        W92143  24.144  42.253   2.518
23926W        W92144  39.272  22.978  13.799
23927W        W92145   5.629  43.690   2.760
23928W        W92146  28.118  30.168  14.851
23929W        W92147  22.649   0.910   0.987
23930W        W92148  24.225  38.775  10.232
23931W        W92149  19.590   9.659   4.661
23932W        W92150  36.935  44.417  14.844
23933W        W92151  16.452  18.603   3.892
23934W        W92152  21.220  11.402   1.313
23935W        W92153  22.628  31.051   4.354
23936W        W92154  15.760  16.879   2.447
23937W        W92155  23.599   8.414   4.154
23938W        W92156  31.603  38.387  13.402
23939W        W92157  33.655  43.417  14.505
23940W        W92158   7.493  11.059   3.311
23941W        W92159  32.091  16.095   3.154
23942W        W92160  21.655   9.235  14.408
23943W        W92161   7.090  34.963   3.452
23944W        W92162  28.580  16.322  13.885
23945W        W92163  22.404  26.745   5.171
23946W        W92164  29.003  31.644  11.530
23947W        W92165   6.542  41.000   4.528
23948W        W92166  26.946  32.448   2.197
23949W        W92167  11.270  28.970   1.258
23950W        W92168   0.061  10.962   2.296
23951W        W92169   0.000  23.995  11.968
23952W        W92170  37.915  42.535  11.685
23953W        W92171  17.058  19.363  11.725
23954W        W92172  14.958  15.765  10.753
23955W        W92173  10.394  29.130   4.627
23956W        W92174   2.192  27.653   1.857
23957W        W92175  27.755  13.990   4.551
23958W        W92176   4.688   5.116   4.178
23959W        W92177  19.048  18.412   0.252
23960W        W92178  20.989  28.573  13.825
23961W        W92179   9.830  10.571   3.030
23962W        W92180  10.165   2.770   1.852
23963W        W92181   1.888  42.579  14.904
23964W        W92182  37.522  15.330   2.396
23965W        W92183  41.483  25.945   4.522
23966W        W92184  24.723  10.837  11.648
23967W        W92185  35.626  10.128   0.889
23968W        W92186  14.395  11.210  10.707
23969W        W92187  39.124  13.820   4.096
23970W        W92188  22.781   8.761   4.014
23971W        W92189  11.126  39.308   3.670
23972W        W92190  10.892  42.725  11.190
23973W        W92191  39.503   6.791  13.071
23974W        W92192  31.838  17.665  14.832
23975W        W92193  10.359  25.743   4.133
23976W        W92194   8.272  36.339   4.760
23977W        W92195   1.139   2.964   1.501
23978W        W92196  28.204  14.593   2.710
23979W        W92197  12.152  15.786   1.323
23980W        W92198  42.302  18.191  11.501
23981W        W92199   9.017  34.277  13.564
23982W        W92200  25.957  33.443  13.494
23983W        W92201  28.484  37.608  14.319
23984W        W92202  13.714  34.721   4.742
23985W        W92203   3.199  18.858   3.195
23986W        W92204  36.922  31.251  10.751
23987W        W92205  26.250  23.975  11.836
23988W        W92206  30.115  38.067   2.391
23989W        W92207  37.453   9.831  14.585
23990W        W92208  28.468   3.712   0.981
23991W        W92209  22.402  18.148   2.760
23992W        W92210  44.799  31.135   1.270
23993W        W92211  23.272  21.266   0.913
23994W        W92212  37.254  35.962   4.077
23995W        W92213  39.030  20.576  13.073
23996W        W92214  38.535  33.427  11.624
23997W        W92215   6.365  17.677   2.856
23998W        W92216  40.885  18.321  14.332
23999W        W92217  44.608  22.779   0.272
24000W        W92218   9.594  10.689   3.778
24001W        W92219  24.657  11.961  12.401
24002W        W92220  15.300  39.247  11.011
24003W        W92221  26.247  32.384   0.033
24004W        W92222  25.882  24.772   4.462
24005W        W92223  27.982  38.338  11.052
24006W        W92224   6.237  27.229   2.259
24007W        W92225  14.114   3.149   3.624
24008W        W92226  17.505  17.717  12.639
24009W        W92227  27.170  31.996   1.272
24010W        W92228  44.115  25.395  13.376
24011W        W92229  27.107  19.728   0.233
24012W        W92230   6.018  28.628   1.913
24013W        W92231  20.320   2.888  13.923
24014W        W92232  32.116  21.381  10.162
24015W        W92233  17.713   5.475   1.447
24016W        W92234   5.197  13.824   2.423
24017W        W92235  24.653  16.490   0.767
24018W        W92236   3.044   1.603   3.764
24019W        W92237  26.217  30.556  13.768
24020W        W92238   3.576  19.852  11.904
24021W        W92239  29.097  15.707   0.892
24022W        W92240  44.984  19.725   2.067
24023W        W92241  28.895  39.903   0.950
24024W        W92242   9.879  27.985  12.886
24025W        W92243  23.114  37.014  12.079
24026W        W92244  23.049  18.550  11.581
24027W        W92245  39.323  19.727   1.066
24028W        W92246   7.648  32.024   1.770
24029W        W92247   3.392   2.453   2.448
24030W        W92248  27.659  27.601  11.955
24031W        W92249  23.171  20.287  12.660
24032W        W92250   8.332  17.714  14.818
24033W        W92251   2.314  21.691   1.231
24034W        W92252  31.663  26.660  14.520
24035W        W92253  31.813  34.157  12.039
24036W        W92254  29.913   3.299  11.501
24037W        W92255  17.118  35.332  14.296
24038W        W92256  42.584   6.809   4.242
24039W        W92257  12.921  13.121   1.334
24040W        W92258   6.846  10.270  12.102
24041W        W92259  10.262  13.687  11.446
24042W        W92260   8.862  16.234  12.442
24043W        W92261   6.394  35.855  13.634
24044W        W92262   5.289   8.914  12.523
24045W        W92263  31.547  43.904   3.420
24046W        W92264  20.951  40.763   4.444
24047W        W92265  36.043  17.154   4.087
24048W        W92266  16.092  32.710   4.572
24049W        W92267  36.974  10.479   0.981
24050W        W92268  18.483  25.549   1.261
24051W        W92269   0.358  32.162  12.009
24052W        W92270  39.087  27.785   0.667
24053W        W92271  25.480  29.948   2.639
24054W        W92272  35.523  33.434  14.038
24055W        W92273  32.877  18.547   3.313
24056W        W92274  12.199  30.171   3.789
24057W        W92275  34.854  43.496  12.603
24058W        W92276   0.288  19.790  14.420
24059W        W92277  31.719  11.303   1.914
24060W        W92278   7.824   9.953  14.885
24061W        W92279   3.736  38.097   0.296
24062W        W92280   2.793   6.781  12.297
24063W        W92281   8.438  33.436   4.070
24064W        W92282  39.383  11.706   1.282
24065W        W92283   4.002  40.801   0.912
24066W        W92284  17.467  21.816   1.850
24067W        W92285  17.066   5.679  11.547
24068W        W92286  15.913  28.660   1.671
24069W        W92287  12.495  38.504   3.381
24070W        W92288  11.560  20.747   0.308
24071W        W92289  16.403  18.705   2.399
24072W        W92290  15.402  28.593   4.099
24073W        W92291  12.421  16.293   3.573
24074W        W92292  16.581   7.292   0.666
24075W        W92293   5.871  29.476   0.280
24076W        W92294  22.451  15.795  14.286
24077W        W92295  34.141  12.805   2.021
24078W        W92296   3.470   2.769  10.876
24079W        W92297  41.451  20.671  10.664
24080W        W92298  19.793  34.516   3.690
24081W        W92299   8.473  20.282   1.230
24082W        W92300  11.301  35.427  14.598
24083W        W92301  38.867  33.344   4.225
24084W        W92302   7.236  37.296  12.403
24085W        W92303  25.865  40.560   0.866
24086W        W92304  29.397   8.923   1.717
24087W        W92305  35.997  33.053   3.024
24088W        W92306  33.386  18.060  10.276
24089W        W92307   0.407  13.306   4.068
24090W        W92308  24.476  44.120   0.466
24091W        W92309  27.108  24.930  13.026
24092W        W92310   5.830  29.899   1.940
24093W        W92311  36.295   4.023  11.053
24094W        W92312  13.274   4.223  11.088
24095W        W92313  21.475  40.815  11.989
24096W        W92314  17.753  39.300  12.056
24097W        W92315  35.440  32.698   1.403
24098W        W92316   5.523  30.395  11.483
24099W        W92317  22.719  29.964  12.237
24100W        W92318  38.794  23.573   5.014
24101W        W92319   7.157  28.182  11.906
24102W        W92320   7.261  31.459   3.580
24103W        W92321  31.865  39.587  13.044
24104W        W92322   3.168  20.154   1.385
24105W        W92323  19.084  26.550   2.353
24106W        W92324   4.464  12.270  14.898
24107W        W92325  41.923  30.863   0.835
24108W        W92326   4.899   9.296  13.294
24109W        W92327   7.434   9.883  13.901
24110W        W92328   0.798  14.657   0.134
24111W        W92329  37.386   3.568   2.889
24112W        W92330  29.422  22.144  12.639
24113W        W92331  19.403  39.613   4.321
24114W        W92332  12.364   0.953  10.630
24115W        W92333   7.864  21.766   1.739
24116W        W92334   4.250  20.462   4.446
24117W        W92335  27.920  24.033   2.852
24118W        W92336   8.379  42.952  13.265
24119W        W92337  34.189   5.058   5.061
24120W        W92338  13.248  19.996   1.925
24121W        W92339  38.629  43.729   2.118
24122W        W92340   7.731  44.934  12.394
24123W        W92341  42.078  15.479   3.712
24124W        W92342  17.786  18.156   3.829
24125W        W92343  33.396  33.392  10.340
24126W        W92344  19.309   3.247   4.580
24127W        W92345  33.225  31.475  12.416
24128W        W92346  42.020   6.831   0.493
24129W        W92347  30.334   8.705  10.714
24130W        W92348   6.987  19.822   2.648
24131W        W92349   1.391  32.334  14.370
24132W        W92350  40.050  10.617   1.812
24133W        W92351  15.004  44.973   1.903
24134W        W92352   0.916  10.849  11.076
24135W        W92353   1.705  36.087  12.997
24136W        W92354  22.161  22.635  12.316
24137W        W92355  28.641  39.331  12.479
24138W        W92356  42.343  19.576   4.604
24139W        W92357  41.442  13.798  10.982
24140W        W92358  30.469  21.293   0.365
24141W        W92359  43.812  39.028  12.512
24142W        W92360  21.278  40.243  12.313
24143W        W92361  18.494  22.261  12.825
24144W        W92362  21.436  11.846  12.573
24145W        W92363  44.431  28.351  11.191
24146W        W92364  35.007  21.959  13.713
24147W        W92365   0.884  21.987  12.305
24148W        W92366  18.667  20.228  14.525
24149W        W92367  39.034  23.137   4.748
24150W        W92368  26.236  25.681  11.925
24151W        W92369  36.273  42.755  12.969
24152W        W92370  30.593  43.945  14.741
24153W        W92371  39.650  34.412   4.498
24154W        W92372   2.397  38.138  13.790
24155W        W92373  40.672   0.266  11.620
24156W        W92374  41.099  20.966  10.893
24157W        W92375  28.045  19.069   9.850
24158W        W92376  27.051   1.907  14.459
24159W        W92377  15.068  31.082  11.497
24160W        W92378  36.351   5.087  12.349
24161W        W92379   4.796  38.742   3.327
24162W        W92380  37.312   7.412   0.001
24163W        W92381   2.019   1.751   1.351
24164W        W92382  39.641  20.151   3.647
24165W        W92383   9.162  36.079  14.293
24166W        W92384   3.841  20.501  13.239
24167W        W92385   4.403  31.618   0.431
24168W        W92386  33.152   5.834   1.378
24169W        W92387  21.184   3.384   0.343
24170W        W92388  34.341  14.074  14.757
24171W        W92389  19.475   1.593   0.272
24172W        W92390   7.694  25.608  10.344
24173W        W92391   8.168  33.321  12.164
24174W        W92392  17.837  44.316   2.680
24175W        W92393  28.272  19.277  13.306
24176W        W92394   9.028   9.340  11.147
24177W        W92395  19.134   1.001  14.325
24178W        W92396  22.108  23.576  12.532
24179W        W92397   5.328   2.265   0.950
24180W        W92398  21.992  12.368  12.469
24181W        W92399  42.799  21.388   3.162
24182W        W92400  33.415  20.614  14.383
24183W        W92401  33.571   7.618   0.060
24184W        W92402  15.756  10.731   3.779
24185W        W92403   8.528  17.363   1.463
24186W        W92404  13.238  17.113  10.269
24187W        W92405  28.512  18.881  13.576
24188W        W92406  16.312  24.504   1.188
24189W        W92407  33.711   0.167  13.470
24190W        W92408  30.567   8.920   2.768
24191W        W92409  32.023  32.625  12.916
24192W        W92410  37.899   3.892  11.227
24193W        W92411   9.859  36.534  10.352
24194W        W92412  10.930  32.916  11.123
24195W        W92413  14.637  39.838  14.600
24196W        W92414   7.142   9.253  13.570
24197W        W92415  41.032  25.177  11.879
24198W        W92416  36.826  30.994   2.360
24199W        W92417  14.185   9.814  14.837
24200W        W92418  12.132  28.445  14.751
24201W        W92419   3.907   7.657   0.227
24202W        W92420  11.692  19.267   2.888
24203W        W92421   4.264  41.485  12.817
24204W        W92422  24.158  35.526  10.449
24205W        W92423  39.296  23.645   1.777
24206W        W92424  44.971   8.118   0.979
24207W        W92425  21.523  32.418   2.247
24208W        W92426  27.679   7.152  14.291
24209W        W92427   0.312  26.900  11.210
24210W        W92428  14.410  18.797   3.692
24211W        W92429  36.257  17.603   1.840
24212W        W92430  43.852  30.231  12.855
24213W        W92431  25.036  27.684   3.148
24214W        W92432  30.154  33.697   2.843
24215W        W92433  21.085  29.015  10.341
24216W        W92434  19.135  32.120   0.025
24217W        W92435  21.226   3.224   4.062
24218W        W92436  38.487  22.608   3.721
24219W        W92437  22.222   7.951   1.141
24220W        W92438  24.766  35.868   4.703
24221W        W92439  20.365  27.082  13.197
24222W        W92440   7.335   7.348  10.972
24223W        W92441   8.650  22.700   2.159
24224W        W92442   3.607   6.619  10.635
24225W        W92443  36.098  36.935  10.574
24226W        W92444  15.138  11.623   2.825
24227W        W92445  28.456  42.174   4.605
24228W        W92446  41.876  24.387   2.761
24229W        W92447   6.758   7.381   4.109
24230W        W92448  41.304  32.084   1.372
24231W        W92449  22.017  19.225  13.268
24232W        W92450  11.367  36.583  13.789
24233W        W92451  20.749  28.857  12.603
24234W        W92452  11.343  41.630  11.583
24235W        W92453  30.960   3.835   3.582
24236W        W92454  32.950   4.724   2.967
24237W        W92455  42.417   4.024  12.805
24238W        W92456  30.736  10.545  12.004
24239W        W92457  28.324  21.942  13.101
24240W        W92458   4.185   8.291   0.746
24241W        W92459  34.486  10.331   2.766
24242W        W92460  13.105  11.746   2.332
24243W        W92461  36.160   8.601   0.670
24244W        W92462   8.233  33.746   1.781
24245W        W92463  18.512  21.194  13.516
24246W        W92464  33.596   5.605   1.475
24247W        W92465  37.016  42.309  14.784
24248W        W92466  26.071   6.857   4.208
24249W        W92467   5.505  19.070  14.535
24250W        W92468  21.851  27.327  12.506
24251W        W92469  32.833  37.017  13.702
24252W        W92470   6.457  26.534  11.685
24253W        W92471  34.308  24.417   1.955
24254W        W92472   1.433  31.058   2.870
24255W        W92473  28.867  38.837   2.778
24256W        W92474   4.716  33.074  13.870
24257W        W92475   7.322  42.553   0.076
24258W        W92476   7.961  36.471  10.579
24259W        W92477  44.642  20.528  11.947
24260W        W92478  17.234  25.594  10.749
24261W        W92479  27.407  24.774   1.090
24262W        W92480  21.274  26.661  10.773
24263W        W92481  18.670   3.206   1.195
24264W        W92482  14.114  15.898  11.512
24265W        W92483  12.123  43.021   1.950
24266W        W92484  37.352  21.273   0.262
24267W        W92485  13.702  15.592  11.001
24268W        W92486  20.580  18.271  13.030
24269W        W92487  10.857  15.633  11.107
24270W        W92488   4.931  12.684  11.556
24271W        W92489  24.644  22.717  11.043
24272W        W92490  33.926  43.347   3.863
24273W        W92491  10.917  20.215  12.412
24274W        W92492  16.282  15.430  13.853
24275W        W92493   3.395  38.124  12.000
24276W        W92494  17.806  18.733  14.922
24277W        W92495   8.735  13.839  10.666
24278W        W92496  29.001  39.083   0.511
24279W        W92497   5.033  25.963  11.122
24280W        W92498   6.655   8.471  12.049
24281W        W92499  29.958   9.641  13.080
24282W        W92500  13.803  13.109   2.965
24283W        W92501  10.160  33.109   3.251
24284W        W92502   6.446  42.391   3.812
24285W        W92503  12.595   4.556  12.092
24286W        W92504  38.082  42.947  10.165
24287W        W92505  25.913  13.267  13.900
24288W        W92506  44.214  27.108   4.708
24289W        W92507  22.021  41.953  13.830
24290W        W92508  21.458  11.869   1.423
24291W        W92509  30.579  17.079   1.504
24292W        W92510  44.951  17.388  14.335
24293W        W92511   4.448  37.839   3.177
24294W        W92512  18.970  26.016  14.864
24295W        W92513  15.619  32.227   1.103
24296W        W92514  17.123  20.150   2.676
24297W        W92515  44.849  35.497   4.575
24298W        W92516  39.991  12.252   2.378
24299W        W92517  37.588  12.628   0.060
24300W        W92518  38.809  41.563   2.932
24301W        W92519  38.926   3.821  14.095
24302W        W92520  25.725  31.683  12.446
24303W        W92521  23.015  40.617  14.387
24304W        W92522  39.045  34.658  14.213
24305W        W92523  11.858  44.713   2.921
24306W        W92524  31.717  43.819   0.841
24307W        W92525  27.521  25.137  11.066
24308W        W92526  14.353  44.394  12.147
24309W        W92527  19.284  26.157  14.332
24310W        W92528   9.670  18.484  11.198
24311W        W92529  22.986  30.038   4.421
24312W        W92530  40.332  30.407   4.117
24313W        W92531  24.486  10.379  12.544
24314W        W92532  10.132   9.261   5.084
24315W        W92533  43.304  37.870  14.319
24316W        W92534  29.196   8.238  14.012
24317W        W92535   1.073  33.622   3.579
24318W        W92536  37.614   7.473   3.932
24319W        W92537   3.215  14.049  12.015
24320W        W92538  44.266  22.116   1.847
24321W        W92539  23.037  35.811   3.773
24322W        W92540   7.103  35.371  11.140
24323W        W92541  23.045  29.685  14.949
24324W        W92542  38.119  39.872  11.114
24325W        W92543  21.943  34.444  11.089
24326W        W92544  13.161  31.438   0.017
24327W        W92545   5.476  34.463  14.808
24328W        W92546   3.572  20.282  14.628
24329W        W92547  20.309  41.263   1.489
24330W        W92548  19.751  24.899   2.890
24331W        W92549  14.208   5.252   3.855
24332W        W92550  44.552  14.659   3.243
24333W        W92551   8.269   1.618  12.137
24334W        W92552  21.123  38.419  14.771
24335W        W92553  22.113  12.355   2.209
24336W        W92554  36.607   9.171  11.597
24337W        W92555   3.613  44.821  13.790
24338W        W92556   7.864   8.826   4.624
24339W        W92557  20.068   0.672  14.793
24340W        W92558   8.388   7.439   4.571
24341W        W92559  30.006  26.235  11.679
24342W        W92560  30.131   7.597   1.650
24343W        W92561  15.819  29.075   1.952
24344W        W92562  30.093  37.091  11.747
24345W        W92563  33.468  15.273  14.994
24346W        W92564  17.353   3.997  12.070
24347W        W92565  33.220  40.516  10.373
24348W        W92566  34.427   7.906  13.590
24349W        W92567  24.708  17.508  11.977
24350W        W92568  13.253   1.930  12.012
24351W        W92569  24.485  15.315   2.288
24352W        W92570  20.565  27.561   0.936
24353W        W92571  14.704  22.413  12.504
24354W        W92572  24.073   5.829  11.401
24355W        W92573  13.849  11.404   0.422
24356W        W92574  38.305  19.115   4.072
24357W        W92575  20.441  15.956   3.120
24358W        W92576  15.508  16.371  13.597
24359W        W92577  31.677   9.094   1.491
24360W        W92578  28.572  17.196   4.536
24361W        W92579  22.213  28.378   2.141
24362W        W92580  15.815   9.194   3.684
24363W        W92581   6.235  40.398  10.519
24364W        W92582   4.864  44.304  13.549
24365W        W92583  28.475  24.332  11.479
24366W        W92584  20.022  26.501  12.516
24367W        W92585  20.262   9.814   3.074
24368W        W92586  39.390  36.809   4.176
24369W        W92587  16.281  17.383   3.586
24370W        W92588  12.352  17.383   1.297
24371W        W92589  38.096   5.653   4.134
24372W        W92590  10.280  13.148  11.600
24373W        W92591   5.997  27.843  13.412
24374W        W92592  38.046  33.514   2.777
24375W        W92593  32.546  18.974   0.294
24376W        W92594  38.919  26.081  13.517
24377W        W92595  37.930   3.957  10.714
24378W        W92596  10.176  36.771  14.680
24379W        W92597   5.243  42.808   4.237
24380W        W92598  37.204  32.418   0.884
24381W        W92599  23.550  10.707   0.848
24382W        W92600  19.950  13.026   4.783
24383W        W92601  14.844  18.254  12.922
24384W        W92602   9.822  30.156  10.778
24385W        W92603   1.470  42.767   2.855
24386W        W92604  17.737  35.325   4.157
24387W        W92605  16.099  25.035  12.472
24388W        W92606  35.426   9.984   2.486
24389W        W92607   5.188  42.258  12.508
24390W        W92608  42.727  42.406   0.703
24391W        W92609  27.201   6.351  11.536
24392W        W92610  19.032  41.012   1.862
24393W        W92611   3.716  35.623   0.836
24394W        W92612  38.340   1.677   3.348
24395W        W92613  27.274  22.640  12.143
24396W        W92614  41.792  30.207  13.188
24397W        W92615   4.291   7.220   3.260
24398W        W92616   3.502  34.337  14.506
24399W        W92617  28.301  29.671   1.599
24400W        W92618  17.038  26.504  12.102
24401W        W92619  37.679  39.063  10.286
24402W        W92620  34.848  29.388  14.942
24403W        W92621  37.163  33.217  12.866
24404W        W92622  27.116   8.215   4.692
24405W        W92623  33.972  23.738  10.862
24406W        W92624   7.865  42.421  12.933
24407W        W92625  20.950  30.972   2.351
24408W        W92626  42.730  42.858  10.601
24409W        W92627  43.452  28.256   3.376
24410W        W92628   2.349   9.368  14.294
24411W        W92629  16.838  22.129   0.475
24412W        W92630   4.843  19.224   4.521
24413W        W92631  43.010   6.801   4.686
24414W        W92632  24.525   0.842   0.051
24415W        W92633  13.657  25.068  14.287
24416W        W92634  13.092   6.762   3.150
24417W        W92635  21.774   8.764  11.072
24418W        W92636  30.708  20.963  11.703
24419W        W92637  13.739  38.067   3.279
24420W        W92638   4.692  38.301   1.371
24421W        W92639  39.927  42.522   2.293
24422W        W92640  42.474  35.470  12.760
24423W        W92641  17.936   4.652   4.112
24424W        W92642  24.753  31.431   0.889
24425W        W92643  32.146   6.753  12.043
24426W        W92644   0.624   8.966  13.398
24427W        W92645  33.944   8.539   3.847
24428W        W92646  38.814   8.611  13.514
24429W        W92647  32.193  43.564   4.621
24430W        W92648  38.926  38.044  12.894
24431W        W92649   7.739   4.333   1.465
24432W        W92650  15.752  23.230  14.471
24433W        W92651  24.971  10.230  11.716
24434W        W92652  26.201  39.972  11.165
24435W        W92653   7.010  15.589  11.186
24436W        W92654   9.362  35.418  13.329
24437W        W92655  36.861  14.719  13.054
24438W        W92656  15.580  36.220   4.593
24439W        W92657  16.249  32.992  12.415
24440W        W92658   0.833  23.775  14.409
24441W        W92659   7.096  41.421  13.566
24442W        W92660   2.158  35.088   3.190
24443W        W92661  15.681  16.027  12.694
24444W        W92662   0.286   9.141   2.402
24445W        W92663   8.842  38.430  14.781
24446W        W92664  31.436  13.492  10.669
24447W        W92665  41.233  43.618   3.773
24448W        W92666  29.614  11.373  12.055
24449W        W92667  34.452  10.388  12.139
24450W        W92668  34.540   2.702   1.400
24451W        W92669  24.234   3.307  12.485
24452W        W92670  19.891   1.380  11.797
24453W        W92671  37.664   5.758  11.348
24454W        W92672  13.304  25.584  14.900
24455W        W92673  30.946   2.235  13.389
24456W        W92674  25.496   3.942  11.076
24457W        W92675  16.085  14.240  14.880
24458W        W92676   0.471  28.466   1.229
24459W        W92677  16.339  22.736   1.304
24460W        W92678  11.590  19.619  12.120
24461W        W92679   3.480  38.983   4.134
24462W        W92680  27.222  34.042  12.481
24463W        W92681  18.300  42.263  13.384
24464W        W92682  37.912  35.348   4.574
24465W        W92683   3.640  17.245  12.082
24466W        W92684   4.342  42.383  10.267
24467W        W92685   9.344  10.707   4.596
24468W        W92686  42.936  18.560   1.337
24469W        W92687  27.448  19.139  12.929
24470W        W92688   0.999  24.064   3.158
24471W        W92689  44.234  33.165  12.987
24472W        W92690  38.539   6.068  10.968
24473W        W92691  32.227  13.135  11.541
24474W        W92692  31.646   8.887   2.850
24475W        W92693  22.503  26.920   0.852
24476W        W92694  21.428   1.987   4.945
24477W        W92695   7.116  26.013   0.449
24478W        W92696  20.723  37.817   9.957
24479W        W92697   9.109  41.816  14.843
24480W        W92698   4.459  41.613   3.546
24481W        W92699  20.264  30.094  11.124
24482W        W92700  11.672  28.865   4.961
24483W        W92701  38.517  26.104   2.465
24484W        W92702  40.922  42.908   1.938
24485W        W92703  33.972   3.407  14.013
24486W        W92704  43.794  43.509   3.426
24487W        W92705  10.385   0.433   3.782
24488W        W92706  11.322   4.250  13.284
24489W        W92707  36.102  35.830  13.030
24490W        W92708  39.599   2.780   0.957
24491W        W92709  11.878   1.206  12.340
24492W        W92710   9.485   3.752  14.401
24493W        W92711   5.740   0.796  14.560
24494W        W92712  24.035  32.429  12.312
24495W        W92713  27.646  36.275  11.048
24496W        W92714   4.684  25.952   1.276
24497W        W92715  37.226   8.652  12.998
24498W        W92716  16.495  36.569   4.166
24499W        W92717  31.531   6.376  14.198
24500W        W92718  24.773  24.116  13.734
24501W        W92719  37.568  28.309  12.500
24502W        W92720  33.904  24.275   2.425
24503W        W92721  34.965  39.114   0.850
24504W        W92722   0.261  15.847  13.017
24505W        W92723  39.684   1.895  14.250
24506W        W92724  34.360  36.600   0.307
24507W        W92725   7.148   6.884  11.578
24508W        W92726  38.880  24.982   3.719
24509W        W92727   4.744   9.640  14.299
24510W        W92728  39.227  39.489   4.783
24511W        W92729  11.639  34.460   0.636
24512W        W92730  28.616  38.617   1.053
24513W        W92731  20.229   5.868   0.057
24514W        W92732  27.049  38.018   0.398
24515W        W92733  18.096  27.054  13.787
24516W        W92734  38.837   4.748   5.076
24517W        W92735  26.998   7.616   3.821
24518W        W92736   1.096  31.968  11.962
24519W        W92737  12.751   4.695   0.102
24520W        W92738  25.558  42.859   1.078
24521W        W92739   9.228  37.308  14.710
24522W        W92740  20.314  22.825   1.388
24523W        W92741  27.854   4.462   4.210
24524W        W92742  36.618  10.128   1.215
24525W        W92743  24.726  42.063  13.035
24526W        W92744  12.705  19.886  12.965
24527W        W92745   7.035  26.223  11.123
24528W        W92746   4.698  38.825  13.779
24529W        W92747  16.331  32.720  10.595
24530W        W92748  10.201  27.727   3.234
24531W        W92749  19.085  33.024   0.288
24532W        W92750  19.668  21.733   0.998
24533W        W92751  16.132   4.260   0.932
24534W        W92752   8.338  32.803  13.052
24535W        W92753  36.147   3.914  11.894
24536W        W92754   0.536  25.568  14.989
24537W        W92755  24.922  22.213   1.159
24538W        W92756  24.174  12.030  13.563
24539W        W92757  37.406  32.773  11.679
24540W        W92758  19.155  29.855   0.863
24541W        W92759  11.702   1.818  11.499
24542W        W92760  17.744  34.331  12.962
24543W        W92761  13.869  10.206   3.738
24544W        W92762   1.986   6.300   1.391
24545W        W92763   2.428  23.244   3.318
24546W        W92764  15.682  17.872   0.893
24547W        W92765   2.033  26.002   2.158
24548W        W92766   5.609  12.077  11.965
24549W        W92767  29.158   9.696   2.377
24550W        W92768  16.600   1.246  13.519
24551W        W92769   1.187  39.735  11.987
24552W        W92770  35.010  19.003   4.136
24553W        W92771  42.725  29.935   4.191
24554W        W92772   8.368  15.380   1.328
24555W        W92773   9.856  39.832   4.590
24556W        W92774   1.478  38.845  12.831
24557W        W92775  38.889  25.101  13.541
24558W        W92776   8.955  10.717   4.953
24559W        W92777  12.324  32.642  13.346
24560W        W92778  23.534   4.860  14.515
24561W        W92779  16.216  21.931   4.783
24562W        W92780  28.992  38.392   1.795
24563W        W92781  15.532  27.072  13.827
24564W        W92782   3.841   4.515   3.849
24565W        W92783  32.561   3.363   3.205
24566W        W92784   4.180  22.553  13.343
24567W        W92785  36.083  34.380  13.997
24568W        W92786  23.517  15.546  10.780
24569W        W92787  11.112  13.771   4.738
24570W        W92788  38.344  22.946   1.381
24571W        W92789  36.094   7.309   0.040
24572W        W92790  28.637  17.302  11.048
24573W        W92791  13.869  27.916  14.874
24574W        W92792  12.288   0.061  13.474
24575W        W92793  22.039  19.653   1.236
24576W        W92794  17.032  41.915   4.768
24577W        W92795  33.861  12.322  13.294
24578W        W92796  21.311  11.191   4.412
24579W        W92797  20.353   4.403  13.981
24580W        W92798  31.451  30.942  13.398
24581W        W92799   6.095  43.336  12.854
24582W        W92800  10.282  18.525   1.306
24583W        W92801   4.514  35.948  13.571
24584W        W92802  38.697  34.044  10.419
24585W        W92803  28.594  38.413   2.805
24586W        W92804  24.221   9.368  14.646
24587W        W92805   4.669  36.488   2.796
24588W        W92806   0.076  41.045  12.105
24589W        W92807  23.691  13.850   2.809
24590W        W92808  25.049  40.634  11.110
24591W        W92809  31.978   7.457   0.889
24592W        W92810   8.636   3.289   1.967
24593W        W92811   8.274  29.569  14.034
24594W        W92812  36.322  30.911   2.328
24595W        W92813   5.950  28.515   0.565
24596W        W92814  15.166  18.192   1.901
24597W        W92815  21.756  38.506  13.086
24598W        W92816  25.689  37.814  14.947
24599W        W92817  23.069  36.047   1.925
24600W        W92818  29.208  42.234   2.388
24601W        W92819  32.368  34.080  13.933
24602W        W92820  31.133  14.808  11.893
24603W        W92821  17.215  41.843   3.438
24604W        W92822  38.820  19.163  13.448
24605W        W92823   4.200  42.382  11.120
24606W        W92824  33.490  43.681  11.141
24607W        W92825   3.885  29.694   2.637
24608W        W92826  20.146  29.839  10.682
24609W        W92827  21.468   8.046   1.191
24610W        W92828   7.661  37.884   4.442
24611W        W92829  24.505   0.547   0.803
24612W        W92830  21.875  27.805   2.740
24613W        W92831   3.767  24.969  12.912
24614W        W92832   0.007  43.312   4.942
24615W        W92833  42.544  44.940  13.555
24616W        W92834  30.572  35.834  14.727
24617W        W92835   5.474  41.768  14.384
24618W        W92836  34.359  24.578  12.973
24619W        W92837  31.114  40.303   3.047
24620W        W92838  21.161  27.208  14.361
24621W        W92839   5.241  12.637   4.516
24622W        W92840  21.588  14.399  11.931
24623W        W92841  19.725  40.903  13.358
24624W        W92842  42.570  22.130  13.066
24625W        W92843  26.884  44.900   2.835
24626W        W92844  16.801   0.351  11.392
24627W        W92845  44.994  24.254   0.814
24628W        W92846  24.101   6.972   3.064
24629W        W92847  13.174  25.429   1.665
24630W        W92848  16.270  18.805  14.882
24631W        W92849   5.684  39.921   2.741
24632W        W92850   5.421  25.655   3.827
24633W        W92851   9.108  39.563   0.272
24634W        W92852  12.171  25.110   1.821
24635W        W92853  36.503   3.354  13.517
24636W        W92854   0.451  28.973  13.743
24637W        W92855  11.028  14.544   1.433
24638W        W92856  17.662  14.787   3.666
24639W        W92857  19.437  24.986   2.450
24640W        W92858   2.220  34.174  13.061
24641W        W92859  25.196  12.675  13.058
24642W        W92860  37.485   4.690   4.535
24643W        W92861   3.960  41.423   9.609
24644W        W92862  19.495  24.574   1.355
24645W        W92863  42.826   1.585  12.226
24646W        W92864  13.872  44.083  12.074
24647W        W92865  10.981  30.242   1.413
24648W        W92866  32.381  36.390  13.490
24649W        W92867  40.165  20.108   3.638
24650W        W92868  33.600  41.741  13.485
24651W        W92869  37.488  33.022   2.297
24652W        W92870  19.769  19.208   2.245
24653W        W92871  16.162  14.179  12.145
24654W        W92872  17.964  38.526  11.597
24655W        W92873  20.128  14.249   2.168
24656W        W92874  35.838  28.780   4.256
24657W        W92875   5.655  23.809   1.329
24658W        W92876   6.684  42.102   3.250
24659W        W92877   0.747  40.346   4.119
24660W        W92878  30.540  14.938   5.097
24661W        W92879  42.757  44.587  10.717
24662W        W92880  28.842  35.267  11.160
24663W        W92881  16.375   0.544   4.291
24664W        W92882   3.475  10.350   0.951
24665W        W92883  14.564  13.737  10.640
24666W        W92884   2.312   2.381   0.355
24667W        W92885  25.152  40.004  11.206
24668W        W92886  18.271  32.622   1.358
24669W        W92887   5.875  39.938   2.261
24670W        W92888  17.139  44.376   5.028
24671W        W92889  14.045  33.064   2.334
24672W        W92890   5.105  29.051   0.489
24673W        W92891  16.820  29.037   4.159
24674W        W92892  12.563  12.397  11.829
24675W        W92893  29.992  14.630   0.449
24676W        W92894  32.133   9.168  14.698
24677W        W92895   6.158  43.509   4.502
24678W        W92896  16.843   9.549  11.619
24679W        W92897   9.353  10.411   5.029
24680W        W92898   0.861  20.460   3.131
24681W        W92899  12.272  19.592  12.961
24682W        W92900  24.591  13.794   1.320
24683W        W92901   3.454  19.000   2.774
24684W        W92902   6.113  29.945   1.485
24685W        W92903  22.907   2.005   5.320
24686W        W92904  35.064  29.454   3.616
24687W        W92905  23.145  12.872   1.257
24688W        W92906  20.249  18.686   0.028
24689W        W92907  36.469  30.003   0.491
24690W        W92908  12.814   2.194   0.467
24691W        W92909  31.054  38.000  12.287
24692W        W92910  30.073  17.546   2.114
24693W        W92911  36.975  20.647  13.952
24694W        W92912   9.254  36.309  14.940
24695W        W92913  28.602  15.789   0.003
24696W        W92914   5.644  13.617  10.586
24697W        W92915  28.841  35.322   1.223
24698W        W92916  28.172   7.564   3.791
24699W        W92917  16.053  37.881  12.117
24700W        W92918  10.161  26.225   0.364
24701W        W92919  39.267  23.992   3.644
24702W        W92920  27.657  12.787   3.117
24703W        W92921   0.348   1.900   4.415
24704W        W92922  24.397   7.219  13.856
24705W        W92923  26.756  18.802  11.559
24706W        W92924  28.821   6.275  10.067
24707W        W92925  30.058  36.909  12.233
24708W        W92926  30.099  30.847   1.931
24709W        W92927   5.021  43.585  11.092
24710W        W92928  36.336  28.686   9.706
24711W        W92929  36.135   6.298   3.283
24712W        W92930  37.025  34.930  10.586
24713W        W92931  15.687  39.355  14.861
24714W        W92932  33.816  11.547  11.676
24715W        W92933  17.341  40.113  10.553
24716W        W92934   4.185  12.606  13.912
24717W        W92935  12.606  22.734  12.824
24718W        W92936  41.539  14.312   0.836
24719W        W92937  11.352  11.748   1.812
24720W        W92938  33.623   2.436  13.434
24721W        W92939  37.420   0.218  11.322
24722W        W92940  36.610  44.794  13.925
24723W        W92941  23.151  16.391  14.273
24724W        W92942  39.764  22.973  13.941
24725W        W92943  21.111  27.225   2.816
24726W        W92944   1.222  29.482  13.401
24727W        W92945  29.633   4.957   1.358
24728W        W92946  34.491  40.533   1.942
24729W        W92947  13.092  23.631  14.489
24730W        W92948  28.696  31.384   0.438
24731W        W92949   4.135  15.966   0.170
24732W        W92950   1.712  18.267  11.078
24733W        W92951  32.154  24.280  12.867
24734W        W92952   4.993  30.413  10.585
24735W        W92953  44.199   3.261  13.086
24736W        W92954  37.269  37.760   0.960
24737W        W92955  29.098  24.191  13.958
24738W        W92956  27.123   9.352  14.912
24739W        W92957   1.253  18.750   4.749
24740W        W92958  19.693  31.311   4.320
24741W        W92959  33.556   3.263  12.872
24742W        W92960  10.511  33.390   5.482
24743W        W92961  39.730   1.672  10.708
24744W        W92962  33.302   2.019  11.662
24745W        W92963  17.838  12.887  14.625
24746W        W92964   2.283  40.121   1.760
24747W        W92965  23.128  39.580  14.468
24748W        W92966   8.144  44.485   2.917
24749W        W92967  43.584  36.621   4.806
24750W        W92968  23.719  31.923   1.861
24751W        W92969   9.905  21.752  13.475
24752W        W92970  35.015  26.680   2.117
24753W        W92971  18.734  39.547   4.762
24754W        W92972  14.687  34.732   2.246
24755W        W92973   2.318  34.382   4.363
24756W        W92974  32.453  37.726  12.553
24757W        W92975  11.297   8.689   4.684
24758W        W92976  26.168  44.897  14.988
24759W        W92977   3.809   8.585   3.756
24760W        W92978  43.412  29.956  12.621
24761W        W92979  10.663  33.364  11.020
24762W        W92980  22.779  21.541  10.991
24763W        W92981   9.729  12.357  10.596
24764W        W92982  25.694  38.327  13.491
24765W        W92983  38.913  14.874   2.758
24766W        W92984  38.096  36.104   3.451
24767W        W92985  11.989  23.509   1.252
24768W        W92986  42.876  35.860  14.644
24769W        W92987  40.869  27.611   2.896
24770W        W92988   4.588  25.657  14.282
24771W        W92989  26.473   7.211  11.494
24772W        W92990   6.416  33.426  13.892
24773W        W92991   4.207   9.556  11.617
24774W        W92992  16.052  18.660  13.353
24775W        W92993  10.085  20.825   1.852
24776W        W92994  27.868  17.349   4.474
24777W        W92995  32.786   0.829   1.657
24778W        W92996   4.910  25.560  10.743
24779W        W92997  20.105  26.174  10.473
24780W        W92998   9.893  30.037   3.406
24781W        W92999  44.623  35.390   5.056
24782W        W93000  31.958  44.932   1.183
24783W        W93001  28.417  39.061   1.922
24784W        W93002  43.591  24.787  13.834
24785W        W93003  30.391  17.738   1.217
24786W        W93004  41.001   3.438  13.549
24787W        W93005  39.582   4.173  12.561
24788W        W93006   5.480  35.801   0.306
24789W        W93007  29.127   0.327  12.961
24790W        W93008  24.348  29.985  14.726
24791W        W93009   2.015  21.967  10.766
24792W        W93010  23.658  39.745   4.524
24793W        W93011  26.582   0.282   2.606
24794W        W93012  29.621  21.730  12.871
24795W        W93013   8.801  27.638   0.912
24796W        W93014  33.035   8.357  13.884
24797W        W93015  29.644  14.772  13.943
24798W        W93016   9.835  10.276   2.595
24799W        W93017  22.687  20.108  10.696
24800W        W93018  17.156  11.803  14.596
24801W        W93019  15.830  39.733   0.205
24802W        W93020  38.012   9.912  11.922
24803W        W93021  15.855  31.801  10.970
24804W        W93022  39.305  42.211  10.601
24805W        W93023  28.137   7.144   0.770
24806W        W93024  38.649  32.934  12.361
24807W        W93025  26.095  17.693  13.373
24808W        W93026  13.644  25.109  11.180
24809W        W93027  39.751  42.183  13.451
24810W        W93028   9.276  11.159   4.841
24811W        W93029  32.671   0.499   4.773
24812W        W93030  39.078   2.761  13.908
24813W        W93031   2.930   0.537  11.017
24814W        W93032  10.059   9.854   3.935
24815W        W93033  15.133  27.985   3.590
24816W        W93034  33.077  19.082  14.938
24817W        W93035  34.122   1.868  14.951
24818W        W93036  33.976  39.333  14.471
24819W        W93037  29.384  28.408   0.601
24820W        W93038  37.886  28.861  13.035
24821W        W93039  28.264  38.082  13.343
24822W        W93040  32.491  27.979  11.974
24823W        W93041  25.048   7.362  12.397
24824W        W93042  12.581  17.721   2.404
24825W        W93043  37.545  15.211   3.393
24826W        W93044  28.476  30.528   5.036
24827W        W93045  33.441  31.564   4.549
24828W        W93046  11.833  25.205  12.483
24829W        W93047  18.173   3.800   2.864
24830W        W93048  20.887   4.008  11.374
24831W        W93049  25.468  40.827  12.914
24832W        W93050  11.314  11.900   3.226
24833W        W93051  42.900   1.024  13.142
24834W        W93052   1.842   8.425  11.232
24835W        W93053   5.583  18.924   1.099
24836W        W93054  36.255   2.141   3.199
24837W        W93055  37.191  43.901   1.956
24838W        W93056  37.459   2.259  14.023
24839W        W93057  20.332  42.684   4.989
24840W        W93058  11.978   5.287  10.738
24841W        W93059   1.728  33.158  14.992
24842W        W93060  27.327  15.642  12.508
24843W        W93061  17.105   8.386   0.785
24844W        W93062  42.877  11.938   4.168
24845W        W93063  39.405  23.493  12.359
24846W        W93064   5.244  24.273   0.071
24847W        W93065  34.086  36.321   4.761
24848W        W93066  23.414  31.298  11.994
24849W        W93067  27.962  40.855  13.178
24850W        W93068  28.129  20.690  10.264
24851W        W93069   1.871  14.237   1.764
24852W        W93070  16.842  15.852   0.723
24853W        W93071   6.139  26.562  10.669
24854W        W93072   3.370  33.188   3.075
24855W        W93073  32.597  27.578  11.637
24856W        W93074   1.480  40.019   4.140
24857W        W93075  40.538  23.562   0.383
24858W        W93076  12.171   2.334   1.013
24859W        W93077  21.956  23.538   3.648
24860W        W93078  44.418  40.453   2.312
24861W        W93079  11.796   8.692   0.965
24862W        W93080  11.142   4.787   0.440
24863W        W93081  32.159  31.893  11.442
24864W        W93082  30.414  31.569   4.143
24865W        W93083  23.989   0.465   1.690
24866W        W93084  24.019   4.286  14.835
24867W        W93085  17.176   3.933  11.586
24868W        W93086  10.601  12.893   3.662
24869W        W93087  25.505  38.078  12.549
24870W        W93088  21.592   0.517   3.977
24871W        W93089  31.507   6.734  10.573
24872W        W93090  36.035  16.120   4.140
24873W        W93091  40.983  40.829  12.123
24874W        W93092   6.296  31.988   0.313
24875W        W93093  33.134   1.410  14.907
24876W        W93094  42.782  43.719   2.285
24877W        W93095  10.222  26.277   2.280
24878W        W93096   8.838  36.969  14.554
24879W        W93097  28.496  18.692  12.163
24880W        W93098   0.486  17.643   0.329
24881W        W93099  26.122  39.717  11.679
24882W        W93100  42.443  10.113   1.860
24883W        W93101  16.376   9.849  12.464
24884W        W93102  34.161  40.890  12.034
24885W        W93103  10.689   1.098  12.400
24886W        W93104  41.531   0.225   0.437
24887W        W93105  17.968   5.752  11.859
24888W        W93106   8.204  15.939   3.191
24889W        W93107  35.053  34.519   3.825
24890W        W93108  21.541  24.665   1.202
24891W        W93109  34.358  41.468  14.585
24892W        W93110   8.170  39.997  14.915
24893W        W93111  26.514  13.266  10.646
24894W        W93112  23.695  31.905   1.092
24895W        W93113   9.408  28.156   0.021
24896W        W93114  16.027  18.666  11.491
24897W        W93115  23.732  10.647   3.654
24898W        W93116   8.667  37.528   3.287
24899W        W93117  11.135  41.071  14.522
24900W        W93118  35.800  33.964  11.294
24901W        W93119  26.537   1.098   0.012
24902W        W93120  25.672  10.327  13.963
24903W        W93121   9.669  26.570  10.752
24904W        W93122  31.038  25.158   0.981
24905W        W93123  37.337  43.040  11.157
24906W        W93124  19.018  22.261   3.302
24907W        W93125   2.729   0.348   4.673
24908W        W93126   8.765   6.793  12.860
24909W        W93127  20.281  22.531   4.284
24910W        W93128  28.093   4.375  14.899
24911W        W93129  25.639  11.157   1.892
24912W        W93130  44.950   3.854   1.770
24913W        W93131  41.031  41.243  13.450
24914W        W93132  11.823  30.060   1.717
24915W        W93133   1.010  44.255   1.644
24916W        W93134  22.496  43.102  11.498
24917W        W93135  32.930  23.768  14.936
24918W        W93136   6.426   4.835  12.861
24919W        W93137  27.081  33.099   1.653
24920W        W93138  35.961  29.867  13.433
24921W        W93139  11.628  27.501  14.379
24922W        W93140  29.900  16.704   1.774
24923W        W93141  23.676  36.273  12.942
24924W        W93142  18.244  10.281  13.897
24925W        W93143  41.350  38.611  11.628
24926W        W93144  28.248  37.472  10.947
24927W        W93145   5.141  37.189  11.600
24928W        W93146  22.919  41.950  12.361
24929W        W93147   6.859  27.567  13.586
24930W        W93148  41.378  27.119  12.066
24931W        W93149  38.212  35.470  11.966
24932W        W93150  14.300   9.587  14.383
24933W        W93151  35.078  36.083   0.846
24934W        W93152   8.815  22.510  11.105
24935W        W93153   7.321  14.068  10.268
24936W        W93154  16.070   1.461   2.299
24937W        W93155   6.755  37.560  10.747
24938W        W93156   5.895  24.380  11.326
24939W        W93157  13.863  23.457   3.830
24940W        W93158  28.610   4.079   5.424
24941W        W93159  40.897   9.493   3.594
24942W        W93160  28.148  12.273   0.504
24943W        W93161  33.929  33.505   1.435
24944W        W93162  27.562  12.121  10.851
24945W        W93163  41.934  18.076  11.854
24946W        W93164  44.375  37.088   0.772
24947W        W93165  16.364  18.696  11.984
24948W        W93166  39.892   7.488   0.275
24949W        W93167  12.330  41.302   2.824
24950W        W93168  38.344  19.043  14.796
24951W        W93169   2.748  14.296   0.919
24952W        W93170   1.724  17.241  10.710
24953W        W93171  36.037  39.386   1.618
24954W        W93172  24.146  12.693   4.593
24955W        W93173  44.056   0.542  12.069
24956W        W93174  37.573  38.364   3.118
24957W        W93175  13.397  19.201   3.799
24958W        W93176   5.016  32.358   1.522
24959W        W93177  31.981  27.941  14.990
24960W        W93178  27.321   4.320   1.392
24961W        W93179  30.713  16.171   1.482
24962W        W93180   1.867  14.866  13.523
24963W        W93181  27.590  18.529  10.439
24964W        W93182  40.285  11.685  13.337
24965W        W93183  13.139  31.719   1.488
24966W        W93184  21.535   8.321  11.190
24967W        W93185  27.955  16.106   1.757
24968W        W93186  16.196  28.338   0.840
24969W        W93187  34.328  11.815   1.765
24970W        W93188   2.671  19.574   4.736
24971W        W93189  16.301  14.726  12.693
24972W        W93190  20.454  34.584   0.964
24973W        W93191  18.630  44.251  13.749
24974W        W93192  36.445  24.781   4.140
24975W        W93193  21.170  28.677   3.953
24976W        W93194  36.863  33.151   1.575
24977W        W93195   2.874  27.039  10.604
24978W        W93196   7.457  15.272   2.422
24979W        W93197  22.291  28.495   1.237
24980W        W93198  41.422  15.616   4.609
24981W        W93199  37.447   8.077  14.495
24982W        W93200   4.626  10.149   2.272
24983W        W93201  27.171  30.547   4.527
24984W        W93202  14.669  40.427  11.399
24985W        W93203  13.679  43.221  14.356
24986W        W93204  13.848  30.970  11.107
24987W        W93205   2.799  29.190   4.935
24988W        W93206  15.539  37.988   2.747
24989W        W93207  22.070  36.444   2.935
24990W        W93208   8.297   6.942  12.633
24991W        W93209  10.220   6.449   2.659
24992W        W93210  39.947  27.074  10.741
24993W        W93211  43.425  19.330   1.267
24994W        W93212  36.592  12.038  13.805
24995W        W93213  23.644  15.079  12.123
24996W        W93214  23.103  28.598  13.911
24997W        W93215  41.754  28.723  11.550
24998W        W93216   8.787  32.766  13.769
24999W        W93217  37.823   5.418   4.562
25000W        W93218  43.025  13.357  12.426
25001W        W93219  29.143   1.612  14.377
25002W        W93220   0.435  32.594   1.450
25003W        W93221  20.032  43.468   2.824
25004W        W93222  10.871  13.602   0.327
25005W        W93223  23.698  31.376  14.799
25006W        W93224  13.336  35.742   2.363
25007W        W93225  29.241  16.358  11.132
25008W        W93226  26.902  10.151   3.610
25009W        W93227  27.883  17.661  11.507
25010W        W93228  27.183  19.004  11.127
25011W        W93229  10.335  40.496   2.944
25012W        W93230  37.427   4.265  14.888
25013W        W93231  16.680  20.645   2.364
25014W        W93232   4.490  41.944   1.533
25015W        W93233  16.007   3.416  12.133
25016W        W93234  25.507  29.059  13.036
25017W        W93235  43.788  16.071  11.130
25018W        W93236  37.862  14.154   2.180
25019W        W93237  28.118  38.981   2.335
25020W        W93238   3.867  41.076   9.990
25021W        W93239  31.193  38.595   0.009
25022W        W93240   8.635   9.607   3.434
25023W        W93241   5.914  14.324   3.858
25024W        W93242  13.380   6.203  14.825
25025W        W93243  12.687  17.117   4.235
25026W        W93244   6.706  39.993   1.802
25027W        W93245  15.591   7.671   0.288
25028W        W93246  14.329  27.154   0.087
25029W        W93247   9.141  39.037  10.542
25030W        W93248  40.297  21.440   4.486
25031W        W93249   6.584  30.538   2.598
25032W        W93250  35.883  13.906  12.524
25033W        W93251  33.127  28.336   3.189
25034W        W93252  10.357  40.345   0.200
25035W        W93253  33.503  25.609  12.196
25036W        W93254  36.192  33.665  11.089
25037W        W93255  25.454   2.567   2.350
25038W        W93256   7.279  33.340   1.902
25039W        W93257   4.378   5.163  10.733
25040W        W93258  11.139  39.953  13.117
25041W        W93259  30.229  35.791   4.182
25042W        W93260  42.887  27.146   3.697
25043W        W93261  28.664  25.194  10.250
25044W        W93262  22.715  23.329   1.779
25045W        W93263  16.618  32.856  11.130
25046W        W93264  40.419  28.064   4.966
25047W        W93265  14.659  38.022   2.738
25048W        W93266  32.998  32.718  14.468
25049W        W93267  23.101  43.970  12.531
25050W        W93268  29.425  20.233  12.969
25051W        W93269  18.250   0.862   3.281
25052W        W93270  17.239  15.600  11.792
25053W        W93271  43.220  12.672   0.163
25054W        W93272  17.979  27.519   2.919
25055W        W93273  37.288  19.451  11.839
25056W        W93274  18.782   9.335  13.862
25057W        W93275   4.239  39.934  13.583
25058W        W93276  32.082  14.111   1.405
25059W        W93277  34.046  23.807   1.201
25060W        W93278  30.856  22.108  13.810
25061W        W93279  16.631   0.468  11.872
25062W        W93280  24.188   4.742  12.156
25063W        W93281  40.329  37.009   2.273
25064W        W93282  12.092   6.114   4.042
25065W        W93283  30.967  20.520   4.681
25066W        W93284   1.062  35.835  11.207
25067W        W93285  19.728  26.880   0.880
25068W        W93286  29.891  36.982   4.799
25069W        W93287  42.968  36.767  12.011
25070W        W93288  10.434  18.694   1.758
25071W        W93289   0.580   9.716  11.164
25072W        W93290   0.091   7.478  13.796
25073W        W93291  16.256  20.244   2.940
25074W        W93292  28.605   4.672   2.329
25075W        W93293  26.902  11.611   2.741
25076W        W93294  27.623  26.767   4.111
25077W        W93295  31.151  40.972  12.080
25078W        W93296  31.344  27.143   2.024
25079W        W93297  44.552  36.090  12.034
25080W        W93298  38.807   2.804  11.652
25081W        W93299  34.529  33.824  14.836
25082W        W93300  32.143  38.748   0.199
25083W        W93301  28.430   3.240  12.402
25084W        W93302   7.896  28.636  12.048
25085W        W93303   9.235  38.349  12.534
25086W        W93304   8.043   9.585   0.807
25087W        W93305  34.771  43.351   5.018
25088W        W93306  38.322  31.527  11.151
25089W        W93307  20.546   5.582  12.243
25090W        W93308   7.100  18.249   4.593
25091W        W93309   6.819  23.552  11.675
25092W        W93310   0.868  26.365  11.638
25093W        W93311  27.833   1.364  13.097
25094W        W93312  38.707  28.920   3.139
25095W        W93313   9.945  13.188  14.389
25096W        W93314   3.124  44.025  13.492
25097W        W93315  25.026   4.412   4.602
25098W        W93316   3.875   0.286  13.892
25099W        W93317   0.255  22.537   2.638
25100W        W93318  42.918  15.488  11.130
25101W        W93319  35.962   2.397   0.178
25102W        W93320  28.151   9.817  12.012
25103W        W93321  30.673  21.045   0.773
25104W        W93322  20.572  24.237  12.050
25105W        W93323  26.189  21.037   0.717
25106W        W93324  29.562  16.248   2.138
25107W        W93325  23.245  18.603   2.795
25108W        W93326  38.864  33.138  11.904
25109W        W93327  18.147   5.286   2.859
25110W        W93328  17.076  41.688  12.592
25111W        W93329  37.633  16.407  10.545
25112W        W93330  32.579  27.779   3.939
25113W        W93331  33.564   1.773   1.628
25114W        W93332  10.342  24.896   1.966
25115W        W93333   2.299  36.940  11.980
25116W        W93334  14.915  34.928   0.227
25117W        W93335   2.645  26.599   4.626
25118W        W93336   3.747  41.369  10.954
25119W        W93337  27.705  33.970  12.208
25120W        W93338  24.189   0.773   2.378
25121W        W93339  13.082   8.177   0.718
25122W        W93340  11.485   3.275   5.206
25123W        W93341  34.583   6.785   4.093
25124W        W93342  22.132  20.510  13.695
25125W        W93343   3.841  12.264   3.675
25126W        W93344  12.367   8.644   0.489
25127W        W93345  19.895   2.996  10.701
25128W        W93346  40.390  43.012   9.668
25129W        W93347   5.411   4.747  13.305
25130W        W93348  16.957   5.463  13.537
25131W        W93349  27.245  18.518  14.305
25132W        W93350  18.278  15.495   1.770
25133W        W93351  32.018  14.643   3.229
25134W        W93352  28.521  32.342   2.078
25135W        W93353  40.207  19.290  11.040
25136W        W93354   8.578  17.616   2.618
25137W        W93355   3.947   9.729   2.691
25138W        W93356  32.438  13.679  12.757
25139W        W93357  33.899   4.941   1.330
25140W        W93358  40.462  12.657  10.734
25141W        W93359  25.556  30.503   0.006
25142W        W93360   8.655  43.927   3.911
25143W        W93361  11.128   7.681  14.592
25144W        W93362  33.852  35.922  12.167
25145W        W93363  39.567   7.427   4.694
25146W        W93364   3.381  24.519  13.830
25147W        W93365  35.537  36.093  12.431
25148W        W93366   7.277  18.060   1.799
25149W        W93367   3.694  17.619  10.588
25150W        W93368  10.489  32.291   0.403
25151W        W93369  23.498  35.514   0.439
25152W        W93370  44.972  10.979   0.246
25153W        W93371  14.615  42.958   4.134
25154W        W93372  16.533  42.032   4.701
25155W        W93373  32.027  25.661  14.895
25156W        W93374   1.337  23.276  14.964
25157W        W93375  29.115   9.442   2.879
25158W        W93376  31.809  30.596   3.824
25159W        W93377  36.150   5.791  13.858
25160W        W93378   6.185   0.515   1.333
25161W        W93379  32.459  43.247   0.730
25162W        W93380   0.385  11.268   3.227
25163W        W93381  15.419  34.888   0.133
25164W        W93382  30.390  13.512  14.525
25165W        W93383   4.329  38.098   1.014
25166W        W93384  20.342  29.428   3.676
25167W        W93385  11.667  21.483  10.525
25168W        W93386  28.831  35.050  10.240
25169W        W93387   5.059   0.489   3.649
25170W        W93388  34.367  44.556  10.768
25171W        W93389  15.285  10.349  12.041
25172W        W93390  42.696   6.277   4.101
25173W        W93391  15.568  39.398   4.215
25174W        W93392  35.941   2.233  12.745
25175W        W93393  25.467  38.188  11.271
25176W        W93394  43.427  31.074   1.762
25177W        W93395  32.031  32.032   1.202
25178W        W93396  33.561  33.716  10.868
25179W        W93397  28.358  36.913  11.719
25180W        W93398  16.620   7.306  12.008
25181W        W93399  20.444  33.450   1.285
25182W        W93400  41.154   1.373  14.694
25183W        W93401  27.697  30.130   2.392
25184W        W93402   8.798   8.106   1.789
25185W        W93403  35.660  24.975   3.624
25186W        W93404   2.990   1.963  14.829
25187W        W93405  26.602  38.973   3.246
25188W        W93406   9.734   5.195  14.436
25189W        W93407  35.805  13.232   1.709
25190W        W93408   0.283  10.633  12.201
25191W        W93409   3.879  11.173   1.400
25192W        W93410   6.894  13.841   2.806
25193W        W93411   2.389  33.271  13.509
25194W        W93412  35.006  38.274   4.383
25195W        W93413  33.273  20.624   4.439
25196W        W93414  35.586  29.980  11.155
25197W        W93415   3.912   1.715  12.379
25198W        W93416  21.132  15.542  13.911
25199W        W93417  30.177   8.921   3.570
25200W        W93418  30.385  17.678   5.367
25201W        W93419   5.427  10.791  14.310
25202W        W93420  43.534  31.963   1.853
25203W        W93421  40.052  44.723   0.352
25204W        W93422  18.174  38.409  13.566
25205W        W93423  23.871  31.400  12.873
25206W        W93424  44.601  30.666   3.734
25207W        W93425   5.867   5.755   3.680
25208W        W93426  12.230  13.115  13.319
25209W        W93427  21.818  24.599  13.258
25210W        W93428  34.894  41.540   3.674
25211W        W93429  13.594  29.561  10.991
25212W        W93430   3.191   7.427  13.086
25213W        W93431  11.204  15.481   4.347
25214W        W93432   5.150  36.149   3.585
25215W        W93433  39.755   0.835  13.795
25216W        W93434  26.051  39.491  12.164
25217W        W93435  25.717   1.203   2.745
25218W        W93436  17.077  41.694   1.343
25219W        W93437  37.063   2.864   3.342
25220W        W93438  19.750  37.996   0.985
25221W        W93439  23.675  31.984   3.835
25222W        W93440  28.142  39.547   1.247
25223W        W93441  21.777  26.950   0.512
25224W        W93442  11.067  20.635   4.709
25225W        W93443  42.793  25.677   1.799
25226W        W93444  20.320  16.568   3.286
25227W        W93445   7.600   1.802   1.228
25228W        W93446  14.202   0.390  13.156
25229W        W93447  21.715  38.205  10.648
25230W        W93448   0.820  23.437  14.000
25231W        W93449   5.908   5.443  14.977
25232W        W93450  14.512  26.569  14.422
25233W        W93451  34.835  23.507  14.800
25234W        W93452  38.926   3.139   1.234
25235W        W93453  39.494  36.516  14.368
25236W        W93454   8.686  14.226   4.516
25237W        W93455  37.723   2.733  14.793
25238W        W93456  15.806  42.054   1.333
25239W        W93457  39.327  11.447  13.347
25240W        W93458   1.969   2.889   3.226
25241W        W93459  32.379  26.038  10.549
25242W        W93460  23.924  38.319  13.890
25243W        W93461  13.785   9.894   4.191
25244W        W93462  14.395   6.507  12.588
25245W        W93463  11.830  13.544   0.339
25246W        W93464   7.497  19.103  13.517
25247W        W93465  18.642  32.500  11.535
25248W        W93466  14.550  11.553  12.632
25249W        W93467   1.078  35.565   2.400
25250W        W93468  28.901  19.979   3.287
25251W        W93469  17.881   3.308   0.247
25252W        W93470  26.249  42.714   3.835
25253W        W93471  31.853  17.111   4.450
25254W        W93472  36.807  30.009   3.271
25255W        W93473  14.405  17.187   0.823
25256W        W93474   1.232  14.856   4.197
25257W        W93475  13.769   3.266   0.511
25258W        W93476  24.262  31.487   0.353
25259W        W93477   7.141  34.784   2.913
25260W        W93478  24.054  40.566  12.030
25261W        W93479  16.354  15.784   0.534
25262W        W93480  24.530  17.810  14.013
25263W        W93481  11.747  26.469   1.964
25264W        W93482   4.714  32.603   0.539
25265W        W93483  20.461   1.931   4.332
25266W        W93484  36.133  32.335   0.907
25267W        W93485  20.969  41.744  12.450
25268W        W93486   2.814  35.692   0.973
25269W        W93487  28.033   4.057  11.591
25270W        W93488  20.298  42.517   2.711
25271W        W93489   0.082  30.992  12.435
25272W        W93490   9.828  37.411  12.107
25273W        W93491  27.335   4.853   4.999
25274W        W93492  15.838  25.623  13.813
25275W        W93493  35.533  11.118  12.950
25276W        W93494  14.698  19.580   3.991
25277W        W93495  18.764  12.798  10.898
25278W        W93496  32.641   6.163  12.435
25279W        W93497  39.510  17.581   3.792
25280W        W93498   5.741  12.750   2.866
25281W        W93499  31.765   2.503   3.685
25282W        W93500  16.552  31.574  14.431
25283W        W93501  34.240  33.073  13.718
25284W        W93502  26.174  29.114   4.113
25285W        W93503   0.385  23.516   1.537
25286W        W93504  41.221   8.030   3.447
25287W        W93505  22.267   9.098  11.502
25288W        W93506  19.944  28.256  12.022
25289W        W93507  31.926   8.270  10.790
25290W        W93508  42.732   6.240   2.348
25291W        W93509  31.450  33.420   4.693
25292W        W93510  33.142  29.912  14.840
25293W        W93511  19.835   3.374   0.856
25294W        W93512   1.287  29.672   2.336
25295W        W93513  36.168   4.948  10.696
25296W        W93514  29.704  26.557  14.704
25297W        W93515  31.756  34.905   1.237
25298W        W93516  43.299  18.824  14.961
25299W        W93517  13.779  12.158  12.512
25300W        W93518  30.889  17.868  12.415
25301W        W93519  38.815  20.126  14.896
25302W        W93520  44.492  44.365  13.550
25303W        W93521  29.334  26.935   1.327
25304W        W93522  17.297  40.639   0.664
25305W        W93523  23.297  15.916  12.554
25306W        W93524  18.787  14.268  10.320
25307W        W93525  39.345  41.730   2.257
25308W        W93526  32.957   2.872   1.140
25309W        W93527  23.223   2.544   3.229
25310W        W93528  34.532  28.149   1.308
25311W        W93529  11.850  15.025  10.662
25312W        W93530  20.338  17.952  13.380
25313W        W93531  10.425  11.802   1.849
25314W        W93532  16.630  27.547   4.335
25315W        W93533  42.269  33.019   1.916
25316W        W93534  12.846  10.634  13.677
25317W        W93535  12.611  20.203   1.972
25318W        W93536  31.559  16.062  10.091
25319W        W93537  37.770  18.763  11.161
25320W        W93538  26.251  24.444   4.109
25321W        W93539  13.230  28.676  10.605
25322W        W93540  18.714  35.007   4.642
25323W        W93541  32.470  44.059   1.291
25324W        W93542  43.471   6.832  12.587
25325W        W93543  16.157  17.540  10.595
25326W        W93544  13.824  32.520  12.476
25327W        W93545   8.241   7.291   0.925
25328W        W93546  25.689   1.863  14.763
25329W        W93547  17.066  26.432  14.870
25330W        W93548  32.170   6.637   3.123
25331W        W93549  39.219  29.874  14.028
25332W        W93550  33.605  24.284  12.356
25333W        W93551  34.534   0.460   1.909
25334W        W93552  33.050  32.103   0.030
25335W        W93553  42.441  38.118   0.797
25336W        W93554  26.634  26.572   4.782
25337W        W93555   1.240  36.378   1.399
25338W        W93556  11.717  23.762   1.604
25339W        W93557  33.823   4.759  10.234
25340W        W93558  15.978  29.702  12.614
25341W        W93559  38.984  38.062  14.840
25342W        W93560  26.544  29.641  10.590
25343W        W93561  24.433   0.468   4.138
25344W        W93562  19.572  37.613  14.639
25345W        W93563  31.893  12.365   2.722
25346W        W93564  18.990  42.514  12.074
25347W        W93565  25.770  13.174   2.215
25348W        W93566  11.617  31.220  12.364
25349W        W93567  18.629  32.265  14.867
25350W        W93568  37.605  32.012  12.476
25351W        W93569  43.661   0.461  11.199
25352W        W93570   9.222  31.637   1.482
25353W        W93571   9.091  12.674   5.065
25354W        W93572  33.807  30.554   3.627
25355W        W93573  32.456   7.623   0.197
25356W        W93574  21.394  35.367  14.519
25357W        W93575  34.374  24.194   1.164
25358W        W93576  37.721   4.662   0.572
25359W        W93577  12.178  28.779  13.450
25360W        W93578  38.310  42.937  13.897
25361W        W93579  24.916  44.999   2.714
25362W        W93580  38.478  30.079  12.002
25363W        W93581   4.754  42.848   3.390
25364W        W93582  39.574  41.537  11.356
25365W        W93583  41.601  17.056  13.392
25366W        W93584  23.223  25.705   0.306
25367W        W93585  26.396  28.562   2.234
25368W        W93586  17.105  25.471   3.726
25369W        W93587  39.589   1.936  12.093
25370W        W93588   6.421   5.269   2.203
25371W        W93589   8.699  12.937   0.200
25372W        W93590  44.478  32.017   5.067
25373W        W93591  38.629  26.024  11.201
25374W        W93592  10.621  44.858  11.559
25375W        W93593  42.724  16.927   2.197
25376W        W93594  12.487   9.395   4.918
25377W        W93595  27.446  26.958   1.798
25378W        W93596  11.900  44.462   3.749
25379W        W93597   7.443  15.242  14.942
25380W        W93598  16.094  19.397  10.842
25381W        W93599  20.484  24.644   3.080
25382W        W93600  38.828  44.757   3.921
25383W        W93601  25.141  24.533  12.874
25384W        W93602  25.916   6.614  10.412
25385W        W93603  33.784  23.642  12.949
25386W        W93604   0.884   4.118  10.706
25387W        W93605  44.202  36.054   3.809
25388W        W93606  30.327   7.216   4.721
25389W        W93607  44.462  40.812   4.232
25390W        W93608   4.740  12.860   4.554
25391W        W93609   1.542  14.543   2.721
25392W        W93610  30.085  10.274  11.022
25393W        W93611  26.446  29.961  13.661
25394W        W93612  20.285  10.598  13.791
25395W        W93613   2.803  15.629  12.959
25396W        W93614  43.245  43.957   0.876
25397W        W93615  31.690  11.047   3.728
25398W        W93616  19.035  16.311   4.528
25399W        W93617  26.622  29.099  10.625
25400W        W93618  14.352  23.564   1.486
25401W        W93619   7.347  26.201   3.766
25402W        W93620  20.549   0.389  12.435
25403W        W93621  37.015  33.701   1.326
25404W        W93622   0.754   2.457  12.101
25405W        W93623  29.688  19.827   3.695
25406W        W93624  31.710  16.653   2.709
25407W        W93625  44.798  28.920  10.727
25408W        W93626   2.487   5.325  13.349
25409W        W93627   9.208   6.589  14.336
25410W        W93628  17.593   5.766  10.706
25411W        W93629  26.687  42.118  11.690
25412W        W93630  34.399  18.828  12.914
25413W        W93631  33.487   2.925   2.689
25414W        W93632  10.975  40.796   2.441
25415W        W93633   9.292  26.383  13.008
25416W        W93634  24.724  41.724   1.395
25417W        W93635  35.031  34.378   1.337
25418W        W93636  18.792  22.019   3.677
25419W        W93637  31.827  31.025  10.518
25420W        W93638   7.462   3.053   1.385
25421W        W93639  44.745  28.484  12.503
25422W        W93640  32.919  22.035   4.540
25423W        W93641  13.381   1.345   0.374
25424W        W93642  30.915  10.962   4.516
25425W        W93643  17.748  11.318   4.549
25426W        W93644  18.264  22.003  13.648
25427W        W93645  23.615  28.119   2.008
25428W        W93646  31.864  28.106   2.153
25429W        W93647  30.676  25.838   3.950
25430W        W93648  29.195  33.711  13.444
25431W        W93649   0.506  41.002  12.951
25432W        W93650  36.545  37.237   0.898
25433W        W93651   1.425  37.535  11.414
25434W        W93652  15.897   3.818   1.090
25435W        W93653  20.168  16.552  13.004
25436W        W93654  13.271  15.611   3.283
25437W        W93655  42.317  27.061   1.721
25438W        W93656  38.359   6.859   4.570
25439W        W93657  37.013  36.110  13.475
25440W        W93658   9.461  36.494  10.853
25441W        W93659  30.686   1.276   0.916
25442W        W93660  36.483  18.510  11.251
25443W        W93661  12.824  19.550  11.212
25444W        W93662  42.964  21.048   0.787
25445W        W93663   9.178   1.444  11.950
25446W        W93664   5.357   4.294  14.918
25447W        W93665  27.285  19.736   2.060
25448W        W93666  38.068  16.700  12.587
25449W        W93667  34.542  17.015   2.340
25450W        W93668   0.812  21.533   3.141
25451W        W93669  38.289   5.941   0.345
25452W        W93670  44.780  37.500   4.429
25453W        W93671   3.686  30.650   4.605
25454W        W93672   5.732   4.885   0.983
25455W        W93673   8.654  16.103  10.948
25456W        W93674  21.025  36.526   4.706
25457W        W93675  37.533  29.513  14.798
25458W        W93676  42.893  25.452  14.557
25459W        W93677  11.478  31.184   2.128
25460W        W93678  29.594  40.229   1.420
25461W        W93679   3.955  37.610   3.149
25462W        W93680  24.681   1.307  14.897
25463W        W93681  23.706  29.253  11.860
25464W        W93682  17.557  10.926   1.736
25465W        W93683   2.520  18.125   3.311
25466W        W93684  14.145  21.798  14.521
25467W        W93685  38.452  26.538  12.996
25468W        W93686  30.405  14.484  12.862
25469W        W93687   8.678  18.597  11.189
25470W        W93688  21.200  36.460   5.190
25471W        W93689   7.927  30.852   4.112
25472W        W93690  24.657  32.039   1.994
25473W        W93691  43.049  26.436   3.185
25474W        W93692  25.186  13.808  14.043
25475W        W93693  37.378  23.059  13.470
25476W        W93694  15.565  29.248   3.154
25477W        W93695  14.692  24.668   4.093
25478W        W93696  10.238  14.727   0.979
25479W        W93697  17.501  26.832  13.476
25480W        W93698  38.748   3.807   0.100
25481W        W93699  33.250  31.513  10.152
25482W        W93700  32.538  37.958  11.666
25483W        W93701  25.381  42.763   3.219
25484W        W93702  25.079  28.929  10.603
25485W        W93703  27.937   3.359   2.335
25486W        W93704  27.197  27.435   2.255
25487W        W93705  40.586  33.869   0.334
25488W        W93706  18.765  30.066  10.749
25489W        W93707  25.401   9.201   0.589
25490W        W93708  39.622  44.910  11.134
25491W        W93709   2.399  40.308   2.414
25492W        W93710  25.241  22.083   2.568
25493W        W93711  19.763  10.882  12.922
25494W        W93712   8.663  36.901   1.841
25495W        W93713  37.888  29.879  13.826
25496W        W93714  35.788  17.719  10.743
25497W        W93715   2.455  16.576   1.438
25498W        W93716  35.110   4.026  14.536
25499W        W93717  33.858  42.346  12.036
25500W        W93718  39.346   6.670  12.076
25501W        W93719   7.858  19.824   4.995
25502W        W93720   9.986  44.542   3.404
25503W        W93721  21.002  14.972   2.866
25504W        W93722   7.988  14.311  10.745
25505W        W93723  39.802  13.394   0.916
25506W        W93724  15.688  14.149  12.353
25507W        W93725  26.937  17.241   0.977
25508W        W93726  15.198  43.542  14.008
25509W        W93727  12.599   4.868   2.281
25510W        W93728  39.790  44.809   3.302
25511W        W93729   6.659  11.863   4.842
25512W        W93730  41.894  14.198   2.542
25513W        W93731  29.190  25.898  11.209
25514W        W93732  41.145  40.180   0.196
25515W        W93733  21.560  24.993   2.418
25516W        W93734  23.794  13.100   3.321
25517W        W93735  35.368  19.159   4.467
25518W        W93736  10.288  25.396  14.998
25519W        W93737  30.063   4.836   4.415
25520W        W93738  42.232  29.712   4.189
25521W        W93739  34.437  43.978  12.881
25522W        W93740   7.390  21.632   3.722
25523W        W93741  10.223  25.075  14.423
25524W        W93742  44.938   1.724  13.383
25525W        W93743  41.468  33.669  11.468
25526W        W93744   4.196  23.733   1.435
25527W        W93745  26.978  10.640   1.891
25528W        W93746  12.198  25.192   2.923
25529W        W93747  39.296   7.262  12.675
25530W        W93748  22.446  26.273   1.791
25531W        W93749  28.467  35.832   0.380
25532W        W93750  42.808  20.029   2.126
25533W        W93751  22.272  29.213   0.324
25534W        W93752  22.580  30.450   2.541
25535W        W93753  15.790  16.520   0.901
25536W        W93754  40.891  41.010  13.888
25537W        W93755   1.869  30.356   3.240
25538W        W93756   1.338  41.840   2.206
25539W        W93757  42.425  36.102   4.049
25540W        W93758  24.468   0.388  12.076
25541W        W93759   1.295  28.615  13.798
25542W        W93760  29.586  36.866   0.441
25543W        W93761  44.593  22.229  12.843
25544W        W93762   7.780   3.471  10.899
25545W        W93763  37.289  12.154  12.125
25546W        W93764  16.556  32.469   1.829
25547W        W93765  33.555  34.762   0.841
25548W        W93766  34.699  17.499   2.367
25549W        W93767  29.601  37.851   3.337
25550W        W93768  42.003  17.142  14.864
25551W        W93769  32.998  20.114  14.080
25552W        W93770  42.932  33.892   2.763
25553W        W93771   4.324  18.067  10.997
25554W        W93772  28.047  16.731  10.919
25555W        W93773   9.108  29.441  14.728
25556W        W93774  19.605  42.257   2.161
25557W        W93775  19.969  24.968   4.246
25558W        W93776  30.092   5.438  11.191
25559W        W93777  37.952  29.895  14.760
25560W        W93778  22.238  34.870   0.871
25561W        W93779   9.279  14.345  12.109
25562W        W93780   0.285  27.064  14.316
25563W        W93781  20.156  15.294  11.531
25564W        W93782  20.076  41.831  13.942
25565W        W93783  10.203  23.571  10.709
25566W        W93784  33.502  16.565  11.301
25567W        W93785   6.640  34.134  14.316
25568W        W93786  35.905  34.964  12.594
25569W        W93787  22.849  32.421   0.837
25570W        W93788  22.332  30.811   4.686
25571W        W93789  43.050  23.966  11.244
25572W        W93790  27.441  44.169   1.644
25573W        W93791  25.945  35.861   3.869
25574W        W93792  31.359  43.321   3.314
25575W        W93793  11.769  22.793  11.044
25576W        W93794  11.848   1.812  12.854
25577W        W93795  17.524   5.707   0.753
25578W        W93796  26.151  26.167  14.233
25579W        W93797   6.433  25.311  14.378
25580W        W93798   8.210  23.974   4.761
25581W        W93799  13.285  39.046   0.814
25582W        W93800  27.361  32.095  12.198
25583W        W93801  43.466  17.890  11.087
25584W        W93802  21.465  29.568   1.624
25585W        W93803   6.000  16.054   2.663
25586W        W93804  26.625  38.069   0.738
25587W        W93805  37.634  17.450  11.141
25588W        W93806  42.372  13.235   1.136
25589W        W93807  38.493  30.933  10.485
25590W        W93808   9.741  38.820  14.606
25591W        W93809  16.784  30.169  13.047
25592W        W93810  37.789   8.802   1.200
25593W        W93811  27.703   2.675   3.815
25594W        W93812  40.380  42.035  11.560
25595W        W93813  40.302  14.280   3.049
25596W        W93814  24.543  13.089  14.537
25597W        W93815  44.908  14.936  14.941
25598W        W93816   4.478  40.936   4.087
25599W        W93817  15.289  43.254   2.591
25600W        W93818  29.381  44.959   4.111
25601W        W93819  23.875  33.408   2.796
25602W        W93820   4.350   3.897   3.847
25603W        W93821   6.345  44.881  10.182
25604W        W93822   1.106  43.485   3.554
25605W        W93823  18.311   4.207  11.127
25606W        W93824  42.731  17.273   0.379
25607W        W93825  25.546   9.250   4.702
25608W        W93826  25.098  12.374  13.465
25609W        W93827  37.984  15.138   2.595
25610W        W93828  25.150  21.137  10.366
25611W        W93829   5.683  12.200   3.597
25612W        W93830  14.058  39.092   1.771
25613W        W93831  28.399  13.739   3.134
25614W        W93832  11.960  22.962   2.783
25615W        W93833  28.762  18.182  14.093
25616W        W93834  12.123  23.295   2.409
25617W        W93835  19.774  25.110  13.008
25618W        W93836  31.634  19.784  11.699
25619W        W93837   9.483   0.277   3.110
25620W        W93838   8.731   3.474   2.879
25621W        W93839   5.823  15.325  11.011
25622W        W93840  44.291  42.406  12.899
25623W        W93841   5.321  27.072   4.488
25624W        W93842   7.797  34.148  12.521
25625W        W93843  22.739  17.017  12.019
25626W        W93844  12.177  11.217  12.984
25627W        W93845   5.232  12.455  10.702
25628W        W93846  15.984   8.258   2.779
25629W        W93847  41.523  43.905   3.200
25630W        W93848  11.349   6.288  11.087
25631W        W93849  33.895  37.598  10.624
25632W        W93850  15.206  25.335   4.942
25633W        W93851   4.646  21.039   1.461
25634W        W93852  20.563  41.877   2.870
25635W        W93853  27.920  34.625  13.694
25636W        W93854  40.798   3.267   4.192
25637W        W93855  41.594  37.801  11.976
25638W        W93856  29.135  18.495   3.746
25639W        W93857  26.635   4.342   4.760
25640W        W93858   2.206   1.985   3.690
25641W        W93859  35.188  15.487  12.040
25642W        W93860   0.529  27.704  13.313
25643W        W93861  28.265  37.906  12.822
25644W        W93862   3.876  19.075   1.391
25645W        W93863  18.557  40.530   4.190
25646W        W93864  32.037   7.720   4.976
25647W        W93865  17.615   8.783  13.045
25648W        W93866   1.496  40.500   2.348
25649W        W93867  35.922  31.680  11.273
25650W        W93868  41.540   6.986   2.653
25651W        W93869  43.740  34.127   1.236
25652W        W93870  42.523  28.899   1.324
25653W        W93871  32.662   7.247  11.622
25654W        W93872  14.207  36.467  14.108
25655W        W93873  35.635  31.079   3.698
25656W        W93874  39.832  40.015   2.046
25657W        W93875  14.393  15.412  11.929
25658W        W93876  17.098   8.701  12.970
25659W        W93877  38.847  11.294   0.367
25660W        W93878  40.069  25.514  12.356
25661W        W93879  40.619  37.099   2.665
25662W        W93880  31.248   5.907   9.810
25663W        W93881  36.010  35.050   0.791
25664W        W93882   4.703   7.073   2.314
25665W        W93883  40.907  33.183   3.542
25666W        W93884  29.084   5.421  13.533
25667W        W93885  10.225  37.480   1.408
25668W        W93886  29.457  42.432   3.644
25669W        W93887  34.408  10.921   3.647
25670W        W93888  10.987  11.785  12.190
25671W        W93889  30.785  40.986   2.912
25672W        W93890  37.668   1.499   4.564
25673W        W93891  30.407  28.546   2.401
25674W        W93892  29.450  39.321   4.099
25675W        W93893  27.674  31.401  13.849
25676W        W93894  18.795  14.603  12.015
25677W        W93895   5.406   3.372   4.105
25678W        W93896  15.102  11.065   4.323
25679W        W93897  44.036  25.827   2.146
25680W        W93898   8.629   9.548   4.098
25681W        W93899  44.995  35.570   0.524
25682W        W93900  35.635   2.048   2.364
25683W        W93901  25.981  16.526  12.434
25684W        W93902   9.318  27.513  12.552
25685W        W93903  15.271   0.540   3.971
25686W        W93904  41.705  33.680   2.176
25687W        W93905  41.720  19.276  10.825
25688W        W93906   0.155  19.679  11.967
25689W        W93907   2.425  10.204  10.237
25690W        W93908  40.900  44.014  13.984
25691W        W93909   8.723   5.388  11.848
25692W        W93910  30.248   4.622   9.802
25693W        W93911  30.512  17.816   3.684
25694W        W93912  24.386  19.700   4.321
25695W        W93913  17.600   1.796   4.572
25696W        W93914  30.397   1.154  11.125
25697W        W93915  40.992  23.791  12.717
25698W        W93916  13.628  28.618  11.960
25699W        W93917  14.343  32.136  14.545
25700W        W93918   6.613  30.431  14.915
25701W        W93919   4.740   2.913   3.331
25702W        W93920  12.435  38.345   0.892
25703W        W93921  42.025  29.416   3.311
25704W        W93922  17.656   1.391  13.847
25705W        W93923  26.011  27.291  12.884
25706W        W93924  39.582  15.654  13.434
25707W        W93925  12.675  22.182   1.896
25708W        W93926  34.686  18.985  14.856
25709W        W93927  33.405  15.145  12.515
25710W        W93928  27.204  36.352   4.982
25711W        W93929  19.671  18.489   1.709
25712W        W93930  42.299  14.465   1.305
25713W        W93931  24.054  11.872  14.925
25714W        W93932  39.499  18.788   3.103
25715W        W93933  34.716  22.750  11.073
25716W        W93934  31.363  37.953   3.957
25717W        W93935   2.397   6.466  13.923
25718W        W93936  32.028   9.305   4.100
25719W        W93937  21.053  38.063  13.442
25720W        W93938  13.582  10.616  11.088
25721W        W93939  32.428  16.435   3.363
25722W        W93940  15.309  12.850   5.021
25723W        W93941  39.815  21.624   4.225
25724W        W93942   9.250   2.160   2.715
25725W        W93943  17.810   8.789   0.428
25726W        W93944  17.750  23.181   4.228
25727W        W93945   7.966  20.968   4.141
25728W        W93946  13.612  34.606  10.631
25729W        W93947  35.612   2.699  13.973
25730W        W93948  35.632  44.902   1.746
25731W        W93949   0.217  13.253   2.575
25732W        W93950   1.401  31.066  11.276
25733W        W93951   8.416  26.517   3.161
25734W        W93952  18.512  42.226  10.513
25735W        W93953  43.494  36.009   0.665
25736W        W93954   0.451   9.391   0.915
25737W        W93955  27.154   4.886  14.926
25738W        W93956   0.360  18.564   2.716
25739W        W93957   3.854  33.365  11.669
25740W        W93958  39.921   8.155  10.727
25741W        W93959  42.459  25.013   1.707
25742W        W93960  11.111   1.430  10.717
25743W        W93961  21.610  43.701  12.476
25744W        W93962  25.458  31.754  14.375
25745W        W93963  19.125   1.181  13.399
25746W        W93964  34.066   1.367  14.523
25747W        W93965  34.059   0.267   0.634
25748W        W93966   0.307  22.514  13.277
25749W        W93967  16.115  27.444  11.427
25750W        W93968  15.216  26.482   4.838
25751W        W93969   9.447   8.383  10.609
25752W        W93970  26.225  39.817   1.982
25753W        W93971  11.351  23.104   2.026
25754W        W93972  24.681  20.580   1.868
25755W        W93973  27.003  35.123   2.745
25756W        W93974  17.152  13.553  13.392
25757W        W93975   4.626  28.201   3.774
25758W        W93976  28.697  41.470   4.073
25759W        W93977  43.826   9.790   0.351
25760W        W93978   8.674  33.476   1.606
25761W        W93979  37.491   7.713   1.830
25762W        W93980   3.028  42.487   0.961
25763W        W93981  42.103  12.370   4.653
25764W        W93982  10.752  20.717   3.379
25765W        W93983  37.879  32.617   1.863
25766W        W93984   2.235   1.144  11.115
25767W        W93985  11.103  35.440   3.161
25768W        W93986   8.966   9.351   3.760
25769W        W93987  33.533  18.122  12.616
25770W        W93988  39.006  38.017  11.346
25771W        W93989  18.499  43.896   2.592
25772W        W93990  35.567   9.829  14.882
25773W        W93991  34.107   6.476   2.199
25774W        W93992  33.439  35.872  11.463
25775W        W93993   6.744  32.056   1.628
25776W        W93994  15.031  16.569  11.725
25777W        W93995  34.938  34.631  10.633
25778W        W93996  37.177  18.646  11.928
25779W        W93997   5.246  28.139   0.962
25780W        W93998  24.273  28.174   4.990
25781W        W93999  31.881  37.997   0.748
25782W        W94000  22.311  32.262  11.353
25783W        W94001  39.639  33.548   1.386
25784W        W94002   5.235  18.133   4.677
25785W        W94003  22.470  24.164   4.576
25786W        W94004   6.394  44.461  11.469
25787W        W94005  20.770  32.449   1.325
25788W        W94006  35.863   7.375   2.383
25789W        W94007  13.339  14.193   0.962
25790W        W94008  25.649  43.202  13.025
25791W        W94009  30.704  10.398   2.724
25792W        W94010  27.879   4.650   1.829
25793W        W94011  13.034  28.881  11.153
25794W        W94012   7.832  40.405   3.044
25795W        W94013  39.530  25.901   3.159
25796W        W94014  24.479  17.916  11.646
25797W        W94015  29.399  35.219  11.955
25798W        W94016   9.311  23.349   0.903
25799W        W94017  36.441  43.804   4.062
25800W        W94018  23.299  41.821  14.001
25801W        W94019  42.744   6.981   1.836
25802W        W94020  31.708   2.146   5.419
25803W        W94021  24.124  39.130   4.122
25804W        W94022   6.376  43.030  12.015
25805W        W94023  32.399  23.649  14.298
25806W        W94024  39.026   8.949  12.717
25807W        W94025  19.568  31.035  11.958
25808W        W94026  35.204  30.071  12.489
25809W        W94027   4.361  22.438  11.871
25810W        W94028  25.751  42.345   1.822
25811W        W94029  13.471  20.229   2.903
25812W        W94030  31.038  20.226   2.099
25813W        W94031  39.044  42.838  13.418
25814W        W94032  21.908  10.634   1.652
25815W        W94033  26.624  40.684  12.482
25816W        W94034  26.705  22.216  12.226
25817W        W94035   7.479  39.939  13.127
25818W        W94036  32.551  23.273  11.171
25819W        W94037  16.236  25.256   4.103
25820W        W94038  30.871  20.508  14.839
25821W        W94039  28.177  44.251   0.277
25822W        W94040  20.011  34.598   4.155
25823W        W94041  28.041   6.851   4.645
25824W        W94042  22.139  36.092   2.431
25825W        W94043  18.795  36.590   2.738
25826W        W94044  18.745   9.591  10.589
25827W        W94045  17.588  31.271   4.632
25828W        W94046  36.196  23.994  12.074
25829W        W94047  37.871  12.424  13.501
25830W        W94048  35.071  13.293   2.231
25831W        W94049   4.855  42.202  13.948
25832W        W94050  22.253   8.105   1.782
25833W        W94051  16.541   3.702   1.835
25834W        W94052   5.715   3.321   4.554
25835W        W94053  43.291  20.776   3.642
25836W        W94054  43.237  17.747  14.924
25837W        W94055   5.277  12.084  14.713
25838W        W94056  39.756   1.863   2.450
25839W        W94057   6.204  25.148   0.762
25840W        W94058  17.536  12.664  10.331
25841W        W94059  11.835  10.194   1.273
25842W        W94060  28.945   8.659  13.356
25843W        W94061  12.699  14.524   3.254
25844W        W94062  24.981   2.728   2.230
25845W        W94063  36.873  20.178   3.977
25846W        W94064  42.516  22.683  14.926
25847W        W94065  43.040  43.029   0.138
25848W        W94066  10.653   8.343   1.690
25849W        W94067  27.217  41.962  10.714
25850W        W94068  39.053   7.275   1.445
25851W        W94069  11.202  34.034  14.264
25852W        W94070  18.206  37.992   4.501
25853W        W94071  20.609   8.405   4.227
25854W        W94072  26.670   7.364   1.937
25855W        W94073  42.877  23.639  12.115
25856W        W94074  20.913   8.311  12.107
25857W        W94075  34.609  30.325   0.632
25858W        W94076  42.582  18.203   3.927
25859W        W94077  31.682  41.107   2.351
25860W        W94078  34.036  35.914  14.384
25861W        W94079  28.961  43.087  12.600
25862W        W94080  20.519  13.664  14.023
25863W        W94081  16.078  36.477  12.011
25864W        W94082  11.277  30.936   3.668
25865W        W94083  44.988   9.309   1.688
25866W        W94084  27.531  23.176  12.835
25867W        W94085  30.417   2.715   0.096
25868W        W94086  15.316  37.905   0.514
25869W        W94087  17.590  27.096  13.902
25870W        W94088   4.791   4.292   0.497
25871W        W94089  15.880  23.152  13.959
25872W        W94090   4.540  19.492  12.022
25873W        W94091  36.597  25.762   3.268
25874W        W94092  35.940  13.038  13.550
25875W        W94093  15.736  29.782   3.632
25876W        W94094  16.586   6.707   4.355
25877W        W94095  20.713   8.711   4.620
25878W        W94096  24.963  27.025  14.011
25879W        W94097  32.943  12.348   1.956
25880W        W94098  40.927  30.085   0.525
25881W        W94099  13.765  13.546  12.003
25882W        W94100   1.669  42.713  10.651
25883W        W94101  26.834  20.592   5.442
25884W        W94102   4.720  43.949   2.745
25885W        W94103  14.840  17.559   1.946
25886W        W94104  25.169  27.177   4.618
25887W        W94105  13.192  40.735   3.010
25888W        W94106  19.693  30.083   2.901
25889W        W94107  36.261  44.405  13.065
25890W        W94108  26.578   6.907  11.901
25891W        W94109  10.827   3.501   0.451
25892W        W94110  22.917  32.395  14.342
25893W        W94111  39.799  12.669   2.704
25894W        W94112  34.540  40.391  10.726
25895W        W94113  33.037  25.753   1.845
25896W        W94114  25.551  15.812  13.305
25897W        W94115  22.776  24.496  12.424
25898W        W94116  26.810  15.313   3.471
25899W        W94117  20.509  13.029  11.576
25900W        W94118  12.167  44.216  11.363
25901W        W94119  31.155  44.292   2.707
25902W        W94120  35.480  21.662  14.343
25903W        W94121   5.944  33.003  13.629
25904W        W94122   9.820  30.027  14.934
25905W        W94123  43.833   5.932   3.656
25906W        W94124  15.600  29.698  13.669
25907W        W94125   0.381  36.438  12.524
25908W        W94126  28.740  23.503   4.202
25909W        W94127  24.565  41.805   4.580
25910W        W94128   4.430  35.054   1.862
25911W        W94129  17.558  12.922  12.276
25912W        W94130  15.410  16.650  10.778
25913W        W94131  41.866   8.778  10.277
25914W        W94132  36.960  19.667   0.089
25915W        W94133  12.749   2.754  13.677
25916W        W94134  19.736  14.355  12.321
25917W        W94135   9.652   1.323  14.439
25918W        W94136  36.075   6.329   1.468
25919W        W94137  35.889  20.909  12.789
25920W        W94138  41.403  11.215   4.951
25921W        W94139  33.818  31.220  14.435
25922W        W94140   9.285   8.812  13.854
25923W        W94141  31.140   9.554   2.551
25924W        W94142  39.346  34.306   2.886
25925W        W94143  44.321  27.336   4.256
25926W        W94144  26.678  40.644  11.571
25927W        W94145  36.645   5.882  13.819
25928W        W94146  16.916  14.835  12.017
25929W        W94147  33.810  17.527   4.107
25930W        W94148   2.037  43.011   3.680
25931W        W94149   4.310  20.000   2.151
25932W        W94150  11.961  17.635  13.909
25933W        W94151  35.077  37.928   3.513
25934W        W94152   0.405   1.739   3.209
25935W        W94153  29.521  25.187   1.723
25936W        W94154  26.889  22.510  11.133
25937W        W94155  32.486   6.357   1.892
25938W        W94156   1.292  13.350  11.165
25939W        W94157  35.574  20.637   4.167
25940W        W94158  25.392   6.081   0.756
25941W        W94159   5.594   2.513  10.938
25942W        W94160  16.708   2.284  10.556
25943W        W94161  25.945  15.735   2.625
25944W        W94162  40.906  36.848   0.822
25945W        W94163  24.782   9.622  14.144
25946W        W94164   7.603  31.499   3.177
25947W        W94165  19.468  29.086  14.367
25948W        W94166  39.085  28.435  11.094
25949W        W94167   3.943  38.312  10.917
25950W        W94168  25.841   5.764  14.316
25951W        W94169  44.579  34.001  11.438
25952W        W94170  11.244  24.409  13.459
25953W        W94171  30.004  29.630   2.565
25954W        W94172  28.715  22.917  13.521
25955W        W94173  42.430   0.802   2.721
25956W        W94174  25.895  23.137  14.951
25957W        W94175   9.739  32.957  10.451
25958W        W94176  30.635   0.376   4.308
25959W        W94177   8.709  36.844  10.512
25960W        W94178  42.622  12.865   3.845
25961W        W94179  34.942  22.917   0.381
25962W        W94180   9.848  16.101  14.396
25963W        W94181  22.811  28.153  12.277
25964W        W94182  26.874   1.487   4.606
25965W        W94183   0.409  32.538   4.689
25966W        W94184  31.178   7.460   4.515
25967W        W94185  38.018   0.947  11.601
25968W        W94186   9.866  25.625   4.460
25969W        W94187  28.492   9.175  11.366
25970W        W94188   3.370  26.108  13.019
25971W        W94189  23.069  37.617   2.770
25972W        W94190  10.706   7.305  11.670
25973W        W94191  37.845  28.005   2.441
25974W        W94192  29.498   1.228  12.631
25975W        W94193  21.303  42.059  14.599
25976W        W94194   5.099  28.607   0.776
25977W        W94195  24.007   7.337   3.759
25978W        W94196   8.708  33.989   1.693
25979W        W94197  21.659   4.777   9.829
25980W        W94198  31.049  21.142   4.984
25981W        W94199  29.877  27.501  10.741
25982W        W94200  24.541  36.805  12.143
25983W        W94201  29.443  40.900  13.788
25984W        W94202  19.998  17.139   4.710
25985W        W94203  18.328  13.801   1.337
25986W        W94204   8.190  39.356  11.241
25987W        W94205   5.440  40.477   1.297
25988W        W94206  22.224   4.008   1.993
25989W        W94207  38.308   7.702   2.500
25990W        W94208  41.032  43.807   0.411
25991W        W94209  20.196   4.909  13.896
25992W        W94210  26.923  29.270   3.618
25993W        W94211  21.178   7.190   1.326
25994W        W94212  33.642  30.858  14.809
25995W        W94213  34.595  41.790   0.446
25996W        W94214  26.702  19.537   2.771
25997W        W94215  44.997  10.382  10.841
25998W        W94216  27.973  36.821   0.888
25999W        W94217  37.992  35.986   0.371
26000W        W94218  40.473  10.912  11.090
26001W        W94219  25.734  11.768  10.818
26002W        W94220  38.032  43.508   2.812
26003W        W94221  10.957   3.943   1.775
26004W        W94222  42.896   7.299   4.775
26005W        W94223  34.133   4.412   9.508
26006W        W94224  21.264  44.968   1.204
26007W        W94225  30.182  19.647   2.218
26008W        W94226  24.123   5.880   3.647
26009W        W94227  33.411  34.927   4.061
26010W        W94228  11.061   1.849  11.566
26011W        W94229   3.812  23.823  14.357
26012W        W94230   6.490  27.496   1.499
26013W        W94231  11.697  15.297   2.222
26014W        W94232  36.506   4.750  12.729
26015W        W94233  28.671  10.981  14.171
26016W        W94234   6.398  23.520   1.764
26017W        W94235  10.924  18.621   1.925
26018W        W94236  24.541  33.501  12.049
26019W        W94237  26.196  38.644   3.261
26020W        W94238   5.435   7.510  12.881
26021W        W94239  43.891   5.184  14.819
26022W        W94240  17.312  12.057  12.559
26023W        W94241  24.200  18.217  13.948
26024W        W94242  28.907  19.773  11.123
26025W        W94243  38.841  25.994  10.254
26026W        W94244  35.611   5.599  12.860
26027W        W94245   8.655  28.868  13.708
26028W        W94246   5.738   5.933   0.680
26029W        W94247  25.817  25.116  13.931
26030W        W94248  38.457  33.736  14.699
26031W        W94249  25.883  25.022  14.836
26032W        W94250   8.610  13.837  14.854
26033W        W94251  40.725  26.138  12.797
26034W        W94252  12.785   7.187   2.058
26035W        W94253  28.049   0.493  12.171
26036W        W94254   4.084  26.878  14.476
26037W        W94255   2.991  24.276  11.313
26038W        W94256  14.814  11.668   3.246
26039W        W94257  16.976  22.556   3.691
26040W        W94258  14.004  39.749   2.434
26041W        W94259   0.444  12.605  14.733
26042W        W94260  33.926  20.563   1.953
26043W        W94261  18.534  13.584   3.257
26044W        W94262  27.932  39.269   1.909
26045W        W94263  37.979   4.662  13.372
26046W        W94264  17.611  42.513   0.208
26047W        W94265  25.514  14.814   2.693
26048W        W94266  37.606  21.667  10.421
26049W        W94267  24.675  35.563   3.336
26050W        W94268  20.279  42.304   4.138
26051W        W94269  25.564  39.783  13.896
26052W        W94270  40.387  38.881  10.687
26053W        W94271  32.535   6.387  12.862
26054W        W94272  14.767  17.514   4.102
26055W        W94273  39.814  34.120   1.694
26056W        W94274  24.720   1.184  12.476
26057W        W94275   6.182  29.149   1.391
26058W        W94276  23.455  28.596   3.836
26059W        W94277  10.275  42.734   4.170
26060W        W94278  33.124  13.211   1.242
26061W        W94279  29.254  13.568  13.367
26062W        W94280  19.207   7.764  13.978
26063W        W94281  17.457  39.084  14.976
26064W        W94282   5.687  10.471  13.607
26065W        W94283  14.603  28.440  12.049
26066W        W94284   3.701  33.995  12.398
26067W        W94285   6.292  27.521  12.823
26068W        W94286  41.709  19.302  11.332
26069W        W94287   8.734  30.707  14.473
26070W        W94288   3.248  27.025  13.380
26071W        W94289  15.076   2.340   0.817
26072W        W94290  32.868  37.652   0.334
26073W        W94291  19.348   8.820  13.490
26074W        W94292  13.169  39.851   2.288
26075W        W94293   9.341  19.607  11.580
26076W        W94294  24.118  26.815   5.052
26077W        W94295  12.182  35.758  12.180
26078W        W94296  34.993   1.895   2.249
26079W        W94297   4.533  20.065   4.284
26080W        W94298  25.567  18.632   1.795
26081W        W94299  25.573  15.336  13.506
26082W        W94300  34.011  20.764  12.008
26083W        W94301   6.684  33.456  11.179
26084W        W94302  27.389   9.848  14.870
26085W        W94303  28.803  31.477   0.944
26086W        W94304   8.333  13.437   4.651
26087W        W94305  40.566  23.111   3.727
26088W        W94306  44.446   0.140   3.617
26089W        W94307  40.820  34.269  13.000
26090W        W94308  12.639  18.101  13.447
26091W        W94309  12.180  38.818   0.695
26092W        W94310  21.778   6.236   0.744
26093W        W94311  26.128  21.481  13.935
26094W        W94312  27.037  15.102  11.699
26095W        W94313   3.988  38.958   4.175
26096W        W94314   4.954  31.042   4.187
26097W        W94315  43.509   9.407  11.440
26098W        W94316   8.658  25.936   0.298
26099W        W94317  25.089  30.603   0.235
26100W        W94318  23.105   3.934   1.495
26101W        W94319   0.724   5.664   3.745
26102W        W94320  35.005  27.605  14.595
26103W        W94321  33.429  38.927   1.814
26104W        W94322  15.597  19.572  12.922
26105W        W94323  42.419  30.070   2.872
26106W        W94324  30.197  26.966   5.266
26107W        W94325  38.540   8.373  13.869
26108W        W94326  28.433   8.668   1.848
26109W        W94327   4.067  22.143   1.879
26110W        W94328  39.459  24.133   1.800
26111W        W94329  36.519  33.740   4.245
26112W        W94330  26.583  12.553   1.052
26113W        W94331  44.005  36.755   0.995
26114W        W94332   9.376  29.962  10.582
26115W        W94333   8.254  26.417   2.204
26116W        W94334  39.771  35.336   4.035
26117W        W94335  38.958   9.659   3.618
26118W        W94336  29.157  44.076   1.138
26119W        W94337   1.405   6.918  14.419
26120W        W94338  27.214   3.292   0.009
26121W        W94339  19.140  11.603   1.949
26122W        W94340  18.355  21.875  12.424
26123W        W94341  41.889  40.957  11.954
26124W        W94342  41.366  18.665  10.400
26125W        W94343  27.135  18.412   3.384
26126W        W94344  13.810  34.955  14.457
26127W        W94345  26.963  44.297  13.829
26128W        W94346  15.600  17.601  11.076
26129W        W94347  39.879  10.694   4.691
26130W        W94348  37.034  27.642   2.428
26131W        W94349  28.203  44.569   4.546
26132W        W94350  14.756  31.570   4.631
26133W        W94351  32.917  33.717  14.379
26134W        W94352  37.722  34.471  14.327
26135W        W94353   7.104  15.924   3.200
26136W        W94354  15.518  14.786  14.508
26137W        W94355  17.651  23.104  14.493
26138W        W94356  17.789  39.842  10.655
26139W        W94357  17.129  31.374  14.020
26140W        W94358  33.425   6.077  11.374
26141W        W94359  17.336  43.270  13.523
26142W        W94360  28.394   8.662  14.016
26143W        W94361   5.179  42.277   3.177
26144W        W94362  37.941  43.590  10.702
26145W        W94363  23.120  39.841   0.489
26146W        W94364   8.108  19.083  12.934
26147W        W94365  16.834  32.147  12.217
26148W        W94366  44.829  24.479  13.179
26149W        W94367   9.889  11.851  10.694
26150W        W94368  42.180  15.034  12.196
26151W        W94369  14.688  21.471   0.497
26152W        W94370  11.792  12.776  14.454
26153W        W94371  36.431  18.952   1.806
26154W        W94372  29.512   3.492  10.383
26155W        W94373  31.375  27.375   5.144
26156W        W94374  11.649  36.792  14.485
26157W        W94375  31.671  31.605  13.228
26158W        W94376  39.612   7.347   1.320
26159W        W94377   1.807  13.821  10.601
26160W        W94378  15.678  12.529  10.214
26161W        W94379   2.221  32.694   1.935
26162W        W94380  30.531  11.072   0.581
26163W        W94381  17.665  34.913   1.074
26164W        W94382  40.500   4.317   3.694
26165W        W94383  43.983  28.968   0.215
26166W        W94384   7.442   6.377   2.693
26167W        W94385  39.255  22.593  13.390
26168W        W94386  30.879   5.461   2.715
26169W        W94387  12.767  42.386   0.511
26170W        W94388  38.712  31.767   2.689
26171W        W94389  14.117  41.832  13.477
26172W        W94390  17.056  24.409   4.578
26173W        W94391  43.135  16.475   4.060
26174W        W94392  36.358  26.119  11.508
26175W        W94393  39.581   6.826  14.472
26176W        W94394  27.729   6.251   1.750
26177W        W94395   2.978   8.848   2.472
26178W        W94396  42.689  26.064   3.131
26179W        W94397  36.324  19.635   4.586
26180W        W94398  24.473  13.402  14.136
26181W        W94399  19.812  20.966   1.707
26182W        W94400  17.296  20.342  11.576
26183W        W94401  34.027  27.648   3.187
26184W        W94402   7.831  10.115   1.839
26185W        W94403  26.920   3.434   1.036
26186W        W94404   4.191  44.153   2.083
26187W        W94405   1.363  22.673  10.696
26188W        W94406  27.712   3.240  14.836
26189W        W94407  33.150  26.900  12.111
26190W        W94408  20.869  36.902   5.050
26191W        W94409  18.936  33.996  10.093
26192W        W94410  10.631  28.189  13.309
26193W        W94411   7.475  17.134   1.327
26194W        W94412   6.198  44.002  10.221
26195W        W94413  24.420   3.449  10.382
26196W        W94414  19.905  12.232  13.428
26197W        W94415  44.289   1.864   1.268
26198W        W94416  33.523  25.725   4.091
26199W        W94417   7.267  11.433   0.392
26200W        W94418  36.338  20.187   3.909
26201W        W94419  43.682  32.890   4.256
26202W        W94420   2.296   0.819  10.099
26203W        W94421  35.826  17.413  11.671
26204W        W94422  38.396  21.089  11.700
26205W        W94423  22.274  21.584   4.268
26206W        W94424  23.267  26.088   3.162
26207W        W94425  10.360  29.658  13.414
26208W        W94426  16.538  19.312   1.467
26209W        W94427  22.699  44.942  11.193
26210W        W94428  15.440  17.315   0.700
26211W        W94429  39.161  12.789   0.487
26212W        W94430  34.380   4.216   0.059
26213W        W94431  18.416   6.177   2.660
26214W        W94432  10.197  43.058   0.891
26215W        W94433   5.855  24.905   3.579
26216W        W94434   2.772  17.219   4.133
26217W        W94435  26.254  29.204   3.231
26218W        W94436  40.449  39.546  13.884
26219W        W94437  10.902   7.734   2.354
26220W        W94438  36.296  35.096   4.309
26221W        W94439  36.486  43.646   0.268
26222W        W94440  31.831  35.663   0.332
26223W        W94441  33.193  44.980   2.612
26224W        W94442  41.736  18.517   4.525
26225W        W94443  44.842   2.895  14.151
26226W        W94444  10.329  21.948  14.000
26227W        W94445   3.739  15.717   3.974
26228W        W94446  23.502   2.782  11.472
26229W        W94447   7.666  17.642   0.418
26230W        W94448   1.917  11.712   0.377
26231W        W94449   9.361  16.824   0.445
26232W        W94450  11.815  24.072   1.998
26233W        W94451   9.865  16.622  11.476
26234W        W94452  43.951   6.647   2.709
26235W        W94453  21.659  42.408  14.025
26236W        W94454  38.501  22.990  13.772
26237W        W94455   6.517  10.194   3.294
26238W        W94456  32.943  14.744  13.909
26239W        W94457  23.615  10.340  11.151
26240W        W94458  12.179  41.794  13.278
26241W        W94459  18.300  30.543   4.639
26242W        W94460  20.027  24.172  12.941
26243W        W94461  33.087   4.937   4.206
26244W        W94462  10.876  17.354   2.357
26245W        W94463  20.173  25.260  13.349
26246W        W94464  38.998   0.839  14.878
26247W        W94465  34.544   7.402   3.669
26248W        W94466  32.065  43.965  11.062
26249W        W94467  24.233  27.955   0.349
26250W        W94468   6.858  14.772   1.740
26251W        W94469  40.336  42.765  11.008
26252W        W94470  42.023   8.070  11.641
26253W        W94471  12.325   4.074  12.116
26254W        W94472  14.723  18.062   4.099
26255W        W94473  24.081  24.571  12.827
26256W        W94474  21.255  41.423   1.736
26257W        W94475  38.085  29.021   1.426
26258W        W94476  35.271  24.701  11.548
26259W        W94477  30.426  35.005   1.760
26260W        W94478   8.261  22.761   0.846
26261W        W94479  17.055  37.026  11.669
26262W        W94480  17.149   4.409  11.783
26263W        W94481  26.657  27.507   0.240
26264W        W94482   7.662  40.316  10.947
26265W        W94483  43.330  33.103  12.664
26266W        W94484  30.366  14.589   9.770
26267W        W94485   2.156   2.498  14.283
26268W        W94486  14.768   7.374  10.683
26269W        W94487  17.669  23.584  10.680
26270W        W94488  14.212  26.926   2.325
26271W        W94489  35.555   1.954   0.989
26272W        W94490  21.850   7.089   4.219
26273W        W94491  12.645   5.966   3.555
26274W        W94492  42.191  18.078   1.391
26275W        W94493  26.550  36.879  11.583
26276W        W94494   8.888  24.499  12.821
26277W        W94495   3.829  20.439   0.155
26278W        W94496  44.872  26.366  11.624
26279W        W94497  31.115   1.013   0.955
26280W        W94498  22.183  25.860  12.389
26281W        W94499  15.267  29.191   2.740
26282W        W94500  26.018  36.302  11.080
26283W        W94501  22.630  25.080   0.360
26284W        W94502  20.685  39.740  11.103
26285W        W94503   3.676  42.142   4.164
26286W        W94504  38.482  27.643   4.386
26287W        W94505  28.094  22.531  10.651
26288W        W94506  25.262  32.598  11.192
26289W        W94507  11.127  22.441   0.872
26290W        W94508   1.511   6.727   3.864
26291W        W94509   3.935  21.890   1.437
26292W        W94510  33.289   4.064  11.178
26293W        W94511   8.315   7.918   4.391
26294W        W94512  37.399   3.498  13.343
26295W        W94513  37.860  20.963   2.976
26296W        W94514  36.323  32.201  13.878
26297W        W94515  39.835   5.848  11.875
26298W        W94516  34.297  13.102   4.029
26299W        W94517  18.759  42.589   4.679
26300W        W94518  33.046   7.413   2.283
26301W        W94519   5.029  28.584  12.902
26302W        W94520   4.527  33.867  13.837
26303W        W94521   3.227  35.765  14.700
26304W        W94522  28.244   5.849  14.900
26305W        W94523  20.818   7.941   4.190
26306W        W94524  35.504  18.273   3.257
26307W        W94525  31.062  38.540  14.501
26308W        W94526  27.283  30.192   4.893
26309W        W94527  29.060  34.482   4.102
26310W        W94528  33.064  25.294  11.527
26311W        W94529   3.405  32.331  14.969
26312W        W94530  34.127   1.773  11.965
26313W        W94531  15.342  44.479  11.921
26314W        W94532  29.029  31.694   2.777
26315W        W94533  36.445  38.749   0.866
26316W        W94534  27.915   1.812  14.336
26317W        W94535  20.713  12.174  10.403
26318W        W94536  15.651  43.588   4.260
26319W        W94537   7.263   6.465  14.284
26320W        W94538  35.909  29.004  12.006
26321W        W94539  21.229   7.559   3.673
26322W        W94540  28.109   7.314  12.530
26323W        W94541   6.925   1.188  11.676
26324W        W94542  18.812  25.973  11.001
26325W        W94543  11.812  15.596  14.998
26326W        W94544  23.250  19.228  13.892
26327W        W94545  12.642  26.498  11.043
26328W        W94546  15.446  33.283   4.074
26329W        W94547  18.818  30.164   2.616
26330W        W94548  31.619   2.254  12.868
26331W        W94549  39.103  41.975   2.774
26332W        W94550  33.366  19.138   4.957
26333W        W94551   7.776   0.351   2.810
26334W        W94552  22.040  24.093  14.550
26335W        W94553   0.705  39.384   0.277
26336W        W94554  22.762  24.271  10.732
26337W        W94555  15.249  15.922   1.921
26338W        W94556  37.854  41.635   2.888
26339W        W94557   4.459   7.484   4.264
26340W        W94558  28.569  17.843  13.734
26341W        W94559   2.873   5.833   3.762
26342W        W94560  12.255  35.877   0.439
26343W        W94561  35.389  27.605  12.551
26344W        W94562  25.064  40.074   1.308
26345W        W94563  41.308  24.977   2.275
26346W        W94564  28.630  12.605  11.929
26347W        W94565   1.430  17.175   4.343
26348W        W94566  10.269  39.740   0.778
26349W        W94567  25.507  14.002   4.421
26350W        W94568  41.518  41.083  13.396
26351W        W94569   4.764  10.058   2.802
26352W        W94570  29.136  28.935   2.166
26353W        W94571  28.005  37.592  13.372
26354W        W94572  28.226  33.410   2.728
26355W        W94573  33.546  37.085  13.896
26356W        W94574  18.685  29.505  13.856
26357W        W94575  16.605   1.713  10.555
26358W        W94576  43.791  24.952  14.283
26359W        W94577  20.986  17.241  14.546
26360W        W94578  34.110  28.670   2.394
26361W        W94579   5.927  29.161   4.168
26362W        W94580   6.611  36.978   4.726
26363W        W94581  19.633  38.858   0.411
26364W        W94582  11.826  34.336  11.155
26365W        W94583  14.285   8.835  13.875
26366W        W94584  32.776  19.608  10.534
26367W        W94585  41.788  21.703  11.704
26368W        W94586   5.434   7.147  13.920
26369W        W94587  19.017  32.157  14.515
26370W        W94588  16.009   9.893   1.737
26371W        W94589  15.121  28.145  12.959
26372W        W94590  34.188   4.304  11.592
26373W        W94591  13.323  17.639   3.210
26374W        W94592  42.322  43.076   0.485
26375W        W94593  17.606  19.209  13.104
26376W        W94594   4.843  22.072   0.406
26377W        W94595  33.853   3.705  12.162
26378W        W94596  35.130   2.023  12.876
26379W        W94597   1.887  37.558   1.925
26380W        W94598  22.724   6.028   0.986
26381W        W94599  42.058  23.124  13.829
26382W        W94600  27.770  13.678  10.958
26383W        W94601  24.150  39.968  13.534
26384W        W94602  34.816  42.620  14.784
26385W        W94603   5.349   8.599  13.351
26386W        W94604  18.112  35.616  11.136
26387W        W94605   2.860  20.900  10.749
26388W        W94606  33.272  12.697   1.298
26389W        W94607  16.569  16.558   3.674
26390W        W94608  17.719  30.849  14.590
26391W        W94609  14.692   9.226  13.977
26392W        W94610  21.717  11.837   0.512
26393W        W94611  23.677  43.008  13.066
26394W        W94612  13.932   9.280   4.811
26395W        W94613   9.160  25.200   4.777
26396W        W94614  23.099  44.691   3.669
26397W        W94615  43.788  38.419   4.136
26398W        W94616  25.005  40.281   3.665
26399W        W94617  13.780  26.706  12.100
26400W        W94618  36.383  43.860   3.082
26401W        W94619   9.373  20.018   4.905
26402W        W94620  22.613  19.717  11.471
26403W        W94621  10.709  24.012   4.099
26404W        W94622  24.015  17.696   3.175
26405W        W94623  36.917  29.064   3.189
26406W        W94624  40.569  39.917  14.446
26407W        W94625  33.925   7.491   4.135
26408W        W94626  34.340  24.596  11.248
26409W        W94627   6.370  35.614   1.313
26410W        W94628  23.197  38.959   4.450
26411W        W94629  12.804   1.517   4.626
26412W        W94630  15.113  40.132  11.382
26413W        W94631  22.809   6.802   4.193
26414W        W94632  18.481   3.838  13.543
26415W        W94633  30.992  41.047  13.061
26416W        W94634   1.161  16.393   3.697
26417W        W94635  21.059  37.407   3.613
26418W        W94636  12.684  30.567   1.548
26419W        W94637  39.816  21.208  13.941
26420W        W94638  30.146   3.639   3.140
26421W        W94639   8.727  18.622  14.305
26422W        W94640  12.088  36.843   1.762
26423W        W94641  24.466  40.029   0.134
26424W        W94642   7.786  40.682  13.470
26425W        W94643  20.900  25.045   2.206
26426W        W94644  41.910  28.903   3.729
26427W        W94645   3.281  35.893   0.195
26428W        W94646  22.551   5.795  12.563
26429W        W94647  10.719  20.196   3.472
26430W        W94648  25.970  38.445   2.281
26431W        W94649   1.145  38.911  11.119
26432W        W94650  14.626  16.172  12.602
26433W        W94651  15.087  11.859  14.819
26434W        W94652  13.254  36.887  14.025
26435W        W94653   7.935  44.822   4.667
26436W        W94654  10.249  35.680  11.192
26437W        W94655  14.140  31.952   5.106
26438W        W94656  36.894  30.165  12.480
26439W        W94657   2.383  20.043  12.545
26440W        W94658   7.521  10.713   4.462
26441W        W94659   6.759  34.423  13.896
26442W        W94660   3.176  17.555  10.689
26443W        W94661  40.002  36.409   1.246
26444W        W94662  25.903  30.695  12.811
26445W        W94663   9.580  44.884   4.699
26446W        W94664  41.071  42.681  13.397
26447W        W94665  19.274  36.361   2.762
26448W        W94666  10.244  39.567  11.138
26449W        W94667  29.216  29.886   2.297
26450W        W94668  44.215   2.279  13.788
26451W        W94669  43.384   7.580   2.201
26452W        W94670  31.091  38.045   2.406
26453W        W94671   8.370  41.869  14.484
26454W        W94672  40.667  16.096  13.183
26455W        W94673  31.458   4.412  13.417
26456W        W94674   6.815  41.443  12.126
26457W        W94675  15.671  23.553  10.786
26458W        W94676  20.928  23.899   2.825
26459W        W94677  35.462  28.545  13.640
26460W        W94678   0.112  30.982   3.071
26461W        W94679   8.414  13.847   1.779
26462W        W94680  35.015  10.631  14.829
26463W        W94681  16.200  28.130  10.686
26464W        W94682   1.487  25.293   1.220
26465W        W94683   7.265  26.471   4.383
26466W        W94684  44.772  21.869  12.493
26467W        W94685   8.341  42.310   0.348
26468W        W94686  11.797  15.842  13.117
26469W        W94687   1.985  14.263  11.002
26470W        W94688  13.677   8.805   1.911
26471W        W94689   9.394   0.863   0.120
26472W        W94690  36.837   4.167   0.531
26473W        W94691  19.927  26.986  12.342
26474W        W94692   3.257   0.002   2.165
26475W        W94693   2.327  42.576   4.026
26476W        W94694  25.984  25.182   0.913
26477W        W94695  30.450  40.939   4.184
26478W        W94696  15.870  31.001   2.871
26479W        W94697  11.614  11.679   5.058
26480W        W94698  25.923  18.215  12.617
26481W        W94699  10.675  42.707   3.842
26482W        W94700  14.174  29.501  13.483
26483W        W94701  33.476  31.144   1.450
26484W        W94702  36.334  44.477  13.575
26485W        W94703  34.330  37.862   1.874
26486W        W94704  40.739  44.296   0.762
26487W        W94705  44.265  18.067   1.416
26488W        W94706  31.869  15.350  10.727
26489W        W94707  14.995   2.651  12.450
26490W        W94708  21.079   2.770   3.771
26491W        W94709  28.920  24.601  11.328
26492W        W94710  32.701  42.920  11.931
26493W        W94711  15.818  19.555   0.727
26494W        W94712   3.874   0.238  12.385
26495W        W94713  12.920  34.623   1.935
26496W        W94714  28.855   8.441  14.972
26497W        W94715  29.873  12.637  14.407
26498W        W94716  42.970  25.387   2.442
26499W        W94717   1.268  33.186   0.810
26500W        W94718  13.119  15.847   0.024
26501W        W94719  35.006  18.710  10.959
26502W        W94720  33.937   1.439  13.077
26503W        W94721  24.367  11.598   0.230
26504W        W94722  32.928  27.337  14.305
26505W        W94723  14.789  16.682   4.655
26506W        W94724  32.185  16.470   2.715
26507W        W94725  14.101  23.966  13.429
26508W        W94726   8.610  41.676  14.932
26509W        W94727   5.461  40.026   0.377
26510W        W94728  41.827  28.510  12.040
26511W        W94729  14.258  10.116  12.969
26512W        W94730  35.337  30.420   1.339
26513W        W94731  16.160  32.409  13.218
26514W        W94732  37.606  13.134  13.800
26515W        W94733  25.982   0.697   4.280
26516W        W94734   2.500   3.437   1.847
26517W        W94735  27.958  17.166  11.697
26518W        W94736  32.574   6.002  14.290
26519W        W94737  15.041  35.411  14.990
26520W        W94738  37.389  21.172  14.757
26521W        W94739   9.859  33.097   0.412
26522W        W94740   8.892  40.111   1.179
26523W        W94741  24.889  39.513   0.871
26524W        W94742  13.016  16.666  14.055
26525W        W94743  27.538  19.934   0.549
26526W        W94744  14.855  32.225  14.531
26527W        W94745  20.558  18.175   1.774
26528W        W94746  38.063  16.264   0.709
26529W        W94747   8.141   4.363   4.261
26530W        W94748  44.247  27.730  12.362
26531W        W94749  25.857  33.558   4.094
26532W        W94750  14.251  13.667  13.348
26533W        W94751  33.000   8.746   1.766
26534W        W94752  27.222  27.714   4.120
26535W        W94753  38.069  14.754  14.069
26536W        W94754  40.929  13.166   0.408
26537W        W94755  29.530   3.327   0.441
26538W        W94756  41.370  36.438  12.474
26539W        W94757  13.801  14.678   0.321
26540W        W94758   3.355   1.266   0.830
26541W        W94759   8.889  42.929   4.409
26542W        W94760  10.729  39.540   1.589
26543W        W94761  42.389   5.213   1.660
26544W        W94762  11.288  17.525   0.342
26545W        W94763   7.790  36.556  11.049
26546W        W94764  26.601   2.831   2.650
26547W        W94765   1.836  17.721  13.352
26548W        W94766  19.738  25.573   4.124
26549W        W94767  28.153  12.288  14.097
26550W        W94768  34.048  14.215   0.171
26551W        W94769  22.201   4.764  14.896
26552W        W94770  26.547   2.409   0.023
26553W        W94771  31.576  26.518   3.621
26554W        W94772   5.658  36.987   0.771
26555W        W94773  11.168   7.763   4.684
26556W        W94774  10.814  42.597   0.788
26557W        W94775  21.009   6.693   0.471
26558W        W94776  11.164  29.609  12.117
26559W        W94777  44.667  39.078  12.073
26560W        W94778  30.561  40.542  13.824
26561W        W94779  44.331  24.934  13.388
26562W        W94780   0.692   4.848  13.400
26563W        W94781  10.854  39.106   1.907
26564W        W94782  36.583  26.048  10.199
26565W        W94783  41.355  30.108  12.343
26566W        W94784  10.603   8.557  13.850
26567W        W94785   7.284  44.058  11.185
26568W        W94786  24.600  42.960  12.973
26569W        W94787   9.656  37.988  11.291
26570W        W94788   5.168  17.915   1.634
26571W        W94789  42.099  10.198  12.913
26572W        W94790  31.481  29.056   1.817
26573W        W94791  28.426  35.994  11.498
26574W        W94792  32.488  29.660  11.528
26575W        W94793   3.333  11.039  14.357
26576W        W94794  29.476  20.597   3.057
26577W        W94795  34.852  20.251   0.021
26578W        W94796  41.800  32.167   1.421
26579W        W94797  16.155  42.504  10.304
26580W        W94798  25.702  25.275   2.251
26581W        W94799  20.136  27.232   0.916
26582W        W94800  32.899  29.170   0.497
26583W        W94801  35.396  16.589   3.150
26584W        W94802  19.081  30.677  11.558
26585W        W94803   9.312  29.045   0.619
26586W        W94804  44.051  10.913   3.156
26587W        W94805  33.541  41.880  10.689
26588W        W94806  43.569  40.507   3.738
26589W        W94807  19.238  34.751   3.038
26590W        W94808  31.290  16.243   4.462
26591W        W94809  36.910  26.380   4.345
26592W        W94810  32.989  35.651  11.610
26593W        W94811  40.368  10.880  14.022
26594W        W94812  41.284  33.597  14.335
26595W        W94813  35.766  37.338   4.055
26596W        W94814  41.871  22.412   2.842
26597W        W94815   1.529  20.183  14.285
26598W        W94816  37.021  19.136   2.828
26599W        W94817   0.859  18.369  10.545
26600W        W94818  34.045   4.094  13.251
26601W        W94819  34.802  38.280   1.151
26602W        W94820  31.571  10.483  14.881
26603W        W94821  19.355  11.677  12.048
26604W        W94822  26.062  28.419  14.029
26605W        W94823  26.973  25.330  11.556
26606W        W94824  37.574   9.619  12.801
26607W        W94825  23.542  29.242  10.365
26608W        W94826  23.072  13.545   0.748
26609W        W94827  21.725  34.047   4.002
26610W        W94828  25.934  37.356   2.785
26611W        W94829  16.209   4.457   2.699
26612W        W94830  15.709  10.412   4.504
26613W        W94831   8.771   9.584  11.559
26614W        W94832  13.217  11.815  13.514
26615W        W94833  13.184  23.791   0.361
26616W        W94834  29.967  21.493   0.381
26617W        W94835  36.004  16.227  12.019
26618W        W94836  14.724  30.050   3.907
26619W        W94837  33.449  33.116   2.076
26620W        W94838  14.074  29.421  11.045
26621W        W94839  23.381  14.110   2.366
26622W        W94840   6.809  16.034  11.059
26623W        W94841   5.391  23.937   1.985
26624W        W94842  33.878  33.039   2.953
26625W        W94843  10.178   1.922  10.795
26626W        W94844  28.452  25.210  12.569
26627W        W94845  42.885  32.920   4.869
26628W        W94846   6.452  17.776  11.571
26629W        W94847  33.439   7.301  14.089
26630W        W94848  31.919  28.934   3.756
26631W        W94849  35.438   6.739  14.810
26632W        W94850  42.277  31.078   4.449
26633W        W94851  15.071   4.932  10.555
26634W        W94852  21.529   2.665   0.229
26635W        W94853  44.488  32.514   0.768
26636W        W94854  33.041  20.229   2.850
26637W        W94855   1.979  32.985  11.555
26638W        W94856  31.553   2.609   0.105
26639W        W94857  12.399   9.918  12.872
26640W        W94858  11.252  15.317   1.849
26641W        W94859  36.383  10.074   2.698
26642W        W94860  38.903  43.548   1.688
26643W        W94861   6.247  38.104   1.292
26644W        W94862  44.512  40.453  11.091
26645W        W94863  36.433  33.388  13.748
26646W        W94864  42.582  29.115   2.695
26647W        W94865  33.983   3.942   0.262
26648W        W94866  43.502  23.998   3.639
26649W        W94867  22.181  30.184  13.756
26650W        W94868  40.408   4.684  13.457
26651W        W94869   6.661  35.901   0.969
26652W        W94870   0.637   6.989   2.849
26653W        W94871  33.572  37.910   0.300
26654W        W94872  39.958   6.729   1.536
26655W        W94873  38.093   0.688  10.649
26656W        W94874   6.405  24.969  11.609
26657W        W94875  28.343  17.768   4.587
26658W        W94876  44.158  27.652  13.879
26659W        W94877   6.665  20.732  13.339
26660W        W94878  35.919  25.537  12.364
26661W        W94879  19.268  19.377   0.443
26662W        W94880   4.355   9.850   4.623
26663W        W94881  38.846  16.032   0.913
26664W        W94882  10.946  31.611   2.629
26665W        W94883  24.938  20.088  12.373
26666W        W94884  43.939  28.159   1.667
26667W        W94885  33.890  33.850  14.383
26668W        W94886  13.287   3.649   3.674
26669W        W94887  34.965   0.277   4.018
26670W        W94888  25.187  20.666  13.487
26671W        W94889   3.461  41.867   5.016
26672W        W94890  19.210  25.978   0.339
26673W        W94891  30.063  19.727   4.062
26674W        W94892   9.498   2.769  12.023
26675W        W94893  36.161  21.057  13.814
26676W        W94894  43.183  36.945  12.478
26677W        W94895   8.795  41.691   2.821
26678W        W94896  28.719  24.650   1.634
26679W        W94897   1.907  42.557  12.973
26680W        W94898   9.881  42.417  14.318
26681W        W94899  32.855  43.522   0.502
26682W        W94900  44.339  21.258  12.004
26683W        W94901  17.235  18.251  11.039
26684W        W94902  11.836  27.002   1.945
26685W        W94903  12.961  36.549   2.734
26686W        W94904   3.275  29.185   1.132
26687W        W94905   0.353   0.335   2.548
26688W        W94906  41.967  41.740  11.554
26689W        W94907  14.428  35.763   2.227
26690W        W94908   2.701  28.847  12.372
26691W        W94909  36.823  16.668   2.697
26692W        W94910   6.059  19.153   0.944
26693W        W94911  23.009  34.070  12.040
26694W        W94912  40.337  41.728  12.373
26695W        W94913  34.433  26.178  13.420
26696W        W94914  30.019   6.974   3.660
26697W        W94915  30.996  20.758  14.349
26698W        W94916  33.549   0.367   3.403
26699W        W94917  27.502  32.344   1.505
26700W        W94918   5.688  38.311   1.477
26701W        W94919  33.109  11.082  12.241
26702W        W94920   8.771   1.689   2.813
26703W        W94921  29.632   2.159  14.872
26704W        W94922   2.788  21.360   0.820
26705W        W94923  22.121  11.712  11.634
26706W        W94924  34.593   2.981  12.358
26707W        W94925  17.599  42.438  12.633
26708W        W94926  30.859   5.790  10.151
26709W        W94927  18.850   0.204   1.846
26710W        W94928  22.975  21.040  13.916
26711W        W94929  13.051   8.932  13.929
26712W        W94930   5.432  39.933   1.279
26713W        W94931  37.442  44.212   2.408
26714W        W94932  19.580  20.925   3.950
26715W        W94933   2.803  16.624   2.261
26716W        W94934  33.993   2.057   1.802
26717W        W94935  43.298  21.659   2.761
26718W        W94936  40.554  17.979   3.095
26719W        W94937  28.693   7.559   3.108
26720W        W94938  33.526  32.153  11.641
26721W        W94939  14.848  33.064   3.503
26722W        W94940  31.012  18.677   3.066
26723W        W94941  44.859  14.755   4.496
26724W        W94942  34.584  37.258   2.291
26725W        W94943  33.536   6.793  14.004
26726W        W94944   9.748  23.753  14.593
26727W        W94945  32.995   7.314   3.608
26728W        W94946  29.064  31.077   1.136
26729W        W94947   2.055  35.901   3.766
26730W        W94948  42.272  13.060   1.863
26731W        W94949  42.000  44.511  12.881
26732W        W94950   0.309  13.810   3.702
26733W        W94951  10.184  35.449  12.893
26734W        W94952  12.094  27.711  14.541
26735W        W94953  20.636   7.018  11.174
26736W        W94954  36.354  32.469   2.376
26737W        W94955  30.463  13.569   2.066
26738W        W94956  36.055   6.439  10.666
26739W        W94957  44.263  15.823  11.148
26740W        W94958   1.740  41.043   1.679
26741W        W94959  31.385   6.371  14.691
26742W        W94960  14.185   5.146  10.395
26743W        W94961  44.493  18.494   5.094
26744W        W94962  30.671   7.484   4.441
26745W        W94963   3.286  33.273  10.964
26746W        W94964  28.957  24.448   4.827
26747W        W94965  38.832  44.257   3.276
26748W        W94966  11.046  26.729  10.495
26749W        W94967   8.947  18.137   0.223
26750W        W94968  23.225  33.562  12.840
26751W        W94969   2.711  32.082  13.530
26752W        W94970  17.162  38.054  10.726
26753W        W94971  25.377  38.493  13.885
26754W        W94972   5.891   4.894  11.634
26755W        W94973   9.632  20.697   0.379
26756W        W94974  14.484  32.710   3.590
26757W        W94975  38.573  38.159  10.617
26758W        W94976  31.381  22.954  13.916
26759W        W94977  33.638  44.929  11.144
26760W        W94978  36.410  14.058  12.978
26761W        W94979   1.398  41.450   1.831
26762W        W94980   8.738  33.103  11.943
26763W        W94981   5.252   2.126   1.437
26764W        W94982  33.584  11.532  14.382
26765W        W94983  38.618   3.861   4.070
26766W        W94984  10.413  15.035  12.969
26767W        W94985  32.483  25.370  13.804
26768W        W94986  35.869  31.339   2.188
26769W        W94987   8.830  36.450  13.463
26770W        W94988  33.338  25.179  11.987
26771W        W94989  14.624  31.369  11.495
26772W        W94990  26.106  42.867  11.646
26773W        W94991  29.066  27.377   1.404
26774W        W94992  31.677  17.841   0.301
26775W        W94993  28.683   7.832   2.379
26776W        W94994  27.429   7.903  12.039
26777W        W94995  43.031  21.953  10.694
26778W        W94996  38.557  10.807  13.857
26779W        W94997  39.454   7.149   0.443
26780W        W94998  32.412   0.643   2.838
26781W        W94999  41.052   7.483  12.492
26782W        W95000  37.831  35.066  11.993
26783W        W95001  15.722  26.865   1.278
26784W        W95002   7.729  38.611  12.672
26785W        W95003  34.006  23.490  13.387
26786W        W95004  42.480  37.599   1.724
26787W        W95005   3.148  43.383   2.362
26788W        W95006   3.808  29.633  13.110
26789W        W95007  24.615  41.120   2.221
26790W        W95008  38.510  43.630   4.056
26791W        W95009  42.338  33.345  10.409
26792W        W95010  36.268   7.635   1.674
26793W        W95011  41.394  17.074   3.115
26794W        W95012  13.158   4.265   1.737
26795W        W95013  23.998   4.714  14.343
26796W        W95014  37.850   1.683  13.361
26797W        W95015  39.290  17.059  14.417
26798W        W95016   1.869  36.421   1.852
26799W        W95017  22.705  42.396   4.221
26800W        W95018  37.542  37.423   3.201
26801W        W95019  23.094   4.736   3.605
26802W        W95020  19.070  17.871   2.587
26803W        W95021  26.214  44.250  11.146
26804W        W95022  33.425  39.812  11.884
26805W        W95023  24.641  41.866  13.519
26806W        W95024   2.495  41.095   4.188
26807W        W95025   1.703  27.045  12.121
26808W        W95026  21.838   6.391  14.409
26809W        W95027  29.164   1.784  11.594
26810W        W95028  31.053  44.271  13.448
26811W        W95029   7.361  20.627   3.401
26812W        W95030  24.558  39.184   4.449
26813W        W95031   1.945  31.388  13.375
26814W        W95032  17.116   7.173   2.305
26815W        W95033  22.269   2.269   0.397
26816W        W95034  36.612   4.739  10.895
26817W        W95035  19.763   6.287  14.385
26818W        W95036   6.430  38.847  12.209
26819W        W95037  12.670  31.411   1.627
26820W        W95038  32.158  44.193   2.810
26821W        W95039  21.019  16.860   4.418
26822W        W95040  20.971  40.464   1.988
26823W        W95041  41.406  12.717  11.087
26824W        W95042   9.327   5.228  11.617
26825W        W95043  30.978   0.338  12.558
26826W        W95044  22.807   7.303   4.034
26827W        W95045   5.747  25.929   4.893
26828W        W95046  26.714   3.975  12.904
26829W        W95047   9.070  24.129  10.683
26830W        W95048  23.512  11.377   4.670
26831W        W95049  17.374  19.332   4.134
26832W        W95050  42.968  27.909  10.732
26833W        W95051  11.142  37.258   4.518
26834W        W95052  21.799   3.344  11.023
26835W        W95053  29.204  20.047  13.906
26836W        W95054   2.346  35.577   3.427
26837W        W95055  25.821   4.873   4.682
26838W        W95056  44.699  30.864  13.824
26839W        W95057  34.616   5.254   4.750
26840W        W95058  17.112  30.873   0.973
26841W        W95059  18.482  34.504  10.123
26842W        W95060  13.368  34.239   0.761
26843W        W95061  43.186  14.537  10.764
26844W        W95062  11.190  42.581  11.648
26845W        W95063  14.125  42.482  10.707
26846W        W95064  28.202  40.957  10.741
26847W        W95065  25.616   6.467  12.139
26848W        W95066  41.913  44.655  10.494
26849W        W95067  15.263  26.607  11.738
26850W        W95068  38.361   6.974   2.432
26851W        W95069  44.441  41.704  12.564
26852W        W95070  20.256  43.828   4.606
26853W        W95071  43.874  23.510  14.029
26854W        W95072  16.636  28.589  11.982
26855W        W95073   4.758   9.843  12.803
26856W        W95074  36.574   8.434   3.774
26857W        W95075  38.894  32.827  14.682
26858W        W95076  10.958  22.284   2.144
26859W        W95077  31.352   7.762   2.693
26860W        W95078  34.453  12.693  14.426
26861W        W95079  10.787   1.809  14.209
26862W        W95080   1.829  22.038   2.233
26863W        W95081  40.614  35.790   5.333
26864W        W95082  14.110  25.503  12.025
26865W        W95083   1.921  21.706  13.623
26866W        W95084  28.411  10.421  14.149
26867W        W95085  36.703  18.900  12.761
26868W        W95086  43.890  16.876  11.535
26869W        W95087  30.069  34.379  11.841
26870W        W95088  27.507  41.094   1.954
26871W        W95089  21.039  28.876   0.989
26872W        W95090  39.803   2.857  11.632
26873W        W95091  37.409  17.833   4.177
26874W        W95092   3.158  12.297  11.387
26875W        W95093  10.249  41.897  12.972
26876W        W95094  37.871  32.359   2.772
26877W        W95095  18.491  30.499   2.395
26878W        W95096  31.967  42.207  13.950
26879W        W95097   7.519  29.698  11.970
26880W        W95098  12.608  21.371  12.227
26881W        W95099  24.672  18.308   2.559
26882W        W95100   3.012   6.840   2.659
26883W        W95101  13.654  33.556  10.673
26884W        W95102  12.224  32.428  14.337
26885W        W95103  36.789  34.157  13.793
26886W        W95104  30.451  20.899  10.964
26887W        W95105  33.213  27.180   4.000
26888W        W95106  14.402  16.216  14.808
26889W        W95107  18.680   8.246  12.445
26890W        W95108  25.010  32.654   0.267
26891W        W95109   6.247   1.774  11.086
26892W        W95110  17.319  39.965   4.142
26893W        W95111  16.571  15.505  14.251
26894W        W95112  13.868   5.235  12.074
26895W        W95113  25.526  12.119   0.816
26896W        W95114  44.358   7.641   3.567
26897W        W95115  37.575   5.599  11.842
26898W        W95116   2.363   2.954  11.567
26899W        W95117  15.151  12.555  11.235
26900W        W95118   2.279  21.396  11.239
26901W        W95119  18.660   8.950   1.489
26902W        W95120  19.741  25.914   2.687
26903W        W95121  19.351  15.388   4.250
26904W        W95122   5.636  36.979  12.488
26905W        W95123   5.238  27.000  14.818
26906W        W95124  34.408  25.087  13.913
26907W        W95125   1.876  12.948  11.663
26908W        W95126  17.474   2.917  13.905
26909W        W95127   8.623  17.872   1.596
26910W        W95128   6.835  39.659   2.206
26911W        W95129   5.298  28.963  14.547
26912W        W95130  38.877  18.671  13.533
26913W        W95131  42.902   8.856  12.945
26914W        W95132  13.297   0.577   2.171
26915W        W95133  22.922  15.194   4.539
26916W        W95134  36.106  26.211  12.939
26917W        W95135  12.881  18.838   0.226
26918W        W95136  30.224  44.366  11.308
26919W        W95137  26.015  21.244  14.392
26920W        W95138  19.983  44.911   2.784
26921W        W95139  38.438  25.653   2.736
26922W        W95140  44.727  13.108  14.420
26923W        W95141   5.085   0.286  11.059
26924W        W95142   4.892  17.858  13.502
26925W        W95143  12.790  16.625   3.416
26926W        W95144  29.487  38.571  14.318
26927W        W95145  20.466  14.749   4.092
26928W        W95146  41.897  10.390  11.141
26929W        W95147   9.281  24.866  12.945
26930W        W95148  18.336  25.623   1.937
26931W        W95149  20.197  27.818  10.659
26932W        W95150   9.157  18.873  14.926
26933W        W95151   0.818  41.356   1.696
26934W        W95152  14.653  41.940   1.686
26935W        W95153   5.967  22.695   3.770
26936W        W95154  20.511  39.767  12.012
26937W        W95155  22.682  18.772  12.913
26938W        W95156  42.516  37.470  11.876
26939W        W95157  11.209  12.544  12.556
26940W        W95158  35.569  19.560  11.127
26941W        W95159  37.096  18.310   2.187
26942W        W95160  22.227   9.394  10.542
26943W        W95161  11.218  43.021   2.052
26944W        W95162  25.199  42.295   1.859
26945W        W95163  12.178  16.562  11.351
26946W        W95164  26.793  27.108   2.396
26947W        W95165   9.724  31.896  13.159
26948W        W95166  13.762  37.919  13.997
26949W        W95167  37.430  40.011   3.890
26950W        W95168  25.028  15.687   0.760
26951W        W95169   9.158  30.626  14.764
26952W        W95170  34.593  31.198   1.704
26953W        W95171  41.870  37.700   4.547
26954W        W95172  13.136  38.106  10.872
26955W        W95173  15.352   7.076  14.719
26956W        W95174  38.388  34.502  13.567
26957W        W95175  33.877  16.378  10.670
26958W        W95176  35.431  35.949   4.671
26959W        W95177  34.735  26.482   3.651
26960W        W95178   4.212  32.476  11.663
26961W        W95179  14.197   4.529   4.619
26962W        W95180  41.543  43.229  12.969
26963W        W95181  44.845  24.265   3.722
26964W        W95182  24.682  32.661   4.076
26965W        W95183  29.464  14.155  11.642
26966W        W95184   5.971  41.324  12.076
26967W        W95185   7.661  19.609   4.565
26968W        W95186  27.627  30.170   1.217
26969W        W95187  32.459  44.247  10.767
26970W        W95188   1.017  27.667   0.876
26971W        W95189  17.510  34.407   3.286
26972W        W95190  27.451   5.409   4.132
26973W        W95191  22.221  16.491   1.847
26974W        W95192  10.810  35.364  13.837
26975W        W95193  16.093   7.162   0.916
26976W        W95194  13.051  25.713   4.598
26977W        W95195  28.237   6.993   2.858
26978W        W95196   8.244  28.515   4.543
26979W        W95197  37.501  13.165  12.856
26980W        W95198  35.344  29.094   2.072
26981W        W95199  15.756  30.389  11.514
26982W        W95200  40.348  23.259  14.546
26983W        W95201  15.344  31.952  11.788
26984W        W95202  38.386  25.243  13.464
26985W        W95203   3.884  32.106   2.444
26986W        W95204  36.430  33.363  13.236
26987W        W95205  12.843  16.028   3.549
26988W        W95206  35.324   8.220   2.634
26989W        W95207  28.833  31.954   1.208
26990W        W95208  25.897  42.042   0.394
26991W        W95209  44.409  40.728   3.705
26992W        W95210  10.278  27.266  10.434
26993W        W95211  36.024  29.678   4.573
26994W        W95212  42.418  27.953   3.693
26995W        W95213   3.198  43.358   0.307
26996W        W95214  40.070   5.243   4.013
26997W        W95215  44.200  19.562  12.282
26998W        W95216  20.488  38.509   0.266
26999W        W95217  24.186  39.249   1.889
27000W        W95218  30.585  34.608   3.161
27001W        W95219  28.382  16.438  10.170
27002W        W95220  12.892  42.580   3.792
27003W        W95221  16.418  41.855   3.301
27004W        W95222  33.428  36.665  11.974
27005W        W95223  17.965  10.606   0.783
27006W        W95224   2.876  28.939   1.387
27007W        W95225  36.326  13.417  13.553
27008W        W95226   1.413  22.922  11.950
27009W        W95227  39.053  29.442  14.780
27010W        W95228  22.982  14.600   0.955
27011W        W95229  20.189  26.192   3.593
27012W        W95230  30.658  11.204   1.962
27013W        W95231  14.127  15.943   0.166
27014W        W95232  35.877  27.092   2.333
27015W        W95233  14.034  21.193   0.786
27016W        W95234  24.593  12.800  14.965
27017W        W95235  13.590  40.448  11.140
27018W        W95236  20.237  38.507   3.240
27019W        W95237   2.776  13.817  13.951
27020W        W95238  16.243  33.057   3.640
27021W        W95239  19.309   7.917   4.594
27022W        W95240  20.654  40.309   4.014
27023W        W95241  27.726  33.407   2.729
27024W        W95242  13.293  10.757   0.115
27025W        W95243   0.591   4.637  12.930
27026W        W95244  44.454  25.458   4.849
27027W        W95245  26.386  10.862  12.337
27028W        W95246  33.669  11.075   9.978
27029W        W95247  16.952  40.871  14.732
27030W        W95248  44.738   5.984   2.780
27031W        W95249  18.546   0.358   2.297
27032W        W95250   5.812   9.248  11.922
27033W        W95251  43.931  34.067   4.879
27034W        W95252  10.297  26.855  13.806
27035W        W95253  28.045  37.935   4.404
27036W        W95254  33.078  28.850  11.598
27037W        W95255  44.085  42.212  14.482
27038W        W95256  19.036  34.436   0.414
27039W        W95257  12.199  44.846  13.009
27040W        W95258  11.239   4.030  13.767
27041W        W95259  44.869  32.652   2.693
27042W        W95260   0.361   4.378   4.582
27043W        W95261  39.479  24.593   4.231
27044W        W95262   9.712  20.701   2.212
27045W        W95263  36.597  38.872   0.392
27046W        W95264  34.592  33.364   2.828
27047W        W95265  41.405  17.251  12.014
27048W        W95266   6.149  12.307  14.992
27049W        W95267   1.550  24.306   4.832
27050W        W95268  19.015   5.234  14.112
27051W        W95269   0.999   5.213  13.092
27052W        W95270  28.890  22.594   2.353
27053W        W95271  33.302  32.653  13.574
27054W        W95272  33.445  16.857  10.322
27055W        W95273  35.215   7.468   4.440
27056W        W95274  25.689   5.916  12.220
27057W        W95275  33.518  36.640   4.126
27058W        W95276  29.718   9.606  14.352
27059W        W95277  37.023  37.466   3.286
27060W        W95278   6.557   8.582  14.752
27061W        W95279  15.644  29.217  10.218
27062W        W95280  26.131  22.707   1.184
27063W        W95281  43.156  14.169  12.158
27064W        W95282  33.454  18.341   2.296
27065W        W95283  18.869  15.647  10.538
27066W        W95284  29.138  16.177  11.604
27067W        W95285  24.983   1.922   0.292
27068W        W95286   3.204  34.455   1.451
27069W        W95287  28.167  23.638   2.646
27070W        W95288  22.514  30.441   3.054
27071W        W95289  23.474   1.486  11.927
27072W        W95290  25.111  34.090   1.836
27073W        W95291  32.614   8.931   9.819
27074W        W95292  42.751  34.882   2.752
27075W        W95293   2.948   8.566   9.935
27076W        W95294  15.835  12.189  12.466
27077W        W95295  44.282  24.414   4.948
27078W        W95296  10.865  22.713   9.829
27079W        W95297  42.891  14.251   3.796
27080W        W95298  20.143  43.759   3.236
27081W        W95299  18.294  21.460  14.723
27082W        W95300  19.637  12.876   3.366
27083W        W95301   5.930  38.824   1.758
27084W        W95302  27.316  31.640  10.985
27085W        W95303  10.288  16.243   1.785
27086W        W95304   9.750  21.004   0.832
27087W        W95305  34.401   1.459   3.380
27088W        W95306  33.030  30.038  12.614
27089W        W95307  43.018  24.626   0.694
27090W        W95308  17.082   3.241   1.430
27091W        W95309  42.982  14.579   0.072
27092W        W95310   6.401  16.166   3.617
27093W        W95311  39.365  12.717  11.556
27094W        W95312  22.260  19.494  11.161
27095W        W95313  14.118  42.434   3.825
27096W        W95314  20.069  40.362   1.540
27097W        W95315   3.914  35.513  14.316
27098W        W95316  25.523   4.424  11.265
27099W        W95317  19.736   4.038   4.144
27100W        W95318  39.978  43.509  12.804
27101W        W95319  25.506  31.673   3.804
27102W        W95320  29.935  41.871   3.157
27103W        W95321   8.017  42.284   2.720
27104W        W95322  12.938   3.450  11.559
27105W        W95323  22.997  11.867   1.248
27106W        W95324  12.285   3.915   1.840
27107W        W95325  30.925  43.340  10.381
27108W        W95326   8.608  38.298  13.800
27109W        W95327  15.072  17.330   4.495
27110W        W95328  26.769   9.553  12.829
27111W        W95329  38.805  38.019   3.703
27112W        W95330   8.935  17.287   3.158
27113W        W95331  16.384  41.635  10.740
27114W        W95332  15.615  10.359  13.588
27115W        W95333  13.006  43.838  10.265
27116W        W95334  24.954  43.612  11.079
27117W        W95335  35.983  29.663  10.544
27118W        W95336  37.080  34.656  14.846
27119W        W95337  23.768  18.621   1.766
27120W        W95338   8.189  33.484   0.382
27121W        W95339  33.648  34.199   3.706
27122W        W95340  29.681  41.262  12.040
27123W        W95341  11.673  10.824   4.213
27124W        W95342  21.276   8.200   4.199
27125W        W95343  36.265  16.249   0.118
27126W        W95344  20.748  33.034   4.925
27127W        W95345   7.270  16.907   3.545
27128W        W95346  31.902  42.434   2.876
27129W        W95347  28.471  34.460  10.981
27130W        W95348  10.630  21.103  10.509
27131W        W95349  12.073  11.257   4.198
27132W        W95350  38.404  18.036   1.738
27133W        W95351  16.589  31.117   0.367
27134W        W95352  11.700  19.041   0.959
27135W        W95353  32.459  21.618  13.304
27136W        W95354  13.196   8.810   2.121
27137W        W95355  21.036  31.844  14.025
27138W        W95356  39.480  36.874  11.991
27139W        W95357  16.181  10.578   9.878
27140W        W95358  24.506  38.853  12.953
27141W        W95359  15.978   3.259  10.851
27142W        W95360  40.804  44.853   2.345
27143W        W95361  41.856  32.117   2.310
27144W        W95362   7.852  36.272  13.444
27145W        W95363  42.985   7.542   0.449
27146W        W95364   3.562  39.485  11.000
27147W        W95365  42.097  21.944   2.073
27148W        W95366  15.138  20.318  11.130
27149W        W95367  37.821  30.100   2.241
27150W        W95368   7.344   0.048  13.845
27151W        W95369   6.788  15.766   4.251
27152W        W95370  42.980  28.717   1.963
27153W        W95371  19.440  43.836   2.230
27154W        W95372  38.827  35.839  10.697
27155W        W95373  29.096   2.488  13.924
27156W        W95374  16.579  44.850  12.674
27157W        W95375   2.925  13.037  10.706
27158W        W95376   8.425  12.336  12.443
27159W        W95377  12.653   6.367  14.411
27160W        W95378   1.880   3.185   4.516
27161W        W95379  15.250  12.580  12.043
27162W        W95380   7.461   7.288   3.528
27163W        W95381  22.622  34.914  11.141
27164W        W95382  11.870   3.309   3.639
27165W        W95383   7.446  23.612  14.971
27166W        W95384  21.640  18.258  13.731
27167W        W95385  25.664  43.126  11.479
27168W        W95386  34.395  24.446   3.654
27169W        W95387  32.059  39.538   2.772
27170W        W95388  33.770   9.289   0.846
27171W        W95389  18.142  19.112  12.342
27172W        W95390   2.294   7.273  13.459
27173W        W95391  30.548  43.128  10.674
27174W        W95392  13.845  37.593   1.480
27175W        W95393   1.757  25.528  11.196
27176W        W95394   8.674  27.880   3.141
27177W        W95395  42.319  14.549   3.216
27178W        W95396  33.142   3.523   2.285
27179W        W95397  42.182  34.959   2.340
27180W        W95398  32.532  29.269  12.525
27181W        W95399  20.489  13.774   1.347
27182W        W95400   4.833   6.648   2.694
27183W        W95401  44.318  37.863  14.440
27184W        W95402  36.142  38.813  14.622
27185W        W95403  22.640  18.283   2.323
27186W        W95404  16.693   6.740   4.925
27187W        W95405  28.009  12.726  13.852
27188W        W95406  23.489  38.535  11.202
27189W        W95407   3.762  15.895  10.531
27190W        W95408  38.561  10.077   1.958
27191W        W95409  15.777  21.565  11.081
27192W        W95410   7.997  29.046   4.154
27193W        W95411   2.229  22.355  12.092
27194W        W95412   8.509   2.290   4.171
27195W        W95413  10.693  14.020  12.969
27196W        W95414  22.044   7.240  14.890
27197W        W95415  29.406  11.899   4.128
27198W        W95416  16.833  18.160  13.583
27199W        W95417   1.369   4.688   1.773
27200W        W95418  29.057  18.183   0.919
27201W        W95419  12.085   6.863   2.404
27202W        W95420   9.780  35.144  10.644
27203W        W95421   2.784  23.593  12.602
27204W        W95422  34.597   4.448  11.339
27205W        W95423  35.734  34.030   2.857
27206W        W95424   7.135  13.638   2.223
27207W        W95425  35.507  24.293  13.329
27208W        W95426   9.739  30.430   1.472
27209W        W95427  29.166  12.927  14.893
27210W        W95428   2.920  39.785   4.081
27211W        W95429  32.714  24.863   2.440
27212W        W95430  30.423  28.410   4.801
27213W        W95431  16.662  10.660   2.174
27214W        W95432  34.988  36.107   3.888
27215W        W95433  30.604  16.863   0.294
27216W        W95434   8.153  31.596   0.796
27217W        W95435  12.310  34.997  11.512
27218W        W95436  38.484  25.396   4.680
27219W        W95437  43.425  25.595   1.537
27220W        W95438  29.084  13.428   2.596
27221W        W95439  36.388  32.913  13.935
27222W        W95440  14.316  44.349  11.205
27223W        W95441  21.540  12.817  13.572
27224W        W95442  33.365  10.299   1.349
27225W        W95443  17.082  22.894   4.711
27226W        W95444   9.854  40.386   1.022
27227W        W95445  40.012  26.771   1.662
27228W        W95446   1.458  44.392  10.472
27229W        W95447  34.590  41.791  13.949
27230W        W95448  22.675  25.063  10.383
27231W        W95449   9.891  39.978   3.701
27232W        W95450   2.560  17.609   0.770
27233W        W95451  36.631  29.403  11.550
27234W        W95452   4.815  26.523  12.070
27235W        W95453  36.915  30.913   1.836
27236W        W95454   6.183  12.257   3.681
27237W        W95455  38.891  24.937  12.647
27238W        W95456  24.491  33.029  10.427
27239W        W95457  17.497   2.334   2.306
27240W        W95458  13.639  13.753  14.325
27241W        W95459  23.527  13.579  14.943
27242W        W95460  13.852  23.559  10.780
27243W        W95461  34.493  19.615   0.518
27244W        W95462  17.132   8.638  10.110
27245W        W95463  13.353  10.391   3.811
27246W        W95464  26.182  35.533  13.334
27247W        W95465  20.336  17.424  13.336
27248W        W95466  40.792  38.023  13.842
27249W        W95467  21.038   1.331   3.826
27250W        W95468   3.841  39.756   3.906
27251W        W95469  25.178  27.926   3.580
27252W        W95470   8.776   8.161  14.352
27253W        W95471  13.305  37.623  10.708
27254W        W95472  30.514  17.113  10.926
27255W        W95473  42.771  39.689   1.346
27256W        W95474  43.480  38.576  10.762
27257W        W95475  19.268  18.418  11.150
27258W        W95476  25.836  40.997   1.151
27259W        W95477   7.166  40.568  14.593
27260W        W95478  28.337  39.646  11.999
27261W        W95479  40.802  14.897   3.675
27262W        W95480  41.913  11.621  14.888
27263W        W95481  43.144  25.509   2.938
27264W        W95482  31.620  42.693  13.990
27265W        W95483  21.759  16.084   0.862
27266W        W95484   2.421  37.192   4.316
27267W        W95485  32.048  34.624   3.121
27268W        W95486  19.832  18.481   4.468
27269W        W95487  34.587   2.449  14.604
27270W        W95488   9.354   7.360   4.652
27271W        W95489  43.308  35.031  13.043
27272W        W95490  28.641  25.061   2.441
27273W        W95491   4.474  11.159   3.165
27274W        W95492  21.716  41.227   1.921
27275W        W95493   4.912   2.827  14.956
27276W        W95494  27.469  27.806  12.407
27277W        W95495  27.893  33.441  10.327
27278W        W95496  23.694  43.502  14.015
27279W        W95497   9.147  32.472   0.434
27280W        W95498  16.162  14.348   3.570
27281W        W95499   5.294   4.330   2.272
27282W        W95500  36.842  40.625  14.844
27283W        W95501  23.261  40.336  11.187
27284W        W95502  20.244  22.537   0.142
27285W        W95503  15.850   2.239   0.263
27286W        W95504  39.259  10.292  11.106
27287W        W95505  31.105  24.333   9.908
27288W        W95506   8.270   8.702  12.993
27289W        W95507  29.512  32.858   2.287
27290W        W95508  40.411   8.604   1.289
27291W        W95509  24.162  20.480  13.456
27292W        W95510  43.808  13.706   2.879
27293W        W95511  43.787   7.723   4.197
27294W        W95512   8.868  14.692   4.447
27295W        W95513  31.634   9.896  11.098
27296W        W95514  13.641  12.296   0.828
27297W        W95515  15.137   3.261   2.377
27298W        W95516  12.820  17.601   1.355
27299W        W95517   6.133  11.799  10.400
27300W        W95518  36.942  24.798   4.696
27301W        W95519  34.579  35.800   4.202
27302W        W95520   2.922  16.373   3.404
27303W        W95521   3.244  16.081   1.316
27304W        W95522  11.601  11.215  11.665
27305W        W95523  19.438  16.572   0.751
27306W        W95524   0.204   3.465   0.957
27307W        W95525  23.448  24.724  13.954
27308W        W95526  12.253  20.032  12.696
27309W        W95527  17.013  21.619   2.668
27310W        W95528  16.223  35.391  14.581
27311W        W95529  21.218  13.277  10.408
27312W        W95530  11.110   5.854  11.206
27313W        W95531  12.365  32.921  14.085
27314W        W95532  22.625  40.121  14.800
27315W        W95533  37.305  26.047  10.728
27316W        W95534   3.756  17.669  14.688
27317W        W95535  30.433  32.333  12.941
27318W        W95536  30.230  32.049  10.190
27319W        W95537  43.148  41.569  11.002
27320W        W95538   8.271  28.264   1.072
27321W        W95539   1.640  10.755   4.532
27322W        W95540   8.975  29.004  11.535
27323W        W95541  17.185   4.722   3.717
27324W        W95542  42.086  16.613  14.875
27325W        W95543  17.535   0.515  12.064
27326W        W95544  43.787  34.910  13.224
27327W        W95545  11.060  31.372   3.319
27328W        W95546  33.942  31.858  11.438
27329W        W95547  24.868  30.282  10.670
27330W        W95548  43.548  14.064   2.597
27331W        W95549   5.004   1.210   2.973
27332W        W95550  16.723  24.175  14.244
27333W        W95551   1.973  15.782   3.281
27334W        W95552   0.988  25.464   1.330
27335W        W95553  37.446  29.987  14.046
27336W        W95554  34.166  19.010  14.883
27337W        W95555  16.212   8.511   4.776
27338W        W95556  36.489   2.890   4.187
27339W        W95557  34.589  27.653  11.440
27340W        W95558  18.290  19.307   4.917
27341W        W95559  24.939  36.239   5.049
27342W        W95560  43.919  44.782  11.879
27343W        W95561  43.876  41.856   0.180
27344W        W95562  41.940  20.559   3.384
27345W        W95563  40.639  41.450   4.149
27346W        W95564  12.166   2.721   2.306
27347W        W95565   7.186  14.085  13.437
27348W        W95566  21.175  16.672   3.357
27349W        W95567   2.167  18.166  12.083
27350W        W95568  11.217  30.873  13.708
27351W        W95569   6.777  33.352   2.840
27352W        W95570   1.299  22.568   0.934
27353W        W95571   4.307  18.232   2.688
27354W        W95572  41.872  40.940  11.073
27355W        W95573  18.222  11.043   0.699
27356W        W95574  35.200  33.830   2.348
27357W        W95575  44.696  34.482  14.962
27358W        W95576   6.262   4.152  14.831
27359W        W95577  10.249  40.889  10.502
27360W        W95578  31.533  17.113   3.952
27361W        W95579  14.516  14.613  13.127
27362W        W95580  11.039  20.191   1.240
27363W        W95581  28.461   3.602   2.342
27364W        W95582  22.063  32.998  14.389
27365W        W95583  30.143  19.336  11.195
27366W        W95584  28.100   6.591  11.574
27367W        W95585  22.761  27.751  11.964
27368W        W95586  33.172  40.582   3.787
27369W        W95587   1.786  34.193  13.365
27370W        W95588   6.773  20.451  10.674
27371W        W95589   1.245  44.949  12.314
27372W        W95590  25.023   8.265   1.728
27373W        W95591  12.723  39.197   4.693
27374W        W95592   8.820  23.610  11.233
27375W        W95593   2.898   9.662  11.584
27376W        W95594  14.698  21.805  14.662
27377W        W95595   9.458  29.066   2.311
27378W        W95596  18.378  34.512   2.969
27379W        W95597  37.001  43.271   0.062
27380W        W95598  19.281  37.759   2.337
27381W        W95599  37.557  14.603   1.739
27382W        W95600  42.818   9.071  14.780
27383W        W95601  38.941  30.505   4.686
27384W        W95602  14.502  33.405  12.323
27385W        W95603  13.480  24.549  10.677
27386W        W95604  31.018  19.316  13.399
27387W        W95605   9.091  38.846   1.156
27388W        W95606  23.489  33.845  11.959
27389W        W95607  24.238  44.283  12.999
27390W        W95608  19.523  35.430  14.722
27391W        W95609  25.157   2.142   2.350
27392W        W95610  27.960  29.695   3.400
27393W        W95611  40.263   5.737   0.839
27394W        W95612  16.364  15.048   3.083
27395W        W95613  42.508  14.204   4.156
27396W        W95614   8.697   0.699   4.126
27397W        W95615  23.388   1.460   0.243
27398W        W95616  19.290  10.292   4.157
27399W        W95617  15.054  24.472   3.723
27400W        W95618  15.889  16.107   2.701
27401W        W95619  30.411  36.487   0.989
27402W        W95620  19.893   7.022   4.514
27403W        W95621  17.845  16.808  11.049
27404W        W95622  31.032  35.882  12.544
27405W        W95623  28.510  27.452   2.717
27406W        W95624   6.447  40.667   3.133
27407W        W95625  29.490   2.887   2.845
27408W        W95626  20.020   3.668  11.131
27409W        W95627   7.959  22.230  12.617
27410W        W95628   3.753  20.430  12.741
27411W        W95629  39.918  36.070   2.922
27412W        W95630  25.999  12.693  11.578
27413W        W95631  17.269  43.187   0.291
27414W        W95632  43.489  30.555  10.429
27415W        W95633  18.266  13.321   2.763
27416W        W95634  24.405  22.734  12.471
27417W        W95635  37.611  34.564  12.081
27418W        W95636  25.518  24.213   0.722
27419W        W95637  41.111  24.695   0.756
27420W        W95638  43.402   2.818  12.631
27421W        W95639  11.577   3.964  10.650
27422W        W95640  14.633  11.226   4.094
27423W        W95641  35.142   2.463   0.727
27424W        W95642   0.652  10.378   0.508
27425W        W95643  29.601   9.757  11.656
27426W        W95644  27.293  36.667   2.010
27427W        W95645  21.731   9.756   0.538
27428W        W95646  43.325  39.966  14.717
27429W        W95647  12.178  37.609   3.202
27430W        W95648   7.690  17.225  14.307
27431W        W95649   3.667  16.811  10.709
27432W        W95650  30.943  10.505  13.393
27433W        W95651  15.587  22.973   0.867
27434W        W95652  35.427  22.769   1.330
27435W        W95653  33.963  43.783  14.693
27436W        W95654  15.024  35.120   4.574
27437W        W95655  40.251   1.371   2.232
27438W        W95656  28.467  38.907  13.724
27439W        W95657  21.060   1.916  11.544
27440W        W95658  20.667   1.303   1.717
27441W        W95659  44.671  11.788   4.121
27442W        W95660   8.177  24.263   2.951
27443W        W95661   2.188  19.249  12.784
27444W        W95662  41.580  44.322   2.459
27445W        W95663  38.871  35.309   3.779
27446W        W95664   1.442   8.168  12.816
27447W        W95665  13.840  39.492  14.830
27448W        W95666   6.606  15.908   1.386
27449W        W95667  16.679  11.154   2.016
27450W        W95668  16.732   1.488  10.997
27451W        W95669   2.399   7.961  10.721
27452W        W95670  17.247  22.121   3.807
27453W        W95671  36.922  14.186  13.588
27454W        W95672  37.596   5.503   4.119
27455W        W95673  33.057  43.830  13.518
27456W        W95674  22.758  19.317  12.547
27457W        W95675  34.029  41.552   4.622
27458W        W95676   0.607  28.703  10.309
27459W        W95677  38.396  21.775   2.721
27460W        W95678  16.122  26.853  13.135
27461W        W95679  28.725  20.985   4.062
27462W        W95680  31.563  16.715   4.668
27463W        W95681  43.584  40.269  11.421
27464W        W95682   0.612  44.333   3.385
27465W        W95683  10.265  35.169   3.629
27466W        W95684   9.814  42.766   4.734
27467W        W95685  42.519  32.740  12.680
27468W        W95686   5.647  29.055  10.722
27469W        W95687   4.857  32.052   3.274
27470W        W95688  40.401  38.557   1.462
27471W        W95689  39.450  37.411   2.073
27472W        W95690  25.988  42.454   2.597
27473W        W95691   1.910  37.688  10.257
27474W        W95692   7.350   4.045   1.215
27475W        W95693  39.447  41.516  12.397
27476W        W95694  25.589   8.154  14.266
27477W        W95695   2.311   9.106   1.068
27478W        W95696  44.220  17.102   0.450
27479W        W95697   9.572  35.751   3.824
27480W        W95698  43.269  14.570  13.006
27481W        W95699  37.602   1.520   2.876
27482W        W95700  11.115  22.124   1.280
27483W        W95701  43.815  14.203   3.588
27484W        W95702  33.069  10.918   0.041
27485W        W95703   7.203  37.779  13.902
27486W        W95704  27.125  20.645   0.773
27487W        W95705  42.764   9.733  14.562
27488W        W95706  14.184  32.291   3.565
27489W        W95707  25.557  19.352  12.573
27490W        W95708   4.719  14.547   3.166
27491W        W95709  40.350  34.129  13.754
27492W        W95710  20.135  39.250  10.640
27493W        W95711  17.651  14.534  13.081
27494W        W95712  42.349  16.113  12.089
27495W        W95713  11.299  27.557   4.389
27496W        W95714   8.838  40.429  10.246
27497W        W95715  10.363  43.768  12.046
27498W        W95716   5.727   6.458   4.728
27499W        W95717  17.776  30.022   4.078
27500W        W95718  43.924  11.107   1.362
27501W        W95719  16.772  17.822   2.118
27502W        W95720  42.528   5.236  14.444
27503W        W95721  12.147  19.092  13.071
27504W        W95722   0.766  10.269  14.585
27505W        W95723  13.337  18.519  11.298
27506W        W95724  30.191   2.486   3.706
27507W        W95725  31.572   8.194  11.719
27508W        W95726  18.010  21.973  14.921
27509W        W95727  17.569   7.496   0.304
27510W        W95728  14.168   9.623  11.698
27511W        W95729  15.352  36.179   0.231
27512W        W95730  32.608   1.405   0.775
27513W        W95731   7.841  37.734  12.018
27514W        W95732  33.382  40.978  12.291
27515W        W95733  22.572  39.457  12.168
27516W        W95734   3.317  34.227  13.250
27517W        W95735  39.149  16.907  14.880
27518W        W95736  11.979  16.535   4.463
27519W        W95737  21.287  16.834   0.848
27520W        W95738  40.893  32.236  12.091
27521W        W95739  36.332  15.136  13.861
27522W        W95740  12.014  20.105  14.476
27523W        W95741  23.080   3.282  12.030
27524W        W95742   1.259   7.092  14.943
27525W        W95743   0.737   8.115   3.351
27526W        W95744  14.234  33.424   2.911
27527W        W95745   2.758  20.604   4.564
27528W        W95746   6.767  15.824   0.873
27529W        W95747  40.007  39.882  10.884
27530W        W95748  38.488  12.147   4.602
27531W        W95749  17.238   9.659  14.481
27532W        W95750   8.359   7.878   2.885
27533W        W95751  26.738  38.370  10.726
27534W        W95752  31.077  34.779   2.273
27535W        W95753  15.187  35.583   4.403
27536W        W95754   2.700  11.368   4.084
27537W        W95755  14.019  10.155  12.407
27538W        W95756  41.274  21.151   0.435
27539W        W95757  43.089  31.311   0.314
27540W        W95758   5.768  21.983  14.933
27541W        W95759  21.020  20.874   1.256
27542W        W95760  32.880  37.585   3.439
27543W        W95761   1.390  32.020   4.264
27544W        W95762  10.275  11.099  10.176
27545W        W95763  28.467  33.115   3.218
27546W        W95764   5.322  28.986  14.021
27547W        W95765   3.471  38.105   4.261
27548W        W95766  29.954  15.524   3.715
27549W        W95767  40.171  22.954  11.088
27550W        W95768  17.460   0.956   3.096
27551W        W95769  37.038  44.500   3.962
27552W        W95770  17.938  26.649  14.338
27553W        W95771  22.486  28.568  11.643
27554W        W95772  32.677  39.891  14.182
27555W        W95773   6.872  20.576   2.131
27556W        W95774  22.988  11.319   3.797
27557W        W95775  19.075  26.937  12.122
27558W        W95776   4.985  22.740   1.785
27559W        W95777  43.750  32.021   0.334
27560W        W95778  34.827  38.324  12.923
27561W        W95779  31.923   6.145   4.743
27562W        W95780  33.300  23.771   0.796
27563W        W95781  32.472   3.465   0.908
27564W        W95782   2.910  26.155   0.174
27565W        W95783  12.428  26.931  13.974
27566W        W95784  26.230  41.757   1.261
27567W        W95785  40.266  21.967  10.951
27568W        W95786  23.295  37.440   3.197
27569W        W95787   7.777  38.231  11.870
27570W        W95788  12.431  26.781  12.606
27571W        W95789  41.257  35.281  13.873
27572W        W95790  37.419   3.253  13.812
27573W        W95791  30.259  11.841  11.415
27574W        W95792  28.727   7.117   3.396
27575W        W95793  31.002  40.518  14.902
27576W        W95794  39.333   9.660   4.002
27577W        W95795   0.506  44.368  12.465
27578W        W95796   7.702  10.268   4.719
27579W        W95797   4.957   3.035  12.192
27580W        W95798   2.337  34.862  11.439
27581W        W95799   2.761   0.752   2.077
27582W        W95800   5.421  27.537   2.084
27583W        W95801   5.250  32.623  13.182
27584W        W95802  26.422  21.143   9.974
27585W        W95803  17.828  26.176   1.415
27586W        W95804   4.808  11.838   4.557
27587W        W95805  16.566  10.220   4.661
27588W        W95806   5.795  42.830   0.494
27589W        W95807  27.740   2.915  11.075
27590W        W95808   0.966  17.907   3.102
27591W        W95809  25.520  44.918   0.645
27592W        W95810  34.000   9.778   0.757
27593W        W95811  36.775  27.979   0.715
27594W        W95812  39.417  17.562   0.329
27595W        W95813  41.928  16.749   1.342
27596W        W95814  36.290  27.586  12.824
27597W        W95815   1.952  39.440   1.021
27598W        W95816  13.695  17.254  10.574
27599W        W95817   9.273  32.743  14.987
27600W        W95818  10.161  32.450   1.277
27601W        W95819  19.667   5.967   4.511
27602W        W95820  20.640  15.582  10.077
27603W        W95821  37.408  42.023   0.698
27604W        W95822  13.221   6.042   3.301
27605W        W95823  34.113   4.556   5.024
27606W        W95824  21.842  38.017  12.042
27607W        W95825   1.091  18.759   1.254
27608W        W95826  27.238   6.323   3.200
27609W        W95827   4.853  35.883  11.915
27610W        W95828  26.579  29.586   2.711
27611W        W95829  27.778  27.603  13.502
27612W        W95830  35.064   1.563  14.312
27613W        W95831  30.121  23.465  13.056
27614W        W95832   7.685   2.313   1.225
27615W        W95833  40.426  14.679  11.708
27616W        W95834  34.951  22.776  11.994
27617W        W95835   3.577   7.179  11.271
27618W        W95836   5.729  13.136  12.656
27619W        W95837  40.893  24.502  10.681
27620W        W95838  30.705  18.245  11.857
27621W        W95839   9.359   3.167   1.486
27622W        W95840  35.923  32.143  12.472
27623W        W95841   7.931   3.598  12.845
27624W        W95842   8.691   5.672  12.635
27625W        W95843   6.002  18.029   1.373
27626W        W95844   2.832  41.552  14.459
27627W        W95845  12.909   2.333  13.417
27628W        W95846   3.330  31.481  11.037
27629W        W95847   0.896  36.832  14.759
27630W        W95848  32.477  36.982  11.921
27631W        W95849  18.920   1.469   2.953
27632W        W95850  34.529   9.665  14.801
27633W        W95851  17.114   7.941  11.217
27634W        W95852   8.080  34.642   3.620
27635W        W95853  10.315  36.577   0.749
27636W        W95854   2.701  25.389   2.841
27637W        W95855  43.914  42.310  10.692
27638W        W95856  14.859  27.474  13.623
27639W        W95857   3.504  30.513   0.315
27640W        W95858  18.256   4.499  10.705
27641W        W95859   3.018  19.153   4.565
27642W        W95860  34.729  38.699  12.089
27643W        W95861  10.223  24.544  12.685
27644W        W95862  16.083  13.658   4.047
27645W        W95863   3.972   1.430   2.696
27646W        W95864  28.598   3.240   0.350
27647W        W95865  41.058  10.431  10.416
27648W        W95866   3.938  21.541   3.569
27649W        W95867  21.512   7.864  14.407
27650W        W95868  20.166  10.834   0.686
27651W        W95869  29.600  33.528  13.172
27652W        W95870  15.192   0.814  13.573
27653W        W95871   7.718  25.145  13.017
27654W        W95872  12.207   5.732   4.365
27655W        W95873  20.743  39.386   1.284
27656W        W95874  33.182  16.688   0.110
27657W        W95875  20.909  41.582   4.179
27658W        W95876   2.201  16.289  12.586
27659W        W95877  19.155   6.313   1.843
27660W        W95878  32.452  15.174  12.167
27661W        W95879   6.020  44.612   0.477
27662W        W95880  42.169  30.574  13.363
27663W        W95881   2.347  37.043  12.880
27664W        W95882  44.950  40.001   4.497
27665W        W95883   8.818  17.076   3.998
27666W        W95884  29.800  23.514   1.030
27667W        W95885  12.737   9.110   2.231
27668W        W95886  40.956   3.208  13.075
27669W        W95887  40.932  10.912  11.725
27670W        W95888   0.798   7.978   1.998
27671W        W95889   9.142  41.420  13.585
27672W        W95890   8.129  40.770   9.700
27673W        W95891  13.744  41.469  14.897
27674W        W95892  42.563  14.566  11.575
27675W        W95893  31.619  24.044   2.294
27676W        W95894  39.602  17.582  13.917
27677W        W95895   0.075  44.684   2.294
27678W        W95896  37.516  34.833  11.637
27679W        W95897  27.179  33.999   2.405
27680W        W95898  16.806  32.383  12.667
27681W        W95899  27.595  29.721  11.974
27682W        W95900  44.082  23.914  12.084
27683W        W95901   2.687  31.750   3.367
27684W        W95902  15.027  25.414  11.058
27685W        W95903   1.024  13.164  11.639
27686W        W95904   8.426  31.936  11.057
27687W        W95905  28.932  11.213   2.821
27688W        W95906   2.218  10.810   2.443
27689W        W95907  34.406  21.293  14.978
27690W        W95908   4.001  31.515   0.940
27691W        W95909   3.819   8.177   4.605
27692W        W95910  15.121  28.019  11.059
27693W        W95911   8.252  35.215   1.670
27694W        W95912  33.001   9.027  14.275
27695W        W95913  23.916  19.658   0.800
27696W        W95914  22.840   8.749  12.521
27697W        W95915  14.720   3.667   1.633
27698W        W95916  34.214  11.299   1.802
27699W        W95917  26.942  38.528  11.175
27700W        W95918  32.054  20.563  14.717
27701W        W95919  18.597  42.784  11.912
27702W        W95920  10.272  12.193   3.601
27703W        W95921  26.196  41.353  11.984
27704W        W95922  23.644  13.590   3.304
27705W        W95923  22.282  27.815  10.928
27706W        W95924   0.476  25.371  10.297
27707W        W95925   7.834  37.860   1.374
27708W        W95926  19.182  19.572   2.907
27709W        W95927   6.868   2.720  12.488
27710W        W95928  35.378  38.247   0.259
27711W        W95929   4.949  31.199  10.360
27712W        W95930  18.618  34.202  14.799
27713W        W95931  18.256  26.531   0.840
27714W        W95932  20.640   2.186  11.597
27715W        W95933  27.965   0.683   2.447
27716W        W95934   5.720  17.085  12.582
27717W        W95935  44.731  30.668  11.139
27718W        W95936  25.567   0.636  11.677
27719W        W95937  21.580   0.915   2.092
27720W        W95938  42.324  38.314  12.500
27721W        W95939   2.407  40.483   3.408
27722W        W95940   0.148   9.727  12.383
27723W        W95941  38.980  25.008   2.597
27724W        W95942  36.729  21.737   0.064
27725W        W95943  36.369  40.859  10.789
27726W        W95944   6.207  29.437   4.502
27727W        W95945  11.312   3.486   2.769
27728W        W95946  13.347  36.371   0.410
27729W        W95947  14.879  12.330  11.634
27730W        W95948  11.821  36.485  14.930
27731W        W95949  11.667  29.577  13.039
27732W        W95950  24.544   5.784  11.173
27733W        W95951  38.268  42.940   5.089
27734W        W95952  17.537  37.027  10.777
27735W        W95953  24.434   4.803   3.345
27736W        W95954  43.300  23.548  12.654
27737W        W95955  43.040   0.363  12.158
27738W        W95956  25.318  18.762   1.031
27739W        W95957   7.246  19.223  12.250
27740W        W95958  29.054  29.041  11.612
27741W        W95959  28.085  27.823  12.721
27742W        W95960  18.273  18.122  11.135
27743W        W95961  43.403   4.049   0.317
27744W        W95962  19.262  39.562  11.126
27745W        W95963   1.906   5.739   2.057
27746W        W95964   5.877  16.501   2.338
27747W        W95965   2.489  27.636  11.163
27748W        W95966  19.278   2.439  12.905
27749W        W95967  44.594  10.286   1.653
27750W        W95968  42.967  44.936  10.331
27751W        W95969  32.966  11.100   1.314
27752W        W95970  34.047  13.366   1.389
27753W        W95971   1.752  18.716   4.866
27754W        W95972   9.391  40.893   4.548
27755W        W95973  29.691  28.861   3.576
27756W        W95974  17.993  44.858  11.978
27757W        W95975  25.822   9.132   2.908
27758W        W95976  35.335  20.256  14.278
27759W        W95977  12.231  14.078   0.921
27760W        W95978   6.581  38.928  11.557
27761W        W95979  34.630  36.752   2.352
27762W        W95980  32.525  33.585  13.995
27763W        W95981  30.244   5.927  14.484
27764W        W95982  29.338   1.183  14.940
27765W        W95983  31.620  25.731  12.520
27766W        W95984  36.627  43.101   0.379
27767W        W95985  41.402  24.230   1.762
27768W        W95986   1.953  20.199  13.879
27769W        W95987   2.137  19.465   4.763
27770W        W95988  16.153  36.967   0.916
27771W        W95989   8.170   2.330  11.688
27772W        W95990  38.989  40.731   4.565
27773W        W95991  43.808  28.472   0.324
27774W        W95992   5.454  24.075   3.757
27775W        W95993  24.586   9.902  11.586
27776W        W95994   2.712  27.029  11.882
27777W        W95995  30.188  15.396   9.895
27778W        W95996  22.083  30.160  14.278
27779W        W95997   7.137  31.029  13.860
27780W        W95998  41.296  37.459   3.390
27781W        W95999  23.646  28.081  12.299
27782W        W96000  22.233   5.682   1.639
27783W        W96001  29.025  13.666   0.468
27784W        W96002  26.959  26.667  11.434
27785W        W96003  38.724  17.783   2.073
27786W        W96004  42.837  13.779  11.457
27787W        W96005  30.879  14.819  11.464
27788W        W96006   2.092   7.330   0.455
27789W        W96007  40.566  11.742   3.939
27790W        W96008  42.314  29.717  12.150
27791W        W96009   7.856  37.858  11.518
27792W        W96010  30.968  34.088  14.076
27793W        W96011  44.961  40.389  10.807
27794W        W96012  26.843  18.568  14.701
27795W        W96013  29.757  24.717   0.956
27796W        W96014  13.654  43.689   3.153
27797W        W96015   8.444  36.010  12.160
27798W        W96016   5.374  10.328   1.481
27799W        W96017  24.548  31.857   4.057
27800W        W96018  21.549  26.688   0.903
27801W        W96019  29.441  13.899   0.221
27802W        W96020  17.031  24.644  13.984
27803W        W96021  41.992   5.304   3.102
27804W        W96022  21.224  24.497   0.569
27805W        W96023  27.106  37.362  12.303
27806W        W96024  14.626  12.897  14.526
27807W        W96025  32.551   8.185  13.916
27808W        W96026  37.862  25.057   0.284
27809W        W96027  39.416  13.143  11.288
27810W        W96028  23.859  10.661   1.764
27811W        W96029   8.431  19.002   0.306
27812W        W96030  14.768  10.733   2.767
27813W        W96031   8.859  23.289  10.445
27814W        W96032  27.640  21.607  13.770
27815W        W96033  39.859  16.781   2.261
27816W        W96034  13.816   5.966  11.590
27817W        W96035   2.422  22.747   2.218
27818W        W96036  25.800  44.174   4.166
27819W        W96037  36.597  42.742   1.865
27820W        W96038  10.619  42.419  13.908
27821W        W96039   4.348  36.028  10.635
27822W        W96040  34.075  41.067   2.263
27823W        W96041  36.868  13.135   2.254
27824W        W96042   2.912   7.948   1.267
27825W        W96043   6.305   8.352  14.331
27826W        W96044  33.474   3.966   9.958
27827W        W96045   7.945  28.964   3.198
27828W        W96046  40.799  15.120   1.971
27829W        W96047  20.217  28.582   3.290
27830W        W96048  15.754  23.505  12.681
27831W        W96049  20.625  27.560  10.742
27832W        W96050  26.955  27.931   1.855
27833W        W96051  33.487  17.692   1.324
27834W        W96052   0.224  25.197   3.146
27835W        W96053  18.220  43.662   1.663
27836W        W96054  32.250  34.952   0.420
27837W        W96055  20.234  42.917  10.710
27838W        W96056   0.423   5.909   0.286
27839W        W96057  33.722  28.964  13.782
27840W        W96058   1.840  12.231  10.476
27841W        W96059  14.623   3.234   3.691
27842W        W96060   8.363  13.073   2.767
27843W        W96061  37.306   4.304  11.749
27844W        W96062  33.341  37.995  10.560
27845W        W96063  10.798  41.755  11.645
27846W        W96064  24.368   5.735   4.678
27847W        W96065  30.551   2.497  11.555
27848W        W96066  38.867  37.577  11.603
27849W        W96067  13.177  24.180  14.979
27850W        W96068  37.809  38.503  11.037
27851W        W96069   3.359  25.470  13.777
27852W        W96070   0.150  24.130  12.463
27853W        W96071  34.037   8.221   0.386
27854W        W96072  16.590  11.794   3.415
27855W        W96073   9.389  22.071   4.209
27856W        W96074  13.360  30.842  12.225
27857W        W96075  12.274   5.680   3.817
27858W        W96076   9.245   6.336  13.855
27859W        W96077  12.173  23.879   0.383
27860W        W96078   5.255   8.318   0.563
27861W        W96079  38.530  13.615   1.287
27862W        W96080  26.581  39.301   2.148
27863W        W96081  17.947  36.679  12.033
27864W        W96082   9.928  40.843   2.776
27865W        W96083  14.815  28.502  13.830
27866W        W96084  12.116  41.152  14.506
27867W        W96085  17.672   7.995  13.787
27868W        W96086  12.859  40.040  10.490
27869W        W96087  40.770   8.056  14.722
27870W        W96088  25.950  21.028  10.819
27871W        W96089  22.684  38.404  11.946
27872W        W96090  13.382  33.329   1.107
27873W        W96091  20.730  43.208   1.388
27874W        W96092  34.395   6.011  10.604
27875W        W96093  43.829  24.528   1.047
27876W        W96094  37.844  19.697   4.638
27877W        W96095  40.242  27.895  10.354
27878W        W96096  15.124  29.435  13.492
27879W        W96097  23.793  37.591  12.224
27880W        W96098   8.972   3.260   2.474
27881W        W96099   4.211  19.678   4.159
27882W        W96100  21.971   1.835   4.577
27883W        W96101  24.050  11.245  11.752
27884W        W96102  34.987  18.656  12.736
27885W        W96103  28.212  38.074   0.468
27886W        W96104   4.793  39.908  11.347
27887W        W96105  23.692  14.343  14.801
27888W        W96106   8.271  21.062  11.077
27889W        W96107  13.207  15.817   1.338
27890W        W96108  43.240   9.762   1.760
27891W        W96109   8.537  24.062  13.158
27892W        W96110   0.672  13.149   1.798
27893W        W96111   8.763  24.069   0.019
27894W        W96112   8.807  31.614  12.191
27895W        W96113  43.717  10.198   0.065
27896W        W96114  30.946  38.559  11.292
27897W        W96115  30.522  38.257  12.939
27898W        W96116   3.367  13.817   3.578
27899W        W96117  42.323  41.727   0.783
27900W        W96118  36.106  42.289   4.097
27901W        W96119  25.533  27.038  14.810
27902W        W96120   5.944  31.488  10.464
27903W        W96121  24.638  32.986  14.454
27904W        W96122   7.652  29.961  13.669
27905W        W96123  16.240  33.344  13.280
27906W        W96124  29.402  28.695  13.556
27907W        W96125  30.043   8.828   1.703
27908W        W96126   6.424  36.525  12.452
27909W        W96127   6.960   7.690   0.273
27910W        W96128  21.132  13.226   2.628
27911W        W96129  28.433  18.363  11.058
27912W        W96130   0.113  39.360  14.499
27913W        W96131   4.814  14.327   1.334
27914W        W96132  13.198   8.098  10.698
27915W        W96133  13.152  32.676   4.090
27916W        W96134  15.900  25.860   2.742
27917W        W96135  34.677  27.412   3.558
27918W        W96136   3.703  28.442   2.506
27919W        W96137  11.614  38.608  12.963
27920W        W96138  29.036  25.729  13.937
27921W        W96139   7.939   8.226  14.462
27922W        W96140   4.585  24.223   3.609
27923W        W96141  23.236  25.196  14.073
27924W        W96142  22.128  39.261  12.981
27925W        W96143  31.099  15.197   2.265
27926W        W96144  11.036  31.868   3.088
27927W        W96145  20.989  27.045  12.543
27928W        W96146  35.344  21.098   3.325
27929W        W96147  14.741   8.098   2.996
27930W        W96148   7.893  30.332   4.113
27931W        W96149  44.779   5.401  10.928
27932W        W96150  13.331  20.190   2.413
27933W        W96151  43.134  20.636  13.530
27934W        W96152  13.081   6.701  13.966
27935W        W96153  43.400  43.865   0.333
27936W        W96154  29.083  10.181  13.989
27937W        W96155   3.910  10.930   0.368
27938W        W96156  18.350  38.724   3.240
27939W        W96157   8.904   9.334  12.808
27940W        W96158  18.627  29.145   3.736
27941W        W96159  11.537  22.120  11.544
27942W        W96160   6.723  21.908  13.735
27943W        W96161  23.761  34.034   4.533
27944W        W96162  36.971   3.291   2.732
27945W        W96163  40.262  42.454  13.079
27946W        W96164  24.527  17.197   1.416
27947W        W96165   0.008  23.637  14.609
27948W        W96166  36.960   7.975   2.287
27949W        W96167  40.339  23.348  13.106
27950W        W96168   6.346  44.463  12.027
27951W        W96169  29.359   5.359  11.795
27952W        W96170  43.991   0.319   0.923
27953W        W96171  32.071  43.957   3.334
27954W        W96172  12.247   0.318  12.825
27955W        W96173   6.570   0.383  14.459
27956W        W96174  25.210  31.400  13.012
27957W        W96175  38.416  24.521  13.979
27958W        W96176  28.389   3.302  13.829
27959W        W96177   0.473  18.046   2.790
27960W        W96178   8.083   3.390  14.571
27961W        W96179  11.383  44.918  10.474
27962W        W96180   5.851  13.117  14.010
27963W        W96181  20.576  27.063   1.187
27964W        W96182  20.170  28.651   0.828
27965W        W96183  26.674  14.229  14.928
27966W        W96184  36.332  29.096  13.865
27967W        W96185  26.466  37.153  11.143
27968W        W96186   6.869  34.957  10.964
27969W        W96187  35.118  32.947  12.857
27970W        W96188  21.553  26.131   2.335
27971W        W96189  31.969   4.669  11.392
27972W        W96190   5.673  42.763   2.430
27973W        W96191  29.543  17.285   1.296
27974W        W96192   9.607   1.342   0.967
27975W        W96193  12.086  36.566   2.205
27976W        W96194  10.693  19.344   3.204
27977W        W96195  18.040  42.892   0.679
27978W        W96196  36.394   0.493  13.297
27979W        W96197   3.737  25.504   4.410
27980W        W96198   8.334  32.475  11.096
27981W        W96199  11.452   2.287  11.065
27982W        W96200  14.846   2.543  12.970
27983W        W96201  24.011  11.822   1.210
27984W        W96202   6.294  24.388   3.130
27985W        W96203  11.586  16.326  13.026
27986W        W96204  29.131  23.003  10.761
27987W        W96205  19.335   3.983  12.987
27988W        W96206  22.213  22.566   0.713
27989W        W96207  20.250   1.290   3.327
27990W        W96208  17.847   9.218   3.684
27991W        W96209  44.726  24.047  10.711
27992W        W96210   7.294   3.007  12.023
27993W        W96211  21.167  31.186   1.915
27994W        W96212  14.838  10.845   1.762
27995W        W96213   6.601   9.485   0.873
27996W        W96214  25.576   8.129  11.110
27997W        W96215  44.001  39.293   1.309
27998W        W96216  23.445  38.038  13.865
27999W        W96217  44.200  36.538  12.025
28000W        W96218   6.713   9.692   4.173
28001W        W96219  14.361   7.001   3.299
28002W        W96220  11.557  14.002   4.586
28003W        W96221  11.620  23.278  13.449
28004W        W96222   3.497  29.533  11.742
28005W        W96223  23.564  26.095  14.964
28006W        W96224   2.896  10.517   0.779
28007W        W96225   7.288   7.882  11.561
28008W        W96226  30.091  28.390   2.781
28009W        W96227  19.024   2.730  11.002
28010W        W96228  16.722  12.868   4.227
28011W        W96229  23.762  17.875  14.962
28012W        W96230  17.124  40.476   2.688
28013W        W96231  12.709  36.997   2.677
28014W        W96232  34.815  27.566   2.629
28015W        W96233   9.251  30.118  12.535
28016W        W96234   7.635   0.934  12.504
28017W        W96235   2.266  40.852   4.584
28018W        W96236  30.923  41.829   1.321
28019W        W96237  44.427  40.260   1.346
28020W        W96238  32.738  38.369  10.993
28021W        W96239  21.548   2.563   2.597
28022W        W96240  28.394   2.310   2.913
28023W        W96241  15.545  13.771   0.657
28024W        W96242  10.912  26.000   0.893
28025W        W96243  38.234  13.381  13.525
28026W        W96244  16.253  25.526   1.870
28027W        W96245  22.759  36.644  12.649
28028W        W96246   1.732  27.925   0.225
28029W        W96247   4.489  23.286   3.273
28030W        W96248  13.177  21.235  10.721
28031W        W96249   2.516  32.966  10.482
28032W        W96250  27.163  18.182  10.797
28033W        W96251  16.205  11.586  10.321
28034W        W96252  34.495  34.531  13.462
28035W        W96253   7.903   4.271  10.549
28036W        W96254  41.101  13.189  14.491
28037W        W96255   4.438  23.608   2.858
28038W        W96256  38.664  16.588  13.869
28039W        W96257  25.714  24.528   3.224
28040W        W96258  11.776  12.345   0.661
28041W        W96259  35.581  21.726  13.239
28042W        W96260   7.971  36.845  14.263
28043W        W96261  17.286  20.463  11.070
28044W        W96262   1.358  15.005   3.710
28045W        W96263  39.306  15.861  13.051
28046W        W96264  20.495  23.512  13.642
28047W        W96265  32.894  39.325   2.248
28048W        W96266  15.178  23.428   3.749
28049W        W96267  32.644  26.859   2.527
28050W        W96268  38.865  40.017   3.708
28051W        W96269  14.254  36.501  10.651
28052W        W96270  25.727  43.958   2.215
28053W        W96271   5.837  18.709   1.668
28054W        W96272   4.636  32.088  13.874
28055W        W96273  26.916  11.785  14.353
28056W        W96274   3.413  26.566  12.404
28057W        W96275  10.896   6.096   1.550
28058W        W96276  35.768  23.052  14.253
28059W        W96277   4.525  37.084  12.955
28060W        W96278  25.639   2.732  12.512
28061W        W96279  22.378  19.819   5.087
28062W        W96280  29.481   2.788  14.123
28063W        W96281  20.351  15.199  14.732
28064W        W96282  10.086  25.363  10.469
28065W        W96283  18.191   3.235  12.409
28066W        W96284  25.793   9.811   1.319
28067W        W96285  16.385  42.840  14.241
28068W        W96286  23.597  37.101   2.264
28069W        W96287  11.272  36.444  14.273
28070W        W96288  30.442   3.759  14.365
28071W        W96289  31.923  21.647   1.482
28072W        W96290  18.167  36.189  14.411
28073W        W96291  24.624  39.571  12.604
28074W        W96292   7.724   0.989   4.193
28075W        W96293  27.489  32.393  13.636
28076W        W96294  14.146  32.832  10.165
28077W        W96295  18.886  11.174  13.283
28078W        W96296  26.046   4.461   2.717
28079W        W96297  13.798   8.583  11.158
28080W        W96298  23.372  26.591  14.843
28081W        W96299  27.375   5.078   3.738
28082W        W96300  41.821  17.713   3.392
28083W        W96301  40.725  24.966  10.973
28084W        W96302  25.264   2.381  13.844
28085W        W96303  18.304  23.122  11.922
28086W        W96304  32.369  23.446   0.699
28087W        W96305  25.729   0.444  13.000
28088W        W96306  25.131   3.080  11.139
28089W        W96307  41.856  43.897  11.594
28090W        W96308  14.297   8.275  11.985
28091W        W96309  19.339  31.413  12.777
28092W        W96310   8.121  16.254  14.413
28093W        W96311  20.127  33.500  11.818
28094W        W96312  19.795   9.918  11.948
28095W        W96313  44.307   4.287  14.922
28096W        W96314  42.282   8.459  13.486
28097W        W96315   3.212   4.848   3.071
28098W        W96316  37.002  15.335   0.874
28099W        W96317  22.070  29.841   4.856
28100W        W96318  11.817  26.719   3.407
28101W        W96319  35.931  23.568  14.344
28102W        W96320  17.481  22.583   3.634
28103W        W96321  40.792  13.040  10.582
28104W        W96322  43.299  13.746  11.190
28105W        W96323  32.903  35.148   1.921
28106W        W96324  35.591  29.579   2.845
28107W        W96325  12.232  25.807  12.551
28108W        W96326  19.558  25.956  12.198
28109W        W96327   8.612  19.277  14.468
28110W        W96328  28.677   2.192  13.772
28111W        W96329  36.358   1.252   2.304
28112W        W96330  34.494  14.690  10.715
28113W        W96331  18.390   5.824   1.672
28114W        W96332  41.027  19.403  10.802
28115W        W96333   6.005   6.700  12.531
28116W        W96334   7.077  41.468  13.066
28117W        W96335   2.716  26.987  14.458
28118W        W96336   4.928   1.420   1.835
28119W        W96337  32.009   2.882  14.923
28120W        W96338  20.714  39.996   2.901
28121W        W96339  34.126  27.140  14.824
28122W        W96340  35.135  20.941   4.227
28123W        W96341  22.723  16.628   3.703
28124W        W96342  16.666  35.830  11.157
28125W        W96343  37.611  41.030  13.940
28126W        W96344   0.454  34.158   2.085
28127W        W96345  14.151  18.707  11.774
28128W        W96346  42.227   1.528  11.527
28129W        W96347  22.503  24.654   0.017
28130W        W96348  40.515  13.128  11.978
28131W        W96349  13.600  21.664  13.141
28132W        W96350  28.116   5.422   2.207
28133W        W96351   6.392  43.118  11.079
28134W        W96352   2.179  38.900  13.419
28135W        W96353  43.896   2.486   0.723
28136W        W96354   6.584  44.797  14.856
28137W        W96355  28.602  42.701  13.869
28138W        W96356  32.822  28.497  12.589
28139W        W96357  27.865  20.667   0.767
28140W        W96358  14.909   7.691   0.901
28141W        W96359  44.780   1.065   2.825
28142W        W96360   3.201  28.687  12.217
28143W        W96361  40.112  33.963  12.361
28144W        W96362  42.101  33.560   2.570
28145W        W96363   2.266  13.627   4.293
28146W        W96364  33.115  11.819   4.514
28147W        W96365  26.729  42.775   3.691
28148W        W96366  39.106  29.044   4.189
28149W        W96367  33.549  32.873   3.387
28150W        W96368  14.157  23.668   1.010
28151W        W96369  11.711   0.779   4.093
28152W        W96370   7.823   0.353  13.664
28153W        W96371  35.408  40.274   0.101
28154W        W96372  44.842  43.968   4.331
28155W        W96373  31.093  44.510  12.847
28156W        W96374  38.890   3.716  14.612
28157W        W96375  42.920  29.490   1.309
28158W        W96376  13.885  38.613  13.395
28159W        W96377  15.786   8.815  10.488
28160W        W96378   2.283  22.317  12.594
28161W        W96379   0.390  44.657   0.026
28162W        W96380  11.104  21.616  12.389
28163W        W96381  17.570  31.905   4.535
28164W        W96382  15.581  42.256  12.333
28165W        W96383  34.325  16.245   3.750
28166W        W96384   6.106   1.284  14.340
28167W        W96385  39.992   1.211   1.786
28168W        W96386   7.208  31.925   0.287
28169W        W96387  22.512   0.223   4.124
28170W        W96388  29.165  13.317  12.010
28171W        W96389  16.810  26.097   0.272
28172W        W96390   3.589  19.084   4.530
28173W        W96391  17.224  30.910   1.488
28174W        W96392   0.935  32.585   3.196
28175W        W96393  33.906  21.216  13.844
28176W        W96394  37.698   7.700  11.232
28177W        W96395  21.063   5.153  13.802
28178W        W96396  38.336  36.892  13.296
28179W        W96397  44.788  14.941  13.909
28180W        W96398  15.238  11.144   0.479
28181W        W96399   7.663  23.112   1.213
28182W        W96400  44.540  39.008   3.319
28183W        W96401  26.958   1.218   4.173
28184W        W96402  30.134  21.082  14.400
28185W        W96403  13.925  25.994  10.995
28186W        W96404  40.386  38.118   4.600
28187W        W96405  28.459  38.670  12.884
28188W        W96406  14.753  31.576  12.795
28189W        W96407  19.991  35.016   3.850
28190W        W96408  22.329  40.547  14.713
28191W        W96409   9.327  39.887   4.594
28192W        W96410  39.545  14.651  13.961
28193W        W96411  44.350  24.002   1.909
28194W        W96412  35.383  26.140   1.245
28195W        W96413  25.723  25.503   3.174
28196W        W96414  39.267   1.982  13.477
28197W        W96415  35.080  32.989  13.363
28198W        W96416  30.029  41.443   1.221
28199W        W96417   1.953   4.630  12.803
28200W        W96418  43.550  23.506   4.505
28201W        W96419   2.393   3.456  11.591
28202W        W96420  34.849   5.305  11.876
28203W        W96421  22.841  14.703  10.536
28204W        W96422  17.743  30.368  14.351
28205W        W96423  17.018  25.236  10.306
28206W        W96424  21.180  39.563  11.121
28207W        W96425  13.211  18.737  13.561
28208W        W96426  41.105  41.213   0.263
28209W        W96427  25.243  42.882  14.594
28210W        W96428  29.198  13.399   0.879
28211W        W96429  41.360   0.759   0.461
28212W        W96430  39.497  22.597  10.765
28213W        W96431  11.948  14.855   2.356
28214W        W96432  36.472  15.829  14.463
28215W        W96433  21.460  17.754   1.396
28216W        W96434  13.386  18.349  10.812
28217W        W96435  34.358  16.501   3.301
28218W        W96436  44.003  18.193   0.978
28219W        W96437  39.544  39.908  13.764
28220W        W96438   8.590  42.911  14.411
28221W        W96439  16.927  31.459  13.540
28222W        W96440  38.015  26.463  11.235
28223W        W96441   9.053  10.237   9.865
28224W        W96442  15.638   3.390   0.898
28225W        W96443  12.106  23.541  11.410
28226W        W96444  36.194  28.850   5.380
28227W        W96445  44.729  41.447  13.986
28228W        W96446  35.514  41.451   1.902
28229W        W96447  29.123  33.522   1.156
28230W        W96448   5.618  12.691  14.187
28231W        W96449  42.232  17.378   0.323
28232W        W96450  19.961  23.525   0.670
28233W        W96451  22.663   6.285  10.758
28234W        W96452   2.415  33.528   2.680
28235W        W96453  19.664   3.995   3.246
28236W        W96454   1.522  32.460  13.870
28237W        W96455  13.852  10.217  14.831
28238W        W96456  16.099   5.153   3.377
28239W        W96457  20.171  16.883   2.321
28240W        W96458  26.030   0.965   1.040
28241W        W96459  12.154  44.303   4.175
28242W        W96460  10.858  14.973  14.030
28243W        W96461  40.417   4.163  12.575
28244W        W96462  32.355  41.528  10.242
28245W        W96463  43.314  30.749  14.015
28246W        W96464   1.295   1.355  11.440
28247W        W96465  32.561   6.842   2.854
28248W        W96466   5.453  25.781  11.965
28249W        W96467  29.468  41.507   0.917
28250W        W96468  20.750  12.110  13.617
28251W        W96469  35.370  38.602   4.749
28252W        W96470   8.528  34.238  12.179
28253W        W96471  22.042  33.926   3.360
28254W        W96472  16.416   4.663   0.771
28255W        W96473  23.686  18.292  13.998
28256W        W96474  41.037   3.137  10.308
28257W        W96475  42.996  10.126   5.425
28258W        W96476  19.409  29.392   2.165
28259W        W96477   0.753  26.530   2.442
28260W        W96478  35.845   8.363   1.439
28261W        W96479  43.295  39.807  13.695
28262W        W96480  39.095  28.738   3.784
28263W        W96481  41.499   7.955   0.705
28264W        W96482   5.110   4.351  14.476
28265W        W96483  31.932   4.449  14.870
28266W        W96484  44.282  19.110   0.355
28267W        W96485   5.405  44.294   2.275
28268W        W96486  32.816   7.277  14.951
28269W        W96487   2.503   1.827  14.752
28270W        W96488   3.979  33.432  14.487
28271W        W96489  36.116  35.276   2.338
28272W        W96490   1.997  41.898  14.310
28273W        W96491  12.345   8.428   3.563
28274W        W96492  17.417   3.712   3.251
28275W        W96493   3.851   8.052  14.887
28276W        W96494  40.601   5.432   3.011
28277W        W96495   6.172  25.462   3.275
28278W        W96496  31.578   7.632   0.573
28279W        W96497  22.264  35.620  12.323
28280W        W96498  29.551  24.728   2.734
28281W        W96499   8.276   3.939  11.545
28282W        W96500   8.278  39.061  13.298
28283W        W96501  18.532  34.240   2.559
28284W        W96502  44.103  42.205  13.326
28285W        W96503  37.936  33.982   2.535
28286W        W96504  32.843   4.344  14.762
28287W        W96505  26.097   4.729  13.378
28288W        W96506  23.740  41.275   1.399
28289W        W96507  40.070   7.221  13.336
28290W        W96508  25.592  22.102  10.210
28291W        W96509   8.724  35.351  11.128
28292W        W96510  32.075   1.781  13.990
28293W        W96511  10.371  26.023   0.853
28294W        W96512  32.182  38.256   4.169
28295W        W96513  34.760  41.357  11.890
28296W        W96514   4.920   5.288   0.834
28297W        W96515  18.082   8.179  14.724
28298W        W96516  31.087  36.605  13.129
28299W        W96517   7.646  43.554  13.705
28300W        W96518  40.027  18.270   1.919
28301W        W96519  12.436  14.434  11.198
28302W        W96520   7.658  20.552  11.617
28303W        W96521  11.280  16.828   4.765
28304W        W96522   2.397   3.391  10.229
28305W        W96523  44.554  34.673   0.481
28306W        W96524  37.034   5.175   4.115
28307W        W96525  29.848  39.387  10.529
28308W        W96526  11.350  21.251   0.324
28309W        W96527   9.742  19.295  11.639
28310W        W96528  28.697  24.760  13.452
28311W        W96529   6.829  27.427   1.111
28312W        W96530  34.507  10.658   3.198
28313W        W96531  18.353  21.982   4.561
28314W        W96532  44.815  30.484   4.170
28315W        W96533  41.081  19.784  11.623
28316W        W96534  14.694  32.086  12.628
28317W        W96535  25.344  30.903   4.947
28318W        W96536  35.343   0.964  10.169
28319W        W96537  42.367   1.354   1.389
28320W        W96538  16.646  17.694  14.334
28321W        W96539  33.091  29.371  11.533
28322W        W96540  12.606  41.626  11.452
28323W        W96541   1.304  36.883   2.404
28324W        W96542  12.467  37.405   0.908
28325W        W96543  43.927  38.554  12.036
28326W        W96544  40.148   0.186   2.835
28327W        W96545  36.337  19.115  13.540
28328W        W96546  30.973  23.311   1.377
28329W        W96547  39.420  27.521   3.861
28330W        W96548  37.536  40.518   3.653
28331W        W96549   1.002  27.881   1.344
28332W        W96550  18.778  32.912  10.815
28333W        W96551  16.207  30.149   2.478
28334W        W96552  11.113   6.228   4.265
28335W        W96553  25.673  42.370   4.262
28336W        W96554  26.067   0.762   2.048
28337W        W96555  16.358  10.611   3.713
28338W        W96556  21.951  28.083  12.130
28339W        W96557  14.182   5.695   1.321
28340W        W96558  31.340  15.723   0.445
28341W        W96559   9.366  34.538  12.725
28342W        W96560  12.170  22.719   3.899
28343W        W96561  42.913  12.675  12.205
28344W        W96562  41.303  32.870  10.672
28345W        W96563  37.613  36.072  14.742
28346W        W96564   7.293  23.099   0.848
28347W        W96565  21.190   4.392   0.762
28348W        W96566   2.812  21.039   4.288
28349W        W96567  24.192  43.778   2.816
28350W        W96568  18.221   6.966  13.597
28351W        W96569  36.504  19.221   2.909
28352W        W96570   3.868  41.966   2.763
28353W        W96571  36.359  33.156  11.051
28354W        W96572  27.146  44.528   3.350
28355W        W96573  38.093  21.276  14.440
28356W        W96574  22.659  31.852   3.231
28357W        W96575   6.644   4.760  11.124
28358W        W96576  36.555  44.966   4.778
28359W        W96577  43.096  43.326   5.172
28360W        W96578  28.960  40.941  14.989
28361W        W96579  44.288  15.296  11.167
28362W        W96580  37.395  40.757  11.710
28363W        W96581  39.417  35.709   0.885
28364W        W96582  35.575  15.860  13.934
28365W        W96583   1.215  10.873  12.503
28366W        W96584  38.116   9.323   1.998
28367W        W96585  40.005  40.767  12.439
28368W        W96586  33.219  19.874   1.109
28369W        W96587  42.604  43.492  12.579
28370W        W96588  10.423   8.105   3.272
28371W        W96589  12.579  18.492   0.452
28372W        W96590   9.794  27.966   1.712
28373W        W96591  11.214   5.325   1.755
28374W        W96592  24.089  12.893   2.144
28375W        W96593  31.553  37.930  13.063
28376W        W96594   1.386   7.748   1.928
28377W        W96595   4.465  31.223   3.358
28378W        W96596  22.686  20.541   2.644
28379W        W96597   9.301  19.022   5.187
28380W        W96598   2.857  10.071   3.649
28381W        W96599  32.642   1.144   2.696
28382W        W96600  23.973  22.452  12.471
28383W        W96601  30.082  39.488   0.836
28384W        W96602  44.403  41.021  13.884
28385W        W96603  13.134  19.805  14.392
28386W        W96604  25.044  27.936  11.344
28387W        W96605  10.773  31.358  13.071
28388W        W96606  14.211  32.463   0.274
28389W        W96607  22.336  38.503   1.975
28390W        W96608  44.773  43.257   2.481
28391W        W96609  31.143  31.237   0.848
28392W        W96610  18.226  37.612   0.682
28393W        W96611  39.927  27.117   2.105
28394W        W96612  10.169   8.389  12.137
28395W        W96613  14.698   0.040  11.649
28396W        W96614   4.238  28.039   1.904
28397W        W96615  29.946  21.725   3.336
28398W        W96616  18.854  38.361  13.891
28399W        W96617  11.078   5.320  11.785
28400W        W96618  33.175  31.967  12.478
28401W        W96619  31.574  28.561  10.643
28402W        W96620  28.193  39.332  13.824
28403W        W96621  34.694  12.563  10.693
28404W        W96622   1.676  40.204   0.383
28405W        W96623  13.545  38.988  13.366
28406W        W96624  33.099   1.418   2.279
28407W        W96625   2.697  13.082  11.157
28408W        W96626  37.326  23.092   1.266
28409W        W96627  43.579  30.606   1.983
28410W        W96628   7.048  42.308  14.684
28411W        W96629  17.921   6.479  10.640
28412W        W96630  10.502  34.618  13.396
28413W        W96631   4.361  37.406   3.857
28414W        W96632  28.182   5.745   3.862
28415W        W96633  33.594  19.108  14.014
28416W        W96634  39.486  35.847   2.736
28417W        W96635   8.856   1.510   3.645
28418W        W96636  41.062   4.961   2.198
28419W        W96637  35.773  29.268   4.116
28420W        W96638  30.710  41.759   4.584
28421W        W96639   7.682  13.383   2.758
28422W        W96640  16.367  10.256   1.778
28423W        W96641  43.962  40.496  10.325
28424W        W96642  33.049   2.855  13.910
28425W        W96643  10.142  25.727  13.321
28426W        W96644   5.018  19.148  14.333
28427W        W96645  11.395  14.694  12.369
28428W        W96646  12.522  30.225   2.448
28429W        W96647  10.763  20.743  14.812
28430W        W96648  29.694  12.151  13.101
28431W        W96649  27.733  22.355  14.886
28432W        W96650   7.810  44.804  10.929
28433W        W96651  39.297  18.703   4.430
28434W        W96652   3.851   8.319   1.417
28435W        W96653  21.252  22.713   1.436
28436W        W96654  25.067   4.888  10.615
28437W        W96655   1.790   8.783   0.367
28438W        W96656  33.688  42.644   3.916
28439W        W96657  10.893   9.615  13.031
28440W        W96658  37.893   7.682  10.758
28441W        W96659  12.351  20.617   4.576
28442W        W96660  41.743  18.805  10.043
28443W        W96661  24.622  35.491  13.121
28444W        W96662  26.730   9.965  11.996
28445W        W96663  27.050   0.698  10.701
28446W        W96664  29.341  31.517   4.087
28447W        W96665   0.469  32.863   3.219
28448W        W96666   1.707  39.787   2.313
28449W        W96667  10.291  14.596  10.693
28450W        W96668  44.211   0.927   2.355
28451W        W96669  16.547  20.266  11.001
28452W        W96670  31.479   8.215   3.553
28453W        W96671  32.520  19.288  12.036
28454W        W96672  34.882   5.712   4.853
28455W        W96673   7.151  30.473  14.932
28456W        W96674  39.165  25.424   4.599
28457W        W96675  18.229  39.935  14.928
28458W        W96676  15.490  10.119   2.637
28459W        W96677  20.945  31.371   3.261
28460W        W96678  20.229  24.261  14.430
28461W        W96679  33.579  40.242  11.064
28462W        W96680  10.762  17.815  11.599
28463W        W96681  10.711  36.225  11.609
28464W        W96682  30.128   7.941  14.732
28465W        W96683  29.487   9.843  13.934
28466W        W96684  30.368   8.391  11.239
28467W        W96685  27.053  14.102  11.612
28468W        W96686  14.168  18.195  11.567
28469W        W96687  36.919  33.098  13.920
28470W        W96688  34.753  41.968  12.898
28471W        W96689  38.477  14.723   0.019
28472W        W96690   2.045  17.580  11.205
28473W        W96691  42.365  36.125  14.534
28474W        W96692  20.750   0.985   2.607
28475W        W96693   8.427   3.455   3.296
28476W        W96694  25.658  14.224  11.119
28477W        W96695  18.550  23.699   3.672
28478W        W96696  35.159  30.687   4.599
28479W        W96697  43.316  14.406   0.400
28480W        W96698   3.660  15.058  14.047
28481W        W96699   4.351  25.994   2.254
28482W        W96700   2.886  12.565   4.562
28483W        W96701  23.869   1.977   0.957
28484W        W96702  30.081   2.878   5.004
28485W        W96703   3.712  37.865  10.693
28486W        W96704  11.379   0.808  10.255
28487W        W96705   4.069  17.160  14.539
28488W        W96706  20.412  11.698   2.254
28489W        W96707   6.140  44.930   2.217
28490W        W96708  16.022  18.374   2.215
28491W        W96709  20.091   6.797   3.753
28492W        W96710  17.475  11.890   4.369
28493W        W96711  25.889  26.141   4.343
28494W        W96712  18.448  35.855   4.517
28495W        W96713  34.348   4.831  10.228
28496W        W96714  32.417  26.364  13.910
28497W        W96715  16.279  38.218   3.363
28498W        W96716  42.357  20.310  13.368
28499W        W96717  22.555   6.525   0.916
28500W        W96718  17.539  37.010   1.763
28501W        W96719  13.760  29.079  10.792
28502W        W96720  16.536  17.713  13.591
28503W        W96721  19.981  28.258  14.309
28504W        W96722  16.163  33.704   1.228
28505W        W96723  33.554  38.952  12.917
28506W        W96724  37.991   1.579   4.970
28507W        W96725   7.457  20.547  12.105
28508W        W96726  40.358  18.582  14.000
28509W        W96727  40.796  30.029   1.028
28510W        W96728   3.399  13.021  12.909
28511W        W96729   1.502  30.097  11.676
28512W        W96730  20.349  41.789   2.377
28513W        W96731  31.459  10.238  13.895
28514W        W96732  28.991   8.335  14.477
28515W        W96733  21.109  40.565  11.085
28516W        W96734   5.335  41.228  11.896
28517W        W96735  12.153   6.300  10.724
28518W        W96736  39.829  44.387  11.178
28519W        W96737  33.681   9.740   4.570
28520W        W96738   6.758  26.466   4.566
28521W        W96739  25.218   8.466  14.437
28522W        W96740  43.039  11.662   3.750
28523W        W96741  40.700   1.571  11.684
28524W        W96742  36.132  35.021   3.200
28525W        W96743  38.461  16.758  11.754
28526W        W96744  36.087  33.529  14.564
28527W        W96745   2.417  25.868  12.488
28528W        W96746  10.354  20.225   0.861
28529W        W96747  41.561  30.424  11.197
28530W        W96748  30.008  41.627  12.936
28531W        W96749   0.231  38.105  13.481
28532W        W96750  36.750  40.740   4.144
28533W        W96751  32.040  27.153  12.919
28534W        W96752  38.232  34.516   3.719
28535W        W96753  21.769  37.965   2.515
28536W        W96754  38.962   9.957  14.852
28537W        W96755  13.393   9.394   0.283
28538W        W96756  10.941  43.941  13.832
28539W        W96757  35.836  15.595   3.280
28540W        W96758  23.955  39.400   1.263
28541W        W96759  35.076  37.576  13.457
28542W        W96760  36.665  22.213   2.192
28543W        W96761  16.767  17.344  10.525
28544W        W96762  19.782  12.388   3.540
28545W        W96763  31.982  10.220   1.888
28546W        W96764   1.455   7.099   2.845
28547W        W96765  14.721  30.955   2.634
28548W        W96766   6.926  32.826  13.425
28549W        W96767   1.721   0.259   0.254
28550W        W96768  41.616  21.970  13.964
28551W        W96769  13.703   4.150   3.122
28552W        W96770  23.794  26.689   1.739
28553W        W96771  36.862  21.103   9.871
28554W        W96772  16.434  20.471  12.185
28555W        W96773  17.121  17.283   4.207
28556W        W96774  12.193  19.556   0.788
28557W        W96775  17.963  15.263  14.478
28558W        W96776   0.383  28.941  12.848
28559W        W96777  10.833  12.349   0.953
28560W        W96778  32.275  15.213   2.877
28561W        W96779  22.787  44.779   4.092
28562W        W96780  42.984  43.070   3.671
28563W        W96781  42.893  37.134  13.875
28564W        W96782   3.221   1.798  11.590
28565W        W96783  33.366  20.621  11.733
28566W        W96784  31.511  17.888   0.787
28567W        W96785  31.537  13.162   4.235
28568W        W96786  37.069  40.826  14.351
28569W        W96787  40.793   9.509   3.094
28570W        W96788  36.854  31.776  10.761
28571W        W96789  44.458   5.168  11.281
28572W        W96790   8.977  13.355  10.755
28573W        W96791  33.669  43.307   2.821
28574W        W96792  43.746  10.896  10.790
28575W        W96793  29.608  17.112   4.826
28576W        W96794  21.462  31.735   9.850
28577W        W96795   2.801   8.998  14.362
28578W        W96796  25.439   8.636  13.977
28579W        W96797  26.715  16.517   1.722
28580W        W96798  19.115  26.957   4.726
28581W        W96799  40.190   3.931  14.827
28582W        W96800  40.461  27.580   4.762
28583W        W96801  42.373  16.068  11.247
28584W        W96802  11.373   6.711  13.718
28585W        W96803   2.826  11.818   0.934
28586W        W96804  13.593  23.022   3.765
28587W        W96805  11.840  13.614   3.670
28588W        W96806  13.280  19.014  13.112
28589W        W96807   2.507  16.555  13.218
28590W        W96808  32.536  11.138   4.362
28591W        W96809  18.790  39.797  12.604
28592W        W96810  15.365  31.363   0.948
28593W        W96811  43.656   0.495  14.401
28594W        W96812  27.549  23.522   3.212
28595W        W96813  31.011  43.143   4.259
28596W        W96814  35.383  21.547  11.756
28597W        W96815  43.955  36.688  13.024
28598W        W96816   6.427  26.644  12.597
28599W        W96817  42.400  19.813  14.787
28600W        W96818  36.211   4.726   3.811
28601W        W96819  39.041  41.630  14.365
28602W        W96820   2.223  27.030  12.066
28603W        W96821  24.636  28.112  14.317
28604W        W96822  19.655   8.735  13.067
28605W        W96823  31.170   3.295   1.396
28606W        W96824  31.444  41.673  12.853
28607W        W96825  30.942  27.473  13.328
28608W        W96826   2.630  16.703   4.725
28609W        W96827  12.306  34.243  13.910
28610W        W96828  27.975  44.870   1.436
28611W        W96829   5.860   7.811  12.901
28612W        W96830  34.537  16.874  13.090
28613W        W96831   1.342  12.591  11.045
28614W        W96832  26.982  18.673  12.068
28615W        W96833  12.132  37.135  10.376
28616W        W96834  31.516  10.200  12.429
28617W        W96835  38.397  14.796   3.781
28618W        W96836  18.413  33.571   1.312
28619W        W96837   1.093   7.705   1.477
28620W        W96838  32.536  14.586   0.538
28621W        W96839  44.086  30.483   4.567
28622W        W96840  15.260  11.637  12.006
28623W        W96841  16.699  41.216   4.257
28624W        W96842  14.752  19.315  14.281
28625W        W96843  30.101  35.852   2.537
28626W        W96844   1.934  23.198   4.216
28627W        W96845  32.630   1.828  13.776
28628W        W96846  21.120  10.245   2.260
28629W        W96847  35.243  37.351  12.048
28630W        W96848  31.325  21.502  11.881
28631W        W96849  15.518  20.572  13.526
28632W        W96850  17.594  27.040  10.562
28633W        W96851  31.381   6.286   1.204
28634W        W96852  23.110  41.023   2.470
28635W        W96853   1.991   6.509  11.159
28636W        W96854  29.154   9.308   1.013
28637W        W96855   3.923  34.428   4.119
28638W        W96856  10.128  38.591  10.026
28639W        W96857  11.712  20.682   1.194
28640W        W96858   1.528  13.573   3.338
28641W        W96859  36.005  23.076   2.730
28642W        W96860  28.963  27.038   4.716
28643W        W96861  27.393  19.935   1.413
28644W        W96862   2.002  26.660  10.669
28645W        W96863   2.437   8.342   4.970
28646W        W96864  36.018  40.021   0.893
28647W        W96865  11.818  35.454   0.813
28648W        W96866   3.336   8.705   0.837
28649W        W96867   1.428  33.493  13.798
28650W        W96868   5.639  36.174  13.774
28651W        W96869   1.753  16.949  12.928
28652W        W96870  11.691  10.310   2.321
28653W        W96871  16.700  21.014  11.630
28654W        W96872  25.384  25.417  11.546
28655W        W96873   1.846   8.827   1.751
28656W        W96874  10.876  25.700   4.340
28657W        W96875  27.519   9.699  11.551
28658W        W96876  29.569  13.508   2.753
28659W        W96877  42.990  17.732  13.981
28660W        W96878   8.093  22.121   4.658
28661W        W96879  21.282  27.447   4.755
28662W        W96880  32.637  12.653  13.564
28663W        W96881   8.295   3.730   2.710
28664W        W96882  20.640  43.483  11.402
28665W        W96883  22.168  24.679   3.328
28666W        W96884   7.802  34.137  10.692
28667W        W96885   6.800  24.030   2.321
28668W        W96886  11.385  18.709  13.372
28669W        W96887  16.340  22.226   0.380
28670W        W96888  32.999  10.426  14.922
28671W        W96889   0.353   3.001  14.874
28672W        W96890  44.318  36.585  11.070
28673W        W96891  25.352  32.191  10.294
28674W        W96892  20.788  26.551   2.138
28675W        W96893  17.217  42.194   1.315
28676W        W96894  25.532  23.092  13.598
28677W        W96895   8.907   7.163   2.299
28678W        W96896  28.099  20.214  11.913
28679W        W96897  26.333   8.817  12.541
28680W        W96898  38.874  37.472  11.050
28681W        W96899  15.543   1.429   4.515
28682W        W96900  41.876  25.539  13.799
28683W        W96901  21.301  20.205   5.211
28684W        W96902  40.459  12.628   9.832
28685W        W96903  30.597  23.557   0.816
28686W        W96904  32.470  22.179  11.696
28687W        W96905  36.911  40.048  13.066
28688W        W96906  22.774  43.716  12.153
28689W        W96907   5.236  19.488   4.246
28690W        W96908  32.044   5.724   2.444
28691W        W96909  25.433   7.282  11.475
28692W        W96910  18.645  40.263  10.906
28693W        W96911  14.227  37.468  14.472
28694W        W96912  12.181  11.125  12.419
28695W        W96913  15.020  31.643  13.920
28696W        W96914   5.915  44.297   1.710
28697W        W96915  34.657  15.286   2.883
28698W        W96916  41.394  14.330   1.678
28699W        W96917  19.633   4.381  12.440
28700W        W96918  11.404  10.706  13.122
28701W        W96919  34.926  31.513  11.948
28702W        W96920  32.755  32.139   1.971
28703W        W96921  25.580  32.624  10.487
28704W        W96922  26.297  39.934  13.433
28705W        W96923  42.811  36.024  12.406
28706W        W96924  32.415  42.569   4.674
28707W        W96925   7.856  39.414   1.703
28708W        W96926  29.237  26.632  11.887
28709W        W96927   8.173  35.758  11.207
28710W        W96928   9.793  21.574   2.679
28711W        W96929  42.750  38.439  14.054
28712W        W96930  42.176  39.149   1.676
28713W        W96931   2.298  39.056   0.846
28714W        W96932  14.654  18.033  11.874
28715W        W96933  20.419  16.546  14.953
28716W        W96934  30.009  11.978   3.188
28717W        W96935  23.419  34.642   0.858
28718W        W96936   5.870  36.476  14.341
28719W        W96937  14.115  10.622   0.502
28720W        W96938   5.022  20.235   4.416
28721W        W96939  23.259  29.712   0.409
28722W        W96940   3.928  16.182  14.386
28723W        W96941   9.852  42.080   3.642
28724W        W96942  25.558  37.401   4.553
28725W        W96943  24.875  10.349  13.485
28726W        W96944   4.542  31.518   2.688
28727W        W96945  20.962  37.730   2.784
28728W        W96946  29.665  20.612   0.293
28729W        W96947  35.992  37.173   1.976
28730W        W96948  41.804  26.021   2.764
28731W        W96949  38.567  34.114  13.880
28732W        W96950  17.580  33.496  10.858
28733W        W96951  33.709  17.211   1.324
28734W        W96952  29.852  31.872   1.373
28735W        W96953   1.156   8.190   1.703
28736W        W96954  41.712  31.833  11.035
28737W        W96955  30.955   4.161  13.333
28738W        W96956  19.243   4.488  11.662
28739W        W96957  10.251  34.207  13.618
28740W        W96958  23.707  28.069   2.546
28741W        W96959  38.537  24.762   0.918
28742W        W96960  16.754  14.895   2.264
28743W        W96961   9.900  39.293   3.200
28744W        W96962  38.338  14.192   1.728
28745W        W96963  44.950  28.255  13.972
28746W        W96964  32.063  28.795  11.560
28747W        W96965  34.457  26.233   1.433
28748W        W96966  30.665  26.722  12.984
28749W        W96967  11.736  40.817   0.700
28750W        W96968  25.668   8.905   1.733
28751W        W96969  20.737  33.042  14.994
28752W        W96970  26.165  27.047   3.730
28753W        W96971   7.129  10.673  12.821
28754W        W96972   6.493  17.801   4.084
28755W        W96973  14.557  31.060   2.141
28756W        W96974  15.054  19.692  12.845
28757W        W96975  24.042  31.990   2.940
28758W        W96976   5.742  34.452  12.540
28759W        W96977  44.647  35.267   0.788
28760W        W96978  28.020   0.922  14.036
28761W        W96979  15.142  32.394   0.902
28762W        W96980  40.534  27.405  13.124
28763W        W96981   1.936  22.970  11.903
28764W        W96982  15.732  32.194   1.610
28765W        W96983  24.092  31.059   2.711
28766W        W96984  42.682  10.224   2.291
28767W        W96985  38.517  15.216  10.722
28768W        W96986   3.195  21.973  13.892
28769W        W96987  12.671  39.686   4.904
28770W        W96988  25.229   9.657   4.582
28771W        W96989  19.803  42.864   3.666
28772W        W96990  22.213  36.134   4.483
28773W        W96991  16.002  35.097  12.101
28774W        W96992  15.602  28.384  12.853
28775W        W96993  11.579  32.305  11.130
28776W        W96994  20.839  42.476  14.553
28777W        W96995  34.534   4.198  14.034
28778W        W96996  29.427  24.360   5.028
28779W        W96997  40.883   3.540   3.784
28780W        W96998  39.541  12.153   2.180
28781W        W96999  22.698  15.796   2.798
28782W        W97000  37.318   5.905   3.014
28783W        W97001  42.179  28.021  11.578
28784W        W97002  26.900  22.518   3.132
28785W        W97003  18.722  16.651  10.546
28786W        W97004   1.206  24.901   3.387
28787W        W97005  13.060  44.885   1.848
28788W        W97006  18.772  33.387   4.798
28789W        W97007  34.540   9.055   4.031
28790W        W97008  19.885  39.830   2.998
28791W        W97009  19.202  20.586  13.446
28792W        W97010  13.509  15.881   4.088
28793W        W97011  16.197  26.732   4.411
28794W        W97012  17.471  20.097  12.025
28795W        W97013  11.292  15.706  14.840
28796W        W97014  40.699   7.090  14.560
28797W        W97015  44.515  20.435  13.919
28798W        W97016  40.548  12.286  12.458
28799W        W97017  28.246  25.606   4.520
28800W        W97018  30.952   8.736  13.580
28801W        W97019  16.226  18.101   2.687
28802W        W97020  10.037  33.922   2.731
28803W        W97021   1.312   9.367   1.224
28804W        W97022  36.282   7.942   3.634
28805W        W97023  13.624  23.144  11.059
28806W        W97024  12.287   7.227   4.756
28807W        W97025  26.735   6.225  13.599
28808W        W97026  10.433  30.584   3.237
28809W        W97027  43.226  32.940  11.209
28810W        W97028  44.015  18.569  12.476
28811W        W97029  31.408  10.197  10.485
28812W        W97030  16.973   1.732  11.942
28813W        W97031  16.171  21.497   3.275
28814W        W97032  43.835   4.920  10.690
28815W        W97033  40.524  36.650  12.081
28816W        W97034   6.671  43.500   4.591
28817W        W97035  40.509  30.598  12.849
28818W        W97036  13.818  44.300   3.678
28819W        W97037  27.599  37.615  10.694
28820W        W97038   3.957   6.073   2.831
28821W        W97039  12.997  13.701   1.665
28822W        W97040  40.067  12.116  13.108
28823W        W97041  31.683  31.978   4.518
28824W        W97042  17.792  21.215  14.080
28825W        W97043  13.431  27.704  12.496
28826W        W97044   6.305  20.264  13.142
28827W        W97045  44.411   1.461  12.190
28828W        W97046   3.519  28.403  12.511
28829W        W97047   9.792  28.664   2.333
28830W        W97048  17.173  32.314   2.997
28831W        W97049  21.573  36.149   3.671
28832W        W97050  23.085  32.094   4.094
28833W        W97051   6.771   2.921  10.697
28834W        W97052  31.190  38.515   1.023
28835W        W97053  28.710  21.367  12.488
28836W        W97054  41.686   4.779  12.908
28837W        W97055  14.081  16.786   0.932
28838W        W97056  41.618  36.052   0.711
28839W        W97057  44.368   6.040  11.641
28840W        W97058  22.670  35.373  12.152
28841W        W97059   9.688   8.107   1.817
28842W        W97060  38.882  40.905   2.232
28843W        W97061  44.683  42.106  10.502
28844W        W97062  17.310  42.526   2.730
28845W        W97063  28.953   8.406   0.813
28846W        W97064  24.460  16.546   4.607
28847W        W97065  17.029  43.938  12.967
28848W        W97066  44.890  33.884  13.786
28849W        W97067   1.652   6.251   4.101
28850W        W97068   6.287   1.110   2.888
28851W        W97069  26.137   7.064   3.731
28852W        W97070  39.571  44.285  13.952
28853W        W97071  13.650  33.510   2.066
28854W        W97072  14.803  33.921   0.949
28855W        W97073  27.441  14.233   4.925
28856W        W97074  31.211   7.744   0.921
28857W        W97075  19.545  21.328   0.533
28858W        W97076  40.418   3.463   0.420
28859W        W97077  29.984   6.667  12.783
28860W        W97078  15.819   5.910   4.079
28861W        W97079   9.492   6.885   4.464
28862W        W97080   9.627  43.894  14.302
28863W        W97081  10.313  27.992   2.795
28864W        W97082  14.639  41.901   1.170
28865W        W97083  23.253  28.573   0.931
28866W        W97084   4.313  31.749   4.576
28867W        W97085  27.473  30.167  12.164
28868W        W97086  22.659  12.777   1.011
28869W        W97087  36.455  31.373   0.804
28870W        W97088  24.133  42.779   1.818
28871W        W97089   1.654  31.162   4.801
28872W        W97090  41.133  37.291   5.160
28873W        W97091  13.199  43.084  13.834
28874W        W97092   6.321  31.774   0.931
28875W        W97093  17.734  10.261  14.262
28876W        W97094  34.810   8.377   1.754
28877W        W97095  13.440  20.532   3.315
28878W        W97096  26.497  34.337  13.011
28879W        W97097  36.550   5.188  14.668
28880W        W97098  27.907  33.850   4.346
28881W        W97099  25.586  35.474  11.616
28882W        W97100   6.083  11.749  13.970
28883W        W97101  23.752  29.084   0.279
28884W        W97102  21.019   0.326  14.984
28885W        W97103   2.258  41.827   1.954
28886W        W97104   9.369  26.906  10.498
28887W        W97105  39.935  29.476   1.137
28888W        W97106  17.718  11.104  13.995
28889W        W97107  37.237  28.923   0.005
28890W        W97108  42.556  25.157   3.797
28891W        W97109  34.121  42.981   3.485
28892W        W97110  33.696  40.086  11.564
28893W        W97111  33.063   1.393   4.925
28894W        W97112   4.810  19.351  10.018
28895W        W97113  21.768  14.332   2.602
28896W        W97114   1.149  15.323  12.616
28897W        W97115  23.661  11.833   3.956
28898W        W97116  40.069  20.031  11.881
28899W        W97117  31.783  28.687  10.134
28900W        W97118  13.331   1.566   4.609
28901W        W97119  27.055  32.291  14.364
28902W        W97120  21.288  33.650   1.056
28903W        W97121  19.250  40.060  13.416
28904W        W97122  25.680  23.509  14.550
28905W        W97123  41.591  44.337   1.937
28906W        W97124  43.692  11.890   1.680
28907W        W97125  33.079  29.661  13.808
28908W        W97126  10.670  11.439  10.169
28909W        W97127   5.257  21.203   3.971
28910W        W97128  30.148   1.442   2.905
28911W        W97129   0.956  19.346   0.583
28912W        W97130  27.546   5.287   1.364
28913W        W97131   1.153  12.710   1.580
28914W        W97132  23.004  39.151  12.414
28915W        W97133  37.550  26.728  14.077
28916W        W97134   3.680  10.144  13.553
28917W        W97135   4.002  13.665  12.413
28918W        W97136  19.469  39.312   1.824
28919W        W97137  26.193   4.173  14.750
28920W        W97138   4.347  30.480   1.954
28921W        W97139  21.701   2.965  11.740
28922W        W97140   7.181  19.679   0.484
28923W        W97141  32.963   7.773   0.179
28924W        W97142  43.301   8.172  13.810
28925W        W97143  16.583  36.377   4.654
28926W        W97144  33.794   8.423  14.776
28927W        W97145  30.973  27.730  10.728
28928W        W97146  10.354  28.646  12.454
28929W        W97147  14.160  26.760   4.919
28930W        W97148  29.596  15.796  13.225
28931W        W97149  40.108  15.786  12.285
28932W        W97150  35.962  17.033   0.072
28933W        W97151  13.949  32.343  11.524
28934W        W97152  42.423  24.574  13.935
28935W        W97153  35.831  20.935   0.329
28936W        W97154  41.021  44.008   4.603
28937W        W97155  22.987   8.727   3.000
28938W        W97156  43.823  43.574   0.257
28939W        W97157  28.148  21.513   3.596
28940W        W97158  44.328  16.986   4.941
28941W        W97159  25.465  12.637   0.981
28942W        W97160   5.882  36.967  11.094
28943W        W97161  38.886  21.167  11.955
28944W        W97162  21.442  39.529  14.058
28945W        W97163   0.256  42.225  11.567
28946W        W97164  12.692  37.106  13.569
28947W        W97165  19.519  28.445   4.917
28948W        W97166   0.799  17.162  13.851
28949W        W97167  35.404  41.055  11.021
28950W        W97168  36.331  33.019   0.323
28951W        W97169  36.173  22.061   2.295
28952W        W97170  35.041   9.466  13.944
28953W        W97171  33.433  34.011   1.910
28954W        W97172  35.460   1.646  10.717
28955W        W97173   0.799  12.813   2.379
28956W        W97174   0.267   7.600  11.554
28957W        W97175  28.698  18.163  13.071
28958W        W97176  42.569  11.214  12.998
28959W        W97177   2.167  42.028   3.245
28960W        W97178  18.178  34.245  12.552
28961W        W97179  17.906  20.217   4.584
28962W        W97180  39.610  42.834   1.548
28963W        W97181  28.367  21.589  10.666
28964W        W97182  30.562  42.923   1.875
28965W        W97183   4.653   3.751  10.996
28966W        W97184  37.620  26.044  12.020
28967W        W97185   4.623  30.227  14.282
28968W        W97186  30.155   4.487  11.108
28969W        W97187   1.869   6.292  13.059
28970W        W97188   7.076   7.041   1.362
28971W        W97189  31.719  43.454   1.521
28972W        W97190  43.752  14.732   3.724
28973W        W97191  14.191   0.212  13.924
28974W        W97192  36.481   7.177   5.250
28975W        W97193  10.777  11.511  14.770
28976W        W97194   9.744  34.090  11.914
28977W        W97195  25.784  18.531   1.136
28978W        W97196  36.855   3.735  13.408
28979W        W97197  40.526  28.905   4.158
28980W        W97198  43.862  25.961  14.321
28981W        W97199  27.143  44.769  10.536
28982W        W97200  44.995  27.527   4.214
28983W        W97201  44.270  21.670  10.656
28984W        W97202  41.494   9.392  13.929
28985W        W97203   6.028  20.092  14.924
28986W        W97204  38.960  40.424   0.329
28987W        W97205   9.599  34.406   2.825
28988W        W97206   5.213  26.328  13.049
28989W        W97207  28.312  35.454   1.191
28990W        W97208  32.260  20.369   2.340
28991W        W97209  22.538  12.077  13.895
28992W        W97210  29.086  12.862   3.707
28993W        W97211  19.529  38.598   2.469
28994W        W97212  15.797  41.361  11.081
28995W        W97213  11.381   6.263   4.712
28996W        W97214  11.246  20.812  11.629
28997W        W97215  31.122  29.156  10.417
28998W        W97216  23.625  13.657   2.334
28999W        W97217   8.831  29.085  12.012
29000W        W97218  13.075  24.129  13.529
29001W        W97219  18.386  25.544   2.813
29002W        W97220  37.105  39.072  11.059
29003W        W97221  31.031  30.457  13.826
29004W        W97222  22.215  38.970  14.429
29005W        W97223  43.550   4.776  10.268
29006W        W97224  14.747  15.507  13.182
29007W        W97225  34.336  25.490  10.657
29008W        W97226  20.689  25.219   0.369
29009W        W97227   3.608  33.319  14.884
29010W        W97228  43.055  41.450   1.336
29011W        W97229  29.730  14.476  13.397
29012W        W97230  10.560  37.271  13.261
29013W        W97231   6.845  24.661   4.276
29014W        W97232  35.345  30.086   2.906
29015W        W97233  31.585  14.858  13.777
29016W        W97234  31.053  43.107   1.989
29017W        W97235   6.277  19.616   1.005
29018W        W97236   0.714  40.857  12.506
29019W        W97237  42.450  26.755   0.885
29020W        W97238  35.895  28.399   3.585
29021W        W97239  15.778  20.052   2.824
29022W        W97240  15.665  20.245  11.033
29023W        W97241  37.359  13.643  13.021
29024W        W97242  14.172   6.609  12.158
29025W        W97243  34.943  30.028  12.032
29026W        W97244  28.747  30.570   2.025
29027W        W97245  10.665  21.488   3.151
29028W        W97246   3.139  39.861  13.278
29029W        W97247  23.591  23.139   0.446
29030W        W97248   4.381  20.399  13.902
29031W        W97249  24.445  40.485   4.413
29032W        W97250   9.203  43.840   3.265
29033W        W97251  14.743   1.241  12.990
29034W        W97252  20.152  29.062   0.382
29035W        W97253  29.154  26.179  12.175
29036W        W97254  40.364  22.244  13.645
29037W        W97255  40.716   3.450  14.378
29038W        W97256   6.579   1.596  11.442
29039W        W97257  15.211  16.931  12.834
29040W        W97258  19.156  40.435  12.223
29041W        W97259  36.904  10.610   1.495
29042W        W97260   8.154  12.231  11.181
29043W        W97261  34.960  22.859   2.167
29044W        W97262   9.822  15.729  11.198
29045W        W97263  15.341  20.973  12.174
29046W        W97264   3.797  34.613   3.628
29047W        W97265  22.970   9.456   1.784
29048W        W97266   3.780  10.773  14.301
29049W        W97267  32.997  28.948  13.514
29050W        W97268  26.467  23.713   0.503
29051W        W97269  35.393  23.668   3.715
29052W        W97270   3.421  32.836   4.276
29053W        W97271  35.098  17.723   2.113
29054W        W97272   7.692  12.670  13.762
29055W        W97273  44.362  21.312  13.647
29056W        W97274  18.283  42.913  10.947
29057W        W97275  17.550  15.887   2.913
29058W        W97276  39.143  27.510  12.533
29059W        W97277  31.139   1.778   4.532
29060W        W97278  34.875   3.718   3.214
29061W        W97279   8.773  23.505   1.627
29062W        W97280  31.102  10.603   3.282
29063W        W97281   1.959  26.017  14.767
29064W        W97282  37.958  24.142  14.414
29065W        W97283  13.608  29.823   3.796
29066W        W97284  41.618   1.930   1.445
29067W        W97285  16.577  40.830   0.954
29068W        W97286   9.105  30.069  13.481
29069W        W97287   2.996  12.832   3.243
29070W        W97288  14.877   2.391  11.599
29071W        W97289  28.544   1.837  13.430
29072W        W97290   6.985  44.262   1.703
29073W        W97291  17.131   0.731  11.236
29074W        W97292  39.357  29.076   0.934
29075W        W97293  38.989   8.728   9.930
29076W        W97294  16.037  24.069  13.429
29077W        W97295  24.906   8.427  12.964
29078W        W97296   7.639  19.569  13.671
29079W        W97297  42.885  23.074  14.975
29080W        W97298  19.574  42.787   2.264
29081W        W97299   8.231  34.645  12.079
29082W        W97300  21.497  19.203  14.786
29083W        W97301  10.639   4.704  13.870
29084W        W97302  10.677  43.900  14.342
29085W        W97303  17.135  37.367  13.395
29086W        W97304  24.004  25.811  10.147
29087W        W97305  40.803  13.876  14.846
29088W        W97306  42.112  27.940   1.468
29089W        W97307  42.379  44.527  13.264
29090W        W97308   9.134  16.541   0.856
29091W        W97309  36.737  35.109  14.659
29092W        W97310  39.470  25.041  11.404
29093W        W97311  40.857  11.182  14.992
29094W        W97312   4.686   7.245   1.198
29095W        W97313  41.976  43.701   0.845
29096W        W97314   5.166  21.771   0.980
29097W        W97315  40.259  41.018   0.694
29098W        W97316  13.802  16.656   1.362
29099W        W97317  26.541  28.488  13.842
29100W        W97318  38.102  39.549   0.086
29101W        W97319   9.149  13.869  12.974
29102W        W97320  37.020  40.047   0.836
29103W        W97321  38.341  16.980  10.691
29104W        W97322  38.904  43.910  14.366
29105W        W97323  42.980   1.312  14.749
29106W        W97324   2.218   6.398  14.820
29107W        W97325  39.452   9.776  14.762
29108W        W97326  40.094  35.502   1.170
29109W        W97327   7.718   0.574   1.873
29110W        W97328   3.190  19.095  14.845
29111W        W97329  10.868  11.535   1.903
29112W        W97330  16.183  34.582   4.356
29113W        W97331  38.801   7.954  12.024
29114W        W97332  11.745  28.477   0.652
29115W        W97333   7.727  35.780   1.092
29116W        W97334  24.693  39.730   1.393
29117W        W97335  34.688   4.647   0.049
29118W        W97336  32.126  20.755   1.028
29119W        W97337  33.570  11.786   5.031
29120W        W97338  41.189  14.155   4.643
29121W        W97339  25.407  43.815   0.207
29122W        W97340  14.194   8.828   4.526
29123W        W97341  17.618  17.289   4.024
29124W        W97342  17.205  37.843  13.565
29125W        W97343   1.672  26.623   0.534
29126W        W97344  21.002  28.965  11.755
29127W        W97345  25.275  41.027  12.488
29128W        W97346   8.804  15.331  11.631
29129W        W97347  23.449  24.213   3.698
29130W        W97348  37.758  23.599   0.107
29131W        W97349  10.171  43.335  13.834
29132W        W97350  42.357  30.891   4.936
29133W        W97351  14.815  13.353   2.831
29134W        W97352  16.805  32.920   1.816
29135W        W97353  14.216  30.306   1.714
29136W        W97354  17.139   6.811  10.385
29137W        W97355  32.797  38.833   3.417
29138W        W97356  30.828  28.008   5.430
29139W        W97357  14.677  13.640   4.137
29140W        W97358  43.674  12.298  12.079
29141W        W97359  42.614   7.298   1.392
29142W        W97360  26.831   1.457  14.335
29143W        W97361  10.407   6.435   3.607
29144W        W97362  11.943  42.858   3.283
29145W        W97363  16.052  37.960  13.041
29146W        W97364  16.071  36.414   4.542
29147W        W97365  44.358  21.565  12.620
29148W        W97366   0.419  39.411  13.233
29149W        W97367  20.781  44.983   1.361
29150W        W97368  17.199  41.202  13.327
29151W        W97369   0.970  34.416  11.943
29152W        W97370  30.430  15.098  12.089
29153W        W97371   6.108  43.258  10.667
29154W        W97372   3.965  39.864  11.877
29155W        W97373  32.526  22.682  12.409
29156W        W97374  32.759  42.442  13.509
29157W        W97375   9.078  25.122   1.038
29158W        W97376  38.902  28.662  10.661
29159W        W97377  21.869   6.922   1.090
29160W        W97378  39.370  32.264   3.953
29161W        W97379   2.857  38.511   4.720
29162W        W97380  14.842  44.207  11.974
29163W        W97381  30.838  38.054  11.287
29164W        W97382   4.383  32.891  11.072
29165W        W97383  42.594  37.973   3.813
29166W        W97384  41.590  41.377  11.075
29167W        W97385  20.561   8.132   2.023
29168W        W97386  12.087  30.567  12.017
29169W        W97387  42.801  37.843   2.497
29170W        W97388  14.417   6.971   2.219
29171W        W97389   6.386  41.393  10.827
29172W        W97390  23.539  16.086  13.009
29173W        W97391  27.503  26.108   0.297
29174W        W97392   3.704  34.912   1.786
29175W        W97393  20.059  41.820  11.472
29176W        W97394  38.548  31.040  11.501
29177W        W97395  18.717  20.028  11.524
29178W        W97396   9.215   4.967   9.852
29179W        W97397  33.386  32.084  12.983
29180W        W97398  38.556  35.204   4.184
29181W        W97399  37.568  29.850   2.705
29182W        W97400  35.142  14.821   2.259
29183W        W97401  16.257  42.454   0.918
29184W        W97402   5.112  26.459  10.684
29185W        W97403   5.665  15.212   0.787
29186W        W97404  32.339   7.123   0.161
29187W        W97405  44.130  26.134   2.804
29188W        W97406  25.244  22.071   3.808
29189W        W97407   9.242  25.669   3.579
29190W        W97408   4.195  41.454   5.409
29191W        W97409  43.860  27.229  13.913
29192W        W97410  35.134  17.309   5.145
29193W        W97411   0.968  24.562   0.843
29194W        W97412  20.184  26.663  14.987
29195W        W97413  23.025  13.483  14.868
29196W        W97414  32.884  23.272  14.867
29197W        W97415  25.692  20.688   1.875
29198W        W97416  40.922  31.155   1.849
29199W        W97417  17.194   2.750   1.289
29200W        W97418  20.237  10.417  13.097
29201W        W97419  19.589  18.632   2.650
29202W        W97420  19.700  39.448  10.863
29203W        W97421  28.677  22.459  11.810
29204W        W97422   6.452  16.580   0.122
29205W        W97423  22.898  19.799   0.965
29206W        W97424  26.304   6.358  11.575
29207W        W97425  24.128  16.113  10.971
29208W        W97426  41.565  33.146   0.226
29209W        W97427  27.598  32.316  12.608
29210W        W97428  27.025   9.709   1.821
29211W        W97429  39.918   0.720   0.410
29212W        W97430   1.909  30.698   4.520
29213W        W97431  26.646   6.791  12.870
29214W        W97432  33.980  13.539   0.923
29215W        W97433   2.858  32.436  12.389
29216W        W97434  29.650  34.539  11.562
29217W        W97435  41.249  41.507   1.863
29218W        W97436  10.917  37.079   3.677
29219W        W97437  28.859  43.634  13.931
29220W        W97438  15.601  15.039   3.619
29221W        W97439  13.362   6.880  13.579
29222W        W97440  14.512  44.230   1.216
29223W        W97441  11.848  21.158  14.412
29224W        W97442  24.961  38.040   0.242
29225W        W97443  34.779  35.959  11.759
29226W        W97444   8.316   9.826  11.534
29227W        W97445  11.032  14.440   2.340
29228W        W97446  16.892  17.556   1.681
29229W        W97447   4.467  17.047  10.777
29230W        W97448  18.517  17.227   3.051
29231W        W97449  18.063   0.417   1.370
29232W        W97450  29.693  27.627   4.623
29233W        W97451  28.107   8.367  12.405
29234W        W97452  34.836   2.719  13.464
29235W        W97453  15.787  43.151  11.596
29236W        W97454  12.206  35.097  12.847
29237W        W97455  30.176  35.925   0.417
29238W        W97456  18.269  20.726  13.045
29239W        W97457  21.504  30.703  10.772
29240W        W97458  44.607  28.089   4.805
29241W        W97459  24.648  26.740   3.805
29242W        W97460  41.701  29.516   2.923
29243W        W97461  17.848  38.052   3.150
29244W        W97462  12.515  23.528   5.038
29245W        W97463  44.527   7.189  12.042
29246W        W97464  21.178  14.113  12.127
29247W        W97465  10.361  24.980   2.836
29248W        W97466  34.695  16.257  14.333
29249W        W97467  13.362  42.616   0.362
29250W        W97468  27.871  20.207   3.205
29251W        W97469  24.870   3.405   5.109
29252W        W97470   0.057  28.195   1.353
29253W        W97471  44.442  34.907  14.557
29254W        W97472  40.773   1.260   2.265
29255W        W97473  13.207  33.744   1.942
29256W        W97474   2.981  14.450  14.557
29257W        W97475  14.866  44.816   2.383
29258W        W97476  32.657   3.210  10.926
29259W        W97477  18.508  24.770  11.194
29260W        W97478  28.413   6.984   1.176
29261W        W97479  21.611  19.735  11.636
29262W        W97480  19.003   4.348   0.176
29263W        W97481  25.115  22.931   2.834
29264W        W97482   2.660  29.194   1.873
29265W        W97483  16.827  34.032  13.927
29266W        W97484  12.639  15.098   4.632
29267W        W97485  35.263  14.708  12.633
29268W        W97486   5.699  18.143   0.479
29269W        W97487   3.321  22.269   2.463
29270W        W97488   9.582  23.038   2.348
29271W        W97489  37.311  13.553   3.824
29272W        W97490  19.698  34.074  13.360
29273W        W97491   8.230   6.290  13.598
29274W        W97492  25.877   5.863  10.964
29275W        W97493  37.790  37.783   2.227
29276W        W97494  32.054  10.943   1.430
29277W        W97495  10.784  15.819  14.455
29278W        W97496  31.483  23.303  11.532
29279W        W97497  18.263  29.204  11.644
29280W        W97498  28.942  24.940  14.346
29281W        W97499  44.351  21.541   1.820
29282W        W97500   9.467  41.407   4.373
29283W        W97501   0.620  38.500  14.693
29284W        W97502  25.168  22.666  13.360
29285W        W97503  14.838  37.465  10.901
29286W        W97504  28.865  15.212   0.866
29287W        W97505   0.285  28.675   4.582
29288W        W97506   8.204  20.580  13.395
29289W        W97507  14.302  24.104   5.035
29290W        W97508   2.028   5.178  11.626
29291W        W97509   8.233  40.015  13.806
29292W        W97510  40.452  20.748   0.688
29293W        W97511  33.657   1.318   1.382
29294W        W97512  38.032  33.963  10.968
29295W        W97513  17.293  35.575  12.979
29296W        W97514   9.574   9.691   0.365
29297W        W97515  27.463   8.130  10.740
29298W        W97516  32.900  30.684  12.320
29299W        W97517  22.955  42.365  12.051
29300W        W97518  42.919  13.891   2.662
29301W        W97519   7.884  10.171   0.928
29302W        W97520  18.639  34.162  10.960
29303W        W97521   3.294  16.377  10.611
29304W        W97522  10.989  42.854   1.198
29305W        W97523  43.420  39.816  11.601
29306W        W97524  43.468   1.330   3.384
29307W        W97525  39.382  42.028  12.469
29308W        W97526   0.978  27.679  11.174
29309W        W97527  26.024  40.865  12.888
29310W        W97528  11.269  39.039  11.201
29311W        W97529  31.421   1.120   3.074
29312W        W97530  12.189  35.604  12.764
29313W        W97531  23.238  30.144   0.719
29314W        W97532  42.186   7.322   0.675
29315W        W97533  33.199  21.022   4.108
29316W        W97534  12.091  35.904  11.273
29317W        W97535  24.770  28.829   0.482
29318W        W97536  41.368  26.647  13.959
29319W        W97537   8.222  35.523   0.820
29320W        W97538  18.099  35.842  13.384
29321W        W97539   3.177  30.091  14.343
29322W        W97540  10.484  41.281  10.219
29323W        W97541  29.956  43.004   0.745
29324W        W97542   2.469  25.753   3.331
29325W        W97543  17.787   7.747  14.863
29326W        W97544  14.164  20.628  11.374
29327W        W97545  27.690  33.107  13.441
29328W        W97546   4.356   2.995   3.698
29329W        W97547   2.252  37.465  11.943
29330W        W97548  34.771  34.736   0.216
29331W        W97549   0.762  26.168  13.409
29332W        W97550  13.902  37.391  13.052
29333W        W97551  25.530  11.283   0.204
29334W        W97552  40.185  23.123  12.613
29335W        W97553   8.879   6.713  10.540
29336W        W97554  15.333  24.261   4.151
29337W        W97555  31.888   5.580  13.063
29338W        W97556  33.543  32.296   4.082
29339W        W97557  23.520  39.914  14.683
29340W        W97558  43.823  25.517   4.362
29341W        W97559  21.507  11.716  10.752
29342W        W97560  40.924  24.017   4.809
29343W        W97561  22.714  10.391   3.872
29344W        W97562  41.033  44.397   2.432
29345W        W97563   3.887  43.662  10.550
29346W        W97564  18.579  34.011   3.025
29347W        W97565  33.185   2.853   4.111
29348W        W97566  27.205  27.839  12.878
29349W        W97567   9.211  29.151  10.344
29350W        W97568  31.147  41.414   5.105
29351W        W97569  18.078  29.136   0.424
29352W        W97570  18.767  26.589  10.957
29353W        W97571   6.325   1.169   3.429
29354W        W97572  24.290  37.312  13.431
29355W        W97573   8.759   0.286  13.476
29356W        W97574   1.010  25.034   0.560
29357W        W97575  24.502  27.181  14.944
29358W        W97576  30.803  21.566  11.079
29359W        W97577  39.490   9.221  11.583
29360W        W97578   4.691  12.632   9.816
29361W        W97579  35.058  10.653   1.814
29362W        W97580  24.661  41.848  12.585
29363W        W97581  42.361   3.340   4.027
29364W        W97582  39.093   5.771  12.944
29365W        W97583  14.535  25.514   1.297
29366W        W97584  38.307   7.821   4.617
29367W        W97585   4.713  36.331  11.587
29368W        W97586  28.607  10.032  13.858
29369W        W97587   9.701   9.936   1.498
29370W        W97588   2.531  24.048  12.633
29371W        W97589  16.245  16.013  10.845
29372W        W97590   7.755  29.451   1.792
29373W        W97591   8.776   0.974  11.329
29374W        W97592  40.555   8.057   1.466
29375W        W97593  42.923  21.305   2.108
29376W        W97594   5.587  23.452  12.666
29377W        W97595  32.900  37.334   2.984
29378W        W97596  29.510   6.838  12.599
29379W        W97597   2.033  43.515  13.892
29380W        W97598  28.982  10.832   2.471
29381W        W97599  14.135  14.859   1.849
29382W        W97600   8.711   4.925   4.102
29383W        W97601  38.802  15.344  11.740
29384W        W97602   5.990   2.741   0.943
29385W        W97603   6.324  26.695  11.143
29386W        W97604  28.183  19.744  12.708
29387W        W97605  30.543  19.761   3.814
29388W        W97606   6.435  19.980  14.083
29389W        W97607  37.599  43.874  13.788
29390W        W97608   7.709   8.205  11.611
29391W        W97609  25.454  30.964  11.668
29392W        W97610  13.050   4.671   0.506
29393W        W97611  34.066  41.342   0.023
29394W        W97612  44.212  38.621  11.117
29395W        W97613  22.285  38.822  11.921
29396W        W97614   6.038  39.486   2.549
29397W        W97615  34.547   1.430   1.108
29398W        W97616  24.154  25.342  10.378
29399W        W97617  20.208   5.186   2.417
29400W        W97618  36.219   6.151  14.850
29401W        W97619  29.531  34.732   4.107
29402W        W97620  40.374  27.618  11.148
29403W        W97621  36.218   5.518   4.470
29404W        W97622  16.291  36.004  12.067
29405W        W97623  22.188  41.186   4.611
29406W        W97624  19.647  13.099   2.377
29407W        W97625   0.274  39.579   4.541
29408W        W97626   4.191  11.361  10.599
29409W        W97627  25.666  13.746  12.828
29410W        W97628  27.258  39.455  14.815
29411W        W97629   5.282  23.165   0.162
29412W        W97630  15.893  20.675  11.655
29413W        W97631  10.115  32.372  11.140
29414W        W97632  23.733  39.924   3.375
29415W        W97633  10.726  42.231  12.511
29416W        W97634  28.038   8.622  13.265
29417W        W97635  31.259  36.764  11.206
29418W        W97636   2.534  42.919  14.265
29419W        W97637  34.287   0.929   1.775
29420W        W97638  23.494  38.392   2.717
29421W        W97639  25.471  40.396  11.260
29422W        W97640  21.132  17.082  11.605
29423W        W97641   2.509  12.248   4.365
29424W        W97642  26.210  41.353  13.830
29425W        W97643  19.111  25.671  12.548
29426W        W97644  31.412  11.005   3.286
29427W        W97645  39.913   9.497   4.097
29428W        W97646  42.150  35.988   2.332
29429W        W97647  25.950  44.099  13.411
29430W        W97648  29.940   6.272  10.714
29431W        W97649  24.485   3.284  14.785
29432W        W97650  37.356  27.517  11.535
29433W        W97651  23.325   2.039   3.173
29434W        W97652  26.180  41.885   1.760
29435W        W97653  41.814  32.446  13.739
29436W        W97654  21.010  26.554  13.659
29437W        W97655  23.077   9.332  14.865
29438W        W97656  24.664  39.464   1.848
29439W        W97657  31.233  11.317   3.676
29440W        W97658  38.929   8.378  14.956
29441W        W97659  14.710  38.865   4.936
29442W        W97660  41.707  37.335   1.208
29443W        W97661  23.300   3.260  12.530
29444W        W97662  23.098  41.876   0.389
29445W        W97663   2.377   2.863   2.762
29446W        W97664  22.567  26.392   0.745
29447W        W97665  14.212   4.874   4.218
29448W        W97666   8.242  24.910   2.403
29449W        W97667  18.967  22.959  12.268
29450W        W97668   4.733  42.726  10.311
29451W        W97669  44.369   5.809  14.827
29452W        W97670  31.043  34.671   4.592
29453W        W97671   9.380  38.137  13.478
29454W        W97672  21.698  37.190   5.362
29455W        W97673  13.724  18.779  10.983
29456W        W97674   1.622   3.986   4.560
29457W        W97675  26.032  14.415   1.983
29458W        W97676   9.647   4.976   1.257
29459W        W97677  14.347  33.201   3.368
29460W        W97678   1.377  44.424   1.331
29461W        W97679  25.147  27.158  11.664
29462W        W97680  16.246  32.010   1.695
29463W        W97681   0.076  12.580  11.037
29464W        W97682   6.942  29.110   2.403
29465W        W97683  38.888  42.268  13.564
29466W        W97684  28.969   0.251  11.976
29467W        W97685   2.476  12.706   0.771
29468W        W97686  16.250  25.691   2.364
29469W        W97687  21.201   1.460   1.481
29470W        W97688   2.654   8.787   1.390
29471W        W97689  37.363  31.622  14.944
29472W        W97690  42.401  29.869  11.514
29473W        W97691  35.121  12.723  13.026
29474W        W97692  35.524  12.573   3.169
29475W        W97693  15.673  30.659  14.284
29476W        W97694   0.963  27.831   3.679
29477W        W97695  10.006  11.797  11.930
29478W        W97696  17.032  12.641   5.435
29479W        W97697  27.253   5.578   0.200
29480W        W97698  23.893  24.229  11.584
29481W        W97699  20.640  22.259   2.588
29482W        W97700   8.198   1.425   1.704
29483W        W97701  35.141   0.220  13.806
29484W        W97702  10.744  12.230  10.428
29485W        W97703   3.502  41.711   1.839
29486W        W97704  17.349   0.992   4.554
29487W        W97705   8.974  34.401  12.400
29488W        W97706  30.468  44.566  10.484
29489W        W97707   8.384  37.364   0.788
29490W        W97708  21.625   8.899  13.258
29491W        W97709   9.451  28.954   1.102
29492W        W97710  20.108  19.079   4.210
29493W        W97711  38.369  34.275   3.294
29494W        W97712   4.763  19.744   2.121
29495W        W97713  17.313  17.285  14.999
29496W        W97714  29.110   1.980   2.291
29497W        W97715  13.275  43.255  10.991
29498W        W97716  41.914   2.920   1.969
29499W        W97717  31.410  19.351  11.565
29500W        W97718  23.337  26.865   1.916
29501W        W97719  30.880  35.801  11.173
29502W        W97720  10.910  39.956   4.623
29503W        W97721  42.317  41.931   1.253
29504W        W97722  43.754  22.471   4.128
29505W        W97723  10.484  34.190   2.702
29506W        W97724   3.821  17.227   4.202
29507W        W97725  38.024  19.662  12.877
29508W        W97726  32.515  38.046   1.795
29509W        W97727  34.050  44.374  12.906
29510W        W97728   0.673  30.133   1.404
29511W        W97729  31.174   6.195   2.321
29512W        W97730  27.787  26.050   3.665
29513W        W97731  12.421  14.716  12.311
29514W        W97732  43.518  26.364   4.570
29515W        W97733  33.565  30.628  11.531
29516W        W97734   6.368  24.660   4.103
29517W        W97735  28.206  42.428  12.235
29518W        W97736  22.656  23.240  12.928
29519W        W97737  29.769   3.174   4.125
29520W        W97738  23.254  42.368  12.463
29521W        W97739  15.164  37.602  14.543
29522W        W97740  28.896  34.103  10.945
29523W        W97741  20.502  29.691  14.250
29524W        W97742  13.716  37.351  14.333
29525W        W97743  11.494  27.581   1.332
29526W        W97744   3.401  38.186   0.701
29527W        W97745  42.030  17.185   3.364
29528W        W97746  40.488  16.745  12.600
29529W        W97747  13.173  17.839   3.653
29530W        W97748  39.427  37.914   2.267
29531W        W97749   2.232  17.221  13.926
29532W        W97750   0.169  10.697  14.866
29533W        W97751  33.315  17.769  12.330
29534W        W97752  21.490  27.030   2.237
29535W        W97753  31.878  25.641  13.944
29536W        W97754  36.937  35.908   1.672
29537W        W97755  13.508  39.335  11.652
29538W        W97756  41.766  12.867   2.984
29539W        W97757  15.562   0.833   1.823
29540W        W97758  11.379  27.087  14.827
29541W        W97759  20.160  28.213  11.541
29542W        W97760   8.618  16.701  12.526
29543W        W97761  42.556  29.506  12.562
29544W        W97762  27.396  17.974   0.406
29545W        W97763  41.165  40.697   2.221
29546W        W97764  38.046   9.326   2.485
29547W        W97765  15.983  23.419   4.109
29548W        W97766  24.704  44.326   1.873
29549W        W97767  24.066  16.104   2.465
29550W        W97768  19.533  25.795  11.699
29551W        W97769  33.054  26.647  11.196
29552W        W97770  12.113  12.894   4.061
29553W        W97771  23.452   6.845  14.954
29554W        W97772  22.604  40.345  14.327
29555W        W97773   6.854  26.036   1.076
29556W        W97774  31.338  11.190  14.182
29557W        W97775  43.959   8.422  12.343
29558W        W97776  40.758  34.436   3.901
29559W        W97777  28.919   1.446   3.064
29560W        W97778  18.813  24.804   4.271
29561W        W97779   1.732  19.168  13.352
29562W        W97780  43.766  28.376  10.556
29563W        W97781  26.768  13.956  13.888
29564W        W97782  38.578   5.596   2.318
29565W        W97783  43.945  37.656  13.145
29566W        W97784  36.070   7.707  12.960
29567W        W97785  38.350  35.015   1.663
29568W        W97786  37.531  20.810  11.162
29569W        W97787   1.762  28.204   3.818
29570W        W97788  18.651  34.167   0.691
29571W        W97789  32.433  36.656   3.327
29572W        W97790   5.766  24.972  12.079
29573W        W97791  20.627  21.497  14.971
29574W        W97792  28.675  34.361   1.296
29575W        W97793  34.668  24.758  14.277
29576W        W97794  19.647  44.242  14.602
29577W        W97795  41.974  16.199  10.940
29578W        W97796  28.657  23.199   5.628
29579W        W97797  17.674   3.807  13.950
29580W        W97798  20.251  26.111   0.435
29581W        W97799  37.514  27.658   2.233
29582W        W97800  11.923  33.822  11.080
29583W        W97801  36.810  34.297   3.366
29584W        W97802   4.552  11.461  12.911
29585W        W97803  29.399  33.103   3.264
29586W        W97804  10.607   3.783   1.435
29587W        W97805  18.507  29.305   4.213
29588W        W97806  18.863  32.026   1.712
29589W        W97807  23.645  38.070  12.028
29590W        W97808  16.293   0.264   0.449
29591W        W97809  37.424  22.281   2.805
29592W        W97810  30.583  16.206  13.497
29593W        W97811  43.429  17.575   3.111
29594W        W97812  29.581  34.334  13.967
29595W        W97813  20.171  43.877   0.428
29596W        W97814  26.207  18.225  11.116
29597W        W97815  23.153  29.620   1.908
29598W        W97816   6.880   3.162   0.323
29599W        W97817   3.027  11.626   3.788
29600W        W97818  14.647  39.524  12.181
29601W        W97819  16.282  33.149  10.923
29602W        W97820  16.820   1.293  13.033
29603W        W97821  12.734  29.711  11.983
29604W        W97822   8.653  18.229  13.075
29605W        W97823  36.890  33.147  10.925
29606W        W97824   9.925  28.396  14.023
29607W        W97825  33.058  17.036   4.313
29608W        W97826  36.136  11.546   3.738
29609W        W97827  24.566  44.260  12.527
29610W        W97828  21.718  27.694   0.996
29611W        W97829   3.870  19.600   2.233
29612W        W97830  17.514  23.798  14.449
29613W        W97831  18.258  21.165   3.843
29614W        W97832  33.063  11.632  10.393
29615W        W97833  39.441  19.666  14.059
29616W        W97834  18.120   6.416   2.292
29617W        W97835  17.742  37.384  13.875
29618W        W97836  24.049  13.156  14.411
29619W        W97837   2.191  34.570   0.665
29620W        W97838  41.156  26.737   4.220
29621W        W97839  39.980   0.846  10.379
29622W        W97840  26.923  16.494   4.885
29623W        W97841  10.244  24.805  13.587
29624W        W97842  13.626  41.760  12.590
29625W        W97843  15.639  40.192   3.810
29626W        W97844  36.405  14.929  13.387
29627W        W97845  26.657   0.607  14.866
29628W        W97846  23.512  16.829  14.008
29629W        W97847  38.550   1.034   2.741
29630W        W97848  27.709   4.195   2.255
29631W        W97849   3.333  17.772  12.586
29632W        W97850  18.231  10.481  11.250
29633W        W97851  22.556  43.956   1.983
29634W        W97852  38.566  26.504   2.820
29635W        W97853  10.469  42.294   4.325
29636W        W97854  36.017   0.369  10.328
29637W        W97855  31.056  21.333   0.985
29638W        W97856  28.612   7.793  12.877
29639W        W97857  37.824  21.523   3.825
29640W        W97858  40.289  22.937   4.111
29641W        W97859  12.692  15.610  11.937
29642W        W97860   3.321  32.403  14.043
29643W        W97861  43.443  17.765  12.406
29644W        W97862  26.314  10.383   5.077
29645W        W97863   7.764  18.783   1.806
29646W        W97864  43.542   2.140  11.434
29647W        W97865  33.179  19.589  11.508
29648W        W97866  17.699  18.663   3.969
29649W        W97867   3.735   7.453   1.575
29650W        W97868  28.973  35.861   2.076
29651W        W97869  32.367   0.737  14.150
29652W        W97870  16.164   2.818   4.379
29653W        W97871  41.289   2.443   5.407
29654W        W97872  11.744  32.521  14.585
29655W        W97873  28.077  34.345   4.486
29656W        W97874  29.993  42.391  13.421
29657W        W97875  42.322  33.011   2.479
29658W        W97876  24.127  13.781  14.005
29659W        W97877  44.520  18.635   0.315
29660W        W97878  16.800  20.501  11.730
29661W        W97879  17.444   4.173   0.256
29662W        W97880  11.522   1.930   1.174
29663W        W97881  17.340   9.278   1.854
29664W        W97882  35.340  12.803   0.625
29665W        W97883  27.392  36.027  13.518
29666W        W97884   6.293   6.946   0.375
29667W        W97885   6.027  22.334   0.288
29668W        W97886   0.748  28.453  11.567
29669W        W97887  10.078  34.977   3.182
29670W        W97888  26.075  26.796  13.418
29671W        W97889   9.888  15.179  14.348
29672W        W97890  10.137  21.592   4.914
29673W        W97891  16.267  19.134  12.281
29674W        W97892  26.958  21.804   4.515
29675W        W97893  25.249   0.657   2.167
29676W        W97894  41.862  13.228   3.358
29677W        W97895  24.070  10.019  12.487
29678W        W97896   3.602  17.685  13.020
29679W        W97897   3.889   4.255   0.712
29680W        W97898  21.215  10.542  13.077
29681W        W97899  26.701  19.140  13.858
29682W        W97900   0.024  14.826   3.156
29683W        W97901   5.779  44.512  13.292
29684W        W97902  25.308  44.794  11.619
29685W        W97903  20.208  28.967   3.891
29686W        W97904  39.408   0.246  10.064
29687W        W97905  35.737  12.730  10.800
29688W        W97906   2.829  15.715  14.115
29689W        W97907  11.269  25.630  11.935
29690W        W97908  17.239  23.988  11.560
29691W        W97909  29.080   4.994  14.409
29692W        W97910  36.947   1.052  13.788
29693W        W97911  19.059  33.919   0.517
29694W        W97912  41.530  27.903  12.484
29695W        W97913  33.131   5.288  13.434
29696W        W97914  44.987  17.364  11.567
29697W        W97915  18.104  27.147  14.285
29698W        W97916  17.076  42.981   2.781
29699W        W97917  32.707  39.938   1.511
29700W        W97918   2.233  32.018   3.266
29701W        W97919  25.563   0.337   4.507
29702W        W97920  28.436  31.571   2.276
29703W        W97921  27.934  34.953   1.971
29704W        W97922  27.731  35.352  14.379
29705W        W97923  18.624   5.104  12.816
29706W        W97924  34.440  35.139  14.361
29707W        W97925  24.520  27.530   0.337
29708W        W97926  11.115   9.644   1.517
29709W        W97927   8.302  33.171  11.682
29710W        W97928   7.446  22.373   0.358
29711W        W97929  35.398  19.785   3.713
29712W        W97930  25.199   1.821   2.887
29713W        W97931  37.996  17.174  14.035
29714W        W97932  35.057  43.962  12.036
29715W        W97933   2.783   0.237   2.194
29716W        W97934  22.270  12.434   1.217
29717W        W97935  14.721  22.964  14.329
29718W        W97936  41.853  32.613   0.495
29719W        W97937  18.588  42.872  13.706
29720W        W97938   7.835   0.579   3.756
29721W        W97939  10.074  24.073  10.686
29722W        W97940  21.021  43.625  12.102
29723W        W97941  44.434   8.525  13.031
29724W        W97942  28.446  18.819  10.087
29725W        W97943  19.809  28.558   3.918
29726W        W97944  36.114  19.263   1.523
29727W        W97945   6.034  28.538  13.064
29728W        W97946  21.748  21.217  11.448
29729W        W97947  36.769  39.041  11.466
29730W        W97948  40.320   5.143  10.779
29731W        W97949  31.376   4.297   0.642
29732W        W97950  13.160  29.463  13.053
29733W        W97951  30.971  30.690  14.483
29734W        W97952  18.917  34.432  11.571
29735W        W97953   0.443  42.992   3.697
29736W        W97954  26.598  19.130   3.116
29737W        W97955  28.436  14.265   0.934
29738W        W97956  22.571  25.896   0.956
29739W        W97957  32.375   5.766  13.884
29740W        W97958  30.094   6.446   0.709
29741W        W97959  19.267  30.302   4.522
29742W        W97960  14.312  38.397   1.316
29743W        W97961  26.617  16.700   0.396
29744W        W97962   4.031  35.917  13.372
29745W        W97963  11.711  17.344   3.205
29746W        W97964  11.114  43.967  13.330
29747W        W97965  20.309  23.988  13.336
29748W        W97966  43.280  16.420   0.084
29749W        W97967   9.171  31.523  14.351
29750W        W97968  30.007  14.036  10.735
29751W        W97969  21.268   9.598   0.728
29752W        W97970   4.570  37.754  11.925
29753W        W97971  37.481   5.888   4.476
29754W        W97972  26.930  25.695  10.714
29755W        W97973  35.294  28.632   0.396
29756W        W97974   1.082  16.769   4.809
29757W        W97975  19.761  44.486   4.656
29758W        W97976  31.047  24.328   0.708
29759W        W97977  20.065  37.937   0.375
29760W        W97978   0.527  20.605  13.840
29761W        W97979  11.630  23.318   4.199
29762W        W97980   8.157  20.644  11.541
29763W        W97981  13.155  36.635   0.877
29764W        W97982  27.389  41.392   3.723
29765W        W97983   2.293   5.711   2.396
29766W        W97984   8.331  37.526  11.975
29767W        W97985  24.723  28.644  12.416
29768W        W97986  28.077  10.040  13.784
29769W        W97987   3.983   8.883   3.360
29770W        W97988  22.206   2.370  12.490
29771W        W97989   7.089   4.276   3.228
29772W        W97990  11.199  20.652   1.059
29773W        W97991  36.804   2.836  12.029
29774W        W97992  32.623  33.629   1.726
29775W        W97993   2.386  30.561   3.226
29776W        W97994  10.722  11.965   3.502
29777W        W97995  18.091   2.527   4.603
29778W        W97996  39.047  36.614  12.696
29779W        W97997   6.440  35.486   3.328
29780W        W97998  24.746  14.328  14.834
29781W        W97999  22.193  18.632   2.542
29782W        W98000  36.592  14.575   4.588
29783W        W98001  38.742  26.759   1.199
29784W        W98002   5.736  39.563   0.040
29785W        W98003  32.224  17.041   1.300
29786W        W98004   2.319  11.800   4.064
29787W        W98005  36.461  14.986  10.711
29788W        W98006  28.473  24.813   0.801
29789W        W98007   5.661  16.278   4.151
29790W        W98008  16.663  21.144  12.949
29791W        W98009  32.567  31.430   0.545
29792W        W98010  11.240  21.558  13.951
29793W        W98011  32.285  23.319  13.872
29794W        W98012  27.129  33.326  13.429
29795W        W98013   8.643  40.232   0.733
29796W        W98014  18.024  42.991   4.583
29797W        W98015   8.348  34.099   4.610
29798W        W98016  22.806  36.435   2.224
29799W        W98017  16.808  32.889  12.632
29800W        W98018   8.299  10.682   3.623
29801W        W98019  13.558   6.837  12.392
29802W        W98020   6.098  28.094   0.298
29803W        W98021  34.929  40.094   0.225
29804W        W98022   5.211  11.880  10.589
29805W        W98023  19.610  21.650   0.101
29806W        W98024  17.198  37.540   3.022
29807W        W98025   3.942   4.479   2.702
29808W        W98026  36.284  15.551   1.259
29809W        W98027  21.393   8.500   3.807
29810W        W98028  30.800   0.182  11.149
29811W        W98029  20.177  25.598   3.389
29812W        W98030  38.610   0.789  10.256
29813W        W98031  42.000  20.531   1.867
29814W        W98032  40.967  26.004   0.493
29815W        W98033  13.215  24.953  12.161
29816W        W98034  14.901   7.451  13.829
29817W        W98035  11.600  30.674  11.150
29818W        W98036  18.724  19.836   4.096
29819W        W98037  29.183  12.727   1.493
29820W        W98038   3.173  29.321  13.862
29821W        W98039  44.746  27.594   4.668
29822W        W98040  43.080  13.374   3.566
29823W        W98041  23.306   4.821  12.959
29824W        W98042  41.818   8.798   2.348
29825W        W98043  27.128  24.379   3.278
29826W        W98044  31.315  16.320   3.762
29827W        W98045   7.477  44.183   5.045
29828W        W98046  15.549  19.351   1.496
29829W        W98047  32.864  17.242   1.869
29830W        W98048  21.797  25.918   0.455
29831W        W98049   3.328   8.808  13.305
29832W        W98050   9.263  22.099  14.606
29833W        W98051  39.863  37.003   4.286
29834W        W98052  42.537   4.935  14.874
29835W        W98053  17.570  25.200  14.512
29836W        W98054  13.929  33.963   2.177
29837W        W98055  42.014  25.038   4.624
29838W        W98056  13.890  19.161  14.361
29839W        W98057  37.412  14.228   1.376
29840W        W98058  19.325  44.192   4.607
29841W        W98059  38.163  12.102  13.068
29842W        W98060  34.538   6.232   4.927
29843W        W98061  21.997   2.379  13.125
29844W        W98062  39.750  44.440   0.676
29845W        W98063  29.092  39.050  10.427
29846W        W98064  36.883  44.154  13.508
29847W        W98065  15.808  25.700   0.699
29848W        W98066  30.154  41.576   4.760
29849W        W98067  20.074   2.437  12.420
29850W        W98068   7.724  22.253  14.613
29851W        W98069  11.742  28.333  12.749
29852W        W98070  26.280   4.019  13.438
29853W        W98071   1.548  29.531   1.867
29854W        W98072   8.132  25.906   2.170
29855W        W98073  30.317   9.457   5.062
29856W        W98074  29.974  38.492  13.019
29857W        W98075   1.765  12.646  14.481
29858W        W98076  18.256   6.795  13.109
29859W        W98077  43.821  21.459  13.477
29860W        W98078   6.714  33.224  11.658
29861W        W98079  40.749  18.615   3.658
29862W        W98080   5.559  38.676   0.392
29863W        W98081  32.910  42.874   2.374
29864W        W98082  21.517   8.593   1.218
29865W        W98083  29.114   3.330   3.634
29866W        W98084  26.320   8.912   2.862
29867W        W98085  12.341  34.633  11.132
29868W        W98086  11.742  39.256   1.756
29869W        W98087  39.038  21.559   4.618
29870W        W98088  34.452  16.127  12.376
29871W        W98089  31.332  32.500   3.794
29872W        W98090  27.166  39.427   4.882
29873W        W98091  24.117  26.483  14.104
29874W        W98092  23.748  44.922   1.047
29875W        W98093  13.248  38.417  14.872
29876W        W98094  31.397   7.786   3.821
29877W        W98095  11.743  25.452  12.027
29878W        W98096  10.868  32.353   0.742
29879W        W98097  24.720  39.837   3.779
29880W        W98098  42.022  15.403  13.466
29881W        W98099  37.419  44.298  13.514
29882W        W98100   7.694  42.257   3.143
29883W        W98101  15.314  23.769  12.823
29884W        W98102  18.615  34.597   3.402
29885W        W98103  24.051  12.740  10.296
29886W        W98104   8.413  19.265   3.819
29887W        W98105  20.022  44.449  14.321
29888W        W98106  17.634  15.573   1.123
29889W        W98107  18.204  28.196  13.578
29890W        W98108  27.525  41.150  14.060
29891W        W98109   7.418  38.916  11.042
29892W        W98110  37.658  34.092   1.364
29893W        W98111  28.770   0.268   2.263
29894W        W98112  14.799   8.882  10.797
29895W        W98113  12.210  17.322   4.096
29896W        W98114   5.346  10.211   1.980
29897W        W98115   0.448  26.253   0.756
29898W        W98116  13.837  42.319   0.803
29899W        W98117  10.253  17.520   0.350
29900W        W98118  43.804  23.190   1.312
29901W        W98119  25.514  43.141   1.514
29902W        W98120  35.525  29.714   4.722
29903W        W98121   9.315  17.624  11.229
29904W        W98122   0.238  39.901   0.309
29905W        W98123  23.007   1.510  13.105
29906W        W98124   4.183  38.431   1.478
29907W        W98125  37.474  26.762  13.573
29908W        W98126  17.653  25.695  14.215
29909W        W98127   9.767  39.066  12.667
29910W        W98128  13.788   8.205  12.983
29911W        W98129  26.948  18.102   3.012
29912W        W98130   8.428  41.966  13.517
29913W        W98131   7.742  15.704   2.290
29914W        W98132  22.281  11.335   3.319
29915W        W98133  37.906  21.468  13.919
29916W        W98134  33.852  31.300   4.666
29917W        W98135   3.906  41.476  14.015
29918W        W98136  24.699  12.572  12.080
29919W        W98137  41.289  15.995   0.488
29920W        W98138   2.523  32.927   0.861
29921W        W98139  27.694  37.362   0.562
29922W        W98140  28.380  41.217   2.768
29923W        W98141  37.905  30.418  14.743
29924W        W98142  33.462  10.202  10.586
29925W        W98143  27.182  16.127  11.318
29926W        W98144  38.702  27.194  13.364
29927W        W98145  38.428   4.694   9.822
29928W        W98146  16.474   3.803   4.847
29929W        W98147  22.239  12.804  12.432
29930W        W98148  33.487  34.991  12.018
29931W        W98149  37.905  10.632   3.459
29932W        W98150  11.914  19.243   3.368
29933W        W98151  39.824  26.142  13.058
29934W        W98152  14.958  40.569   2.727
29935W        W98153  31.369  43.175  10.048
29936W        W98154  18.738   4.979  11.029
29937W        W98155  31.101   0.858   0.299
29938W        W98156  43.655   6.450  14.983
29939W        W98157  28.846  37.022   5.101
29940W        W98158  38.457  36.878   4.183
29941W        W98159   0.696   9.681  13.999
29942W        W98160  13.558  25.184   1.945
29943W        W98161   7.396  28.500   0.303
29944W        W98162   5.358  42.493  13.933
29945W        W98163   5.289  21.001   1.668
29946W        W98164  26.543  41.002   3.829
29947W        W98165   1.222  42.448   1.729
29948W        W98166  35.078   1.922  10.023
29949W        W98167  25.859  34.118  13.323
29950W        W98168   3.375   5.699   0.392
29951W        W98169  22.935  26.556  12.370
29952W        W98170  39.827  13.275  14.036
29953W        W98171  12.210  20.555   1.859
29954W        W98172  41.021  33.429   3.118
29955W        W98173  19.596  40.555  13.008
29956W        W98174  43.607   0.482  12.983
29957W        W98175  24.024  27.156   2.493
29958W        W98176  22.494  16.250   1.390
29959W        W98177  28.579   8.222  10.930
29960W        W98178   9.125  37.187  11.212
29961W        W98179  30.216  14.666  11.145
29962W        W98180  30.471  17.495   4.493
29963W        W98181  18.224  23.718  14.863
29964W        W98182  31.334  14.180   1.830
29965W        W98183  27.688  40.605  11.535
29966W        W98184  28.939  32.692  10.756
29967W        W98185   7.452  34.284   4.162
29968W        W98186  30.931  20.324  13.486
29969W        W98187  34.501  26.716   1.280
29970W        W98188  28.589  27.383   1.186
29971W        W98189  44.282  31.858   2.356
29972W        W98190  17.158  43.708   1.210
29973W        W98191  14.774  13.173   2.329
29974W        W98192  25.237  15.852  11.561
29975W        W98193  18.297  13.155  14.418
29976W        W98194   5.310   9.312  10.527
29977W        W98195  12.944   9.706   3.716
29978W        W98196   1.185  36.450  13.623
29979W        W98197  29.634  18.695   3.177
29980W        W98198  11.079  35.211  11.642
29981W        W98199   2.922   5.376  13.633
29982W        W98200  37.964  39.981  11.611
29983W        W98201  33.401  40.606   3.263
29984W        W98202   4.140  20.830   0.261
29985W        W98203  44.962  43.515  14.946
29986W        W98204  16.315  43.801  14.454
29987W        W98205  20.082  40.406  12.611
29988W        W98206  17.702  20.705  14.327
29989W        W98207   1.369   0.239  13.001
29990W        W98208  30.425   1.362   1.368
29991W        W98209  33.680   4.414   5.262
29992W        W98210  13.594  29.399   3.172
29993W        W98211  21.222  21.532   0.753
29994W        W98212   8.296  31.659   3.835
29995W        W98213  29.708  33.149  14.549
29996W        W98214  18.671  19.643  14.466
29997W        W98215  19.648  27.416   0.825
29998W        W98216  40.233  38.965   1.745
29999W        W98217  40.784   2.139   1.219
30000W        W98218   2.328   4.903   2.881
30001W        W98219  31.532  17.827   2.724
30002W        W98220  15.896  35.292  13.811
30003W        W98221   9.961  29.132   2.162
30004W        W98222  32.929  44.513   4.003
30005W        W98223  21.761   5.412  13.864
30006W        W98224  29.340   5.331   3.719
30007W        W98225  40.742   7.971   2.254
30008W        W98226   9.744  23.249  13.402
30009W        W98227   7.602  11.815   5.187
30010W        W98228  23.039  18.346   0.646
30011W        W98229  32.102  31.339   4.404
30012W        W98230  43.729   7.265  14.268
30013W        W98231  20.808  10.300   3.685
30014W        W98232   2.375   2.507  10.706
30015W        W98233  31.455  15.530   4.545
30016W        W98234  29.544  21.770   4.627
30017W        W98235  34.701  27.135  12.483
30018W        W98236   3.256  36.691  11.852
30019W        W98237  43.915   9.815  14.312
30020W        W98238   0.517   4.804   4.884
30021W        W98239  32.598  31.312   3.756
30022W        W98240  13.146   3.033  10.778
30023W        W98241  42.730  37.194  10.596
30024W        W98242  34.662  37.461   1.829
30025W        W98243  31.705   2.938   4.105
30026W        W98244  25.509  15.737  14.837
30027W        W98245  16.077   9.420  13.396
30028W        W98246  28.124  28.014   3.742
30029W        W98247  14.330  31.478  10.569
30030W        W98248  38.216  43.382  14.797
30031W        W98249  42.024   0.396  12.857
30032W        W98250  25.783  32.625  12.089
30033W        W98251   4.920   4.779  14.828
30034W        W98252   9.267  15.151  13.503
30035W        W98253  37.548  28.833   2.666
30036W        W98254  44.614  19.265  14.983
30037W        W98255  10.688   7.804  12.485
30038W        W98256  34.399  34.416  11.614
30039W        W98257   8.791  12.679   4.644
30040W        W98258   7.533   7.891  12.465
30041W        W98259  13.403  25.630  12.927
30042W        W98260  31.118  18.105  14.916
30043W        W98261  24.985  21.695   2.781
30044W        W98262  42.472  44.182   0.242
30045W        W98263  42.262  39.285   4.028
30046W        W98264  17.283  13.124  13.765
30047W        W98265  16.211   3.399   2.719
30048W        W98266   9.164  26.951   0.948
30049W        W98267  18.289  35.857  10.725
30050W        W98268  34.367  27.672   0.277
30051W        W98269  34.931  38.543   1.694
30052W        W98270  15.649  34.047   1.266
30053W        W98271  44.426  17.097  10.700
30054W        W98272  22.129  40.277  13.016
30055W        W98273  23.033  30.583   2.328
30056W        W98274  29.891  15.632   0.513
30057W        W98275  23.428  15.164   4.601
30058W        W98276  25.864  27.012  12.042
30059W        W98277  41.283  40.790  13.005
30060W        W98278  16.083  33.024  11.399
30061W        W98279  40.109  40.015  13.999
30062W        W98280   1.199  38.100   0.839
30063W        W98281  33.035  25.660  12.432
30064W        W98282  10.015  35.427  11.566
30065W        W98283  43.991  21.175   4.418
30066W        W98284  29.645  43.951   1.012
30067W        W98285  27.313  28.841  12.402
30068W        W98286  31.715   6.815   2.917
30069W        W98287   9.397   3.342  12.898
30070W        W98288  19.751   6.234   1.908
30071W        W98289   5.591  28.541   0.939
30072W        W98290  36.034  10.770  12.434
30073W        W98291  30.947  41.729  11.546
30074W        W98292   6.873  18.007   2.262
30075W        W98293  12.083  35.604   1.308
30076W        W98294  13.605  17.178   0.012
30077W        W98295  35.897  34.121  13.582
30078W        W98296  14.446   1.750   4.979
30079W        W98297  21.042  36.889   3.568
30080W        W98298  34.395   0.070   3.778
30081W        W98299  41.940   7.819   0.999
30082W        W98300   4.826  20.693  10.776
30083W        W98301  20.800  34.979   2.757
30084W        W98302  26.720  18.207  12.089
30085W        W98303  16.670  19.812  11.721
30086W        W98304   0.836  13.727  10.695
30087W        W98305  35.652  26.473  13.505
30088W        W98306  21.648  19.585   0.352
30089W        W98307  28.019  31.017  14.950
30090W        W98308   1.731  35.473   0.989
30091W        W98309   5.424  10.258   0.944
30092W        W98310  16.797  42.485   4.776
30093W        W98311  18.997   6.192  11.569
30094W        W98312  42.550   4.307   3.355
30095W        W98313  44.530  42.916   3.863
30096W        W98314  11.739  16.185   0.278
30097W        W98315  44.430  28.087  14.804
30098W        W98316  40.545  15.274   4.160
30099W        W98317  18.176  40.402  11.113
30100W        W98318  17.987  25.952  14.922
30101W        W98319  20.092   1.853  11.699
30102W        W98320   4.561  12.880  11.253
30103W        W98321  41.290  25.491   3.058
30104W        W98322  18.459   8.110   1.862
30105W        W98323  32.898  34.213   0.758
30106W        W98324  17.200  42.335   3.620
30107W        W98325   2.970  10.896   4.024
30108W        W98326  42.307  41.166  12.978
30109W        W98327   4.308  33.796  14.317
30110W        W98328   3.834  43.297   3.757
30111W        W98329   2.828   0.341   0.734
30112W        W98330  43.509   5.948  14.435
30113W        W98331  31.146   8.522  14.114
30114W        W98332   3.455  15.568  13.263
30115W        W98333  13.963  42.411   5.241
30116W        W98334  25.637  28.465   2.863
30117W        W98335  34.339  28.559  12.508
30118W        W98336   2.713   0.929  12.319
30119W        W98337  23.027  30.421  12.151
30120W        W98338  17.820  28.351  10.610
30121W        W98339  10.559  33.133   2.708
30122W        W98340  37.159  30.595  13.362
30123W        W98341  31.930   6.493  10.442
30124W        W98342  25.211  35.959  14.211
30125W        W98343  25.439  28.138  10.712
30126W        W98344   5.974  25.504   2.476
30127W        W98345  13.823  39.954  12.362
30128W        W98346   6.235  40.281   5.222
30129W        W98347  34.094  35.631   3.759
30130W        W98348  22.461   4.417  10.413
30131W        W98349  31.623   2.029  11.167
30132W        W98350  40.014  43.023   0.791
30133W        W98351  43.343  10.741  12.960
30134W        W98352  20.946  21.786   0.385
30135W        W98353  11.889   6.431   4.663
30136W        W98354  32.569   4.206  10.903
30137W        W98355  38.863  24.021   2.488
30138W        W98356  22.550  35.494  11.670
30139W        W98357  28.593   3.871  11.590
30140W        W98358  30.459  22.629   2.970
30141W        W98359   0.641   1.022  13.793
30142W        W98360   3.804  37.405   5.078
30143W        W98361  24.911   8.851   1.221
30144W        W98362  21.123  39.038  11.034
30145W        W98363  25.097  36.619   1.451
30146W        W98364  39.025  44.110  13.127
30147W        W98365  26.000  25.831   1.189
30148W        W98366   9.183  35.413   0.001
30149W        W98367  19.582  35.689  10.331
30150W        W98368  33.756   9.520   0.375
30151W        W98369  27.886  32.977  10.070
30152W        W98370  17.700  17.843  10.720
30153W        W98371   3.424  10.929   0.207
30154W        W98372  15.863  31.482   0.935
30155W        W98373  36.287   5.263  13.857
30156W        W98374   6.319  14.284   3.535
30157W        W98375   1.095  17.527  14.057
30158W        W98376  35.390   5.457  11.797
30159W        W98377   6.344  13.591  13.152
30160W        W98378  15.326   5.145   0.076
30161W        W98379   5.772  24.080   0.855
30162W        W98380  37.928  29.448   1.178
30163W        W98381   5.448  40.372  12.983
30164W        W98382  26.979  34.614   2.708
30165W        W98383  29.019  18.164  13.528
30166W        W98384  28.944  26.500  11.487
30167W        W98385  31.476   9.410  11.091
30168W        W98386  18.146   7.480  13.401
30169W        W98387  42.815   3.202   2.789
30170W        W98388  24.138  14.159   2.752
30171W        W98389  30.660   8.193  12.486
30172W        W98390  18.348  12.197  11.146
30173W        W98391  29.123  20.631   3.914
30174W        W98392   9.723   0.847  11.134
30175W        W98393   9.855   8.687   0.002
30176W        W98394  14.116  25.920  13.381
30177W        W98395  37.803  26.244   3.341
30178W        W98396  12.556   9.439  13.613
30179W        W98397  22.837  23.810   9.919
30180W        W98398  42.823  20.548  10.904
30181W        W98399  11.172  29.442  13.050
30182W        W98400  26.389  22.251   1.441
30183W        W98401  35.032  16.653  13.051
30184W        W98402  43.251  17.644   4.616
30185W        W98403   7.061  18.588  14.062
30186W        W98404  10.524   5.310   0.945
30187W        W98405  35.835   2.340   4.171
30188W        W98406  25.761  28.860  14.010
30189W        W98407  33.347  27.541  11.121
30190W        W98408  30.953  27.005  14.964
30191W        W98409  29.544   7.395  12.465
30192W        W98410   8.259  12.415   1.982
30193W        W98411   5.368  14.042   1.275
30194W        W98412  17.282  33.663   0.405
30195W        W98413  12.877  38.531  10.697
30196W        W98414  22.542   4.972   4.286
30197W        W98415  38.323  31.915  14.198
30198W        W98416  17.474  20.484  13.808
30199W        W98417  24.527  33.034   2.312
30200W        W98418  31.450  25.021   4.553
30201W        W98419  40.961  32.420   0.844
30202W        W98420  15.339  39.819  12.304
30203W        W98421  18.183  10.796   2.750
30204W        W98422  39.526  28.477   3.625
30205W        W98423  43.478  44.411   0.292
30206W        W98424  14.064  20.271  11.013
30207W        W98425  40.318  44.027   1.182
30208W        W98426  15.930  38.938  10.364
30209W        W98427  25.812  19.575   2.240
30210W        W98428  21.971  10.086  13.953
30211W        W98429  40.392  40.029  11.227
30212W        W98430  30.554   8.171   2.361
30213W        W98431  27.458  25.975   1.830
30214W        W98432  43.338  19.841  14.878
30215W        W98433  16.027   6.303  12.867
30216W        W98434  38.863   2.791  13.439
30217W        W98435   8.655  32.503   2.765
30218W        W98436  19.077  23.104  13.399
30219W        W98437  37.841  38.610   4.458
30220W        W98438   9.874  34.055   4.709
30221W        W98439  14.808  28.515  10.728
30222W        W98440   0.037  34.185   1.761
30223W        W98441   4.786   0.157   5.133
30224W        W98442  13.267  11.655  14.378
30225W        W98443  27.530  15.018  13.501
30226W        W98444  20.429   3.209  13.542
30227W        W98445  17.644  30.402  12.020
30228W        W98446  35.529   8.750  13.909
30229W        W98447  43.609  42.435   0.911
30230W        W98448  22.020  28.625   0.821
30231W        W98449  34.607  39.183   2.150
30232W        W98450   8.267  28.160   3.389
30233W        W98451  40.328  43.993   4.290
30234W        W98452  44.345  30.981   2.789
30235W        W98453   2.818  35.078  10.796
30236W        W98454  37.023  41.872  14.409
30237W        W98455  27.122  19.760   3.556
30238W        W98456   0.357  13.722  11.986
30239W        W98457   4.765  15.528   3.486
30240W        W98458  37.818  21.589   3.301
30241W        W98459  29.706  11.558   0.000
30242W        W98460  35.585  13.236   2.609
30243W        W98461  29.418  37.254   0.830
30244W        W98462  32.779   3.506  14.434
30245W        W98463  13.058  12.387   4.090
30246W        W98464  28.168  24.259  13.401
30247W        W98465  26.175  17.905  14.383
30248W        W98466  34.483  35.866  10.812
30249W        W98467  14.111  40.554   4.692
30250W        W98468  26.107   9.947   0.392
30251W        W98469  44.203  11.907   3.207
30252W        W98470  29.789  36.802  13.080
30253W        W98471  43.389  39.327  13.420
30254W        W98472  11.867   4.406  10.550
30255W        W98473  41.310  12.344  14.886
30256W        W98474  31.471  36.894  11.892
30257W        W98475  15.745  43.893  12.165
30258W        W98476   1.512  40.330   3.376
30259W        W98477   2.231  33.970  14.960
30260W        W98478  33.274  16.276  11.690
30261W        W98479  40.665  31.611   4.663
30262W        W98480  19.760  26.425   2.837
30263W        W98481  20.606  25.242   4.577
30264W        W98482  33.663  16.993   0.433
30265W        W98483  11.258  20.529   3.759
30266W        W98484  19.141  33.456   2.748
30267W        W98485   6.212   6.777   2.356
30268W        W98486  39.364   2.217  13.933
30269W        W98487  42.195  39.566  14.353
30270W        W98488  20.468  44.928  12.620
30271W        W98489  41.074  27.038   0.763
30272W        W98490  33.691  19.530  13.355
30273W        W98491  30.478  10.211   4.781
30274W        W98492   5.123  20.459  13.363
30275W        W98493  18.155  25.386  11.615
30276W        W98494  35.668   4.810   0.280
30277W        W98495   2.778  29.915  14.010
30278W        W98496   8.161   1.196   5.367
30279W        W98497   2.020   7.525  11.165
30280W        W98498  12.224  12.137   4.747
30281W        W98499  37.077  28.052  14.407
30282W        W98500  32.778  38.566  11.996
30283W        W98501  32.155   1.950  11.194
30284W        W98502  18.727  27.239   2.790
30285W        W98503  38.527  41.964   2.759
30286W        W98504   7.361  39.914   0.947
30287W        W98505  19.852   0.441   2.790
30288W        W98506  10.376   9.134  14.343
30289W        W98507  18.634  43.050   0.980
30290W        W98508  18.068  23.355   4.621
30291W        W98509   4.171  17.573   2.319
30292W        W98510   4.389  20.141  12.039
30293W        W98511  15.427  29.204  13.863
30294W        W98512  17.676  28.153  14.946
30295W        W98513   5.149  23.712   1.368
30296W        W98514  40.571  10.394  13.802
30297W        W98515  39.614  34.754   4.892
30298W        W98516  30.179  11.369   1.896
30299W        W98517  23.984  20.252   2.366
30300W        W98518  39.516   8.299  13.936
30301W        W98519  16.728   6.335   2.638
30302W        W98520  20.024  10.364   4.836
30303W        W98521  25.726  10.186  12.005
30304W        W98522  31.623  16.118  13.477
30305W        W98523  39.503   4.966  11.066
30306W        W98524   7.926  19.335  13.331
30307W        W98525   6.508   3.131  12.453
30308W        W98526  36.598   8.512  11.459
30309W        W98527  28.095   0.197  12.599
30310W        W98528  36.480  18.892  14.201
30311W        W98529   8.300  16.026   0.829
30312W        W98530  39.678  11.809   3.970
30313W        W98531  31.883  23.686  14.372
30314W        W98532   6.083  39.395   9.834
30315W        W98533  13.192  43.040   1.951
30316W        W98534  27.701  14.166  11.116
30317W        W98535  28.982  34.872   0.963
30318W        W98536  24.593  15.469   0.908
30319W        W98537  13.416  20.747   1.323
30320W        W98538  14.216  41.000  14.050
30321W        W98539  36.141  22.709  14.203
30322W        W98540  38.610   6.266   3.771
30323W        W98541   6.890  26.544   2.218
30324W        W98542  21.028   0.867   0.840
30325W        W98543  15.334  16.115  14.021
30326W        W98544   8.755   1.563   2.314
30327W        W98545   6.859  38.073  12.465
30328W        W98546   4.816   8.090   4.706
30329W        W98547  39.386  18.428   2.194
30330W        W98548  36.896  34.654   1.247
30331W        W98549   0.407  13.875  12.995
30332W        W98550  20.801   2.658   1.884
30333W        W98551  15.105   5.755  14.512
30334W        W98552  29.705  43.863  11.542
30335W        W98553  32.627  32.481   3.155
30336W        W98554   2.279  17.137  12.021
30337W        W98555  38.579  32.417  12.326
30338W        W98556  26.478  39.497   3.796
30339W        W98557  11.304  15.891  12.965
30340W        W98558  12.622  19.118  11.473
30341W        W98559  18.061  10.362   0.322
30342W        W98560  25.723  27.550   1.434
30343W        W98561  24.285  32.978  14.061
30344W        W98562  13.268  14.255  14.278
30345W        W98563  26.219  36.272  11.970
30346W        W98564  37.493  36.581  12.835
30347W        W98565  43.694  40.294   1.792
30348W        W98566  36.616  31.532  14.374
30349W        W98567  42.771  36.577  13.852
30350W        W98568  27.564  30.078  12.689
30351W        W98569   1.268  13.300  12.950
30352W        W98570  40.890  42.853   0.923
30353W        W98571  34.143   5.694   3.120
30354W        W98572  27.068   9.987   1.135
30355W        W98573  36.935  40.947   1.110
30356W        W98574   1.230  20.507   1.754
30357W        W98575  20.761  12.056   3.516
30358W        W98576  19.804  18.754  12.433
30359W        W98577  25.036  18.203  12.351
30360W        W98578  13.815  19.365   4.053
30361W        W98579  13.581   7.718  12.859
30362W        W98580   5.809  34.534   3.075
30363W        W98581   4.421   0.334  14.895
30364W        W98582   8.900  19.149  12.479
30365W        W98583  23.854   7.926   1.542
30366W        W98584   8.359  30.568   4.198
30367W        W98585  12.037  30.565  10.256
30368W        W98586  29.810  39.570  11.349
30369W        W98587  14.842  39.057  12.220
30370W        W98588  40.363   1.276  10.222
30371W        W98589  16.428   6.934   0.316
30372W        W98590  12.202  43.288   2.936
30373W        W98591   3.749  27.240   0.089
30374W        W98592  29.949  10.155   3.584
30375W        W98593  15.898  29.538  10.890
30376W        W98594  19.162  30.942  12.923
30377W        W98595  39.084  41.341  14.803
30378W        W98596  28.051   9.932  12.502
30379W        W98597  38.743  26.693   2.200
30380W        W98598   3.565  43.242   0.654
30381W        W98599  30.959  28.684   9.812
30382W        W98600  43.399  37.132  13.531
30383W        W98601  10.384   3.630  14.490
30384W        W98602  15.978  41.577   4.159
30385W        W98603  39.043  29.936  14.956
30386W        W98604  39.309   3.654   0.940
30387W        W98605   3.684  27.295  11.956
30388W        W98606   3.662  11.768   2.154
30389W        W98607  24.757  14.515   3.137
30390W        W98608   6.635  32.018  11.225
30391W        W98609  22.483  37.893   4.126
30392W        W98610   8.228  30.372   0.070
30393W        W98611  43.044   6.446   2.703
30394W        W98612  10.097  40.297   4.712
30395W        W98613  19.576  19.024   3.296
30396W        W98614   3.633  28.971   4.754
30397W        W98615  15.829   0.639   5.015
30398W        W98616  41.260  40.518  11.545
30399W        W98617  38.011  40.396   0.595
30400W        W98618  20.027   7.723  11.711
30401W        W98619  17.810  29.247   1.245
30402W        W98620   1.209  28.453   0.301
30403W        W98621  19.583  35.127   1.125
30404W        W98622  40.692  27.406  14.070
30405W        W98623  42.855   9.950  10.709
30406W        W98624   1.495  22.722  14.988
30407W        W98625  32.885  18.591   1.325
30408W        W98626   2.649   2.740  11.192
30409W        W98627   9.059  17.806   2.234
30410W        W98628   3.929  25.402   0.974
30411W        W98629  28.856  19.782  12.175
30412W        W98630  30.349  36.357   4.185
30413W        W98631  10.979  33.154  12.462
30414W        W98632  34.217  34.875  11.465
30415W        W98633  39.578  19.748   3.290
30416W        W98634   6.853  14.359   4.267
30417W        W98635   6.897  41.041  14.490
30418W        W98636  40.482   2.462   2.316
30419W        W98637   5.449  31.255   3.109
30420W        W98638  35.212  23.695  12.558
30421W        W98639  23.616   5.713  11.612
30422W        W98640  35.397  23.173   2.204
30423W        W98641   9.317   4.551   1.305
30424W        W98642  19.178  24.233   4.150
30425W        W98643   6.743  13.836  12.130
30426W        W98644  43.787  30.917  14.812
30427W        W98645   8.384  28.695   4.048
30428W        W98646  21.079  23.430   0.946
30429W        W98647  38.862   2.328  14.059
30430W        W98648  34.602  16.770   3.671
30431W        W98649  33.362  41.616   3.568
30432W        W98650  18.046  21.174   3.364
30433W        W98651  40.836  40.751  11.125
30434W        W98652  43.848  32.564   4.639
30435W        W98653  17.760  36.516   3.585
30436W        W98654  42.081   3.094  13.112
30437W        W98655   2.506  30.395  12.936
30438W        W98656  33.478  34.139  14.222
30439W        W98657  32.295  40.348   0.927
30440W        W98658  26.604  39.390  11.477
30441W        W98659  33.569  22.754   2.296
30442W        W98660   1.247  42.300   2.976
30443W        W98661  40.925  44.478  14.763
30444W        W98662  14.265  43.837  14.229
30445W        W98663  43.260  27.236   0.935
30446W        W98664  21.610  38.900   4.236
30447W        W98665  10.973   3.346  11.503
30448W        W98666   6.441  33.657  11.596
30449W        W98667   8.356  19.122   5.318
30450W        W98668  36.313  24.492  12.543
30451W        W98669  24.551  15.707   4.926
30452W        W98670  28.472  29.518  12.982
30453W        W98671  24.681   1.927   3.188
30454W        W98672  33.053  13.170  12.519
30455W        W98673  14.745  20.486  10.685
30456W        W98674   7.516  31.030   2.852
30457W        W98675  27.117  30.878  10.737
30458W        W98676   1.817  40.745   0.337
30459W        W98677  34.475  13.717   4.655
30460W        W98678  31.595  10.087   1.265
30461W        W98679  22.763  41.759  11.001
30462W        W98680  13.169   9.687  10.639
30463W        W98681   7.746  16.317   3.333
30464W        W98682  35.912  32.951  14.819
30465W        W98683  41.461  19.136   2.667
30466W        W98684  20.112  21.418   4.759
30467W        W98685  14.125  34.588  12.642
30468W        W98686   9.184  36.481   1.405
30469W        W98687   4.421  32.496  13.607
30470W        W98688  24.200   3.913  10.478
30471W        W98689  26.245   8.786   0.773
30472W        W98690  22.997  23.826   0.414
30473W        W98691  44.409   2.603   5.143
30474W        W98692  37.251  27.719  13.255
30475W        W98693   7.940   2.331   3.554
30476W        W98694  20.105  30.192   0.835
30477W        W98695  31.248  40.983   4.805
30478W        W98696  23.962  12.346  12.640
30479W        W98697  29.445  19.052   4.157
30480W        W98698  18.118  32.048   0.411
30481W        W98699  19.619   7.164   0.367
30482W        W98700  25.727  16.407   4.451
30483W        W98701  23.224  19.636   0.017
30484W        W98702  12.239   5.474  14.164
30485W        W98703   0.433   2.718  12.937
30486W        W98704  16.816  15.093   2.742
30487W        W98705   6.595   8.245   1.326
30488W        W98706  40.036  44.474   1.137
30489W        W98707   0.570   0.457   1.201
30490W        W98708  18.143   2.293   0.559
30491W        W98709  29.402  10.900   1.224
30492W        W98710   8.192  38.409  12.642
30493W        W98711  25.195   0.514   4.818
30494W        W98712  21.661  38.039  14.907
30495W        W98713  43.412  36.439   2.431
30496W        W98714  44.509  35.250  11.616
30497W        W98715  33.561  23.814   5.141
30498W        W98716  38.816  41.394   0.248
30499W        W98717  33.610   1.282   0.846
30500W        W98718  14.333   6.390   1.332
30501W        W98719  10.264  15.371  13.321
30502W        W98720  32.449  20.345  12.822
30503W        W98721  11.821  36.556  14.041
30504W        W98722   6.196  25.991   3.323
30505W        W98723  31.128   8.422  12.521
30506W        W98724   7.718   5.677  14.448
30507W        W98725   7.326  38.431  11.983
30508W        W98726  16.463  19.755  11.248
30509W        W98727   7.217  36.417  12.046
30510W        W98728   0.685   8.912   5.186
30511W        W98729  15.461   9.248   2.462
30512W        W98730  29.693  41.604  14.089
30513W        W98731   4.719  21.508   2.301
30514W        W98732   9.208  29.914   2.269
30515W        W98733  23.253  40.815  10.983
30516W        W98734  41.935  27.494  14.725
30517W        W98735   8.699  26.246  11.595
30518W        W98736   8.436  10.283   1.860
30519W        W98737  13.083  30.094  14.291
30520W        W98738  16.751   6.223  14.043
30521W        W98739   7.162  20.514  11.618
30522W        W98740   2.022  22.588   3.443
30523W        W98741  26.335  36.949   4.430
30524W        W98742   0.360  14.580  10.639
30525W        W98743  17.261  10.402  10.636
30526W        W98744   4.672   7.343   4.730
30527W        W98745  27.466   4.950  13.366
30528W        W98746  43.304   2.094   4.299
30529W        W98747  11.213  32.670  13.316
30530W        W98748  13.837  24.727   2.007
30531W        W98749  26.497  22.086  10.299
30532W        W98750  19.651  23.997  14.385
30533W        W98751  28.586   3.366   9.815
30534W        W98752   7.358  26.488   1.986
30535W        W98753  22.126   4.039   4.538
30536W        W98754  38.283   8.831   1.311
30537W        W98755  13.838   9.796  12.071
30538W        W98756   5.868   0.919   2.662
30539W        W98757  42.887  33.652   1.294
30540W        W98758  29.507  25.592   4.574
30541W        W98759  11.065  37.866   1.437
30542W        W98760  43.948  26.280   1.847
30543W        W98761  27.460  44.420   2.116
30544W        W98762  14.771  24.319   1.784
30545W        W98763  28.474  10.815  13.218
30546W        W98764   4.289  24.110  11.495
30547W        W98765  30.268  24.513  12.083
30548W        W98766   0.756   4.151   4.298
30549W        W98767  34.652  36.247  12.169
30550W        W98768  37.277  25.326  13.399
30551W        W98769  15.018  24.731   2.678
30552W        W98770  28.123  14.294   2.315
30553W        W98771  30.634  22.026  14.694
30554W        W98772  37.406  27.453  10.600
30555W        W98773  35.999  41.492   2.705
30556W        W98774   2.399  20.161   0.397
30557W        W98775  44.452  22.485   3.611
30558W        W98776  20.574  12.665  13.982
30559W        W98777  42.985  16.293  11.524
30560W        W98778  20.410   9.641  12.571
30561W        W98779  34.102   9.475  13.840
30562W        W98780  34.953  22.270  12.032
30563W        W98781  35.145  37.612   1.659
30564W        W98782  41.746  39.421  11.163
30565W        W98783  16.601  11.850   4.228
30566W        W98784  12.640  42.838  13.381
30567W        W98785   2.736   1.151   4.503
30568W        W98786   6.372  11.912   0.305
30569W        W98787   6.246   0.774   0.897
30570W        W98788  29.487  28.590   0.108
30571W        W98789  39.850  36.968   2.436
30572W        W98790   3.750  35.788  14.772
30573W        W98791  12.682  35.977  12.100
30574W        W98792   1.057  16.369  14.823
30575W        W98793  14.188  15.886   3.322
30576W        W98794  44.204  42.728  14.499
30577W        W98795  22.362  43.085   1.865
30578W        W98796  29.736  33.182  13.520
30579W        W98797  17.638  34.349  10.907
30580W        W98798  23.963   5.197   2.771
30581W        W98799  19.049  22.505  12.019
30582W        W98800   6.364  21.586  14.432
30583W        W98801  29.986  21.675   4.324
30584W        W98802  30.924  16.567  14.435
30585W        W98803   8.311  23.403  10.663
30586W        W98804  12.933  20.465  14.952
30587W        W98805  38.305  26.260   0.182
30588W        W98806  40.060  43.556   0.828
30589W        W98807   9.892  27.183  14.054
30590W        W98808  40.955  42.239   2.790
30591W        W98809  37.711  37.577   2.735
30592W        W98810  37.584  42.492   0.869
30593W        W98811  31.081  29.620   0.434
30594W        W98812  31.096  39.103   4.437
30595W        W98813   5.889  19.650  13.303
30596W        W98814  11.280  15.077   1.003
30597W        W98815  30.037   4.890  13.834
30598W        W98816  21.542   4.392   1.404
30599W        W98817  26.707   4.494  12.844
30600W        W98818  21.975  33.175  13.542
30601W        W98819  35.361   9.751   1.681
30602W        W98820  30.113  43.011   4.652
30603W        W98821  27.960   4.067  13.073
30604W        W98822  21.119  10.633   2.617
30605W        W98823  33.268  39.814  14.856
30606W        W98824  30.320  25.540  13.417
30607W        W98825   8.902  41.184   2.769
30608W        W98826  35.928  24.558   2.795
30609W        W98827  14.784  12.204   2.423
30610W        W98828   5.815  37.505  14.289
30611W        W98829   7.502   8.740  12.494
30612W        W98830   0.291  16.174   4.732
30613W        W98831   6.174  24.677   0.433
30614W        W98832   1.237  28.602   1.915
30615W        W98833  19.253  21.438   4.606
30616W        W98834  22.734   4.867  10.506
30617W        W98835  21.478  32.573  14.264
30618W        W98836  20.642   1.421  12.916
30619W        W98837  16.834  15.363  13.824
30620W        W98838  28.729  18.597  11.419
30621W        W98839  26.074  37.006   0.206
30622W        W98840  32.852   6.865   4.834
30623W        W98841  24.210  40.842  10.714
30624W        W98842  12.320  14.789   1.597
30625W        W98843  30.930   6.435   2.700
30626W        W98844  34.000  39.048  13.498
30627W        W98845  24.019  43.587   1.232
30628W        W98846  44.637  12.299   4.188
30629W        W98847  33.099  21.432   3.804
30630W        W98848  41.059  20.210  13.401
30631W        W98849  32.546  41.234  14.866
30632W        W98850  33.440  38.017  11.618
30633W        W98851  25.972  24.126   3.727
30634W        W98852  18.504  37.566   4.534
30635W        W98853  11.158  17.767  10.822
30636W        W98854  42.506   6.621  11.609
30637W        W98855  26.175  41.591  14.300
30638W        W98856   0.232  10.562   3.401
30639W        W98857  24.419  33.356  11.569
30640W        W98858  43.347  39.958  10.626
30641W        W98859  42.705  25.724   2.727
30642W        W98860  17.265  30.003   1.004
30643W        W98861  31.097   4.199   1.435
30644W        W98862   1.210  12.705   0.256
30645W        W98863  35.541  31.434   0.316
30646W        W98864  13.102  23.642   3.258
30647W        W98865  27.459  25.457   1.914
30648W        W98866   7.640  12.788  12.448
30649W        W98867   8.477  19.759   3.960
30650W        W98868  11.682  44.291   0.694
30651W        W98869  25.625   2.508   1.458
30652W        W98870   4.742  38.863  14.735
30653W        W98871  36.667  24.516  13.498
30654W        W98872  28.303  30.434  11.745
30655W        W98873  28.837  35.030  14.968
30656W        W98874   8.886   1.332  13.892
30657W        W98875  38.838  43.617  13.223
30658W        W98876  35.467  14.373   0.920
30659W        W98877  18.717  32.975   3.572
30660W        W98878  42.916  12.747  10.686
30661W        W98879  41.643  43.122   3.244
30662W        W98880  13.128   5.708   4.845
30663W        W98881   3.879  20.552  13.755
30664W        W98882   7.857  35.127   4.141
30665W        W98883  38.671  30.599  11.759
30666W        W98884  36.918  19.161   1.816
30667W        W98885  11.823  25.632   4.663
30668W        W98886  11.714  34.572  11.655
30669W        W98887  28.703  42.561  12.939
30670W        W98888  40.776  32.522  13.805
30671W        W98889  44.704   5.076  13.123
30672W        W98890  37.553  10.871   0.344
30673W        W98891   3.988   7.130   0.040
30674W        W98892  31.543  18.201  13.133
30675W        W98893  32.908  20.171  13.547
30676W        W98894  16.657  40.764   0.450
30677W        W98895   0.925   3.932   1.311
30678W        W98896  15.136   2.332   1.685
30679W        W98897  34.042   1.727   4.163
30680W        W98898  17.107  33.054  11.324
30681W        W98899  22.075   8.193  13.836
30682W        W98900  41.300   4.276   4.813
30683W        W98901  25.954  17.703  10.390
30684W        W98902   3.226  19.806  12.285
30685W        W98903  40.526  26.160   0.715
30686W        W98904   4.349  19.472  11.177
30687W        W98905  21.602  43.005  11.797
30688W        W98906  10.366  12.796   0.988
30689W        W98907  39.502  30.544  13.362
30690W        W98908  17.159   7.840  13.085
30691W        W98909  33.528   2.257  12.500
30692W        W98910  14.210  34.621   1.220
30693W        W98911  43.736   4.781  14.396
30694W        W98912   9.805  22.612   3.523
30695W        W98913  19.825   4.986   0.990
30696W        W98914  28.225  21.027   3.835
30697W        W98915  27.895  31.629   4.134
30698W        W98916  33.707   7.225   4.553
30699W        W98917  40.935   4.757  13.967
30700W        W98918  39.209  32.103  14.452
30701W        W98919  28.659  24.799   3.636
30702W        W98920  30.852  28.454  10.263
30703W        W98921   1.444  30.494   3.750
30704W        W98922  12.105  26.463   0.544
30705W        W98923  10.347   9.674  11.169
30706W        W98924  40.859   7.138  14.072
30707W        W98925  32.481  14.410   3.213
30708W        W98926  42.744  32.701   0.544
30709W        W98927  13.770  11.622  12.528
30710W        W98928   7.757  43.724  14.695
30711W        W98929  40.831  24.952  13.591
30712W        W98930  36.109   6.374  13.516
30713W        W98931  35.964   0.215  13.407
30714W        W98932  35.044  42.796  11.509
30715W        W98933  27.714   2.671   1.846
30716W        W98934   0.102  27.404  13.391
30717W        W98935  42.572  33.799   4.753
30718W        W98936  24.455   2.715   2.256
30719W        W98937  23.160   9.136   4.110
30720W        W98938  25.407   7.384   3.169
30721W        W98939  36.034  28.436  10.986
30722W        W98940  30.543  21.577   1.481
30723W        W98941  12.009  43.797   5.006
30724W        W98942  26.243  35.068  13.066
30725W        W98943  34.495   0.011   3.171
30726W        W98944  44.101   0.180  11.170
30727W        W98945  38.660   4.065   1.455
30728W        W98946  28.877  32.754   1.781
30729W        W98947  35.108  32.687   2.687
30730W        W98948  13.798  39.323  13.033
30731W        W98949  12.855   1.443   3.804
30732W        W98950  42.258   7.812   4.221
30733W        W98951  30.966  42.825  13.027
30734W        W98952  35.405  11.899  14.812
30735W        W98953   6.381  35.982  12.030
30736W        W98954  25.281  36.852   2.421
30737W        W98955  22.497  32.048   0.803
30738W        W98956   5.706   6.316   2.635
30739W        W98957   6.840  33.015   1.168
30740W        W98958  12.473  43.052   4.633
30741W        W98959  22.239  32.128   2.479
30742W        W98960   6.984   4.869   1.651
30743W        W98961  41.992  28.751  13.373
30744W        W98962  14.062   6.850   1.802
30745W        W98963  16.830  27.108   3.584
30746W        W98964  36.744  16.761  11.591
30747W        W98965  32.404   2.337  10.930
30748W        W98966  18.596  27.910   0.827
30749W        W98967   3.304  18.168  12.961
30750W        W98968   7.319  25.338   1.332
30751W        W98969  14.619  42.920   1.702
30752W        W98970  30.552  26.125   2.579
30753W        W98971  31.432  21.941  10.702
30754W        W98972  11.948  14.200  14.216
30755W        W98973  18.246  18.536   4.453
30756W        W98974  26.276  13.517  11.041
30757W        W98975  15.232  14.338  12.547
30758W        W98976   2.979  37.887   1.425
30759W        W98977   6.184  21.920  11.913
30760W        W98978   2.258   4.760   9.927
30761W        W98979  10.748  41.880   1.404
30762W        W98980  23.758   8.297  14.506
30763W        W98981   3.735  10.154   3.614
30764W        W98982   5.325  39.843  14.774
30765W        W98983  26.057   1.127  12.516
30766W        W98984  26.873   6.762   2.323
30767W        W98985  34.046  35.851   4.227
30768W        W98986  36.602  38.946  14.426
30769W        W98987  39.022  22.815  10.798
30770W        W98988  22.756  19.250  11.292
30771W        W98989  18.990   3.843  10.449
30772W        W98990  18.645  34.981  11.468
30773W        W98991  31.950   5.204   3.664
30774W        W98992  23.445  16.290  11.613
30775W        W98993  16.739  27.466   3.227
30776W        W98994  18.453  27.909   2.234
30777W        W98995  39.339  35.199   0.888
30778W        W98996  37.962  43.208   0.259
30779W        W98997  39.568  30.414   3.692
30780W        W98998  31.190  41.293   3.078
30781W        W98999  37.261  36.998   0.482
30782W        W99000  21.274  26.564   2.329
30783W        W99001  14.926  22.518   2.615
30784W        W99002  15.781  35.344  10.645
30785W        W99003  31.672   0.289   4.326
30786W        W99004  38.821  18.584  14.914
30787W        W99005  23.218  12.008   0.810
30788W        W99006  22.718  32.962   3.605
30789W        W99007  15.578  12.663  12.453
30790W        W99008  11.051  34.529   2.279
30791W        W99009  12.108  39.983   0.857
30792W        W99010   8.468  28.986   4.485
30793W        W99011  36.657  42.896  14.864
30794W        W99012  35.076  35.210  11.332
30795W        W99013   9.364  21.573   3.491
30796W        W99014   4.743   5.899  12.699
30797W        W99015   3.766  27.956  13.894
30798W        W99016  33.434  13.039  11.277
30799W        W99017  34.850  21.093   3.250
30800W        W99018   0.260  21.619  14.453
30801W        W99019   8.132   2.832  11.607
30802W        W99020  21.780  28.495   1.318
30803W        W99021  36.090   1.672  11.159
30804W        W99022  44.052  41.510   1.565
30805W        W99023  38.352  38.300  13.874
30806W        W99024   2.014   1.352   2.933
30807W        W99025   4.046  42.200  10.652
30808W        W99026  26.003   5.006  12.505
30809W        W99027  22.561  35.058   3.346
30810W        W99028   2.980  23.768  14.902
30811W        W99029  14.190  20.347   2.382
30812W        W99030   5.405  34.569   2.740
30813W        W99031  40.803  41.553  12.564
30814W        W99032  10.183  42.350  10.748
30815W        W99033  35.479  10.401  14.966
30816W        W99034  27.897  14.786   1.251
30817W        W99035  18.856  31.601  12.878
30818W        W99036  32.017  36.269  10.214
30819W        W99037   1.129  40.443  13.278
30820W        W99038  42.756   2.460  12.325
30821W        W99039  31.044  24.818   0.567
30822W        W99040  27.448   5.391   2.732
30823W        W99041  22.178  40.996   2.339
30824W        W99042  22.318  42.456   0.438
30825W        W99043   3.141  30.488  11.087
30826W        W99044  12.671  28.015  11.127
30827W        W99045  22.935  23.228   4.543
30828W        W99046  40.812  21.062   2.833
30829W        W99047   1.861  34.167   1.272
30830W        W99048   8.350  23.047  14.523
30831W        W99049   1.719  37.030  13.043
30832W        W99050  34.350  16.271  11.476
30833W        W99051  33.541   0.935  11.290
30834W        W99052  41.023  12.067   1.768
30835W        W99053   0.836  42.364  13.978
30836W        W99054   3.005  28.654  11.236
30837W        W99055  24.392  24.796  10.333
30838W        W99056   1.355  19.572   4.822
30839W        W99057  35.766  43.959  10.695
30840W        W99058  36.991  10.901  12.526
30841W        W99059  34.322   2.245   4.834
30842W        W99060  44.294   5.138  12.593
30843W        W99061  31.065  16.780   1.901
30844W        W99062  38.392  28.154   0.686
30845W        W99063  26.454  28.112  10.950
30846W        W99064  10.819  29.077   0.963
30847W        W99065   2.587   0.128  11.125
30848W        W99066  39.826  27.816   0.744
30849W        W99067  34.514   4.277   3.779
30850W        W99068  25.440  36.069   5.006
30851W        W99069   3.148  20.259  13.563
30852W        W99070  42.949   3.752   0.313
30853W        W99071  39.495  17.656   4.675
30854W        W99072  34.497  33.188   3.498
30855W        W99073  16.175   7.202  10.661
30856W        W99074  27.498   3.714  14.903
30857W        W99075  29.620  42.977  14.764
30858W        W99076  43.990  11.217  11.187
30859W        W99077  28.948  40.211  12.499
30860W        W99078   8.451  37.867  10.725
30861W        W99079   9.297  20.679  14.004
30862W        W99080  33.409  40.349  12.969
30863W        W99081  43.487  19.709  10.746
30864W        W99082  10.814  36.875   2.332
30865W        W99083  26.231  28.489  14.866
30866W        W99084  31.353  23.683  14.494
30867W        W99085  28.297  16.185  14.855
30868W        W99086  35.441  39.985   3.575
30869W        W99087   2.921   0.211   4.209
30870W        W99088  15.342  20.335   2.790
30871W        W99089  13.079   3.977  12.921
30872W        W99090  35.836  25.978   1.524
30873W        W99091  28.989  11.843   2.176
30874W        W99092   4.259  38.374   3.217
30875W        W99093   5.002  41.158  12.342
30876W        W99094  18.331  20.593   4.580
30877W        W99095  11.282   9.268  10.406
30878W        W99096  32.923  22.246  14.981
30879W        W99097   6.663  17.825   0.325
30880W        W99098  17.110  27.543   4.522
30881W        W99099  34.188   0.286  13.646
30882W        W99100  40.244   7.558   2.820
30883W        W99101  28.112  22.146   4.382
30884W        W99102   5.383  16.969   2.283
30885W        W99103  29.066  11.346  10.708
30886W        W99104  41.334  28.619   1.316
30887W        W99105  22.015  30.226  13.261
30888W        W99106  35.940  15.440  11.595
30889W        W99107   0.460  41.108   0.884
30890W        W99108  22.031  13.737   4.520
30891W        W99109  13.309  11.071   3.459
30892W        W99110  31.479  29.885  10.677
30893W        W99111  20.396  36.607   0.369
30894W        W99112  24.796   2.338  14.982
30895W        W99113  23.838  38.381   0.813
30896W        W99114  10.751  22.717   3.882
30897W        W99115  40.200  17.095  12.900
30898W        W99116  40.641  10.156   5.113
30899W        W99117  21.829  19.653  10.812
30900W        W99118   7.608  42.307  10.737
30901W        W99119  43.985  42.593  12.538
30902W        W99120  42.026  23.359   2.631
30903W        W99121   0.864  35.986   4.531
30904W        W99122  33.207  15.211   2.724
30905W        W99123  40.373  35.018  13.149
30906W        W99124  35.886  20.558   2.807
30907W        W99125  18.203  38.464  12.576
30908W        W99126  25.467  29.085   1.869
30909W        W99127   8.420   0.153  11.922
30910W        W99128  10.387  43.263   3.355
30911W        W99129  34.964  44.401   1.249
30912W        W99130  16.939  26.372   2.381
30913W        W99131  29.967  31.432  13.767
30914W        W99132  24.607   0.279   2.395
30915W        W99133   9.284   2.362   4.218
30916W        W99134  42.758   7.906   4.146
30917W        W99135  34.575  35.867   0.805
30918W        W99136  16.078  11.965   3.463
30919W        W99137  14.128  24.299   3.710
30920W        W99138  29.734  12.569  10.708
30921W        W99139  29.891  16.185   1.734
30922W        W99140   1.535  29.899  13.531
30923W        W99141   0.957  38.041   1.314
30924W        W99142   9.656  14.395  11.335
30925W        W99143  24.043  11.443   4.601
30926W        W99144  35.769   1.457  11.500
30927W        W99145   6.420  23.137  11.824
30928W        W99146  36.915  19.194  13.118
30929W        W99147  22.037  37.888   3.805
30930W        W99148   8.874  26.009  13.074
30931W        W99149  39.915  34.770  13.004
30932W        W99150  22.205   1.393   1.404
30933W        W99151   8.838  41.002   2.291
30934W        W99152   4.977  37.407  12.056
30935W        W99153  20.762  31.653   4.600
30936W        W99154  29.384  10.326   2.757
30937W        W99155  42.629  28.109   4.133
30938W        W99156  31.015  28.371  13.845
30939W        W99157  29.066   3.389   1.759
30940W        W99158   8.287  34.997   0.191
30941W        W99159   8.747  31.549   4.150
30942W        W99160  28.342  12.544  11.472
30943W        W99161  28.937  33.934   1.426
30944W        W99162   0.761  27.604   4.965
30945W        W99163   7.626  10.142   1.377
30946W        W99164  20.564   7.835  13.830
30947W        W99165   2.549   3.927  13.015
30948W        W99166  36.500  29.680  12.912
30949W        W99167  31.462   2.918   3.658
30950W        W99168  37.303   5.893  11.004
30951W        W99169  16.776   6.541  14.941
30952W        W99170  38.957  27.597  14.054
30953W        W99171  27.526  17.124   3.642
30954W        W99172  19.909  10.429   0.466
30955W        W99173  40.298  36.424   2.851
30956W        W99174  36.041   3.389  11.727
30957W        W99175  10.733   2.964   4.062
30958W        W99176  17.676  28.481   3.229
30959W        W99177   3.511  21.933  14.830
30960W        W99178  13.933  31.626   4.371
30961W        W99179  10.143  32.077   1.861
30962W        W99180  43.859   1.562   1.169
30963W        W99181   5.890  11.830  14.449
30964W        W99182  37.814  26.432   0.249
30965W        W99183  31.457  32.977   2.528
30966W        W99184  37.426  19.850   0.432
30967W        W99185  33.592  34.256  13.484
30968W        W99186   3.797   2.344   1.486
30969W        W99187  20.279  11.408  12.032
30970W        W99188  44.496  14.392  13.992
30971W        W99189  26.722  18.616   1.489
30972W        W99190   5.400  18.523   3.862
30973W        W99191  35.462  37.782   2.098
30974W        W99192   2.676   9.862  10.566
30975W        W99193   1.744  14.288   1.234
30976W        W99194  28.174  11.290  11.083
30977W        W99195   5.151  13.331   0.794
30978W        W99196   9.033   2.899  14.730
30979W        W99197   3.196   7.988   1.955
30980W        W99198  29.474   6.659  11.581
30981W        W99199   1.329  10.247  11.461
30982W        W99200  13.203   2.775  11.628
30983W        W99201  20.167  27.618   2.859
30984W        W99202  32.814  40.928   1.246
30985W        W99203  29.545  35.636   2.626
30986W        W99204  36.297  41.339  14.462
30987W        W99205  42.917   7.923   2.670
30988W        W99206   7.661  33.546   4.473
30989W        W99207  17.693  40.518  11.238
30990W        W99208  34.681   8.642   2.393
30991W        W99209  13.723  19.522   3.573
30992W        W99210  40.137  17.293   4.967
30993W        W99211  10.313  33.539   1.022
30994W        W99212  25.174  17.618  13.337
30995W        W99213   3.666  21.032   2.413
30996W        W99214  36.073  32.646  13.629
30997W        W99215   1.867  41.256  12.536
30998W        W99216  22.218   4.842  11.671
30999W        W99217  36.792  16.491  12.910
31000W        W99218  40.894  37.383   0.773
31001W        W99219  21.239  21.408  10.999
31002W        W99220  17.019  39.543  11.091
31003W        W99221   4.966   1.390  10.750
31004W        W99222  44.920  11.635  11.481
31005W        W99223  11.308  17.001   0.347
31006W        W99224  18.038  27.089   0.769
31007W        W99225  22.045  12.213   4.144
31008W        W99226  28.363  21.651   2.630
31009W        W99227  33.426  12.777   3.187
31010W        W99228  29.132  31.938  13.034
31011W        W99229  41.539  33.534   3.984
31012W        W99230  36.873  34.717  14.343
31013W        W99231   8.259  18.200  13.972
31014W        W99232  35.212  34.504  11.902
31015W        W99233  11.890  26.862   4.227
31016W        W99234  18.666  35.328   1.330
31017W        W99235  35.381  44.392   0.883
31018W        W99236   6.403  16.779   5.276
31019W        W99237  34.211  12.896  14.980
31020W        W99238  24.364  36.918  11.066
31021W        W99239  37.823  25.138  11.924
31022W        W99240  15.080   5.256  14.633
31023W        W99241  18.111  18.050  13.850
31024W        W99242  42.158  40.325  11.470
31025W        W99243  42.035  26.560  12.124
31026W        W99244   2.476  40.579   1.970
31027W        W99245  35.980  30.171  12.390
31028W        W99246  19.655  10.902   1.404
31029W        W99247  25.535  35.129   3.514
31030W        W99248  21.949   9.349   2.763
31031W        W99249  23.189  31.132  11.518
31032W        W99250  11.190  18.316  12.028
31033W        W99251  23.498   5.797   1.907
31034W        W99252   2.818   8.456  12.171
31035W        W99253   5.724   0.494   4.269
31036W        W99254  42.812  17.869   4.794
31037W        W99255  35.624  40.940  12.029
31038W        W99256  32.465  12.272  10.558
31039W        W99257  25.218   0.385   3.198
31040W        W99258   1.273  26.137  13.324
31041W        W99259   6.910  18.166   4.118
31042W        W99260  32.573  25.001  14.224
31043W        W99261  15.809  12.890  14.527
31044W        W99262  30.680  42.234   2.113
31045W        W99263  34.436  19.802  11.534
31046W        W99264  29.478  19.397  12.886
31047W        W99265  39.078  19.004   3.720
31048W        W99266  28.052  21.077   1.921
31049W        W99267  16.950  25.189  12.876
31050W        W99268  24.953  38.525  11.814
31051W        W99269  36.290  36.014   1.436
31052W        W99270  16.317   9.997   1.294
31053W        W99271   3.486  39.427  13.435
31054W        W99272  20.117  36.387  13.585
31055W        W99273  42.048  43.083   4.794
31056W        W99274  21.317  32.979   0.022
31057W        W99275  13.711  23.644   0.732
31058W        W99276  12.694  44.330  12.099
31059W        W99277  27.712   9.815  14.447
31060W        W99278   3.446  18.937   0.287
31061W        W99279  43.893  44.010  12.519
31062W        W99280  39.105  25.944  11.037
31063W        W99281  44.657  44.459  10.718
31064W        W99282  37.139  39.417  12.461
31065W        W99283  22.785  26.908  11.605
31066W        W99284  18.131  43.916  11.596
31067W        W99285  27.569  25.661   3.364
31068W        W99286   0.210  40.755  12.540
31069W        W99287  41.091  28.578   3.317
31070W        W99288  13.813  23.483   0.160
31071W        W99289  38.419   9.407  11.166
31072W        W99290  40.781  21.450   0.013
31073W        W99291  11.104   1.034  14.311
31074W        W99292   3.720  15.709   0.707
31075W        W99293   7.961  13.879   2.681
31076W        W99294   7.328  20.260  13.959
31077W        W99295  33.543   5.299  14.340
31078W        W99296   2.957  13.344   3.289
31079W        W99297  28.635  34.886   3.239
31080W        W99298   2.424  21.658  10.828
31081W        W99299  42.335  44.791  12.059
31082W        W99300  15.014  12.896  14.856
31083W        W99301  18.151  15.313   2.286
31084W        W99302  15.990  37.989   3.004
31085W        W99303  27.693  33.461  14.811
31086W        W99304   4.110  32.322   0.471
31087W        W99305  37.878   7.649  14.069
31088W        W99306  34.407  33.556   2.377
31089W        W99307  40.983  17.552   2.933
31090W        W99308  18.822  37.632   1.442
31091W        W99309   0.096  36.300  14.460
31092W        W99310  13.386  30.468  14.468
31093W        W99311   9.193  12.658  12.501
31094W        W99312   5.676  43.732   4.439
31095W        W99313  12.727  21.668   2.822
31096W        W99314  38.083  24.803   0.677
31097W        W99315  33.440  40.508  12.480
31098W        W99316   8.598  12.171   2.301
31099W        W99317   0.505   9.212  10.636
31100W        W99318  32.831  37.786  14.841
31101W        W99319  30.984  42.609   1.951
31102W        W99320  36.853   6.314  14.045
31103W        W99321  41.789  32.349   4.283
31104W        W99322   5.820   8.671  13.181
31105W        W99323  27.961  31.459  11.576
31106W        W99324  27.966  44.375   3.763
31107W        W99325  14.142  41.947  14.468
31108W        W99326  28.912  30.951   0.226
31109W        W99327  11.367   3.427   0.357
31110W        W99328   0.779  34.955   1.814
31111W        W99329  31.635  25.248  11.697
31112W        W99330   6.020   7.254  10.001
31113W        W99331   1.942   5.762  10.728
31114W        W99332  14.748   3.587  12.779
31115W        W99333  10.866  18.520  11.062
31116W        W99334  43.492  27.426  11.710
31117W        W99335   5.975   0.454   3.431
31118W        W99336  20.768  23.384  11.180
31119W        W99337  43.787  12.275   4.052
31120W        W99338  21.193  37.694   9.745
31121W        W99339  34.636  22.161   3.762
31122W        W99340   0.788  20.761   1.776
31123W        W99341   5.675  22.257   3.818
31124W        W99342  16.807  43.485   0.317
31125W        W99343   7.809  10.649  13.224
31126W        W99344   9.688   6.453  13.629
31127W        W99345  33.117  15.641   2.465
31128W        W99346  30.035  25.516  13.891
31129W        W99347  33.807  13.381   0.450
31130W        W99348  44.103   4.933   1.864
31131W        W99349  43.773  21.872   3.335
31132W        W99350   2.867  30.550  14.941
31133W        W99351  26.098  37.610   3.209
31134W        W99352  20.901   5.229  11.982
31135W        W99353   0.525  37.480  10.809
31136W        W99354  26.956   7.278  13.821
31137W        W99355  31.688  39.964  13.364
31138W        W99356   8.067  15.113   4.550
31139W        W99357  32.052   8.990  11.564
31140W        W99358  15.687  13.256   2.404
31141W        W99359  31.720  10.954   0.054
31142W        W99360   5.868   5.800   1.834
31143W        W99361   5.198  34.122  12.630
31144W        W99362   5.681  17.771   1.751
31145W        W99363  23.505  17.319  11.596
31146W        W99364  11.925  32.548   1.834
31147W        W99365  17.580   9.769  14.090
31148W        W99366   4.228  28.103   4.782
31149W        W99367  41.435  10.902   1.754
31150W        W99368  31.355  10.247   0.797
31151W        W99369  31.121  29.396   2.072
31152W        W99370  37.975  38.390   0.298
31153W        W99371  34.070  36.479   2.305
31154W        W99372   7.905  42.769  13.421
31155W        W99373  31.193  36.632   3.764
31156W        W99374  31.598  15.602  12.435
31157W        W99375  15.620  26.752  12.976
31158W        W99376  40.996   2.322  12.720
31159W        W99377  28.058  14.372  12.544
31160W        W99378   4.960   4.871   4.539
31161W        W99379  35.211  38.899  12.268
31162W        W99380  18.351  41.803  11.640
31163W        W99381  25.484   8.724   4.649
31164W        W99382  34.931  25.968   0.010
31165W        W99383  13.346  24.797   2.228
31166W        W99384  22.577  16.754   2.685
31167W        W99385  30.642   0.852   0.077
31168W        W99386  17.138  17.632   1.240
31169W        W99387  23.634   0.264  10.892
31170W        W99388  18.116   1.840  13.912
31171W        W99389  23.278   1.805   2.734
31172W        W99390   7.707  14.666   4.601
31173W        W99391  34.840  31.835  10.810
31174W        W99392  11.052  21.656  12.945
31175W        W99393   7.603  20.542  12.963
31176W        W99394  11.395  29.469  13.523
31177W        W99395  23.113  40.567  12.142
31178W        W99396  13.281  32.332   3.679
31179W        W99397   8.282  18.642   1.886
31180W        W99398  36.724  15.677   3.731
31181W        W99399   8.594  31.255   4.731
31182W        W99400  27.616  38.781   0.291
31183W        W99401  33.401   7.252   0.540
31184W        W99402  10.894  11.225   2.860
31185W        W99403  18.154  29.071  13.442
31186W        W99404  35.996   5.884   1.181
31187W        W99405  43.031  20.013   4.344
31188W        W99406  21.700  40.889   1.521
31189W        W99407  20.107  30.508   5.012
31190W        W99408  17.692   9.982   1.493
31191W        W99409   7.641  31.137  13.797
31192W        W99410   6.151  13.162  11.881
31193W        W99411  38.030  22.531   1.298
31194W        W99412  43.508  20.995   0.850
31195W        W99413  41.482   4.458  14.617
31196W        W99414  30.680  25.361  12.506
31197W        W99415   1.333  19.107  12.522
31198W        W99416  15.363  14.076   1.900
31199W        W99417  36.112  38.944   1.875
31200W        W99418  41.498  25.256   1.827
31201W        W99419  12.810  32.830  11.168
31202W        W99420  16.060  14.727  12.185
31203W        W99421   9.715   8.623   1.756
31204W        W99422  34.004   1.389   0.045
31205W        W99423  16.701  26.962  10.778
31206W        W99424   3.052  19.294   0.340
31207W        W99425  18.097  16.298   3.198
31208W        W99426  11.976  23.204  13.068
31209W        W99427   9.330  44.419   4.654
31210W        W99428   3.110  31.429  13.138
31211W        W99429  11.780  16.486   0.722
31212W        W99430  44.940   9.947   3.610
31213W        W99431  12.878   7.912   2.776
31214W        W99432  42.303  18.480  11.950
31215W        W99433   6.617  40.957   2.716
31216W        W99434  42.148  25.170  12.289
31217W        W99435   3.905   6.009   3.541
31218W        W99436   8.888  27.186   2.324
31219W        W99437  12.642  19.296   4.475
31220W        W99438  42.607   5.581  13.772
31221W        W99439  42.773  38.010  11.041
31222W        W99440  43.835  14.129  12.483
31223W        W99441  19.072  40.353   1.488
31224W        W99442  25.687   1.728   2.731
31225W        W99443  35.724  34.640  11.754
31226W        W99444  27.935  15.795  11.190
31227W        W99445   1.046  23.162   2.716
31228W        W99446  32.150  31.947  13.489
31229W        W99447  41.554   7.041   4.861
31230W        W99448  25.327  30.868  14.604
31231W        W99449  17.176  39.589  14.351
31232W        W99450   1.399  15.549  13.667
31233W        W99451  40.802  17.806  14.369
31234W        W99452   6.009  30.167  12.695
31235W        W99453   2.521  22.714  12.363
31236W        W99454  11.872   7.309  14.942
31237W        W99455   8.878  22.946  11.390
31238W        W99456  36.821  39.897   4.579
31239W        W99457  33.608  31.872  14.407
31240W        W99458   2.216  27.166   0.854
31241W        W99459  21.092  24.722  10.700
31242W        W99460   4.145   4.860   0.292
31243W        W99461  33.121  37.550  11.177
31244W        W99462   1.895   7.852  12.942
31245W        W99463  10.143  31.241  14.315
31246W        W99464  37.124  16.076   3.090
31247W        W99465  41.080   4.018  10.559
31248W        W99466  29.714  32.190  11.039
31249W        W99467   5.204  27.936   2.410
31250W        W99468  18.985  32.032  13.181
31251W        W99469  12.748  23.242   0.809
31252W        W99470   9.372  24.729   0.810
31253W        W99471  18.965   4.884  11.876
31254W        W99472   6.839  16.025   2.256
31255W        W99473  44.025  36.534   3.400
31256W        W99474   8.867  19.371  11.636
31257W        W99475  42.427  39.888   4.767
31258W        W99476  38.974  13.440  12.447
31259W        W99477  27.436  21.515  12.274
31260W        W99478  19.554  19.893   2.782
31261W        W99479  43.868  37.377  13.579
31262W        W99480   6.812  21.860   4.639
31263W        W99481  15.793   3.798  14.588
31264W        W99482  44.991  40.825   4.228
31265W        W99483  19.670  20.100   4.915
31266W        W99484  30.185  11.379   0.951
31267W        W99485   6.423  29.553   1.196
31268W        W99486  13.407  15.907   0.474
31269W        W99487  43.554  22.553   9.936
31270W        W99488   8.117  18.142  13.453
31271W        W99489  13.454  31.937  14.439
31272W        W99490   3.439  13.537  12.858
31273W        W99491  43.290  37.399   0.544
31274W        W99492  37.327  22.093  13.426
31275W        W99493  38.858  43.820  13.718
31276W        W99494  16.352   8.172   3.377
31277W        W99495  31.608   4.176  13.860
31278W        W99496  33.829  21.178   3.254
31279W        W99497   7.457   5.421  10.976
31280W        W99498  43.674  40.009   0.488
31281W        W99499  34.230  33.226  12.636
31282W        W99500   0.575  24.565  11.490
31283W        W99501   8.671  27.836   0.216
31284W        W99502  39.552  26.217  11.020
31285W        W99503  35.611  16.538  10.549
31286W        W99504  29.326   8.920   2.821
31287W        W99505   3.496  13.298  14.145
31288W        W99506  36.001  39.127  11.953
31289W        W99507  37.532  10.711   1.236
31290W        W99508  28.642   7.735   4.146
31291W        W99509  41.369  27.235   2.242
31292W        W99510  25.793  23.645   0.045
31293W        W99511  43.762   1.923  14.630
31294W        W99512   3.185  43.543  12.139
31295W        W99513  17.709  17.175  13.350
31296W        W99514   5.203   6.936  10.913
31297W        W99515  36.596   0.857  12.407
31298W        W99516  24.002  39.347   0.727
31299W        W99517  43.857   1.952   2.059
31300W        W99518   9.412  17.098   3.215
31301W        W99519  33.584  20.191   0.322
31302W        W99520   7.883  25.202   2.655
31303W        W99521  30.029   5.486  12.068
31304W        W99522  11.848   4.271   4.622
31305W        W99523   6.880   5.039   2.122
31306W        W99524   1.376  37.526   2.136
31307W        W99525  20.688  11.045  12.633
31308W        W99526   1.574  34.927   2.163
31309W        W99527  15.784  44.372  12.381
31310W        W99528  32.038  30.217   0.833
31311W        W99529   6.146  15.854  10.301
31312W        W99530  28.214  38.699   3.745
31313W        W99531  29.247  36.837  13.955
31314W        W99532   3.749  42.979   4.153
31315W        W99533  34.579   8.929   0.893
31316W        W99534   1.474  30.674   4.228
31317W        W99535  36.178  26.959   2.759
31318W        W99536   6.274  39.008  13.686
31319W        W99537  40.931  44.060  12.839
31320W        W99538  12.882  30.113  14.778
31321W        W99539  13.724   3.498  13.482
31322W        W99540  41.317   3.743   9.789
31323W        W99541  44.902  31.435  11.589
31324W        W99542   8.837  19.305   5.091
31325W        W99543   1.006  33.980   4.339
31326W        W99544  38.844  19.131  14.835
31327W        W99545   6.867  28.092   0.825
31328W        W99546  14.805  40.330  14.658
31329W        W99547  27.641  11.663  11.062
31330W        W99548  18.561  41.956  12.560
31331W        W99549  17.071  18.592   4.552
31332W        W99550  39.931  22.901   4.684
31333W        W99551   2.671  20.018   3.724
31334W        W99552  22.019  34.627   1.810
31335W        W99553  22.716  27.556   1.194
31336W        W99554  30.760  27.471  14.912
31337W        W99555  10.232   3.903   0.506
31338W        W99556  13.047  20.995  11.163
31339W        W99557  35.965  30.890   1.943
31340W        W99558  14.049  17.216   1.794
31341W        W99559  16.477  19.974  14.390
31342W        W99560  39.010  22.606   3.316
31343W        W99561  44.470   0.971   0.518
31344W        W99562   9.916  42.882  14.066
31345W        W99563  28.489  11.962  14.299
31346W        W99564  17.545  31.472  12.602
31347W        W99565  21.037  37.521   1.140
31348W        W99566   1.850   4.871   1.970
31349W        W99567   1.808  16.792  14.778
31350W        W99568  43.164  34.598   2.449
31351W        W99569  14.855  22.539  10.697
31352W        W99570   9.095  13.211   0.965
31353W        W99571  29.120  41.025   1.458
31354W        W99572  21.435   0.292  11.966
31355W        W99573  41.370  37.604   1.476
31356W        W99574   2.394   0.365  13.911
31357W        W99575  36.981  24.751  14.835
31358W        W99576  35.643   9.979   4.438
31359W        W99577  24.732   3.807   1.757
31360W        W99578  36.940   3.254  11.753
31361W        W99579  16.187  12.151  12.045
31362W        W99580  34.795   2.748  14.992
31363W        W99581  21.102  35.488   1.169
31364W        W99582  39.446  30.507  10.618
31365W        W99583  38.949  34.515   1.706
31366W        W99584  44.425  40.635  14.924
31367W        W99585   4.307  25.739   2.708
31368W        W99586   9.391   7.294   2.398
31369W        W99587   4.161  40.741  13.888
31370W        W99588  43.037  19.657  10.978
31371W        W99589  16.565   5.048   3.167
31372W        W99590  20.830  17.314  13.386
31373W        W99591  22.148  43.966   4.037
31374W        W99592  23.464   9.621   1.792
31375W        W99593  31.075  29.455   1.335
31376W        W99594  23.892  40.060   2.834
31377W        W99595  28.457  36.589   0.979
31378W        W99596  23.916  33.402   3.339
31379W        W99597  33.712  39.349   1.652
31380W        W99598  43.522  44.689  13.430
31381W        W99599  30.365  25.751  11.198
31382W        W99600   6.840  34.123  10.701
31383W        W99601   9.204  22.542  11.431
31384W        W99602  13.847   6.888  14.618
31385W        W99603  16.152  13.710   2.258
31386W        W99604  18.572   2.144  10.373
31387W        W99605  20.109  19.090  12.646
31388W        W99606  22.964  16.651   4.499
31389W        W99607  37.609  34.825  11.131
31390W        W99608  33.412   3.451  14.800
31391W        W99609  28.630   8.210   1.646
31392W        W99610  33.888  12.132   1.775
31393W        W99611   0.484  40.789   4.097
31394W        W99612  44.512  34.851  12.461
31395W        W99613  37.402   1.204  14.051
31396W        W99614   0.808   1.243   4.937
31397W        W99615  10.258   3.162   2.791
31398W        W99616   7.416  32.022   3.776
31399W        W99617  26.213  20.724  13.256
31400W        W99618   1.506  31.689  13.986
31401W        W99619   9.876  30.512  12.095
31402W        W99620  22.772  22.991   4.130
31403W        W99621  17.649  37.068  13.473
31404W        W99622  28.129   6.628   0.881
31405W        W99623  43.893  18.200   2.766
31406W        W99624  13.354   9.403   1.291
31407W        W99625  32.616  34.095  13.468
31408W        W99626  38.596  22.768   2.358
31409W        W99627  23.615  12.291   3.722
31410W        W99628  15.749  38.115  12.617
31411W        W99629  30.963   2.215  14.463
31412W        W99630   4.324  14.033  10.725
31413W        W99631   3.035  13.329  13.884
31414W        W99632   5.234   2.025  10.704
31415W        W99633  43.274  24.982  11.795
31416W        W99634  17.082   4.785  11.437
31417W        W99635  29.593  38.320  13.815
31418W        W99636  43.365  35.400   1.678
31419W        W99637  42.360  23.815   4.840
31420W        W99638   5.731  43.038   1.997
31421W        W99639  18.473  23.210  11.447
31422W        W99640   2.949   1.204   0.458
31423W        W99641  30.137   7.355   3.332
31424W        W99642  19.140  35.968  10.760
31425W        W99643  14.662   5.919   1.265
31426W        W99644  13.371  27.102   2.725
31427W        W99645  42.369  29.232   4.030
31428W        W99646  34.582  21.574   0.398
31429W        W99647  22.161  26.562  13.887
31430W        W99648  26.460  11.711  14.951
31431W        W99649  44.633  22.999   4.551
31432W        W99650  21.739  36.173  10.711
31433W        W99651   8.845  20.193   1.646
31434W        W99652  16.338  24.608   0.685
31435W        W99653  33.918  25.823   3.289
31436W        W99654   6.407   6.107   0.696
31437W        W99655  11.163   1.655   0.182
31438W        W99656   1.715  18.098  13.849
31439W        W99657  19.324  44.231  11.638
31440W        W99658  41.314   9.353   0.830
31441W        W99659  31.609  16.322  12.939
31442W        W99660  32.402  38.736   4.315
31443W        W99661  27.418  37.892  11.130
31444W        W99662  35.067  31.674   0.343
31445W        W99663  26.947  43.249  11.162
31446W        W99664  24.877  36.995  11.010
31447W        W99665   2.230  18.622   4.303
31448W        W99666  26.113  26.551  12.024
31449W        W99667  22.813  17.586   0.008
31450W        W99668  44.275  35.603   0.655
31451W        W99669  15.567  21.594  13.573
31452W        W99670  40.793   2.267   3.977
31453W        W99671   0.004  20.550  13.805
31454W        W99672  15.739   9.151   2.894
31455W        W99673  15.285  43.996   3.737
31456W        W99674  19.883  17.709  13.418
31457W        W99675  39.566  15.278   2.650
31458W        W99676  42.014   2.366   0.280
31459W        W99677  20.143  29.872  13.812
31460W        W99678  11.248  13.134  13.369
31461W        W99679  31.653  30.420  13.342
31462W        W99680  43.360   5.713   3.697
31463W        W99681  30.137  31.515   4.602
31464W        W99682  37.552   9.912  13.218
31465W        W99683  29.118   7.906  11.024
31466W        W99684  17.347  24.625   2.771
31467W        W99685  22.032  30.383   1.282
31468W        W99686  28.695  35.802  14.908
31469W        W99687   5.399  19.220  14.019
31470W        W99688  34.562  37.343   3.195
31471W        W99689   6.920  43.400  13.452
31472W        W99690  13.653  25.479  13.921
31473W        W99691  18.651   0.059  13.465
31474W        W99692  31.437  28.635  14.461
31475W        W99693  43.854  37.977   0.901
31476W        W99694  11.261   4.328  14.986
31477W        W99695  37.868  43.982   3.058
31478W        W99696   9.624  23.262   1.408
31479W        W99697  39.579   1.415   1.510
31480W        W99698  13.259  44.496   2.787
31481W        W99699  44.838   8.585  11.123
31482W        W99700  11.085  27.884   1.258
31483W        W99701   0.662  29.835   2.921
31484W        W99702   9.258  34.756   2.619
31485W        W99703  39.439  17.538  14.409
31486W        W99704  23.423  30.004   2.877
31487W        W99705  40.240  31.783  11.142
31488W        W99706  43.722  12.129  11.110
31489W        W99707  13.322  25.140  13.087
31490W        W99708  27.190   1.345  11.222
31491W        W99709  33.984  22.557   3.633
31492W        W99710  30.062  12.159  13.497
31493W        W99711  39.755  43.228   2.706
31494W        W99712  23.535  23.573  10.581
31495W        W99713  32.066  25.535   1.291
31496W        W99714  42.527  39.580   0.065
31497W        W99715  16.061  37.510   1.235
31498W        W99716  22.065   3.633  12.828
31499W        W99717  10.778  10.319   4.388
31500W        W99718  38.928  22.717  12.092
31501W        W99719  40.994  21.677   0.503
31502W        W99720  25.860  24.117  10.979
31503W        W99721  17.796   0.870  13.810
31504W        W99722  16.169  29.531   1.203
31505W        W99723   6.335  17.169   3.492
31506W        W99724   6.372   5.767  13.484
31507W        W99725  43.051  43.018   2.730
31508W        W99726  24.258  11.811  11.595
31509W        W99727   3.461  10.782  11.692
31510W        W99728  32.787  32.473  13.608
31511W        W99729  42.949  31.536  12.965
31512W        W99730  21.527  34.638  13.863
31513W        W99731  42.837  11.127  14.804
31514W        W99732  44.300  17.291  13.569
31515W        W99733  19.523  35.591  13.379
31516W        W99734  20.698  30.558  13.771
31517W        W99735  15.109  10.342   3.187
31518W        W99736  27.687  22.929  12.050
31519W        W99737  43.013  21.773   2.322
31520W        W99738  13.802  42.539  11.134
31521W        W99739  36.951  27.591   4.290
31522W        W99740  17.282  35.055  12.867
31523W        W99741  31.668   2.935  13.415
31524W        W99742   6.538  20.622   4.678
31525W        W99743   7.935  38.921  14.313
31526W        W99744  23.911  24.991  14.453
31527W        W99745  23.619  43.251  13.548
31528W        W99746  27.612  16.246   2.747
31529W        W99747  36.626  34.528  11.887
31530W        W99748  16.167  38.661  13.266
31531W        W99749   1.031  42.324   1.276
31532W        W99750  32.111   5.243  13.462
31533W        W99751  11.359  28.979   2.669
31534W        W99752  38.490   7.744   0.689
31535W        W99753  28.466   1.222   3.630
31536W        W99754  14.621  12.561   3.159
31537W        W99755  43.255   0.816  12.009
31538W        W99756  44.667  13.017  12.503
31539W        W99757  43.788  23.552  14.957
31540W        W99758  20.715  31.762   2.430
31541W        W99759  35.982   0.678   2.231
31542W        W99760   9.412  11.799   0.008
31543W        W99761  28.149  15.887  12.042
31544W        W99762  39.520  40.512  12.559
31545W        W99763  23.685  26.934  11.558
31546W        W99764  14.834  21.735   3.893
31547W        W99765  11.876  36.057  10.323
31548W        W99766  23.241  25.703   0.826
31549W        W99767  12.253  11.397   2.450
31550W        W99768  16.523   4.363   1.245
31551W        W99769  29.499  16.712   3.504
31552W        W99770  33.864  21.816   0.914
31553W        W99771  30.329  13.235   2.839
31554W        W99772  23.604   6.951   3.756
31555W        W99773   7.684  27.119  13.838
31556W        W99774  18.690  37.339   9.971
31557W        W99775  36.446  14.964   0.639
31558W        W99776   8.158  20.617  14.367
31559W        W99777  43.974  34.501  13.469
31560W        W99778  33.281  17.167  10.725
31561W        W99779  20.426   5.919   0.576
31562W        W99780  39.052  37.295  13.458
31563W        W99781  20.720  31.005   1.683
31564W        W99782  30.273  33.792  10.652
31565W        W99783  15.779  26.101   1.354
31566W        W99784  14.806  19.360   2.287
31567W        W99785  26.156  31.992  10.523
31568W        W99786  13.149   3.274   3.224
31569W        W99787  12.639   3.451   3.159
31570W        W99788  36.209  18.100   3.842
31571W        W99789  15.861  28.417  11.538
31572W        W99790  23.264  34.230  11.594
31573W        W99791  43.134   6.175  14.179
31574W        W99792  39.456   6.993  13.582
31575W        W99793   3.026  15.164  14.539
31576W        W99794   2.032   8.161   1.417
31577W        W99795  39.682  17.595   2.660
31578W        W99796  44.407  36.565   0.684
31579W        W99797   1.845  34.201  10.687
31580W        W99798  42.574  28.960  11.860
31581W        W99799  16.770   2.446  12.030
31582W        W99800  44.867  39.497   1.578
31583W        W99801  26.030   7.179  13.415
31584W        W99802  13.283  13.177   3.135
31585W        W99803   7.870  32.014  13.318
31586W        W99804  44.620  33.479   0.763
31587W        W99805  13.908   5.881   1.731
31588W        W99806  44.272   4.505  13.470
31589W        W99807  20.992   5.785  13.620
31590W        W99808  15.038  16.384  12.366
31591W        W99809  21.776   5.758   4.355
31592W        W99810  18.813  31.424   4.869
31593W        W99811  19.111  28.260  13.853
31594W        W99812  44.254  19.981  13.823
31595W        W99813  31.952  33.685   2.232
31596W        W99814  33.441  43.209   4.027
31597W        W99815  23.549  14.604  11.943
31598W        W99816  33.619  42.853  14.902
31599W        W99817   8.000  27.702   0.530
31600W        W99818  14.219  10.646   0.985
31601W        W99819  41.975   4.023   1.239
31602W        W99820  10.599  27.144  13.451
31603W        W99821  31.888  22.159  10.616
31604W        W99822  19.065  22.061   1.454
31605W        W99823  14.943  36.811   3.229
31606W        W99824  15.267  30.171  11.610
31607W        W99825  33.202   6.398  13.967
31608W        W99826   5.718  14.183  11.244
31609W        W99827  34.964  43.908  12.941
31610W        W99828  43.795  10.391  10.927
31611W        W99829   8.415  42.633   2.672
31612W        W99830  28.949  11.244   1.346
31613W        W99831   7.014  13.243   4.539
31614W        W99832  19.637   0.698   5.008
31615W        W99833  32.483   2.958   0.779
31616W        W99834   0.758  16.734  13.039
31617W        W99835  22.707   4.020  14.899
31618W        W99836   0.291  29.686  10.687
31619W        W99837  33.274  14.299   1.628
31620W        W99838  31.410  32.163   1.743
31621W        W99839   0.535   1.355   2.630
31622W        W99840  19.712  32.492  13.551
31623W        W99841  31.058  26.093   0.778
31624W        W99842  13.278  44.924   0.376
31625W        W99843  43.556   4.248   1.779
31626W        W99844  12.619  18.323   0.948
31627W        W99845   6.725  34.498   3.040
31628W        W99846  23.566  28.949  14.773
31629W        W99847  27.381  26.211  11.924
31630W        W99848   2.404  24.684   4.182
31631W        W99849  18.588  14.284   2.667
31632W        W99850   7.367  25.686  12.044
31633W        W99851  29.468   1.891  13.827
31634W        W99852  38.361  14.335  11.173
31635W        W99853  20.335  43.077  11.193
31636W        W99854  19.144   2.887   3.855
31637W        W99855  23.192   6.857  12.489
31638W        W99856  40.371  17.006   2.217
31639W        W99857   0.591  18.609   0.420
31640W        W99858  36.556  43.418  14.827
31641W        W99859  11.775   9.727   2.320
31642W        W99860  16.997  31.812   4.248
31643W        W99861   3.933  19.237   4.127
31644W        W99862  24.585  22.722   3.955
31645W        W99863  25.687  12.876  10.601
31646W        W99864  12.580  30.944  14.353
31647W        W99865  19.996  37.038   4.055
31648W        W99866   3.479  13.742   5.074
31649W        W99867  43.135   0.354  14.383
31650W        W99868  26.885   3.997  11.261
31651W        W99869  23.966   9.430   2.753
31652W        W99870  39.849  22.135   4.154
31653W        W99871  43.877  40.806   0.058
31654W        W99872  42.985  32.591   1.983
31655W        W99873  41.758   4.329  13.240
31656W        W99874  14.571  27.008   4.697
31657W        W99875  32.671  22.752   2.110
31658W        W99876  14.841  29.122   3.549
31659W        W99877  17.085  29.375   2.617
31660W        W99878  39.942  11.829  12.070
31661W        W99879  31.554  37.051  10.639
31662W        W99880  38.817  16.703  12.833
31663W        W99881  13.382  16.563  11.095
31664W        W99882  42.961   9.312   1.927
31665W        W99883  17.642  43.475   2.379
31666W        W99884  29.484   3.252  12.421
31667W        W99885  39.873  23.152  11.926
31668W        W99886  28.512  43.099   4.577
31669W        W99887  24.075  36.494   3.745
31670W        W99888  26.477  24.531  11.219
31671W        W99889   9.246   6.333  10.538
31672W        W99890  14.536  40.968  11.501
31673W        W99891   6.298  25.109   2.429
31674W        W99892  22.946  15.464  12.872
31675W        W99893  17.057  15.151  14.270
31676W        W99894   9.741  19.766   2.408
31677W        W99895   5.601  14.723   4.487
31678W        W99896  44.411  44.096   4.619
31679W        W99897  35.048   5.737  11.170
31680W        W99898  17.343   3.472  10.998
31681W        W99899  19.231  39.461  11.626
31682W        W99900   9.098  41.382  11.214
31683W        W99901  26.732   8.783   3.822
31684W        W99902  16.338  15.127   5.110
31685W        W99903  23.070   7.671   2.194
31686W        W99904   8.922  11.626  13.255
31687W        W99905  24.918  28.716  11.604
31688W        W99906  37.731  41.019  12.854
31689W        W99907  17.033  40.188   2.259
31690W        W99908   0.937   9.685   2.506
31691W        W99909  33.861  40.008  12.073
31692W        W99910   3.285  17.562   4.691
31693W        W99911  29.740  29.040   4.516
31694W        W99912  21.058  34.842  13.900
31695W        W99913  31.246  29.923   3.227
31696W        W99914  21.786   1.411   3.404
31697W        W99915  17.081  11.855  11.604
31698W        W99916  35.847  28.537   2.703
31699W        W99917  42.277  41.827   3.868
31700W        W99918  44.178   2.720  11.154
31701W        W99919   3.309   5.972  11.918
31702W        W99920  22.682  32.976  11.022
31703W        W99921  36.799  29.656  13.394
31704W        W99922   3.386   3.548   4.715
31705W        W99923  33.948  41.312  11.832
31706W        W99924   3.845   2.314  14.931
31707W        W99925  30.255   9.592  14.221
31708W        W99926   8.168  11.155  11.159
31709W        W99927  35.464   4.086   2.017
31710W        W99928  16.040   0.503  10.720
31711W        W99929   2.540  29.373   2.846
31712W        W99930  31.619   0.008  14.356
31713W        W99931   9.244  22.320   1.009
31714W        W99932  32.493   9.083  12.488
31715W        W99933  37.150  32.656   2.175
31716W        W99934  32.845  31.016   5.006
31717W        W99935  14.696  38.443  14.643
31718W        W99936   6.240  38.067   2.676
31719W        W99937  38.389  18.886  13.427
31720W        W99938   6.929  26.504   3.653
31721W        W99939   7.192  14.315   2.704
31722W        W99940  16.643  34.545  11.895
31723W        W99941   4.277  41.665   0.907
31724W        W99942  12.238   7.947   1.765
31725W        W99943  41.318  29.997   0.869
31726W        W99944   0.341   3.831  14.441
31727W        W99945   3.489  28.938  13.768
31728W        W99946  14.191   4.452  14.116
31729W        W99947   8.169  12.878  13.679
31730W        W99948  28.380   0.397  11.391
31731W        W99949  28.208  31.728   5.012
31732W        W99950  34.140  37.714  12.509
31733W        W99951   4.437  10.773   4.994
31734W        W99952  39.813  14.133  14.369
31735W        W99953  21.052  10.775  10.580
31736W        W99954  13.507   1.890   3.272
31737W        W99955  44.333   7.133   2.314
31738W        W99956   7.537  30.620  12.034
31739W        W99957  27.641  27.464  13.995
31740W        W99958   4.351  20.809   1.833
31741W        W99959  35.935  33.988  12.173
31742W        W99960   5.371  10.885  10.624
31743W        W99961  10.812  26.507   3.126
31744W        W99962  24.773  42.804   3.742
31745W        W99963  15.328  17.800   2.266
31746W        W99964   1.320  38.922  14.105
31747W        W99965  20.246  20.106   4.180
31748W        W99966   9.876  15.260  10.428
31749W        W99967  22.102  14.708  13.537
31750W        W99968  20.533  18.359   0.858
31751W        W99969  22.179  17.527   3.674
31752W        W99970   7.570  37.020   4.430
31753W        W99971  15.189   4.102  13.458
31754W        W99972   4.370  37.339   3.349
31755W        W99973  27.707  30.111   3.248
31756W        W99974  21.035  35.620  13.516
31757W        W99975  12.529  35.319   1.303
31758W        W99976  26.708  33.781   0.937
31759W        W99977  27.757  14.198   0.011
31760W        W99978  28.101   0.314  14.536
31761W        W99979  28.622   1.056   1.577
31762W        W99980  31.171  15.763  13.947
31763W        W99981  21.567  43.012   0.518
31764W        W99982  18.741  14.053   3.130
31765W        W99983  11.934   9.864  14.250
31766W        W99984  36.471  21.389   4.586
31767W        W99985   2.902   4.191   0.338
31768W        W99986  43.749  19.758  12.125
31769W        W99987  32.355  41.105  12.959
31770W        W99988   1.703  11.985  11.610
31771W        W99989  33.057   6.815  14.237
31772W        W99990  21.524  13.713   1.402
31773W        W99991  41.668  17.316  12.450
31774W        W99992   7.801   1.851  12.006
31775W        W99993  10.210  14.107  11.753
31776W        W99994  28.211  13.729   1.715
31777W        W99995   3.026  41.456   3.586
31778W        W99996  19.214  16.085   0.961
31779W        W99997  26.430  21.124   1.385
31780W        W99998   9.978  29.110  11.518
31781W        W99999  22.750  22.717   3.715
31782W        W    0  41.059  23.072  10.782
31783W        W    1  28.367  19.627   4.074
31784W        W    2  22.267  33.326  11.178
31785W        W    3   9.876  10.358  11.580
31786W        W    4  42.416  35.100  13.118
31787W        W    5   2.601  38.562   0.852
31788W        W    6  28.030   7.087  11.663
31789W        W    7  15.062   1.370   5.732
31790W        W    8  18.577   1.875   2.780
31791W        W    9  26.218   5.146  11.178
31792W        W   10  24.654  32.672   2.678
31793W        W   11  35.643  31.057   0.796
31794W        W   12  19.260  14.556   1.866
31795W        W   13  16.668  19.435  10.621
31796W        W   14  40.717  26.095  11.006
31797W        W   15  31.419  41.925   1.261
31798W        W   16   5.990  34.556   1.630
31799W        W   17  25.555   4.961  14.797
31800W        W   18   9.651  18.762  11.630
31801W        W   19  12.919   0.277   3.298
31802W        W   20  19.022   5.835  13.435
31803W        W   21  19.242   4.898  13.774
31804W        W   22  30.112  35.488  14.568
31805W        W   23   3.551  41.848  14.062
31806W        W   24  10.781  17.400   0.432
31807W        W   25  42.060   5.614   4.568
31808W        W   26  44.304  22.562  11.596
31809W        W   27  15.752  40.039   1.063
31810W        W   28  44.698  36.364   1.431
31811W        W   29  27.999  27.960  13.791
31812W        W   30  16.416  15.083   3.780
31813W        W   31  38.992  24.717  12.170
31814W        W   32  34.067   4.625  13.351
31815W        W   33  35.444  23.436  14.224
31816W        W   34  15.765  29.932   4.315
31817W        W   35  18.625  15.090  12.663
31818W        W   36  29.571   8.767  13.756
31819W        W   37  32.664   9.496  14.986
31820W        W   38  38.195  23.392   4.190
31821W        W   39   2.349  31.217  12.202
31822W        W   40  22.635  18.766   4.863
31823W        W   41  35.456  28.559  13.107
31824W        W   42  39.432  39.411  12.845
31825W        W   43  41.782  18.078  14.274
31826W        W   44  23.072  28.064  11.135
31827W        W   45  29.978  19.550  12.999
31828W        W   46  43.973   8.376   3.718
31829W        W   47  39.526  10.427   2.792
31830W        W   48  37.696   6.975  13.482
31831W        W   49  41.760  27.478  12.037
31832W        W   50  16.548  18.540   0.282
31833W        W   51   3.377  11.560  14.367
31834W        W   52  28.201  35.198   4.092
31835W        W   53  22.907   0.200   2.244
31836W        W   54   0.174  23.217  11.096
31837W        W   55  29.099  27.136  13.752
31838W        W   56  35.019  18.182   4.569
31839W        W   57   7.784  21.358   0.761
31840W        W   58  10.627  16.607  13.613
31841W        W   59  10.251  39.577  13.286
31842W        W   60  12.325   7.972   3.789
31843W        W   61  12.100  37.757   0.315
31844W        W   62   2.415  37.145   1.693
31845W        W   63  25.605  12.294   3.694
31846W        W   64  41.153  28.946  11.585
31847W        W   65  14.928  35.916   3.619
31848W        W   66  37.558  30.497  14.326
31849W        W   67  15.285   2.810  13.027
31850W        W   68  30.009   4.992   0.596
31851W        W   69  40.961  26.578  11.716
31852W        W   70   3.235  31.320  14.950
31853W        W   71   6.663  16.580  13.983
31854W        W   72   2.336  18.312   0.068
31855W        W   73   7.885  43.236   5.050
31856W        W   74   3.086  42.278   1.457
31857W        W   75  16.697  22.626   4.455
31858W        W   76  19.130  16.531   2.754
31859W        W   77  36.080  42.481  10.656
31860W        W   78  18.529  14.157  13.004
31861W        W   79  28.558  27.940   2.934
31862W        W   80   6.761  18.885   1.532
31863W        W   81  10.923  18.604   2.762
31864W        W   82  20.260  24.042  11.579
31865W        W   83  13.829  22.719   4.254
31866W        W   84   3.579  10.436  12.599
31867W        W   85  32.041  25.627   1.787
31868W        W   86  25.332  38.087   1.962
31869W        W   87  32.643  10.013   3.677
31870W        W   88  14.690  23.130   1.339
31871W        W   89  17.200  36.392  14.373
31872W        W   90   8.902  19.909   5.217
31873W        W   91   1.865  31.082   3.331
31874W        W   92  34.542  39.206  10.662
31875W        W   93  40.315  14.656  10.691
31876W        W   94  19.006  25.500   1.282
31877W        W   95   4.882  39.434  12.066
31878W        W   96  18.990  17.186  14.232
31879W        W   97  26.395  26.035   2.076
31880W        W   98   4.213   9.515   0.542
31881W        W   99  18.039   0.752  11.133
31882W        W  100  25.844   9.166   0.849
31883W        W  101  26.286   9.420   2.908
31884W        W  102  16.849  24.565  11.626
31885W        W  103  15.510  34.949   4.669
31886W        W  104  20.662  41.989   3.391
31887W        W  105  36.472  18.852   4.245
31888W        W  106  32.701  16.765   2.553
31889W        W  107  39.802  12.314  12.199
31890W        W  108  39.301  38.369  10.697
31891W        W  109  34.315   9.825  14.348
31892W        W  110  12.990  44.000   2.793
31893W        W  111   7.314   2.928   0.488
31894W        W  112  19.706  38.560  11.731
31895W        W  113   9.133  14.529  10.206
31896W        W  114  30.896  41.536   0.019
31897W        W  115  37.567  42.998   2.220
31898W        W  116  11.062  17.216  13.467
31899W        W  117  19.109  39.978  10.877
31900W        W  118  30.087  20.085   1.934
31901W        W  119  12.382   5.990  11.077
31902W        W  120  16.053  35.088   1.202
31903W        W  121  33.523  29.255   2.073
31904W        W  122   3.136  13.808   2.195
31905W        W  123  31.391  43.745   2.509
31906W        W  124  17.758  36.013   2.762
31907W        W  125  29.063  22.613   2.887
31908W        W  126   7.752  44.454  12.600
31909W        W  127  23.797   3.460  11.215
31910W        W  128  15.564  38.431  11.062
31911W        W  129  16.208  39.344   4.942
31912W        W  130  20.597  30.011   2.340
31913W        W  131  22.733  29.047  11.687
31914W        W  132  10.686  24.062  10.601
31915W        W  133  40.509  17.336   2.746
31916W        W  134   0.855  41.929   4.409
31917W        W  135  28.532  21.329   1.366
31918W        W  136   7.521  29.311   0.525
31919W        W  137  31.028  41.814  10.685
31920W        W  138  43.002  42.721  11.612
31921W        W  139  31.564   5.352  10.534
31922W        W  140   1.925   2.699  11.538
31923W        W  141  43.902   8.119   3.252
31924W        W  142  44.828  34.452  10.733
31925W        W  143  15.063  18.562   0.566
31926W        W  144  13.130  29.618   0.760
31927W        W  145  15.181  21.481  12.184
31928W        W  146  21.106   3.276   1.222
31929W        W  147  27.182  23.987  13.395
31930W        W  148  32.650  39.407  13.339
31931W        W  149  40.293  28.155  12.599
31932W        W  150  36.585  34.130   2.930
31933W        W  151  22.076   5.483  13.440
31934W        W  152  40.656  14.413   2.411
31935W        W  153   0.461  42.702   2.746
31936W        W  154  30.084  32.409   1.830
31937W        W  155  31.257  43.925  11.513
31938W        W  156  13.656   4.215  14.878
31939W        W  157  14.193  22.089   4.591
31940W        W  158   7.422  39.248  14.881
31941W        W  159  42.722   7.570  14.989
31942W        W  160   1.477  25.908  12.124
31943W        W  161  27.600  40.402   2.202
31944W        W  162  43.910  42.891   1.677
31945W        W  163   0.881  20.571  14.796
31946W        W  164   8.160   3.699  10.629
31947W        W  165  19.123  26.436  12.152
31948W        W  166  23.698  28.185   3.560
31949W        W  167  36.393  41.461   3.898
31950W        W  168  33.511  30.091   5.076
31951W        W  169   3.026  34.487  11.996
31952W        W  170  42.877   8.467   1.454
31953W        W  171  16.302   9.769   4.698
31954W        W  172  44.988  37.942   4.338
31955W        W  173   7.407   5.929   3.731
31956W        W  174  20.012  36.678   1.201
31957W        W  175  36.153  44.904  12.980
31958W        W  176  10.604  20.541   0.460
31959W        W  177  26.412  19.128   2.640
31960W        W  178  13.650  12.204  11.169
31961W        W  179  30.994  37.036  10.800
31962W        W  180  39.038  15.119   3.835
31963W        W  181   8.180  44.371  10.879
31964W        W  182  43.006  22.087   4.148
31965W        W  183   8.653   1.997   5.322
31966W        W  184  25.159  25.707  13.290
31967W        W  185  26.651  42.814   4.615
31968W        W  186  44.003  20.498  13.949
31969W        W  187  38.575   2.159  13.049
31970W        W  188  16.844   7.400   4.145
31971W        W  189  35.237  24.054   0.704
31972W        W  190  44.432   4.739   5.029
31973W        W  191  15.287  17.836   3.235
31974W        W  192  35.423  41.662  13.517
31975W        W  193  42.820  28.454   1.511
31976W        W  194  10.171   1.748   0.393
31977W        W  195  25.728   6.897   1.316
31978W        W  196  42.981  14.870   2.509
31979W        W  197  18.040  29.627   0.585
31980W        W  198  32.352  32.715  13.759
31981W        W  199  18.295  20.605   2.669
31982W        W  200  28.471   7.658   0.483
31983W        W  201   6.647  34.852  14.708
31984W        W  202   3.335   4.763   1.720
31985W        W  203  40.583  39.978   3.112
31986W        W  204  44.626  19.786   5.161
31987W        W  205   2.217  13.843   1.726
31988W        W  206  16.078  35.625   4.184
31989W        W  207   0.464  11.494   3.676
31990W        W  208  38.670  17.114  14.910
31991W        W  209   5.502   5.957  14.366
31992W        W  210  21.669  20.801   1.006
31993W        W  211  40.702  17.834  11.595
31994W        W  212  27.604   1.301   3.076
31995W        W  213  13.242  11.634  13.031
31996W        W  214  18.085   8.351  13.651
31997W        W  215  13.615  39.507  12.593
31998W        W  216  30.047  25.407   2.365
31999W        W  217  21.229   0.591  11.144
32000W        W  218  17.092  42.900   1.780
32001W        W  219   1.852   1.453   4.359
32002W        W  220  22.008  14.080   4.113
32003W        W  221  12.181  36.856  14.274
32004W        W  222   8.772  10.984   0.639
32005W        W  223  26.221  20.636   1.251
32006W        W  224  33.148  22.508   3.255
32007W        W  225  25.646  16.262   4.939
32008W        W  226  11.088  11.275  13.311
32009W        W  227  32.401   6.244   0.610
32010W        W  228  41.851  28.732  14.390
32011W        W  229  42.472   3.001   3.126
32012W        W  230   3.302  33.461  13.933
32013W        W  231  21.682  29.905  11.150
32014W        W  232  23.165   4.197  14.679
32015W        W  233  14.050   1.882  13.014
32016W        W  234   9.358   2.786   3.903
32017W        W  235   2.730   9.949   1.111
32018W        W  236  37.865  17.745  14.857
32019W        W  237   5.890  15.775   4.852
32020W        W  238   8.883   9.610   4.561
32021W        W  239   2.289  15.731  14.848
32022W        W  240  31.175  41.337  12.474
32023W        W  241  41.069  33.042   0.259
32024W        W  242  38.295   1.747  12.513
32025W        W  243  42.534  32.617   1.026
32026W        W  244  11.556  42.996   3.609
32027W        W  245  11.570  13.621  11.648
32028W        W  246  31.402  39.339   2.252
32029W        W  247   7.962  19.198   4.529
32030W        W  248  28.846  37.987   2.905
32031W        W  249  37.823  37.890   3.153
32032W        W  250   0.835  34.474   1.585
32033W        W  251  34.456  15.673   2.555
32034W        W  252  32.363  21.684   0.686
32035W        W  253   5.181  44.192   0.961
32036W        W  254  11.378  13.923  10.744
32037W        W  255   9.650   1.757   0.303
32038W        W  256  29.124  41.426   4.377
32039W        W  257   4.912  23.037   2.378
32040W        W  258  23.616  21.537  10.645
32041W        W  259  38.041  31.099  10.787
32042W        W  260  39.016   9.652  12.116
32043W        W  261   8.348  19.757   2.604
32044W        W  262  23.095  17.763  13.698
32045W        W  263  23.605  15.870   2.488
32046W        W  264  30.611  35.667  11.580
32047W        W  265  22.451  29.858  10.632
32048W        W  266  22.030  27.569   3.995
32049W        W  267  23.592  41.697   0.444
32050W        W  268  16.392   4.196   0.449
32051W        W  269   4.473   7.684   3.440
32052W        W  270  15.656  35.173  12.482
32053W        W  271  14.819  41.116   3.607
32054W        W  272   3.719  41.294   5.206
32055W        W  273  23.702  38.086  11.502
32056W        W  274  20.963  44.364  12.582
32057W        W  275  17.375  14.645   1.208
32058W        W  276  26.695  15.962  11.456
32059W        W  277  43.764  32.466   1.301
32060W        W  278  40.256   5.384   4.920
32061W        W  279   3.106  43.457   0.832
32062W        W  280  11.408  22.048  12.405
32063W        W  281   0.944  21.772   0.776
32064W        W  282  36.384   2.504  12.651
32065W        W  283  25.019  41.325   3.640
32066W        W  284  20.556   5.447   4.276
32067W        W  285  41.468  33.459  11.951
32068W        W  286  35.056  41.106  14.828
32069W        W  287  36.946  42.772   2.743
32070W        W  288  24.652  16.039   1.759
32071W        W  289  10.424  22.216   4.253
32072W        W  290  33.188   8.343  13.384
32073W        W  291  11.630  33.390   2.724
32074W        W  292   7.820   7.192   2.945
32075W        W  293   4.258  25.172  12.909
32076W        W  294  39.784  18.540   0.583
32077W        W  295  26.995  20.949   4.933
32078W        W  296  32.138  18.709  14.365
32079W        W  297  22.452   3.847  11.134
32080W        W  298   4.038  43.887   1.334
32081W        W  299  34.709  12.698  11.720
32082W        W  300  33.942  16.166  14.924
32083W        W  301  19.932  34.566   1.868
32084W        W  302  31.712  37.356  11.461
32085W        W  303  20.290  22.164  10.684
32086W        W  304  37.510  33.977  11.117
32087W        W  305  15.951  34.880  13.427
32088W        W  306  38.443  11.104  10.704
32089W        W  307  24.985  16.575  10.997
32090W        W  308   6.349  13.143   1.972
32091W        W  309   0.655  11.279   5.096
32092W        W  310  34.858  16.317   3.774
32093W        W  311  36.977  40.866  13.349
32094W        W  312  19.159  44.972  14.139
32095W        W  313   3.172  16.868   4.242
32096W        W  314  41.847   5.315  14.905
32097W        W  315  34.565   6.264  13.685
32098W        W  316  18.113  14.847  11.492
32099W        W  317  22.933  25.189   1.029
32100W        W  318  24.589   9.848  12.493
32101W        W  319   2.866  31.015   1.879
32102W        W  320  14.435  29.019   3.247
32103W        W  321   8.134  16.030   4.512
32104W        W  322   6.663   8.606  13.934
32105W        W  323  21.070   9.108  14.472
32106W        W  324   4.769   9.797   3.308
32107W        W  325  36.568  20.720  12.935
32108W        W  326   0.927   3.389  12.893
32109W        W  327  35.640  33.888  13.171
32110W        W  328  38.947  40.108   1.643
32111W        W  329  19.616  43.186  14.402
32112W        W  330  16.043  19.545   4.129
32113W        W  331  32.404  39.212   3.401
32114W        W  332  38.109  36.886  14.301
32115W        W  333   4.705  23.978   1.386
32116W        W  334   0.685  39.981  13.981
32117W        W  335  31.851  11.805   1.871
32118W        W  336  11.759  31.320   3.869
32119W        W  337  33.262   1.418   3.866
32120W        W  338  10.862   0.247  11.286
32121W        W  339  24.678  19.799  12.816
32122W        W  340  23.529  32.426   4.561
32123W        W  341  44.313  34.961   5.122
32124W        W  342  39.564  24.471   4.720
32125W        W  343  17.625   0.250   4.797
32126W        W  344  20.447  37.612  11.088
32127W        W  345   1.476  39.134  12.399
32128W        W  346  17.015  28.696   0.353
32129W        W  347  44.434  28.549  14.530
32130W        W  348  19.593   2.508   3.177
32131W        W  349  10.842  43.318  14.855
32132W        W  350  39.905  15.366   3.848
32133W        W  351  25.370  13.375  12.632
32134W        W  352  29.884   7.803   3.458
32135W        W  353  36.145  10.664   0.294
32136W        W  354  32.488  12.794  13.090
32137W        W  355  33.468  35.871  13.532
32138W        W  356  37.440  33.779  11.572
32139W        W  357  26.710  18.690   2.516
32140W        W  358   2.307  25.995  14.364
32141W        W  359  17.058  25.269   0.362
32142W        W  360  37.921  18.593  13.897
32143W        W  361   8.408  17.787  11.744
32144W        W  362   9.186   6.276   3.821
32145W        W  363  13.858  35.102   4.135
32146W        W  364  22.051  22.017  13.168
32147W        W  365  21.566  10.402  12.639
32148W        W  366  44.038  31.544  11.960
32149W        W  367  35.841  19.801  10.755
32150W        W  368  44.437  26.807   3.324
32151W        W  369  18.348  35.981  11.606
32152W        W  370  44.600   7.822  14.604
32153W        W  371  35.783   3.994   3.228
32154W        W  372  22.603  13.572  12.417
32155W        W  373   9.801   4.460  12.405
32156W        W  374  25.987   7.184  14.860
32157W        W  375  16.270  42.115  12.538
32158W        W  376  42.879  15.241   0.693
32159W        W  377   3.462  44.229  11.614
32160W        W  378  15.662  26.639   0.805
32161W        W  379   2.498  33.710   5.083
32162W        W  380  25.001  12.641   1.951
32163W        W  381  32.742  23.114  12.635
32164W        W  382  37.981   9.228   1.012
32165W        W  383  43.296   2.352   4.768
32166W        W  384   0.214  22.205   0.069
32167W        W  385  27.089  29.540  14.574
32168W        W  386  22.290   2.736  12.868
32169W        W  387  15.670  43.029  12.919
32170W        W  388  28.181  13.979  11.132
32171W        W  389  13.484  37.482   4.066
32172W        W  390   2.218  15.647   1.865
32173W        W  391  18.194  29.715   4.074
32174W        W  392  35.388  24.497  12.882
32175W        W  393  26.050  36.124   2.920
32176W        W  394  17.518   5.897  11.644
32177W        W  395  13.880   2.834   4.518
32178W        W  396  19.048  42.968  13.897
32179W        W  397   3.737  18.013  12.319
32180W        W  398  16.007   6.168  11.531
32181W        W  399  43.691  41.191  11.745
32182W        W  400   0.866   2.954  13.168
32183W        W  401  30.368  11.823   1.586
32184W        W  402  14.861  21.074  11.479
32185W        W  403  10.027  14.340  12.594
32186W        W  404  36.144  14.194   2.640
32187W        W  405  18.615   2.601  10.633
32188W        W  406   5.840  21.677  14.349
32189W        W  407  24.091   6.767  11.939
32190W        W  408  32.146  18.135  12.120
32191W        W  409  19.501   6.715  12.563
32192W        W  410  37.471  33.103   0.435
32193W        W  411   1.710  17.773  10.832
32194W        W  412  17.108  24.718  12.054
32195W        W  413  23.683  14.180  11.241
32196W        W  414  14.769  11.387   4.598
32197W        W  415  35.871   5.623  11.691
32198W        W  416  31.700  27.919  12.469
32199W        W  417  22.550  30.044   2.210
32200W        W  418  24.187  15.840  13.296
32201W        W  419   3.216  38.840  13.335
32202W        W  420   7.905   1.431   3.898
32203W        W  421  27.444  33.373   1.362
32204W        W  422   5.311  30.211  13.450
32205W        W  423   5.591  13.332  13.629
32206W        W  424  15.580   7.776   4.555
32207W        W  425   5.249  15.555   0.969
32208W        W  426  15.779  43.121   3.340
32209W        W  427  36.922  43.517   0.501
32210W        W  428  10.356  31.353   3.643
32211W        W  429  27.158  38.495  14.479
32212W        W  430  18.498  35.820   3.221
32213W        W  431  24.709   1.895   0.746
32214W        W  432  24.450  32.033  14.002
32215W        W  433  39.905  27.240  13.828
32216W        W  434   9.361  33.323   2.244
32217W        W  435  12.701  14.864   2.849
32218W        W  436  32.386   0.748  14.673
32219W        W  437  36.584  23.079   3.457
32220W        W  438  10.648  12.068  13.957
32221W        W  439   7.253  13.536   4.070
32222W        W  440  11.792  10.783  12.614
32223W        W  441  28.883   5.686  11.196
32224W        W  442  11.880  28.141  13.906
32225W        W  443   4.427   1.295  13.969
32226W        W  444  17.630  42.801   4.166
32227W        W  445   4.256  39.690   0.684
32228W        W  446   4.819  29.043  12.992
32229W        W  447  35.079  43.246  13.578
32230W        W  448  17.383  26.196   4.629
32231W        W  449  24.563  25.874  14.586
32232W        W  450  38.196   2.674   1.070
32233W        W  451  14.189  43.449  12.066
32234W        W  452   1.959  42.474   4.378
32235W        W  453  43.081  10.688  13.430
32236W        W  454  14.100  34.383   2.746
32237W        W  455   4.681   6.726   1.329
32238W        W  456  21.224  18.324   0.327
32239W        W  457  34.893  10.435   1.311
32240W        W  458   0.494  41.541   4.457
32241W        W  459   8.499  29.831  11.973
32242W        W  460  24.508   4.284   1.721
32243W        W  461  10.899  28.900   2.386
32244W        W  462  22.527  32.113  11.850
32245W        W  463  38.577  13.420   3.777
32246W        W  464  35.055  19.648  11.140
32247W        W  465  44.481   1.947  10.801
32248W        W  466   7.255  34.689  11.209
32249W        W  467  35.922  22.457   3.999
32250W        W  468   6.426  44.975   0.454
32251W        W  469   0.728  34.866  11.141
32252W        W  470  40.260  16.563   4.179
32253W        W  471  38.401  37.526  14.283
32254W        W  472  38.954   0.259  12.061
32255W        W  473  25.089   9.945   0.404
32256W        W  474   9.214  30.489   0.272
32257W        W  475  37.891  31.129  11.601
32258W        W  476  17.615  11.365  13.005
32259W        W  477  36.536  23.114   1.979
32260W        W  478   0.874   9.487   4.643
32261W        W  479  24.557  33.547   1.654
32262W        W  480  11.785  44.421   5.194
32263W        W  481  27.408  11.472   0.924
32264W        W  482  11.290  16.156   5.481
32265W        W  483  11.615  19.676   1.839
32266W        W  484  34.695   7.097  14.782
32267W        W  485  22.594  39.451  13.190
32268W        W  486   0.778  28.321  14.917
32269W        W  487   6.893  42.922  11.049
32270W        W  488   2.952  32.995   4.412
32271W        W  489   7.503   8.271  10.790
32272W        W  490  27.541  25.150  14.868
32273W        W  491   8.698  13.056   5.005
32274W        W  492  24.011  10.833   4.076
32275W        W  493   6.311  17.066  12.825
32276W        W  494  39.947  43.352  13.753
32277W        W  495  23.130   4.095  11.531
32278W        W  496  30.921  39.733  14.401
32279W        W  497  32.553  11.624  12.235
32280W        W  498   6.740  36.457   1.367
32281W        W  499  37.937  38.781   2.199
32282W        W  500  33.489  26.554  11.975
32283W        W  501  34.252  14.445   4.081
32284W        W  502  33.959  39.630  11.642
32285W        W  503  17.315   4.156   2.141
32286W        W  504   8.990  30.949   0.370
32287W        W  505  39.637  30.713  14.104
32288W        W  506  36.035   4.625   4.824
32289W        W  507   1.249   6.607  14.797
32290W        W  508   9.206  15.888   2.373
32291W        W  509   6.347  44.865  11.163
32292W        W  510   1.499  35.212  13.003
32293W        W  511  37.853  32.884   4.226
32294W        W  512  17.242  33.600   1.342
32295W        W  513  36.958   0.724   4.893
32296W        W  514  29.479   3.711  14.409
32297W        W  515   0.804  43.535   2.305
32298W        W  516   2.257   4.446   2.640
32299W        W  517  21.176   8.619   2.757
32300W        W  518   1.398  30.120   4.687
32301W        W  519  22.239  24.196  14.076
32302W        W  520  31.356  26.013   4.773
32303W        W  521  44.860  29.960  10.651
32304W        W  522  30.157  33.191   2.807
32305W        W  523  15.172  26.509   3.376
32306W        W  524  36.150   1.784  11.951
32307W        W  525  13.805   7.363  13.880
32308W        W  526   1.537  23.779   4.927
32309W        W  527  19.791   9.915  14.325
32310W        W  528  39.006  43.629   4.133
32311W        W  529   0.856   4.418   1.905
32312W        W  530  38.782  23.679  10.261
32313W        W  531   6.705   4.440   4.174
32314W        W  532  31.053   8.174   2.583
32315W        W  533  10.638  18.743   2.357
32316W        W  534   7.920   1.406  13.861
32317W        W  535  19.544   8.218  13.034
32318W        W  536  42.771  13.807   3.531
32319W        W  537   8.355   8.880  14.529
32320W        W  538  14.100   5.540  12.439
32321W        W  539   2.809  20.949  14.981
32322W        W  540  40.067   1.044  12.986
32323W        W  541  20.317  31.513   0.634
32324W        W  542  32.744  28.742   3.648
32325W        W  543   5.589  14.271   0.854
32326W        W  544   3.309   5.646   2.220
32327W        W  545  29.693  13.688   1.769
32328W        W  546  44.898   5.277   2.443
32329W        W  547  43.181  11.850   1.691
32330W        W  548  29.198  17.612   3.728
32331W        W  549  21.660  30.374  12.078
32332W        W  550  40.085  39.966   4.317
32333W        W  551  20.006  36.310  11.883
32334W        W  552   6.499   8.565   2.552
32335W        W  553   0.154  13.362  14.291
32336W        W  554  25.488  27.029   1.479
32337W        W  555  18.774  20.048   0.803
32338W        W  556  21.205  36.412  12.464
32339W        W  557  18.784  35.959   4.132
32340W        W  558  23.692  10.944   1.288
32341W        W  559  25.690  32.121   2.804
32342W        W  560   4.832  14.874   1.429
32343W        W  561  28.518  36.193  10.643
32344W        W  562   4.844  14.047   3.030
32345W        W  563  38.929  30.847   3.848
32346W        W  564  43.302  34.500   4.189
32347W        W  565  39.022  15.132  12.747
32348W        W  566  37.627   8.191   0.972
32349W        W  567   4.487  35.498  12.822
32350W        W  568  31.413  35.337   0.451
32351W        W  569  37.897   1.250  10.743
32352W        W  570  20.561   6.613  14.060
32353W        W  571  31.518  24.317  12.636
32354W        W  572  19.542   7.908  13.482
32355W        W  573  11.960   9.813   1.811
32356W        W  574  40.018  39.494  10.543
32357W        W  575  28.373  17.103  14.968
32358W        W  576   1.372  32.360  11.656
32359W        W  577  39.122   6.455   4.186
32360W        W  578  21.633   7.455   2.129
32361W        W  579  14.280   3.622   2.799
32362W        W  580  30.886  21.563   1.920
32363W        W  581   1.285  27.954   0.498
32364W        W  582  29.808   3.717  13.158
32365W        W  583  37.131   3.667  12.039
32366W        W  584  24.994  35.381   4.730
32367W        W  585   3.427   3.306   1.896
32368W        W  586   3.291   1.548   3.228
32369W        W  587  27.056  23.840  14.408
32370W        W  588  17.966  43.902   2.368
32371W        W  589   4.822   2.144   3.837
32372W        W  590  27.708  13.702   5.518
32373W        W  591   0.495  22.493   0.469
32374W        W  592  35.627  28.301  10.681
32375W        W  593  23.190  22.809   0.302
32376W        W  594   6.248  36.330  13.480
32377W        W  595  29.126  38.079   2.192
32378W        W  596   7.662  19.966   4.195
32379W        W  597  33.124  27.947   0.143
32380W        W  598   9.669  41.750  13.410
32381W        W  599  39.715  36.419  10.666
32382W        W  600   4.223  30.578  10.997
32383W        W  601   3.418  24.133  11.037
32384W        W  602  16.848  18.661  11.731
32385W        W  603  24.193  30.228   1.094
32386W        W  604  21.143  28.232   3.628
32387W        W  605  23.410   8.716   3.326
32388W        W  606  31.400  35.851   2.768
32389W        W  607  35.925   9.843   3.701
32390W        W  608  11.311  36.469  14.810
32391W        W  609   1.721  36.236  14.098
32392W        W  610  14.455  25.534  14.389
32393W        W  611  20.098  11.927   4.073
32394W        W  612  16.293  24.239  10.662
32395W        W  613   7.116  39.808   4.095
32396W        W  614   1.715  27.477   3.371
32397W        W  615  26.732  37.050  14.498
32398W        W  616  15.321   6.807   0.201
32399W        W  617   4.913  16.317   0.765
32400W        W  618  11.164  43.817   3.131
32401W        W  619  22.714  27.463   2.180
32402W        W  620  21.272  16.189   3.204
32403W        W  621  10.940  42.374   4.164
32404W        W  622  37.418  35.338  12.494
32405W        W  623  10.199   2.524   3.654
32406W        W  624   2.852  26.049  12.718
32407W        W  625   4.808  11.915   0.003
32408W        W  626   2.945   6.431   2.988
32409W        W  627  10.760   0.813   2.688
32410W        W  628  28.028  30.878  13.842
32411W        W  629  27.935  14.363   4.901
32412W        W  630  34.335   6.847   1.834
32413W        W  631  17.608   8.352   0.565
32414W        W  632  15.544  18.477  14.280
32415W        W  633  34.394   2.612  13.790
32416W        W  634   5.715  30.254   2.830
32417W        W  635  16.058  32.511   1.836
32418W        W  636  22.072  13.710  13.674
32419W        W  637  12.844  10.810  14.164
32420W        W  638  41.611  44.692   2.850
32421W        W  639  28.090  24.657  13.831
32422W        W  640  25.618   4.848  13.457
32423W        W  641  16.137  30.198   3.487
32424W        W  642  44.930   9.752   3.117
32425W        W  643  17.698  43.245  11.769
32426W        W  644  23.211  26.474  13.216
32427W        W  645   1.625  12.160   0.298
32428W        W  646  28.211  29.157   4.116
32429W        W  647  44.381  11.292   1.630
32430W        W  648  14.722  37.332  14.495
32431W        W  649  11.868  33.339   0.333
32432W        W  650  19.376  40.816   3.682
32433W        W  651  27.657  33.613  13.537
32434W        W  652   1.935  23.589   2.613
32435W        W  653  35.984  21.144   2.141
32436W        W  654   3.421  11.333   2.312
32437W        W  655   3.235  13.345  13.295
32438W        W  656  12.822  39.409   2.862
32439W        W  657  19.733  30.436   2.207
32440W        W  658  18.110  41.217  13.449
32441W        W  659  34.400   1.896   3.695
32442W        W  660  29.499  22.626  12.825
32443W        W  661  30.825  18.817   3.540
32444W        W  662  13.742   7.891   0.826
32445W        W  663   2.343  24.146  14.605
32446W        W  664  44.732  12.135   3.693
32447W        W  665   0.257   6.079   0.754
32448W        W  666   6.259  11.595   5.077
32449W        W  667   6.439   8.388   0.276
32450W        W  668  32.006   6.471   3.608
32451W        W  669  35.128  18.019  12.022
32452W        W  670  26.088  22.803  14.224
32453W        W  671   3.251   5.957  13.027
32454W        W  672  17.774  20.541   3.713
32455W        W  673  44.959  24.149  14.802
32456W        W  674   5.719  31.285  14.304
32457W        W  675  12.450  33.556   3.044
32458W        W  676  25.293  14.029  14.891
32459W        W  677  40.786  28.144  10.594
32460W        W  678  20.002  32.231   4.671
32461W        W  679  17.828  24.076  12.390
32462W        W  680  40.430  26.644  10.072
32463W        W  681  19.888  18.749  14.285
32464W        W  682  39.010  31.007  11.728
32465W        W  683   6.759   1.956   4.337
32466W        W  684  28.367  29.062  11.036
32467W        W  685   5.367  21.821  10.404
32468W        W  686  38.436  31.081  14.566
32469W        W  687   4.618  20.012   2.569
32470W        W  688  41.162  17.282  13.594
32471W        W  689  19.817   3.209   4.544
32472W        W  690  20.084  17.088   1.351
32473W        W  691   9.851  17.478  12.593
32474W        W  692  13.239  30.914  11.727
32475W        W  693  43.438  34.534  13.366
32476W        W  694  10.084  43.939   0.637
32477W        W  695  19.487   7.607  10.769
32478W        W  696  24.757   8.345   1.284
32479W        W  697  25.866  14.119   0.722
32480W        W  698  33.063  35.084  13.331
32481W        W  699   8.307  39.832  12.319
32482W        W  700   8.177  42.989   0.860
32483W        W  701  32.429  43.033   2.234
32484W        W  702  37.066  40.516   3.379
32485W        W  703  11.693   9.759  14.683
32486W        W  704  11.756  18.544  14.931
32487W        W  705  38.306  33.601   0.965
32488W        W  706  30.866  28.374   1.237
32489W        W  707   4.176  30.549  12.451
32490W        W  708  44.462  10.794   3.865
32491W        W  709   4.959  11.174  13.059
32492W        W  710  36.462   7.172   2.352
32493W        W  711  44.655  15.917  13.080
32494W        W  712   5.464  31.036  12.047
32495W        W  713  28.890  23.403   2.253
32496W        W  714  34.493  38.845   2.878
32497W        W  715  10.098  19.760   2.786
32498W        W  716  37.480  26.497   1.872
32499W        W  717  22.593  26.030  13.145
32500W        W  718   9.602  33.540   1.638
32501W        W  719   3.753  33.092   3.989
32502W        W  720  10.147   9.684  13.520
32503W        W  721   5.899  26.733  10.209
32504W        W  722  12.203   8.699  14.526
32505W        W  723  44.440  35.505   2.168
32506W        W  724  22.687  23.924  13.309
32507W        W  725   9.460  39.449  12.191
32508W        W  726  17.813  15.089  13.971
32509W        W  727   1.304  10.411   1.485
32510W        W  728   9.368   6.872  13.830
32511W        W  729  44.375  35.818  14.931
32512W        W  730  17.751  28.436   1.776
32513W        W  731  37.008  41.492  10.539
32514W        W  732  17.414  20.286  14.275
32515W        W  733   5.554  30.434  10.635
32516W        W  734  14.197  19.679   3.593
32517W        W  735  22.686  16.986  10.361
32518W        W  736  43.706  16.404   1.716
32519W        W  737  30.963  28.395  11.544
32520W        W  738   5.385  19.780   0.748
32521W        W  739  40.021  44.374  14.720
32522W        W  740  15.948  31.965  13.043
32523W        W  741  32.843  10.435   0.972
32524W        W  742   5.955  38.760  12.369
32525W        W  743   2.908  23.165  13.421
32526W        W  744   3.488  26.595   0.791
32527W        W  745  31.390  38.628  11.537
32528W        W  746   8.891  44.204   0.236
32529W        W  747  42.514  19.720  10.590
32530W        W  748  23.303  23.379   0.852
32531W        W  749  41.629  34.160   4.555
32532W        W  750  21.705  44.744  13.942
32533W        W  751  26.277  27.547  14.835
32534W        W  752   5.430  16.656  13.556
32535W        W  753  13.745  20.293   2.105
32536W        W  754  21.881  23.068  12.456
32537W        W  755   9.348  22.895   1.652
32538W        W  756  20.045   0.485  11.590
32539W        W  757  21.063  35.525   0.166
32540W        W  758  25.512  23.229   0.356
32541W        W  759   0.637  33.718   2.930
32542W        W  760  12.690  11.898  11.935
32543W        W  761   7.429  21.212   1.339
32544W        W  762   9.612  36.377   4.256
32545W        W  763  17.256  20.189  12.493
32546W        W  764   8.646  24.484  11.335
32547W        W  765  11.291  32.723  10.800
32548W        W  766  34.801  21.809   1.234
32549W        W  767  19.580  27.949  14.425
32550W        W  768  37.508  19.294  12.338
32551W        W  769  41.572  27.856  14.969
32552W        W  770  17.489  41.497  11.447
32553W        W  771  39.319  25.191  12.901
32554W        W  772  24.688  16.250   2.282
32555W        W  773  11.610  32.525   1.428
32556W        W  774  40.568  39.326  13.411
32557W        W  775  23.144  22.467   3.166
32558W        W  776  33.535  15.127   1.426
32559W        W  777  13.809  31.575   3.862
32560W        W  778  39.277   8.027  11.140
32561W        W  779  28.882  33.460  12.114
32562W        W  780  24.188  13.223   4.777
32563W        W  781  24.727  13.314   1.182
32564W        W  782  43.048  18.024   4.289
32565W        W  783  20.308  44.797   3.175
32566W        W  784  23.766  17.336  14.967
32567W        W  785  44.684  25.925  14.691
32568W        W  786  15.629  36.927  12.908
32569W        W  787  27.893  33.603  13.018
32570W        W  788  30.629  32.321  13.955
32571W        W  789   1.166  15.292   0.454
32572W        W  790  32.711  14.711  14.454
32573W        W  791  12.122   7.922   1.246
32574W        W  792  26.735  23.210  13.842
32575W        W  793  21.291  28.990  13.944
32576W        W  794  25.068  40.243  10.766
32577W        W  795  19.581  40.847  11.126
32578W        W  796  32.753  15.579   4.137
32579W        W  797  29.806  40.471  13.478
32580W        W  798  29.577   7.251   3.723
32581W        W  799  16.025  28.345  12.531
32582W        W  800  14.616  37.041   2.336
32583W        W  801  24.151  22.420  10.374
32584W        W  802  23.208  38.071   1.359
32585W        W  803   2.603  14.757  11.271
32586W        W  804   5.425   5.244   0.072
32587W        W  805  37.293  16.535  12.937
32588W        W  806   1.802  44.719   1.431
32589W        W  807  23.504  35.130   4.201
32590W        W  808   9.452   8.798   0.365
32591W        W  809  20.155  14.106   1.654
32592W        W  810  36.772  27.069  14.440
32593W        W  811   1.201  44.428  14.497
32594W        W  812   7.559  22.127   4.566
32595W        W  813  35.060  25.755   4.123
32596W        W  814   6.466   4.890   4.143
32597W        W  815   2.368  26.811   5.002
32598W        W  816  44.967  39.225   2.002
32599W        W  817  12.081   5.280   2.803
32600W        W  818  24.810  10.706   3.640
32601W        W  819  30.390  31.946   1.363
32602W        W  820  18.229   1.975   1.505
32603W        W  821   7.230  26.254  13.419
32604W        W  822  41.101  31.118  12.042
32605W        W  823  39.793   5.391  13.124
32606W        W  824   2.801  37.060  14.494
32607W        W  825  34.899  13.545  14.436
32608W        W  826  30.843  31.043   0.324
32609W        W  827   4.898  34.301   1.711
32610W        W  828  24.229  28.870   0.473
32611W        W  829  22.329  22.246  10.741
32612W        W  830   3.848  13.250  13.177
32613W        W  831  29.694  11.406   1.778
32614W        W  832   4.280  22.759   4.094
32615W        W  833  36.059   7.271  14.523
32616W        W  834  41.380  43.508   2.248
32617W        W  835  23.248  15.095   4.117
32618W        W  836   4.677  16.244   2.159
32619W        W  837  20.170  14.865   2.635
32620W        W  838  44.370  21.508   2.378
32621W        W  839  19.639   2.446  14.982
32622W        W  840  22.561   4.325  12.724
32623W        W  841  21.531  17.083  10.268
32624W        W  842  33.332   4.798   3.772
32625W        W  843  37.369  34.114  11.963
32626W        W  844   7.199  28.674   1.140
32627W        W  845  42.225  31.156  12.544
32628W        W  846  31.600  39.449  13.541
32629W        W  847  20.659  35.623   1.404
32630W        W  848   2.939  31.052   4.042
32631W        W  849  22.984  36.838  14.411
32632W        W  850   0.773  38.001   2.823
32633W        W  851  21.662  24.194  12.928
32634W        W  852  39.214  38.954   3.377
32635W        W  853  33.417   0.762  12.652
32636W        W  854  42.863  26.933  14.271
32637W        W  855  36.705  20.193  13.838
32638W        W  856  18.599  19.975  10.534
32639W        W  857  42.793   5.991   2.782
32640W        W  858  42.991   3.822  13.561
32641W        W  859  27.662  43.967   1.163
32642W        W  860  26.957  32.745  11.545
32643W        W  861  39.925  30.867  13.516
32644W        W  862   7.901  13.806  12.408
32645W        W  863  28.062  42.359  10.656
32646W        W  864   3.356  36.122  12.503
32647W        W  865   3.080  34.252  11.125
32648W        W  866  29.431  42.902   0.720
32649W        W  867  20.390  30.852   2.632
32650W        W  868  31.875  34.413  11.588
32651W        W  869  14.640  18.065  11.363
32652W        W  870  25.271  31.816   2.902
32653W        W  871   6.964  40.314  13.618
32654W        W  872  28.099   1.298  11.743
32655W        W  873  33.171   1.706  13.754
32656W        W  874   7.429  30.627   4.143
32657W        W  875   8.447  29.117  13.277
32658W        W  876  36.944   8.846   2.324
32659W        W  877  13.279  40.800  13.754
32660W        W  878  35.602   7.426  14.339
32661W        W  879  36.951  27.230  10.594
32662W        W  880   1.098   3.903   4.599
32663W        W  881  28.120  37.693   3.931
32664W        W  882  13.574   6.418   3.895
32665W        W  883   0.910  35.540  11.717
32666W        W  884   4.486  43.747   2.285
32667W        W  885  19.723  42.986  11.548
32668W        W  886  21.101  40.175   1.125
32669W        W  887   9.144  31.657   0.910
32670W        W  888  24.044  44.860  10.475
32671W        W  889   5.381  18.402   5.102
32672W        W  890  34.725   8.085  12.619
32673W        W  891  34.407  16.750  14.368
32674W        W  892  39.763  31.136  11.097
32675W        W  893  10.672  43.771   3.268
32676W        W  894  32.812  13.703   0.450
32677W        W  895   7.785  20.665   1.993
32678W        W  896   0.459   7.749   3.733
32679W        W  897  36.471   8.288  11.911
32680W        W  898   6.311   3.652   4.917
32681W        W  899   5.933  10.417   4.146
32682W        W  900  30.051   6.731   2.194
32683W        W  901  35.526  26.571  10.691
32684W        W  902  24.934  16.562   4.327
32685W        W  903  28.842  30.516  13.008
32686W        W  904  35.072  15.175  12.795
32687W        W  905  17.620  10.066  11.962
32688W        W  906  18.336  41.797   0.312
32689W        W  907   5.798  41.823   1.386
32690W        W  908  25.273  23.081   4.029
32691W        W  909   6.975  10.932   3.727
32692W        W  910  34.551  36.536  12.584
32693W        W  911  28.250   2.797  13.254
32694W        W  912  32.913  25.018   0.536
32695W        W  913  24.749  31.029   1.466
32696W        W  914  25.567  12.563  13.435
32697W        W  915   3.727  28.897   2.261
32698W        W  916   8.883  18.328   1.370
32699W        W  917  41.919   7.498   2.115
32700W        W  918  19.367  24.588  12.246
32701W        W  919  10.315  33.999  10.430
32702W        W  920  30.597   3.905  11.886
32703W        W  921  14.091   3.469   4.610
32704W        W  922  42.406  14.217  11.117
32705W        W  923  30.609   6.312   0.865
32706W        W  924  12.241  23.097   3.229
32707W        W  925   8.745  34.713  13.384
32708W        W  926  28.366  17.813  13.258
32709W        W  927  33.558  23.754   0.306
32710W        W  928  26.454  15.166  12.074
32711W        W  929  13.729  37.411  11.995
32712W        W  930   7.189  42.968   1.478
32713W        W  931   4.911  20.834   0.456
32714W        W  932   0.436  14.575   2.975
32715W        W  933   0.843  14.836   3.123
32716W        W  934  13.066  14.213   0.478
32717W        W  935  24.674   9.400  11.599
32718W        W  936  23.748  41.333   2.371
32719W        W  937  10.656  32.521  13.495
32720W        W  938  22.188  36.285   0.983
32721W        W  939  11.809   5.789   1.762
32722W        W  940  28.210  31.383   0.294
32723W        W  941  10.864  38.556   2.859
32724W        W  942   8.743  11.170   4.791
32725W        W  943  32.609  13.217  11.844
32726W        W  944  39.926   6.835   2.450
32727W        W  945  37.261   0.269  14.330
32728W        W  946  24.140  40.926   4.434
32729W        W  947  26.134   1.834  13.945
32730W        W  948   4.903  22.085  13.050
32731W        W  949  18.725   3.408  13.462
32732W        W  950  34.268  32.814   4.588
32733W        W  951  34.965   7.126   3.544
32734W        W  952  12.662  25.953   0.587
32735W        W  953  21.843  41.235  13.100
32736W        W  954   5.440  31.626  13.157
32737W        W  955  18.153   8.338   0.470
32738W        W  956  44.802  12.653  10.609
32739W        W  957  16.646   7.766  11.098
32740W        W  958  24.287  12.230  13.014
32741W        W  959   2.991  13.523  11.173
32742W        W  960  21.468  14.190  14.923
32743W        W  961  12.322  13.464   3.540
32744W        W  962   5.387  14.755   0.218
32745W        W  963   2.079   3.389   1.079
32746W        W  964  28.792  13.134   5.015
32747W        W  965  43.919  39.329  13.532
32748W        W  966  20.756  16.138   0.871
32749W        W  967  35.410   1.460  13.586
32750W        W  968  40.345  33.496   1.924
32751W        W  969  10.714  13.258  13.314
32752W        W  970  10.439  42.841  12.648
32753W        W  971   7.020  10.151   3.305
32754W        W  972  22.267  11.387   2.426
32755W        W  973  25.587  39.482  10.948
32756W        W  974   3.989   3.741  12.321
32757W        W  975  39.000  25.917   2.458
32758W        W  976   8.552  10.874  12.108
32759W        W  977  37.794  35.855   2.690
32760W        W  978  39.347  38.129   3.778
32761W        W  979  26.110  38.933   0.203
32762W        W  980  18.286  16.054   0.784
32763W        W  981  12.140  20.110   2.199
32764W        W  982  40.343  37.677   3.477
32765W        W  983  40.358  37.991   1.439
32766W        W  984  22.578  35.858   2.741
32767W        W  985  20.753  19.306  12.095
32768W        W  986  35.554  15.101   4.097
32769W        W  987   8.013  28.053   4.380
32770W        W  988  36.831  42.868   5.085
32771W        W  989  43.283  38.523   3.273
32772W        W  990  30.561   8.892   1.726
32773W        W  991  12.470  26.083  12.167
32774W        W  992  37.459  27.811  12.485
32775W        W  993  16.317   9.489   1.599
32776W        W  994   6.192  24.659   2.703
32777W        W  995  43.348   0.440   1.241
32778W        W  996  44.354  30.612  12.160
32779W        W  997  13.062  28.459   0.916
32780W        W  998  39.500   5.454  14.892
32781W        W  999   6.480   0.947   1.323
32782W        W 1000  29.568   6.471   4.228
32783W        W 1001   7.926  10.077   3.197
32784W        W 1002   3.685  29.947   2.233
32785W        W 1003   4.719  25.178   3.189
32786W        W 1004  12.449  41.882   3.522
32787W        W 1005  31.574  43.503   3.750
32788W        W 1006  23.674  34.377  14.605
32789W        W 1007   1.865   7.924   2.735
32790W        W 1008  37.906   3.983  13.921
32791W        W 1009  27.422  26.668  13.657
32792W        W 1010   5.581   4.856  12.841
32793W        W 1011   6.597  38.857  14.939
32794W        W 1012  15.119  28.905   3.143
32795W        W 1013  20.651  22.704  13.851
32796W        W 1014  29.579  34.410   2.356
32797W        W 1015  41.745  23.732  14.777
32798W        W 1016  25.690  25.162  12.474
32799W        W 1017  44.866  21.699   2.375
32800W        W 1018   9.272   2.472  10.896
32801W        W 1019  30.936  13.889   2.050
32802W        W 1020  25.500  31.425  14.772
32803W        W 1021  25.565  18.757  10.779
32804W        W 1022  34.893  27.256  10.697
32805W        W 1023   4.468  10.363   1.384
32806W        W 1024   1.946  34.910  11.089
32807W        W 1025  21.623  17.976   0.312
32808W        W 1026  35.374  14.832   3.676
32809W        W 1027  35.073  40.207   2.696
32810W        W 1028  10.269  12.495  10.636
32811W        W 1029  19.279  25.509   2.369
32812W        W 1030  15.210   7.279   0.398
32813W        W 1031  37.533  10.195   1.091
32814W        W 1032  18.744  15.539  12.895
32815W        W 1033  19.413  42.626  10.788
32816W        W 1034   5.266  25.578  12.420
32817W        W 1035  34.987  43.157   4.039
32818W        W 1036  13.836  24.961  13.818
32819W        W 1037  12.220   7.703  13.425
32820W        W 1038  42.979   7.939   2.156
32821W        W 1039  33.485   7.346   1.859
32822W        W 1040  38.446  33.491   0.189
32823W        W 1041   1.827  32.360   1.975
32824W        W 1042  35.818  13.731  11.340
32825W        W 1043   9.703  39.125   2.253
32826W        W 1044  16.284  22.815   2.774
32827W        W 1045  30.109   7.541   4.364
32828W        W 1046   4.822  21.213  13.402
32829W        W 1047  22.348   7.832   4.408
32830W        W 1048  26.166  24.052   2.281
32831W        W 1049   9.914  12.692  12.155
32832W        W 1050   3.357   9.377   3.722
32833W        W 1051   7.146  32.746   2.099
32834W        W 1052   0.529  34.915   2.288
32835W        W 1053  18.305   9.158   0.772
32836W        W 1054  28.574   6.606  12.842
32837W        W 1055  14.277  23.240   0.197
32838W        W 1056   8.184   7.481  12.245
32839W        W 1057  21.159  19.563   1.245
32840W        W 1058  17.355   9.736   3.355
32841W        W 1059  44.943  10.904  13.023
32842W        W 1060  39.373  15.067  10.918
32843W        W 1061  26.811  11.153  11.105
32844W        W 1062   7.567  24.766   3.335
32845W        W 1063  43.458  30.365  10.899
32846W        W 1064   3.859  14.164   2.909
32847W        W 1065  24.461   1.682   1.743
32848W        W 1066  35.017  18.654   1.040
32849W        W 1067  33.873  16.958  11.340
32850W        W 1068  16.599  29.690  13.970
32851W        W 1069  28.396  17.105   1.749
32852W        W 1070  44.833  44.313   4.840
32853W        W 1071  41.371  13.025   3.307
32854W        W 1072  23.792  28.445  13.584
32855W        W 1073  25.972   4.371  14.336
32856W        W 1074  31.692  12.378   0.723
32857W        W 1075  27.206  33.352  14.358
32858W        W 1076   9.647  23.875   0.438
32859W        W 1077  21.630  14.113   3.139
32860W        W 1078  25.035  11.876  13.587
32861W        W 1079   6.215  44.909  11.669
32862W        W 1080  31.568   5.387  11.593
32863W        W 1081  30.786  36.928   3.612
32864W        W 1082  12.877  14.392   4.079
32865W        W 1083  10.138   9.693  12.630
32866W        W 1084  16.216   0.819  14.369
32867W        W 1085  42.384  33.928   1.979
32868W        W 1086  21.606  22.574  14.983
32869W        W 1087   8.209  41.938  13.998
32870W        W 1088  32.404  35.771   4.916
32871W        W 1089  33.956  10.947  13.717
32872W        W 1090  36.001   6.709  13.895
32873W        W 1091  27.607   2.576   3.279
32874W        W 1092   5.031  26.738   0.997
32875W        W 1093  11.695  19.015   2.414
32876W        W 1094   3.629  16.103  12.581
32877W        W 1095  17.459  38.856   2.687
32878W        W 1096  10.101   7.252   0.891
32879W        W 1097  17.029  17.257  10.960
32880W        W 1098   1.173  28.720   3.687
32881W        W 1099  44.858  11.899   1.376
32882W        W 1100  33.308  33.338  11.104
32883W        W 1101  36.412  24.065  13.454
32884W        W 1102  20.078   8.408   0.890
32885W        W 1103  31.897  31.506  11.610
32886W        W 1104  13.197  11.322   1.462
32887W        W 1105  11.513  23.364   1.265
32888W        W 1106  41.980  19.677  14.498
32889W        W 1107  44.837   6.235   2.354
32890W        W 1108   6.748  17.422  12.030
32891W        W 1109  33.095  41.367  11.355
32892W        W 1110   8.832  36.948  13.511
32893W        W 1111  33.337  44.889  13.237
32894W        W 1112   7.317  25.753  11.139
32895W        W 1113   4.924  24.548   0.761
32896W        W 1114  31.183  39.856  13.546
32897W        W 1115  36.247  29.214   5.019
32898W        W 1116  31.153  35.924   3.235
32899W        W 1117  18.306  13.128   4.029
32900W        W 1118  44.530  16.109   2.024
32901W        W 1119  37.231  16.437  12.097
32902W        W 1120  10.162  44.243  13.906
32903W        W 1121  19.574  26.750   1.364
32904W        W 1122  35.148  33.994  11.777
32905W        W 1123  32.428   8.484   4.978
32906W        W 1124  24.505  38.264   0.200
32907W        W 1125   4.404  19.466   4.594
32908W        W 1126   6.360   9.165   4.589
32909W        W 1127  20.327  40.869  11.588
32910W        W 1128  33.519  39.002   0.872
32911W        W 1129  36.037  30.712   0.080
32912W        W 1130  39.345   7.913   4.828
32913W        W 1131  16.270  38.889   0.392
32914W        W 1132   0.297  31.834  12.449
32915W        W 1133  28.096  40.660   3.644
32916W        W 1134  26.403  16.000   0.052
32917W        W 1135  32.200   2.004  14.544
32918W        W 1136  40.358  22.530   0.453
32919W        W 1137  38.013  29.406  12.134
32920W        W 1138  27.915  31.492   2.195
32921W        W 1139  31.300  39.746   1.833
32922W        W 1140  38.000  28.545  12.652
32923W        W 1141  14.110  25.516  11.177
32924W        W 1142  44.259   9.282   2.427
32925W        W 1143  11.869  28.450   2.525
32926W        W 1144  28.078  24.929  12.859
32927W        W 1145   9.236  21.041  10.769
32928W        W 1146  43.270  43.023  12.939
32929W        W 1147  43.011  32.624  12.925
32930W        W 1148  10.186  29.217   0.325
32931W        W 1149  27.211  35.403  12.433
32932W        W 1150  40.286   0.832  10.830
32933W        W 1151  28.512   8.794  14.793
32934W        W 1152  10.573   9.829   3.848
32935W        W 1153  20.092  13.759   9.796
32936W        W 1154  30.473  34.155   4.130
32937W        W 1155  34.103   8.764  12.622
32938W        W 1156  11.972  17.455   1.641
32939W        W 1157   5.826  19.286  13.753
32940W        W 1158  11.521  18.450   3.831
32941W        W 1159  39.863  15.782   2.544
32942W        W 1160   3.151   3.901   2.306
32943W        W 1161  40.586  34.079   1.246
32944W        W 1162  25.111   6.354   2.672
32945W        W 1163  36.061  27.967  13.127
32946W        W 1164  25.239  38.870  14.264
32947W        W 1165  11.842   2.115  14.884
32948W        W 1166  19.691  13.410   3.488
32949W        W 1167  36.080  26.413   3.793
32950W        W 1168  36.843   5.649  11.081
32951W        W 1169  17.314  43.907  14.408
32952W        W 1170  38.758  40.981   3.665
32953W        W 1171   5.166   1.237   0.960
32954W        W 1172  14.731  33.940  14.125
32955W        W 1173   6.872   8.942  14.976
32956W        W 1174  22.798  43.345   3.791
32957W        W 1175  43.192   9.952  13.643
32958W        W 1176  26.008   9.073   2.431
32959W        W 1177   1.234  33.045  14.897
32960W        W 1178  31.549   3.300   2.861
32961W        W 1179  22.513  29.982  12.734
32962W        W 1180  41.797   0.972  12.095
32963W        W 1181  38.257  42.337   1.336
32964W        W 1182  12.672  38.860   1.614
32965W        W 1183   6.833  39.914  10.504
32966W        W 1184  31.672  21.074   3.160
32967W        W 1185  20.561  28.081  13.505
32968W        W 1186  41.863  24.445   0.316
32969W        W 1187  28.419  44.968   4.254
32970W        W 1188  38.984  24.493  13.551
32971W        W 1189  33.053   3.351  12.992
32972W        W 1190  10.438  28.226   3.222
32973W        W 1191  35.034  33.344   3.304
32974W        W 1192  25.894   5.772   2.913
32975W        W 1193  20.242  39.049  12.029
32976W        W 1194  11.642  20.254  11.152
32977W        W 1195   4.260   4.699   5.065
32978W        W 1196  15.646   4.358  13.303
32979W        W 1197   7.913  33.145   4.709
32980W        W 1198  27.717  42.033  11.506
32981W        W 1199  11.256   3.614  12.932
32982W        W 1200   7.023  30.741  10.709
32983W        W 1201  16.050  22.094   1.689
32984W        W 1202  26.573   9.868   3.305
32985W        W 1203  26.621  22.714  12.948
32986W        W 1204  32.446   8.284   3.460
32987W        W 1205  42.794  34.399   4.473
32988W        W 1206  43.945   5.734  11.743
32989W        W 1207   6.147   7.740  12.467
32990W        W 1208  35.016  32.731  14.260
32991W        W 1209  39.026  32.692   3.616
32992W        W 1210  31.046  16.237  12.990
32993W        W 1211  34.164   3.368   0.291
32994W        W 1212  14.603  34.796   4.567
32995W        W 1213  44.227  33.352  10.193
32996W        W 1214  32.478  39.278  12.490
32997W        W 1215  10.383  15.824   4.608
32998W        W 1216   5.849   8.952   0.925
32999W        W 1217   8.113  25.013   0.335
33000W        W 1218  32.886   7.274   4.110
33001W        W 1219   9.346  36.120   2.880
33002W        W 1220  20.941  34.502   0.927
33003W        W 1221  25.414  27.254  12.096
33004W        W 1222  42.342  13.860   3.814
33005W        W 1223   8.257  17.695  13.220
33006W        W 1224   3.697  17.222  11.109
33007W        W 1225  38.809  11.609  13.412
33008W        W 1226   8.790  17.126  13.430
33009W        W 1227  31.383  29.477   0.895
33010W        W 1228  37.318   2.930  14.430
33011W        W 1229  20.134  38.147  14.871
33012W        W 1230  40.536  22.604  13.327
33013W        W 1231  37.761  36.917   0.356
33014W        W 1232  34.675  13.180  14.963
33015W        W 1233  35.324   8.519   3.820
33016W        W 1234  39.855  21.897  11.908
33017W        W 1235  18.861   8.777   5.018
33018W        W 1236  29.184  14.682   2.780
33019W        W 1237   2.260  31.251  10.694
33020W        W 1238  29.620  18.538  12.948
33021W        W 1239  44.855   7.182   1.244
33022W        W 1240  38.213  17.571  11.097
33023W        W 1241  42.001  12.187  10.679
33024W        W 1242  36.374   4.963   1.676
33025W        W 1243   1.972  34.690  10.642
33026W        W 1244   7.191  18.597  14.806
33027W        W 1245  22.143  17.787  12.509
33028W        W 1246  29.638   6.836  12.078
33029W        W 1247  42.565  25.587  11.164
33030W        W 1248  26.956  44.210   1.898
33031W        W 1249  12.362   9.630  14.474
33032W        W 1250   0.822  34.344  11.015
33033W        W 1251   3.373  24.534   2.345
33034W        W 1252  32.059  36.337  10.803
33035W        W 1253  35.853  24.877   0.836
33036W        W 1254  11.224  31.052   4.165
33037W        W 1255  44.444  14.911   5.274
33038W        W 1256   4.951   7.684  13.471
33039W        W 1257  13.728   9.358  11.613
33040W        W 1258  13.174  14.197  10.760
33041W        W 1259  33.283  10.072  13.589
33042W        W 1260   6.339  13.591   4.211
33043W        W 1261   4.368  28.777   1.279
33044W        W 1262  27.234   8.547   0.405
33045W        W 1263  30.511   2.415  12.063
33046W        W 1264   3.707   1.138  13.546
33047W        W 1265  43.426   7.799  12.558
33048W        W 1266  34.604  18.303   1.370
33049W        W 1267  43.791   4.871   1.429
33050W        W 1268  28.137  22.061  11.312
33051W        W 1269  27.210  12.829  14.942
33052W        W 1270  44.458   4.124   1.821
33053W        W 1271   5.667  17.675   1.229
33054W        W 1272   1.047   7.381   3.694
33055W        W 1273   9.981  29.144  14.571
33056W        W 1274  23.142  35.455  12.363
33057W        W 1275  40.920  37.811  12.784
33058W        W 1276  22.026  43.508   4.232
33059W        W 1277  25.779  11.398  13.892
33060W        W 1278  31.882   0.448   0.288
33061W        W 1279  40.534  40.886   1.094
33062W        W 1280  11.343  26.622  13.068
33063W        W 1281  33.918  11.346   1.369
33064W        W 1282  11.243   1.785   0.737
33065W        W 1283  26.737  43.042   4.144
33066W        W 1284  38.046  29.402  14.857
33067W        W 1285  44.108  44.713  10.902
33068W        W 1286  42.787  15.873   0.769
33069W        W 1287  36.321  25.440  12.030
33070W        W 1288  41.587  34.592  14.396
33071W        W 1289  43.835  29.733  12.918
33072W        W 1290  17.020   1.956   3.750
33073W        W 1291  18.551  23.513   2.682
33074W        W 1292  21.070  28.516   4.934
33075W        W 1293   1.373  11.535  13.086
33076W        W 1294  33.675  35.054   2.814
33077W        W 1295  32.654  42.324  11.280
33078W        W 1296  10.184  13.766   0.012
33079W        W 1297   4.712  35.532  10.012
33080W        W 1298  24.540   7.079   2.841
33081W        W 1299   3.981  44.588   3.294
33082W        W 1300  44.943   0.339  12.151
33083W        W 1301  19.234  19.682   4.017
33084W        W 1302  34.055  16.588   2.386
33085W        W 1303  12.226  25.756  11.290
33086W        W 1304  13.254  27.937  13.087
33087W        W 1305  30.034  28.674   3.234
33088W        W 1306  25.683  24.697   0.806
33089W        W 1307  39.064  35.792   3.647
33090W        W 1308   6.230   9.803  10.727
33091W        W 1309   9.673  14.106   4.098
33092W        W 1310  16.642  19.019  14.602
33093W        W 1311  25.240  12.257   4.375
33094W        W 1312  16.549  15.053  12.357
33095W        W 1313  38.487   6.901  13.021
33096W        W 1314   1.393   2.533  10.789
33097W        W 1315  41.822  43.781   2.253
33098W        W 1316  20.210  30.476   0.422
33099W        W 1317  43.710  27.744  14.858
33100W        W 1318  20.275  26.527   2.270
33101W        W 1319  40.134   2.662  13.835
33102W        W 1320   5.988  42.360   4.079
33103W        W 1321  32.473  20.967   2.820
33104W        W 1322  19.242  43.988   3.723
33105W        W 1323  27.538  28.745   0.483
33106W        W 1324  33.445  32.536   2.508
33107W        W 1325   1.590  27.105   0.357
33108W        W 1326  44.337   3.653   4.090
33109W        W 1327  34.344   2.720   2.176
33110W        W 1328  25.943  37.980   1.324
33111W        W 1329  40.016   2.173   4.290
33112W        W 1330  20.928  28.515  11.518
33113W        W 1331  38.450   8.446   1.612
33114W        W 1332   5.512  36.635  13.979
33115W        W 1333   3.589  22.446  14.772
33116W        W 1334  32.561   6.513  11.171
33117W        W 1335  36.075  34.523   0.659
33118W        W 1336  44.446  37.805   1.320
33119W        W 1337  41.385   2.506   3.196
33120W        W 1338  42.876  22.208  13.509
33121W        W 1339   2.603  17.187   2.805
33122W        W 1340  38.100   0.705  14.932
33123W        W 1341  38.945  11.459   4.144
33124W        W 1342  13.017   8.607  10.655
33125W        W 1343  21.865  43.977  10.702
33126W        W 1344   4.453  20.683   3.031
33127W        W 1345   5.145  28.242  11.055
33128W        W 1346   5.242  35.875   4.229
33129W        W 1347  12.322  38.585   1.957
33130W        W 1348  32.547  25.911   3.806
33131W        W 1349   1.885  37.957  11.253
33132W        W 1350  12.615  34.381   4.057
33133W        W 1351  20.949  35.840  12.008
33134W        W 1352  27.598   9.290   1.258
33135W        W 1353  28.920  32.855   3.314
33136W        W 1354  13.756  33.661   0.309
33137W        W 1355  38.543  11.758  12.990
33138W        W 1356  14.285  30.155  12.760
33139W        W 1357   0.030  44.957  14.811
33140W        W 1358   4.467  12.960  12.134
33141W        W 1359  43.515  22.022   4.091
33142W        W 1360  25.489  38.288   4.581
33143W        W 1361  26.193  16.691  13.301
33144W        W 1362  36.539  28.963  12.104
33145W        W 1363  18.877  33.880   2.619
33146W        W 1364  11.387   1.880   2.836
33147W        W 1365  25.141  10.362   0.748
33148W        W 1366  26.951  27.469  12.391
33149W        W 1367  11.105  34.937  13.709
33150W        W 1368  13.359  27.174  12.530
33151W        W 1369  10.310  34.301  12.599
33152W        W 1370  32.381  35.422   0.777
33153W        W 1371  36.927  15.976  14.257
33154W        W 1372  14.149  20.075  13.445
33155W        W 1373  24.130  22.692  11.204
33156W        W 1374  25.737   1.920  13.133
33157W        W 1375   7.691  31.730   2.435
33158W        W 1376  21.529   6.465   2.295
33159W        W 1377  16.199  36.603  11.156
33160W        W 1378  21.222   8.134  13.461
33161W        W 1379  31.245  17.602   4.161
33162W        W 1380  34.141  20.199  10.770
33163W        W 1381  27.064  38.206  11.559
33164W        W 1382  26.226  17.837   2.429
33165W        W 1383   0.402  39.530  11.954
33166W        W 1384  44.794  12.113  11.529
33167W        W 1385  30.931  22.946   4.031
33168W        W 1386  19.558  28.549   0.958
33169W        W 1387   4.261  42.391  13.090
33170W        W 1388  17.910  33.205   2.720
33171W        W 1389  30.351  19.486   1.212
33172W        W 1390  42.555  16.013   2.286
33173W        W 1391  17.682  20.001  11.546
33174W        W 1392  27.655  41.326  13.201
33175W        W 1393  33.299   6.281   5.139
33176W        W 1394   9.856  25.072  14.839
33177W        W 1395  10.543  41.642  11.206
33178W        W 1396  17.142  27.368  10.506
33179W        W 1397  23.684  35.535   5.521
33180W        W 1398  44.725   9.996  10.603
33181W        W 1399  12.581  31.209   3.329
33182W        W 1400  30.244   5.712   1.379
33183W        W 1401  36.938  16.194   1.244
33184W        W 1402  10.141  23.024  14.770
33185W        W 1403  19.669   5.705  13.744
33186W        W 1404  38.773   7.168  14.021
33187W        W 1405  28.064   3.600  12.916
33188W        W 1406   1.714   4.966  13.572
33189W        W 1407  11.857  25.454  14.578
33190W        W 1408   8.334  19.553  13.000
33191W        W 1409   1.244  11.829   3.514
33192W        W 1410  33.536  43.033  12.544
33193W        W 1411  15.440  33.326  12.616
33194W        W 1412  33.496   7.864   1.839
33195W        W 1413  34.735  37.227  11.929
33196W        W 1414  33.596   0.478   4.415
33197W        W 1415  18.199  34.177  14.437
33198W        W 1416  15.106  38.124  14.552
33199W        W 1417  36.983  15.287  12.349
33200W        W 1418  15.690  12.637   5.319
33201W        W 1419  23.901  18.361   0.051
33202W        W 1420  14.360  44.515   2.058
33203W        W 1421   4.315  27.381   3.664
33204W        W 1422  44.949   9.606   0.291
33205W        W 1423  42.976  30.493  11.663
33206W        W 1424  34.105  24.197  12.183
33207W        W 1425  20.282  27.698   2.357
33208W        W 1426  21.588   1.189   0.767
33209W        W 1427  27.867  41.220   2.820
33210W        W 1428  24.988  10.232   1.238
33211W        W 1429   9.192  32.404  11.996
33212W        W 1430  18.686  35.970   4.992
33213W        W 1431  27.286  32.560  11.164
33214W        W 1432  37.900  29.872  13.047
33215W        W 1433  12.284  36.138   1.353
33216W        W 1434  42.838  36.883  12.865
33217W        W 1435  13.126  24.333   2.127
33218W        W 1436  16.543  27.181  13.939
33219W        W 1437   6.870  25.673   1.943
33220W        W 1438  32.537  13.598   3.697
33221W        W 1439  17.281  14.391  12.695
33222W        W 1440  42.589  23.091   4.384
33223W        W 1441   2.225  10.847  12.358
33224W        W 1442  12.776  14.581   1.451
33225W        W 1443  26.999  42.741  11.112
33226W        W 1444  44.806  44.878  13.465
33227W        W 1445  43.336  21.741   0.514
33228W        W 1446  43.312  41.000   1.284
33229W        W 1447  19.521  22.080  11.186
33230W        W 1448  42.754   1.368   4.115
33231W        W 1449   6.482   5.902  11.910
33232W        W 1450  21.292  15.372   2.761
33233W        W 1451   0.942   0.609  13.647
33234W        W 1452  20.826  18.996   2.697
33235W        W 1453   9.699  35.594   4.847
33236W        W 1454   6.607  39.470   0.471
33237W        W 1455  20.008  15.250   1.858
33238W        W 1456  38.852  32.920   1.425
33239W        W 1457   0.773   7.288   4.113
33240W        W 1458  29.713  25.713  12.550
33241W        W 1459  39.997   6.983   0.523
33242W        W 1460  27.471  25.233   3.768
33243W        W 1461  38.297  32.096   4.129
33244W        W 1462   1.812   2.679  12.758
33245W        W 1463  14.362  33.679  13.737
33246W        W 1464   6.997  21.440  10.662
33247W        W 1465   7.645  21.302  13.523
33248W        W 1466  15.984  13.398   4.899
33249W        W 1467  25.857  27.435  12.367
33250W        W 1468  18.689  14.814  14.813
33251W        W 1469  14.782  10.752   3.292
33252W        W 1470  19.037  38.911  12.474
33253W        W 1471  15.572  37.483   1.378
33254W        W 1472   9.129   6.753  12.457
33255W        W 1473  40.846   4.436  13.356
33256W        W 1474  38.977  21.704  12.117
33257W        W 1475  43.993   4.954  13.980
33258W        W 1476   3.344   1.511  11.156
33259W        W 1477  23.556   0.360  13.631
33260W        W 1478  18.431   5.146   5.221
33261W        W 1479   3.055   3.230   0.811
33262W        W 1480   4.612  33.341   1.920
33263W        W 1481  40.144  12.747  11.141
33264W        W 1482   5.587   5.946  12.860
33265W        W 1483  20.641  13.069   2.511
33266W        W 1484  14.052  35.442  12.390
33267W        W 1485  37.496  30.712  12.962
33268W        W 1486  15.170  23.767   2.397
33269W        W 1487  33.009  44.741  13.999
33270W        W 1488  43.127  43.408   1.429
33271W        W 1489  35.072   4.203   3.220
33272W        W 1490   3.450   1.934   1.382
33273W        W 1491  32.516  14.125  12.437
33274W        W 1492  28.784  31.611  11.083
33275W        W 1493  30.518  30.686   4.333
33276W        W 1494  42.602  38.389  14.535
33277W        W 1495  20.160  18.165  11.145
33278W        W 1496  25.904  10.156  13.470
33279W        W 1497  25.591  12.859  13.863
33280W        W 1498  34.620  17.559  14.082
33281W        W 1499  43.029   3.658   3.027
33282W        W 1500  26.971  20.589   3.217
33283W        W 1501  10.110   3.656  11.583
33284W        W 1502  29.500  31.154  11.551
33285W        W 1503   6.667  24.057   0.409
33286W        W 1504   4.332  43.264  12.110
33287W        W 1505  36.651   7.291   1.804
33288W        W 1506  22.696  40.625   3.097
33289W        W 1507   7.825  13.912  14.784
33290W        W 1508   8.421  35.537  12.412
33291W        W 1509   6.293   4.409   0.315
33292W        W 1510  26.936  26.379   0.984
33293W        W 1511  38.837  26.410   4.144
33294W        W 1512  42.338  41.927   4.420
33295W        W 1513  25.073  38.908   1.636
33296W        W 1514  39.258  14.752  13.507
33297W        W 1515   7.745  16.628   1.267
33298W        W 1516  19.632  35.317  13.834
33299W        W 1517  40.721  25.685  11.614
33300W        W 1518  10.602  14.348   3.765
33301W        W 1519  44.395  12.609  13.239
33302W        W 1520  33.618  19.628  14.373
33303W        W 1521   8.205  18.649  14.998
33304W        W 1522  43.564  34.562   1.863
33305W        W 1523  25.889  31.106  13.455
33306W        W 1524  20.533   9.636   1.808
33307W        W 1525  27.339   3.779  11.184
33308W        W 1526  23.430  40.439   4.538
33309W        W 1527  43.183  21.670   1.827
33310W        W 1528   7.952  41.795  13.479
33311W        W 1529  22.107  32.452  11.843
33312W        W 1530  10.697  34.439  13.853
33313W        W 1531  25.435  28.925   2.748
33314W        W 1532   0.030   6.305  10.595
33315W        W 1533  34.934  15.325   4.702
33316W        W 1534   6.651  17.177   0.438
33317W        W 1535  25.593  42.853   1.937
33318W        W 1536  18.960   2.795   1.914
33319W        W 1537  23.585  28.500  11.845
33320W        W 1538  15.726  29.666   5.307
33321W        W 1539  15.023   4.605  11.675
33322W        W 1540  38.275  43.888  14.913
33323W        W 1541  12.298  27.245  14.379
33324W        W 1542  16.525  39.589   1.814
33325W        W 1543  32.390  12.457   1.482
33326W        W 1544   1.390  33.549  14.793
33327W        W 1545  11.629  10.019  13.860
33328W        W 1546  31.440   0.815   4.693
33329W        W 1547  19.642  36.055   0.206
33330W        W 1548  21.635  36.966   4.551
33331W        W 1549  25.894  13.338  13.035
33332W        W 1550   4.340  38.941   3.237
33333W        W 1551  43.455  26.433   0.382
33334W        W 1552  32.050  31.908  10.926
33335W        W 1553  23.095  22.130   2.208
33336W        W 1554  29.347  12.632  14.398
33337W        W 1555  35.688  15.327  12.024
33338W        W 1556  39.967  29.191  12.249
33339W        W 1557  16.743   3.855  14.984
33340W        W 1558  37.166  28.509  11.027
33341W        W 1559  43.700  15.135   0.357
33342W        W 1560  39.912   8.987   4.164
33343W        W 1561  40.166   9.647  12.808
33344W        W 1562   2.606  30.450  14.522
33345W        W 1563  11.011  31.456  12.049
33346W        W 1564  13.331  26.440  10.476
33347W        W 1565  26.729   0.434   2.125
33348W        W 1566  30.049  20.972   0.310
33349W        W 1567  36.491  13.761   4.886
33350W        W 1568   4.367  42.836  12.842
33351W        W 1569  44.514  36.892   2.491
33352W        W 1570   6.731  35.745  11.094
33353W        W 1571  27.672  23.706   1.751
33354W        W 1572   7.264   1.875   4.407
33355W        W 1573  17.126  13.682   4.033
33356W        W 1574  19.219  40.882  14.860
33357W        W 1575  13.215   4.012  13.829
33358W        W 1576   5.605   6.258   3.664
33359W        W 1577  26.630  25.981   0.783
33360W        W 1578  34.567  38.833  12.937
33361W        W 1579  12.789  36.195  11.641
33362W        W 1580  40.279  12.250  12.011
33363W        W 1581  17.640  32.298   0.407
33364W        W 1582  26.162  32.948  11.945
33365W        W 1583  34.517  41.316  14.123
33366W        W 1584   3.054  44.430  13.813
33367W        W 1585  17.709  24.182   2.759
33368W        W 1586  25.269  37.030  12.538
33369W        W 1587   8.606   1.110   1.785
33370W        W 1588  34.481  21.029   4.037
33371W        W 1589  24.530  32.605  12.446
33372W        W 1590  16.166  13.331   1.115
33373W        W 1591  23.494  30.430  14.853
33374W        W 1592  43.231  37.150  10.640
33375W        W 1593  10.953   9.913   1.970
33376W        W 1594  12.869  29.496   5.003
33377W        W 1595  17.991   3.384  11.916
33378W        W 1596  41.280  34.071  13.534
33379W        W 1597  21.251  11.023  14.484
33380W        W 1598  27.597  24.990  13.898
33381W        W 1599  25.417  19.659  14.928
33382W        W 1600   9.456  31.849  12.710
33383W        W 1601  27.729  24.548  13.469
33384W        W 1602   5.369  29.995   0.348
33385W        W 1603  21.812   8.776   1.648
33386W        W 1604  43.290  32.336   1.144
33387W        W 1605  22.546   9.829  10.639
33388W        W 1606  18.614   7.885  11.708
33389W        W 1607   3.643  40.999   3.725
33390W        W 1608  13.342  33.714   0.708
33391W        W 1609  42.984  24.139  12.162
33392W        W 1610  25.199  14.238  13.105
33393W        W 1611   0.575   7.693   1.588
33394W        W 1612   9.682  28.840   3.646
33395W        W 1613  28.179  17.738   1.943
33396W        W 1614  16.650  16.263   4.490
33397W        W 1615  32.515  20.017   4.582
33398W        W 1616  27.623   4.968  11.327
33399W        W 1617  36.591  43.354  12.445
33400W        W 1618   7.942  18.083  10.111
33401W        W 1619   3.907  10.871   3.126
33402W        W 1620  15.540  35.398   0.889
33403W        W 1621  33.988  26.516   1.246
33404W        W 1622  20.263  35.941   2.776
33405W        W 1623  29.931   3.454  14.614
33406W        W 1624  13.765  17.799  14.735
33407W        W 1625  19.962  22.742   3.645
33408W        W 1626   1.232   6.703   1.842
33409W        W 1627  24.088  33.119  14.568
33410W        W 1628   8.293  21.506   0.006
33411W        W 1629  28.852  17.615   4.607
33412W        W 1630  40.799  12.423  14.899
33413W        W 1631  26.200  28.039   0.785
33414W        W 1632  25.119  43.875  10.643
33415W        W 1633  24.782   5.475  11.974
33416W        W 1634  30.549   2.715   1.632
33417W        W 1635   8.406  24.249   3.863
33418W        W 1636  28.617  20.166  11.897
33419W        W 1637  29.910  36.118  13.500
33420W        W 1638   4.742   5.912   3.757
33421W        W 1639  19.241  39.529  10.598
33422W        W 1640   6.309   6.941  14.458
33423W        W 1641  39.751  25.829  12.637
33424W        W 1642  27.238   8.100  13.981
33425W        W 1643  37.693  36.479   5.209
33426W        W 1644  42.599  37.659  11.406
33427W        W 1645  18.834   9.743  13.511
33428W        W 1646   6.010  17.375  13.118
33429W        W 1647  44.918  20.006   3.281
33430W        W 1648  30.438  11.780   4.281
33431W        W 1649  43.335   5.205   3.883
33432W        W 1650  29.335  17.137   3.851
33433W        W 1651  27.418   2.238   1.897
33434W        W 1652   0.176   9.041   5.075
33435W        W 1653   9.759   6.327  12.117
33436W        W 1654  20.255   7.258   0.449
33437W        W 1655  30.666   8.732   3.685
33438W        W 1656  13.584  32.592  13.870
33439W        W 1657  13.882  31.182  10.642
33440W        W 1658  15.733  33.039   1.678
33441W        W 1659   1.477  27.826   3.674
33442W        W 1660  10.188  38.994  11.923
33443W        W 1661   3.270  13.095  11.108
33444W        W 1662  44.938   1.728   3.423
33445W        W 1663  16.284  13.309   0.604
33446W        W 1664   0.425   5.755   4.561
33447W        W 1665  37.922  35.415  12.437
33448W        W 1666  18.251  14.732  10.599
33449W        W 1667  19.277  25.732   1.899
33450W        W 1668   9.413  33.195   4.021
33451W        W 1669  40.567  25.077   1.409
33452W        W 1670  41.827   7.692   1.550
33453W        W 1671  19.076  39.910   4.609
33454W        W 1672   2.365   3.910  10.406
33455W        W 1673  35.260  42.781  13.215
33456W        W 1674  16.249  24.196   4.321
33457W        W 1675  25.515  33.202  12.419
33458W        W 1676  32.540  27.473   3.516
33459W        W 1677  25.464  11.326   2.371
33460W        W 1678  28.163   3.090  12.845
33461W        W 1679  13.827  27.418  12.609
33462W        W 1680  41.583  26.747   2.860
33463W        W 1681  13.375  21.019   1.819
33464W        W 1682  26.269  10.306   2.852
33465W        W 1683  23.735  29.168  10.860
33466W        W 1684  15.326  28.914  10.849
33467W        W 1685  41.575   5.701  12.555
33468W        W 1686  34.492  44.454  12.665
33469W        W 1687  20.935  38.394  12.833
33470W        W 1688   5.681  22.930   1.400
33471W        W 1689   0.755  21.491  12.392
33472W        W 1690   4.733  30.492  11.020
33473W        W 1691   3.332  33.913   2.662
33474W        W 1692  17.918  15.707   5.294
33475W        W 1693   5.311  31.610  14.460
33476W        W 1694  13.131  29.799   4.001
33477W        W 1695  33.714   4.679   1.747
33478W        W 1696   5.711  43.265   1.513
33479W        W 1697   5.014  14.252   0.005
33480W        W 1698  16.735   7.202  14.341
33481W        W 1699  41.809  43.391  13.732
33482W        W 1700   2.337  31.065   3.124
33483W        W 1701  30.516  32.597   0.358
33484W        W 1702  40.707  16.625   3.164
33485W        W 1703  39.950  36.086  14.320
33486W        W 1704  37.051  26.622  13.303
33487W        W 1705  23.135  27.542   4.456
33488W        W 1706   8.896   2.004  12.332
33489W        W 1707  24.489  36.013   4.256
33490W        W 1708   0.254  34.041   1.299
33491W        W 1709  11.125  39.763   0.495
33492W        W 1710  17.231  17.989   2.765
33493W        W 1711  37.137  36.967   4.718
33494W        W 1712  38.617  36.332  12.645
33495W        W 1713  20.578   1.498   0.744
33496W        W 1714  43.494  18.143   0.933
33497W        W 1715   4.649  33.049   3.523
33498W        W 1716  14.819  41.459  13.028
33499W        W 1717  17.560  19.536   3.680
33500W        W 1718  24.515  31.977  14.946
33501W        W 1719  34.118   6.600  12.027
33502W        W 1720   6.295  37.618   3.216
33503W        W 1721  22.080   7.914   2.278
33504W        W 1722  43.844   7.284   1.011
33505W        W 1723  11.350   7.795   4.199
33506W        W 1724  24.089  37.207   4.478
33507W        W 1725  39.914  33.917  11.016
33508W        W 1726  12.052  18.148  13.062
33509W        W 1727  23.207  16.149  13.773
33510W        W 1728  10.139  27.728   4.173
33511W        W 1729  19.944  31.470  12.083
33512W        W 1730  37.314  37.524   1.467
33513W        W 1731  23.154  31.360  12.431
33514W        W 1732  24.162   5.336   0.860
33515W        W 1733  18.267  14.326  10.261
33516W        W 1734   0.267  37.412  14.979
33517W        W 1735   7.299  21.931  11.004
33518W        W 1736  12.094  43.388   3.918
33519W        W 1737  27.164  40.910   1.616
33520W        W 1738  14.190   4.762  13.153
33521W        W 1739  39.532  12.224   3.241
33522W        W 1740   6.741  39.891  13.412
33523W        W 1741  43.032  11.902  12.554
33524W        W 1742  28.014  35.541  11.514
33525W        W 1743  40.335  31.940  14.971
33526W        W 1744  40.774  36.504  11.454
33527W        W 1745  25.408  23.003   3.272
33528W        W 1746  36.125  42.539   3.600
33529W        W 1747  42.316  43.716  11.154
33530W        W 1748  14.789  23.207  12.478
33531W        W 1749   8.116  35.377  14.860
33532W        W 1750  20.898   1.217   0.445
33533W        W 1751  10.757  44.256   2.654
33534W        W 1752  19.163  35.062  13.787
33535W        W 1753  43.079  29.681   3.932
33536W        W 1754  42.837  20.301  14.521
33537W        W 1755  24.284  21.124  10.774
33538W        W 1756  19.726  42.535  12.987
33539W        W 1757  19.385  26.868  13.456
33540W        W 1758   5.881  10.371  11.038
33541W        W 1759  29.329   7.888  12.541
33542W        W 1760  33.943  25.240  14.125
33543W        W 1761  29.697  21.688  13.756
33544W        W 1762   7.776  35.055   1.848
33545W        W 1763  41.390  40.374   2.576
33546W        W 1764   1.234  28.888  14.245
33547W        W 1765  17.551  16.103  14.301
33548W        W 1766  34.100   0.699  11.909
33549W        W 1767   5.292  24.951   2.267
33550W        W 1768   7.526   8.415  14.988
33551W        W 1769  29.054  16.054  13.986
33552W        W 1770  36.597  44.488   3.652
33553W        W 1771  20.451   0.623   1.344
33554W        W 1772  36.705  14.770  11.209
33555W        W 1773  12.392  41.923   1.740
33556W        W 1774  42.614  24.472   0.985
33557W        W 1775  13.197  34.530   3.656
33558W        W 1776  16.117   6.420   1.433
33559W        W 1777  13.546  22.455   1.611
33560W        W 1778  44.876  28.862   4.876
33561W        W 1779  43.825  27.964  12.533
33562W        W 1780  30.889  43.687   4.026
33563W        W 1781  39.520  22.348   2.293
33564W        W 1782  41.801   3.017   1.355
33565W        W 1783  27.498  42.073   1.201
33566W        W 1784  15.179  36.496   4.409
33567W        W 1785  36.615   1.293   2.773
33568W        W 1786  24.785  23.222   3.920
33569W        W 1787  23.183  12.817   2.299
33570W        W 1788  16.276  40.468  12.404
33571W        W 1789  30.431   0.708   4.658
33572W        W 1790  20.738   0.681  11.303
33573W        W 1791  25.196  20.054   3.592
33574W        W 1792  28.570  23.003   9.692
33575W        W 1793  29.590   9.201   4.762
33576W        W 1794  31.523  30.413  12.047
33577W        W 1795  28.353  16.687   5.019
33578W        W 1796  18.807  12.657   2.340
33579W        W 1797  16.237  26.657  11.436
33580W        W 1798   6.540   4.692   2.279
33581W        W 1799  42.468   9.431   1.348
33582W        W 1800  30.548  30.095  14.967
33583W        W 1801  15.264  22.216  11.657
33584W        W 1802  42.712  39.798  11.088
33585W        W 1803   3.273  17.764   2.236
33586W        W 1804   4.347  11.372  12.423
33587W        W 1805  11.656  13.129  11.550
33588W        W 1806  34.096  18.501  11.559
33589W        W 1807  31.302  15.632  10.306
33590W        W 1808  27.221  26.268  13.408
33591W        W 1809  33.139   6.474   4.245
33592W        W 1810   0.086   3.370   1.466
33593W        W 1811   7.785  12.928   1.897
33594W        W 1812  26.627  37.404  13.291
33595W        W 1813  25.792   2.979   2.385
33596W        W 1814  30.708  17.174  10.456
33597W        W 1815  39.339  30.661   4.093
33598W        W 1816  42.075  23.821  11.113
33599W        W 1817  36.809  23.938   4.258
33600W        W 1818  23.974  18.835   3.622
33601W        W 1819  37.956   3.422   0.536
33602W        W 1820  37.837  38.598  11.863
33603W        W 1821  24.032  12.616  12.022
33604W        W 1822  21.280  32.783  13.823
33605W        W 1823  38.124  16.074  13.011
33606W        W 1824  27.964   8.325   4.568
33607W        W 1825   5.236  15.686  14.398
33608W        W 1826   4.358  31.592   1.322
33609W        W 1827  25.945  26.686   0.976
33610W        W 1828  42.296  28.725   4.088
33611W        W 1829   3.873   9.821   3.228
33612W        W 1830  23.873  34.842   1.875
33613W        W 1831  26.100  36.173   4.827
33614W        W 1832   2.305  17.521  13.444
33615W        W 1833   9.901  33.152   3.705
33616W        W 1834  17.975  20.026  12.028
33617W        W 1835  24.610   2.603  12.384
33618W        W 1836   5.808  43.896   9.919
33619W        W 1837   0.234  38.392  12.474
33620W        W 1838  24.686  24.776  14.322
33621W        W 1839  20.511  20.087   1.395
33622W        W 1840  24.303  24.495   3.751
33623W        W 1841  21.190  34.944   4.686
33624W        W 1842   5.237   2.680  12.465
33625W        W 1843  35.344  16.332   3.588
33626W        W 1844  15.343  34.048  11.980
33627W        W 1845   1.201  42.962   0.541
33628W        W 1846  12.323  19.849   1.195
33629W        W 1847  29.723   5.756   0.955
33630W        W 1848  30.661  14.127  11.924
33631W        W 1849  36.763  28.055  14.805
33632W        W 1850  39.817  10.815   2.254
33633W        W 1851   8.923  30.670  11.912
33634W        W 1852  30.466   4.883  13.400
33635W        W 1853  27.631  25.730  12.678
33636W        W 1854  19.703   7.712   2.758
33637W        W 1855  25.261   3.956   3.955
33638W        W 1856  17.128  19.239   0.318
33639W        W 1857  44.348   7.461  13.414
33640W        W 1858  20.521  22.124   1.685
33641W        W 1859   2.756  18.859   1.626
33642W        W 1860   4.019  39.535   3.485
33643W        W 1861  43.930  21.211  10.038
33644W        W 1862   6.126  31.038  13.969
33645W        W 1863   9.818  44.757   2.447
33646W        W 1864   6.323   5.424  14.430
33647W        W 1865  14.560   8.285  11.545
33648W        W 1866  42.179  12.751  13.578
33649W        W 1867  14.563  23.512   3.454
33650W        W 1868   7.792   8.821   2.776
33651W        W 1869  34.949  18.744   2.024
33652W        W 1870  10.333  25.618  12.362
33653W        W 1871  44.939   3.814  13.341
33654W        W 1872  13.590  41.906  13.573
33655W        W 1873  28.884  36.434   4.404
33656W        W 1874  18.735   1.997  11.652
33657W        W 1875  30.093  26.575   3.655
33658W        W 1876  13.845  31.668  10.496
33659W        W 1877  10.633  39.998  13.021
33660W        W 1878   3.832  24.351   1.901
33661W        W 1879  11.920   0.852   3.617
33662W        W 1880   6.635  32.528  11.068
33663W        W 1881  12.815  22.078   0.017
33664W        W 1882   4.173  11.091   1.946
33665W        W 1883  33.277   6.775  13.400
33666W        W 1884  30.140  36.045  11.165
33667W        W 1885  31.996  33.502   2.736
33668W        W 1886   8.189  32.969   0.401
33669W        W 1887  38.120  43.625   2.211
33670W        W 1888  33.464  30.754   4.005
33671W        W 1889   5.882   8.850   1.857
33672W        W 1890   0.183  12.834  14.314
33673W        W 1891  31.886   1.459   1.544
33674W        W 1892  33.291  35.087  14.561
33675W        W 1893  27.473  38.481  11.738
33676W        W 1894  14.477   2.642   5.096
33677W        W 1895  44.181   0.677  13.302
33678W        W 1896  22.497  19.171   4.567
33679W        W 1897  44.281  13.178   0.860
33680W        W 1898  42.539  40.953   1.923
33681W        W 1899  40.450   3.909  12.114
33682W        W 1900  30.967  30.051  13.511
33683W        W 1901  15.766  17.058   3.400
33684W        W 1902  29.117  19.687   2.897
33685W        W 1903  37.066   1.767   4.130
33686W        W 1904  35.517  36.665   1.453
33687W        W 1905  10.755  24.583   2.069
33688W        W 1906  30.270  43.500   4.467
33689W        W 1907  44.276  12.910  14.528
33690W        W 1908  33.961  24.828  13.802
33691W        W 1909  34.895  39.072  13.269
33692W        W 1910   8.681  20.372  13.582
33693W        W 1911  15.768   8.909  13.459
33694W        W 1912  23.261  32.593   4.108
33695W        W 1913  10.393   8.635  10.770
33696W        W 1914  15.561   8.724   3.654
33697W        W 1915   0.812   2.063  13.503
33698W        W 1916  25.753   6.035   0.383
33699W        W 1917  14.272  37.858   1.295
33700W        W 1918   8.342  24.918  14.523
33701W        W 1919  40.093   2.162  12.117
33702W        W 1920  23.401  12.713  14.502
33703W        W 1921  31.054   4.287  14.338
33704W        W 1922  39.756  18.077  13.912
33705W        W 1923   6.771  39.990  11.476
33706W        W 1924   3.372  40.913   3.322
33707W        W 1925  37.651   3.761  12.944
33708W        W 1926  33.248  27.610   2.729
33709W        W 1927  41.925  17.531  11.153
33710W        W 1928  18.514  37.895  11.673
33711W        W 1929  15.424   5.830  10.197
33712W        W 1930  34.980  32.921   0.816
33713W        W 1931  29.449  21.684  14.700
33714W        W 1932   0.190  25.004   1.416
33715W        W 1933   2.283  18.506  11.652
33716W        W 1934  16.541  23.181  11.663
33717W        W 1935   8.672   2.067   2.449
33718W        W 1936   7.143   9.387  14.990
33719W        W 1937  30.730  28.805   4.884
33720W        W 1938  36.959   3.916  11.621
33721W        W 1939  33.050  16.802   3.826
33722W        W 1940   0.973  35.053  11.551
33723W        W 1941  10.642   4.825   0.366
33724W        W 1942  16.910  36.175  10.741
33725W        W 1943  18.611   1.679   1.287
33726W        W 1944  23.974  28.564   3.814
33727W        W 1945   6.446  39.782   0.877
33728W        W 1946  24.038   7.807   0.286
33729W        W 1947  20.506   3.030  14.821
33730W        W 1948   8.972  39.820   0.728
33731W        W 1949  34.467   8.936  11.618
33732W        W 1950  44.844  14.063   3.765
33733W        W 1951   8.409  21.955  14.297
33734W        W 1952  11.679  26.997  10.933
33735W        W 1953  15.274  34.144   2.616
33736W        W 1954  18.559  35.553  14.915
33737W        W 1955  22.778  35.958   0.374
33738W        W 1956  23.069  40.666  12.643
33739W        W 1957   7.318  29.062  10.451
33740W        W 1958  11.613  40.839   4.236
33741W        W 1959  39.544  42.927   5.083
33742W        W 1960  13.225  27.029  14.737
33743W        W 1961  25.827  11.981  10.350
33744W        W 1962  41.890  21.471   0.793
33745W        W 1963  16.870  11.366   2.449
33746W        W 1964  27.554  22.464  11.744
33747W        W 1965  43.421  44.352   2.317
33748W        W 1966  36.140  40.484   0.704
33749W        W 1967   9.191  36.025   1.805
33750W        W 1968  37.896  41.732  13.410
33751W        W 1969  29.545  35.714  12.071
33752W        W 1970  11.702  44.210  10.113
33753W        W 1971  24.150  39.657  14.405
33754W        W 1972  16.093  15.149   1.390
33755W        W 1973  32.421  36.957   4.685
33756W        W 1974   8.760   8.801  13.026
33757W        W 1975  23.578  13.597  11.646
33758W        W 1976  25.469  18.313   0.286
33759W        W 1977   2.875  17.350   1.693
33760W        W 1978  20.266  23.216   0.944
33761W        W 1979  21.705  39.909   3.272
33762W        W 1980  35.077  40.413   5.150
33763W        W 1981  30.164  33.591  14.307
33764W        W 1982   9.354  34.793  10.846
33765W        W 1983   6.257  23.817  10.088
33766W        W 1984  25.461  35.941  11.457
33767W        W 1985   7.999  22.729  11.922
33768W        W 1986   4.992  18.216   5.399
33769W        W 1987  36.626  27.150  10.969
33770W        W 1988  35.566  40.941   2.678
33771W        W 1989   7.805  42.400   0.315
33772W        W 1990  16.155   4.908  11.861
33773W        W 1991   0.289   8.229   3.150
33774W        W 1992  26.071  13.596  11.534
33775W        W 1993  38.926  12.353   0.892
33776W        W 1994  22.130  14.716  14.936
33777W        W 1995  25.029  31.559  12.074
33778W        W 1996  25.187   6.342  12.696
33779W        W 1997  32.655  25.033  12.849
33780W        W 1998  16.595  23.257  13.402
33781W        W 1999  34.606   8.299  11.710
33782W        W 2000   9.619  14.383   3.671
33783W        W 2001  43.032  28.881   1.264
33784W        W 2002   8.630  31.430  12.635
33785W        W 2003  31.902  28.766   3.261
33786W        W 2004  11.300  11.485  14.841
33787W        W 2005  10.578  11.257  13.398
33788W        W 2006  20.330  39.436  14.408
33789W        W 2007  11.248  13.661   3.150
33790W        W 2008  27.447   1.933   3.259
33791W        W 2009  17.271  29.142  12.374
33792W        W 2010  26.549  30.912   1.075
33793W        W 2011  17.013  16.803   3.929
33794W        W 2012   0.024  21.133  10.621
33795W        W 2013   8.671  40.262  13.943
33796W        W 2014  44.501  26.110  12.192
33797W        W 2015  13.144  33.451   2.370
33798W        W 2016  32.432  15.085   0.668
33799W        W 2017  19.740  36.101  11.518
33800W        W 2018  33.006  41.690   0.684
33801W        W 2019  10.837  44.481   4.742
33802W        W 2020  17.462   3.578   4.866
33803W        W 2021  16.469   5.817  14.299
33804W        W 2022   1.009  13.280   2.383
33805W        W 2023  39.344  27.189  14.767
33806W        W 2024  37.591  26.295  10.371
33807W        W 2025   2.391   4.835  10.718
33808W        W 2026  18.731   9.105   1.976
33809W        W 2027  34.365  33.554  14.383
33810W        W 2028  17.706  30.917  11.986
33811W        W 2029   8.639  11.905   2.954
33812W        W 2030   5.182  17.694   2.379
33813W        W 2031  14.894   2.844   2.741
33814W        W 2032   0.458   5.195   0.731
33815W        W 2033  41.823   2.067  14.154
33816W        W 2034   6.859  37.263  13.030
33817W        W 2035  40.457   5.770  14.737
33818W        W 2036  39.984   5.859  13.869
33819W        W 2037  43.582  26.064   1.355
33820W        W 2038  23.591  12.686  14.004
33821W        W 2039   2.999  26.663  11.563
33822W        W 2040   3.353  27.181   1.409
33823W        W 2041  30.499  25.717   4.994
33824W        W 2042   7.401  19.512   4.117
33825W        W 2043  42.128  44.840   3.748
33826W        W 2044  21.110  31.186  11.156
33827W        W 2045  10.069  20.388   1.274
33828W        W 2046  33.967   7.459  12.987
33829W        W 2047  26.932  18.107  14.424
33830W        W 2048  33.478  12.875  12.701
33831W        W 2049   9.727   6.375  14.623
33832W        W 2050  19.948   6.948  13.277
33833W        W 2051  19.548  21.876   2.002
33834W        W 2052   6.233   5.336  12.004
33835W        W 2053  38.123  18.479  12.442
33836W        W 2054  29.517  36.967  13.486
33837W        W 2055   4.001  41.640   4.974
33838W        W 2056   2.286  40.878  11.646
33839W        W 2057   2.477  33.116  11.969
33840W        W 2058   8.509  17.696  10.659
33841W        W 2059  29.640  42.043  11.681
33842W        W 2060  27.221  32.667  12.534
33843W        W 2061  23.312  42.265   0.671
33844W        W 2062   2.384  17.137   0.886
33845W        W 2063  41.849  15.096  13.840
33846W        W 2064   0.028  14.488  13.945
33847W        W 2065  26.175  35.128   2.803
33848W        W 2066  33.745   4.676  12.067
33849W        W 2067  37.399  44.180   1.051
33850W        W 2068  38.535  21.341   3.975
33851W        W 2069  19.122  19.225  11.220
33852W        W 2070  34.353  17.158   1.892
33853W        W 2071  19.119  18.847   2.426
33854W        W 2072  22.938  12.576  14.661
33855W        W 2073  34.685  26.629  14.333
33856W        W 2074  19.296   5.773  11.541
33857W        W 2075  11.398   0.279  10.101
33858W        W 2076   8.620  22.196  14.944
33859W        W 2077   8.108  39.468   0.443
33860W        W 2078  41.115  34.516   1.796
33861W        W 2079  33.988  30.766   4.946
33862W        W 2080  11.331   7.829  13.140
33863W        W 2081  42.945  44.402   3.619
33864W        W 2082  33.496  24.223   0.693
33865W        W 2083  44.387  12.831  12.013
33866W        W 2084  28.472  15.618   1.834
33867W        W 2085   7.219  29.619   0.809
33868W        W 2086  30.958  41.353  13.570
33869W        W 2087  28.498  41.939  14.497
33870W        W 2088  33.543  12.310  10.431
33871W        W 2089  35.839  23.566   4.257
33872W        W 2090  24.190   8.448  11.223
33873W        W 2091  11.993   4.767  13.752
33874W        W 2092  18.120   1.567   0.000
33875W        W 2093   6.841  43.780  12.489
33876W        W 2094  31.887  33.271   3.786
33877W        W 2095  12.743  27.653  12.081
33878W        W 2096  44.997  15.651  13.417
33879W        W 2097  41.262  19.297  11.703
33880W        W 2098  21.782  23.010   2.312
33881W        W 2099  33.722  37.129   4.123
33882W        W 2100  23.149  29.316  10.730
33883W        W 2101   9.708  11.022   3.390
33884W        W 2102   8.334  36.827  13.867
33885W        W 2103  23.079  16.249  10.766
33886W        W 2104  31.530  37.883   4.933
33887W        W 2105  18.049  24.939   0.775
33888W        W 2106  10.782  10.442  12.669
33889W        W 2107  33.907  17.144   2.804
33890W        W 2108  10.689  20.610   1.003
33891W        W 2109  42.673  12.310  11.844
33892W        W 2110  19.463  12.869   4.653
33893W        W 2111  22.705   1.294  14.864
33894W        W 2112  34.186  42.764  11.928
33895W        W 2113  41.434  37.971  12.876
33896W        W 2114   3.213  18.207  13.928
33897W        W 2115  32.568  34.331  10.796
33898W        W 2116  15.015  39.858   2.198
33899W        W 2117  31.327  27.626   1.247
33900W        W 2118  13.273  40.625  11.966
33901W        W 2119  29.417   3.195   3.250
33902W        W 2120  12.677  23.769   4.607
33903W        W 2121  34.760   2.074   4.591
33904W        W 2122  22.151   9.456  13.187
33905W        W 2123  44.318  25.153   1.301
33906W        W 2124  15.017  27.574  11.944
33907W        W 2125  41.905  22.515   3.372
33908W        W 2126   5.270  42.636   0.253
33909W        W 2127   1.355  17.893  13.306
33910W        W 2128  18.624  27.219   4.039
33911W        W 2129  20.537  31.027   0.778
33912W        W 2130  31.567  29.394   2.359
33913W        W 2131  28.333  40.033  11.663
33914W        W 2132  14.714  39.152   3.864
33915W        W 2133  39.481  33.127  10.732
33916W        W 2134  11.608  44.104  13.440
33917W        W 2135  35.580  11.940  13.305
33918W        W 2136  37.355  23.118   0.719
33919W        W 2137  26.051  22.990  13.520
33920W        W 2138  33.544   4.392  14.005
33921W        W 2139  19.304   3.322   3.632
33922W        W 2140  41.343  24.622  14.973
33923W        W 2141  29.151  15.207   4.143
33924W        W 2142  23.051   8.188   2.215
33925W        W 2143  39.166  29.354  11.533
33926W        W 2144  20.669   7.511  11.087
33927W        W 2145  16.726  25.026  11.128
33928W        W 2146  37.042   3.597   5.358
33929W        W 2147  36.314  19.709   3.713
33930W        W 2148  37.314  44.952   1.462
33931W        W 2149   7.314   8.294  12.690
33932W        W 2150  15.080  38.487   4.323
33933W        W 2151  13.724  12.408   0.327
33934W        W 2152  34.603  41.754  12.453
33935W        W 2153  20.798  15.057   4.316
33936W        W 2154  16.038  12.179   2.981
33937W        W 2155  19.992  22.248  11.915
33938W        W 2156  34.711  32.869   4.301
33939W        W 2157  42.100   0.505   1.867
33940W        W 2158  10.864  15.133   1.328
33941W        W 2159  43.854  24.441  14.117
33942W        W 2160  19.273  35.857   2.802
33943W        W 2161  28.411  31.893   1.840
33944W        W 2162  38.562  29.492   0.697
33945W        W 2163  34.445  33.050  11.652
33946W        W 2164  30.303  21.222  10.585
33947W        W 2165  42.209  21.799   4.129
33948W        W 2166  19.127  37.701   4.802
33949W        W 2167   1.798  21.488   4.094
33950W        W 2168  22.830  28.904  10.772
33951W        W 2169  17.365   3.300   0.398
33952W        W 2170  19.809   3.240   3.626
33953W        W 2171  32.668  31.980  11.676
33954W        W 2172  20.249   3.937   4.354
33955W        W 2173  28.344   2.294  13.316
33956W        W 2174  24.906  14.408  12.677
33957W        W 2175  10.831   8.793   0.863
33958W        W 2176  36.396   2.512   0.430
33959W        W 2177  15.865  31.935   2.051
33960W        W 2178  40.110  16.013  11.687
33961W        W 2179  40.267  41.838   4.080
33962W        W 2180  15.523   9.986  11.249
33963W        W 2181  33.115  29.717  11.910
33964W        W 2182  34.534  28.618  14.095
33965W        W 2183   0.937  15.008  14.771
33966W        W 2184  17.572  21.032  14.996
33967W        W 2185  13.666  23.268   3.316
33968W        W 2186  44.844   3.052  11.507
33969W        W 2187   6.862  30.558   2.128
33970W        W 2188   1.347   8.658   1.765
33971W        W 2189  44.693  33.084  14.939
33972W        W 2190   6.804  14.525   1.198
33973W        W 2191  41.351  18.176  12.512
33974W        W 2192  34.110  16.064   3.250
33975W        W 2193  29.875  33.948   2.223
33976W        W 2194  27.078  37.404   4.622
33977W        W 2195  36.121  40.970   2.693
33978W        W 2196  42.327  40.598  11.052
33979W        W 2197  30.966  39.956  10.446
33980W        W 2198  32.077  34.476  10.729
33981W        W 2199  10.720  11.711   0.280
33982W        W 2200  25.110  22.576   2.432
33983W        W 2201   2.524   1.548  12.896
33984W        W 2202  17.530  39.511  13.379
33985W        W 2203  36.111   4.952   1.208
33986W        W 2204  30.942  28.914   3.539
33987W        W 2205   0.422  22.022   3.888
33988W        W 2206  29.466  43.768   0.561
33989W        W 2207   4.240   8.993  12.157
33990W        W 2208   9.161   3.534   1.138
33991W        W 2209   3.995   7.880  13.457
33992W        W 2210  42.742  23.472   2.547
33993W        W 2211   6.077  38.602   1.315
33994W        W 2212  16.963   7.451  14.823
33995W        W 2213  43.150  21.892  13.868
33996W        W 2214  23.098  36.136  14.783
33997W        W 2215  31.840  40.962   4.833
33998W        W 2216  13.163   9.920   0.813
33999W        W 2217  11.749   2.803  12.419
34000W        W 2218  10.493  40.310  11.628
34001W        W 2219  16.521  34.104   0.313
34002W        W 2220  34.160   4.007   0.723
34003W        W 2221  42.919  16.057   1.663
34004W        W 2222  43.174  37.003   0.237
34005W        W 2223  38.920   5.828  10.687
34006W        W 2224  37.022  10.887   3.460
34007W        W 2225  34.250  26.235   3.234
34008W        W 2226  31.864  28.188  13.973
34009W        W 2227  32.401  25.438   2.940
34010W        W 2228   5.907   5.680   2.804
34011W        W 2229  11.797  16.813   3.141
34012W        W 2230   5.714   2.479  11.431
34013W        W 2231  22.526  21.787   1.340
34014W        W 2232  41.845   6.909  12.871
34015W        W 2233  41.350   2.982   0.385
34016W        W 2234  24.245  12.271   4.322
34017W        W 2235   5.929  14.835  11.959
34018W        W 2236   0.317  42.896  12.358
34019W        W 2237  21.311  35.396   2.192
34020W        W 2238   4.028  31.992  11.924
34021W        W 2239  41.536  12.531  13.084
34022W        W 2240  23.263   4.903   1.831
34023W        W 2241  23.550   8.913  13.659
34024W        W 2242  13.299  32.012  11.136
34025W        W 2243  19.694  21.131   4.751
34026W        W 2244  27.200   4.889  12.060
34027W        W 2245  40.981  19.840  14.313
34028W        W 2246  22.138   9.421   2.298
34029W        W 2247   9.919  42.935   0.474
34030W        W 2248  26.995  32.195  12.550
34031W        W 2249  10.652   6.261   0.555
34032W        W 2250  15.176  19.246  13.983
34033W        W 2251  31.199  23.543  14.003
34034W        W 2252   8.869  42.454  14.366
34035W        W 2253   8.887  27.676  13.486
34036W        W 2254  32.858  18.234  13.441
34037W        W 2255  31.124  16.119   0.693
34038W        W 2256  36.744  39.945  10.922
34039W        W 2257  14.368  40.654  14.910
34040W        W 2258   7.495  24.627  14.895
34041W        W 2259  12.234   5.013   3.232
34042W        W 2260  29.622  44.131   3.383
34043W        W 2261   7.576  17.183  12.619
34044W        W 2262  19.135   1.359   1.950
34045W        W 2263  28.070  41.773  10.299
34046W        W 2264  22.778  20.549  11.958
34047W        W 2265  44.434  42.448   4.091
34048W        W 2266   3.952  21.315  13.897
34049W        W 2267  38.392  23.271  11.389
34050W        W 2268  43.744   5.678   2.735
34051W        W 2269   3.865   7.701   4.864
34052W        W 2270  26.963  12.939   3.779
34053W        W 2271  34.622  20.130   1.349
34054W        W 2272   0.337  32.553  12.957
34055W        W 2273  14.237  26.626   1.833
34056W        W 2274  10.764  35.839   3.170
34057W        W 2275  17.583  29.018  11.214
34058W        W 2276  15.904  22.037  13.400
34059W        W 2277  43.557  17.586  10.690
34060W        W 2278  44.479  34.406  11.125
34061W        W 2279  18.290  44.973   1.544
34062W        W 2280  38.945   2.176   4.036
34063W        W 2281  28.569  35.949   4.487
34064W        W 2282  28.733  15.354   3.216
34065W        W 2283  40.606   2.858  12.951
34066W        W 2284   3.922  13.679  12.912
34067W        W 2285  43.841  16.776  12.917
34068W        W 2286  21.239   5.731  14.984
34069W        W 2287  41.052  25.025   1.676
34070W        W 2288  40.526   5.695   3.581
34071W        W 2289  34.477  22.038  12.112
34072W        W 2290  16.253   1.458   4.839
34073W        W 2291  36.611  24.021   1.978
34074W        W 2292   8.133  20.186  14.689
34075W        W 2293  22.811   9.713   2.778
34076W        W 2294  26.107  15.028   5.149
34077W        W 2295  36.916  39.041   0.754
34078W        W 2296  26.019   3.924  11.013
34079W        W 2297  17.718  14.781  12.644
34080W        W 2298  22.090  31.816   4.271
34081W        W 2299  21.020  25.151   4.880
34082W        W 2300  36.450  34.417  10.740
34083W        W 2301   1.411  44.156  10.935
34084W        W 2302   8.976   6.746   4.505
34085W        W 2303  42.870  16.580   4.917
34086W        W 2304  18.234  38.912   4.498
34087W        W 2305  21.954  14.717   2.867
34088W        W 2306  19.272  34.318  11.228
34089W        W 2307   4.381   1.770   2.769
34090W        W 2308  22.177  35.982  14.815
34091W        W 2309  32.567  40.776   4.178
34092W        W 2310  35.644  16.917   4.982
34093W        W 2311  18.690  36.667  14.254
34094W        W 2312  33.376   6.782   3.390
34095W        W 2313   6.831  22.164  12.628
34096W        W 2314  34.643  25.713   0.417
34097W        W 2315   4.702  33.107  11.904
34098W        W 2316  36.587  35.481   3.147
34099W        W 2317   5.318   9.242  14.574
34100W        W 2318  43.995  26.486   4.126
34101W        W 2319  43.352  24.740   4.129
34102W        W 2320   4.459   1.260   3.546
34103W        W 2321  15.705  24.758   1.901
34104W        W 2322  37.392  13.032  10.249
34105W        W 2323  12.637   3.789  13.819
34106W        W 2324  39.296  31.477   2.267
34107W        W 2325  29.077  37.741   3.280
34108W        W 2326  41.211   3.506   0.709
34109W        W 2327  26.920   6.181  10.216
34110W        W 2328  33.881  41.525   0.501
34111W        W 2329  43.984   5.558  12.669
34112W        W 2330  30.984  21.238  13.022
34113W        W 2331  10.084  17.643  14.856
34114W        W 2332  24.583  12.576   0.968
34115W        W 2333  10.468  28.123  10.546
34116W        W 2334  28.487   1.510   0.147
34117W        W 2335   5.800   3.164   0.263
34118W        W 2336  39.810  38.548  12.986
34119W        W 2337  14.731  44.530   4.509
34120W        W 2338  25.500  33.470   3.211
34121W        W 2339   9.948   6.824  12.026
34122W        W 2340  20.465  36.075   1.219
34123W        W 2341  16.996  34.293   4.169
34124W        W 2342   4.318  39.114  13.496
34125W        W 2343   4.860  27.614  11.006
34126W        W 2344  10.434  44.349  14.385
34127W        W 2345   7.239  23.282  11.517
34128W        W 2346  14.996  11.780   2.210
34129W        W 2347  22.549  39.663  11.267
34130W        W 2348  21.569  21.121  14.839
34131W        W 2349  39.546  10.684   1.208
34132W        W 2350  10.953  39.229   0.793
34133W        W 2351   8.379  26.765  13.687
34134W        W 2352  44.922  32.087   4.181
34135W        W 2353  41.796   9.251   3.219
34136W        W 2354  37.035  30.919  12.898
34137W        W 2355   7.900   2.956   1.657
34138W        W 2356  21.326   2.157  14.348
34139W        W 2357  18.629   7.392   3.636
34140W        W 2358  17.749  40.349  10.765
34141W        W 2359  30.014   1.865  11.952
34142W        W 2360   4.027  10.221  11.190
34143W        W 2361  16.623   8.969   3.995
34144W        W 2362  10.208  23.490  14.528
34145W        W 2363  39.266   6.353   2.094
34146W        W 2364   0.587  18.831  10.954
34147W        W 2365  28.516  35.296  12.884
34148W        W 2366  36.996   4.013  10.823
34149W        W 2367  44.883  28.178   0.025
34150W        W 2368  15.240  18.873  11.137
34151W        W 2369   0.823   2.218  10.792
34152W        W 2370  43.273  32.696  14.737
34153W        W 2371  44.813  28.976   1.737
34154W        W 2372  14.807  15.657   1.910
34155W        W 2373  36.994   6.500  14.941
34156W        W 2374   8.693  30.613  12.804
34157W        W 2375  32.040  44.957   0.174
34158W        W 2376   8.689  17.058   2.736
34159W        W 2377  39.556  15.672   4.980
34160W        W 2378  11.561  24.402   3.675
34161W        W 2379   1.417  14.680  13.937
34162W        W 2380  11.501  10.535  13.884
34163W        W 2381  42.755  30.445   3.265
34164W        W 2382  16.589  13.720   3.203
34165W        W 2383   3.330  38.228   1.209
34166W        W 2384  30.459  18.941   0.185
34167W        W 2385  17.462   8.455  12.333
34168W        W 2386  25.237  29.696   4.079
34169W        W 2387  38.480  16.094  14.557
34170W        W 2388   2.874  40.970   2.788
34171W        W 2389   8.206  13.412  13.725
34172W        W 2390  43.363  22.431  10.431
34173W        W 2391   9.177  10.649   0.474
34174W        W 2392  13.163   3.381   0.833
34175W        W 2393  21.893   5.154   4.182
34176W        W 2394  40.969  19.817   3.251
34177W        W 2395   8.642  17.243  14.914
34178W        W 2396  10.688  41.931   4.037
34179W        W 2397  25.474  27.689  14.347
34180W        W 2398  17.152  10.215  12.358
34181W        W 2399   5.464  18.667   2.043
34182W        W 2400  28.660  36.623  14.545
34183W        W 2401  13.770  29.640   0.042
34184W        W 2402  34.589   9.143  10.600
34185W        W 2403  41.869  10.459   0.184
34186W        W 2404  25.434  19.711   0.722
34187W        W 2405  33.611  40.054   2.261
34188W        W 2406  20.902  20.095   3.826
34189W        W 2407  16.383  11.005   2.447
34190W        W 2408  34.362  10.873  11.922
34191W        W 2409  38.996  38.451   4.971
34192W        W 2410  33.847   9.118   3.740
34193W        W 2411  24.958   1.325   4.257
34194W        W 2412  28.210  19.709   1.021
34195W        W 2413  18.345  23.271  12.798
34196W        W 2414  29.073  11.584   3.217
34197W        W 2415  14.146  40.269   2.364
34198W        W 2416  43.390  18.803  13.552
34199W        W 2417  30.326  16.696   2.669
34200W        W 2418  35.773  41.713   0.074
34201W        W 2419  34.940  20.027  11.479
34202W        W 2420  10.356  39.851  10.722
34203W        W 2421  15.630  12.712  13.651
34204W        W 2422  29.638  29.419  14.439
34205W        W 2423  20.254  14.262  12.312
34206W        W 2424  37.617  41.461  14.828
34207W        W 2425   4.549  37.833   0.122
34208W        W 2426  36.149  12.178  14.015
34209W        W 2427   7.267  23.277  14.501
34210W        W 2428  20.111  29.577   3.234
34211W        W 2429  25.449  25.575   1.784
34212W        W 2430  26.082   1.704   4.957
34213W        W 2431  42.916  16.811   1.646
34214W        W 2432   4.073  38.223  13.293
34215W        W 2433  18.316  40.743   1.171
34216W        W 2434  12.522  34.331   1.022
34217W        W 2435  33.646   9.176  13.898
34218W        W 2436  13.353  30.936   2.708
34219W        W 2437  38.294  18.497  14.846
34220W        W 2438  35.821   7.977  12.579
34221W        W 2439  19.397  10.644  13.963
34222W        W 2440  29.418   5.818  13.060
34223W        W 2441  39.806  14.749  10.652
34224W        W 2442   3.104  35.348   2.407
34225W        W 2443  23.002   5.522  14.269
34226W        W 2444   2.635  10.434  11.219
34227W        W 2445  20.993  19.136  14.748
34228W        W 2446   6.163   4.656   0.779
34229W        W 2447   0.250   6.819   0.819
34230W        W 2448  21.117  16.173  13.258
34231W        W 2449   1.797  12.416  14.021
34232W        W 2450  29.330  33.583   4.970
34233W        W 2451  31.893  20.653  12.174
34234W        W 2452  16.843  43.921  12.058
34235W        W 2453  29.529  18.160  10.163
34236W        W 2454  16.814  29.989   4.182
34237W        W 2455  18.969   7.231  12.407
34238W        W 2456   7.411  37.262   1.319
34239W        W 2457   5.605  12.163   0.885
34240W        W 2458  13.850   8.450   4.359
34241W        W 2459  13.317   4.445  10.544
34242W        W 2460  20.043  29.556   2.400
34243W        W 2461   1.509  24.119  13.387
34244W        W 2462   9.569  19.809  13.550
34245W        W 2463   5.788  33.850  13.343
34246W        W 2464  18.763  19.292   4.127
34247W        W 2465  14.102  40.267   0.190
34248W        W 2466  34.510  23.492   3.943
34249W        W 2467  38.091  32.636   2.349
34250W        W 2468  27.373   1.692  12.674
34251W        W 2469  39.754   7.696  13.064
34252W        W 2470   1.509  37.794  12.638
34253W        W 2471  44.999  42.870  11.087
34254W        W 2472   0.971  20.760  10.695
34255W        W 2473  16.037  26.582  13.568
34256W        W 2474  40.707  39.771  10.284
34257W        W 2475  38.534  44.400  14.020
34258W        W 2476  10.444  39.988  14.476
34259W        W 2477  15.687   7.087  11.829
34260W        W 2478  25.664  38.071  13.968
34261W        W 2479  34.946   6.334  10.536
34262W        W 2480  23.234  32.339   9.560
34263W        W 2481   6.955   0.344   0.980
34264W        W 2482  23.940  18.993  11.263
34265W        W 2483  12.921  19.367   3.717
34266W        W 2484  28.238  27.230   2.060
34267W        W 2485  24.523  31.857  13.054
34268W        W 2486  22.054  42.446   3.101
34269W        W 2487  43.283  12.603  14.278
34270W        W 2488   8.093   8.329   2.839
34271W        W 2489  12.630  15.685   3.921
34272W        W 2490  32.368   9.079   3.387
34273W        W 2491  17.102  29.181   4.590
34274W        W 2492  20.524   4.831  10.746
34275W        W 2493   0.900  18.318   2.813
34276W        W 2494  20.051   3.678   3.442
34277W        W 2495  42.753  25.140   2.856
34278W        W 2496  15.839  11.886   0.956
34279W        W 2497   5.181   3.611   9.971
34280W        W 2498   4.865  26.732  12.579
34281W        W 2499  38.592  42.922   3.501
34282W        W 2500   1.018   4.876  14.410
34283W        W 2501  29.044  10.328   4.647
34284W        W 2502  24.545  23.555  13.967
34285W        W 2503  35.030  26.007   3.670
34286W        W 2504  31.940  42.833  14.948
34287W        W 2505  39.117   4.897   4.644
34288W        W 2506  25.554  20.413   3.397
34289W        W 2507  10.685  32.101  11.978
34290W        W 2508  28.401  11.244   0.466
34291W        W 2509   1.013  27.547  13.293
34292W        W 2510  12.741  29.199  12.889
34293W        W 2511   1.132  34.861  13.047
34294W        W 2512   2.192  37.576   4.575
34295W        W 2513   3.689  13.031  11.464
34296W        W 2514   9.705   7.774  14.912
34297W        W 2515   3.361  24.422  14.751
34298W        W 2516   0.224  35.665   2.802
34299W        W 2517  33.777  15.672   4.126
34300W        W 2518  14.458  15.900  13.019
34301W        W 2519   0.159  41.797  10.516
34302W        W 2520  15.352   8.223  14.508
34303W        W 2521  25.471   5.982  13.054
34304W        W 2522  37.553  10.023   1.979
34305W        W 2523  25.979  22.298  14.337
34306W        W 2524  27.464  38.893   1.750
34307W        W 2525  39.324   1.737  11.707
34308W        W 2526  31.008  24.209   1.191
34309W        W 2527  39.007  14.723  13.951
34310W        W 2528  10.740   0.390   0.185
34311W        W 2529  25.222  11.271  12.977
34312W        W 2530   3.698  27.881   3.186
34313W        W 2531  23.535   6.201   1.185
34314W        W 2532  36.961   8.695  10.703
34315W        W 2533  33.520   0.399  14.417
34316W        W 2534  36.022  25.039  12.442
34317W        W 2535  27.791  41.052   3.803
34318W        W 2536  37.342  14.137   4.574
34319W        W 2537  40.964  32.950   2.275
34320W        W 2538   9.646   1.735   3.267
34321W        W 2539  16.864  44.476  14.496
34322W        W 2540  12.562  16.223  12.578
34323W        W 2541  37.263  18.638   4.791
34324W        W 2542  22.130  19.487   4.761
34325W        W 2543  35.533   8.462   4.768
34326W        W 2544  36.804  10.653  12.968
34327W        W 2545  17.731   2.488   2.829
34328W        W 2546  40.827  40.496  13.815
34329W        W 2547  14.600  13.836  14.796
34330W        W 2548   2.870  15.708  10.422
34331W        W 2549  29.582  31.019   2.882
34332W        W 2550  35.431  38.603  11.056
34333W        W 2551  30.475   4.936   4.095
34334W        W 2552  40.792   9.027  12.629
34335W        W 2553   4.403   8.398   2.728
34336W        W 2554  26.869  43.025   3.249
34337W        W 2555   7.240  19.094   1.813
34338W        W 2556  41.489  28.939   1.719
34339W        W 2557   5.508  17.263  13.061
34340W        W 2558  42.859  12.349   1.183
34341W        W 2559  43.832  27.610   1.958
34342W        W 2560  14.551  30.946   0.987
34343W        W 2561  39.946  38.825  11.673
34344W        W 2562  28.227  29.196   1.266
34345W        W 2563   9.584  29.630  14.561
34346W        W 2564  30.089  21.072   1.608
34347W        W 2565   7.181   3.656  14.954
34348W        W 2566   3.763  38.504   2.168
34349W        W 2567  18.128   0.526  14.895
34350W        W 2568   5.207  14.652  11.481
34351W        W 2569  44.167  20.827   3.196
34352W        W 2570  31.142   5.948   5.361
34353W        W 2571  33.065  20.329  12.657
34354W        W 2572   3.269   6.465   1.790
34355W        W 2573  14.469  42.518   5.156
34356W        W 2574  40.256   3.659  14.391
34357W        W 2575  30.464   6.764   3.841
34358W        W 2576   6.619  34.644  13.016
34359W        W 2577  14.212  39.961  10.783
34360W        W 2578  41.785   2.369  10.800
34361W        W 2579  36.572  44.163   0.280
34362W        W 2580  26.735   3.943  11.997
34363W        W 2581   2.662   9.052   4.069
34364W        W 2582   8.711  34.511   1.806
34365W        W 2583  22.728   0.830  14.426
34366W        W 2584   5.164  30.411  12.449
34367W        W 2585  42.283  19.210   2.344
34368W        W 2586  42.028   5.939  12.981
34369W        W 2587   4.666  35.404  10.662
34370W        W 2588  23.037  22.706  12.034
34371W        W 2589   3.951  15.277   4.150
34372W        W 2590  33.973  17.103   0.025
34373W        W 2591  13.004  16.280  12.311
34374W        W 2592  22.942  44.505  14.461
34375W        W 2593   1.399  27.558   2.766
34376W        W 2594  21.790  28.396  13.383
34377W        W 2595  11.278  30.953   3.084
34378W        W 2596  36.016  37.009   2.797
34379W        W 2597  35.137  16.831  12.547
34380W        W 2598   5.909   0.939   3.212
34381W        W 2599  40.375  43.992  13.977
34382W        W 2600   8.392  32.061   1.266
34383W        W 2601  34.608  37.959   3.821
34384W        W 2602   5.237  30.591   3.349
34385W        W 2603  18.421  14.256  12.092
34386W        W 2604  25.397  11.175  12.116
34387W        W 2605   1.017  32.291  10.269
34388W        W 2606  36.511  22.871  10.312
34389W        W 2607  24.534  10.703  14.999
34390W        W 2608  14.724  40.280   3.076
34391W        W 2609  19.437   1.080   0.383
34392W        W 2610  41.752  33.646  12.690
34393W        W 2611  20.456  38.956  11.546
34394W        W 2612   8.604  41.026   4.106
34395W        W 2613   2.758   6.230  10.472
34396W        W 2614  28.932   1.890  10.534
34397W        W 2615  28.800  13.918   0.836
34398W        W 2616  28.981  14.050   0.122
34399W        W 2617  11.397  38.364  12.490
34400W        W 2618  37.779  33.580  12.713
34401W        W 2619  41.486  42.729  14.682
34402W        W 2620  22.133  44.222  13.411
34403W        W 2621  25.987  27.706  14.356
34404W        W 2622  26.902  14.491  14.019
34405W        W 2623   2.977   1.340  11.513
34406W        W 2624  34.428   3.056   1.783
34407W        W 2625   1.004   8.522  10.702
34408W        W 2626  22.562   1.746   4.589
34409W        W 2627  44.697  30.372  13.728
34410W        W 2628  40.273  30.686   3.253
34411W        W 2629  14.254  15.742   0.627
34412W        W 2630  37.938  16.775  14.365
34413W        W 2631  22.680  18.252  11.386
34414W        W 2632  30.135  20.048  13.928
34415W        W 2633   2.413   8.637   3.580
34416W        W 2634  40.126   1.607   3.911
34417W        W 2635   7.158   7.836  14.823
34418W        W 2636  28.599  11.529   2.321
34419W        W 2637  41.433  34.974  13.479
34420W        W 2638   6.871  43.391   3.184
34421W        W 2639  24.644  42.482   0.477
34422W        W 2640  38.186  28.711   3.180
34423W        W 2641  35.020   6.200  11.433
34424W        W 2642  22.611  30.930   2.830
34425W        W 2643  14.359  16.568   4.009
34426W        W 2644  20.955  34.597   1.883
34427W        W 2645  13.229   7.159  10.440
34428W        W 2646  37.533   6.014  12.565
34429W        W 2647  42.531  33.344  14.904
34430W        W 2648   3.484  27.379  11.051
34431W        W 2649  44.497  12.209   1.938
34432W        W 2650  35.298  14.727  12.099
34433W        W 2651  10.733  27.098   2.424
34434W        W 2652  12.425  39.804   1.242
34435W        W 2653   7.902   2.587  11.177
34436W        W 2654  40.589  13.794  13.116
34437W        W 2655  10.280   6.912  12.876
34438W        W 2656  18.020  32.468   0.743
34439W        W 2657  32.779   6.855   3.807
34440W        W 2658  12.302   3.461  13.494
34441W        W 2659   3.665   0.333   1.315
34442W        W 2660  34.895  15.314  13.275
34443W        W 2661  28.628  19.384  11.945
34444W        W 2662   0.999  43.950   2.602
34445W        W 2663  13.432  36.375   2.815
34446W        W 2664  39.211  34.462   3.568
34447W        W 2665  31.678  40.572   4.133
34448W        W 2666  24.271  20.424  14.389
34449W        W 2667  35.400  43.875   1.839
34450W        W 2668  28.546  14.034   2.348
34451W        W 2669  24.562   5.691   3.412
34452W        W 2670   1.094   3.001   4.881
34453W        W 2671  39.750  36.854   1.453
34454W        W 2672  35.614  36.328   3.334
34455W        W 2673  15.193  42.317  12.655
34456W        W 2674  36.059  21.980   3.876
34457W        W 2675  19.059  37.104  10.236
34458W        W 2676  19.165  31.345   3.607
34459W        W 2677  14.794  42.704   0.358
34460W        W 2678  10.771  19.731  14.907
34461W        W 2679  13.599   4.734  10.866
34462W        W 2680  40.335  40.758   1.560
34463W        W 2681   1.909  43.089  14.744
34464W        W 2682  38.390   3.704  10.708
34465W        W 2683  20.626  35.166   3.222
34466W        W 2684   8.266   8.401   4.216
34467W        W 2685  11.889  32.357  13.379
34468W        W 2686  35.925   6.918  10.481
34469W        W 2687  18.085  13.613   0.923
34470W        W 2688   7.274  37.801   3.561
34471W        W 2689  42.627  40.409   1.854
34472W        W 2690  39.868   3.106  13.801
34473W        W 2691  44.997  15.852   4.444
34474W        W 2692  32.224   1.781  12.808
34475W        W 2693  11.808  15.703  12.220
34476W        W 2694  31.803  10.099   4.979
34477W        W 2695  30.273  24.743   4.842
34478W        W 2696  26.099   9.645   3.319
34479W        W 2697  14.243   8.934  11.159
34480W        W 2698  29.701  34.917   2.240
34481W        W 2699  27.080  44.250   3.773
34482W        W 2700  22.882  32.957   4.878
34483W        W 2701  43.087  16.772   4.484
34484W        W 2702  18.101  27.939   2.629
34485W        W 2703  26.832  44.767  12.447
34486W        W 2704  42.732  42.820  14.195
34487W        W 2705  30.445  10.276   1.751
34488W        W 2706   3.160  38.864   0.353
34489W        W 2707  44.341  39.012   4.671
34490W        W 2708  16.193  22.338  11.661
34491W        W 2709  30.374   2.952  12.677
34492W        W 2710  30.986  35.334  13.542
34493W        W 2711   2.035  33.971  12.435
34494W        W 2712  11.352  30.580  13.297
34495W        W 2713  35.141  25.789   2.377
34496W        W 2714  14.719   9.415   0.033
34497W        W 2715  13.215   7.330   4.598
34498W        W 2716  25.150  35.637   1.925
34499W        W 2717  18.876  19.529   3.667
34500W        W 2718  21.478   4.861   1.207
34501W        W 2719   7.321  38.504   3.316
34502W        W 2720  19.659  37.969  12.819
34503W        W 2721  10.414  43.268  13.371
34504W        W 2722   7.809  43.515   3.562
34505W        W 2723  33.006  33.936   4.479
34506W        W 2724  11.734  17.268  10.645
34507W        W 2725  22.106  31.926   0.007
34508W        W 2726  29.387  10.618  12.506
34509W        W 2727   1.251   5.424   0.310
34510W        W 2728  21.538  30.938  13.000
34511W        W 2729  13.820  30.688   2.878
34512W        W 2730  12.145  22.543   1.899
34513W        W 2731  28.182  39.995   0.452
34514W        W 2732   2.365   3.868  12.513
34515W        W 2733  31.688  39.798   3.150
34516W        W 2734  36.353   3.405   4.147
34517W        W 2735  34.927   0.242   1.626
34518W        W 2736  21.394  36.126   4.137
34519W        W 2737   8.712  33.471  14.783
34520W        W 2738  21.630   5.942   4.818
34521W        W 2739  20.571  22.102  13.073
34522W        W 2740  17.389  24.683   0.758
34523W        W 2741   5.724   9.655  11.634
34524W        W 2742   1.909  29.201   4.600
34525W        W 2743   5.895  10.754   3.706
34526W        W 2744  37.877  30.383  13.074
34527W        W 2745  10.404  32.093   4.031
34528W        W 2746   4.183  14.077   0.483
34529W        W 2747  33.267  29.378  10.425
34530W        W 2748  35.071  27.497   2.189
34531W        W 2749  41.907  28.257  13.540
34532W        W 2750  38.773  42.259  10.677
34533W        W 2751  30.640   8.389   2.855
34534W        W 2752  24.002   7.760  10.719
34535W        W 2753  16.652  18.131  14.054
34536W        W 2754  15.316   1.737  13.498
34537W        W 2755   5.204  41.221   0.822
34538W        W 2756   3.721   4.560   0.337
34539W        W 2757   5.644  35.998  14.394
34540W        W 2758  38.449   6.212   0.752
34541W        W 2759   3.383  30.443   2.837
34542W        W 2760  27.914  25.545  14.714
34543W        W 2761   8.370  44.000   0.765
34544W        W 2762   2.222  43.885   1.590
34545W        W 2763  34.453   6.257  12.221
34546W        W 2764  21.183  27.568  12.075
34547W        W 2765  40.313  36.944   4.024
34548W        W 2766  26.722   2.207  11.066
34549W        W 2767  19.921  42.491  11.995
34550W        W 2768   2.704  36.083  12.972
34551W        W 2769  23.416  30.029   1.717
34552W        W 2770  33.413  12.660  14.140
34553W        W 2771  30.978   9.632  10.940
34554W        W 2772  44.322  26.606   2.613
34555W        W 2773   5.715  42.467   3.247
34556W        W 2774  33.352  12.956   0.450
34557W        W 2775  28.572  25.679  11.682
34558W        W 2776  15.667  26.559   5.111
34559W        W 2777   6.318   7.641   4.084
34560W        W 2778  36.966  20.112  10.671
34561W        W 2779  24.710  24.985   2.748
34562W        W 2780  14.720  26.577  10.575
34563W        W 2781  27.985  44.849   1.945
34564W        W 2782  28.546  25.430   4.945
34565W        W 2783  26.961   6.763   1.361
34566W        W 2784  26.541   3.168  13.317
34567W        W 2785  34.113   3.438  10.757
34568W        W 2786   3.647  24.123   2.671
34569W        W 2787  32.335  17.749   0.996
34570W        W 2788   8.200  19.253  11.398
34571W        W 2789  41.777   7.106   1.828
34572W        W 2790  15.499  34.460   0.988
34573W        W 2791  24.225  40.403  12.510
34574W        W 2792  38.571  33.556  10.577
34575W        W 2793   1.911  31.419   1.746
34576W        W 2794  33.868  33.341  14.365
34577W        W 2795  11.576  44.273  12.212
34578W        W 2796  37.000  11.360   0.891
34579W        W 2797  22.989  38.081  14.712
34580W        W 2798  39.978  11.346   0.545
34581W        W 2799  34.696  16.199   2.911
34582W        W 2800  24.289   4.379   1.249
34583W        W 2801   6.900  14.262   3.784
34584W        W 2802  15.152  26.438   1.725
34585W        W 2803   1.876  32.373  14.567
34586W        W 2804   1.990  23.290  14.162
34587W        W 2805  12.651  16.547   1.324
34588W        W 2806  13.748  44.001   4.117
34589W        W 2807  27.088  39.560  14.333
34590W        W 2808  17.154  23.766  12.834
34591W        W 2809  25.910  27.132   2.248
34592W        W 2810  33.557  26.220   3.994
34593W        W 2811  40.495  15.452   0.115
34594W        W 2812  17.121  14.633  11.383
34595W        W 2813  15.046  40.857   4.378
34596W        W 2814  37.096  19.717   4.144
34597W        W 2815  10.288   4.260  10.049
34598W        W 2816  19.089  37.196  11.146
34599W        W 2817  19.320   5.208  10.664
34600W        W 2818  17.205  31.498  13.091
34601W        W 2819  42.514  12.823   2.314
34602W        W 2820  29.924  26.027  13.879
34603W        W 2821  22.200   8.871  11.974
34604W        W 2822  39.775  22.229   3.110
34605W        W 2823  34.813  35.125  10.481
34606W        W 2824  12.177  14.905   3.525
34607W        W 2825  23.946  40.216  11.647
34608W        W 2826  25.998  35.119  12.603
34609W        W 2827  41.298  44.342  12.108
34610W        W 2828   1.380  42.523  13.382
34611W        W 2829   5.430  41.502  14.829
34612W        W 2830  24.990  25.166   4.019
34613W        W 2831  13.101  14.883  11.172
34614W        W 2832  42.459  42.064   3.408
34615W        W 2833  12.662  27.195   3.825
34616W        W 2834  15.743  23.538   2.708
34617W        W 2835   3.498  14.842  11.667
34618W        W 2836   8.985  13.464   4.089
34619W        W 2837  43.773  28.084   3.743
34620W        W 2838  29.049   5.029   2.360
34621W        W 2839  17.853  16.593   0.088
34622W        W 2840   4.303   0.902  11.375
34623W        W 2841   0.423  33.557   1.328
34624W        W 2842  35.320  36.619  11.067
34625W        W 2843   0.847  28.593   3.310
34626W        W 2844   6.903   2.659  11.126
34627W        W 2845  42.474  42.261   4.817
34628W        W 2846  37.516  34.337   1.798
34629W        W 2847  27.917  15.091  11.728
34630W        W 2848  19.210  13.131  13.981
34631W        W 2849  44.285  44.529   2.198
34632W        W 2850  38.070   8.142  10.588
34633W        W 2851  39.935  33.007  11.005
34634W        W 2852  28.665   0.670  13.844
34635W        W 2853  21.726  33.003  13.965
34636W        W 2854  16.076  23.158  11.910
34637W        W 2855   2.357   2.418   0.881
34638W        W 2856  15.227   0.891   5.500
34639W        W 2857  21.660  32.084  10.194
34640W        W 2858  23.488  14.060  14.421
34641W        W 2859  24.978  22.519   0.248
34642W        W 2860   5.061  37.077  13.333
34643W        W 2861  23.462   0.478   4.371
34644W        W 2862  26.454   5.751   2.741
34645W        W 2863  16.159  33.092   4.185
34646W        W 2864  25.250  44.852   4.083
34647W        W 2865  28.368  10.328  13.467
34648W        W 2866  23.002  22.362  13.538
34649W        W 2867  37.994  36.282   2.456
34650W        W 2868  38.751  31.454   3.080
34651W        W 2869  33.885   7.917   4.565
34652W        W 2870  23.448  19.618  14.172
34653W        W 2871  22.399  38.365   0.333
34654W        W 2872  31.215  10.333  12.000
34655W        W 2873   2.513  43.311   4.726
34656W        W 2874  34.740  40.412   1.496
34657W        W 2875   2.223   7.781  13.879
34658W        W 2876   1.727  37.419   4.718
34659W        W 2877  18.059  42.128  10.759
34660W        W 2878  18.614  43.310   1.423
34661W        W 2879   3.791  36.985  11.429
34662W        W 2880  38.046  19.200   3.624
34663W        W 2881  38.514  13.169   1.584
34664W        W 2882  29.408   5.765  10.962
34665W        W 2883  42.080   6.205   1.862
34666W        W 2884  11.150   2.825   1.248
34667W        W 2885  13.616   3.828   2.337
34668W        W 2886  11.951  30.063  11.410
34669W        W 2887  20.238  11.941  12.021
34670W        W 2888  19.589   4.878   4.758
34671W        W 2889   6.763  29.922  10.965
34672W        W 2890  31.795  20.590   3.286
34673W        W 2891  28.015  21.458   0.691
34674W        W 2892  38.810  25.452   0.299
34675W        W 2893  16.665  15.121  14.596
34676W        W 2894  27.496  30.747   0.055
34677W        W 2895  28.597  17.230  10.537
34678W        W 2896  26.277   4.817  14.313
34679W        W 2897  30.795   2.010   4.842
34680W        W 2898  44.932  37.293   1.010
34681W        W 2899  28.997   9.632  13.914
34682W        W 2900  15.028  28.699   0.273
34683W        W 2901  39.301  28.117  14.812
34684W        W 2902  31.075  33.841   1.960
34685W        W 2903  39.819  31.669  13.943
34686W        W 2904   9.423  12.254   4.081
34687W        W 2905  36.638  28.143  10.101
34688W        W 2906  31.020   9.328   1.235
34689W        W 2907  30.206  22.783   0.767
34690W        W 2908  38.128  39.821  12.555
34691W        W 2909   0.997  38.516   4.167
34692W        W 2910  43.044  34.505   1.925
34693W        W 2911  29.721  23.963   3.247
34694W        W 2912  12.089  25.912  14.879
34695W        W 2913  39.702  12.739   0.503
34696W        W 2914  29.175  30.052  10.682
34697W        W 2915  36.045  35.112  10.978
34698W        W 2916   8.840  27.250   1.262
34699W        W 2917  35.373   4.960  11.086
34700W        W 2918  19.649  18.094  11.252
34701W        W 2919  30.393  22.419   1.091
34702W        W 2920  40.072   5.978  12.860
34703W        W 2921  29.659  10.851  11.253
34704W        W 2922  30.452  20.043  13.517
34705W        W 2923   3.948   9.896   1.282
34706W        W 2924  32.646  34.275  14.908
34707W        W 2925  29.139  20.806   4.404
34708W        W 2926  24.567  35.070  14.898
34709W        W 2927   8.820  42.092   3.693
34710W        W 2928  37.136  14.681  14.471
34711W        W 2929  12.698  11.700   3.645
34712W        W 2930  14.137   2.226  13.849
34713W        W 2931  27.219   0.427  13.931
34714W        W 2932  12.336  25.001   0.434
34715W        W 2933  43.712  10.578   0.770
34716W        W 2934  13.044  41.368  11.554
34717W        W 2935  17.198  28.911  11.917
34718W        W 2936  36.298  16.034   4.576
34719W        W 2937  34.407   3.771   3.771
34720W        W 2938  14.186   9.714   4.593
34721W        W 2939  30.945  21.632   4.135
34722W        W 2940  28.795  39.648  11.139
34723W        W 2941  36.170  19.327   0.441
34724W        W 2942  18.474   6.483   3.118
34725W        W 2943   4.053  39.592  11.408
34726W        W 2944  11.192  24.946   1.594
34727W        W 2945  17.655  29.335  14.291
34728W        W 2946   9.677  25.715   0.564
34729W        W 2947  27.523  20.548  14.957
34730W        W 2948   1.267  42.663  12.181
34731W        W 2949  44.878  24.792   3.649
34732W        W 2950  34.628  40.532  13.427
34733W        W 2951  14.564  43.812   1.559
34734W        W 2952  12.850  38.705   4.703
34735W        W 2953  20.961  15.878  14.252
34736W        W 2954  17.376  12.011   3.195
34737W        W 2955  42.252  22.224  12.080
34738W        W 2956  17.319  17.380  13.093
34739W        W 2957  36.782  22.717   2.225
34740W        W 2958  12.391  23.666   3.618
34741W        W 2959  38.519  34.043   1.686
34742W        W 2960  29.669  43.134  13.943
34743W        W 2961  22.984  16.431   2.766
34744W        W 2962  38.869  36.228   2.172
34745W        W 2963  19.047  43.549  12.030
34746W        W 2964  14.994   6.754   1.037
34747W        W 2965  22.112  17.265   0.398
34748W        W 2966   6.150   1.215  11.228
34749W        W 2967  19.989  34.490  12.826
34750W        W 2968   9.226  23.597  11.553
34751W        W 2969  38.897  29.211  10.640
34752W        W 2970  22.888  14.066  10.212
34753W        W 2971  44.887  18.521  13.415
34754W        W 2972   0.402  17.749   2.266
34755W        W 2973  16.052  10.099   0.830
34756W        W 2974  35.809   8.295   2.741
34757W        W 2975   8.858   7.707   4.420
34758W        W 2976  22.061  20.646  14.192
34759W        W 2977  43.372   3.767  14.873
34760W        W 2978   6.362  18.858  10.255
34761W        W 2979  21.601  25.473   2.585
34762W        W 2980  21.688  27.832  12.506
34763W        W 2981  31.469  27.993  14.982
34764W        W 2982   9.567  25.481  10.550
34765W        W 2983  31.023   9.373  14.706
34766W        W 2984   2.556  23.086   1.839
34767W        W 2985  21.697  14.503   0.769
34768W        W 2986  28.218   5.494  14.141
34769W        W 2987  30.165  26.590  10.412
34770W        W 2988  38.285  12.788  10.638
34771W        W 2989   5.780  36.907   4.384
34772W        W 2990   4.377  41.300   4.928
34773W        W 2991  16.311   2.410  13.024
34774W        W 2992  37.021  35.811  13.060
34775W        W 2993  23.670  14.236  13.186
34776W        W 2994  12.612  43.241  10.780
34777W        W 2995  36.421  11.394  13.272
34778W        W 2996  22.207  17.328  13.445
34779W        W 2997   7.078  37.954   2.600
34780W        W 2998  22.101  43.045   2.304
34781W        W 2999   7.429  13.851   2.730
34782W        W 3000  21.068  11.712  13.599
34783W        W 3001  33.638  21.589   0.483
34784W        W 3002  22.515  39.048   3.338
34785W        W 3003  31.909  39.355   2.269
34786W        W 3004  43.855   7.507   0.520
34787W        W 3005  12.394  17.772  12.801
34788W        W 3006  40.891  15.328  12.495
34789W        W 3007   3.353  12.303   2.414
34790W        W 3008  30.743  36.186  10.430
34791W        W 3009   5.946  16.891  11.691
34792W        W 3010  28.660  36.437   4.952
34793W        W 3011   5.297  12.881   3.106
34794W        W 3012   4.451  35.023  12.601
34795W        W 3013   5.180  34.163   3.601
34796W        W 3014  44.500  20.210  14.382
34797W        W 3015  31.914   4.992  13.952
34798W        W 3016  22.444   3.266  12.865
34799W        W 3017  13.731   8.209   1.235
34800W        W 3018  26.753   6.121  11.489
34801W        W 3019  10.796   7.834   4.287
34802W        W 3020  28.601  37.751   1.523
34803W        W 3021  30.959  44.343   1.776
34804W        W 3022  32.879  33.947  13.895
34805W        W 3023  27.652  35.166  11.548
34806W        W 3024  37.026  22.564   3.041
34807W        W 3025  29.460  11.306   0.427
34808W        W 3026   5.706   8.354   3.134
34809W        W 3027   9.157  25.970   3.160
34810W        W 3028  34.846  10.615   3.621
34811W        W 3029  24.596  14.668  12.363
34812W        W 3030   2.880  23.223   0.821
34813W        W 3031  20.340  11.261   3.268
34814W        W 3032  24.488  43.266  13.362
34815W        W 3033  15.607  23.065   4.963
34816W        W 3034  42.540   0.276  12.011
34817W        W 3035  27.326   2.583  13.323
34818W        W 3036   4.638  14.726  12.347
34819W        W 3037  16.340  23.061   4.404
34820W        W 3038   8.910   7.875  12.067
34821W        W 3039  21.542  29.051   2.206
34822W        W 3040   9.238  42.538  10.459
34823W        W 3041  15.049  30.937   2.250
34824W        W 3042  30.607  39.640  12.870
34825W        W 3043  18.644  41.287  13.405
34826W        W 3044  29.128   8.876   0.714
34827W        W 3045  30.040  27.568   1.486
34828W        W 3046   0.082  18.315   1.873
34829W        W 3047   2.335   5.234   1.300
34830W        W 3048  14.802  10.223   0.047
34831W        W 3049   2.610  44.895   1.695
34832W        W 3050   2.318  31.118  11.702
34833W        W 3051  11.582  36.000  14.879
34834W        W 3052  31.279  31.649   3.831
34835W        W 3053  19.786  41.539  11.801
34836W        W 3054   3.789  41.769  14.805
34837W        W 3055  16.436  19.575  12.512
34838W        W 3056  12.750  29.454  12.432
34839W        W 3057  31.236  43.153   4.720
34840W        W 3058  34.638  25.701  11.524
34841W        W 3059   0.512  15.598   3.125
34842W        W 3060  30.494  11.815   4.820
34843W        W 3061  14.102   5.763   0.440
34844W        W 3062  21.590  29.210  12.448
34845W        W 3063  20.068  31.038   4.078
34846W        W 3064  41.831  19.559   4.588
34847W        W 3065  29.638   0.741   2.211
34848W        W 3066  33.538  31.281  12.800
34849W        W 3067  34.566  37.336  14.674
34850W        W 3068  39.493  10.795  10.903
34851W        W 3069  33.333  24.649   0.438
34852W        W 3070  28.465  20.305   2.369
34853W        W 3071  35.890   5.275  12.562
34854W        W 3072  42.264  18.580   4.572
34855W        W 3073   0.381  34.156   3.723
34856W        W 3074  14.171  40.556   0.644
34857W        W 3075  43.248  22.671  11.330
34858W        W 3076  18.129  29.196   3.675
34859W        W 3077  13.974  25.727  14.334
34860W        W 3078  23.441  43.240  12.139
34861W        W 3079  11.401  23.900   3.638
34862W        W 3080  36.021  36.297  12.275
34863W        W 3081   4.869  40.947   0.504
34864W        W 3082  43.430  10.916   1.226
34865W        W 3083   5.650  40.980   0.958
34866W        W 3084  36.779   5.443   4.481
34867W        W 3085  38.552  25.857  12.214
34868W        W 3086  35.092  14.295   2.281
34869W        W 3087   2.998   9.194  12.524
34870W        W 3088  13.240  20.508   1.758
34871W        W 3089   6.138  28.010  12.365
34872W        W 3090  27.581   6.600   0.978
34873W        W 3091   6.188  21.024  14.971
34874W        W 3092  43.217  44.497   0.790
34875W        W 3093  30.889   8.156   0.789
34876W        W 3094  40.676  43.024   4.474
34877W        W 3095  36.844  32.435   0.343
34878W        W 3096  15.421   1.359   9.782
34879W        W 3097  24.469  40.897   2.676
34880W        W 3098  16.941  38.483  13.041
34881W        W 3099  40.787  37.075   4.217
34882W        W 3100  29.092  22.554  13.596
34883W        W 3101   6.865  12.921  12.954
34884W        W 3102  31.094  30.134  12.042
34885W        W 3103   5.128   2.447   2.777
34886W        W 3104  31.073  25.668   1.063
34887W        W 3105  28.046  40.903   4.244
34888W        W 3106  10.923  23.096  10.932
34889W        W 3107   8.783  19.342   0.525
34890W        W 3108  23.053  22.088   1.264
34891W        W 3109   9.188  20.707   3.770
34892W        W 3110   5.182  17.386   4.641
34893W        W 3111   7.546  30.857  10.768
34894W        W 3112  27.856   2.081   1.655
34895W        W 3113  40.622  19.442   3.225
34896W        W 3114  16.398  11.927  11.088
34897W        W 3115  20.944  24.671  14.093
34898W        W 3116  30.525  37.146  14.175
34899W        W 3117  18.598  37.396   0.027
34900W        W 3118  32.609  29.528   0.230
34901W        W 3119   4.480  11.161   4.138
34902W        W 3120  19.044   5.907  11.115
34903W        W 3121  14.116  42.341  12.894
34904W        W 3122  32.182  22.603   0.704
34905W        W 3123  14.129   1.383   4.237
34906W        W 3124  36.297  20.197   3.399
34907W        W 3125  42.019  24.986   3.520
34908W        W 3126   1.293  13.368   0.351
34909W        W 3127  42.275   9.676  11.549
34910W        W 3128   6.793   0.234  10.439
34911W        W 3129   5.286  26.530   3.337
34912W        W 3130  39.514  37.025   4.684
34913W        W 3131   7.826  35.909   1.590
34914W        W 3132   9.309   9.818  13.703
34915W        W 3133  37.450  42.477   3.926
34916W        W 3134  36.950  38.941  12.550
34917W        W 3135  39.493  36.961  10.656
34918W        W 3136   1.936  19.680  14.899
34919W        W 3137  30.394  32.344   2.729
34920W        W 3138  33.375   7.385  10.378
34921W        W 3139  10.339  28.464   1.193
34922W        W 3140  44.250  24.758  14.394
34923W        W 3141  21.826  24.615   3.724
34924W        W 3142  29.213  19.881   1.989
34925W        W 3143   9.011  34.371   2.858
34926W        W 3144  40.725  12.837  14.570
34927W        W 3145  36.493  30.712  12.898
34928W        W 3146  41.259  36.494   2.684
34929W        W 3147  11.409  37.293   2.716
34930W        W 3148  33.580  24.680  14.402
34931W        W 3149  39.266  12.246   0.421
34932W        W 3150  26.817  27.282  11.926
34933W        W 3151   9.464  36.464   1.856
34934W        W 3152  19.548  22.926  10.616
34935W        W 3153  34.290  14.126   1.773
34936W        W 3154  15.158  22.776  12.532
34937W        W 3155  30.203  41.479   0.376
34938W        W 3156  42.429  11.401   2.245
34939W        W 3157  30.664  18.115  10.686
34940W        W 3158   5.249  17.695  12.880
34941W        W 3159  32.173   1.387  10.533
34942W        W 3160  24.118  37.375   0.363
34943W        W 3161   2.639  23.076   2.846
34944W        W 3162  32.544  35.819  13.097
34945W        W 3163  28.447   2.310   0.709
34946W        W 3164  23.312  13.298   2.143
34947W        W 3165  29.655  19.802   4.589
34948W        W 3166  43.588  33.742  11.604
34949W        W 3167   6.361  34.492   2.248
34950W        W 3168  21.557   6.442  13.949
34951W        W 3169  37.479  30.007  14.567
34952W        W 3170   3.784   3.126  13.915
34953W        W 3171  15.618  30.443   1.841
34954W        W 3172   0.837   5.147  10.426
34955W        W 3173  28.456  44.226  12.781
34956W        W 3174  43.998  14.567   2.810
34957W        W 3175  31.945   9.712  12.920
34958W        W 3176  42.944  17.800  13.447
34959W        W 3177   8.629  20.963   5.030
34960W        W 3178  14.848  41.462   0.958
34961W        W 3179  21.881  31.359  12.955
34962W        W 3180  11.739  19.735   4.653
34963W        W 3181  25.358   4.548   0.097
34964W        W 3182   6.818  15.028   1.279
34965W        W 3183  30.589  20.791   0.329
34966W        W 3184  32.340   3.827  14.528
34967W        W 3185  26.891   4.187   0.388
34968W        W 3186  38.634  27.870   2.970
34969W        W 3187  38.384  42.263  11.934
34970W        W 3188   5.445  42.183  11.004
34971W        W 3189  40.871  25.764  14.038
34972W        W 3190  10.715  15.558  12.335
34973W        W 3191  29.005  36.866  13.483
34974W        W 3192  43.552  29.448  11.252
34975W        W 3193  37.733  41.908   1.975
34976W        W 3194   5.283  34.609  12.778
34977W        W 3195   1.025  41.523   3.757
34978W        W 3196  41.336  13.173   4.222
34979W        W 3197   1.291  33.651  11.978
34980W        W 3198  18.592   9.165   4.784
34981W        W 3199  20.042  43.423   0.194
34982W        W 3200   1.893  43.359  12.193
34983W        W 3201  38.148  26.921   3.581
34984W        W 3202   5.627  26.590  10.624
34985W        W 3203  40.264  10.771   0.420
34986W        W 3204  39.021  43.519  12.734
34987W        W 3205  25.479  27.935   3.141
34988W        W 3206  11.694   4.954   3.321
34989W        W 3207  14.285  33.622  13.218
34990W        W 3208  28.919  33.777  12.991
34991W        W 3209  13.237  39.810   3.268
34992W        W 3210  39.307  35.377   1.751
34993W        W 3211  14.002  44.821  14.252
34994W        W 3212  16.789  17.693   0.773
34995W        W 3213  35.951  32.104   3.378
34996W        W 3214  18.428   4.519   2.436
34997W        W 3215  10.654  37.604  14.729
34998W        W 3216  40.812  29.837   2.360
34999W        W 3217  40.871  14.207   1.624
35000W        W 3218   2.570   4.288  11.207
35001W        W 3219  24.408  18.825  11.143
35002W        W 3220  29.537  38.992  12.541
35003W        W 3221  24.212   5.064  12.551
35004W        W 3222  42.317  10.540  12.438
35005W        W 3223   1.068  32.479  12.043
35006W        W 3224  27.919   8.776   1.782
35007W        W 3225  36.476   3.246  11.983
35008W        W 3226  10.951  34.786   4.088
35009W        W 3227   7.464  37.539   1.751
35010W        W 3228  29.001   1.418   4.594
35011W        W 3229  34.329  13.798  12.441
35012W        W 3230   8.969   5.961   4.330
35013W        W 3231   5.273  24.663  13.245
35014W        W 3232   3.397  12.805  10.697
35015W        W 3233  23.243   1.212  14.813
35016W        W 3234  25.082  41.911  11.507
35017W        W 3235  14.871  14.295  11.832
35018W        W 3236  16.025  12.522  14.017
35019W        W 3237  18.176  36.641   3.255
35020W        W 3238   8.478  40.045  11.103
35021W        W 3239  36.017  11.059  13.175
35022W        W 3240  21.099  25.460  12.056
35023W        W 3241   6.391   0.495  12.996
35024W        W 3242  10.761  42.407   0.292
35025W        W 3243   0.235  40.826   1.319
35026W        W 3244  17.167  18.636  10.706
35027W        W 3245  25.238  40.444   2.851
35028W        W 3246  33.082  20.754   4.983
35029W        W 3247  19.882  19.721   0.088
35030W        W 3248   4.892   9.617  10.628
35031W        W 3249  33.364   0.380  11.263
35032W        W 3250  35.044  26.754  10.693
35033W        W 3251   9.296   2.419  11.611
35034W        W 3252  41.384  32.859   4.839
35035W        W 3253  38.642   5.289   3.587
35036W        W 3254   7.137  38.805   2.931
35037W        W 3255  35.663   3.346   1.237
35038W        W 3256  11.843  26.232  13.435
35039W        W 3257  10.900  38.406  11.880
35040W        W 3258  39.346  16.538   2.176
35041W        W 3259  37.424  31.108   1.699
35042W        W 3260  33.492  23.085   2.709
35043W        W 3261  10.638  40.043   4.177
35044W        W 3262  18.085   0.766   0.538
35045W        W 3263  14.728   9.744   4.620
35046W        W 3264  13.733  34.875  11.040
35047W        W 3265  25.463  18.310  13.411
35048W        W 3266  40.061   8.340  13.989
35049W        W 3267  31.130  28.862   2.134
35050W        W 3268  30.499   2.377  10.674
35051W        W 3269  19.679  13.074  11.773
35052W        W 3270  44.051  11.383  12.061
35053W        W 3271  34.861   7.668  10.948
35054W        W 3272  33.445  33.960   4.130
35055W        W 3273  21.136  12.391  11.134
35056W        W 3274   2.437  19.324  14.262
35057W        W 3275  39.191  28.091   4.584
35058W        W 3276  27.199  27.206  14.491
35059W        W 3277  43.762  20.246   3.735
35060W        W 3278   3.208  42.358  13.459
35061W        W 3279  19.834  42.208  14.407
35062W        W 3280   1.552   4.912  13.085
35063W        W 3281  33.059  32.481  13.153
35064W        W 3282  30.064  33.646   4.557
35065W        W 3283  13.431  34.230  14.197
35066W        W 3284  43.447   7.293   3.112
35067W        W 3285  19.647  35.836  12.940
35068W        W 3286  39.023   7.647   0.317
35069W        W 3287  18.173  30.524   3.334
35070W        W 3288  15.293  25.213  14.818
35071W        W 3289  14.749   0.495   0.796
35072W        W 3290  30.652   6.106  11.537
35073W        W 3291  11.157  37.519   3.663
35074W        W 3292  29.348   7.432  11.175
35075W        W 3293  10.773   3.196   2.941
35076W        W 3294   0.837  34.412   4.596
35077W        W 3295   8.217  29.119  13.763
35078W        W 3296   2.367  24.369  10.214
35079W        W 3297  15.274  38.449  10.635
35080W        W 3298  41.325   5.467  12.180
35081W        W 3299  44.733   8.135  13.327
35082W        W 3300  39.379  43.705  10.701
35083W        W 3301   2.046  42.358   1.288
35084W        W 3302   5.417  42.074   1.111
35085W        W 3303   0.989   6.792  14.104
35086W        W 3304  38.620  22.530  11.726
35087W        W 3305  31.078  16.735  13.065
35088W        W 3306  39.762  30.435   1.308
35089W        W 3307  35.822  44.590   4.357
35090W        W 3308  18.477  20.130  11.969
35091W        W 3309  43.774  18.063   2.288
35092W        W 3310  39.856  43.859   1.944
35093W        W 3311  15.771  43.237   1.007
35094W        W 3312   0.982   7.747  12.969
35095W        W 3313  32.615  27.262  14.721
35096W        W 3314   3.547   7.314   0.218
35097W        W 3315   7.249  12.800  14.016
35098W        W 3316  36.556  36.126   4.663
35099W        W 3317  35.174  11.329  14.050
35100W        W 3318  17.737   0.986   2.248
35101W        W 3319  35.595  11.854   2.163
35102W        W 3320  12.149   9.134   2.906
35103W        W 3321   5.276  18.984   4.414
35104W        W 3322  32.802   9.106  13.364
35105W        W 3323  32.786  40.442  10.696
35106W        W 3324  30.130  12.895   3.172
35107W        W 3325  22.988   0.445   1.778
35108W        W 3326   1.763  30.338  12.064
35109W        W 3327  39.172  26.182   0.702
35110W        W 3328  16.803   6.046   3.257
35111W        W 3329   2.887  44.445   1.751
35112W        W 3330  44.973  24.562  11.576
35113W        W 3331  26.111  21.299  10.346
35114W        W 3332  15.478  26.629  11.045
35115W        W 3333   0.877  24.789   2.756
35116W        W 3334  40.952  26.016   2.882
35117W        W 3335  44.344  39.896  14.570
35118W        W 3336  36.831  39.175  12.091
35119W        W 3337  16.706  28.064   1.810
35120W        W 3338   3.660  25.996   1.188
35121W        W 3339  35.430  28.113   1.290
35122W        W 3340  37.180  16.870  13.799
35123W        W 3341   3.786  38.753   3.722
35124W        W 3342  17.334  36.446   2.669
35125W        W 3343  11.501  37.049   4.859
35126W        W 3344  41.111  35.533   1.286
35127W        W 3345  23.477  18.140  12.452
35128W        W 3346  13.177  13.463  12.506
35129W        W 3347  36.865  20.003  13.387
35130W        W 3348  40.474  24.939  11.528
35131W        W 3349  26.297  37.014  13.418
35132W        W 3350  42.847  44.394   1.690
35133W        W 3351  36.942   1.278   1.204
35134W        W 3352   0.543   3.224   1.728
35135W        W 3353  30.021  23.088   2.401
35136W        W 3354  43.377  42.442   4.237
35137W        W 3355  34.928  33.075   1.741
35138W        W 3356  12.340  39.407   3.591
35139W        W 3357   7.109  19.091  13.190
35140W        W 3358  17.586   9.235   3.222
35141W        W 3359  43.320   7.209   1.207
35142W        W 3360  44.510   0.173   2.760
35143W        W 3361  29.808  24.047  10.348
35144W        W 3362  39.507  42.214   2.353
35145W        W 3363  41.262   7.050  14.483
35146W        W 3364  31.883  36.007  11.176
35147W        W 3365  25.295  42.368  11.996
35148W        W 3366  31.816  38.060   4.494
35149W        W 3367   6.287  43.513  11.867
35150W        W 3368  40.884  39.282  11.535
35151W        W 3369  36.567  20.693   0.216
35152W        W 3370  11.932  27.515   2.114
35153W        W 3371  40.747  19.653   2.774
35154W        W 3372  10.638   4.339   1.774
35155W        W 3373  31.454  40.233  14.780
35156W        W 3374   2.394  38.830   3.868
35157W        W 3375  17.548   3.032  11.278
35158W        W 3376  14.768  44.025  12.831
35159W        W 3377   1.530  42.334   2.138
35160W        W 3378   7.495  30.063   0.915
35161W        W 3379   0.017  23.034  10.627
35162W        W 3380  31.100  24.705   3.642
35163W        W 3381  41.996   7.816   2.860
35164W        W 3382  28.404  26.674   3.178
35165W        W 3383   4.337   2.008  12.587
35166W        W 3384  13.902  27.567   1.862
35167W        W 3385  43.416  44.598  11.629
35168W        W 3386  26.067  28.633   1.305
35169W        W 3387  36.516  15.108   1.127
35170W        W 3388  43.803  41.044   1.518
35171W        W 3389  14.257  21.705  10.668
35172W        W 3390   6.451  23.770   4.615
35173W        W 3391  30.335  13.719   1.186
35174W        W 3392  39.719  43.889  12.518
35175W        W 3393  20.574   3.210  11.675
35176W        W 3394  40.901  43.909   2.558
35177W        W 3395  28.897  22.112  14.010
35178W        W 3396  44.435  23.732   3.199
35179W        W 3397  37.363  17.146  12.521
35180W        W 3398  36.810  37.908   0.212
35181W        W 3399  35.846   3.839  13.954
35182W        W 3400  26.206  11.682  10.607
35183W        W 3401   2.751  39.780   3.180
35184W        W 3402   8.922  21.247  13.581
35185W        W 3403  28.527  35.330   4.491
35186W        W 3404  30.182   0.509  11.561
35187W        W 3405  34.099   7.337   1.181
35188W        W 3406   4.326  10.884  11.586
35189W        W 3407  42.705  26.431  14.272
35190W        W 3408  15.256   5.085   2.329
35191W        W 3409  23.451  13.289   3.711
35192W        W 3410  34.122  33.773  12.535
35193W        W 3411  12.830  24.685  13.849
35194W        W 3412  41.811  43.253   2.361
35195W        W 3413  19.971  30.879   2.326
35196W        W 3414  17.106  43.515   5.057
35197W        W 3415   8.646   4.399   4.055
35198W        W 3416   1.322  39.538   4.108
35199W        W 3417  20.434   8.299  14.089
35200W        W 3418  44.369  26.799   4.291
35201W        W 3419  23.114  13.680   3.259
35202W        W 3420  41.568  13.896   1.425
35203W        W 3421  39.843  23.482   0.944
35204W        W 3422   1.071  31.975  10.681
35205W        W 3423  30.678  40.376   4.416
35206W        W 3424  11.860   0.444  11.562
35207W        W 3425  33.330  37.485   0.467
35208W        W 3426  42.299  26.534  11.090
35209W        W 3427   9.245   3.837   2.204
35210W        W 3428  29.519   8.338  14.427
35211W        W 3429  18.566  42.063   0.942
35212W        W 3430  42.103  43.802  14.516
35213W        W 3431  13.044  39.190  11.791
35214W        W 3432  18.235  43.148   1.733
35215W        W 3433  39.433  40.312  13.434
35216W        W 3434   4.156   6.176   1.468
35217W        W 3435  21.994   3.345  11.949
35218W        W 3436  38.430  39.734  12.122
35219W        W 3437  11.299  14.562   1.874
35220W        W 3438  12.903  35.413   2.285
35221W        W 3439  36.427  29.646   3.728
35222W        W 3440  38.318  10.423  13.536
35223W        W 3441  23.255  29.964  12.097
35224W        W 3442   2.847  29.253   3.248
35225W        W 3443  19.284  43.558   4.079
35226W        W 3444   3.237   3.214   4.275
35227W        W 3445  33.932   3.430   3.675
35228W        W 3446  22.663  14.585   2.302
35229W        W 3447   4.988   5.147   0.331
35230W        W 3448   4.231  14.521  14.710
35231W        W 3449  44.277  37.882   5.003
35232W        W 3450  44.624  10.367  11.924
35233W        W 3451  21.120  21.831  14.492
35234W        W 3452  32.402  11.306   3.161
35235W        W 3453  35.397  35.119  12.625
35236W        W 3454   0.331  23.872   4.415
35237W        W 3455  19.603  18.533  13.863
35238W        W 3456  14.907  23.229  13.059
35239W        W 3457  40.450   8.160   0.971
35240W        W 3458  29.181  18.333  13.048
35241W        W 3459  26.025  26.489   3.979
35242W        W 3460  32.759  38.912  10.861
35243W        W 3461  19.648  30.569  11.031
35244W        W 3462  10.919  30.448  12.949
35245W        W 3463   9.138  27.595   4.329
35246W        W 3464  40.561   0.405  10.752
35247W        W 3465  10.836  37.951  14.382
35248W        W 3466   6.897  36.453  14.668
35249W        W 3467   7.127  39.035  11.628
35250W        W 3468  29.146   5.895   3.677
35251W        W 3469  31.485  12.859   3.814
35252W        W 3470  29.134   3.639   3.214
35253W        W 3471  40.840   2.916   2.631
35254W        W 3472   5.098  20.116   2.331
35255W        W 3473   4.514   8.645   0.549
35256W        W 3474  22.346  43.656  11.514
35257W        W 3475  14.090  28.477  12.164
35258W        W 3476   2.425  13.167  10.715
35259W        W 3477  10.212  38.883  14.803
35260W        W 3478  28.473   1.511   1.197
35261W        W 3479  15.752  24.933   2.422
35262W        W 3480  13.273  32.717  12.551
35263W        W 3481  13.103   6.598   4.023
35264W        W 3482  11.370  19.577  13.931
35265W        W 3483  26.604  15.595   1.468
35266W        W 3484  25.567   4.730  12.315
35267W        W 3485  21.169  23.649  12.467
35268W        W 3486   6.303  21.194   0.876
35269W        W 3487  31.152  17.676   0.476
35270W        W 3488  33.431   7.929   4.274
35271W        W 3489   2.533  10.319  10.740
35272W        W 3490   8.669  11.193   1.983
35273W        W 3491  30.698   3.385  13.022
35274W        W 3492   9.790  41.803   1.244
35275W        W 3493  10.700  31.461   0.290
35276W        W 3494  33.576  38.647  12.486
35277W        W 3495  34.457   4.878   2.658
35278W        W 3496  16.821  17.710   4.271
35279W        W 3497  19.667  35.470   1.520
35280W        W 3498  35.564   9.739  11.955
35281W        W 3499  29.653   0.430  13.889
35282W        W 3500  42.056  40.789   3.151
35283W        W 3501  39.266  38.760   2.877
35284W        W 3502  15.207  21.218  10.648
35285W        W 3503  43.921  28.137   3.231
35286W        W 3504  42.542  13.292  14.240
35287W        W 3505  23.650  11.644  10.601
35288W        W 3506  27.912  19.712  11.267
35289W        W 3507  28.810  43.207  10.776
35290W        W 3508  27.822  16.678   5.016
35291W        W 3509   5.849   9.660  12.616
35292W        W 3510   4.647  32.078  14.390
35293W        W 3511  13.789  31.427   3.369
35294W        W 3512  15.550  13.865   4.646
35295W        W 3513  23.022   1.467   1.838
35296W        W 3514  30.486  32.122  11.545
35297W        W 3515   4.784  24.164  11.592
35298W        W 3516  42.685  15.293  12.549
35299W        W 3517  20.755  41.828   0.373
35300W        W 3518  22.684   7.704   3.243
35301W        W 3519  26.694  22.242  12.731
35302W        W 3520  21.683  22.581  14.402
35303W        W 3521  16.299  40.781   2.664
35304W        W 3522  43.887  42.318  14.944
35305W        W 3523  44.239  19.050  12.881
35306W        W 3524   8.818  15.493   9.840
35307W        W 3525  35.415  14.182   3.314
35308W        W 3526  12.384  31.625  12.647
35309W        W 3527  38.323  28.952  13.879
35310W        W 3528   2.667   2.244   1.776
35311W        W 3529   1.364  30.992  10.769
35312W        W 3530   7.228   2.961   4.597
35313W        W 3531  21.936  30.617   0.824
35314W        W 3532  18.640   2.494  12.363
35315W        W 3533   8.182  30.949   4.560
35316W        W 3534  17.598   2.276  10.634
35317W        W 3535  42.782   5.437   0.911
35318W        W 3536  20.591  16.040  14.988
35319W        W 3537  42.850  10.709  11.998
35320W        W 3538  39.520   3.938  11.169
35321W        W 3539   4.463  25.164  14.405
35322W        W 3540  15.596  40.902   1.927
35323W        W 3541  25.328  24.664   2.902
35324W        W 3542  39.964  37.377  11.506
35325W        W 3543   6.144  27.772   2.898
35326W        W 3544  14.674  19.517  11.442
35327W        W 3545  42.615  26.975   2.190
35328W        W 3546  36.265  20.125  14.592
35329W        W 3547  32.725  39.318  14.894
35330W        W 3548  44.518  32.316   3.241
35331W        W 3549  33.996  17.804   0.331
35332W        W 3550  42.999   9.719  13.222
35333W        W 3551  34.448  34.570  11.117
35334W        W 3552  31.301  26.107   0.307
35335W        W 3553   9.412  20.462   5.191
35336W        W 3554  26.179  26.417  11.269
35337W        W 3555  23.937  16.578  11.063
35338W        W 3556  16.244  11.633  14.115
35339W        W 3557  43.421  24.296  13.842
35340W        W 3558  42.360  10.176  11.479
35341W        W 3559   9.187   9.465  13.329
35342W        W 3560  32.034  40.244  12.303
35343W        W 3561  11.755  31.194   1.663
35344W        W 3562   3.336  26.436  14.062
35345W        W 3563  29.547  16.086   2.618
35346W        W 3564  18.067  29.078  14.911
35347W        W 3565  35.038  36.574   2.632
35348W        W 3566  12.164  20.213   3.143
35349W        W 3567  40.989  22.711  12.619
35350W        W 3568  20.181   2.761   0.773
35351W        W 3569  25.027   4.215  11.881
35352W        W 3570   5.241  19.722  14.005
35353W        W 3571   7.114   6.049   2.430
35354W        W 3572  25.959  25.656   2.678
35355W        W 3573   5.936  22.797  14.485
35356W        W 3574  29.356  14.814  13.518
35357W        W 3575  25.226  36.624  10.771
35358W        W 3576  12.619  10.163  12.484
35359W        W 3577  30.236   6.328  11.132
35360W        W 3578  10.886  30.720   3.435
35361W        W 3579  26.027  10.346  11.124
35362W        W 3580  11.639  36.148   4.220
35363W        W 3581  15.650   3.181   2.319
35364W        W 3582  37.005  36.860  11.562
35365W        W 3583  40.905  24.758   2.548
35366W        W 3584  19.293   9.713   0.414
35367W        W 3585  34.989  20.849   4.767
35368W        W 3586  18.438  42.285   0.478
35369W        W 3587  32.927  15.451  11.097
35370W        W 3588   2.993   7.022   1.650
35371W        W 3589  22.307  31.529   2.664
35372W        W 3590  43.470   6.697   3.925
35373W        W 3591  11.257  32.486   3.795
35374W        W 3592  29.551  17.989  12.877
35375W        W 3593  37.145  22.611   1.836
35376W        W 3594   6.681  20.457  12.853
35377W        W 3595  15.782  38.299  11.664
35378W        W 3596  33.870  25.442  10.442
35379W        W 3597  17.190  20.195  10.639
35380W        W 3598  17.164  42.887  10.093
35381W        W 3599  24.594  22.563  14.889
35382W        W 3600  16.989  18.126  11.780
35383W        W 3601  21.180  29.593  12.034
35384W        W 3602  26.051  19.348  13.317
35385W        W 3603  37.602  19.075   4.562
35386W        W 3604  37.073   4.217  14.533
35387W        W 3605  18.545   3.997   3.696
35388W        W 3606  13.337  10.408  13.654
35389W        W 3607  13.170  15.008   1.600
35390W        W 3608  17.710  20.736  10.890
35391W        W 3609   5.422  16.907  11.628
35392W        W 3610  22.433   2.244   2.691
35393W        W 3611  41.666  28.196  12.887
35394W        W 3612   4.284  36.453   1.004
35395W        W 3613  10.041   0.818   4.519
35396W        W 3614  31.869   0.472  12.170
35397W        W 3615  31.200  33.845  13.398
35398W        W 3616  29.890  37.919   4.534
35399W        W 3617  17.819   3.225  14.286
35400W        W 3618  33.962  41.494  12.785
35401W        W 3619   0.206  27.393   3.353
35402W        W 3620   8.321  41.878   2.841
35403W        W 3621   4.876  17.612  11.150
35404W        W 3622  26.990  25.257   4.880
35405W        W 3623  41.844   1.281  13.403
35406W        W 3624  16.558  27.014   1.802
35407W        W 3625  13.266  21.659   3.627
35408W        W 3626  41.943  23.443  13.429
35409W        W 3627  13.622  35.321   3.660
35410W        W 3628  40.911  43.943  14.920
35411W        W 3629  26.560  35.785   2.321
35412W        W 3630  11.161  18.202   3.542
35413W        W 3631  40.985  42.752   2.713
35414W        W 3632   4.669  31.045   2.877
35415W        W 3633  37.325  30.957   2.202
35416W        W 3634  39.171   4.335   0.374
35417W        W 3635  23.841  16.355   1.724
35418W        W 3636  44.405  22.707  12.995
35419W        W 3637   3.335  14.190   9.864
35420W        W 3638  28.708  43.089   1.486
35421W        W 3639   3.667   4.050   2.763
35422W        W 3640   7.718  34.583  12.954
35423W        W 3641  31.569   3.135  14.925
35424W        W 3642   4.433   6.923   1.887
35425W        W 3643  40.402   2.974   1.258
35426W        W 3644   0.705  25.041   1.412
35427W        W 3645  25.028   7.203   1.759
35428W        W 3646  10.145  12.759   4.429
35429W        W 3647  18.385  10.386  13.007
35430W        W 3648   3.648   3.471  10.688
35431W        W 3649  41.728  22.016   4.115
35432W        W 3650   4.935  31.822  13.064
35433W        W 3651  24.603  18.156   1.581
35434W        W 3652   7.425  10.427  10.656
35435W        W 3653  42.879  37.556   4.914
35436W        W 3654   3.259  19.779   3.221
35437W        W 3655   0.513  19.306   0.922
35438W        W 3656   1.055  13.350   0.827
35439W        W 3657  33.640  39.341   3.700
35440W        W 3658  19.738  25.000   1.544
35441W        W 3659   8.907  40.665  13.047
35442W        W 3660  36.449   6.757   0.849
35443W        W 3661  20.966   9.429   2.444
35444W        W 3662  35.514  10.292   4.823
35445W        W 3663  30.636  44.006   3.643
35446W        W 3664  36.781   7.158  11.283
35447W        W 3665  35.575   8.289  13.388
35448W        W 3666  29.049  15.535  13.917
35449W        W 3667  40.764  37.100   0.373
35450W        W 3668  22.672  34.694  12.535
35451W        W 3669  34.194   4.471   0.493
35452W        W 3670  30.301  15.826  10.176
35453W        W 3671  35.390  30.952   4.145
35454W        W 3672   9.604  38.563   2.243
35455W        W 3673   4.401  39.127   4.526
35456W        W 3674  26.928  33.626   3.034
35457W        W 3675  19.287   7.747  12.451
35458W        W 3676  11.327  35.434  12.555
35459W        W 3677  44.932  35.274   2.987
35460W        W 3678  29.584  41.239  11.238
35461W        W 3679   2.790   0.365  14.310
35462W        W 3680   9.198  18.591   1.008
35463W        W 3681   7.174   6.884   3.363
35464W        W 3682  39.042  39.600  10.667
35465W        W 3683  27.456  40.963   3.413
35466W        W 3684  30.051  22.053  10.918
35467W        W 3685  39.914  30.065   3.847
35468W        W 3686  11.688   1.311  12.820
35469W        W 3687  21.435  41.157   3.276
35470W        W 3688   9.030  29.857   0.940
35471W        W 3689  20.603  31.433   1.079
35472W        W 3690  13.086  33.387  14.767
35473W        W 3691   3.320  10.743  12.976
35474W        W 3692  41.420  22.460  13.877
35475W        W 3693  12.180  39.717  11.634
35476W        W 3694  23.207  16.584   0.590
35477W        W 3695  36.919  35.480   0.899
35478W        W 3696  21.132  22.778   0.129
35479W        W 3697   0.834   1.299  10.623
35480W        W 3698  17.020  20.810   4.158
35481W        W 3699  20.322   3.398   1.743
35482W        W 3700   6.267   3.180  10.683
35483W        W 3701   4.740   2.450   4.272
35484W        W 3702   5.469  24.436   2.187
35485W        W 3703  43.315   3.226  13.371
35486W        W 3704  39.036  20.508  12.178
35487W        W 3705  34.938  30.182   4.335
35488W        W 3706  42.215  12.333  12.081
35489W        W 3707  30.623  12.071  11.048
35490W        W 3708   1.030  23.173  11.581
35491W        W 3709   6.804  25.692  12.787
35492W        W 3710  20.675  14.309  11.985
35493W        W 3711  11.539  15.740   1.992
35494W        W 3712  39.423  24.271  14.317
35495W        W 3713   6.726  11.690   3.205
35496W        W 3714  22.202  27.205  14.383
35497W        W 3715  17.726   3.286  12.620
35498W        W 3716  14.496  28.982   1.885
35499W        W 3717  38.694  32.975   4.551
35500W        W 3718  35.497  43.311  13.987
35501W        W 3719  22.942  26.168   2.748
35502W        W 3720  10.331  10.328   3.134
35503W        W 3721  34.593  13.218   2.754
35504W        W 3722   1.739  20.827  10.023
35505W        W 3723  17.039   9.281   2.313
35506W        W 3724  21.808  29.081  12.936
35507W        W 3725  10.403  20.610  10.621
35508W        W 3726  38.449  22.010   1.865
35509W        W 3727   4.160   8.962  14.573
35510W        W 3728   7.415  30.924  14.798
35511W        W 3729  13.305  12.118  11.566
35512W        W 3730   9.397  21.285  12.304
35513W        W 3731  33.027  24.064  13.126
35514W        W 3732  20.040  44.489  12.056
35515W        W 3733  39.835  10.162   1.468
35516W        W 3734  40.463  43.286  11.692
35517W        W 3735  12.096  40.081   1.705
35518W        W 3736   0.048  11.980  11.121
35519W        W 3737   9.261  44.974  14.523
35520W        W 3738  12.669  35.605  12.554
35521W        W 3739  24.061  11.841   2.212
35522W        W 3740   3.341  26.204   3.928
35523W        W 3741   8.755   6.311  13.086
35524W        W 3742  14.728  19.310  13.345
35525W        W 3743   7.310  14.228  12.952
35526W        W 3744  12.345   9.676   0.465
35527W        W 3745  24.964  41.789   0.594
35528W        W 3746  15.814  13.159   3.380
35529W        W 3747   3.796  27.059  14.108
35530W        W 3748  29.574   4.774   3.610
35531W        W 3749  12.128   0.127   3.187
35532W        W 3750  44.943  27.914  13.476
35533W        W 3751  36.596  29.440   2.364
35534W        W 3752  39.073  26.646   2.920
35535W        W 3753   3.342  41.569   4.581
35536W        W 3754  10.565  23.502  11.146
35537W        W 3755  24.615   9.216   1.458
35538W        W 3756  34.861   6.465   1.878
35539W        W 3757  41.170   9.327   2.360
35540W        W 3758   0.454  22.940  14.516
35541W        W 3759   9.752  30.166  12.830
35542W        W 3760  39.328  19.256  14.815
35543W        W 3761  37.788  10.845  12.859
35544W        W 3762  27.111   5.513  10.894
35545W        W 3763  41.129  35.591  12.845
35546W        W 3764  43.981  33.868   4.372
35547W        W 3765   7.880   5.749  12.289
35548W        W 3766  35.921  43.989  14.230
35549W        W 3767  23.082  23.154  11.254
35550W        W 3768  10.557   2.322   2.753
35551W        W 3769   9.843  20.880   3.106
35552W        W 3770  11.177  32.017   1.799
35553W        W 3771  28.855  37.361  12.478
35554W        W 3772  40.633   2.684  13.768
35555W        W 3773  39.965  22.585   3.722
35556W        W 3774   3.975   4.976   2.532
35557W        W 3775   2.027   4.135  11.209
35558W        W 3776  23.614  30.496  10.983
35559W        W 3777  43.982  41.304  13.430
35560W        W 3778  37.207  22.608  13.262
35561W        W 3779  41.367  18.221  10.659
35562W        W 3780  36.316  40.601   4.384
35563W        W 3781  25.570  34.225  12.545
35564W        W 3782  19.047  31.125  14.306
35565W        W 3783  15.124  27.709   1.223
35566W        W 3784  32.082  16.001  10.261
35567W        W 3785  32.975  21.803  11.236
35568W        W 3786  38.792  12.610  13.880
35569W        W 3787  36.412  20.580  14.327
35570W        W 3788  41.331  39.601   0.341
35571W        W 3789  19.212  33.111   2.353
35572W        W 3790   5.239  11.796   0.969
35573W        W 3791   3.877   3.036   1.111
35574W        W 3792   7.973  27.658  12.592
35575W        W 3793   1.821  31.842   1.014
35576W        W 3794  25.116  24.719   0.730
35577W        W 3795  14.691  14.848   4.380
35578W        W 3796  37.520  11.170  11.595
35579W        W 3797  39.647  22.584  14.268
35580W        W 3798  39.816   8.135   4.820
35581W        W 3799   5.852  16.851  13.029
35582W        W 3800  27.890  36.771   1.713
35583W        W 3801  17.811  36.861  14.933
35584W        W 3802  16.705   2.886   4.710
35585W        W 3803  21.758   2.272   3.817
35586W        W 3804  12.669  19.783   2.819
35587W        W 3805   0.770   0.218  10.733
35588W        W 3806  42.798  36.859   1.787
35589W        W 3807  43.600   7.277  14.771
35590W        W 3808  24.560  24.508   4.225
35591W        W 3809  16.199  10.796  12.896
35592W        W 3810  40.440   7.603  13.312
35593W        W 3811  23.543  17.173   1.195
35594W        W 3812  38.338  20.186  12.148
35595W        W 3813  40.389  15.095  12.650
35596W        W 3814  41.732  35.119   0.298
35597W        W 3815  44.431   8.424   2.680
35598W        W 3816  44.195  32.871   0.455
35599W        W 3817  11.797  42.302  10.348
35600W        W 3818  37.368  44.835   0.242
35601W        W 3819  36.762  21.093   1.650
35602W        W 3820   6.150   4.874   1.283
35603W        W 3821  22.899  12.230   4.521
35604W        W 3822  38.944  38.110   2.288
35605W        W 3823   7.237   6.753  10.756
35606W        W 3824  40.358  26.156   4.539
35607W        W 3825  21.370  19.922   3.670
35608W        W 3826  16.062   7.364   3.744
35609W        W 3827  16.713  18.359  12.150
35610W        W 3828  43.370  18.307  14.993
35611W        W 3829  36.028  41.537   1.825
35612W        W 3830  44.962  39.169   4.678
35613W        W 3831  24.774  22.546  11.573
35614W        W 3832  11.732  21.713   1.752
35615W        W 3833  20.022  21.210   3.872
35616W        W 3834  20.977  31.015  14.414
35617W        W 3835   6.498  13.181  14.501
35618W        W 3836  10.379  43.314  12.409
35619W        W 3837   5.152  33.238  14.363
35620W        W 3838  39.021  37.928  10.815
35621W        W 3839  29.070  21.005  12.377
35622W        W 3840   5.181  38.078   4.662
35623W        W 3841  44.676   0.725  13.362
35624W        W 3842  41.801  30.424  12.109
35625W        W 3843  12.620  23.670  14.705
35626W        W 3844   6.270  16.947  13.305
35627W        W 3845  16.117  12.779  12.372
35628W        W 3846  14.286  27.156   4.174
35629W        W 3847  27.383  31.878  12.779
35630W        W 3848  29.616  19.189  10.518
35631W        W 3849  26.495   8.814  14.912
35632W        W 3850  27.884  38.933   4.697
35633W        W 3851  40.328  11.329  13.739
35634W        W 3852  15.232   9.043   4.897
35635W        W 3853  34.621  33.647   3.254
35636W        W 3854  39.934  21.795   0.219
35637W        W 3855  40.345  24.962  13.789
35638W        W 3856  33.460   8.842   3.015
35639W        W 3857  29.014  38.860  14.525
35640W        W 3858   7.212  11.689  11.184
35641W        W 3859   4.789  30.713  10.216
35642W        W 3860  27.557  38.409   2.969
35643W        W 3861  10.184  39.555   1.329
35644W        W 3862  39.159  23.796  11.198
35645W        W 3863  18.070  20.252   1.411
35646W        W 3864  11.198  25.711  13.346
35647W        W 3865  34.470  27.084   5.809
35648W        W 3866  19.710   4.469  11.904
35649W        W 3867  28.964  42.750   3.251
35650W        W 3868  25.309   8.647  12.448
35651W        W 3869  25.720  28.457  14.988
35652W        W 3870   6.679   9.262   1.960
35653W        W 3871  22.742  26.974  10.692
35654W        W 3872   5.620  28.234   0.258
35655W        W 3873  13.250  28.193  14.040
35656W        W 3874  30.145   6.966   0.557
35657W        W 3875  14.360  10.422  12.094
35658W        W 3876   8.695  36.400  11.190
35659W        W 3877  36.066   3.424  12.694
35660W        W 3878  32.480  27.428  12.583
35661W        W 3879  17.183  38.556  10.938
35662W        W 3880  27.645  28.004   0.410
35663W        W 3881  30.427  41.443  11.533
35664W        W 3882  29.086  35.616   3.327
35665W        W 3883  29.126  18.243   4.243
35666W        W 3884  27.395  43.185  14.954
35667W        W 3885  10.629  26.917  10.712
35668W        W 3886   4.902  40.320   4.638
35669W        W 3887  31.422  21.074  13.937
35670W        W 3888   1.580  16.335  14.694
35671W        W 3889  20.224  32.613  11.563
35672W        W 3890  42.167  32.090  11.162
35673W        W 3891   1.440  30.247  13.901
35674W        W 3892  17.648  24.746  11.965
35675W        W 3893   5.537  25.502  14.314
35676W        W 3894  26.916   0.558   3.366
35677W        W 3895   7.997   4.878  11.946
35678W        W 3896   2.970  16.706   0.120
35679W        W 3897  44.481   2.464   3.135
35680W        W 3898  34.659  10.276   0.825
35681W        W 3899   0.434   2.533   4.400
35682W        W 3900  36.060   2.379  14.653
35683W        W 3901  42.013  39.529   3.577
35684W        W 3902  37.124  26.182   3.699
35685W        W 3903   2.973  19.900   0.905
35686W        W 3904   8.251   4.748   2.645
35687W        W 3905  24.208  10.297   1.728
35688W        W 3906   5.601  17.400   2.440
35689W        W 3907  34.879  25.306   2.820
35690W        W 3908  26.661  26.055  14.241
35691W        W 3909  44.520   6.333   1.802
35692W        W 3910  17.193   1.274  10.232
35693W        W 3911  42.425  23.575  11.890
35694W        W 3912  24.973   2.328   4.029
35695W        W 3913  20.548   4.283   2.847
35696W        W 3914  29.417  38.510   3.260
35697W        W 3915  29.453  34.479  14.822
35698W        W 3916  12.197  21.116  13.091
35699W        W 3917  15.449  26.009  12.485
35700W        W 3918  14.607  22.200   3.814
35701W        W 3919  22.580  24.960   2.335
35702W        W 3920  23.031  11.078   2.788
35703W        W 3921  30.105  43.436  13.086
35704W        W 3922  28.929  41.549   3.630
35705W        W 3923  14.091  18.030  13.461
35706W        W 3924   7.571  36.568   4.186
35707W        W 3925  17.954  11.327   5.016
35708W        W 3926  25.000  18.087  13.484
35709W        W 3927  25.962  20.977   4.091
35710W        W 3928  34.666  28.061  12.446
35711W        W 3929  34.378  14.421  11.707
35712W        W 3930  26.507  15.607   3.831
35713W        W 3931  17.764  32.441  13.914
35714W        W 3932  41.060   2.645  10.215
35715W        W 3933  13.405   1.259   1.868
35716W        W 3934  21.479  20.863   1.509
35717W        W 3935  42.725  29.195  14.313
35718W        W 3936  44.757  38.305  13.312
35719W        W 3937  20.948  39.416  14.060
35720W        W 3938   2.930   9.417  14.697
35721W        W 3939  38.871  13.264  11.955
35722W        W 3940  17.172   0.192  11.087
35723W        W 3941  43.289  28.090   2.907
35724W        W 3942  29.708  37.279  10.706
35725W        W 3943  36.012  29.145   0.780
35726W        W 3944   6.326  33.658   4.963
35727W        W 3945  36.825   5.328   2.396
35728W        W 3946  26.904  22.607   2.283
35729W        W 3947  21.570   7.192  10.575
35730W        W 3948  43.517  19.552  14.327
35731W        W 3949   3.822  44.320   0.289
35732W        W 3950  26.588   9.338   1.391
35733W        W 3951   4.214  43.967   4.539
35734W        W 3952  10.724   3.656   4.667
35735W        W 3953  12.296  37.866   0.766
35736W        W 3954  15.744  28.748   3.681
35737W        W 3955  24.175   1.509   9.942
35738W        W 3956  15.726   9.602  12.050
35739W        W 3957   1.983  31.087   3.864
35740W        W 3958  35.209  22.093   4.554
35741W        W 3959   3.510   3.294   3.845
35742W        W 3960  18.294  24.651  14.695
35743W        W 3961  29.452  22.914   1.257
35744W        W 3962  11.684  30.712  12.344
35745W        W 3963  28.371   4.794   1.846
35746W        W 3964  18.200  15.818   0.307
35747W        W 3965  23.823  14.450   4.233
35748W        W 3966  44.313  27.619   2.296
35749W        W 3967  30.937  13.634   4.839
35750W        W 3968  13.164  20.066   3.260
35751W        W 3969  40.487  29.394   3.874
35752W        W 3970  29.258  20.104  10.900
35753W        W 3971  44.257  11.144  11.640
35754W        W 3972   1.875   6.404   4.544
35755W        W 3973  17.396  37.898   3.336
35756W        W 3974   3.679  18.495   5.055
35757W        W 3975  24.743  38.927   3.608
35758W        W 3976   0.844  12.398   0.032
35759W        W 3977  20.137  39.489  12.304
35760W        W 3978  43.276   4.416  11.974
35761W        W 3979  34.788  39.501   3.411
35762W        W 3980  35.905  21.755  12.587
35763W        W 3981  29.605  26.988  14.427
35764W        W 3982  24.413  11.189   3.608
35765W        W 3983  38.592  16.724   3.645
35766W        W 3984  25.970  16.378  12.936
35767W        W 3985  24.840  13.713   1.816
35768W        W 3986  30.016  41.481  11.111
35769W        W 3987  41.387  25.656   4.081
35770W        W 3988  23.588   3.982   3.668
35771W        W 3989  35.512  29.711   1.354
35772W        W 3990  25.613  20.788  10.514
35773W        W 3991  34.009   9.907   3.250
35774W        W 3992  25.307  11.357   4.174
35775W        W 3993  44.943  41.471   1.920
35776W        W 3994  44.507  18.845  10.785
35777W        W 3995  29.057  18.898   2.296
35778W        W 3996  38.559  41.994   3.715
35779W        W 3997  43.909  29.648  10.937
35780W        W 3998  27.423  42.925  11.952
35781W        W 3999  15.840  32.638   1.360
35782W        W 4000  44.289   9.772   2.709
35783W        W 4001  18.318  27.438   2.544
35784W        W 4002  32.974   0.622   2.563
35785W        W 4003   9.761  29.672  13.125
35786W        W 4004  38.502  24.549   3.250
35787W        W 4005  20.405   5.247  11.858
35788W        W 4006   0.879   3.427   4.669
35789W        W 4007  17.133  35.912  12.621
35790W        W 4008  13.771  33.819  11.121
35791W        W 4009  28.386  10.344  12.525
35792W        W 4010  30.443  23.248   2.688
35793W        W 4011  25.170  18.821   4.189
35794W        W 4012  43.468   0.249   3.748
35795W        W 4013  17.391  11.756  10.170
35796W        W 4014   3.808  26.364   9.885
35797W        W 4015  25.661   0.666   2.775
35798W        W 4016  37.786  22.929  13.762
35799W        W 4017  10.937  29.916   3.757
35800W        W 4018  25.669  25.890  13.365
35801W        W 4019  15.649  26.104  11.204
35802W        W 4020   6.147  33.442  14.353
35803W        W 4021  24.922  25.465   2.716
35804W        W 4022   8.130  24.469  11.575
35805W        W 4023  33.689   4.695  10.719
35806W        W 4024  12.109  31.246  13.514
35807W        W 4025  29.645  13.856   3.182
35808W        W 4026  25.298  17.790   2.809
35809W        W 4027  44.288  35.441   4.633
35810W        W 4028  25.039  35.495  14.230
35811W        W 4029  37.409  37.348  14.313
35812W        W 4030  31.773  26.986   3.582
35813W        W 4031  43.370  17.360   9.626
35814W        W 4032  43.326  24.019  10.799
35815W        W 4033  16.325  25.748  11.561
35816W        W 4034   1.389  39.563  11.568
35817W        W 4035  29.629  23.616   3.688
35818W        W 4036   3.393   2.076   5.065
35819W        W 4037  10.246   2.914   0.183
35820W        W 4038  32.013  34.654  14.673
35821W        W 4039  40.347  15.726  12.912
35822W        W 4040   3.435  40.962  10.629
35823W        W 4041   6.759  43.580   1.050
35824W        W 4042  13.240  13.822   3.341
35825W        W 4043  10.657  12.672   2.298
35826W        W 4044  39.685   2.757   1.844
35827W        W 4045  16.631  17.180  13.490
35828W        W 4046  16.153  32.181   4.505
35829W        W 4047  38.914   4.780  12.327
35830W        W 4048  22.047  44.737   3.173
35831W        W 4049  36.421  27.359  11.394
35832W        W 4050  32.660   6.977  14.550
35833W        W 4051   9.425   1.642  11.538
35834W        W 4052  30.523  13.580   4.519
35835W        W 4053  33.976  44.705  11.564
35836W        W 4054  21.091  22.381   1.083
35837W        W 4055  29.513   6.386   1.569
35838W        W 4056  14.121  37.377   3.604
35839W        W 4057  32.054  42.379  12.512
35840W        W 4058  23.051  32.895  14.311
35841W        W 4059   0.018  14.158   0.244
35842W        W 4060   2.284  14.530   0.505
35843W        W 4061  28.451  12.063  10.659
35844W        W 4062   2.679  22.167   4.777
35845W        W 4063   0.465  37.600   1.841
35846W        W 4064  23.690   7.172   2.836
35847W        W 4065  32.022  19.077  11.945
35848W        W 4066   0.731  33.922   0.416
35849W        W 4067  26.164  10.923  14.341
35850W        W 4068   4.517  12.749   0.353
35851W        W 4069  28.492   6.701   3.210
35852W        W 4070   7.743  38.461  10.942
35853W        W 4071  39.041   6.868  11.551
35854W        W 4072  33.092  34.279  12.964
35855W        W 4073  40.841  30.519  14.923
35856W        W 4074  13.799   3.771   2.794
35857W        W 4075  19.207  11.227  14.476
35858W        W 4076  26.819  33.676  14.452
35859W        W 4077  37.958  12.941  13.478
35860W        W 4078  27.420  19.402  14.456
35861W        W 4079  33.747   9.092  14.819
35862W        W 4080  24.248  39.921   3.164
35863W        W 4081   6.838  22.483   1.343
35864W        W 4082   2.625  17.528  13.003
35865W        W 4083  24.574   4.257  11.561
35866W        W 4084  15.683  26.422   4.052
35867W        W 4085   9.279  13.638   4.517
35868W        W 4086  27.562  15.910  11.579
35869W        W 4087   9.790  27.612   0.959
35870W        W 4088   8.407  37.120  11.486
35871W        W 4089  43.195   0.852   0.826
35872W        W 4090  12.877  32.003   3.656
35873W        W 4091  39.731  30.441  12.350
35874W        W 4092   0.740  18.559   2.370
35875W        W 4093  20.890   9.262   0.936
35876W        W 4094   7.206   7.869   2.644
35877W        W 4095  21.700  22.084   4.854
35878W        W 4096  24.134   5.464   2.325
35879W        W 4097  17.752   2.029  12.024
35880W        W 4098  36.361   0.388  11.565
35881W        W 4099  36.835  18.209   1.249
35882W        W 4100  40.826  44.266   4.196
35883W        W 4101  37.401  37.879  11.602
35884W        W 4102  12.816   4.331  10.713
35885W        W 4103   7.802  40.053  12.361
35886W        W 4104  14.345   1.015   0.030
35887W        W 4105  27.615  41.378   4.707
35888W        W 4106  20.084  20.595  14.736
35889W        W 4107   2.770   8.697   2.015
35890W        W 4108  22.692  24.080   4.122
35891W        W 4109  32.832  19.209  13.502
35892W        W 4110  22.999  17.093   1.285
35893W        W 4111   1.996  29.986   0.862
35894W        W 4112   4.942  37.432  13.814
35895W        W 4113  12.221  28.177  14.319
35896W        W 4114  12.872  42.004   0.884
35897W        W 4115   9.901  37.878  13.160
35898W        W 4116  11.876   7.917   4.084
35899W        W 4117  12.351  20.963  14.402
35900W        W 4118  26.803  12.989   0.226
35901W        W 4119  13.862  39.271   2.582
35902W        W 4120   7.063  15.357   4.482
35903W        W 4121  10.311  14.495   4.202
35904W        W 4122  14.200  42.051   0.374
35905W        W 4123  40.398  10.201   3.290
35906W        W 4124  28.476  27.986  11.000
35907W        W 4125  33.852  24.589   0.570
35908W        W 4126  35.000  12.004  14.518
35909W        W 4127  32.961  30.476   9.570
35910W        W 4128  43.753  44.940   0.051
35911W        W 4129  11.867  38.403  10.375
35912W        W 4130  24.335  23.284  11.994
35913W        W 4131  44.992  12.888  14.818
35914W        W 4132  40.617  33.689  11.293
35915W        W 4133   6.776  21.986   2.327
35916W        W 4134  19.107  16.110   1.469
35917W        W 4135  35.845   4.936   1.650
35918W        W 4136  27.185  41.415   2.264
35919W        W 4137  25.065  33.370  11.917
35920W        W 4138  29.927  10.761  13.168
35921W        W 4139  37.753  11.710   1.704
35922W        W 4140  32.977  23.521   1.692
35923W        W 4141  27.020  12.298  11.991
35924W        W 4142  33.048  40.655   2.617
35925W        W 4143   0.979  36.001   2.164
35926W        W 4144   6.910  32.163   4.641
35927W        W 4145  14.352  29.637  10.295
35928W        W 4146  34.513  11.125   4.503
35929W        W 4147  12.714  24.549  11.044
35930W        W 4148  17.032  15.704  14.349
35931W        W 4149   0.776  41.921   1.489
35932W        W 4150  29.287  22.307   9.790
35933W        W 4151  29.744   7.957   0.873
35934W        W 4152   8.560  39.400   4.862
35935W        W 4153   9.104   5.831   3.144
35936W        W 4154  41.718   2.578  14.050
35937W        W 4155  22.741  12.269   1.034
35938W        W 4156  26.756  37.330  10.727
35939W        W 4157  25.059  27.471   2.213
35940W        W 4158  31.626  26.586   4.570
35941W        W 4159  22.091  35.401   1.175
35942W        W 4160  21.090   3.686   3.682
35943W        W 4161  30.211  35.303  10.738
35944W        W 4162   4.393  39.392   2.256
35945W        W 4163  11.689  39.854   3.328
35946W        W 4164  37.993   5.282  14.420
35947W        W 4165  15.365  22.332   2.824
35948W        W 4166   5.435  11.600  14.568
35949W        W 4167  44.365  30.440  10.317
35950W        W 4168  28.857  22.697  11.110
35951W        W 4169  18.629  17.207   4.404
35952W        W 4170  42.758  18.272  13.290
35953W        W 4171  42.710  11.853   1.474
35954W        W 4172  12.849  14.601  12.025
35955W        W 4173  43.798   4.376   1.240
35956W        W 4174  39.515  37.624   3.614
35957W        W 4175  21.731  12.690   2.134
35958W        W 4176  18.734  37.652   2.738
35959W        W 4177  26.768  13.748  11.854
35960W        W 4178  22.127   7.388  10.673
35961W        W 4179  15.282  28.408   0.754
35962W        W 4180  12.201  44.892  14.383
35963W        W 4181  41.514  22.581  12.960
35964W        W 4182  31.329  12.058  12.446
35965W        W 4183   9.375  12.799   0.827
35966W        W 4184  27.827  21.893  12.966
35967W        W 4185  37.611  36.836   0.857
35968W        W 4186   7.952  43.289  13.373
35969W        W 4187  15.915  24.783  11.720
35970W        W 4188  43.981   6.062   0.039
35971W        W 4189  39.446   8.707   2.239
35972W        W 4190  12.652  13.187  11.851
35973W        W 4191  27.568  16.582  14.367
35974W        W 4192  43.834  18.779   4.494
35975W        W 4193  35.868  25.487   1.725
35976W        W 4194  14.321   1.936  13.458
35977W        W 4195  17.187  44.373   1.899
35978W        W 4196  19.691   3.210  12.577
35979W        W 4197  29.394   1.032  11.066
35980W        W 4198   2.814  12.307  14.498
35981W        W 4199  34.974  31.660   2.713
35982W        W 4200  33.883  31.494   3.691
35983W        W 4201  16.336  31.624   0.280
35984W        W 4202  39.766  44.035  13.411
35985W        W 4203  29.034   5.201  11.422
35986W        W 4204  20.028  12.093   4.950
35987W        W 4205  36.575  31.164   4.787
35988W        W 4206  30.435   0.855   1.066
35989W        W 4207  15.216   0.705  12.413
35990W        W 4208   2.190  10.414   2.814
35991W        W 4209  16.569   4.779  11.445
35992W        W 4210  42.215   9.667   0.408
35993W        W 4211  30.494  31.148   3.847
35994W        W 4212  26.154  33.183   4.233
35995W        W 4213  34.809   7.642  12.387
35996W        W 4214  18.379  37.624   2.327
35997W        W 4215  39.468  40.266   0.327
35998W        W 4216  25.114  21.808  14.861
35999W        W 4217  17.339  10.591  13.999
36000W        W 4218  14.091  37.296   2.132
36001W        W 4219   8.647   1.781   4.412
36002W        W 4220  11.712  25.543  13.133
36003W        W 4221   5.483   2.334   1.841
36004W        W 4222  32.812  38.403  12.943
36005W        W 4223  41.446  20.503  11.151
36006W        W 4224   1.773   5.385   4.548
36007W        W 4225   0.971  13.217   4.145
36008W        W 4226  23.786   0.080  13.031
36009W        W 4227  11.446   5.360  10.798
36010W        W 4228   1.507   8.431  10.523
36011W        W 4229  36.496   2.336  11.659
36012W        W 4230  42.085   5.756  13.857
36013W        W 4231  28.709   9.019   4.954
36014W        W 4232  17.129   6.948  14.877
36015W        W 4233   0.092  30.533   3.741
36016W        W 4234   6.418  12.644  12.903
36017W        W 4235  40.209  25.096  10.221
36018W        W 4236  25.019  30.482  13.290
36019W        W 4237  15.327  27.497   3.309
36020W        W 4238  30.538   3.738   3.883
36021W        W 4239   1.193  26.356  12.095
36022W        W 4240  35.506  13.074  12.903
36023W        W 4241   1.673  20.642  11.825
36024W        W 4242  39.809  32.315  12.978
36025W        W 4243  19.950  18.200  14.828
36026W        W 4244   7.898  18.587  11.848
36027W        W 4245  19.708  33.303  12.039
36028W        W 4246  34.063  40.069  12.954
36029W        W 4247   0.282  14.046  13.474
36030W        W 4248  27.037  35.344  11.385
36031W        W 4249  29.648  24.760  12.581
36032W        W 4250   0.938   5.703   3.266
36033W        W 4251  31.088  44.883   3.554
36034W        W 4252  18.513  24.223   3.791
36035W        W 4253  18.038  21.199   1.979
36036W        W 4254  17.577  41.970   0.834
36037W        W 4255  21.084   2.704  12.954
36038W        W 4256  24.064   4.159   3.649
36039W        W 4257  14.821  10.561  14.676
36040W        W 4258  34.360  42.877  11.089
36041W        W 4259   6.627  21.010   2.246
36042W        W 4260  23.085  23.074   1.239
36043W        W 4261  15.521   2.302   2.293
36044W        W 4262  36.807  23.045  13.396
36045W        W 4263  32.553  14.582  12.696
36046W        W 4264  42.207  28.741   0.307
36047W        W 4265  31.131  25.151  13.445
36048W        W 4266  36.956  44.786  14.319
36049W        W 4267   4.263  13.100   4.628
36050W        W 4268  12.019  35.143  13.955
36051W        W 4269   2.956  21.346  11.685
36052W        W 4270   6.284  12.532   4.143
36053W        W 4271   0.069  28.167   2.169
36054W        W 4272  39.897  32.251   2.224
36055W        W 4273  15.714   5.391   4.145
36056W        W 4274   6.333  41.164  11.679
36057W        W 4275  27.583   5.458  11.081
36058W        W 4276   6.542  10.273   1.993
36059W        W 4277  27.530  19.484   1.667
36060W        W 4278  13.498   9.248  12.645
36061W        W 4279   5.530  26.690   1.926
36062W        W 4280  23.796   0.507   2.178
36063W        W 4281  39.417  43.811   1.184
36064W        W 4282  33.427  42.896   1.655
36065W        W 4283  11.386   7.851  12.025
36066W        W 4284   5.988   5.791  12.041
36067W        W 4285   4.265   3.456   4.592
36068W        W 4286  33.879  31.868  10.887
36069W        W 4287  19.741  31.355   2.224
36070W        W 4288  16.145  34.424   2.397
36071W        W 4289  43.969  27.646   1.463
36072W        W 4290  14.834  22.932   0.381
36073W        W 4291   6.459  14.810   0.915
36074W        W 4292  13.155   6.642   0.740
36075W        W 4293  29.692  11.853  11.899
36076W        W 4294   8.942  41.049   0.833
36077W        W 4295  19.506  11.774   2.313
36078W        W 4296   6.241  17.121   0.796
36079W        W 4297  11.883  43.642  13.448
36080W        W 4298  17.265  15.682   4.708
36081W        W 4299  20.345  37.558   4.375
36082W        W 4300   7.312  36.367  11.133
36083W        W 4301  22.689  27.342   3.655
36084W        W 4302  41.401  33.076   3.403
36085W        W 4303  13.751  24.168  10.921
36086W        W 4304  37.570  42.905   4.737
36087W        W 4305  38.434  33.992   4.643
36088W        W 4306  25.672  37.353   0.163
36089W        W 4307  43.898  22.955   3.214
36090W        W 4308  16.793  43.921   3.529
36091W        W 4309  19.616  31.686  12.407
36092W        W 4310  21.315   6.426  14.436
36093W        W 4311  21.771  13.166   3.272
36094W        W 4312  28.072  23.471  14.354
36095W        W 4313   1.417  17.947   3.895
36096W        W 4314  17.649  12.737   1.695
36097W        W 4315  29.302  31.903   2.149
36098W        W 4316  37.967  16.900  11.606
36099W        W 4317  25.659  10.981   4.060
36100W        W 4318  15.653  38.449   4.076
36101W        W 4319   5.304  31.077   4.597
36102W        W 4320  19.643  17.194   5.340
36103W        W 4321  41.563  34.047   0.343
36104W        W 4322  44.294  11.504   0.768
36105W        W 4323  43.296  12.240  13.440
36106W        W 4324  25.114  41.860  13.335
36107W        W 4325  20.183   0.089   2.001
36108W        W 4326  17.952  26.665  11.701
36109W        W 4327  15.271  16.849  12.323
36110W        W 4328  44.485  41.979   4.299
36111W        W 4329  41.676  38.293   0.384
36112W        W 4330  26.477   3.509  11.616
36113W        W 4331  17.446  38.614  13.045
36114W        W 4332  15.703  35.428   1.654
36115W        W 4333  37.484   9.184   0.842
36116W        W 4334  35.957  34.606  10.770
36117W        W 4335  29.349  36.713   2.276
36118W        W 4336  22.949  29.039   3.308
36119W        W 4337   7.839   3.789   0.345
36120W        W 4338  33.976   5.516  13.010
36121W        W 4339  12.885  22.542  10.676
36122W        W 4340  33.060   9.476  14.579
36123W        W 4341  43.496  11.674  10.973
36124W        W 4342  21.645  25.117  11.078
36125W        W 4343  31.855  24.513   2.194
36126W        W 4344  27.641  16.791  12.995
36127W        W 4345  11.283  23.178  13.847
36128W        W 4346  30.945   2.053   0.746
36129W        W 4347  30.629  19.739  13.896
36130W        W 4348  35.486   2.944   0.940
36131W        W 4349  32.511  31.087  11.592
36132W        W 4350  29.622  42.284  11.224
36133W        W 4351  41.896  37.161  10.694
36134W        W 4352  11.587  10.738   2.011
36135W        W 4353   1.765   4.904   0.458
36136W        W 4354  21.068   8.229   1.908
36137W        W 4355  17.197   6.861  12.912
36138W        W 4356  16.566  42.902   1.585
36139W        W 4357  40.668  32.407  12.554
36140W        W 4358  19.862  21.469   1.880
36141W        W 4359  38.549   6.804  11.354
36142W        W 4360  35.935  42.860  10.973
36143W        W 4361  35.513   8.352   0.205
36144W        W 4362  21.116   1.712  12.889
36145W        W 4363  25.452   0.370  14.920
36146W        W 4364   4.464  44.072  11.520
36147W        W 4365   4.185  36.506  10.359
36148W        W 4366  11.832  39.113  13.020
36149W        W 4367  42.036   6.801  14.751
36150W        W 4368   2.531   7.486  12.477
36151W        W 4369  25.151  35.407   4.202
36152W        W 4370  18.752  33.943   1.140
36153W        W 4371  18.698  41.009  14.674
36154W        W 4372   7.741   5.293  12.106
36155W        W 4373  18.519  42.577   3.400
36156W        W 4374  15.463   0.787  13.142
36157W        W 4375   7.639   4.256   1.966
36158W        W 4376  34.659  18.753  13.506
36159W        W 4377  34.416  22.313  10.701
36160W        W 4378  41.753  13.617  12.539
36161W        W 4379  18.552   7.275   2.196
36162W        W 4380  13.409   8.212  14.426
36163W        W 4381   9.941  24.011   0.022
36164W        W 4382  41.581   2.989   3.252
36165W        W 4383  44.069  28.720   1.004
36166W        W 4384  40.291   7.767   2.351
36167W        W 4385  13.179  35.556   3.375
36168W        W 4386  34.420  43.447   2.345
36169W        W 4387  33.643  38.865  11.150
36170W        W 4388  27.832  43.318   4.733
36171W        W 4389   5.892   9.384   4.709
36172W        W 4390   8.435  43.463  13.454
36173W        W 4391  19.598  13.902   3.573
36174W        W 4392  42.463  43.766   4.219
36175W        W 4393  36.756  31.581   3.613
36176W        W 4394  39.806   4.132  13.798
36177W        W 4395  20.642  28.945   0.241
36178W        W 4396  26.178   8.331  12.404
36179W        W 4397  12.845  32.122   0.331
36180W        W 4398   3.293  14.323  12.467
36181W        W 4399  30.507  15.734   4.589
36182W        W 4400  27.848  42.287  11.913
36183W        W 4401  41.246  35.040   1.062
36184W        W 4402  33.013  24.245   1.855
36185W        W 4403  43.632  11.787   0.276
36186W        W 4404  36.323  28.016  11.041
36187W        W 4405   9.788  29.437   2.828
36188W        W 4406  23.531  25.361  14.484
36189W        W 4407  41.891   8.902  14.347
36190W        W 4408  11.815  33.048   1.766
36191W        W 4409  26.224  17.213  12.012
36192W        W 4410  30.199   3.413   3.612
36193W        W 4411   6.137   9.118  13.292
36194W        W 4412  18.968   4.330   0.683
36195W        W 4413  40.839  31.415   2.805
36196W        W 4414  33.466  12.883  14.602
36197W        W 4415  17.263  37.025  11.211
36198W        W 4416  36.093  30.211  10.481
36199W        W 4417   5.616  30.967  13.914
36200W        W 4418  12.929  12.857  11.138
36201W        W 4419  21.576  25.980  11.466
36202W        W 4420  11.203  38.612  11.521
36203W        W 4421   0.692  44.492   0.844
36204W        W 4422   7.186   1.422   2.615
36205W        W 4423  37.959   0.895  14.437
36206W        W 4424  31.061   0.655  11.047
36207W        W 4425  33.500  14.109  12.516
36208W        W 4426  37.477  40.075   3.375
36209W        W 4427  28.669  43.837  11.510
36210W        W 4428   2.596  35.742  11.269
36211W        W 4429  33.542   2.664   3.175
36212W        W 4430  31.879  33.687   4.592
36213W        W 4431  13.323  23.286  14.177
36214W        W 4432  28.221  20.585   3.221
36215W        W 4433  36.996  10.892  11.639
36216W        W 4434  35.030   8.548   2.907
36217W        W 4435  30.442  41.279  13.742
36218W        W 4436  34.031   9.098   0.417
36219W        W 4437  44.796  33.228   4.682
36220W        W 4438  37.396  31.761  12.892
36221W        W 4439  35.899  41.961  11.340
36222W        W 4440  11.889  22.276   3.158
36223W        W 4441   6.152  44.412   4.552
36224W        W 4442   9.254  10.284   3.854
36225W        W 4443   6.366  41.185   3.117
36226W        W 4444  32.103   5.742  14.327
36227W        W 4445   7.900  40.846  10.179
36228W        W 4446  12.166  38.021  11.923
36229W        W 4447  38.469  41.667   2.333
36230W        W 4448  38.026  24.298   0.790
36231W        W 4449  40.559   6.976  10.788
36232W        W 4450  38.012   5.463  11.575
36233W        W 4451  27.874  36.032  11.423
36234W        W 4452  15.605  14.256  13.361
36235W        W 4453  13.556  11.061  13.365
36236W        W 4454  15.168   8.545  11.074
36237W        W 4455   0.451  13.134  14.658
36238W        W 4456  20.139  43.317   2.334
36239W        W 4457  20.669  39.241  11.171
36240W        W 4458  35.623  26.992   2.792
36241W        W 4459   0.899   1.930  13.009
36242W        W 4460  22.339  43.566   3.739
36243W        W 4461  44.768  29.165   1.235
36244W        W 4462  43.480  27.926   0.288
36245W        W 4463  29.041  17.266  10.288
36246W        W 4464  29.690  44.092  10.667
36247W        W 4465  32.387  41.981  11.598
36248W        W 4466   8.638   4.741  11.155
36249W        W 4467   1.832  37.356  12.633
36250W        W 4468   4.913  15.265  14.426
36251W        W 4469  14.289   4.635  10.373
36252W        W 4470  20.507  38.867  10.191
36253W        W 4471   5.296   2.772   0.260
36254W        W 4472  26.548  23.263   3.676
36255W        W 4473  16.334  29.882  12.927
36256W        W 4474   7.369  21.465   5.073
36257W        W 4475  10.154  35.375   4.582
36258W        W 4476  25.765  30.710   1.002
36259W        W 4477  38.678  20.807  10.508
36260W        W 4478  18.739  11.157   2.751
36261W        W 4479  27.368   4.536   4.045
36262W        W 4480  16.155   9.569  11.051
36263W        W 4481  39.154  36.914  14.360
36264W        W 4482   0.298   6.913   2.242
36265W        W 4483  39.460   5.022  13.512
36266W        W 4484  17.776  39.498   1.067
36267W        W 4485  26.060  18.897   1.422
36268W        W 4486  29.620   2.996  12.006
36269W        W 4487   5.805  26.030  14.773
36270W        W 4488  10.186  34.922   4.853
36271W        W 4489  14.168  22.310  14.551
36272W        W 4490   0.021  42.269   1.212
36273W        W 4491  29.580  20.793  13.857
36274W        W 4492   9.234   9.733   1.627
36275W        W 4493  31.044   7.077  12.967
36276W        W 4494  12.811   0.737   2.243
36277W        W 4495  44.321  18.127   4.087
36278W        W 4496  41.292  34.381  14.758
36279W        W 4497  43.100  29.408  13.993
36280W        W 4498  19.043   5.488   1.653
36281W        W 4499  44.023  33.349  13.582
36282W        W 4500   2.716  44.500   2.635
36283W        W 4501  29.777  33.962  10.719
36284W        W 4502  44.858  17.017   3.718
36285W        W 4503  38.003  10.971   0.109
36286W        W 4504  42.214  23.674   1.715
36287W        W 4505   5.238  28.375   3.216
36288W        W 4506   3.977  28.620   4.199
36289W        W 4507  38.995  20.607  11.127
36290W        W 4508  37.510  10.922  13.434
36291W        W 4509   7.170   9.482   3.163
36292W        W 4510   6.335   3.283  13.019
36293W        W 4511  38.458  16.188   0.059
36294W        W 4512  40.779  13.298   2.364
36295W        W 4513  35.879  11.669  11.190
36296W        W 4514   7.112  35.428   0.667
36297W        W 4515   9.821  39.932   1.258
36298W        W 4516  23.325  11.707   1.690
36299W        W 4517  12.291  17.646  14.348
36300W        W 4518  41.275  31.161   4.540
36301W        W 4519   0.997  36.387  14.999
36302W        W 4520   9.753  33.054   1.762
36303W        W 4521  22.804   5.783  10.691
36304W        W 4522  21.717  19.593   5.042
36305W        W 4523  32.410   1.873   0.943
36306W        W 4524  23.618   7.798   3.469
36307W        W 4525  39.130   4.269   1.268
36308W        W 4526  38.738  44.824  14.944
36309W        W 4527  31.575  40.462  13.748
36310W        W 4528  19.540  43.606   2.701
36311W        W 4529  34.859  21.036   0.134
36312W        W 4530  12.699   8.935   4.666
36313W        W 4531   6.621  25.233   3.378
36314W        W 4532  17.122   4.886  12.001
36315W        W 4533  43.089  18.221   3.698
36316W        W 4534   2.467  17.272  11.170
36317W        W 4535  41.111  16.630  14.919
36318W        W 4536  29.907   8.329  12.061
36319W        W 4537  26.472  17.900   1.310
36320W        W 4538   7.595  29.609  14.562
36321W        W 4539  19.066   7.082   0.028
36322W        W 4540  24.195   4.829  10.349
36323W        W 4541   2.495  25.951  11.171
36324W        W 4542  44.828  42.958  10.611
36325W        W 4543  30.520   2.931  12.143
36326W        W 4544  13.155  21.730  13.385
36327W        W 4545  24.065  34.922  14.939
36328W        W 4546  34.949  27.865   3.524
36329W        W 4547  40.990   4.224   1.323
36330W        W 4548  26.722  24.467  14.757
36331W        W 4549  23.748  27.279   3.744
36332W        W 4550  22.511  24.598   4.298
36333W        W 4551  40.503  12.845  13.888
36334W        W 4552  17.973  40.870  12.801
36335W        W 4553   4.375  20.538  14.463
36336W        W 4554  43.278  18.235  10.668
36337W        W 4555  28.280  39.416  14.753
36338W        W 4556  42.978   6.687   3.158
36339W        W 4557   3.415  42.973   2.171
36340W        W 4558  39.845  27.234  14.898
36341W        W 4559  34.589  21.842  13.988
36342W        W 4560  12.163  21.547   4.532
36343W        W 4561  41.502  42.755   2.708
36344W        W 4562  26.563   0.273  11.907
36345W        W 4563   5.284  17.922   0.296
36346W        W 4564  21.257  13.777  13.002
36347W        W 4565   6.227  14.270  11.255
36348W        W 4566  10.889  24.868   4.334
36349W        W 4567   7.339  12.821   1.391
36350W        W 4568  17.500  28.240   2.741
36351W        W 4569  14.216  31.477  13.374
36352W        W 4570  37.518  17.220   1.676
36353W        W 4571  40.128   4.789   2.592
36354W        W 4572  43.014  40.465   0.482
36355W        W 4573   2.453  13.377   2.613
36356W        W 4574  13.159  29.185  13.517
36357W        W 4575   8.254  11.968   4.173
36358W        W 4576  36.432  19.137  12.003
36359W        W 4577   9.895   3.687  11.015
36360W        W 4578  16.310  19.761   1.671
36361W        W 4579  39.922  35.575   1.667
36362W        W 4580  30.869   9.898   2.816
36363W        W 4581   1.126  18.573   0.476
36364W        W 4582  38.401   2.638   2.311
36365W        W 4583   3.692  28.982   1.743
36366W        W 4584  27.923   9.176   2.270
36367W        W 4585   0.413  10.279   1.299
36368W        W 4586   6.291   8.043   1.777
36369W        W 4587   0.228  30.510   1.800
36370W        W 4588  43.028  39.545   0.920
36371W        W 4589  41.630  42.724  11.586
36372W        W 4590  35.386  34.589  10.935
36373W        W 4591  38.877   1.700  10.982
36374W        W 4592  38.936  23.279   1.707
36375W        W 4593  13.818  32.121   0.321
36376W        W 4594  29.192  39.888  12.068
36377W        W 4595   6.484  30.624   4.211
36378W        W 4596  37.969  32.610  14.422
36379W        W 4597  21.335  18.409   3.566
36380W        W 4598  27.522  28.483  14.335
36381W        W 4599  21.022  10.741  13.562
36382W        W 4600  23.057  12.701  12.004
36383W        W 4601   4.977  39.573   3.663
36384W        W 4602  17.335  42.283  11.902
36385W        W 4603  34.909  30.355  11.645
36386W        W 4604  26.985  24.008  14.907
36387W        W 4605  35.566   5.734  12.324
36388W        W 4606   5.476   9.284   3.714
36389W        W 4607  17.795  39.981  11.145
36390W        W 4608  32.018  27.978  13.527
36391W        W 4609  16.646  16.833   2.220
36392W        W 4610  40.616   0.631   1.775
36393W        W 4611  11.706  37.979  10.695
36394W        W 4612  40.753   7.728   5.137
36395W        W 4613  37.832  37.090  11.066
36396W        W 4614   7.442  20.360  14.835
36397W        W 4615  31.106  15.167   0.783
36398W        W 4616   1.739  43.259  14.274
36399W        W 4617   0.550  24.082   2.323
36400W        W 4618  20.753  35.848   3.261
36401W        W 4619  40.941   8.226   2.687
36402W        W 4620  16.759  26.827   2.234
36403W        W 4621   9.618  43.828  11.512
36404W        W 4622  36.344  41.547  13.972
36405W        W 4623  41.774  32.925   0.958
36406W        W 4624  43.741   6.216  12.018
36407W        W 4625  14.051   7.018   0.772
36408W        W 4626   0.259  38.457   0.466
36409W        W 4627  17.687  21.308  13.108
36410W        W 4628  19.651  36.555   5.103
36411W        W 4629  32.793  34.989  14.685
36412W        W 4630  17.839   0.512  13.360
36413W        W 4631  38.967  42.570   0.934
36414W        W 4632  35.093  37.028   3.880
36415W        W 4633  36.199   8.752  12.964
36416W        W 4634   0.521  31.162   3.352
36417W        W 4635   5.566  22.583   1.018
36418W        W 4636   4.419   1.493   4.809
36419W        W 4637   1.818  21.028   2.316
36420W        W 4638   4.411  19.253  10.712
36421W        W 4639  18.529  42.322  14.210
36422W        W 4640  23.121  23.482  14.910
36423W        W 4641  37.924  41.256  13.564
36424W        W 4642  19.463   4.930  11.840
36425W        W 4643  22.718   8.476  11.180
36426W        W 4644   4.170   8.767  11.712
36427W        W 4645  37.822  37.402   1.386
36428W        W 4646   6.342   3.135   0.953
36429W        W 4647  44.286  37.864  10.538
36430W        W 4648  22.208  27.134  12.866
36431W        W 4649  25.201   8.303   4.522
36432W        W 4650   8.202  10.213   4.717
36433W        W 4651   7.989  31.927  12.411
36434W        W 4652  10.911  11.358   0.627
36435W        W 4653  11.481  42.881  11.973
36436W        W 4654  11.196   9.163   0.897
36437W        W 4655  32.616  23.866   1.838
36438W        W 4656  10.140  32.439  14.500
36439W        W 4657  28.074  34.335  11.930
36440W        W 4658  18.566   8.673  10.693
36441W        W 4659  44.613  33.965  10.871
36442W        W 4660  19.306  17.541   4.024
36443W        W 4661  43.351  10.902   0.678
36444W        W 4662  16.731  22.556  12.317
36445W        W 4663   4.953  37.964   4.224
36446W        W 4664   4.477  44.897  10.761
36447W        W 4665  37.808   4.767  12.286
36448W        W 4666  22.741   8.766  13.804
36449W        W 4667  28.505  26.805   1.790
36450W        W 4668  16.721   4.247   3.560
36451W        W 4669  39.745  34.545  11.043
36452W        W 4670  23.646  42.774   1.338
36453W        W 4671   2.346  32.551   3.237
36454W        W 4672  10.816  32.365  12.590
36455W        W 4673  31.196   0.066  14.967
36456W        W 4674  14.677  16.552  14.505
36457W        W 4675   8.799   6.949   2.771
36458W        W 4676   7.490  10.210  12.556
36459W        W 4677  36.100  34.544   0.056
36460W        W 4678  13.812   5.770  14.960
36461W        W 4679  38.461  21.555   0.570
36462W        W 4680  27.018  24.851   3.080
36463W        W 4681  16.070  44.992   3.692
36464W        W 4682   4.840  16.688  10.943
36465W        W 4683  27.746   0.545   4.573
36466W        W 4684  14.579  15.258   4.685
36467W        W 4685  19.081  14.488  14.985
36468W        W 4686   8.965  44.462   3.290
36469W        W 4687  41.446  12.043   3.087
36470W        W 4688  17.258  37.438   1.783
36471W        W 4689  14.827   9.944  13.314
36472W        W 4690  41.232  15.673  11.075
36473W        W 4691  39.314  42.413  13.263
36474W        W 4692  17.771  13.199   2.905
36475W        W 4693  25.527  43.762  12.240
36476W        W 4694   9.326  44.330  10.262
36477W        W 4695  29.059  22.742   3.403
36478W        W 4696  36.858  35.112  11.911
36479W        W 4697  44.447  20.592   2.831
36480W        W 4698  35.585   7.901  13.028
36481W        W 4699  39.792   0.047  11.633
36482W        W 4700   1.701  26.465  11.028
36483W        W 4701  37.385  26.547   3.252
36484W        W 4702  27.395  18.645  13.028
36485W        W 4703   4.869  21.984   2.795
36486W        W 4704  31.644  39.360   1.802
36487W        W 4705  15.366  38.938  13.506
36488W        W 4706  19.207  16.607  12.921
36489W        W 4707  25.172   8.206   3.236
36490W        W 4708  10.372  34.459  11.745
36491W        W 4709   3.422  22.416  10.623
36492W        W 4710  20.491  23.471   3.943
36493W        W 4711  34.442  15.653   3.570
36494W        W 4712  22.558  31.338   3.153
36495W        W 4713  12.312  41.572   0.875
36496W        W 4714  26.188  28.656  11.994
36497W        W 4715  19.955  43.260   3.309
36498W        W 4716  37.422   5.929  14.364
36499W        W 4717  18.957  14.738  13.372
36500W        W 4718  27.724  14.601  12.056
36501W        W 4719  11.389  11.021  14.031
36502W        W 4720  19.156  41.916  11.052
36503W        W 4721  20.802  10.082   1.875
36504W        W 4722   6.164   5.685   0.834
36505W        W 4723  16.783  29.761   2.376
36506W        W 4724   0.968  35.097   4.896
36507W        W 4725  30.550   5.364  13.634
36508W        W 4726  44.893   2.245   3.378
36509W        W 4727  42.807  25.466   5.035
36510W        W 4728  39.472   1.933   0.498
36511W        W 4729  27.875  28.875  14.359
36512W        W 4730  33.486  34.323  10.724
36513W        W 4731   5.346  22.292  11.997
36514W        W 4732  31.726  38.419   1.908
36515W        W 4733  42.467  17.344  11.416
36516W        W 4734   6.696  14.641   3.504
36517W        W 4735  41.009  25.054   2.954
36518W        W 4736  11.639   5.899  14.807
36519W        W 4737  13.196   3.338  12.445
36520W        W 4738  11.734  24.995   3.095
36521W        W 4739  10.498  40.947   2.767
36522W        W 4740  21.059  11.586   1.825
36523W        W 4741  15.995  15.039  13.005
36524W        W 4742  19.466  17.178   4.826
36525W        W 4743  41.923  22.994  10.451
36526W        W 4744  15.427  15.676   4.567
36527W        W 4745  44.717   9.340   3.343
36528W        W 4746  30.725  13.223   3.203
36529W        W 4747   0.334  27.753   2.376
36530W        W 4748  29.512  36.493   0.063
36531W        W 4749  44.377  15.291  13.972
36532W        W 4750  43.200  11.095  12.588
36533W        W 4751  40.960  21.561  13.476
36534W        W 4752  15.267  30.464   2.981
36535W        W 4753   0.393  21.003  11.827
36536W        W 4754  17.676  33.029  10.549
36537W        W 4755  42.246  44.413  12.412
36538W        W 4756  29.539  39.518  12.532
36539W        W 4757  42.825  15.515   4.171
36540W        W 4758  40.811   9.668  11.763
36541W        W 4759  22.119  26.628   3.822
36542W        W 4760  23.989   8.249   3.864
36543W        W 4761  36.408  23.256  10.675
36544W        W 4762  26.087  43.354  11.117
36545W        W 4763  26.466  31.026   1.624
36546W        W 4764  42.750  37.983  12.575
36547W        W 4765  35.120  22.344   3.040
36548W        W 4766   4.504   7.929  14.352
36549W        W 4767   5.534  34.882   2.322
36550W        W 4768  32.999   9.071   3.041
36551W        W 4769  39.598  26.642   2.787
36552W        W 4770  39.606  10.209  13.012
36553W        W 4771  31.664  39.475  14.564
36554W        W 4772  29.669   0.326  12.928
36555W        W 4773   7.788  15.329  11.709
36556W        W 4774  41.329   1.016  11.596
36557W        W 4775  28.961  16.884  14.413
36558W        W 4776  30.190  39.519   1.916
36559W        W 4777   8.416  44.783   2.003
36560W        W 4778  16.398   0.418  11.070
36561W        W 4779  44.838  16.348  10.693
36562W        W 4780  21.516  12.532  13.131
36563W        W 4781  27.066  34.313  11.174
36564W        W 4782  14.275  26.713   0.993
36565W        W 4783  26.419   5.386   0.312
36566W        W 4784   8.769  34.063  12.836
36567W        W 4785  29.715  10.376  12.832
36568W        W 4786   8.959  13.292   3.311
36569W        W 4787  44.839   7.747  14.157
36570W        W 4788  22.678  22.182  11.567
36571W        W 4789  29.897  13.712  12.952
36572W        W 4790  11.585  12.156  12.474
36573W        W 4791  35.764  10.746   4.797
36574W        W 4792  42.180  12.933  14.359
36575W        W 4793  11.898  37.255  14.499
36576W        W 4794  16.978   3.324  10.640
36577W        W 4795   3.414   3.469  13.959
36578W        W 4796   3.430  16.173   3.679
36579W        W 4797   5.036   2.007  14.428
36580W        W 4798   7.287  14.051   4.105
36581W        W 4799  41.911   8.279   3.597
36582W        W 4800   4.638  21.178   3.146
36583W        W 4801   2.491  44.443   4.254
36584W        W 4802  24.711  13.850  11.997
36585W        W 4803  12.925   9.443   0.915
36586W        W 4804   2.261  23.136  12.597
36587W        W 4805  18.787  20.586   0.855
36588W        W 4806  15.848  16.850  10.594
36589W        W 4807  21.587  38.122  13.409
36590W        W 4808  14.331  27.733  10.608
36591W        W 4809  29.594   3.396  11.109
36592W        W 4810  35.123  42.059   4.071
36593W        W 4811  36.952   6.682  10.909
36594W        W 4812   7.884  42.425  14.290
36595W        W 4813   5.840  33.383  10.778
36596W        W 4814   7.711  37.855   2.853
36597W        W 4815  34.872  11.126   3.648
36598W        W 4816  35.391   2.727  11.685
36599W        W 4817  32.886   0.895  14.686
36600W        W 4818  14.331  17.661  12.051
36601W        W 4819  29.701  37.816  13.949
36602W        W 4820  14.422  12.793   1.205
36603W        W 4821  34.015  23.022   4.570
36604W        W 4822  44.284  35.453   1.141
36605W        W 4823  44.220   1.750  14.508
36606W        W 4824  13.681   3.184  13.885
36607W        W 4825  31.662   9.681  12.482
36608W        W 4826  43.559   3.459  10.905
36609W        W 4827  18.364  14.180  14.082
36610W        W 4828  31.392   8.095  12.185
36611W        W 4829  29.922  41.264   0.749
36612W        W 4830  32.374   8.392   3.993
36613W        W 4831  15.194  27.523  10.914
36614W        W 4832  23.095  11.000  14.364
36615W        W 4833  34.911   9.451   3.112
36616W        W 4834   2.605   6.110   2.761
36617W        W 4835  43.319  42.572   4.725
36618W        W 4836   9.386   5.839   4.031
36619W        W 4837   2.871  25.445   4.190
36620W        W 4838  39.024  26.022   1.931
36621W        W 4839  27.942  31.791  10.177
36622W        W 4840  22.325  27.657   2.915
36623W        W 4841   7.584   8.526   3.162
36624W        W 4842  31.052  19.631  12.959
36625W        W 4843  35.005  26.345   1.688
36626W        W 4844  15.535  24.771  13.068
36627W        W 4845  23.906  43.002  12.052
36628W        W 4846  38.158  37.894   0.365
36629W        W 4847   4.024   1.831   5.062
36630W        W 4848  17.165  28.212  13.230
36631W        W 4849  20.190   5.245   1.866
36632W        W 4850  36.834  30.427   1.632
36633W        W 4851  34.402  15.813  11.701
36634W        W 4852  18.265  21.215   0.985
36635W        W 4853  12.544  40.400  12.052
36636W        W 4854  14.359  16.401  14.109
36637W        W 4855  27.518   5.727   2.329
36638W        W 4856  19.082  40.920  14.325
36639W        W 4857  21.694  23.938   2.201
36640W        W 4858  43.516  14.132   1.097
36641W        W 4859  38.398  24.626  12.659
36642W        W 4860  33.005  10.160   4.659
36643W        W 4861  35.255  33.183  14.418
36644W        W 4862  33.863  34.048  13.887
36645W        W 4863  39.204  28.046  13.417
36646W        W 4864  43.742  22.518   2.675
36647W        W 4865   6.390  27.910  10.584
36648W        W 4866  35.929  18.749   5.069
36649W        W 4867  24.045  29.064   4.583
36650W        W 4868   4.836  23.594  10.258
36651W        W 4869  20.204  16.346   2.233
36652W        W 4870   6.749  40.953   3.634
36653W        W 4871  38.857  31.046   1.972
36654W        W 4872   8.376   8.475  14.234
36655W        W 4873  28.044  33.617  10.835
36656W        W 4874  26.780  43.292   3.687
36657W        W 4875  38.057   0.922   1.675
36658W        W 4876  21.345  29.648   4.776
36659W        W 4877  26.981  28.116  14.943
36660W        W 4878   5.482  13.555   1.473
36661W        W 4879  17.691  36.026  14.579
36662W        W 4880   1.254   1.594  10.457
36663W        W 4881  26.705  20.100   4.222
36664W        W 4882  21.751   6.768   2.716
36665W        W 4883  29.503   7.443  14.513
36666W        W 4884   9.350  40.840   3.648
36667W        W 4885  40.734  10.874  12.211
36668W        W 4886  30.484  15.726  12.547
36669W        W 4887  13.273   5.009  10.575
36670W        W 4888  36.464  42.980   2.804
36671W        W 4889  35.089  24.061  14.026
36672W        W 4890  27.958  26.884   1.818
36673W        W 4891   5.890   4.941   0.040
36674W        W 4892  13.427  27.589  11.287
36675W        W 4893  36.456   8.782  13.412
36676W        W 4894  39.080  44.531  11.581
36677W        W 4895  36.976  23.479   0.493
36678W        W 4896  33.152  36.089   4.543
36679W        W 4897  10.631  20.582   4.380
36680W        W 4898   6.773  17.935  11.968
36681W        W 4899   2.763  40.406  12.316
36682W        W 4900  14.858  22.727   4.619
36683W        W 4901  43.706  27.896  13.697
36684W        W 4902  28.471  11.476  11.504
36685W        W 4903  36.072  40.462  10.893
36686W        W 4904  10.834  29.572   0.046
36687W        W 4905  28.524   3.800   4.258
36688W        W 4906  23.905  37.368   3.795
36689W        W 4907   6.211  36.545   0.437
36690W        W 4908  18.110  11.394  12.932
36691W        W 4909  39.770  22.670   4.218
36692W        W 4910  20.824  25.700  14.745
36693W        W 4911   8.162  31.549   4.817
36694W        W 4912  34.074  13.524  11.940
36695W        W 4913  29.130  21.552  12.931
36696W        W 4914   4.188  17.040  11.214
36697W        W 4915  23.168  22.428   1.690
36698W        W 4916   1.784  39.086  14.264
36699W        W 4917  18.114  12.832   2.738
36700W        W 4918   4.964  27.713   0.785
36701W        W 4919  26.839  10.194  11.549
36702W        W 4920  17.346  37.225  10.345
36703W        W 4921  17.316   6.801   0.327
36704W        W 4922  19.241  31.370   0.709
36705W        W 4923  42.046  20.862   2.260
36706W        W 4924  40.625  19.625  14.595
36707W        W 4925   2.010  25.664  11.619
36708W        W 4926  41.808  41.651  14.487
36709W        W 4927  14.498   0.467  13.587
36710W        W 4928  23.306  40.505  14.789
36711W        W 4929  44.481  25.625  10.757
36712W        W 4930  44.099   1.690   2.993
36713W        W 4931  15.730   6.171  12.477
36714W        W 4932  37.307  21.252  13.051
36715W        W 4933   2.499  40.518  10.729
36716W        W 4934  32.201  27.881  12.462
36717W        W 4935  26.733   6.933   0.491
36718W        W 4936  40.561  24.937   0.399
36719W        W 4937  43.934  42.757   0.649
36720W        W 4938  30.227  13.300  13.615
36721W        W 4939  34.669  28.078   3.904
36722W        W 4940  37.932   7.126   4.133
36723W        W 4941   4.395   3.971   3.337
36724W        W 4942  41.842  33.564   3.555
36725W        W 4943  33.500   2.131   0.361
36726W        W 4944  28.153  39.506  12.467
36727W        W 4945  21.091  28.156   2.190
36728W        W 4946  40.864  34.172  11.917
36729W        W 4947  25.211   8.795   3.780
36730W        W 4948   4.434  17.337   0.428
36731W        W 4949  19.595  16.789   2.775
36732W        W 4950  36.506  38.947   2.403
36733W        W 4951  38.841  34.499   3.205
36734W        W 4952  15.212  19.992  12.068
36735W        W 4953   3.780  17.478  14.220
36736W        W 4954  22.550  29.815   0.768
36737W        W 4955  31.179  30.961  13.941
36738W        W 4956  21.766  28.628   3.271
36739W        W 4957  23.533  14.290   1.710
36740W        W 4958  11.907  10.788  13.129
36741W        W 4959  34.091  35.412  14.098
36742W        W 4960  36.846  21.240   0.328
36743W        W 4961  25.134   2.625   1.304
36744W        W 4962  21.589   3.954  12.112
36745W        W 4963  26.963  32.374  13.440
36746W        W 4964  14.399  37.654  11.346
36747W        W 4965  27.019  17.743   0.714
36748W        W 4966  44.358  30.175  12.469
36749W        W 4967  25.942  26.987  13.927
36750W        W 4968  13.263  42.740  11.459
36751W        W 4969  31.594  30.142   2.908
36752W        W 4970  13.867   0.153  12.825
36753W        W 4971  29.750  36.783  14.065
36754W        W 4972  36.348   1.502   1.753
36755W        W 4973  41.885  38.305   3.782
36756W        W 4974  31.346   4.914   4.138
36757W        W 4975   2.204  16.149   1.243
36758W        W 4976  28.561  42.064   0.892
36759W        W 4977  37.996   1.453   4.161
36760W        W 4978   8.347  11.114   3.906
36761W        W 4979   1.872   8.698   0.894
36762W        W 4980  30.023  36.808   2.305
36763W        W 4981  11.714  14.685   3.658
36764W        W 4982  28.736   6.044  14.980
36765W        W 4983  16.003  37.566   2.224
36766W        W 4984  33.953  39.320   3.279
36767W        W 4985  24.683  42.869  14.525
36768W        W 4986  29.985  38.002   3.678
36769W        W 4987  39.033  10.317   1.897
36770W        W 4988  20.821  38.068   2.414
36771W        W 4989   8.591  10.338  11.172
36772W        W 4990  14.971   5.539   4.310
36773W        W 4991   4.635  17.334  10.382
36774W        W 4992  12.039   9.906   0.877
36775W        W 4993  31.154   2.487   0.920
36776W        W 4994  20.049  37.557  11.941
36777W        W 4995  40.470  31.606  11.570
36778W        W 4996  17.986  34.671   1.929
36779W        W 4997  39.959  21.913  13.369
36780W        W 4998   8.705  18.327   1.853
36781W        W 4999  35.504  40.257  13.008
36782W        W 5000  29.688  31.399  14.506
36783W        W 5001   7.440   1.064  11.138
36784W        W 5002   6.198   3.401   3.654
36785W        W 5003  31.076  17.850  10.858
36786W        W 5004   7.305  43.567  14.897
36787W        W 5005  25.569  19.039  14.574
36788W        W 5006  22.219  20.315  12.470
36789W        W 5007  32.574  13.815   4.158
36790W        W 5008  41.391  25.941  12.325
36791W        W 5009  34.904  11.304  11.739
36792W        W 5010   2.511  37.867   1.228
36793W        W 5011  27.219  11.606  11.562
36794W        W 5012   5.271  41.855   2.166
36795W        W 5013  42.612  19.461   0.974
36796W        W 5014   9.846  31.385  14.955
36797W        W 5015  37.854  29.066   0.842
36798W        W 5016   3.366   8.187   1.318
36799W        W 5017  12.618  37.055   4.535
36800W        W 5018  19.011  11.830   3.353
36801W        W 5019   0.031  18.885  10.802
36802W        W 5020   7.262  28.601   2.590
36803W        W 5021  18.284  12.035   1.607
36804W        W 5022  42.804  44.791  13.982
36805W        W 5023   1.084   4.672  13.113
36806W        W 5024  29.439  18.951  11.513
36807W        W 5025   3.433  32.710   3.255
36808W        W 5026  32.116  41.018   4.129
36809W        W 5027  10.705   6.851  14.329
36810W        W 5028  17.639  23.627   2.887
36811W        W 5029  18.635  36.430   2.241
36812W        W 5030  23.154  14.990  12.891
36813W        W 5031  35.675  20.717   2.269
36814W        W 5032  11.818  29.150  13.664
36815W        W 5033  36.913   7.569  10.535
36816W        W 5034   3.587  21.894   1.859
36817W        W 5035  17.612  21.045  11.737
36818W        W 5036   4.114   8.136  12.561
36819W        W 5037  31.894  39.744  12.155
36820W        W 5038  33.119  33.836   0.495
36821W        W 5039  44.732  27.415  12.475
36822W        W 5040  33.690   0.132   4.776
36823W        W 5041  10.453  31.124   4.150
36824W        W 5042  16.680  10.610   2.677
36825W        W 5043  23.505   1.249   1.766
36826W        W 5044  16.682  16.539  12.438
36827W        W 5045  14.331  13.855  11.099
36828W        W 5046  21.659  30.944   2.785
36829W        W 5047  14.195  13.637   2.388
36830W        W 5048  42.723  23.081   2.197
36831W        W 5049   7.189  15.852   4.589
36832W        W 5050   9.249  22.565  14.299
36833W        W 5051  28.561  14.782   0.762
36834W        W 5052   6.447  18.414   0.298
36835W        W 5053   1.980   8.416   2.700
36836W        W 5054  24.786  10.272  10.749
36837W        W 5055  40.546  12.138  13.385
36838W        W 5056  14.166  16.365  11.781
36839W        W 5057   5.985   8.791  11.754
36840W        W 5058  37.666   5.901   2.627
36841W        W 5059  34.270  34.614   0.243
36842W        W 5060  30.548  34.451  13.097
36843W        W 5061   1.552   7.429   1.501
36844W        W 5062  40.112  42.998   2.428
36845W        W 5063  12.095  10.238  12.606
36846W        W 5064  19.108  36.381  14.342
36847W        W 5065  39.752  31.661  11.129
36848W        W 5066  18.488  14.355   3.470
36849W        W 5067  35.574  29.988  10.646
36850W        W 5068   6.791  29.155   3.696
36851W        W 5069  18.135  35.204   1.215
36852W        W 5070  21.530  33.939  13.512
36853W        W 5071  15.187   6.873   4.608
36854W        W 5072  20.492  22.284  12.068
36855W        W 5073  29.595  13.849  11.271
36856W        W 5074  16.655  30.212   3.289
36857W        W 5075  41.790  12.375  13.535
36858W        W 5076  31.292  25.628  12.068
36859W        W 5077  39.896  13.865  11.175
36860W        W 5078   0.013  11.707   3.755
36861W        W 5079  27.157  15.274   2.191
36862W        W 5080  12.049  33.035   9.886
36863W        W 5081  16.124  27.600   4.493
36864W        W 5082  25.516  43.898  11.745
36865W        W 5083  44.742   7.519   4.088
36866W        W 5084  19.084   7.863   0.319
36867W        W 5085   2.314  33.404  10.721
36868W        W 5086  27.103   6.861   4.344
36869W        W 5087  44.453   8.766   1.185
36870W        W 5088  44.466   2.697  11.578
36871W        W 5089  35.400  37.364   0.732
36872W        W 5090  38.322  31.457  11.652
36873W        W 5091  15.581   6.393  11.204
36874W        W 5092  34.512  35.431   4.584
36875W        W 5093  30.173  18.311  11.878
36876W        W 5094  42.202   9.709   1.689
36877W        W 5095  30.456  27.088  14.733
36878W        W 5096  38.391  43.453   4.767
36879W        W 5097  14.585  16.289  13.590
36880W        W 5098  10.692  17.888   4.709
36881W        W 5099  36.825   5.505   3.793
36882W        W 5100  11.075  11.251  14.393
36883W        W 5101  29.024  24.149   1.946
36884W        W 5102   7.734  27.487   0.927
36885W        W 5103  30.107  25.923  14.734
36886W        W 5104   0.346  19.711   3.219
36887W        W 5105  29.822  26.653   2.631
36888W        W 5106  24.307   5.338  12.103
36889W        W 5107   8.329  19.119   0.877
36890W        W 5108   1.955  28.370   0.515
36891W        W 5109  24.499  11.649  12.008
36892W        W 5110  32.897  37.279  10.711
36893W        W 5111  37.338  34.069  10.652
36894W        W 5112   0.553  21.069  10.545
36895W        W 5113  27.497  36.819  14.933
36896W        W 5114   4.891  33.525   1.067
36897W        W 5115  15.683  16.335   0.382
36898W        W 5116  24.792   6.323   0.106
36899W        W 5117  11.565  41.746   0.426
36900W        W 5118  10.602  43.956   1.390
36901W        W 5119  12.084  23.609  12.766
36902W        W 5120   9.332  37.635  13.486
36903W        W 5121   4.136   3.837   2.674
36904W        W 5122  43.294  19.044  13.072
36905W        W 5123  23.156  40.723   4.890
36906W        W 5124  33.982  17.826   1.203
36907W        W 5125  42.753   0.685  10.705
36908W        W 5126  11.636  29.919   2.224
36909W        W 5127   3.176   6.782   3.661
36910W        W 5128   4.177  29.124   1.616
36911W        W 5129  24.101   4.233  12.997
36912W        W 5130  42.113  19.064   3.257
36913W        W 5131  14.861  26.488   2.180
36914W        W 5132  41.400  21.212  13.581
36915W        W 5133  30.155  27.225   4.042
36916W        W 5134   1.681  27.515   4.140
36917W        W 5135  24.974  12.121   3.386
36918W        W 5136  36.571  24.980  10.358
36919W        W 5137  11.895  20.710   3.245
36920W        W 5138  42.792  31.662  11.593
36921W        W 5139  23.608  16.507   4.224
36922W        W 5140  14.992  16.100   9.664
36923W        W 5141  40.026  44.896   4.629
36924W        W 5142  13.060   6.465  11.556
36925W        W 5143  41.808  17.839  12.962
36926W        W 5144  15.634  10.357   5.002
36927W        W 5145  13.173  41.133   2.087
36928W        W 5146   3.181  41.813   4.131
36929W        W 5147  36.285  29.595  14.323
36930W        W 5148  32.758  33.591  13.509
36931W        W 5149  19.510  37.335  10.172
36932W        W 5150   5.385   9.896   0.338
36933W        W 5151  27.376  14.784   2.971
36934W        W 5152  25.028  28.506  13.923
36935W        W 5153  10.451  13.112   2.121
36936W        W 5154   4.799  13.347  12.292
36937W        W 5155  21.690  21.488  12.823
36938W        W 5156  14.745  42.211   4.841
36939W        W 5157  33.983  15.388  11.605
36940W        W 5158  42.028   2.460   1.756
36941W        W 5159  11.259   3.522  10.769
36942W        W 5160   7.131  21.051  12.584
36943W        W 5161  30.668  31.835  13.803
36944W        W 5162  31.002   3.799  12.918
36945W        W 5163  29.848  40.841   4.096
36946W        W 5164   4.397  31.844  10.440
36947W        W 5165  24.283   6.382   5.193
36948W        W 5166  13.524   1.217   2.815
36949W        W 5167  38.481  30.634   2.868
36950W        W 5168  19.346  20.433   2.701
36951W        W 5169   0.606  42.937   4.575
36952W        W 5170  12.899  34.003   0.854
36953W        W 5171  27.008   9.206  14.074
36954W        W 5172  15.318  39.099  14.451
36955W        W 5173  35.943  25.467   4.309
36956W        W 5174  13.365  35.997   4.141
36957W        W 5175  13.258   4.275   3.316
36958W        W 5176   7.846   2.309   4.530
36959W        W 5177   0.735   6.815  10.527
36960W        W 5178   6.218  11.388  12.610
36961W        W 5179   6.708   5.381   1.721
36962W        W 5180   4.198  25.648   1.902
36963W        W 5181  41.146  19.679  13.448
36964W        W 5182  10.665   8.805   3.867
36965W        W 5183  15.053  44.918  14.422
36966W        W 5184  40.006   3.545  12.891
36967W        W 5185  30.132   5.570  10.315
36968W        W 5186  22.253  34.550  13.414
36969W        W 5187   3.559  25.075  11.164
36970W        W 5188  34.167  37.543   0.204
36971W        W 5189  21.073  12.705  13.384
36972W        W 5190  39.047  36.167  12.951
36973W        W 5191  41.938  20.174  13.063
36974W        W 5192  24.245  27.953  10.920
36975W        W 5193  12.675  33.639  14.084
36976W        W 5194  21.301   0.334  12.899
36977W        W 5195   8.862  17.679  12.001
36978W        W 5196   3.809  18.510  11.575
36979W        W 5197   8.123  25.353   0.815
36980W        W 5198   6.742  18.760  14.501
36981W        W 5199  19.259  13.677  13.095
36982W        W 5200  13.531  19.266  12.100
36983W        W 5201   5.981   7.249  11.177
36984W        W 5202   1.512   7.423  11.140
36985W        W 5203   4.421  27.007   1.838
36986W        W 5204  11.169  12.823  11.492
36987W        W 5205  14.912  20.876   2.083
36988W        W 5206  22.618  25.139  14.848
36989W        W 5207  15.115  36.601   0.084
36990W        W 5208   2.377  31.296   2.605
36991W        W 5209  26.090   2.167  10.542
36992W        W 5210  21.095  29.032   0.480
36993W        W 5211  33.026  42.353   3.137
36994W        W 5212  28.639  15.656  12.123
36995W        W 5213  19.619   4.972   4.214
36996W        W 5214  14.458  32.248  13.089
36997W        W 5215  11.708  12.851   3.180
36998W        W 5216  17.996  35.683  10.332
36999W        W 5217  25.879  32.070   0.295
37000W        W 5218  38.880  11.868   0.418
37001W        W 5219  20.960  31.375  14.810
37002W        W 5220  40.259   2.410   3.904
37003W        W 5221  18.065   3.094   3.331
37004W        W 5222  29.194  40.078   4.037
37005W        W 5223  43.809  13.311  10.432
37006W        W 5224   2.973  18.636  13.744
37007W        W 5225  44.420  21.489   4.539
37008W        W 5226   2.780  26.120   0.701
37009W        W 5227  15.584  30.598  13.282
37010W        W 5228  30.456  19.984  14.349
37011W        W 5229   1.815  34.850   2.674
37012W        W 5230  37.119  11.633   2.353
37013W        W 5231  44.956  14.016   1.817
37014W        W 5232  34.517  21.778  14.919
37015W        W 5233   9.785  19.767   3.264
37016W        W 5234  20.473  40.297  11.911
37017W        W 5235  30.588  16.765  14.784
37018W        W 5236  27.120  14.591  12.375
37019W        W 5237  23.706  13.341  13.286
37020W        W 5238   1.464  38.083  10.565
37021W        W 5239  18.734  20.723  13.259
37022W        W 5240  43.984   9.344   2.858
37023W        W 5241  24.735  34.862   0.335
37024W        W 5242  33.650  32.250  13.429
37025W        W 5243   5.547  20.035  14.366
37026W        W 5244   7.826  34.776   0.317
37027W        W 5245  25.843   9.667   2.835
37028W        W 5246   7.157  43.260   1.937
37029W        W 5247  27.565  10.363   3.611
37030W        W 5248   4.879  33.389   2.708
37031W        W 5249  16.482   8.284   1.307
37032W        W 5250  26.750   4.745  14.552
37033W        W 5251  29.037  34.058  13.802
37034W        W 5252  12.838  43.990   3.624
37035W        W 5253   9.391  42.416   0.986
37036W        W 5254  40.402  30.714  13.334
37037W        W 5255   7.917  26.689  12.325
37038W        W 5256   5.767  26.345   2.253
37039W        W 5257  10.845   1.335  11.570
37040W        W 5258  44.526   0.962  11.109
37041W        W 5259   8.675   5.005   2.792
37042W        W 5260  18.227  43.370   0.671
37043W        W 5261  33.809  28.475   2.779
37044W        W 5262  20.642   2.851   0.548
37045W        W 5263  32.034  18.669   1.526
37046W        W 5264  13.327  27.994   3.713
37047W        W 5265  19.691  37.789   3.408
37048W        W 5266  33.233  29.690   4.941
37049W        W 5267  25.170  26.191   0.889
37050W        W 5268   9.083  14.529   3.641
37051W        W 5269  35.802  14.820  12.096
37052W        W 5270  10.959  28.988  12.919
37053W        W 5271  13.194  43.385  14.288
37054W        W 5272   0.308  34.592  13.917
37055W        W 5273  11.245  18.285   0.787
37056W        W 5274   3.878   3.906   4.093
37057W        W 5275  19.538   5.265  12.993
37058W        W 5276  27.088   7.579   2.905
37059W        W 5277  29.865  34.641   2.756
37060W        W 5278   2.262  31.459   2.133
37061W        W 5279  44.821  30.960   0.752
37062W        W 5280  43.762  17.169   1.346
37063W        W 5281  13.145  24.637  12.944
37064W        W 5282  21.004  32.904   0.423
37065W        W 5283   8.270  30.004   4.379
37066W        W 5284   6.994  28.713  13.049
37067W        W 5285  13.555  29.633   1.880
37068W        W 5286   4.771  19.601  14.253
37069W        W 5287   0.010  40.575  14.794
37070W        W 5288  38.992  15.280   4.736
37071W        W 5289  30.509   7.382   2.932
37072W        W 5290  39.508  30.106  13.057
37073W        W 5291  38.113  38.515  11.440
37074W        W 5292  28.760  42.403  12.128
37075W        W 5293   7.778  26.590   2.285
37076W        W 5294  11.969   2.404  13.580
37077W        W 5295  22.893   0.831   3.604
37078W        W 5296  17.018  21.273   0.258
37079W        W 5297   2.968  24.431   4.351
37080W        W 5298  42.019  18.774   0.513
37081W        W 5299  10.412  39.620  13.778
37082W        W 5300  22.049  30.865  12.973
37083W        W 5301   1.546   7.988  11.971
37084W        W 5302  20.339  42.340  14.453
37085W        W 5303  18.920  42.290   3.270
37086W        W 5304  41.387   9.066  12.036
37087W        W 5305  24.171  20.721  14.849
37088W        W 5306  28.216   2.718   3.623
37089W        W 5307  32.431  12.750  12.083
37090W        W 5308  31.613  18.584  13.488
37091W        W 5309  21.636  29.394  11.140
37092W        W 5310   4.724  31.685  14.736
37093W        W 5311   1.857  14.794   1.299
37094W        W 5312  33.366  44.359  14.147
37095W        W 5313  35.969  20.277   2.364
37096W        W 5314  29.959  38.486   4.571
37097W        W 5315  22.750  43.234   1.557
37098W        W 5316   4.046  24.857  14.417
37099W        W 5317  44.420  13.979  11.679
37100W        W 5318  23.374  26.987   3.266
37101W        W 5319  28.117   6.856  13.035
37102W        W 5320  24.197  14.967  13.592
37103W        W 5321  16.768   7.433  12.476
37104W        W 5322  37.575  43.529   3.077
37105W        W 5323  13.705   2.042  11.708
37106W        W 5324  22.303   2.218   4.530
37107W        W 5325  14.651   4.854   2.377
37108W        W 5326   4.247  26.868   3.652
37109W        W 5327  40.952  39.529  13.692
37110W        W 5328  13.316   4.422  11.822
37111W        W 5329  32.748   0.209   2.799
37112W        W 5330  26.943  29.044   0.980
37113W        W 5331  29.475  11.238   3.126
37114W        W 5332  39.580   8.202   2.241
37115W        W 5333  33.676  41.030  10.597
37116W        W 5334  42.693   3.358   4.827
37117W        W 5335   9.757   5.438  13.542
37118W        W 5336  31.647  43.224  14.766
37119W        W 5337  17.151   6.963   0.790
37120W        W 5338  24.099  44.049  13.451
37121W        W 5339  28.685  31.107   3.240
37122W        W 5340  17.832  22.674   2.682
37123W        W 5341  44.164  12.341   4.883
37124W        W 5342   6.954   3.188  14.400
37125W        W 5343  14.128   7.663  10.813
37126W        W 5344  21.286  26.176  14.590
37127W        W 5345  28.672  20.199  12.406
37128W        W 5346  21.133  35.640   4.951
37129W        W 5347  29.447  10.825  12.970
37130W        W 5348  42.424   8.616  12.165
37131W        W 5349  18.577  30.711   4.243
37132W        W 5350  41.842  42.823  13.782
37133W        W 5351  23.122  31.113   3.605
37134W        W 5352  25.555  39.673   1.684
37135W        W 5353  33.713  19.929  14.888
37136W        W 5354  29.460  32.347   4.755
37137W        W 5355  19.720   8.347   2.154
37138W        W 5356  25.469   3.180  14.144
37139W        W 5357  39.872  43.789   0.415
37140W        W 5358  10.797  19.837   3.094
37141W        W 5359  43.493   7.759  13.550
37142W        W 5360  31.152   6.678  11.151
37143W        W 5361  42.008  23.005   3.045
37144W        W 5362  10.316   7.088   0.180
37145W        W 5363  13.869  40.749  14.361
37146W        W 5364  15.655  13.297  12.690
37147W        W 5365  16.824   8.226  12.868
37148W        W 5366  11.666   6.658  12.404
37149W        W 5367  35.644   0.382   0.290
37150W        W 5368   2.222   7.051   9.859
37151W        W 5369  42.720  29.916  11.924
37152W        W 5370  35.837  30.136   4.395
37153W        W 5371  13.499  22.441  12.363
37154W        W 5372  15.761  26.745  10.592
37155W        W 5373  29.545  10.445   4.124
37156W        W 5374  26.947   4.941  13.594
37157W        W 5375  26.695  44.249   0.336
37158W        W 5376  42.811  24.394  12.600
37159W        W 5377  19.637  14.104  13.718
37160W        W 5378  22.210  30.138  12.322
37161W        W 5379  41.101  25.224   4.201
37162W        W 5380  10.092  27.961  13.394
37163W        W 5381  29.865  12.181  11.567
37164W        W 5382  39.821  27.222  11.631
37165W        W 5383  44.510   8.124   3.671
37166W        W 5384  43.302  33.920  11.994
37167W        W 5385  43.465   7.694  14.535
37168W        W 5386  31.484   4.560   1.662
37169W        W 5387  24.209  28.658   3.333
37170W        W 5388   9.782   1.739   2.772
37171W        W 5389  42.893  42.515   5.018
37172W        W 5390  12.593  29.388   0.689
37173W        W 5391  19.112  38.567   3.927
37174W        W 5392  31.561  40.080  12.402
37175W        W 5393  19.317  13.951   3.996
37176W        W 5394   2.886  11.331  12.662
37177W        W 5395  34.907  44.096   9.853
37178W        W 5396  19.069  40.932   4.297
37179W        W 5397  15.322   7.501  11.155
37180W        W 5398  10.302  41.902  14.742
37181W        W 5399  24.186  30.860  14.496
37182W        W 5400  36.804   2.898  14.611
37183W        W 5401  18.202  22.101   1.997
37184W        W 5402   8.267  33.512   2.267
37185W        W 5403  20.101  26.994   0.448
37186W        W 5404  15.274  18.443   4.578
37187W        W 5405   1.614  27.958   3.170
37188W        W 5406  36.607   2.675   0.873
37189W        W 5407   5.857  43.811   0.702
37190W        W 5408  18.003   8.640  14.961
37191W        W 5409   4.687  43.004  12.399
37192W        W 5410  30.822  26.687   5.001
37193W        W 5411  23.196   8.557  13.607
37194W        W 5412  28.913  44.842   3.219
37195W        W 5413   2.518  36.590   0.742
37196W        W 5414  32.008  22.087  13.324
37197W        W 5415   2.283   1.786   4.575
37198W        W 5416   6.627  21.442   1.242
37199W        W 5417  13.847  13.376   4.994
37200W        W 5418  40.855  42.356   3.657
37201W        W 5419  41.287  12.570  13.537
37202W        W 5420  32.556  30.581  11.380
37203W        W 5421  13.711  13.751   2.163
37204W        W 5422  24.749  27.621  14.846
37205W        W 5423  30.903  33.099  12.997
37206W        W 5424  14.739   4.009  12.471
37207W        W 5425  20.793  10.941  11.376
37208W        W 5426  36.580  40.308   3.315
37209W        W 5427  25.483   5.939  11.755
37210W        W 5428  16.340  18.100  14.497
37211W        W 5429  11.283  41.169   1.381
37212W        W 5430  18.060  28.873  11.126
37213W        W 5431  33.064   7.685  12.326
37214W        W 5432  26.491   2.415  14.509
37215W        W 5433  41.284  35.500  10.580
37216W        W 5434  37.016  10.610  11.204
37217W        W 5435  23.273  42.799   0.971
37218W        W 5436  18.266  39.849  13.414
37219W        W 5437   6.023  32.155   0.710
37220W        W 5438   0.506   0.715   3.202
37221W        W 5439  11.715  18.501   0.919
37222W        W 5440  26.596  33.225  10.606
37223W        W 5441  15.180  20.580  14.443
37224W        W 5442  40.335  16.009   2.366
37225W        W 5443  30.555  43.141  13.019
37226W        W 5444   7.144  20.147   3.342
37227W        W 5445  31.763  14.597  11.155
37228W        W 5446  18.074  40.365   0.265
37229W        W 5447  41.453   7.696   1.171
37230W        W 5448  41.902  36.364   0.386
37231W        W 5449  23.248  12.216   3.161
37232W        W 5450  14.105  23.664  12.981
37233W        W 5451   3.685  13.748  14.297
37234W        W 5452   4.936   8.425   1.922
37235W        W 5453  20.128  37.276  14.122
37236W        W 5454  16.928  28.884   3.247
37237W        W 5455   0.234  38.332  11.628
37238W        W 5456   0.919   7.980  13.418
37239W        W 5457  33.820   5.273  13.890
37240W        W 5458  26.387  11.839  11.652
37241W        W 5459  15.742   1.889   1.224
37242W        W 5460   1.583  31.875  10.613
37243W        W 5461   0.724   3.902   2.773
37244W        W 5462  29.410  29.551  13.024
37245W        W 5463  23.843  32.372   4.160
37246W        W 5464  39.760  39.670   1.319
37247W        W 5465  16.623   8.530   0.877
37248W        W 5466   5.217   0.185  13.831
37249W        W 5467  20.840  17.934  11.742
37250W        W 5468  31.127  26.542  13.856
37251W        W 5469  15.850  36.720  13.754
37252W        W 5470  18.664  29.387  13.363
37253W        W 5471  34.674  17.223  14.464
37254W        W 5472   3.507  42.569   4.375
37255W        W 5473  29.532   2.787  13.597
37256W        W 5474  28.597  43.563   1.760
37257W        W 5475  26.484  11.577   0.840
37258W        W 5476  17.090  23.108   2.488
37259W        W 5477  42.972  36.847  13.450
37260W        W 5478  20.599  36.839   4.615
37261W        W 5479  42.050  29.583  14.832
37262W        W 5480  16.069  29.598  13.912
37263W        W 5481   4.414  21.130   2.694
37264W        W 5482  10.609  21.446   2.230
37265W        W 5483  29.103  34.559  13.906
37266W        W 5484  28.124   4.210  10.782
37267W        W 5485  10.783  20.185   4.671
37268W        W 5486  27.737  30.967   3.569
37269W        W 5487   5.265  37.501  14.476
37270W        W 5488   3.296  23.182  12.024
37271W        W 5489   0.903  20.596   1.280
37272W        W 5490  10.145   0.201  12.445
37273W        W 5491   1.654   0.429  10.635
37274W        W 5492  25.636  28.040  13.444
37275W        W 5493  34.871   0.390   3.053
37276W        W 5494  41.041  41.364   2.745
37277W        W 5495  39.325  25.300   0.825
37278W        W 5496  36.214  23.573  12.387
37279W        W 5497  25.309  36.151   0.219
37280W        W 5498  36.571  24.680   1.109
37281W        W 5499  15.983   9.672   3.716
37282W        W 5500  32.609  25.534  14.270
37283W        W 5501  40.015  21.858   4.710
37284W        W 5502  40.406  14.656   4.609
37285W        W 5503  32.145   4.050   1.737
37286W        W 5504   4.354  39.872  11.087
37287W        W 5505  14.700  13.968   1.127
37288W        W 5506  44.748  42.413   0.773
37289W        W 5507  18.161  17.178  11.584
37290W        W 5508  22.338  36.485   3.753
37291W        W 5509  29.516  35.568  11.569
37292W        W 5510  22.042  11.409  12.038
37293W        W 5511  27.461  29.929   0.772
37294W        W 5512  42.281  13.423   2.257
37295W        W 5513   3.041  20.309  10.673
37296W        W 5514  33.300  18.232  11.100
37297W        W 5515  29.472   1.439   0.378
37298W        W 5516  22.184  37.474   4.156
37299W        W 5517   7.793  43.319   2.642
37300W        W 5518  12.296  14.288  13.413
37301W        W 5519   7.873  19.137   5.519
37302W        W 5520  32.925   0.858   1.005
37303W        W 5521  25.951  18.464   0.245
37304W        W 5522  36.388  37.101  12.102
37305W        W 5523  13.686  30.388  13.503
37306W        W 5524  43.627  12.996  11.156
37307W        W 5525  36.024  17.233   0.551
37308W        W 5526  37.961  42.200  13.592
37309W        W 5527  18.786  42.835  11.104
37310W        W 5528  18.821  27.497  10.447
37311W        W 5529  33.283   9.410   0.658
37312W        W 5530  17.785  16.924   4.380
37313W        W 5531  38.696   5.367  10.513
37314W        W 5532  36.311  11.615  13.744
37315W        W 5533  42.473  31.843  14.751
37316W        W 5534   1.971  35.270  11.730
37317W        W 5535  23.966  21.628   2.745
37318W        W 5536  30.550  19.717  11.778
37319W        W 5537   8.425  10.448  12.392
37320W        W 5538  44.538  28.118   2.157
37321W        W 5539  29.653  13.371   4.115
37322W        W 5540   6.970  20.337   4.764
37323W        W 5541  39.567  38.907  10.879
37324W        W 5542  11.160   4.436   0.899
37325W        W 5543  24.018  20.980   0.267
37326W        W 5544  37.621  17.679   1.385
37327W        W 5545  42.906  27.651  13.821
37328W        W 5546  43.762  22.611   0.858
37329W        W 5547  11.033  35.287   0.392
37330W        W 5548  18.828   3.008  13.764
37331W        W 5549  29.375  38.290  11.574
37332W        W 5550  40.087  44.206   1.605
37333W        W 5551  30.498   6.972   3.311
37334W        W 5552  32.653  23.056   3.819
37335W        W 5553  16.211  24.157  12.450
37336W        W 5554  12.426  11.531  12.624
37337W        W 5555   6.939   8.745  14.389
37338W        W 5556  25.187  10.549   0.266
37339W        W 5557  39.987   7.793   3.540
37340W        W 5558  32.949  42.139  12.882
37341W        W 5559  36.318   8.779  11.778
37342W        W 5560  40.557  14.300  11.041
37343W        W 5561  20.183  28.551   4.284
37344W        W 5562   6.935  38.908  10.764
37345W        W 5563  40.360  21.500  12.524
37346W        W 5564  32.922  14.169   1.206
37347W        W 5565  31.550  42.103  10.753
37348W        W 5566  39.403  22.838   2.396
37349W        W 5567  30.565  26.656  14.985
37350W        W 5568  11.212  29.752  14.362
37351W        W 5569   5.366   1.731  14.102
37352W        W 5570  16.766  36.983   2.248
37353W        W 5571  12.823  40.466   4.352
37354W        W 5572  21.704  26.264  13.065
37355W        W 5573   8.908   4.844  13.511
37356W        W 5574  24.944  26.427   4.115
37357W        W 5575  37.802   1.152  13.401
37358W        W 5576  14.485  30.469   1.282
37359W        W 5577   2.574  11.243  10.747
37360W        W 5578   9.411   4.387  14.931
37361W        W 5579  41.808  33.623   0.031
37362W        W 5580  10.603  41.545  12.061
37363W        W 5581  38.494  42.714   0.738
37364W        W 5582  35.454  17.316   4.704
37365W        W 5583  33.814  39.893  14.901
37366W        W 5584  30.129  13.343  14.949
37367W        W 5585  17.010  21.665   3.704
37368W        W 5586  33.058   9.245  11.608
37369W        W 5587  30.946  37.906  11.799
37370W        W 5588  41.907  32.677   1.406
37371W        W 5589  25.977  30.675   4.272
37372W        W 5590  25.851  13.088   4.660
37373W        W 5591   0.763  36.010  13.894
37374W        W 5592  30.151  40.427   0.342
37375W        W 5593   9.877  27.299  12.080
37376W        W 5594   5.985  21.473  10.577
37377W        W 5595  39.224  36.797   1.485
37378W        W 5596  18.912  24.623  12.474
37379W        W 5597  26.933  29.421  13.021
37380W        W 5598  20.045  35.441   2.738
37381W        W 5599   3.422  30.557  12.863
37382W        W 5600   6.615  28.121   0.373
37383W        W 5601  32.984  18.542   2.416
37384W        W 5602  20.294  42.541  13.379
37385W        W 5603  20.236  39.345   1.323
37386W        W 5604   5.858  30.519   1.221
37387W        W 5605  29.497  36.093   1.737
37388W        W 5606  13.595  25.637   3.743
37389W        W 5607  21.139  43.979  14.262
37390W        W 5608  36.542  42.426  10.890
37391W        W 5609   2.793  28.885  13.037
37392W        W 5610   0.773  25.026  10.037
37393W        W 5611  24.659  25.570   3.142
37394W        W 5612  44.356  33.030  13.957
37395W        W 5613  27.932  26.665  13.449
37396W        W 5614  17.205  41.241   2.125
37397W        W 5615  40.472  21.566  14.393
37398W        W 5616   0.793  41.993  12.315
37399W        W 5617  29.110   6.145  11.159
37400W        W 5618  32.918   1.756   3.258
37401W        W 5619  42.427  34.486   1.284
37402W        W 5620   4.293  26.675  14.958
37403W        W 5621  21.804  42.446   4.966
37404W        W 5622  24.946  26.112   0.426
37405W        W 5623  39.936  31.376   1.300
37406W        W 5624   5.162  23.079   2.848
37407W        W 5625  22.552  43.221  14.259
37408W        W 5626  44.470  33.094  13.457
37409W        W 5627   5.582   4.331  13.551
37410W        W 5628  25.533  10.208   0.419
37411W        W 5629  26.490  42.283  12.603
37412W        W 5630  21.737  20.533  11.161
37413W        W 5631  15.640  15.864   5.029
37414W        W 5632  18.933   8.669   3.315
37415W        W 5633  34.007  39.788   2.461
37416W        W 5634   1.992  18.566  14.444
37417W        W 5635  39.360  18.288   2.702
37418W        W 5636   7.697  38.105   2.393
37419W        W 5637  13.473  33.759  13.935
37420W        W 5638   3.898  11.654   2.748
37421W        W 5639  20.326   4.328  10.675
37422W        W 5640   1.508  32.635   2.335
37423W        W 5641   2.780  32.923  14.353
37424W        W 5642   3.449  16.757  13.964
37425W        W 5643  12.391   2.410  14.558
37426W        W 5644   7.703  33.341   1.577
37427W        W 5645  11.073   9.778   3.721
37428W        W 5646   5.811  17.748  12.171
37429W        W 5647   0.456  13.789  14.323
37430W        W 5648  15.904   7.502   4.219
37431W        W 5649  34.553  25.806  12.603
37432W        W 5650  28.114   6.683  12.058
37433W        W 5651  14.685  18.493   0.923
37434W        W 5652  16.763   0.239   4.101
37435W        W 5653  44.601  23.347   0.304
37436W        W 5654  15.167  39.477  14.789
37437W        W 5655  24.412  37.320   3.822
37438W        W 5656  18.458  21.395   1.786
37439W        W 5657  15.081  34.813   1.117
37440W        W 5658  15.889  30.496   0.920
37441W        W 5659   4.615  26.430   5.081
37442W        W 5660  20.735   0.385  13.367
37443W        W 5661  11.857  36.633  12.082
37444W        W 5662  14.253  36.064  13.145
37445W        W 5663  15.582  42.754  11.003
37446W        W 5664  44.752  18.313   4.312
37447W        W 5665   5.556  15.501  11.495
37448W        W 5666  43.401  25.243   4.196
37449W        W 5667   4.306  24.889   0.433
37450W        W 5668   6.621  36.070  10.708
37451W        W 5669   0.777  29.537  10.746
37452W        W 5670  34.605  18.757   3.384
37453W        W 5671  24.922   2.313  13.455
37454W        W 5672   5.832   9.415  13.632
37455W        W 5673  32.145  17.891  13.950
37456W        W 5674  30.586  33.326  13.997
37457W        W 5675  38.764  35.464   2.731
37458W        W 5676  13.714   9.701  12.556
37459W        W 5677   8.431   3.689   4.213
37460W        W 5678  14.376  33.998   4.610
37461W        W 5679  24.224  43.785   1.677
37462W        W 5680  39.457  44.004   0.179
37463W        W 5681  38.957   0.524  12.923
37464W        W 5682  21.153   1.951   0.929
37465W        W 5683  35.047   6.930   1.312
37466W        W 5684  37.957   4.227   3.602
37467W        W 5685  23.068   4.481   0.668
37468W        W 5686  12.866  23.753   2.790
37469W        W 5687   1.632  34.930   1.649
37470W        W 5688   2.843  39.255   0.160
37471W        W 5689  38.805  23.759   1.700
37472W        W 5690  41.545  29.070  11.905
37473W        W 5691  13.676  16.443   0.838
37474W        W 5692  12.362   8.418  14.096
37475W        W 5693   0.397  40.271  12.590
37476W        W 5694  21.074   9.824  10.676
37477W        W 5695  10.763  19.758  10.453
37478W        W 5696  34.565  42.173  10.764
37479W        W 5697   6.869  14.792   3.976
37480W        W 5698  16.662  11.389  11.945
37481W        W 5699   5.716  13.619   4.606
37482W        W 5700   8.501  31.071   0.288
37483W        W 5701  27.619   0.728  13.792
37484W        W 5702   1.382   7.154   4.208
37485W        W 5703   0.902  21.031  11.134
37486W        W 5704  11.878  34.057  14.730
37487W        W 5705  18.909  15.323   4.999
37488W        W 5706   3.027  14.597   3.661
37489W        W 5707  26.084  17.537   1.267
37490W        W 5708   3.243  30.264   2.321
37491W        W 5709  27.909  42.888   0.032
37492W        W 5710  23.709   1.024  11.963
37493W        W 5711   6.249  18.590  10.701
37494W        W 5712  29.348  27.513  10.602
37495W        W 5713  18.053  39.078   0.741
37496W        W 5714  22.307  44.434  13.846
37497W        W 5715  36.119  39.815   4.042
37498W        W 5716  24.238  44.308   1.643
37499W        W 5717  22.191   8.977  13.373
37500W        W 5718   3.698  40.764   1.839
37501W        W 5719  21.898   1.227  14.501
37502W        W 5720  26.785   6.106   3.093
37503W        W 5721  38.032  32.470  11.156
37504W        W 5722  35.623   3.193  13.896
37505W        W 5723  12.367  30.720   2.374
37506W        W 5724  11.585   0.794   0.239
37507W        W 5725   4.763  33.835  13.346
37508W        W 5726  15.739  39.868  11.540
37509W        W 5727  44.943  30.991   4.039
37510W        W 5728  38.292  36.529   3.703
37511W        W 5729  10.344  17.863   2.920
37512W        W 5730  27.690  17.384   0.857
37513W        W 5731   0.268   7.290   0.221
37514W        W 5732  22.037  44.419   3.731
37515W        W 5733  43.039  35.822  13.148
37516W        W 5734  26.989  43.434  11.660
37517W        W 5735  32.689  16.777   1.931
37518W        W 5736  14.048  27.473  13.383
37519W        W 5737  41.853  35.882  12.266
37520W        W 5738  23.209  38.034  13.398
37521W        W 5739   4.312  33.066   2.685
37522W        W 5740  25.115  36.378   2.405
37523W        W 5741  20.125   5.367   3.800
37524W        W 5742  34.676   2.357   2.948
37525W        W 5743  18.636  26.608   0.034
37526W        W 5744  44.493   5.811   4.240
37527W        W 5745  15.619  23.962   2.208
37528W        W 5746  18.083  14.472   3.785
37529W        W 5747  11.060  34.488  14.474
37530W        W 5748  24.544   1.650  12.393
37531W        W 5749  31.953  12.349   3.614
37532W        W 5750   4.431  32.956   0.795
37533W        W 5751  33.727  31.213   0.829
37534W        W 5752   8.762  33.813  13.747
37535W        W 5753   6.402  44.855   2.704
37536W        W 5754  29.913   7.996   4.506
37537W        W 5755  21.096  14.609  11.096
37538W        W 5756   9.655  25.877  14.428
37539W        W 5757  41.563   1.679   2.249
37540W        W 5758  16.108  28.686  11.139
37541W        W 5759  38.478  25.572   1.237
37542W        W 5760  17.800  44.115  14.371
37543W        W 5761  19.034  20.492  12.870
37544W        W 5762  14.832  14.227   0.719
37545W        W 5763  27.714  23.363   4.058
37546W        W 5764  19.168  28.963   2.373
37547W        W 5765  37.287   8.418  11.626
37548W        W 5766  31.834  28.418   3.659
37549W        W 5767  34.899   8.844  12.204
37550W        W 5768  12.311  24.215   2.117
37551W        W 5769  44.952  20.570   2.673
37552W        W 5770   9.597  14.703  14.344
37553W        W 5771  19.130  19.170  10.660
37554W        W 5772  15.245  28.927   0.699
37555W        W 5773  10.346  16.327  13.952
37556W        W 5774  22.637  38.298  11.441
37557W        W 5775  26.256  40.351  13.815
37558W        W 5776  13.078  22.714  11.126
37559W        W 5777  25.615  16.239   3.134
37560W        W 5778  24.570  43.789  14.782
37561W        W 5779  41.846  12.840   0.569
37562W        W 5780  15.047  32.961  12.554
37563W        W 5781  19.973   7.452   2.369
37564W        W 5782  15.651  15.639   0.954
37565W        W 5783  40.491  38.372   2.823
37566W        W 5784  18.384   3.279   0.482
37567W        W 5785  22.735  33.663  13.434
37568W        W 5786  26.599  25.679  12.292
37569W        W 5787  14.303  37.559   1.735
37570W        W 5788   3.203   6.022  11.422
37571W        W 5789   9.630  34.597  13.876
37572W        W 5790  14.341  26.648   3.264
37573W        W 5791   8.295  43.243  12.398
37574W        W 5792  25.460  41.789   2.652
37575W        W 5793  13.342  11.816   1.869
37576W        W 5794   1.156  43.986   4.017
37577W        W 5795  40.256  12.277   4.617
37578W        W 5796  25.852  37.801  11.146
37579W        W 5797   7.375  21.471  12.385
37580W        W 5798  19.079  44.008   1.282
37581W        W 5799  11.933   1.508   5.044
37582W        W 5800   7.180  30.593   3.655
37583W        W 5801  26.395  16.112   3.879
37584W        W 5802  43.984  16.705   1.334
37585W        W 5803  21.108  26.320   1.785
37586W        W 5804  20.587  42.002  12.693
37587W        W 5805  16.797  38.248  11.052
37588W        W 5806  31.050  22.578   3.668
37589W        W 5807  15.568  10.765  12.174
37590W        W 5808  43.432  23.032   4.743
37591W        W 5809  25.416  15.269   0.164
37592W        W 5810  39.868   0.358  11.221
37593W        W 5811  31.039  32.083   3.917
37594W        W 5812  35.654   1.264  11.015
37595W        W 5813  21.739   5.691  14.822
37596W        W 5814  11.446  44.153  12.960
37597W        W 5815  21.840  12.627  10.769
37598W        W 5816  12.715  39.823  10.932
37599W        W 5817  44.648  12.381  11.915
37600W        W 5818  19.248  26.496   4.930
37601W        W 5819  25.641  29.153   5.044
37602W        W 5820   2.982  22.538   0.367
37603W        W 5821  41.472  27.387  12.502
37604W        W 5822  11.846  13.778  11.236
37605W        W 5823  17.145  25.392   1.258
37606W        W 5824  34.462  39.736   1.364
37607W        W 5825  40.918   6.388  12.395
37608W        W 5826  21.241  23.108   0.530
37609W        W 5827   2.333  31.731   1.692
37610W        W 5828  14.669  35.402   0.329
37611W        W 5829  44.198  37.978   1.870
37612W        W 5830  27.547  42.836  12.465
37613W        W 5831  24.742  39.215   0.437
37614W        W 5832  27.374   8.788   5.113
37615W        W 5833   3.690  32.400   1.772
37616W        W 5834  28.258  28.274  12.867
37617W        W 5835  38.562   0.772   0.166
37618W        W 5836  42.741  40.915  11.226
37619W        W 5837  18.609  12.404   2.756
37620W        W 5838  27.773  39.439  14.763
37621W        W 5839  10.568  37.526   4.964
37622W        W 5840  31.035  37.104  14.007
37623W        W 5841  24.702  38.923  14.340
37624W        W 5842  28.068   8.331   2.774
37625W        W 5843  14.062  41.806  12.926
37626W        W 5844   6.373  44.473   2.325
37627W        W 5845   0.269   0.929  14.162
37628W        W 5846  37.525  39.082  12.455
37629W        W 5847   7.039  28.050   4.823
37630W        W 5848  15.682   4.712   0.022
37631W        W 5849  33.121  43.851   4.496
37632W        W 5850  17.475  41.386   2.578
37633W        W 5851  29.267  36.922  11.626
37634W        W 5852   2.576  39.849   0.457
37635W        W 5853  30.465   7.214   1.412
37636W        W 5854   0.928  36.676   3.333
37637W        W 5855  27.979  41.955  14.482
37638W        W 5856  23.113   3.826  10.600
37639W        W 5857  43.026  30.129  14.450
37640W        W 5858  25.152   7.406   0.836
37641W        W 5859  16.589  38.950   4.969
37642W        W 5860  15.978  41.990  14.054
37643W        W 5861  10.307  11.619  11.547
37644W        W 5862  11.835  43.435  12.438
37645W        W 5863   6.903  25.089  14.309
37646W        W 5864  40.835  26.030   3.790
37647W        W 5865  34.688  27.551  14.204
37648W        W 5866  10.626   2.226   3.769
37649W        W 5867  17.547  19.827   4.517
37650W        W 5868   1.733  44.939  10.794
37651W        W 5869  17.255  40.384  12.415
37652W        W 5870  25.537   9.695   0.514
37653W        W 5871  19.318  16.079  13.813
37654W        W 5872  31.633  27.124  14.023
37655W        W 5873  35.411  36.915  15.000
37656W        W 5874  33.602  30.035   9.902
37657W        W 5875  11.925  40.489  12.944
37658W        W 5876   5.642  21.733  10.862
37659W        W 5877   6.347  36.117   1.377
37660W        W 5878   0.244  34.655   3.754
37661W        W 5879  21.031  11.748   4.691
37662W        W 5880  20.010  26.061   3.138
37663W        W 5881  34.164  44.410  11.982
37664W        W 5882   9.809   1.284   4.588
37665W        W 5883  24.883  32.194   4.234
37666W        W 5884  26.559  13.940   3.268
37667W        W 5885  32.965  36.948  12.054
37668W        W 5886  28.496  39.523  14.300
37669W        W 5887  31.626   5.884   0.005
37670W        W 5888   9.303   8.438   0.719
37671W        W 5889   0.444  19.506  14.835
37672W        W 5890  30.918  18.513  14.698
37673W        W 5891  24.005  39.312  14.027
37674W        W 5892   3.787  36.941  13.533
37675W        W 5893   4.340  13.473  12.069
37676W        W 5894  41.493  22.889  14.904
37677W        W 5895   4.122  19.017   4.573
37678W        W 5896   5.944  31.910   2.774
37679W        W 5897  13.671  34.560   0.453
37680W        W 5898  35.280  37.502  11.072
37681W        W 5899  33.114  19.099   4.085
37682W        W 5900  32.907   5.333   2.913
37683W        W 5901  25.952  11.248   0.505
37684W        W 5902  29.688  40.757  12.084
37685W        W 5903   7.243  24.012  13.202
37686W        W 5904  31.828  13.049  14.114
37687W        W 5905  18.615  33.939   4.559
37688W        W 5906  27.796  31.673   0.195
37689W        W 5907   8.395  17.109   1.009
37690W        W 5908  20.513  17.237  10.614
37691W        W 5909  41.612  34.483   1.874
37692W        W 5910  33.828  37.539   0.633
37693W        W 5911  24.343   0.421   0.326
37694W        W 5912  42.619  13.395   3.856
37695W        W 5913  27.550  30.917  14.004
37696W        W 5914  19.602  10.309   3.729
37697W        W 5915  14.237  26.415   2.310
37698W        W 5916  11.678  44.856  12.899
37699W        W 5917  19.624  10.896  14.408
37700W        W 5918   1.904   0.726   3.636
37701W        W 5919   6.399  43.624   3.653
37702W        W 5920   3.999  20.974  12.931
37703W        W 5921  40.118  34.536  13.411
37704W        W 5922  23.521  18.207  13.029
37705W        W 5923  36.286  37.960  13.145
37706W        W 5924  22.181  26.234  10.600
37707W        W 5925   8.881  17.303  14.019
37708W        W 5926   7.178   2.454   0.339
37709W        W 5927  11.300   2.759   1.757
37710W        W 5928  27.600  10.821  12.514
37711W        W 5929  17.538  24.660   2.235
37712W        W 5930   8.699   0.175   0.390
37713W        W 5931   5.979   4.835   4.342
37714W        W 5932  18.321   5.409   4.783
37715W        W 5933  26.067  18.745   1.920
37716W        W 5934  13.245  24.083   3.014
37717W        W 5935  10.602   5.097  11.102
37718W        W 5936  16.971  27.307  11.704
37719W        W 5937  43.040  15.244  11.567
37720W        W 5938  10.406  28.843  11.491
37721W        W 5939  20.232  17.382   3.610
37722W        W 5940  33.671  37.136   2.352
37723W        W 5941   5.446  26.958   3.081
37724W        W 5942  27.161  22.955   1.412
37725W        W 5943  31.175  40.800  13.534
37726W        W 5944  23.035  41.385   0.211
37727W        W 5945  42.016  35.052  14.863
37728W        W 5946  36.214   1.800   5.500
37729W        W 5947  28.618  28.651  12.907
37730W        W 5948  17.326  15.051   2.789
37731W        W 5949  30.378  38.972  12.329
37732W        W 5950   4.733  24.960   2.245
37733W        W 5951  21.684   2.001  14.837
37734W        W 5952  35.099  22.537   1.711
37735W        W 5953  40.321  25.930   2.762
37736W        W 5954  17.614  16.757  13.641
37737W        W 5955  39.854  27.594   3.602
37738W        W 5956  36.619  14.703   1.433
37739W        W 5957  19.957  40.942  13.832
37740W        W 5958  33.314  13.505  13.932
37741W        W 5959  15.191   1.039  11.933
37742W        W 5960  38.989  13.335   2.857
37743W        W 5961  19.775  12.142  10.141
37744W        W 5962   4.183  33.272   3.296
37745W        W 5963   4.707  32.819  11.483
37746W        W 5964  38.953  42.101  13.069
37747W        W 5965   6.433   3.944   1.962
37748W        W 5966   0.630  12.223  12.802
37749W        W 5967  33.319   0.492  13.515
37750W        W 5968  22.794  36.265   3.632
37751W        W 5969  22.244   0.402   4.565
37752W        W 5970  19.746   5.890   1.483
37753W        W 5971  34.066  14.828  11.558
37754W        W 5972  23.971  42.330   4.692
37755W        W 5973  41.448  24.527  12.532
37756W        W 5974  15.587  37.025  10.688
37757W        W 5975   9.091   5.386  12.760
37758W        W 5976   7.250   8.709  10.953
37759W        W 5977  33.336  29.881  10.322
37760W        W 5978  24.748  16.173   5.206
37761W        W 5979  29.010  19.258  11.146
37762W        W 5980   6.902  16.924  12.040
37763W        W 5981  11.227  25.019  11.145
37764W        W 5982   4.870  22.012  10.648
37765W        W 5983  21.715  44.057  14.862
37766W        W 5984  25.240  42.408  11.450
37767W        W 5985   5.209  21.869   4.583
37768W        W 5986  12.000   4.290  11.719
37769W        W 5987  35.373   6.341   2.683
37770W        W 5988  40.327  32.502  11.012
37771W        W 5989   5.225   3.961   0.917
37772W        W 5990  31.516  33.924   2.826
37773W        W 5991  12.839  20.717  14.439
37774W        W 5992   1.442  35.371  13.885
37775W        W 5993  25.176  40.003   4.075
37776W        W 5994  18.510  17.699   3.299
37777W        W 5995  36.512  19.094   3.773
37778W        W 5996  11.586   1.256  14.415
37779W        W 5997   8.124  24.243  13.910
37780W        W 5998  23.013  28.417   1.965
37781W        W 5999  36.755  44.193  13.012
37782W        W 6000  34.849  17.225   3.620
37783W        W 6001  23.164   7.213  12.077
37784W        W 6002  10.566  36.412   2.265
37785W        W 6003  41.081  38.938  13.889
37786W        W 6004  25.645  34.731  12.531
37787W        W 6005  32.051   9.255   4.614
37788W        W 6006   7.547  30.254   2.090
37789W        W 6007  17.815  37.413  12.959
37790W        W 6008  22.060  17.703  10.765
37791W        W 6009  27.637  19.024  10.684
37792W        W 6010  24.201  13.661  12.989
37793W        W 6011   6.579  42.638  14.501
37794W        W 6012  10.331  26.151  13.557
37795W        W 6013   8.873  42.449  12.615
37796W        W 6014   3.781  44.649   4.168
37797W        W 6015  14.555  26.504  11.461
37798W        W 6016  29.680  31.835   3.806
37799W        W 6017   6.454  17.560  14.091
37800W        W 6018  10.540  14.907   2.746
37801W        W 6019  44.537   5.161   1.637
37802W        W 6020   3.289  18.743   4.840
37803W        W 6021  33.490   6.969  11.174
37804W        W 6022  40.030  26.411  10.341
37805W        W 6023   3.637  33.566  11.271
37806W        W 6024  31.906   9.284   0.687
37807W        W 6025  31.076  41.379   4.518
37808W        W 6026  44.426   9.786   3.228
37809W        W 6027  41.942  44.625  11.005
37810W        W 6028  42.453  41.883  11.437
37811W        W 6029   2.506  29.624  14.352
37812W        W 6030  10.224   7.627  13.399
37813W        W 6031  35.103  35.041   1.709
37814W        W 6032  26.112  37.121  11.628
37815W        W 6033  24.085  41.786   0.712
37816W        W 6034  44.579  34.485   2.884
37817W        W 6035  41.985  20.699  14.544
37818W        W 6036  43.566  18.031   4.468
37819W        W 6037  24.226  34.035   3.763
37820W        W 6038  23.227  37.542   0.656
37821W        W 6039   7.102   7.186   2.100
37822W        W 6040  24.687  25.094   1.388
37823W        W 6041  12.750   5.453   3.695
37824W        W 6042  13.253  43.747  11.215
37825W        W 6043  37.652   5.851  13.877
37826W        W 6044   1.396  16.600  11.918
37827W        W 6045  37.959  28.389  12.162
37828W        W 6046  28.861  19.766  11.649
37829W        W 6047   2.251  14.621   2.466
37830W        W 6048  38.602  19.488  10.575
37831W        W 6049  44.477   1.966  13.440
37832W        W 6050  42.023  21.323  10.315
37833W        W 6051  25.753  25.306   3.764
37834W        W 6052   0.949  42.248  13.478
37835W        W 6053  17.112  43.995   0.764
37836W        W 6054  20.715  17.747  14.744
37837W        W 6055  29.484  21.283  14.002
37838W        W 6056   4.933  17.025   3.797
37839W        W 6057  21.265  21.690   2.436
37840W        W 6058   1.771  37.776   4.285
37841W        W 6059  16.688   4.242   2.731
37842W        W 6060   5.819  20.313   1.312
37843W        W 6061  10.225   2.103   0.759
37844W        W 6062  39.549  28.625   1.178
37845W        W 6063   0.361  35.857   4.624
37846W        W 6064  43.364  35.025   2.891
37847W        W 6065  28.155  14.771  12.850
37848W        W 6066   9.882  35.243   2.388
37849W        W 6067  33.923  25.485   1.985
37850W        W 6068  39.840   7.408  14.749
37851W        W 6069   8.440  36.629  14.355
37852W        W 6070  40.345   0.583  14.079
37853W        W 6071  44.447  14.107   1.724
37854W        W 6072   0.843  26.872   1.118
37855W        W 6073  34.106  19.869  11.166
37856W        W 6074  21.069   0.308  11.563
37857W        W 6075  21.010   5.767  12.290
37858W        W 6076  10.828   3.497  11.961
37859W        W 6077   3.270  25.657   4.615
37860W        W 6078  21.227  37.983  10.611
37861W        W 6079  42.582  24.248  13.533
37862W        W 6080  30.963  27.880   3.707
37863W        W 6081  22.600  32.808   4.480
37864W        W 6082  23.641  43.930  14.893
37865W        W 6083   2.373  20.322  13.006
37866W        W 6084   7.244  26.441  12.889
37867W        W 6085  32.029  31.049  11.448
37868W        W 6086  18.777  41.804  13.558
37869W        W 6087  34.336  44.270   4.161
37870W        W 6088  34.025  22.747  11.930
37871W        W 6089  26.056  23.106  11.358
37872W        W 6090   2.464  30.388  12.029
37873W        W 6091  32.389  19.094  11.580
37874W        W 6092   6.950  40.955  12.938
37875W        W 6093  16.134  20.302  14.172
37876W        W 6094  18.619  15.578   2.219
37877W        W 6095  10.373  29.896  14.860
37878W        W 6096   8.747  23.198  11.824
37879W        W 6097   7.245  28.622  14.824
37880W        W 6098  34.483  27.642   1.379
37881W        W 6099  37.039  23.225  13.826
37882W        W 6100  10.813  18.996   4.051
37883W        W 6101  20.705  33.318   2.671
37884W        W 6102  17.549  15.836  10.044
37885W        W 6103  14.303  10.889  11.144
37886W        W 6104  10.498  19.243   4.651
37887W        W 6105  41.924   7.856  13.429
37888W        W 6106  11.405  31.557   0.230
37889W        W 6107  40.252   4.916  10.324
37890W        W 6108  15.039  13.961   1.510
37891W        W 6109   1.395  13.508  10.702
37892W        W 6110  10.675  22.564  12.666
37893W        W 6111  12.819  33.193   0.215
37894W        W 6112  13.094   5.910  10.484
37895W        W 6113   1.178  33.013   1.310
37896W        W 6114  18.121  25.908  12.248
37897W        W 6115  20.691  30.412  11.113
37898W        W 6116  25.899  12.587   0.171
37899W        W 6117   0.425  34.597   2.868
37900W        W 6118   2.233  11.109  13.429
37901W        W 6119  27.447  43.258   2.375
37902W        W 6120  20.171   8.393  11.423
37903W        W 6121  44.471   1.180   3.663
37904W        W 6122   2.750  32.648   1.902
37905W        W 6123  24.044  44.181   0.753
37906W        W 6124  26.747  29.911  11.096
37907W        W 6125   2.680   0.680   4.253
37908W        W 6126  20.283  10.334   0.828
37909W        W 6127  32.564   5.017   0.177
37910W        W 6128   2.382   5.440  13.852
37911W        W 6129  30.527  17.050  13.041
37912W        W 6130  23.518  12.721   0.930
37913W        W 6131  28.998  10.528   3.301
37914W        W 6132  27.008  39.917  14.741
37915W        W 6133  35.461   2.555   4.494
37916W        W 6134  31.907  28.464  14.408
37917W        W 6135  19.077   9.189  11.244
37918W        W 6136  11.690  38.085  12.135
37919W        W 6137   1.879   7.076  14.260
37920W        W 6138  38.288   4.942   3.713
37921W        W 6139  14.886  32.983  14.983
37922W        W 6140  18.086  36.992  13.863
37923W        W 6141  16.760  38.002   4.663
37924W        W 6142  14.725  36.091  14.933
37925W        W 6143  28.179   9.957  11.048
37926W        W 6144  22.010  44.311  12.602
37927W        W 6145  32.559  32.928   1.133
37928W        W 6146   0.259  34.498   2.390
37929W        W 6147  37.791  21.155  10.428
37930W        W 6148  37.998   5.150   4.112
37931W        W 6149  42.513  35.283  11.229
37932W        W 6150  41.223  17.375  11.547
37933W        W 6151  28.079  16.870   1.396
37934W        W 6152  22.638  22.945  11.116
37935W        W 6153  33.475  18.653   4.664
37936W        W 6154  36.252  19.900  11.592
37937W        W 6155  36.593  28.030  12.486
37938W        W 6156  34.040  28.437  12.939
37939W        W 6157  19.469  43.807  11.918
37940W        W 6158  16.353   9.518   1.080
37941W        W 6159  35.929  15.167  14.413
37942W        W 6160  11.573   5.248  11.686
37943W        W 6161  11.507  18.198  10.238
37944W        W 6162  34.716  34.397  12.014
37945W        W 6163  30.075  21.498   1.236
37946W        W 6164  12.605  23.994  12.526
37947W        W 6165  22.748  15.120   1.002
37948W        W 6166   0.869  21.106   1.381
37949W        W 6167   9.733  30.504  13.361
37950W        W 6168  15.156  44.860  11.476
37951W        W 6169   1.277   6.023   1.317
37952W        W 6170  20.034  20.016   3.715
37953W        W 6171  40.922  37.026  12.079
37954W        W 6172  24.449   4.220  11.047
37955W        W 6173  21.966  44.366  10.351
37956W        W 6174  30.128  36.524   4.744
37957W        W 6175  36.973   2.404  14.793
37958W        W 6176  38.115  22.454  11.023
37959W        W 6177  25.684  22.279   3.618
37960W        W 6178   7.691  44.495  12.084
37961W        W 6179   4.898  34.299  13.028
37962W        W 6180   8.072  37.761  11.053
37963W        W 6181  20.569  13.589  12.460
37964W        W 6182   5.330  28.578  10.689
37965W        W 6183  26.478  18.311  14.433
37966W        W 6184  37.119  16.734   1.369
37967W        W 6185  22.617  31.930   2.741
37968W        W 6186  30.833   7.238   4.859
37969W        W 6187   1.319  32.065   3.750
37970W        W 6188  16.366  30.622  11.091
37971W        W 6189  37.353  17.664   3.211
37972W        W 6190  22.548  30.486  14.965
37973W        W 6191  38.065  39.842   4.142
37974W        W 6192  26.552  23.052  14.304
37975W        W 6193  23.914   3.749   0.815
37976W        W 6194   3.877  17.951  11.551
37977W        W 6195  16.158   1.489   3.872
37978W        W 6196  35.080  24.870   1.968
37979W        W 6197  14.798  22.023  12.871
37980W        W 6198  23.509  13.741   4.503
37981W        W 6199  23.203   4.048   1.974
37982W        W 6200  28.682  17.706   2.838
37983W        W 6201   1.347   5.880   3.897
37984W        W 6202  25.268   0.947   3.106
37985W        W 6203  19.537  11.242  11.731
37986W        W 6204  32.838  41.986  14.730
37987W        W 6205   9.390  22.215  12.409
37988W        W 6206  41.078  18.210   3.752
37989W        W 6207   2.650  43.240   2.292
37990W        W 6208  19.702  26.487   5.162
37991W        W 6209  33.128  14.653   1.240
37992W        W 6210  31.835  21.825   4.092
37993W        W 6211  26.252  21.887   4.055
37994W        W 6212  13.086  43.914   0.970
37995W        W 6213  15.628  42.313  10.158
37996W        W 6214  15.095  31.584  11.540
37997W        W 6215  11.128   2.088   3.687
37998W        W 6216  12.762  28.863   2.618
37999W        W 6217  40.028  19.125   4.440
38000W        W 6218  26.873   4.418   3.951
38001W        W 6219  11.562  38.462  10.789
38002W        W 6220  35.374  39.153   2.802
38003W        W 6221  35.458  22.134  10.423
38004W        W 6222  34.405  13.007  10.657
38005W        W 6223  16.788   9.815   1.163
38006W        W 6224  23.196  20.767   2.704
38007W        W 6225  41.750  22.634   0.848
38008W        W 6226   3.866  13.577   4.265
38009W        W 6227  19.497  24.274  13.934
38010W        W 6228  32.462  16.813   3.006
38011W        W 6229  36.217  34.183  11.111
38012W        W 6230  19.095  43.959  13.914
38013W        W 6231   0.841  42.077  10.515
38014W        W 6232  40.754  28.066   4.575
38015W        W 6233  10.111   7.918   3.647
38016W        W 6234  32.355  23.429  14.773
38017W        W 6235  43.362  14.685  13.495
38018W        W 6236  18.135  30.919  14.944
38019W        W 6237   2.726  31.148  10.425
38020W        W 6238   5.408  44.542   2.747
38021W        W 6239  30.948  11.273   1.395
38022W        W 6240   2.502  37.760   4.961
38023W        W 6241  15.481  17.857   3.718
38024W        W 6242  21.011  41.899   1.749
38025W        W 6243  16.625  27.442  14.375
38026W        W 6244  10.686   3.488   0.974
38027W        W 6245  26.647  11.353  13.428
38028W        W 6246  17.356  25.163  12.119
38029W        W 6247  28.883   2.162  10.080
38030W        W 6248   2.172  17.067   1.448
38031W        W 6249  35.885  22.227  11.667
38032W        W 6250  15.941  23.756  12.263
38033W        W 6251  14.183  41.948   2.447
38034W        W 6252   3.340  20.971  11.202
38035W        W 6253  34.568  15.523  14.937
38036W        W 6254  36.084  21.509  14.411
38037W        W 6255  43.435   1.505  14.561
38038W        W 6256   5.432  19.966   4.107
38039W        W 6257   8.654  40.563  11.171
38040W        W 6258  44.913  33.826  12.281
38041W        W 6259   7.709  42.971   2.264
38042W        W 6260  12.172  40.366  14.951
38043W        W 6261  20.219  13.417   5.091
38044W        W 6262  27.566  33.365   4.983
38045W        W 6263  19.632  44.188  14.073
38046W        W 6264   3.858  12.807  12.899
38047W        W 6265   4.824  28.730  10.504
38048W        W 6266   4.187  20.032   3.419
38049W        W 6267   3.796  27.464   1.337
38050W        W 6268  34.005  14.618   3.165
38051W        W 6269  32.844  38.164  13.830
38052W        W 6270  31.887  15.629   1.216
38053W        W 6271  33.940   5.507   0.507
38054W        W 6272  43.778  37.109   3.974
38055W        W 6273  18.113   6.082   3.076
38056W        W 6274   7.608  40.457  14.328
38057W        W 6275   3.904  40.173   4.184
38058W        W 6276  20.544   4.536   1.403
38059W        W 6277   1.998   9.775  14.461
38060W        W 6278   3.196  31.869   3.569
38061W        W 6279  14.383   5.209   1.287
38062W        W 6280  43.438   5.401  11.602
38063W        W 6281  42.758   9.746   0.492
38064W        W 6282  30.955  32.033  14.286
38065W        W 6283  15.034  22.975  12.053
38066W        W 6284   0.758  26.612  12.097
38067W        W 6285  31.213  41.302   0.380
38068W        W 6286  27.013  12.277   3.305
38069W        W 6287  40.875  15.365  14.319
38070W        W 6288   8.317  31.901   2.100
38071W        W 6289  28.659  24.061   0.521
38072W        W 6290  32.588   1.435  12.939
38073W        W 6291  15.748  15.827   1.861
38074W        W 6292  19.157   0.709  14.751
38075W        W 6293  22.216  11.081  12.555
38076W        W 6294  25.412  24.562   4.414
38077W        W 6295   5.726   6.813  11.166
38078W        W 6296  18.306  17.770  14.335
38079W        W 6297  38.636  30.160   2.736
38080W        W 6298  31.484  16.401   5.322
38081W        W 6299  25.649  43.408  14.986
38082W        W 6300   1.783  33.449  10.825
38083W        W 6301  28.629  28.481   2.832
38084W        W 6302  36.291  34.698  11.158
38085W        W 6303  36.668  33.096  12.875
38086W        W 6304  33.929   1.979   4.608
38087W        W 6305  38.298  22.028   0.347
38088W        W 6306  42.987   4.301   4.292
38089W        W 6307   5.093  24.088  10.751
38090W        W 6308  17.669  10.147   4.670
38091W        W 6309  32.283  23.574   4.689
38092W        W 6310   0.919  16.452   1.410
38093W        W 6311  43.846  23.974   1.927
38094W        W 6312   4.861  31.714  10.264
38095W        W 6313  40.720  30.888  11.095
38096W        W 6314  38.531  25.691   3.740
38097W        W 6315   4.210   1.863   1.813
38098W        W 6316  17.267  30.899  12.830
38099W        W 6317  36.476  41.486   2.925
38100W        W 6318  39.011  24.725   3.283
38101W        W 6319  31.528   4.469  12.562
38102W        W 6320  23.022  24.660  12.846
38103W        W 6321  32.449  44.742   3.873
38104W        W 6322  15.498   0.845  11.550
38105W        W 6323  44.961  24.558  13.677
38106W        W 6324  37.761  33.669   1.693
38107W        W 6325  15.763  43.314  14.611
38108W        W 6326  25.221  27.070   0.885
38109W        W 6327  37.925  13.526  11.246
38110W        W 6328  16.202  34.502   2.917
38111W        W 6329  21.714  30.153  11.593
38112W        W 6330  28.450  24.732  14.442
38113W        W 6331  33.585  39.315  13.323
38114W        W 6332   5.294  16.668   3.633
38115W        W 6333  41.207  40.391   1.209
38116W        W 6334  27.476  41.870   3.474
38117W        W 6335  24.345   3.292   5.055
38118W        W 6336  44.017  33.272   4.284
38119W        W 6337  19.999  24.649   1.242
38120W        W 6338  25.570  33.098  11.901
38121W        W 6339   9.423   8.729  12.231
38122W        W 6340  42.283  28.392  14.446
38123W        W 6341  10.554   5.113  12.459
38124W        W 6342  26.503  16.069  14.550
38125W        W 6343  10.793  17.180  12.160
38126W        W 6344  24.744  27.547   1.245
38127W        W 6345  34.534  25.728   4.095
38128W        W 6346   2.820  15.254   4.230
38129W        W 6347  36.087  19.276   2.059
38130W        W 6348  23.243  33.725  11.493
38131W        W 6349   5.446  19.402  14.935
38132W        W 6350  24.009  21.162   3.267
38133W        W 6351   3.696  19.167  13.948
38134W        W 6352  21.094   7.558  12.354
38135W        W 6353  21.342  37.635  13.535
38136W        W 6354  27.178  12.121   4.070
38137W        W 6355  24.808  23.043   2.434
38138W        W 6356  44.521  25.781  13.010
38139W        W 6357  22.063  10.888  13.411
38140W        W 6358  27.049  29.915  14.939
38141W        W 6359  10.140  33.592   4.822
38142W        W 6360  39.072  36.658  14.793
38143W        W 6361  38.198  24.474  13.112
38144W        W 6362   6.128   0.373   3.962
38145W        W 6363  29.834  37.363  12.132
38146W        W 6364  15.338  12.538  10.760
38147W        W 6365   3.941  42.217   0.041
38148W        W 6366  14.922  14.351  11.332
38149W        W 6367   9.263  41.935   1.194
38150W        W 6368  44.498  21.461   3.640
38151W        W 6369   3.297  30.483   3.366
38152W        W 6370  24.199  27.195  14.494
38153W        W 6371  27.065  21.270   2.879
38154W        W 6372   4.365  37.909   2.211
38155W        W 6373  19.919  11.499   2.305
38156W        W 6374  14.454  43.854   3.418
38157W        W 6375  23.326  10.905  11.053
38158W        W 6376  15.724   8.479   2.297
38159W        W 6377  39.263   7.736  12.897
38160W        W 6378  26.643  32.098  10.728
38161W        W 6379  20.687  34.977  13.579
38162W        W 6380  11.186  30.179   2.144
38163W        W 6381   9.351  24.650  14.878
38164W        W 6382  33.532  27.119  11.332
38165W        W 6383  28.209  35.642  10.211
38166W        W 6384  14.318  25.886   0.417
38167W        W 6385  31.083   2.274  10.286
38168W        W 6386  26.607  18.105   4.255
38169W        W 6387  33.347   5.844   1.879
38170W        W 6388   8.426  33.960   4.120
38171W        W 6389  21.694  32.675   0.247
38172W        W 6390  14.034  31.796  14.316
38173W        W 6391  11.066  14.800  11.899
38174W        W 6392  35.709  23.688  12.479
38175W        W 6393  44.508   5.879   3.248
38176W        W 6394  44.883  22.032   0.430
38177W        W 6395   4.421  26.753  13.639
38178W        W 6396   2.025  27.367  11.148
38179W        W 6397  42.211  43.732  12.823
38180W        W 6398  16.642  12.672   3.704
38181W        W 6399  38.762  20.590   4.540
38182W        W 6400  22.243  22.554   2.333
38183W        W 6401  27.436  17.597  13.544
38184W        W 6402  23.063  43.039   1.990
38185W        W 6403  11.387  26.115   4.677
38186W        W 6404  22.883  29.667   2.359
38187W        W 6405  16.973   8.329  12.393
38188W        W 6406  44.149  25.303   2.339
38189W        W 6407   6.290  44.476   1.381
38190W        W 6408  30.165  34.768  10.777
38191W        W 6409   5.989  20.908   1.452
38192W        W 6410  32.018   6.451   5.359
38193W        W 6411  11.045   2.633  11.077
38194W        W 6412   2.465  25.171   0.770
38195W        W 6413  18.213  41.630  10.689
38196W        W 6414  39.020  26.026  11.552
38197W        W 6415  25.501  27.854  11.122
38198W        W 6416  23.623  44.186   0.419
38199W        W 6417  27.168  15.090  12.537
38200W        W 6418  11.307   3.728  11.983
38201W        W 6419  19.056   8.732  11.439
38202W        W 6420  17.574  13.189   1.941
38203W        W 6421   5.621   6.929  12.219
38204W        W 6422  25.628   3.506   2.504
38205W        W 6423  21.537  37.128  13.051
38206W        W 6424  12.236  17.318  11.082
38207W        W 6425  44.964  35.411   2.234
38208W        W 6426  20.438  12.840   3.219
38209W        W 6427  27.732   7.741  11.651
38210W        W 6428  34.603  12.565   1.287
38211W        W 6429  30.931  10.202   5.028
38212W        W 6430  23.136  27.439  12.792
38213W        W 6431  14.857  20.208  13.022
38214W        W 6432   5.235  27.000  12.361
38215W        W 6433  33.674  21.091  14.315
38216W        W 6434  16.068  27.452  12.449
38217W        W 6435  39.851  19.673   3.702
38218W        W 6436  27.434  22.798  13.155
38219W        W 6437   9.175   7.396   0.748
38220W        W 6438  25.568  40.369  10.724
38221W        W 6439  38.061  23.513  11.059
38222W        W 6440   4.880  38.479   2.882
38223W        W 6441   5.877  16.859   3.253
38224W        W 6442  23.525  35.659  13.485
38225W        W 6443  17.227   0.519  14.823
38226W        W 6444  15.477  17.205  14.776
38227W        W 6445   8.853  12.850   2.743
38228W        W 6446  22.771  33.384  11.318
38229W        W 6447  38.263  17.716   2.424
38230W        W 6448   9.898   2.528  11.704
38231W        W 6449   8.248  21.512   0.976
38232W        W 6450  24.919  39.395  14.973
38233W        W 6451  25.550  12.337   1.663
38234W        W 6452  43.864  32.747  12.353
38235W        W 6453  20.658  19.658   0.945
38236W        W 6454  11.280  24.156  12.010
38237W        W 6455  10.150  18.060  14.522
38238W        W 6456  10.011  30.097   1.208
38239W        W 6457  28.296  39.763   3.630
38240W        W 6458  38.454   2.129   4.200
38241W        W 6459   6.435  25.070   0.232
38242W        W 6460  19.727  39.090  12.077
38243W        W 6461  36.578  21.180  11.154
38244W        W 6462   7.629  22.445  10.281
38245W        W 6463   7.641   8.209   1.410
38246W        W 6464  39.954   3.686   0.233
38247W        W 6465   5.649  30.621  12.400
38248W        W 6466  43.569   4.416   3.179
38249W        W 6467   9.304  17.588   0.886
38250W        W 6468  28.487  32.401  10.700
38251W        W 6469   7.340   4.202  12.488
38252W        W 6470  23.935  25.159   5.038
38253W        W 6471   2.837  30.727  10.748
38254W        W 6472  12.287  33.277   3.782
38255W        W 6473  29.369  43.446  14.860
38256W        W 6474  26.117  17.698  12.854
38257W        W 6475  19.033  38.034   0.383
38258W        W 6476   9.761  29.108  11.957
38259W        W 6477  13.321   0.858  12.067
38260W        W 6478   6.662  12.369   3.562
38261W        W 6479  34.939   7.819   2.278
38262W        W 6480   9.275   7.336  14.879
38263W        W 6481  22.649   3.687   1.238
38264W        W 6482  10.876  43.493  11.534
38265W        W 6483   1.045  25.902  11.489
38266W        W 6484  40.355  12.800   3.130
38267W        W 6485   3.374   3.490   3.343
38268W        W 6486  13.107   9.134  10.610
38269W        W 6487  25.055   5.665  12.989
38270W        W 6488   0.391  35.635  13.194
38271W        W 6489  35.491  34.609  12.682
38272W        W 6490   1.925  28.090   1.700
38273W        W 6491  14.534  35.596   3.766
38274W        W 6492  31.735  14.130   3.938
38275W        W 6493  25.265   0.736   3.572
38276W        W 6494  42.914   2.961   4.269
38277W        W 6495   5.244  24.044  14.070
38278W        W 6496  21.205   8.527   0.128
38279W        W 6497  41.712  12.055   4.745
38280W        W 6498  28.827  12.443  12.386
38281W        W 6499  26.195   6.996  13.887
38282W        W 6500  23.090  14.916   1.362
38283W        W 6501  44.583   8.882  14.757
38284W        W 6502  23.174  18.638   0.223
38285W        W 6503  25.910  32.217   4.288
38286W        W 6504   2.883  33.835   0.199
38287W        W 6505  36.045  16.280   2.914
38288W        W 6506  43.348   2.748  12.119
38289W        W 6507  13.578  14.652   3.223
38290W        W 6508  14.325  10.047  13.466
38291W        W 6509  25.970  38.216   3.686
38292W        W 6510  29.706  11.183   0.879
38293W        W 6511  30.516   5.502   4.040
38294W        W 6512  31.823  38.949  13.438
38295W        W 6513  41.090  36.033   3.234
38296W        W 6514  10.613  11.666  11.112
38297W        W 6515  36.870  18.767  11.030
38298W        W 6516   7.653  30.159  11.196
38299W        W 6517  22.505   1.324   2.800
38300W        W 6518  35.547  28.847  10.677
38301W        W 6519  17.944  29.710   1.074
38302W        W 6520  16.009  30.682   4.997
38303W        W 6521  37.035  39.777   2.656
38304W        W 6522  15.385  14.639   0.350
38305W        W 6523   9.837  30.075  11.799
38306W        W 6524  13.435  33.806  10.234
38307W        W 6525   6.294  40.718   4.899
38308W        W 6526  39.326  16.203  12.084
38309W        W 6527  16.781  35.889  12.094
38310W        W 6528  43.276  33.298   2.223
38311W        W 6529   6.849   2.177  11.930
38312W        W 6530  28.016  16.153  13.351
38313W        W 6531  10.627  14.967  12.150
38314W        W 6532  34.800   6.731  13.489
38315W        W 6533   3.082  31.894   3.064
38316W        W 6534  44.489  15.502   1.380
38317W        W 6535  22.101  30.705   3.250
38318W        W 6536  29.763   1.020   0.237
38319W        W 6537  23.294  27.522  12.284
38320W        W 6538  29.976   3.393   1.844
38321W        W 6539   9.158  42.839  14.550
38322W        W 6540  28.095  25.221  11.449
38323W        W 6541  44.334  43.468   0.431
38324W        W 6542  42.387  12.141   4.096
38325W        W 6543   4.391   5.917  14.498
38326W        W 6544   6.809  23.972  13.483
38327W        W 6545  33.013  41.173   2.708
38328W        W 6546  16.516  15.121  10.649
38329W        W 6547  33.021  36.637  14.348
38330W        W 6548  18.280  17.767   1.854
38331W        W 6549  19.083  10.124   3.723
38332W        W 6550  25.455  43.435   2.440
38333W        W 6551   0.832  37.095  10.872
38334W        W 6552  44.009  11.195  14.258
38335W        W 6553   9.846   8.043  12.391
38336W        W 6554  13.644  29.379  13.510
38337W        W 6555  35.063  11.304  10.894
38338W        W 6556  14.083   3.585  13.891
38339W        W 6557  12.573  13.153  10.491
38340W        W 6558   2.413  23.733  10.915
38341W        W 6559  43.737  30.533   0.612
38342W        W 6560   1.626  43.196  12.591
38343W        W 6561  16.374  26.549   2.447
38344W        W 6562  10.295   3.411   0.356
38345W        W 6563  27.348  21.635  14.428
38346W        W 6564   3.324  20.348  12.073
38347W        W 6565  20.778  23.227   0.208
38348W        W 6566   9.892  43.793  13.833
38349W        W 6567   5.652  43.524   0.288
38350W        W 6568   9.187  25.660  13.274
38351W        W 6569   9.059  27.419  13.011
38352W        W 6570  11.959   8.863   4.142
38353W        W 6571  29.016   9.221  12.851
38354W        W 6572  44.325  44.702  10.416
38355W        W 6573   8.682  11.636   0.542
38356W        W 6574  37.462  17.526   0.360
38357W        W 6575  13.608   2.541  11.873
38358W        W 6576  29.398  34.565   1.889
38359W        W 6577  18.645  15.533  13.785
38360W        W 6578   4.626  14.306   5.089
38361W        W 6579  18.999  17.005  13.756
38362W        W 6580   7.924  29.992   1.838
38363W        W 6581   3.949  12.698   2.120
38364W        W 6582  11.608  43.545  12.943
38365W        W 6583  16.129  19.094  11.774
38366W        W 6584  13.063   6.341  13.542
38367W        W 6585   3.212   7.227  11.611
38368W        W 6586  25.107  41.796  10.629
38369W        W 6587  17.334  11.588   4.735
38370W        W 6588  37.021  43.268  13.022
38371W        W 6589  42.331  29.163  12.268
38372W        W 6590  14.056  38.318   0.220
38373W        W 6591  10.720  17.659   4.256
38374W        W 6592  20.727   0.782   1.776
38375W        W 6593  42.069   4.412  12.839
38376W        W 6594  44.265  19.562   4.175
38377W        W 6595  19.803  22.671   3.141
38378W        W 6596  12.390   9.443   0.934
38379W        W 6597  33.628  36.079   0.303
38380W        W 6598  25.159  34.071   4.569
38381W        W 6599  32.895  25.223   1.028
38382W        W 6600  26.472   8.830  11.446
38383W        W 6601  20.452  30.994  14.458
38384W        W 6602  21.487  38.016  11.069
38385W        W 6603  25.668  24.596  11.668
38386W        W 6604   0.720  12.623   0.486
38387W        W 6605  17.143  39.550   3.866
38388W        W 6606   6.846   8.329   1.775
38389W        W 6607   8.771  31.633  10.408
38390W        W 6608   6.957   7.211  10.656
38391W        W 6609  40.750   4.438  10.451
38392W        W 6610  29.196  44.201  13.764
38393W        W 6611   9.679  15.074   0.375
38394W        W 6612  22.002  38.456  14.894
38395W        W 6613  15.264  42.874   0.237
38396W        W 6614  40.983   5.853  13.851
38397W        W 6615  40.319  31.422  14.873
38398W        W 6616  37.067  27.987  12.839
38399W        W 6617  42.827  21.480  13.728
38400W        W 6618  39.094  23.067  12.417
38401W        W 6619  20.257  32.912  11.097
38402W        W 6620  20.958  10.092  12.998
38403W        W 6621  36.860  43.492  14.093
38404W        W 6622  16.261   3.863  14.796
38405W        W 6623  11.949  22.561  14.970
38406W        W 6624  24.046  28.942  12.118
38407W        W 6625  16.404   8.077  10.709
38408W        W 6626  41.350  44.924   3.258
38409W        W 6627   5.121  42.498   1.823
38410W        W 6628  15.296  42.904   3.327
38411W        W 6629   3.112  23.636  13.461
38412W        W 6630  15.741  24.721  11.105
38413W        W 6631  30.735   5.653   1.331
38414W        W 6632  39.090  21.418  12.572
38415W        W 6633  32.368   7.514  11.162
38416W        W 6634  10.842  11.869   0.762
38417W        W 6635  29.988  15.940   4.543
38418W        W 6636  33.884   2.987   0.897
38419W        W 6637  21.749  41.264  12.062
38420W        W 6638  38.174  27.265   1.784
38421W        W 6639  33.349  43.419  14.077
38422W        W 6640  20.185  39.563  11.079
38423W        W 6641  41.723  16.281   1.334
38424W        W 6642  10.096  23.306  11.133
38425W        W 6643  20.802  26.015   3.286
38426W        W 6644  43.408  42.728  13.333
38427W        W 6645  17.848  41.945  11.476
38428W        W 6646  28.345  15.594   1.340
38429W        W 6647  16.495  19.966  12.186
38430W        W 6648  19.288  12.743  10.623
38431W        W 6649  22.026  14.051   2.007
38432W        W 6650  41.321   8.630  13.445
38433W        W 6651   2.486  32.455   1.087
38434W        W 6652  27.653  40.843  11.985
38435W        W 6653  24.698  20.579   2.369
38436W        W 6654  20.960  26.988   2.375
38437W        W 6655  39.928  17.681   0.322
38438W        W 6656  12.184  25.473  12.932
38439W        W 6657  41.854   1.365   0.794
38440W        W 6658  42.087  17.242  11.736
38441W        W 6659  32.660  30.175  11.704
38442W        W 6660  12.279  21.483  14.388
38443W        W 6661  23.375   6.226   4.133
38444W        W 6662  22.647  42.235  10.851
38445W        W 6663  17.179  24.920   4.575
38446W        W 6664  20.811  41.616  11.986
38447W        W 6665  28.470  40.273   3.626
38448W        W 6666  28.893  34.854   2.813
38449W        W 6667   4.479  31.464   4.993
38450W        W 6668  40.631  44.786  11.412
38451W        W 6669  32.995  34.756  14.269
38452W        W 6670  14.205  41.005   1.474
38453W        W 6671  17.306  40.490  14.788
38454W        W 6672  36.431  15.540  10.736
38455W        W 6673  40.832  11.452   0.470
38456W        W 6674  10.109   0.826   0.439
38457W        W 6675  37.644  43.426  12.435
38458W        W 6676  25.480  11.849   3.939
38459W        W 6677  36.462  43.268  14.349
38460W        W 6678  36.324   1.447  13.537
38461W        W 6679   3.155   7.780  11.884
38462W        W 6680  12.717  26.960  14.556
38463W        W 6681   0.864  23.774  13.005
38464W        W 6682  36.800   6.518   3.685
38465W        W 6683  29.436  18.034   3.899
38466W        W 6684   9.355   7.740   4.293
38467W        W 6685  13.601  28.112   0.322
38468W        W 6686   0.396  41.660   1.742
38469W        W 6687  31.618  14.800  14.341
38470W        W 6688   7.616  28.121   4.053
38471W        W 6689  31.094  41.506  12.008
38472W        W 6690  33.072  10.627   0.474
38473W        W 6691  38.918  23.874   0.538
38474W        W 6692  36.424  31.726   2.719
38475W        W 6693   3.312  36.433  10.926
38476W        W 6694  41.035   8.406  11.662
38477W        W 6695  12.371  22.967  13.980
38478W        W 6696  15.300  37.869  13.567
38479W        W 6697   7.110  15.127   3.611
38480W        W 6698  31.981  17.543   1.318
38481W        W 6699  41.903  40.995   0.974
38482W        W 6700  19.952  39.494   1.738
38483W        W 6701  30.931  27.142  12.038
38484W        W 6702  27.174  17.129   3.188
38485W        W 6703  27.672  13.710   9.962
38486W        W 6704  26.100  44.552   1.147
38487W        W 6705  33.986  26.151  14.733
38488W        W 6706  36.837  26.158   0.045
38489W        W 6707  42.204  29.063  12.775
38490W        W 6708  30.271  10.556   3.493
38491W        W 6709  37.456  34.628   2.751
38492W        W 6710  43.332   7.693  14.039
38493W        W 6711  15.381  36.495  13.691
38494W        W 6712  42.028  40.467  11.969
38495W        W 6713  11.209  24.480  11.217
38496W        W 6714  31.193  15.309  12.549
38497W        W 6715  43.207  28.138  11.481
38498W        W 6716  13.775  33.412   0.784
38499W        W 6717  37.194   3.964   4.082
38500W        W 6718   3.276  37.051   1.859
38501W        W 6719  15.207  24.077  11.035
38502W        W 6720  36.648  25.277   3.100
38503W        W 6721  22.152  11.874   4.629
38504W        W 6722  38.518  32.947   3.112
38505W        W 6723  38.483  38.606   1.519
38506W        W 6724  11.144  16.532   3.507
38507W        W 6725   3.822  25.113  11.592
38508W        W 6726  18.587  38.403   2.280
38509W        W 6727  32.695   9.221  13.907
38510W        W 6728  20.256  12.243   4.468
38511W        W 6729  17.828  33.373  14.866
38512W        W 6730  39.475   5.039   2.202
38513W        W 6731  30.382  18.864  11.139
38514W        W 6732  20.571   5.638   1.760
38515W        W 6733  18.114  32.396  14.992
38516W        W 6734  42.865  33.903   4.346
38517W        W 6735  11.681  30.417   3.602
38518W        W 6736  39.970  40.798  11.481
38519W        W 6737  15.306  41.479   2.824
38520W        W 6738  29.433   3.760  13.516
38521W        W 6739   3.437  32.622   1.311
38522W        W 6740   6.943   3.727  11.832
38523W        W 6741  26.754  10.956  11.980
38524W        W 6742  39.757   2.378  12.468
38525W        W 6743  26.848   3.904   0.819
38526W        W 6744  28.738  35.318   3.771
38527W        W 6745   0.432  42.286  14.628
38528W        W 6746  14.808  36.614  11.514
38529W        W 6747  44.056   5.354   1.572
38530W        W 6748   7.268  42.802  12.693
38531W        W 6749  22.129  28.657  11.269
38532W        W 6750  38.422   8.931   1.812
38533W        W 6751   8.389  32.165  11.550
38534W        W 6752  21.720  25.492  14.354
38535W        W 6753  33.107   6.866   0.292
38536W        W 6754  29.538  18.167   3.082
38537W        W 6755  39.754  10.718   3.174
38538W        W 6756  26.543  34.311   2.669
38539W        W 6757  21.042  19.445  13.340
38540W        W 6758  13.262  37.868  13.810
38541W        W 6759   8.740  33.069   1.916
38542W        W 6760  44.261  21.965  10.227
38543W        W 6761  19.432  25.719  14.096
38544W        W 6762  23.367   7.113  14.038
38545W        W 6763  30.623  36.040   3.351
38546W        W 6764  27.755  18.685   4.053
38547W        W 6765  10.548   0.399  14.444
38548W        W 6766  42.965  23.015   2.667
38549W        W 6767  14.415  27.437   2.838
38550W        W 6768  20.530  17.137  12.308
38551W        W 6769   7.737  37.110  10.816
38552W        W 6770  41.432   7.584   0.307
38553W        W 6771  41.149  39.529  11.903
38554W        W 6772  18.272  36.363  10.703
38555W        W 6773  40.567  11.901   1.928
38556W        W 6774  23.701  24.739   1.665
38557W        W 6775  19.546  32.783   4.718
38558W        W 6776   8.961  17.484   3.646
38559W        W 6777  23.700  40.994   0.889
38560W        W 6778  25.694  39.081   0.531
38561W        W 6779  36.970  37.112  13.369
38562W        W 6780  42.825  32.398   4.276
38563W        W 6781  43.302  40.067  13.246
38564W        W 6782  22.540  28.565  13.026
38565W        W 6783  33.579  22.637   0.257
38566W        W 6784  37.563  13.329   1.250
38567W        W 6785   8.873  33.347   5.288
38568W        W 6786  44.473  28.191   0.345
38569W        W 6787  16.628  27.477   4.851
38570W        W 6788  13.392  23.243   0.333
38571W        W 6789   9.408  20.117  11.490
38572W        W 6790  40.496  37.488  11.593
38573W        W 6791   1.012   1.680   1.373
38574W        W 6792   0.894  21.244  10.166
38575W        W 6793  44.040  10.484   0.376
38576W        W 6794  26.460   3.154  11.227
38577W        W 6795  23.929  22.264   4.156
38578W        W 6796  23.521   7.364  14.868
38579W        W 6797   0.942  44.150   1.147
38580W        W 6798  35.827  34.044   4.618
38581W        W 6799  35.015  44.776   3.887
38582W        W 6800   7.717  11.212   0.460
38583W        W 6801   0.411  14.529   4.992
38584W        W 6802  38.508  18.318  11.724
38585W        W 6803  31.088  19.188  10.623
38586W        W 6804  15.501  36.498   4.021
38587W        W 6805  17.338  32.561   2.176
38588W        W 6806  27.156  21.208  12.587
38589W        W 6807  10.705  14.030   2.464
38590W        W 6808  18.389  31.575  13.098
38591W        W 6809  42.973  25.895   2.278
38592W        W 6810  16.971  15.353  10.880
38593W        W 6811  29.818  11.900   5.310
38594W        W 6812  44.125   9.140   4.606
38595W        W 6813  31.180  44.941  11.449
38596W        W 6814  10.867  43.460  10.690
38597W        W 6815  16.232  41.858   3.778
38598W        W 6816   4.403  40.798   3.194
38599W        W 6817  25.591  26.318   2.251
38600W        W 6818  39.124  25.039   0.426
38601W        W 6819  21.039  38.998   5.079
38602W        W 6820   6.048  30.991  12.023
38603W        W 6821  21.533  42.475   2.184
38604W        W 6822  14.193  19.712   4.105
38605W        W 6823   9.823  12.073  12.351
38606W        W 6824  28.194  38.577   1.373
38607W        W 6825  30.408  16.521   2.196
38608W        W 6826  34.350  31.540  13.849
38609W        W 6827  10.191  16.228  11.354
38610W        W 6828  34.349  43.881   2.736
38611W        W 6829  12.816  41.468   2.880
38612W        W 6830   4.237  37.957  14.136
38613W        W 6831  26.696  24.028  14.042
38614W        W 6832   8.887  30.579   1.071
38615W        W 6833  36.615  42.303  11.381
38616W        W 6834   9.341  28.881   1.851
38617W        W 6835  33.679   5.383  10.532
38618W        W 6836  34.898  12.154   3.687
38619W        W 6837  17.683  16.774   3.885
38620W        W 6838  23.468  29.085   4.070
38621W        W 6839  30.455  42.212   2.556
38622W        W 6840  37.908  24.802  12.808
38623W        W 6841  10.054  42.426   2.890
38624W        W 6842  37.908  18.815  14.658
38625W        W 6843  14.647  16.258   1.216
38626W        W 6844  43.691  36.669   2.072
38627W        W 6845   4.762  33.929   2.317
38628W        W 6846  34.526   4.249  10.873
38629W        W 6847  28.262  24.597  14.928
38630W        W 6848  41.063  14.877   0.876
38631W        W 6849  12.349  42.089   0.886
38632W        W 6850  35.280  10.094   1.286
38633W        W 6851  21.289  21.305  12.556
38634W        W 6852   7.977  32.113  11.219
38635W        W 6853   5.441   9.187  14.003
38636W        W 6854  26.795  23.829  10.718
38637W        W 6855  29.547   1.959   4.603
38638W        W 6856  38.059  34.664  13.928
38639W        W 6857  19.246  44.941   1.644
38640W        W 6858   3.007   2.463   3.713
38641W        W 6859  25.603  33.459  10.664
38642W        W 6860  29.513  23.141   4.584
38643W        W 6861   0.641  37.673  12.085
38644W        W 6862  20.244   6.483   1.847
38645W        W 6863  12.082  16.612  10.466
38646W        W 6864  20.543  23.040  13.430
38647W        W 6865  43.692  37.227   0.279
38648W        W 6866  19.222   9.805  10.714
38649W        W 6867  21.246  22.527   3.298
38650W        W 6868  38.579  21.344   4.497
38651W        W 6869  29.156  21.151  14.403
38652W        W 6870  21.687  40.564  13.883
38653W        W 6871   0.417  12.351   0.847
38654W        W 6872  41.906  13.708   3.195
38655W        W 6873  13.344  38.528   4.705
38656W        W 6874   0.733  36.273   0.436
38657W        W 6875  13.341  32.454  14.345
38658W        W 6876  30.515  18.835  12.002
38659W        W 6877  42.432  20.568  14.301
38660W        W 6878  35.433  12.104   2.581
38661W        W 6879  11.778  24.040   3.978
38662W        W 6880   8.870  19.882  11.482
38663W        W 6881  28.991  13.879  12.493
38664W        W 6882  13.226  13.905  13.360
38665W        W 6883  23.062  34.206  14.692
38666W        W 6884   0.034  21.288   0.759
38667W        W 6885  38.556  14.855  11.886
38668W        W 6886   0.735  11.525  13.918
38669W        W 6887   3.983  25.872   0.768
38670W        W 6888   6.567  25.980  12.419
38671W        W 6889  26.554  16.607  13.858
38672W        W 6890  21.167  28.496  11.978
38673W        W 6891  30.698  43.375   1.693
38674W        W 6892   4.014   3.985   1.407
38675W        W 6893  29.466  42.785   3.265
38676W        W 6894   7.495   4.839  11.935
38677W        W 6895   2.493  18.742   3.877
38678W        W 6896  34.496  24.831  12.507
38679W        W 6897  24.234  42.060  12.344
38680W        W 6898  29.425   1.524  11.183
38681W        W 6899  28.498   8.969   1.447
38682W        W 6900  26.525  10.506  11.879
38683W        W 6901  41.766  31.025   4.361
38684W        W 6902   9.455  15.739  13.366
38685W        W 6903   2.613   8.838   5.054
38686W        W 6904  20.219  22.604  13.612
38687W        W 6905  11.714  24.949  14.510
38688W        W 6906  44.443  22.008   2.350
38689W        W 6907  11.277  29.240   0.769
38690W        W 6908  40.515  44.518   0.355
38691W        W 6909  21.069  14.247  13.119
38692W        W 6910  11.854  29.499  10.673
38693W        W 6911  24.613  19.719   3.437
38694W        W 6912  13.065  22.053   4.938
38695W        W 6913   6.261  21.639   2.187
38696W        W 6914  34.868  20.096  13.453
38697W        W 6915  42.698  40.557   4.138
38698W        W 6916  40.312  18.144  12.503
38699W        W 6917  36.931  41.902   0.798
38700W        W 6918  32.541  34.553  14.469
38701W        W 6919  36.362  33.358   3.269
38702W        W 6920  29.079  14.049   1.232
38703W        W 6921  32.555  14.167   0.244
38704W        W 6922   6.368  18.754   0.871
38705W        W 6923   6.927  27.828  10.634
38706W        W 6924  28.543  42.207  14.023
38707W        W 6925  41.386  36.775  13.900
38708W        W 6926  27.116   1.289   3.694
38709W        W 6927  22.173   0.797  10.674
38710W        W 6928   5.116  36.857  12.374
38711W        W 6929  15.792  44.967   3.208
38712W        W 6930   7.178   1.908   3.367
38713W        W 6931  38.417  24.238   2.669
38714W        W 6932  29.063  22.548   4.855
38715W        W 6933   7.839  24.182   0.679
38716W        W 6934   8.595   1.933   1.454
38717W        W 6935  17.751  31.178   1.483
38718W        W 6936   3.852  23.400   1.601
38719W        W 6937  18.642  35.297   2.055
38720W        W 6938  27.084  25.794  14.087
38721W        W 6939   4.135  27.121   2.834
38722W        W 6940   0.603   2.361  10.353
38723W        W 6941   1.477  27.195   1.447
38724W        W 6942  16.675  33.125  14.440
38725W        W 6943  43.790  41.812  14.693
38726W        W 6944  33.973  20.960  11.242
38727W        W 6945  31.895  40.040   2.759
38728W        W 6946  41.218   5.806  14.322
38729W        W 6947   9.850  21.761  11.219
38730W        W 6948   3.889  15.804  13.393
38731W        W 6949  31.967  26.149  13.008
38732W        W 6950   2.189  12.625   4.218
38733W        W 6951  17.491  36.489   4.036
38734W        W 6952  35.488  21.984  12.793
38735W        W 6953  20.171  15.082  11.991
38736W        W 6954  27.194  12.810   1.095
38737W        W 6955  12.188   7.261   0.933
38738W        W 6956   1.054  18.528  11.631
38739W        W 6957  42.885   2.286   5.069
38740W        W 6958  21.986  14.072  14.297
38741W        W 6959   9.935  19.161  12.482
38742W        W 6960  30.619  40.361   2.222
38743W        W 6961  10.037   2.830  14.717
38744W        W 6962  13.054  10.254  14.480
38745W        W 6963  25.655  16.804  10.705
38746W        W 6964  41.992   9.606  14.928
38747W        W 6965   0.569  11.694   0.700
38748W        W 6966   5.753  44.085  12.933
38749W        W 6967  25.821   8.716  12.510
38750W        W 6968  30.939   1.161  11.075
38751W        W 6969  26.821   9.053   2.754
38752W        W 6970  34.852  16.116  10.571
38753W        W 6971  15.380  23.173   0.368
38754W        W 6972  14.785   5.458  10.409
38755W        W 6973  44.377   3.680   2.745
38756W        W 6974  42.399  32.922   1.419
38757W        W 6975  30.567  11.842   2.544
38758W        W 6976  25.002  39.991   2.714
38759W        W 6977  30.435  35.181   4.118
38760W        W 6978  23.778  28.791  10.451
38761W        W 6979  35.731  17.227  13.289
38762W        W 6980  35.275  20.964  13.853
38763W        W 6981  36.767   9.138   2.743
38764W        W 6982  16.738  37.964   0.761
38765W        W 6983  20.908  18.472   3.263
38766W        W 6984   1.369   8.750   3.636
38767W        W 6985  24.243  21.495  11.635
38768W        W 6986   7.691   6.729   0.450
38769W        W 6987  27.511  12.264  10.333
38770W        W 6988  16.133   2.694   0.323
38771W        W 6989  29.567   9.722   1.913
38772W        W 6990  36.536  41.706   1.743
38773W        W 6991  24.701  35.064   0.794
38774W        W 6992   7.870  43.283   4.037
38775W        W 6993  42.221  37.802  13.408
38776W        W 6994  30.724  35.170   3.692
38777W        W 6995  25.156  30.502   2.795
38778W        W 6996  13.680   2.072   1.721
38779W        W 6997  42.883  26.850   1.250
38780W        W 6998  30.961  10.106  11.142
38781W        W 6999  44.814  38.671   1.224
38782W        W 7000  36.596   1.008  11.503
38783W        W 7001  26.923   0.556   1.567
38784W        W 7002  33.122  40.040   4.410
38785W        W 7003  34.981  35.585   0.939
38786W        W 7004  20.710  10.169  11.900
38787W        W 7005   1.188  12.938  12.446
38788W        W 7006  41.992   8.269   3.104
38789W        W 7007  12.877   2.251   3.733
38790W        W 7008   8.473  34.863  12.962
38791W        W 7009  21.635   8.375  14.676
38792W        W 7010  31.404  12.678   4.885
38793W        W 7011  32.287  41.063   1.258
38794W        W 7012   7.407  44.471  10.297
38795W        W 7013  34.223  20.481  11.190
38796W        W 7014   0.047  18.668  11.653
38797W        W 7015  36.102  15.068   2.844
38798W        W 7016  44.515  11.727   0.011
38799W        W 7017   2.560  32.768   2.368
38800W        W 7018  13.391  41.506  11.213
38801W        W 7019  32.145  40.611  12.686
38802W        W 7020   7.009  23.025  10.865
38803W        W 7021   0.398  34.965  14.286
38804W        W 7022   3.356  36.828  13.300
38805W        W 7023  10.407   1.438   2.203
38806W        W 7024  30.145  30.647   1.464
38807W        W 7025  13.641  43.401  13.859
38808W        W 7026  27.631  26.956   2.720
38809W        W 7027   7.805  44.063   2.158
38810W        W 7028  18.086  43.888   2.902
38811W        W 7029  18.859  21.245  12.137
38812W        W 7030  25.648   1.819  11.214
38813W        W 7031  13.588   8.297  11.542
38814W        W 7032  27.174   3.581  14.539
38815W        W 7033  11.011  15.174  10.190
38816W        W 7034  43.404  10.365  11.266
38817W        W 7035  23.674  18.406   2.259
38818W        W 7036  26.613  31.679   2.763
38819W        W 7037   5.481  27.905  13.517
38820W        W 7038  22.291  13.451   1.362
38821W        W 7039  32.213   2.796  14.455
38822W        W 7040  23.569  22.067  14.298
38823W        W 7041  29.204  25.962  10.691
38824W        W 7042  17.764  42.998   0.202
38825W        W 7043  39.464   5.893  10.473
38826W        W 7044  39.021  28.344  10.237
38827W        W 7045  29.095   0.385   1.849
38828W        W 7046  21.513  11.888  11.674
38829W        W 7047   9.146   8.783   3.206
38830W        W 7048   1.962  11.455   1.240
38831W        W 7049  37.410  21.476   0.771
38832W        W 7050  42.862  30.396  14.878
38833W        W 7051  37.802  26.513  12.068
38834W        W 7052   2.888   1.439   2.294
38835W        W 7053  26.521   1.745  11.203
38836W        W 7054  31.955  13.132   2.160
38837W        W 7055  32.151  40.875  11.605
38838W        W 7056   7.870  30.514   1.765
38839W        W 7057  31.896  26.534   0.868
38840W        W 7058   2.859  32.762   3.263
38841W        W 7059  23.021  30.139   4.899
38842W        W 7060  23.737  19.170  14.032
38843W        W 7061  39.555   5.759  14.277
38844W        W 7062   2.588  30.162  12.498
38845W        W 7063   9.287  34.797  14.414
38846W        W 7064  39.767  33.120   1.673
38847W        W 7065  37.131  19.171   0.271
38848W        W 7066   9.000  36.808   0.827
38849W        W 7067  19.570  10.187  10.648
38850W        W 7068  13.402   3.546  12.897
38851W        W 7069  35.080  21.505   0.257
38852W        W 7070   8.723  35.910  12.599
38853W        W 7071  28.954  38.854   4.546
38854W        W 7072  36.441   5.049   4.592
38855W        W 7073  39.541  35.372  14.799
38856W        W 7074  27.030  28.118  10.271
38857W        W 7075  41.974  37.009   2.326
38858W        W 7076   5.977  27.010   0.836
38859W        W 7077   0.476  14.686   1.941
38860W        W 7078  10.423  21.025  14.229
38861W        W 7079   1.840  30.375   2.434
38862W        W 7080  13.152  22.374   1.949
38863W        W 7081   7.225  32.945  13.852
38864W        W 7082   8.331  22.564  11.264
38865W        W 7083  27.073   5.388  13.388
38866W        W 7084  16.745  14.373   2.232
38867W        W 7085  28.979  28.278  11.479
38868W        W 7086  39.214  42.781  12.228
38869W        W 7087  13.315   0.029   2.784
38870W        W 7088  31.216  21.054  11.658
38871W        W 7089  26.768   7.433   4.224
38872W        W 7090  40.943   4.466   3.379
38873W        W 7091  13.381   5.362   4.508
38874W        W 7092  13.593  23.785   3.250
38875W        W 7093  39.891  12.110  10.751
38876W        W 7094  29.188   6.803   1.683
38877W        W 7095  42.250  11.881   4.767
38878W        W 7096  30.652   8.264   3.930
38879W        W 7097   1.177  20.698  11.964
38880W        W 7098  32.846  20.053  13.040
38881W        W 7099   8.402   3.680   1.690
38882W        W 7100  16.015   5.821   2.681
38883W        W 7101   0.298  17.286   3.469
38884W        W 7102   8.988  25.629   0.894
38885W        W 7103   2.408  27.191   1.737
38886W        W 7104  11.562  27.544   3.739
38887W        W 7105   7.881  15.121   9.740
38888W        W 7106  43.489   9.166   1.435
38889W        W 7107  23.115   2.002  12.415
38890W        W 7108   9.872  25.583  14.074
38891W        W 7109  16.842  33.876   0.670
38892W        W 7110  40.528  35.616   4.161
38893W        W 7111  18.722  26.721  13.045
38894W        W 7112  13.428  11.322   3.021
38895W        W 7113  28.900  16.845  13.459
38896W        W 7114  26.447  10.376   0.328
38897W        W 7115   7.157   2.421   3.161
38898W        W 7116   6.237  13.430  14.144
38899W        W 7117  32.484  30.599  13.007
38900W        W 7118  19.726  43.824   3.702
38901W        W 7119  30.453  35.093  14.230
38902W        W 7120   8.707  30.373  14.853
38903W        W 7121  27.992  16.349   0.284
38904W        W 7122  11.728   4.473  13.032
38905W        W 7123  20.400   3.540  14.948
38906W        W 7124  29.777  37.065   2.731
38907W        W 7125  20.179  13.233  13.442
38908W        W 7126  32.465  18.525   2.628
38909W        W 7127  36.525  26.581   0.137
38910W        W 7128  33.996  12.237   3.580
38911W        W 7129   7.227  40.276   2.656
38912W        W 7130  12.345  36.578  12.885
38913W        W 7131  18.797  14.912   4.127
38914W        W 7132  32.880  17.591  12.133
38915W        W 7133  11.669  20.247   3.230
38916W        W 7134  19.423   8.391  14.391
38917W        W 7135  22.548  32.829  14.293
38918W        W 7136  18.698  18.827   3.180
38919W        W 7137  37.367   7.186  12.665
38920W        W 7138  28.525  35.299   0.306
38921W        W 7139  14.037  10.837  12.026
38922W        W 7140  10.119  30.050   4.284
38923W        W 7141  18.052  25.797   4.591
38924W        W 7142   6.358  19.118  14.564
38925W        W 7143  31.611   5.366  13.467
38926W        W 7144  15.127   3.685   1.951
38927W        W 7145  30.333  37.550  12.551
38928W        W 7146   0.375  26.408  10.344
38929W        W 7147  32.586  44.189  12.616
38930W        W 7148  36.106  25.531  14.315
38931W        W 7149  13.797  21.714   3.577
38932W        W 7150  21.634   1.711  12.740
38933W        W 7151   8.149  17.197  13.061
38934W        W 7152  28.325  44.246  14.768
38935W        W 7153  26.158  31.094  12.995
38936W        W 7154  37.980  44.052  14.102
38937W        W 7155  22.698   3.833   2.859
38938W        W 7156  18.454  15.990  13.916
38939W        W 7157   8.038  30.632  12.135
38940W        W 7158   9.667  33.588  11.155
38941W        W 7159  39.866  32.111   0.772
38942W        W 7160   1.721  24.230  11.627
38943W        W 7161  35.026  12.837   2.005
38944W        W 7162  26.590   4.787   9.913
38945W        W 7163  29.934   9.119  12.980
38946W        W 7164  39.521  33.578  13.517
38947W        W 7165   8.230  35.643   1.371
38948W        W 7166  15.841  28.512  10.747
38949W        W 7167  35.710  27.384  10.130
38950W        W 7168   2.829   9.704   0.602
38951W        W 7169  20.100   0.870  14.308
38952W        W 7170  31.402  22.514  12.521
38953W        W 7171  24.776  33.205   2.740
38954W        W 7172   3.974  36.683   1.449
38955W        W 7173  36.517  33.228   4.186
38956W        W 7174  10.472   0.781  10.796
38957W        W 7175  21.682  26.605   1.834
38958W        W 7176  15.695   3.682  10.723
38959W        W 7177   2.721  33.522  11.723
38960W        W 7178   8.303  13.575   0.653
38961W        W 7179  12.266  39.978  11.163
38962W        W 7180   8.802   8.210   0.693
38963W        W 7181   7.643  20.273   2.390
38964W        W 7182  15.187  34.141  13.942
38965W        W 7183  19.823   3.174  11.182
38966W        W 7184   3.873  33.173  12.871
38967W        W 7185  25.896  10.581   1.786
38968W        W 7186  32.879  43.097   4.145
38969W        W 7187   5.734   8.700   2.327
38970W        W 7188   4.909  28.614  12.036
38971W        W 7189  32.343  22.935   1.590
38972W        W 7190   1.372  25.323   0.302
38973W        W 7191   8.870  32.313  12.390
38974W        W 7192  33.642  29.053   1.081
38975W        W 7193   5.497  44.867  14.143
38976W        W 7194  17.328   2.515   4.534
38977W        W 7195  19.630   6.196   0.189
38978W        W 7196   9.836  20.015   1.548
38979W        W 7197   5.183  11.688   3.217
38980W        W 7198   5.664  33.552   0.351
38981W        W 7199   7.246  42.529  11.820
38982W        W 7200  41.550   4.346   1.851
38983W        W 7201  30.507  26.181  10.980
38984W        W 7202  37.553  13.693   3.310
38985W        W 7203  43.326   3.031   0.336
38986W        W 7204   1.801  34.877   4.382
38987W        W 7205  17.368  28.619  10.608
38988W        W 7206   1.998  39.977   4.079
38989W        W 7207  38.504  26.569  14.822
38990W        W 7208  27.914  18.096   5.025
38991W        W 7209  26.608  20.201   5.162
38992W        W 7210  10.753  14.460   1.911
38993W        W 7211   9.407   2.281   3.737
38994W        W 7212   7.181  22.963  14.056
38995W        W 7213  42.853  43.206   2.266
38996W        W 7214  23.163  11.876   3.702
38997W        W 7215  10.207  24.549  14.444
38998W        W 7216  25.908   7.656  10.434
38999W        W 7217   0.882  17.310   3.658
39000W        W 7218  19.137  17.922  11.293
39001W        W 7219  11.393  29.006   4.535
39002W        W 7220   5.943  15.066  13.560
39003W        W 7221   2.995  13.404   1.107
39004W        W 7222  25.476  36.462   1.793
39005W        W 7223  39.948  12.529   3.271
39006W        W 7224   3.269  15.776   3.155
39007W        W 7225   2.070  34.352   2.670
39008W        W 7226  30.411  15.158   2.197
39009W        W 7227  24.021   7.629  11.573
39010W        W 7228  29.503  28.020   5.168
39011W        W 7229  23.739  44.381   4.989
39012W        W 7230  31.218  10.814   3.734
39013W        W 7231  31.994   0.051   2.211
39014W        W 7232  13.642  14.063   1.377
39015W        W 7233  36.032   2.325  11.887
39016W        W 7234   9.084   8.824  11.255
39017W        W 7235  40.792  37.815   3.692
39018W        W 7236  10.687  27.102   1.931
39019W        W 7237  17.711  15.449  10.345
39020W        W 7238   7.922  24.282  14.820
39021W        W 7239  13.930   5.364   1.745
39022W        W 7240  25.064  16.166  14.518
39023W        W 7241   9.692  26.852   3.743
39024W        W 7242  38.859  23.223  10.505
39025W        W 7243  17.627  44.854   2.203
39026W        W 7244  14.868  11.366  13.001
39027W        W 7245  43.854  18.141  14.970
39028W        W 7246  20.546  36.000   2.178
39029W        W 7247  26.663  14.353  12.503
39030W        W 7248  15.975  42.791   3.697
39031W        W 7249  32.382  11.229  14.052
39032W        W 7250  36.385  28.848  10.816
39033W        W 7251   6.937  22.481  14.565
39034W        W 7252   2.510  38.594  11.152
39035W        W 7253  34.109  28.235  14.902
39036W        W 7254  21.942  19.582   2.214
39037W        W 7255  42.690  14.274  12.362
39038W        W 7256   4.881  12.590   3.217
39039W        W 7257  44.984  19.585   3.614
39040W        W 7258  17.590  11.562   3.098
39041W        W 7259   0.343  24.748   3.434
39042W        W 7260  21.851  30.631   3.814
39043W        W 7261  35.512  29.890   0.470
39044W        W 7262  32.436  19.521   2.847
39045W        W 7263  19.010  16.380  12.487
39046W        W 7264   6.898  32.836  12.588
39047W        W 7265  24.858  27.348  12.101
39048W        W 7266  12.270   8.852   2.273
39049W        W 7267  17.068  44.535  13.796
39050W        W 7268  12.692   6.925   0.694
39051W        W 7269  25.647  39.961  11.077
39052W        W 7270  42.045  32.566  10.968
39053W        W 7271   2.909   4.761  10.677
39054W        W 7272   1.837  23.129  11.135
39055W        W 7273   1.945  26.472  13.290
39056W        W 7274   8.783   8.276   2.270
39057W        W 7275   6.234  38.403   0.864
39058W        W 7276  34.040  38.496  13.455
39059W        W 7277  10.801  33.563   2.865
39060W        W 7278  15.170  43.784   4.190
39061W        W 7279  35.624   4.848  13.386
39062W        W 7280  38.505  37.786  13.859
39063W        W 7281   3.762  19.809   0.454
39064W        W 7282  37.874   1.138   1.237
39065W        W 7283  16.796  39.913   4.065
39066W        W 7284  44.415  17.290  14.973
39067W        W 7285  30.376  14.334  14.817
39068W        W 7286  30.557  12.994  11.170
39069W        W 7287  14.666  13.930   5.108
39070W        W 7288  28.928  37.311  14.385
39071W        W 7289  32.638  40.230   4.092
39072W        W 7290  44.993  40.507   4.624
39073W        W 7291  41.015  25.717  12.599
39074W        W 7292  12.329  15.357  11.637
39075W        W 7293  35.055   7.954   3.137
39076W        W 7294  28.652  26.053   0.361
39077W        W 7295   9.185   4.504   0.384
39078W        W 7296  11.279  23.485   1.703
39079W        W 7297   6.864  39.780   3.211
39080W        W 7298  14.652   4.979  10.258
39081W        W 7299  35.977   4.755  12.397
39082W        W 7300  36.505  34.020   1.180
39083W        W 7301  24.083  14.768  11.220
39084W        W 7302  17.291  33.387  14.894
39085W        W 7303  25.932  24.166   1.801
39086W        W 7304  27.103  17.413   3.626
39087W        W 7305  24.558  23.695   2.570
39088W        W 7306  19.657   7.350   1.287
39089W        W 7307  21.520  39.480   0.832
39090W        W 7308  22.708  16.058  10.451
39091W        W 7309  28.629  38.525  14.015
39092W        W 7310  13.609  36.904  11.093
39093W        W 7311  16.237  28.612   2.717
39094W        W 7312  13.182  14.573   2.808
39095W        W 7313   1.870  12.303  14.859
39096W        W 7314   0.499  24.015  13.611
39097W        W 7315  43.528  23.069   4.216
39098W        W 7316  19.352  26.621   1.856
39099W        W 7317  36.425  19.820  12.437
39100W        W 7318  11.397  39.632  14.077
39101W        W 7319  20.526   7.863   0.304
39102W        W 7320  38.502  32.236  12.829
39103W        W 7321  25.078  40.969  14.930
39104W        W 7322   2.148  39.475  14.958
39105W        W 7323   3.171  40.415  11.171
39106W        W 7324  18.338  25.950   3.668
39107W        W 7325  41.326   2.149   2.339
39108W        W 7326  24.634  44.587   4.104
39109W        W 7327  16.181  17.481   1.384
39110W        W 7328  32.405  26.654   3.182
39111W        W 7329  32.996   6.187  11.661
39112W        W 7330  44.235  23.970   2.794
39113W        W 7331  16.120  25.495  12.949
39114W        W 7332  41.234  29.012   3.079
39115W        W 7333   1.020  19.430  11.679
39116W        W 7334  43.477  20.225   4.558
39117W        W 7335  16.613  33.528   1.004
39118W        W 7336  43.961  28.009   2.253
39119W        W 7337  42.291  23.839  13.389
39120W        W 7338  18.256   5.457   4.244
39121W        W 7339   6.641  28.173  11.840
39122W        W 7340  15.330  14.246  11.627
39123W        W 7341   3.368  44.154  14.540
39124W        W 7342   8.395   1.129   1.263
39125W        W 7343  37.896  37.134  14.916
39126W        W 7344  20.169  36.463   2.914
39127W        W 7345  42.024  38.815   3.799
39128W        W 7346   8.683  36.407  13.953
39129W        W 7347   0.889  29.239  11.156
39130W        W 7348  18.022  10.181  13.392
39131W        W 7349  33.937  35.451  13.614
39132W        W 7350  20.561  31.468  11.192
39133W        W 7351  41.206  30.980  12.505
39134W        W 7352   3.675   9.332   3.332
39135W        W 7353  30.970  33.923   0.396
39136W        W 7354   1.426   0.931  11.177
39137W        W 7355  40.498  38.300  13.525
39138W        W 7356  17.546  30.120  13.801
39139W        W 7357  41.704  38.542   0.905
39140W        W 7358  39.970  21.275  10.621
39141W        W 7359  12.286   7.186   4.224
39142W        W 7360   7.261  36.897   3.483
39143W        W 7361  36.291  16.552  11.746
39144W        W 7362   2.744  19.692   4.256
39145W        W 7363  15.620   4.547   1.682
39146W        W 7364   9.922  41.309  13.316
39147W        W 7365  28.678  29.452   1.328
39148W        W 7366  30.466  35.489   0.535
39149W        W 7367  36.938  42.777  12.011
39150W        W 7368  34.941  44.902   2.892
39151W        W 7369  43.054  19.722   3.072
39152W        W 7370  36.015  12.165  11.061
39153W        W 7371  29.509  26.425   0.692
39154W        W 7372  20.456   6.908   1.635
39155W        W 7373  27.571  27.995   2.652
39156W        W 7374  36.564  42.378   4.360
39157W        W 7375  43.441  15.432   3.630
39158W        W 7376  31.999  28.606   2.218
39159W        W 7377  16.524   5.256  11.966
39160W        W 7378   9.331  20.928  12.671
39161W        W 7379   4.813  18.702  14.503
39162W        W 7380   0.830  33.546  12.941
39163W        W 7381  20.002  10.281   2.945
39164W        W 7382  39.096  20.943   1.769
39165W        W 7383  40.927  30.136  10.640
39166W        W 7384  43.942  15.640  14.235
39167W        W 7385   2.917  34.710  14.024
39168W        W 7386  39.324  40.893  14.739
39169W        W 7387  41.829   3.339  13.472
39170W        W 7388  36.853  33.599  13.016
39171W        W 7389   9.162  12.336   0.865
39172W        W 7390  34.624  12.492   2.708
39173W        W 7391  28.893  40.369  10.776
39174W        W 7392   4.142  30.435  14.524
39175W        W 7393  42.800  29.566  13.037
39176W        W 7394  33.172  16.416  10.164
39177W        W 7395  20.946   6.873   5.349
39178W        W 7396  19.161   5.174  12.665
39179W        W 7397  24.539  23.069   2.896
39180W        W 7398  32.079  15.406  12.438
39181W        W 7399  18.281  41.337  13.987
39182W        W 7400  16.511  17.780   3.826
39183W        W 7401   3.253  21.720  14.348
39184W        W 7402  44.322   5.762   3.743
39185W        W 7403  30.430  27.476  11.557
39186W        W 7404  31.890  17.455   2.687
39187W        W 7405  23.304  25.571  12.803
39188W        W 7406   3.371   4.063   4.533
39189W        W 7407  40.241   3.834   5.110
39190W        W 7408  42.570   7.126  14.719
39191W        W 7409   1.639  11.791   2.118
39192W        W 7410  31.648  20.659   0.894
39193W        W 7411  24.485  15.135  12.170
39194W        W 7412  38.628   0.294  11.677
39195W        W 7413  39.046   9.240   0.385
39196W        W 7414  19.840  18.300   3.596
39197W        W 7415  21.850  14.664  10.776
39198W        W 7416  35.334   8.838  14.432
39199W        W 7417  17.456  12.569  12.626
39200W        W 7418   6.376  36.970  14.834
39201W        W 7419   8.366   4.217   3.656
39202W        W 7420  24.523  12.882   1.879
39203W        W 7421  13.096   6.257  12.853
39204W        W 7422  15.771  37.779   0.820
39205W        W 7423  18.737  42.089  13.126
39206W        W 7424  32.097  27.051   9.812
39207W        W 7425  40.467   8.350  11.635
39208W        W 7426   1.928  20.528   2.393
39209W        W 7427  22.704  23.642   3.558
39210W        W 7428   8.265  16.839   3.200
39211W        W 7429   9.143  24.375   3.170
39212W        W 7430  11.250  40.928  12.570
39213W        W 7431  16.349  40.128  12.008
39214W        W 7432  13.171  29.736  12.594
39215W        W 7433  40.858  29.017  14.897
39216W        W 7434   9.298  29.388  11.962
39217W        W 7435  18.236   5.025  11.618
39218W        W 7436  39.610  35.624  14.348
39219W        W 7437  34.617   2.003  14.879
39220W        W 7438  12.716   2.942  11.698
39221W        W 7439  26.837  20.635  11.430
39222W        W 7440  29.486  34.998  12.748
39223W        W 7441  40.527   1.484   3.611
39224W        W 7442  44.217  26.749   0.404
39225W        W 7443  38.109   1.902   0.692
39226W        W 7444  42.903  38.404  13.560
39227W        W 7445  27.553  26.195   4.123
39228W        W 7446  42.980  35.073   4.619
39229W        W 7447  24.560  26.562   3.323
39230W        W 7448   5.752  21.172  12.331
39231W        W 7449  20.641  10.397  11.433
39232W        W 7450  26.397   4.826   3.818
39233W        W 7451  15.340  21.066  13.435
39234W        W 7452  15.552   9.671   1.688
39235W        W 7453  21.651   7.342   2.637
39236W        W 7454  39.048  36.958   1.032
39237W        W 7455   8.972  28.967   4.649
39238W        W 7456  15.147  31.839  14.363
39239W        W 7457  14.557  22.624  12.017
39240W        W 7458  14.846   3.433  10.360
39241W        W 7459  18.549  15.518   1.310
39242W        W 7460  29.621  36.543   4.604
39243W        W 7461  40.067  32.082  10.777
39244W        W 7462  11.427  42.067   3.625
39245W        W 7463  23.902   0.570  13.235
39246W        W 7464   8.402  13.388   0.181
39247W        W 7465  21.069  39.331   3.030
39248W        W 7466  27.069   5.692   0.902
39249W        W 7467   0.490  33.873   0.869
39250W        W 7468  30.101  16.766  13.991
39251W        W 7469  44.700  10.603   0.777
39252W        W 7470  23.855  29.911  12.988
39253W        W 7471  38.468   1.685   5.155
39254W        W 7472  42.125   2.057  11.568
39255W        W 7473   8.349  35.823  14.749
39256W        W 7474  15.335  44.139  14.612
39257W        W 7475  28.985   0.456   3.164
39258W        W 7476  26.570  44.246   3.604
39259W        W 7477  27.927   0.740   0.835
39260W        W 7478   0.928  20.215  11.985
39261W        W 7479  22.017  41.107  14.506
39262W        W 7480   9.685   3.792  10.570
39263W        W 7481   7.868   1.768   2.840
39264W        W 7482  31.572  37.962   1.716
39265W        W 7483  31.514  43.002   4.288
39266W        W 7484  15.762   2.447  10.356
39267W        W 7485  33.971   9.379   3.267
39268W        W 7486   3.740  10.247  12.124
39269W        W 7487  23.319  37.523  13.429
39270W        W 7488  31.459  38.493   1.475
39271W        W 7489  37.611  16.113   2.893
39272W        W 7490  29.829  23.847  11.765
39273W        W 7491  21.268  44.307   2.413
39274W        W 7492  17.588  23.136   4.737
39275W        W 7493  28.663  31.085   2.269
39276W        W 7494  10.391  32.917  11.081
39277W        W 7495  39.051   2.467  11.305
39278W        W 7496  18.730  31.712   4.447
39279W        W 7497  17.728   2.686   3.318
39280W        W 7498   8.848   2.203  11.027
39281W        W 7499  36.314  29.498  13.358
39282W        W 7500  21.776  44.825  11.751
39283W        W 7501  12.250  36.527  10.649
39284W        W 7502  30.429  31.093   4.758
39285W        W 7503  13.650  42.873  10.131
39286W        W 7504  16.265  35.411   1.537
39287W        W 7505  43.738  27.066   1.102
39288W        W 7506  34.863   3.216  13.548
39289W        W 7507  22.755  38.452   0.708
39290W        W 7508  22.307  25.731   0.404
39291W        W 7509  24.236   8.220  10.731
39292W        W 7510   7.457  25.057   2.920
39293W        W 7511   5.572   4.760   1.462
39294W        W 7512   0.682  17.531   4.079
39295W        W 7513  25.111  21.196  12.849
39296W        W 7514  13.917   2.194  14.340
39297W        W 7515   6.181  17.017   9.875
39298W        W 7516  17.927  24.751  14.322
39299W        W 7517  23.449  26.194  14.071
39300W        W 7518  12.790  26.466  12.330
39301W        W 7519  40.908  14.641   1.337
39302W        W 7520  16.754  37.501   1.791
39303W        W 7521  12.294   4.536  10.907
39304W        W 7522  40.824   3.436   2.609
39305W        W 7523   7.830  15.232  13.629
39306W        W 7524  14.217   0.860  10.312
39307W        W 7525  31.468   6.226  10.547
39308W        W 7526  26.204  14.825   4.218
39309W        W 7527  33.225   5.824  13.416
39310W        W 7528  27.857   5.896  11.164
39311W        W 7529  30.436  34.372  12.602
39312W        W 7530  37.892  31.036  14.521
39313W        W 7531  18.019  12.943   3.650
39314W        W 7532  37.607  30.148  13.479
39315W        W 7533   7.897  36.078   2.076
39316W        W 7534  11.419   5.795   0.308
39317W        W 7535  36.571   5.807   4.193
39318W        W 7536  29.849  32.355   4.409
39319W        W 7537  20.099  25.747  13.515
39320W        W 7538  43.657   7.855   4.685
39321W        W 7539  34.425   2.881   0.915
39322W        W 7540   4.953  30.054  11.192
39323W        W 7541  19.757  39.514  12.663
39324W        W 7542  22.134   8.302   4.515
39325W        W 7543   1.717  38.177   0.796
39326W        W 7544   8.126  23.198  14.040
39327W        W 7545   2.987  31.592  10.677
39328W        W 7546  39.342  40.444   4.309
39329W        W 7547  41.267  32.076  12.440
39330W        W 7548  18.358  44.798   2.483
39331W        W 7549  33.465  19.233   1.903
39332W        W 7550  22.666  10.424   4.362
39333W        W 7551  13.408   4.647  11.360
39334W        W 7552   0.154  12.265  12.998
39335W        W 7553  43.946  44.094   4.841
39336W        W 7554   4.489   6.431   1.760
39337W        W 7555  32.951  22.032  13.111
39338W        W 7556  42.463   7.693   0.430
39339W        W 7557  31.669  37.811  11.244
39340W        W 7558  26.517   1.468   4.232
39341W        W 7559  12.114  22.102  14.799
39342W        W 7560  40.114  30.474   0.427
39343W        W 7561  23.457  17.446  10.710
39344W        W 7562  28.012  15.017   2.861
39345W        W 7563  10.349  23.965  12.992
39346W        W 7564  23.301  35.324   3.756
39347W        W 7565  10.431  21.021   3.046
39348W        W 7566  27.472  22.896   0.751
39349W        W 7567   9.666  43.602   3.184
39350W        W 7568   6.254   3.285   4.520
39351W        W 7569   2.885  18.301   0.200
39352W        W 7570  33.174   0.021  14.668
39353W        W 7571  31.153  44.805  14.509
39354W        W 7572  13.292  10.648  11.539
39355W        W 7573  12.736   4.846  12.965
39356W        W 7574  40.370  35.002  12.150
39357W        W 7575  18.328   1.327  14.086
39358W        W 7576  17.791  39.174  13.638
39359W        W 7577   3.810  34.097   3.665
39360W        W 7578  36.083   7.941  11.942
39361W        W 7579  38.830  11.747   4.551
39362W        W 7580  34.809  10.686   4.497
39363W        W 7581   6.326  24.073  12.721
39364W        W 7582  42.783   8.861   3.151
39365W        W 7583   8.733  35.212  13.281
39366W        W 7584  30.011  18.498  10.949
39367W        W 7585  30.088  44.325  12.192
39368W        W 7586  24.352   3.770  13.089
39369W        W 7587  18.577  42.468   2.880
39370W        W 7588  11.386   5.894  10.753
39371W        W 7589  28.695  14.520   2.594
39372W        W 7590   2.351  44.408   1.641
39373W        W 7591   3.796  25.316  13.531
39374W        W 7592  19.834  29.572  11.095
39375W        W 7593  28.171  37.351   2.805
39376W        W 7594   8.173   2.857  13.949
39377W        W 7595   0.063  42.038  11.126
39378W        W 7596  18.760   9.079   0.577
39379W        W 7597  25.056  18.575   0.107
39380W        W 7598  31.475   2.420   1.330
39381W        W 7599  20.054  40.591  12.136
39382W        W 7600   4.321  16.184  13.984
39383W        W 7601   6.911  19.957  10.601
39384W        W 7602  39.393  14.638  14.469
39385W        W 7603  21.064   0.330  12.426
39386W        W 7604  29.466  17.459  14.962
39387W        W 7605  38.092   9.286   3.453
39388W        W 7606  10.378  14.390  13.401
39389W        W 7607   7.601   3.203  11.629
39390W        W 7608  25.554   7.738   2.509
39391W        W 7609  22.124  12.937  14.808
39392W        W 7610  11.716  18.536   4.709
39393W        W 7611  32.179  30.160  11.519
39394W        W 7612  26.270  26.516  10.757
39395W        W 7613  38.564  44.333   3.731
39396W        W 7614  33.416  42.445  13.970
39397W        W 7615  29.185   3.324   2.803
39398W        W 7616  33.611  19.027  14.920
39399W        W 7617   5.367   1.191  12.466
39400W        W 7618  36.352  24.918  12.833
39401W        W 7619  31.334  16.667   4.182
39402W        W 7620  34.885   0.739  11.519
39403W        W 7621   4.279  14.863   4.118
39404W        W 7622  22.885  24.152  11.572
39405W        W 7623   7.192  33.422  11.173
39406W        W 7624  23.715  29.753  12.054
39407W        W 7625  39.960  29.636   2.112
39408W        W 7626  19.183  40.350  14.826
39409W        W 7627  27.229  19.122  11.992
39410W        W 7628   6.626   2.297  12.358
39411W        W 7629  11.420   2.513   3.628
39412W        W 7630  30.921  25.746  12.797
39413W        W 7631   8.135  19.743  11.247
39414W        W 7632  40.779  44.995  13.127
39415W        W 7633  38.567   0.753   1.707
39416W        W 7634   2.288  19.746  14.500
39417W        W 7635  11.810   0.965  13.769
39418W        W 7636   4.729  39.861   0.902
39419W        W 7637  43.530  37.464  14.536
39420W        W 7638  44.403  34.880   4.175
39421W        W 7639  10.283   5.642  12.355
39422W        W 7640   9.378  15.836  14.351
39423W        W 7641   8.097  39.388   2.188
39424W        W 7642   7.363  27.175   4.961
39425W        W 7643  33.409  41.860  10.072
39426W        W 7644  43.450  33.816  14.015
39427W        W 7645  17.247  37.912   4.864
39428W        W 7646  40.027  24.992  10.702
39429W        W 7647   3.663  26.247  12.086
39430W        W 7648  28.052  31.182  10.425
39431W        W 7649  31.211  29.547  13.558
39432W        W 7650   4.478  27.522   0.814
39433W        W 7651   9.594  35.054   3.338
39434W        W 7652  35.439  10.314   3.216
39435W        W 7653  33.919  34.441   4.566
39436W        W 7654  42.452  18.529  12.855
39437W        W 7655  42.739  44.392   0.642
39438W        W 7656  27.709  14.150  10.234
39439W        W 7657   2.296   5.320  14.379
39440W        W 7658  30.393   9.803  11.999
39441W        W 7659  41.872  34.556   2.318
39442W        W 7660   7.947  40.446   0.192
39443W        W 7661  40.256  26.283  10.869
39444W        W 7662  35.343  26.902  13.506
39445W        W 7663  17.008  11.541   4.334
39446W        W 7664   5.307  22.505  14.337
39447W        W 7665  35.930  41.595  10.502
39448W        W 7666   2.885  41.301   1.314
39449W        W 7667   5.866  27.222  14.896
39450W        W 7668  36.407  18.135  13.860
39451W        W 7669  34.604  31.379   0.406
39452W        W 7670  39.121  34.581  12.138
39453W        W 7671  24.189  43.815   4.169
39454W        W 7672   7.426  19.295   3.642
39455W        W 7673  27.437  15.042  12.067
39456W        W 7674  42.307  24.048   0.875
39457W        W 7675  32.548   0.798  12.467
39458W        W 7676  24.610  43.085  14.044
39459W        W 7677   9.266  19.766   2.151
39460W        W 7678  15.054  19.647   0.201
39461W        W 7679   0.912  43.989   2.097
39462W        W 7680  39.959  30.344  10.773
39463W        W 7681   2.588   8.272  13.426
39464W        W 7682  42.967  34.501   0.086
39465W        W 7683  10.507  37.121  11.098
39466W        W 7684  44.393   8.686   4.689
39467W        W 7685  31.887  35.599  11.970
39468W        W 7686  44.429  11.690   3.649
39469W        W 7687  12.138  40.619  12.257
39470W        W 7688  18.050  19.213  14.907
39471W        W 7689  20.777  10.292   0.788
39472W        W 7690   8.048  43.923  13.655
39473W        W 7691   2.327  30.778  10.975
39474W        W 7692  12.112   2.549  12.128
39475W        W 7693  42.712  24.482  11.910
39476W        W 7694  38.421  34.994  13.732
39477W        W 7695   0.214   5.582  12.849
39478W        W 7696  24.514  34.589  10.546
39479W        W 7697  28.358  13.308   3.449
39480W        W 7698  38.085  22.246  12.978
39481W        W 7699  37.103  12.469  12.513
39482W        W 7700  31.618  18.337   2.661
39483W        W 7701   4.466  30.463  10.562
39484W        W 7702  22.676  41.479  12.904
39485W        W 7703  19.244  10.811  13.069
39486W        W 7704  17.120  15.851  13.850
39487W        W 7705  44.500   0.359   4.068
39488W        W 7706  14.643  35.824   1.263
39489W        W 7707  24.447  22.734   1.690
39490W        W 7708   1.301  11.309   3.907
39491W        W 7709  29.892   5.980   0.518
39492W        W 7710   3.131  42.326   4.145
39493W        W 7711   7.257  15.859  13.970
39494W        W 7712  21.414   3.895  11.575
39495W        W 7713  44.062  40.378  10.830
39496W        W 7714   4.298  29.512  13.371
39497W        W 7715   2.216  34.112   3.362
39498W        W 7716  14.669  20.534   0.657
39499W        W 7717  18.040  17.595   3.521
39500W        W 7718  16.134  10.310  12.616
39501W        W 7719  30.700  27.441   4.602
39502W        W 7720  24.149   1.264   2.245
39503W        W 7721   5.214  31.154  14.199
39504W        W 7722  13.495   8.848   0.491
39505W        W 7723   7.803  19.640   1.169
39506W        W 7724  37.054  37.009  10.718
39507W        W 7725  13.106  18.342   3.691
39508W        W 7726  28.590  11.373   3.210
39509W        W 7727   9.560  19.967  11.028
39510W        W 7728   7.925  28.062  11.506
39511W        W 7729   4.796  13.779  12.010
39512W        W 7730  40.941  18.868  11.617
39513W        W 7731  21.536  17.913   3.728
39514W        W 7732  39.610   8.726  12.893
39515W        W 7733  27.423  41.908  12.443
39516W        W 7734  33.482  27.204   0.421
39517W        W 7735   0.317  41.625  14.020
39518W        W 7736  13.176  12.359  11.115
39519W        W 7737  38.720   6.538  10.911
39520W        W 7738  13.088  17.277   5.026
39521W        W 7739  23.976   4.278   0.811
39522W        W 7740   5.293  20.159  14.823
39523W        W 7741  18.968  26.169  12.587
39524W        W 7742  32.224  44.857  11.586
39525W        W 7743  18.388  32.221   1.873
39526W        W 7744  43.415  14.750  11.174
39527W        W 7745  23.947  44.766   3.371
39528W        W 7746  12.741  38.093   2.980
39529W        W 7747  26.533  17.006  14.987
39530W        W 7748  19.841  37.475   4.268
39531W        W 7749  26.978  43.378   2.179
39532W        W 7750  38.925   2.850   3.444
39533W        W 7751  31.385  27.008   3.176
39534W        W 7752  37.438  20.164  12.810
39535W        W 7753  37.322  11.889  10.558
39536W        W 7754  25.677  22.527   0.962
39537W        W 7755   6.318   1.196   1.793
39538W        W 7756   1.946   4.005   0.959
39539W        W 7757  11.041  12.862   3.911
39540W        W 7758  41.476  29.547  11.064
39541W        W 7759  37.776  18.034   3.178
39542W        W 7760  25.544  18.340  11.588
39543W        W 7761   5.951  44.555  12.825
39544W        W 7762  17.840  19.361  14.067
39545W        W 7763   3.431   5.855  14.854
39546W        W 7764  44.949  34.097   4.542
39547W        W 7765  17.055  15.278   4.429
39548W        W 7766  29.282  19.653  11.914
39549W        W 7767  35.301  33.996   4.879
39550W        W 7768  39.370   7.902   1.794
39551W        W 7769  18.328  26.663  14.012
39552W        W 7770  19.523  14.391   3.785
39553W        W 7771  41.634  21.591  12.572
39554W        W 7772  27.954   8.644  13.765
39555W        W 7773  40.908  27.460  13.556
39556W        W 7774  23.236  36.189  11.471
39557W        W 7775   0.905  10.899   1.231
39558W        W 7776  25.488  36.061  12.356
39559W        W 7777   1.834  42.199   0.275
39560W        W 7778  29.397  37.292   4.015
39561W        W 7779   5.049  26.984   0.339
39562W        W 7780   2.382  23.741   2.411
39563W        W 7781  38.845  22.974  11.404
39564W        W 7782  19.784  22.002  10.747
39565W        W 7783   8.237  23.934  10.673
39566W        W 7784   6.642  41.496  14.469
39567W        W 7785   4.888  42.029   1.863
39568W        W 7786  38.395  20.241   0.444
39569W        W 7787   0.657  26.767   4.104
39570W        W 7788  40.204  13.545   2.730
39571W        W 7789  35.592  14.566   1.387
39572W        W 7790  16.523  28.998  14.722
39573W        W 7791  12.672  28.464   0.151
39574W        W 7792   5.788  37.096  13.846
39575W        W 7793  32.960  28.649   1.727
39576W        W 7794   9.693  28.470  10.807
39577W        W 7795  14.845   5.203   1.578
39578W        W 7796  27.912   1.693   3.234
39579W        W 7797   5.717  37.914  13.402
39580W        W 7798  24.616   4.131  12.772
39581W        W 7799  14.587  34.395  11.275
39582W        W 7800  19.719  14.480  14.287
39583W        W 7801  28.575  29.999  13.906
39584W        W 7802  36.523  40.712   1.905
39585W        W 7803  16.658  33.058  13.469
39586W        W 7804  22.594   5.536   3.762
39587W        W 7805  37.908  13.014   2.800
39588W        W 7806  35.206  13.865  11.183
39589W        W 7807  43.765  27.197   1.623
39590W        W 7808   1.304   5.042  10.139
39591W        W 7809  10.348  44.179   3.379
39592W        W 7810  33.857  41.901  13.079
39593W        W 7811  39.986  35.616   4.422
39594W        W 7812   6.260  14.562   1.920
39595W        W 7813   4.268  28.964   2.910
39596W        W 7814  21.554  42.801   4.221
39597W        W 7815  17.479   4.462  12.973
39598W        W 7816  28.869  39.474   2.359
39599W        W 7817   4.353  26.027  12.464
39600W        W 7818  27.836   1.844   1.159
39601W        W 7819  21.636  23.097   1.759
39602W        W 7820  13.175   7.556  10.770
39603W        W 7821   2.368  35.037  13.446
39604W        W 7822  20.382   1.275  11.933
39605W        W 7823  29.625  31.099   1.879
39606W        W 7824   3.745  41.806  10.541
39607W        W 7825  23.174  39.641   2.627
39608W        W 7826  25.012   6.980   0.578
39609W        W 7827  17.524  24.149  11.159
39610W        W 7828  20.054  10.575   3.775
39611W        W 7829  11.951  41.854   2.659
39612W        W 7830  31.566   9.176  11.533
39613W        W 7831  36.509  42.415  10.371
39614W        W 7832   7.795  21.999  11.684
39615W        W 7833  44.358  12.204   1.397
39616W        W 7834  27.912  16.239  12.853
39617W        W 7835  12.363  44.494  10.619
39618W        W 7836  43.290  30.564   2.410
39619W        W 7837  25.105  38.041  11.644
39620W        W 7838  40.920  12.530   1.971
39621W        W 7839  25.070  24.186  13.260
39622W        W 7840  14.199  14.609   4.529
39623W        W 7841  38.782  42.587  11.996
39624W        W 7842  29.154  40.025  11.240
39625W        W 7843  35.660  19.070   2.345
39626W        W 7844  38.247   2.712  14.802
39627W        W 7845  40.786  24.298   2.753
39628W        W 7846  10.656  15.365   2.560
39629W        W 7847  11.881  27.449   1.007
39630W        W 7848  11.486  13.601  13.321
39631W        W 7849  21.466  41.350  11.213
39632W        W 7850   0.630   7.254  14.265
39633W        W 7851  29.204  13.654   1.722
39634W        W 7852  25.997  36.333  14.371
39635W        W 7853   2.451  33.807   3.689
39636W        W 7854   6.257  12.755  13.387
39637W        W 7855   0.954   5.252   0.926
39638W        W 7856  17.510  15.471  10.820
39639W        W 7857  26.937  44.788  14.532
39640W        W 7858  43.047  14.952   4.301
39641W        W 7859  28.743  21.081   2.722
39642W        W 7860   1.915  29.137   1.059
39643W        W 7861   3.965  31.869   0.269
39644W        W 7862  19.364   4.206   3.631
39645W        W 7863  34.857  11.785  11.098
39646W        W 7864   9.805   3.625   0.421
39647W        W 7865  43.739  18.079   1.403
39648W        W 7866  32.631  28.064  13.815
39649W        W 7867  41.070  37.946   1.796
39650W        W 7868  32.582  23.563  13.364
39651W        W 7869  39.512  21.133   1.516
39652W        W 7870  36.361  26.418   1.411
39653W        W 7871  23.673  16.347   2.206
39654W        W 7872   3.569  10.641  13.417
39655W        W 7873  15.790  15.422  13.435
39656W        W 7874  22.476  34.091  13.338
39657W        W 7875  34.723  23.608  11.635
39658W        W 7876  35.714   1.286   9.971
39659W        W 7877  24.266  26.459   1.757
39660W        W 7878  13.562  18.612  13.917
39661W        W 7879  32.154  12.296  12.203
39662W        W 7880   6.817  36.817   0.879
39663W        W 7881  30.235  41.887  13.342
39664W        W 7882  30.958  42.317  13.260
39665W        W 7883  16.265  37.037  13.884
39666W        W 7884  18.387  12.589   3.713
39667W        W 7885  17.363  33.966  10.347
39668W        W 7886  16.297   0.527   4.804
39669W        W 7887  27.498  40.605  13.448
39670W        W 7888  12.380   4.337  10.437
39671W        W 7889  30.953  12.185  14.793
39672W        W 7890   9.324  31.958   4.652
39673W        W 7891  27.032   4.416   4.433
39674W        W 7892  31.590  43.859  10.834
39675W        W 7893   2.235  31.628   0.806
39676W        W 7894  18.405  10.100   0.690
39677W        W 7895  23.047  16.236  11.282
39678W        W 7896  15.216  13.403   1.273
39679W        W 7897  11.141  39.730   0.999
39680W        W 7898  14.516  10.646   0.179
39681W        W 7899   2.209  28.664  12.394
39682W        W 7900  12.001  33.995   3.905
39683W        W 7901  26.230   8.481  11.113
39684W        W 7902  16.902  19.603   3.874
39685W        W 7903  38.257  11.180   4.661
39686W        W 7904  13.072   1.781   0.273
39687W        W 7905  37.048  42.833   3.264
39688W        W 7906  41.692  33.573   0.524
39689W        W 7907  31.230  35.374   0.987
39690W        W 7908   7.219  25.937  12.950
39691W        W 7909   3.165  10.501   1.865
39692W        W 7910  11.659  22.499   4.641
39693W        W 7911  16.500  43.720   2.030
39694W        W 7912  11.530  41.438   4.971
39695W        W 7913  18.508  13.610   4.104
39696W        W 7914  37.427  18.049  13.532
39697W        W 7915  17.749   4.342  10.687
39698W        W 7916  27.365   3.272  11.131
39699W        W 7917  40.056  25.546   3.976
39700W        W 7918  23.991  30.821   3.173
39701W        W 7919  40.368  13.611   4.673
39702W        W 7920  38.906   5.468   1.743
39703W        W 7921  24.529  28.940   4.790
39704W        W 7922   9.316  27.965   2.502
39705W        W 7923  35.027  26.940   3.755
39706W        W 7924   8.990  34.967  14.819
39707W        W 7925  12.893  32.407   3.323
39708W        W 7926  23.720  39.175  13.602
39709W        W 7927  42.802  19.748  12.054
39710W        W 7928  31.118  16.784  14.016
39711W        W 7929  39.876  24.847  11.173
39712W        W 7930  44.989  24.418   3.199
39713W        W 7931  40.842  24.053  11.476
39714W        W 7932  26.509  22.120   4.488
39715W        W 7933  35.555  37.482  10.597
39716W        W 7934  29.486   6.512  14.990
39717W        W 7935  29.441   1.405   1.359
39718W        W 7936   1.575  36.016   4.007
39719W        W 7937  11.763  28.982  10.222
39720W        W 7938  42.831  20.277  12.074
39721W        W 7939  13.875  28.289   1.582
39722W        W 7940   0.815  10.164   2.348
39723W        W 7941   5.130  33.783   4.848
39724W        W 7942  40.799  44.966   3.286
39725W        W 7943  27.206  30.598   1.370
39726W        W 7944  41.307   6.238  14.013
39727W        W 7945  44.036   9.755  11.174
39728W        W 7946   7.690  17.647   1.390
39729W        W 7947   4.017  14.846   2.305
39730W        W 7948  30.362   1.315   4.211
39731W        W 7949  34.809  18.794   2.879
39732W        W 7950  22.004  40.266   1.183
39733W        W 7951  29.895  10.933   1.853
39734W        W 7952  20.603  37.740   3.687
39735W        W 7953  44.872  15.318  11.608
39736W        W 7954  35.164  16.622   1.190
39737W        W 7955  42.803  30.522  13.446
39738W        W 7956  24.009   2.512   1.815
39739W        W 7957  34.685  12.231   4.150
39740W        W 7958  26.662  38.316  12.510
39741W        W 7959  34.019  33.412   3.319
39742W        W 7960  38.198  33.911  10.480
39743W        W 7961  31.579  30.158   3.990
39744W        W 7962  32.066  44.364  11.395
39745W        W 7963  21.007  30.416  10.099
39746W        W 7964  16.228  44.901  11.315
39747W        W 7965  19.182  29.899   4.181
39748W        W 7966  12.381   2.316  10.687
39749W        W 7967  26.655  21.016   3.124
39750W        W 7968  29.942  24.221   0.936
39751W        W 7969  15.246  10.869   3.577
39752W        W 7970  24.531  16.298   4.152
39753W        W 7971  41.489  39.439   2.618
39754W        W 7972  10.878  30.188   3.305
39755W        W 7973  28.867  38.542   2.307
39756W        W 7974  38.891  40.306  13.425
39757W        W 7975   0.751  22.366   4.259
39758W        W 7976  44.055  31.612  13.063
39759W        W 7977  27.485   0.106   4.459
39760W        W 7978  32.894   5.773  10.402
39761W        W 7979   0.407  28.390   0.672
39762W        W 7980  40.933  19.610  13.001
39763W        W 7981   9.801   3.601   1.757
39764W        W 7982  13.837   4.391  11.931
39765W        W 7983  21.141   1.252  14.275
39766W        W 7984  15.350  19.839  11.040
39767W        W 7985   3.947  33.908  11.020
39768W        W 7986  21.278  33.052   4.180
39769W        W 7987  18.620  26.162  13.342
39770W        W 7988  11.397   0.345   5.461
39771W        W 7989  22.048   1.005   3.263
39772W        W 7990  23.033  29.680   2.843
39773W        W 7991  16.338  31.360   0.745
39774W        W 7992  44.137  39.036  12.080
39775W        W 7993  12.222   7.224  10.704
39776W        W 7994  32.082   9.358  10.668
39777W        W 7995   7.776  39.744  13.862
39778W        W 7996  10.954  33.159   1.340
39779W        W 7997  19.836  38.674   4.130
39780W        W 7998   8.947  37.687  10.733
39781W        W 7999   7.782   5.350  14.019
39782W        W 8000  18.479  15.196  14.499
39783W        W 8001  20.087   4.725   3.089
39784W        W 8002  43.288  20.726  12.592
39785W        W 8003  34.587  32.411   2.779
39786W        W 8004   9.886   6.643   3.591
39787W        W 8005  15.228  37.109   0.786
39788W        W 8006  18.159   4.489  11.586
39789W        W 8007   3.643  42.146  13.639
39790W        W 8008  37.980  22.739  12.929
39791W        W 8009  24.708  13.692   0.384
39792W        W 8010  21.787  31.516   4.667
39793W        W 8011   3.371  40.032  10.169
39794W        W 8012  28.192  44.679  14.521
39795W        W 8013   1.478  40.660  10.878
39796W        W 8014  13.708   5.971   2.727
39797W        W 8015  12.087   3.638   2.229
39798W        W 8016  28.130  31.935   4.524
39799W        W 8017  10.304   0.428   4.761
39800W        W 8018  12.250   0.003  10.576
39801W        W 8019   9.107   6.051   4.849
39802W        W 8020  24.218  40.063   0.768
39803W        W 8021  18.828  36.407   0.353
39804W        W 8022   2.749  15.100   1.393
39805W        W 8023   8.918  34.870  11.132
39806W        W 8024  43.876   7.664   2.974
39807W        W 8025  18.594  43.610  13.242
39808W        W 8026  34.403  29.282  13.050
39809W        W 8027  24.255  41.056   3.942
39810W        W 8028  42.780  12.204  13.423
39811W        W 8029  12.778   1.515  14.865
39812W        W 8030   1.031  13.001   2.816
39813W        W 8031   6.792  39.095  12.490
39814W        W 8032   4.256   0.999  12.405
39815W        W 8033  28.032  35.862   2.054
39816W        W 8034  33.845   5.119   1.967
39817W        W 8035   5.349  29.018   0.956
39818W        W 8036  24.437  22.220   4.055
39819W        W 8037  24.906  17.150   0.096
39820W        W 8038  38.411  10.623  11.660
39821W        W 8039   3.187  17.301  12.340
39822W        W 8040  21.718  17.042  14.339
39823W        W 8041   1.557   4.872   0.939
39824W        W 8042  27.833  21.167  10.487
39825W        W 8043  13.127  33.900  10.650
39826W        W 8044  33.256   4.769   0.709
39827W        W 8045  34.641  12.072   2.179
39828W        W 8046  35.984  29.710   0.415
39829W        W 8047  18.249  16.780   4.193
39830W        W 8048  16.135  33.379   2.172
39831W        W 8049  15.748  16.740   1.398
39832W        W 8050  24.775  38.280   0.670
39833W        W 8051  24.915  42.746  12.031
39834W        W 8052  30.350   8.403  13.410
39835W        W 8053  38.690   2.738   1.873
39836W        W 8054  42.544  41.463   1.233
39837W        W 8055  11.797   6.084   1.319
39838W        W 8056  40.828   0.822  12.365
39839W        W 8057  23.629  38.431   1.816
39840W        W 8058  41.452  32.512   1.117
39841W        W 8059  33.074  15.772   0.699
39842W        W 8060  31.129  33.907  14.539
39843W        W 8061  12.796   3.022  12.556
39844W        W 8062  37.461  31.376   3.873
39845W        W 8063  14.758  30.875  14.929
39846W        W 8064  13.306  42.874   3.711
39847W        W 8065  32.160  14.235   3.618
39848W        W 8066  25.100  40.969   2.322
39849W        W 8067  20.668  42.101  12.199
39850W        W 8068  33.318  41.008   1.366
39851W        W 8069  22.058  21.027   3.600
39852W        W 8070  38.509  21.558  11.909
39853W        W 8071  21.774   6.938   0.224
39854W        W 8072  37.984   9.609  13.290
39855W        W 8073   5.838   1.868   2.777
39856W        W 8074  19.270  21.580   2.317
39857W        W 8075   7.909  22.251   4.191
39858W        W 8076  27.055   8.287  14.435
39859W        W 8077  22.523  12.263  12.939
39860W        W 8078  42.889   3.060  11.675
39861W        W 8079  40.452  31.149   3.574
39862W        W 8080  21.574  39.409  10.821
39863W        W 8081  38.973   3.323  14.269
39864W        W 8082  26.470  33.459   2.266
39865W        W 8083  24.699  29.690  12.905
39866W        W 8084  34.942  16.360  13.494
39867W        W 8085  21.168  14.665   3.292
39868W        W 8086  42.312  25.018  14.759
39869W        W 8087  34.536  39.225   0.117
39870W        W 8088  41.525  31.980  13.731
39871W        W 8089   8.351  23.388  12.599
39872W        W 8090  34.982  20.137   1.780
39873W        W 8091   4.655  42.934   4.240
39874W        W 8092  28.421   1.941   4.709
39875W        W 8093   7.740   7.779   3.657
39876W        W 8094  36.526  36.930   2.607
39877W        W 8095  27.150  18.712   1.764
39878W        W 8096  20.621  30.559   3.272
39879W        W 8097  30.439  23.555  10.769
39880W        W 8098  24.578  33.374  11.064
39881W        W 8099  41.010  28.080   0.793
39882W        W 8100  16.647  27.949  10.870
39883W        W 8101  25.225  10.740  13.031
39884W        W 8102  41.650  41.308   0.234
39885W        W 8103  13.370  33.133   3.212
39886W        W 8104   6.754  22.490   2.292
39887W        W 8105  17.196   6.135   3.595
39888W        W 8106  39.264  43.112   1.804
39889W        W 8107  41.831  10.158   1.275
39890W        W 8108  24.544  22.789   0.360
39891W        W 8109   2.751  44.024  10.911
39892W        W 8110  15.206  26.962   0.506
39893W        W 8111  36.615  36.063   2.361
39894W        W 8112  30.470  40.312   3.602
39895W        W 8113  16.736  11.077   2.854
39896W        W 8114  29.966   1.721   2.495
39897W        W 8115  13.539  37.158  10.650
39898W        W 8116  28.692  17.076  11.534
39899W        W 8117  27.424  41.602  11.561
39900W        W 8118  34.232  15.750  13.928
39901W        W 8119   8.856  24.435  13.321
39902W        W 8120   1.507  11.364  14.129
39903W        W 8121  27.968  27.491  11.573
39904W        W 8122  44.970   8.848   4.200
39905W        W 8123  38.361  10.350   9.943
39906W        W 8124  43.860  11.122   0.833
39907W        W 8125  12.174  41.057   4.565
39908W        W 8126  26.547  16.699   4.561
39909W        W 8127  36.310  40.891  12.635
39910W        W 8128  41.363  15.783   1.891
39911W        W 8129  14.587  20.077   1.829
39912W        W 8130  25.677  14.868   1.241
39913W        W 8131  15.731  11.401  11.010
39914W        W 8132  16.662  25.459   4.329
39915W        W 8133  18.679  22.758  10.317
39916W        W 8134  38.410  35.438  10.734
39917W        W 8135  35.563  18.592  14.045
39918W        W 8136  38.835  17.104   5.090
39919W        W 8137   1.499  41.022   2.152
39920W        W 8138  19.541  34.024   0.315
39921W        W 8139  34.381   8.771  12.120
39922W        W 8140  17.121  29.155  14.390
39923W        W 8141  21.992  26.083  13.831
39924W        W 8142   5.456  11.329   1.229
39925W        W 8143  19.765  10.760  11.892
39926W        W 8144  32.896   9.934  14.776
39927W        W 8145   2.364  36.391  10.507
39928W        W 8146  41.625  31.917  12.104
39929W        W 8147  22.943  28.811   4.381
39930W        W 8148  31.977  32.910  14.364
39931W        W 8149   5.746  34.873   0.017
39932W        W 8150  18.523  40.040  12.990
39933W        W 8151   5.004   2.853   1.924
39934W        W 8152   4.190  20.735   3.998
39935W        W 8153  32.732  10.251  11.023
39936W        W 8154  34.881  21.975  12.442
39937W        W 8155  42.494  42.968   3.508
39938W        W 8156  19.467   5.765   0.701
39939W        W 8157   8.364   4.436  10.797
39940W        W 8158   2.367  13.463  11.126
39941W        W 8159  27.755   9.315   1.764
39942W        W 8160  41.528  16.820  12.450
39943W        W 8161  22.757  36.826   1.768
39944W        W 8162   9.127   8.337   2.672
39945W        W 8163  14.198  33.511   0.518
39946W        W 8164  28.418  42.835  12.020
39947W        W 8165   2.430  29.272  11.070
39948W        W 8166   5.966  44.852   9.821
39949W        W 8167  30.291  14.597  13.445
39950W        W 8168  19.914  19.045   2.730
39951W        W 8169  12.008  27.248  11.281
39952W        W 8170  14.765  13.246  13.586
39953W        W 8171   9.249  13.679   0.325
39954W        W 8172  13.498  13.326   4.589
39955W        W 8173   0.631   3.862  12.029
39956W        W 8174   2.454  14.819   2.047
39957W        W 8175  23.300  19.932   4.885
39958W        W 8176  23.144  43.955  11.485
39959W        W 8177  10.558  12.770   0.080
39960W        W 8178  18.233  43.360   4.245
39961W        W 8179   1.394  17.044   0.902
39962W        W 8180  26.911   0.863  11.184
39963W        W 8181  13.083  10.779  14.632
39964W        W 8182  37.284   1.669   1.729
39965W        W 8183  42.086  20.618   0.432
39966W        W 8184  18.300  14.788  11.981
39967W        W 8185   6.001  38.304   4.183
39968W        W 8186  39.325  27.270   4.702
39969W        W 8187  39.119  13.650  10.722
39970W        W 8188  31.100  19.995  14.826
39971W        W 8189  20.947  18.101  13.991
39972W        W 8190  34.179  33.157  13.203
39973W        W 8191  35.520  13.278  12.000
39974W        W 8192   0.236  27.973   0.933
39975W        W 8193  30.563  32.532   3.199
39976W        W 8194  44.139  21.244   4.894
39977W        W 8195  44.863  24.092   4.237
39978W        W 8196  21.044   1.687  11.091
39979W        W 8197   7.165  22.611   0.755
39980W        W 8198  28.327  39.763   2.759
39981W        W 8199  33.450  11.758   4.097
39982W        W 8200  44.455   4.235  14.054
39983W        W 8201  14.360  19.628   3.099
39984W        W 8202  38.987  41.415   3.917
39985W        W 8203  39.870  25.570   2.961
39986W        W 8204  18.064  37.418  12.490
39987W        W 8205  11.439   3.253   2.320
39988W        W 8206  26.706  23.201  11.936
39989W        W 8207  37.334  18.471  11.185
39990W        W 8208  14.747  44.439  13.991
39991W        W 8209  22.578   8.835   2.717
39992W        W 8210  27.302  40.369   4.715
39993W        W 8211  44.283  24.788   0.319
39994W        W 8212  42.328   3.271  13.518
39995W        W 8213  17.784  43.983  11.120
39996W        W 8214  11.253  17.257   9.855
39997W        W 8215   9.872   4.045  11.361
39998W        W 8216  39.120  10.172  13.833
39999W        W 8217   0.495  33.060   4.114
40000W        W 8218  38.520  34.985   0.614
40001W        W 8219  18.274  11.976   4.479
40002W        W 8220  44.168  20.107   2.911
40003W        W 8221   4.696  38.220   3.487
40004W        W 8222  28.405  21.504  13.457
40005W        W 8223  21.987   5.818  11.633
40006W        W 8224  35.650  21.042   2.909
40007W        W 8225  25.547   7.106   4.598
40008W        W 8226  37.523  26.627  11.103
40009W        W 8227  25.489  13.890  10.743
40010W        W 8228  35.112  33.196   2.810
40011W        W 8229  13.562  38.048   0.055
40012W        W 8230   3.198  22.775  13.545
40013W        W 8231   0.987  26.569  14.071
40014W        W 8232  36.144  35.818   2.325
40015W        W 8233  18.684  38.499  12.361
40016W        W 8234  15.375  27.897  10.050
40017W        W 8235  10.625  38.897  10.659
40018W        W 8236  22.215   5.382   4.538
40019W        W 8237  35.580  38.579  12.442
40020W        W 8238   5.127  27.470  11.445
40021W        W 8239  29.837  24.701  14.483
40022W        W 8240  33.841  33.357   0.278
40023W        W 8241  31.926  27.484  14.263
40024W        W 8242  17.750  31.133  14.096
40025W        W 8243  43.238  40.304   4.154
40026W        W 8244   5.396  10.154  14.864
40027W        W 8245  28.426  30.399   2.771
40028W        W 8246  40.311  15.269   1.939
40029W        W 8247  35.011  30.694  13.631
40030W        W 8248   1.319   1.371  10.907
40031W        W 8249   6.333  13.649   1.861
40032W        W 8250  26.119  19.821   1.888
40033W        W 8251  18.779  18.979  14.075
40034W        W 8252  23.769  10.149   0.003
40035W        W 8253  36.626  17.253  14.325
40036W        W 8254  23.715  26.914  14.571
40037W        W 8255  30.200  19.245   0.620
40038W        W 8256   4.689  28.071  14.259
40039W        W 8257   5.381  39.805  12.884
40040W        W 8258  31.621  37.364   2.751
40041W        W 8259  20.676  43.661  12.903
40042W        W 8260  16.277  17.605   0.867
40043W        W 8261  18.104  24.862  11.699
40044W        W 8262   8.837  16.899  12.955
40045W        W 8263   7.774  30.415  10.105
40046W        W 8264  11.162   7.145  11.515
40047W        W 8265  40.994  20.112   2.811
40048W        W 8266  23.025   8.753   2.429
40049W        W 8267  28.663  40.567  12.987
40050W        W 8268   1.455   9.214  14.795
40051W        W 8269  36.368  21.484   3.243
40052W        W 8270  15.256  24.290   0.821
40053W        W 8271  39.973  28.696  14.776
40054W        W 8272  29.520  15.927  11.027
40055W        W 8273  38.547  27.501  13.787
40056W        W 8274  16.696  17.636   3.353
40057W        W 8275  38.901  33.030   9.884
40058W        W 8276   9.382  28.693  12.570
40059W        W 8277   0.130   7.312  12.443
40060W        W 8278  22.657  40.453  12.391
40061W        W 8279  33.938  23.766   1.701
40062W        W 8280  40.015  33.843  10.516
40063W        W 8281  31.056  15.892  10.676
40064W        W 8282  19.786  37.599  12.399
40065W        W 8283  26.161  18.129  13.093
40066W        W 8284  40.038  16.163   0.386
40067W        W 8285  13.560  22.041   1.947
40068W        W 8286  38.406  16.531  14.328
40069W        W 8287  26.928  34.922   2.152
40070W        W 8288  17.878   6.696   1.907
40071W        W 8289  27.588   1.446   3.569
40072W        W 8290  13.867  16.588   2.220
40073W        W 8291  18.584  27.042  11.682
40074W        W 8292  39.073  43.918   4.552
40075W        W 8293  39.330  44.039   4.117
40076W        W 8294  36.785  40.541  13.931
40077W        W 8295  21.545  19.896  12.113
40078W        W 8296  35.180  18.848  12.304
40079W        W 8297  35.916  39.920  13.549
40080W        W 8298  29.972  40.932   1.128
40081W        W 8299  35.103  40.272   4.129
40082W        W 8300  41.437  29.670  12.021
40083W        W 8301  20.709  31.761  10.797
40084W        W 8302   1.233  30.300  14.383
40085W        W 8303   3.674   7.161  10.762
40086W        W 8304  15.449  29.241   2.258
40087W        W 8305  24.299  36.898  14.148
40088W        W 8306  13.187   4.792   3.241
40089W        W 8307  17.680  21.682  10.896
40090W        W 8308  16.976  22.922   3.326
40091W        W 8309  36.004  36.875   3.847
40092W        W 8310  20.210  38.730  10.740
40093W        W 8311  22.429   9.714  11.654
40094W        W 8312   8.443  28.579   0.719
40095W        W 8313  38.366  28.210  12.483
40096W        W 8314  17.096   2.938   3.610
40097W        W 8315  33.351   7.375  12.639
40098W        W 8316  16.165   3.807   4.050
40099W        W 8317  44.400   9.611  14.393
40100W        W 8318  11.286  44.517   0.957
40101W        W 8319  40.836  11.815  14.273
40102W        W 8320  21.806  13.215   1.353
40103W        W 8321  41.382   3.465  12.941
40104W        W 8322  16.290   0.087  14.941
40105W        W 8323  23.771  18.207   4.173
40106W        W 8324  13.752  19.163   2.328
40107W        W 8325  33.288  32.548   3.727
40108W        W 8326  12.005   2.725   0.709
40109W        W 8327   4.797  13.459  14.895
40110W        W 8328   3.713  44.874   3.722
40111W        W 8329  23.206  15.178  13.759
40112W        W 8330  18.905  44.468   4.462
40113W        W 8331   1.072  10.330   5.089
40114W        W 8332  31.245  41.782  13.315
40115W        W 8333  21.504  35.202   3.218
40116W        W 8334  30.947  21.212  12.097
40117W        W 8335  18.698  43.977  14.262
40118W        W 8336  25.799   0.669   4.858
40119W        W 8337   5.952  13.701   0.692
40120W        W 8338  18.040  30.389   1.454
40121W        W 8339  18.759  40.807  13.254
40122W        W 8340  17.822  28.631  14.902
40123W        W 8341  28.846   4.282  12.523
40124W        W 8342  17.210  19.523  14.839
40125W        W 8343  39.447   0.967  11.807
40126W        W 8344  30.966   7.258  14.451
40127W        W 8345  25.109  13.206   4.566
40128W        W 8346  43.860  21.347  12.880
40129W        W 8347  31.786   6.071  10.183
40130W        W 8348  22.079  29.537  12.987
40131W        W 8349  20.146   3.831   1.955
40132W        W 8350   4.493  43.885   0.384
40133W        W 8351   3.645  18.205  11.179
40134W        W 8352  38.438  39.799  12.989
40135W        W 8353  13.533  29.573   4.253
40136W        W 8354   6.345  12.912  11.484
40137W        W 8355  41.429  41.284   4.680
40138W        W 8356  12.853  24.667  12.417
40139W        W 8357  23.586  26.270   9.971
40140W        W 8358  27.967  33.770   2.453
40141W        W 8359   5.232  34.477  12.280
40142W        W 8360  27.538   4.167  12.519
40143W        W 8361  15.411  36.897  14.792
40144W        W 8362  10.557  35.585   1.279
40145W        W 8363   1.343  23.439  11.969
40146W        W 8364  22.603   5.469   1.936
40147W        W 8365  33.539  13.773  12.950
40148W        W 8366  29.141  11.666  13.550
40149W        W 8367  29.580   6.361  12.906
40150W        W 8368  44.863  29.111   0.620
40151W        W 8369  21.529   1.634  14.476
40152W        W 8370  18.116  18.889   0.299
40153W        W 8371  30.487  13.352  14.054
40154W        W 8372   3.868  28.104   0.706
40155W        W 8373  36.465   1.418   5.238
40156W        W 8374  39.580   1.310  13.931
40157W        W 8375  10.251  31.924  10.292
40158W        W 8376  21.955  25.318   2.192
40159W        W 8377   6.832  19.660  14.228
40160W        W 8378   2.580  16.183   4.232
40161W        W 8379   5.383   2.906  11.381
40162W        W 8380  12.737  29.140   2.169
40163W        W 8381  15.063   7.970   2.631
40164W        W 8382  26.002   4.167   1.808
40165W        W 8383  40.753  21.721   4.126
40166W        W 8384  30.425  12.838  11.659
40167W        W 8385  15.709  11.898  12.034
40168W        W 8386  33.403  35.486  13.894
40169W        W 8387   3.309  34.388  14.013
40170W        W 8388   0.420  43.602   0.864
40171W        W 8389  18.632   1.808   1.835
40172W        W 8390  23.829   5.177  12.188
40173W        W 8391  19.522  44.526   5.148
40174W        W 8392  25.580   6.252  13.573
40175W        W 8393  12.314  31.682   1.243
40176W        W 8394  11.666  34.942   0.830
40177W        W 8395  30.630  40.811   4.844
40178W        W 8396  16.495  37.064   1.826
40179W        W 8397  14.059  14.367  11.700
40180W        W 8398  20.020   8.156   3.702
40181W        W 8399  36.717  42.296  14.319
40182W        W 8400  36.747   4.303  11.172
40183W        W 8401  36.903  25.110  14.344
40184W        W 8402  40.312   1.327  13.426
40185W        W 8403  43.468  15.748  14.463
40186W        W 8404  26.745   7.800   4.604
40187W        W 8405  33.966  24.344  13.979
40188W        W 8406  21.049  22.271   0.243
40189W        W 8407   8.277   5.236   3.560
40190W        W 8408  24.938  20.905   0.216
40191W        W 8409  27.309   1.423  13.094
40192W        W 8410  27.011  43.907   4.634
40193W        W 8411  34.510  15.189   3.360
40194W        W 8412  37.391  28.443  11.502
40195W        W 8413  19.209   5.244  12.163
40196W        W 8414  15.295   9.590   1.244
40197W        W 8415  11.152  19.532  10.739
40198W        W 8416   6.378  33.644   1.994
40199W        W 8417  11.970  32.156   2.163
40200W        W 8418   3.045  13.784  13.062
40201W        W 8419  24.552  29.112  11.286
40202W        W 8420  39.013  37.123  11.912
40203W        W 8421   5.088   4.797   4.037
40204W        W 8422  29.568  15.874   3.077
40205W        W 8423  27.457  21.565  10.446
40206W        W 8424  28.592  29.084  13.265
40207W        W 8425  42.527   5.340   2.453
40208W        W 8426  12.248   9.716  11.869
40209W        W 8427  41.992  26.732   3.270
40210W        W 8428  27.679  34.743   3.277
40211W        W 8429  33.594  26.428   4.457
40212W        W 8430  39.735  15.740   4.423
40213W        W 8431  14.540  41.394  12.096
40214W        W 8432  39.385  43.256   4.672
40215W        W 8433  33.661  36.853  12.577
40216W        W 8434   9.414  42.094   5.170
40217W        W 8435  39.958   2.018   2.902
40218W        W 8436  23.281   8.700   3.849
40219W        W 8437   4.618   1.358  13.481
40220W        W 8438  37.881  18.572   2.354
40221W        W 8439   7.098  21.133   2.110
40222W        W 8440  23.167  34.902  12.665
40223W        W 8441  37.611  42.430   2.733
40224W        W 8442  31.117  14.886   3.760
40225W        W 8443   8.335   1.477   3.546
40226W        W 8444   1.741  14.698  10.911
40227W        W 8445  13.701  33.941   3.234
40228W        W 8446   2.923   9.709  12.434
40229W        W 8447  26.677  41.338   2.181
40230W        W 8448  42.025  31.383   4.092
40231W        W 8449  30.133  21.602   4.831
40232W        W 8450  44.879  23.105  13.356
40233W        W 8451  15.186  42.486  10.332
40234W        W 8452  17.823  40.442  14.815
40235W        W 8453   6.367  12.137   4.439
40236W        W 8454  31.031  17.016   1.201
40237W        W 8455  19.068  35.058   2.642
40238W        W 8456  19.436  43.286   4.524
40239W        W 8457  38.517   8.114  14.720
40240W        W 8458  11.810  33.529   3.804
40241W        W 8459  27.383  25.585   2.810
40242W        W 8460  43.865   9.329   3.768
40243W        W 8461  36.843  11.784   2.809
40244W        W 8462  37.624  41.232  11.649
40245W        W 8463  16.333  36.549   2.594
40246W        W 8464  17.634  35.924   3.295
40247W        W 8465   0.451   9.738  10.667
40248W        W 8466  33.928   8.873   3.231
40249W        W 8467  11.801   2.973  12.908
40250W        W 8468  27.416  27.903  13.794
40251W        W 8469  13.915  25.771   0.693
40252W        W 8470   5.375  16.765  11.122
40253W        W 8471   6.356  20.473   2.812
40254W        W 8472  11.635  26.995   3.806
40255W        W 8473  23.644  15.317   1.904
40256W        W 8474   9.678  12.350   0.843
40257W        W 8475  24.141  43.879  13.937
40258W        W 8476  15.713   0.999   0.935
40259W        W 8477  17.086  12.239   2.750
40260W        W 8478  40.448  12.345   2.179
40261W        W 8479   8.800   1.080  11.848
40262W        W 8480   4.901  15.878  11.731
40263W        W 8481  13.622  29.112   4.081
40264W        W 8482  19.263  22.290   2.870
40265W        W 8483  33.501  14.649   4.755
40266W        W 8484  35.332  21.607   4.181
40267W        W 8485  14.238   3.994   4.632
40268W        W 8486   9.658  30.892   2.156
40269W        W 8487  24.163   0.879  10.580
40270W        W 8488  31.830  16.453  10.339
40271W        W 8489  23.444  31.151   0.542
40272W        W 8490  16.566  40.249   0.421
40273W        W 8491   7.197   0.393   1.424
40274W        W 8492  43.579  13.873  14.024
40275W        W 8493  21.003   4.653   4.002
40276W        W 8494  38.376  43.496   1.728
40277W        W 8495  35.666  28.516   4.665
40278W        W 8496  44.422  11.655   1.265
40279W        W 8497  28.169  40.355   0.976
40280W        W 8498  42.233  23.979   4.183
40281W        W 8499  41.967  38.575   3.330
40282W        W 8500  12.893   1.348  11.068
40283W        W 8501  22.284  18.566   0.870
40284W        W 8502  40.600  31.529  13.036
40285W        W 8503   0.523   2.705  11.667
40286W        W 8504  28.627  21.498  12.989
40287W        W 8505  11.228  23.690  12.961
40288W        W 8506   8.182  37.272  11.062
40289W        W 8507  21.209  33.587   1.767
40290W        W 8508  20.006  11.349  14.078
40291W        W 8509  41.475  43.026  13.442
40292W        W 8510   3.035  10.371  10.879
40293W        W 8511  29.604   6.296   1.024
40294W        W 8512   7.808  19.820  12.365
40295W        W 8513  43.478  40.445  12.322
40296W        W 8514  38.221  14.001   1.259
40297W        W 8515   2.249   8.858   0.593
40298W        W 8516  29.236  18.997  12.441
40299W        W 8517  30.879  35.161   4.606
40300W        W 8518  31.541  31.919  10.721
40301W        W 8519  32.992  20.939  14.846
40302W        W 8520  41.752   0.457  13.315
40303W        W 8521  12.336  44.071  10.905
40304W        W 8522  44.032  21.427  14.043
40305W        W 8523  30.834   3.309   4.032
40306W        W 8524  27.413  21.011   2.632
40307W        W 8525  14.163   5.022   4.745
40308W        W 8526   2.093  42.889  12.497
40309W        W 8527  29.240   0.865   3.328
40310W        W 8528  11.768   0.324   5.093
40311W        W 8529  20.921   1.025   1.359
40312W        W 8530  43.847  32.526   2.490
40313W        W 8531   1.201  14.599  12.062
40314W        W 8532  33.721   0.664   0.788
40315W        W 8533  12.784   5.799   2.633
40316W        W 8534   3.031  34.575  13.011
40317W        W 8535  12.281  29.436  12.970
40318W        W 8536  39.808  10.204   4.504
40319W        W 8537   0.501  22.235  11.277
40320W        W 8538  14.116   3.926   2.406
40321W        W 8539   4.222  21.550   3.157
40322W        W 8540  17.031  31.468  12.605
40323W        W 8541  11.397  10.608   3.261
40324W        W 8542  19.994  28.822  10.670
40325W        W 8543  32.621  23.136   2.468
40326W        W 8544   3.285  32.116  13.569
40327W        W 8545  40.236  21.199  12.963
40328W        W 8546  16.790   8.496   4.121
40329W        W 8547  15.663  31.555  12.865
40330W        W 8548   3.632  31.779  11.569
40331W        W 8549  11.564  13.683   5.002
40332W        W 8550  37.084  22.697   0.289
40333W        W 8551  38.121  36.209  14.871
40334W        W 8552  41.515  22.167  11.576
40335W        W 8553  18.525  40.333   1.401
40336W        W 8554  20.811  34.675   4.444
40337W        W 8555   8.379  34.400   2.241
40338W        W 8556  38.760   7.630  14.845
40339W        W 8557   1.221  31.353   0.350
40340W        W 8558  44.678  15.119  12.969
40341W        W 8559  40.083  27.570  10.733
40342W        W 8560  17.110  13.625   3.216
40343W        W 8561  13.093   0.833   1.762
40344W        W 8562  15.774  11.838   4.121
40345W        W 8563  30.486  31.397  10.578
40346W        W 8564  37.529  13.421  11.558
40347W        W 8565  10.097  38.686  13.766
40348W        W 8566  39.519   6.128   5.099
40349W        W 8567  41.080  11.842  12.937
40350W        W 8568   4.353   6.255   3.775
40351W        W 8569   5.093   3.961   2.729
40352W        W 8570  22.065  14.028   3.458
40353W        W 8571  30.486  14.601   0.256
40354W        W 8572  18.967  10.997  10.689
40355W        W 8573  30.436  11.371  11.626
40356W        W 8574  30.581   0.671  11.242
40357W        W 8575   8.289  29.899   2.871
40358W        W 8576  30.864  17.802  13.577
40359W        W 8577  20.716   9.809   3.849
40360W        W 8578  11.761  19.888  12.525
40361W        W 8579  10.399  43.779   4.246
40362W        W 8580  21.348  14.725  10.673
40363W        W 8581   5.662  14.154  10.722
40364W        W 8582  37.194  28.112   4.926
40365W        W 8583   5.457  30.934   4.090
40366W        W 8584  38.026  32.002   0.240
40367W        W 8585  39.605  13.204   3.704
40368W        W 8586  21.448  17.815   1.956
40369W        W 8587  37.196  34.442  14.002
40370W        W 8588  35.641   1.698  14.712
40371W        W 8589   2.669  35.446  13.438
40372W        W 8590  31.127  17.205  11.671
40373W        W 8591  42.829  21.942   2.783
40374W        W 8592   1.810  43.834  12.033
40375W        W 8593   8.854  18.813   1.971
40376W        W 8594  44.434  17.590   0.423
40377W        W 8595   4.565  34.200  10.119
40378W        W 8596  24.095  34.047   5.108
40379W        W 8597  16.866  32.678   1.344
40380W        W 8598  26.141  19.726  14.381
40381W        W 8599  18.209  39.453   1.349
40382W        W 8600  39.398   0.287  10.601
40383W        W 8601  22.571  42.430  14.988
40384W        W 8602  15.715  34.873   2.902
40385W        W 8603  15.950  19.688  12.420
40386W        W 8604   0.342  35.383   4.379
40387W        W 8605  17.110  37.065   0.864
40388W        W 8606  27.484  10.760  13.518
40389W        W 8607  13.272  22.047  12.058
40390W        W 8608  38.513   9.297   1.219
40391W        W 8609  37.749  15.315   0.230
40392W        W 8610   1.917  15.192   4.551
40393W        W 8611  10.116  42.402  13.853
40394W        W 8612  14.201  10.466   2.744
40395W        W 8613  23.575  28.329  10.522
40396W        W 8614  32.557  39.919   1.014
40397W        W 8615  29.501  36.180   2.284
40398W        W 8616   5.726  19.111  12.428
40399W        W 8617   2.697  34.388   3.333
40400W        W 8618  18.642  16.317  14.959
40401W        W 8619   6.704  40.915  11.357
40402W        W 8620  34.917  15.727   2.819
40403W        W 8621   7.961  15.688  10.874
40404W        W 8622  16.209  12.182   2.475
40405W        W 8623  11.318  28.156  10.717
40406W        W 8624  18.218  29.219   1.845
40407W        W 8625   3.775  25.630  14.015
40408W        W 8626   7.358  26.253   0.005
40409W        W 8627  16.431  14.747   0.567
40410W        W 8628   8.588   6.923   0.258
40411W        W 8629  36.201  38.505   0.467
40412W        W 8630   0.834  40.970   4.481
40413W        W 8631  24.020  23.006   3.680
40414W        W 8632  41.152  33.694  11.025
40415W        W 8633   2.731   6.776  13.631
40416W        W 8634   2.193  26.883  11.138
40417W        W 8635  44.830  36.060  14.085
40418W        W 8636  30.591   3.181   0.323
40419W        W 8637  40.371   8.612  13.566
40420W        W 8638  24.480  31.540  11.386
40421W        W 8639   2.575   4.873  14.482
40422W        W 8640   0.730  37.073  12.968
40423W        W 8641   3.412  32.598  14.504
40424W        W 8642  14.264  19.493  14.675
40425W        W 8643  19.919   1.740   1.457
40426W        W 8644  13.759  11.085  14.892
40427W        W 8645   5.323   0.545  14.751
40428W        W 8646  23.044  34.669  14.953
40429W        W 8647  16.786  41.414  12.157
40430W        W 8648  28.568   2.430   4.832
40431W        W 8649  26.359  11.372  12.157
40432W        W 8650  44.268   7.283   3.191
40433W        W 8651   4.810  39.938   4.276
40434W        W 8652  22.733   4.932   1.805
40435W        W 8653   2.726  27.534  14.495
40436W        W 8654  30.074   7.182  10.686
40437W        W 8655  21.672   4.928   1.697
40438W        W 8656  23.546  44.842  13.459
40439W        W 8657  16.197  11.075  14.513
40440W        W 8658  15.675  25.587   3.569
40441W        W 8659  36.635  34.755  13.163
40442W        W 8660  39.635  18.314   3.574
40443W        W 8661  21.028  44.987  14.176
40444W        W 8662   0.734  17.002   1.656
40445W        W 8663  15.533  16.633   3.570
40446W        W 8664  32.966  21.311   0.527
40447W        W 8665  26.328   4.853   0.385
40448W        W 8666   3.336   3.378   2.407
40449W        W 8667  27.590  11.734  13.595
40450W        W 8668  23.654  18.813  14.999
40451W        W 8669  28.406  38.885  12.421
40452W        W 8670  25.408  27.909  13.884
40453W        W 8671  14.360  34.963   4.139
40454W        W 8672  23.159  32.637  11.958
40455W        W 8673  33.122   4.069   3.653
40456W        W 8674  33.464  37.788   0.940
40457W        W 8675  25.392  39.602  14.923
40458W        W 8676   1.357  32.871  14.380
40459W        W 8677  31.567   6.706   0.949
40460W        W 8678  21.355  35.388  12.561
40461W        W 8679  42.515   4.445  12.517
40462W        W 8680  27.729   2.179   4.232
40463W        W 8681  38.969  19.223  10.952
40464W        W 8682  36.677  32.421   0.837
40465W        W 8683  31.116  32.901  12.573
40466W        W 8684  26.096  26.997  14.794
40467W        W 8685  15.543  37.929  12.088
40468W        W 8686  32.516  18.143   0.668
40469W        W 8687  16.090  20.207  13.655
40470W        W 8688  37.437  38.367  12.433
40471W        W 8689  27.692  29.138  12.617
40472W        W 8690  17.204  19.982  13.930
40473W        W 8691  15.992  30.461   4.082
40474W        W 8692  42.084  15.844   2.948
40475W        W 8693  21.232   8.609   2.241
40476W        W 8694  42.644  34.271   4.965
40477W        W 8695  10.409   4.971  10.600
40478W        W 8696  20.737  41.459   1.744
40479W        W 8697  10.789   6.180   1.044
40480W        W 8698  21.737  33.857  14.872
40481W        W 8699  13.413   2.480   1.271
40482W        W 8700   6.923  13.147  10.652
40483W        W 8701   0.953  22.095   2.117
40484W        W 8702   5.229  42.023   2.695
40485W        W 8703   1.191  40.980   1.736
40486W        W 8704  17.611  40.697   0.239
40487W        W 8705  16.772  11.916   0.470
40488W        W 8706  30.898  18.859  11.057
40489W        W 8707  21.570  35.493   1.434
40490W        W 8708  29.839   4.572  11.744
40491W        W 8709   8.745  35.565   0.747
40492W        W 8710  35.911  15.111  13.513
40493W        W 8711  43.710  16.228  14.518
40494W        W 8712  21.905  43.414   0.355
40495W        W 8713  17.331  43.713   4.171
40496W        W 8714  34.934  11.438  13.603
40497W        W 8715  23.689  19.512   2.850
40498W        W 8716  22.766  14.275   4.683
40499W        W 8717   6.622  17.495  10.700
40500W        W 8718  13.608  29.109   1.940
40501W        W 8719  38.415  35.405   0.887
40502W        W 8720  42.896  38.055  10.523
40503W        W 8721  16.019  20.060   1.972
40504W        W 8722  18.198  21.678   1.234
40505W        W 8723  14.741  13.869   4.596
40506W        W 8724  38.619   3.334  14.878
40507W        W 8725   3.325  21.202  13.487
40508W        W 8726   8.701  30.514   3.807
40509W        W 8727  15.060  11.536  12.491
40510W        W 8728  44.921  16.493   3.847
40511W        W 8729  11.331   8.074   2.899
40512W        W 8730  18.976   4.023  13.842
40513W        W 8731   4.861  27.174   0.811
40514W        W 8732   5.103  20.269   3.147
40515W        W 8733  25.418  34.821  14.770
40516W        W 8734  38.516  16.228  11.613
40517W        W 8735  32.566  12.801  12.581
40518W        W 8736  16.012  23.620   2.238
40519W        W 8737  26.200  25.752   4.485
40520W        W 8738  23.078  30.841   1.300
40521W        W 8739  36.514  16.383   0.574
40522W        W 8740   2.216  20.292   3.652
40523W        W 8741  20.255  41.169  10.690
40524W        W 8742   7.055  12.180   0.914
40525W        W 8743  29.505  41.117  14.262
40526W        W 8744  24.258  35.216   4.614
40527W        W 8745  19.445   1.665   1.243
40528W        W 8746  30.971  40.169   3.530
40529W        W 8747  16.597  34.625   2.586
40530W        W 8748  38.513  39.105  14.208
40531W        W 8749  13.281  28.176  12.612
40532W        W 8750  35.273  18.509  11.911
40533W        W 8751  22.530  44.296   4.163
40534W        W 8752  10.417  24.236  11.020
40535W        W 8753  25.238  11.210  13.870
40536W        W 8754   9.066  21.911   3.181
40537W        W 8755  21.163   8.450  12.568
40538W        W 8756   0.951   7.225  11.135
40539W        W 8757  43.246  22.615   2.886
40540W        W 8758   3.923  36.122   0.171
40541W        W 8759  15.197   2.510   3.053
40542W        W 8760   1.484  43.222  10.510
40543W        W 8761  26.201  30.664  11.062
40544W        W 8762  17.588  23.111   2.760
40545W        W 8763  10.165  23.773   0.534
40546W        W 8764  33.918  19.642  12.622
40547W        W 8765  38.537  32.376   4.514
40548W        W 8766  38.677  32.330  13.322
40549W        W 8767  17.667   7.615   2.860
40550W        W 8768   6.765  44.752   4.273
40551W        W 8769  36.460  25.808  12.944
40552W        W 8770  22.281  27.017  11.603
40553W        W 8771  41.516  32.994  14.310
40554W        W 8772  20.549  13.353  12.964
40555W        W 8773  35.290  34.897   2.162
40556W        W 8774  41.775  40.102  13.575
40557W        W 8775  32.482  44.614  12.154
40558W        W 8776  12.328   1.766  13.902
40559W        W 8777  40.042  13.603   1.400
40560W        W 8778   6.905   4.580  11.535
40561W        W 8779  33.396  16.231  14.933
40562W        W 8780  45.000  17.794   1.817
40563W        W 8781  25.669  10.196   2.787
40564W        W 8782  38.267  13.904  11.426
40565W        W 8783  21.024   8.100   0.386
40566W        W 8784  26.641  12.541  11.182
40567W        W 8785  10.178   2.422  14.987
40568W        W 8786  20.609  18.616  10.731
40569W        W 8787  12.947  41.999   2.613
40570W        W 8788   7.695  43.733   4.200
40571W        W 8789   6.251  22.609   2.187
40572W        W 8790  43.980  26.673   5.033
40573W        W 8791   1.515  34.696   4.868
40574W        W 8792  31.713  33.294   4.268
40575W        W 8793  25.391  28.690   2.181
40576W        W 8794  12.112  30.666   3.767
40577W        W 8795   1.210  23.777  10.802
40578W        W 8796  34.586  12.808   1.746
40579W        W 8797  25.686  43.367   1.964
40580W        W 8798  13.508  18.110   0.946
40581W        W 8799  31.735  29.755   3.190
40582W        W 8800  12.748   3.163  13.357
40583W        W 8801  22.599  15.790   4.141
40584W        W 8802  42.096  36.886   3.822
40585W        W 8803  18.107   6.377   0.908
40586W        W 8804  20.726  23.088   0.692
40587W        W 8805  26.456  36.151   3.262
40588W        W 8806  32.915  31.148  10.729
40589W        W 8807  14.057   9.597  13.511
40590W        W 8808  13.934  29.193  13.895
40591W        W 8809  32.510  13.360   3.236
40592W        W 8810  44.078  39.890  12.071
40593W        W 8811  23.804   4.688  13.090
40594W        W 8812  40.655  24.941   4.248
40595W        W 8813  43.781  17.165  11.966
40596W        W 8814   4.967  28.664   1.746
40597W        W 8815   3.158   6.004   0.749
40598W        W 8816  35.329  24.976   0.755
40599W        W 8817  15.747  23.764  13.125
40600W        W 8818   4.421   5.833   2.895
40601W        W 8819  14.078  10.178   3.139
40602W        W 8820  37.834  27.146  10.516
40603W        W 8821  32.639  33.024   3.857
40604W        W 8822  25.353  12.654   4.012
40605W        W 8823  14.791  19.140   3.706
40606W        W 8824  40.898  23.899  13.344
40607W        W 8825  13.536  12.157  12.034
40608W        W 8826   0.351  27.057   1.193
40609W        W 8827  30.689  27.927  12.393
40610W        W 8828  20.222  27.240  11.978
40611W        W 8829  39.824   2.967   3.878
40612W        W 8830  19.163   6.568   0.156
40613W        W 8831  15.547  26.510  12.491
40614W        W 8832   4.222  38.257   0.173
40615W        W 8833  13.763  10.708   4.616
40616W        W 8834  22.659  22.736  12.405
40617W        W 8835  44.731  10.105   2.781
40618W        W 8836  18.672  42.932  12.408
40619W        W 8837  14.755  15.341   9.950
40620W        W 8838   8.196  36.912  11.885
40621W        W 8839  26.739  12.361   4.175
40622W        W 8840  34.973  26.847   1.501
40623W        W 8841   0.904  18.287   1.455
40624W        W 8842  22.830  17.509  11.988
40625W        W 8843  15.362  26.247  13.971
40626W        W 8844   0.442  31.337  12.575
40627W        W 8845  41.476  21.981   2.693
40628W        W 8846   1.937   7.663   0.025
40629W        W 8847   1.003   8.911   3.260
40630W        W 8848   8.827   0.544  14.926
40631W        W 8849   6.950  15.700   2.675
40632W        W 8850  11.349  18.624  11.139
40633W        W 8851  41.718  27.664   3.311
40634W        W 8852   9.050   6.738  11.540
40635W        W 8853  11.619  18.280   0.378
40636W        W 8854  25.525  16.899   0.896
40637W        W 8855  24.741  38.370   4.106
40638W        W 8856  14.251  23.997  12.108
40639W        W 8857  28.622  35.394   3.265
40640W        W 8858  24.122  28.433  10.669
40641W        W 8859  42.805   3.694  12.991
40642W        W 8860  43.395  27.568   1.687
40643W        W 8861  20.881  14.321   2.375
40644W        W 8862  36.054   7.299   0.965
40645W        W 8863   6.301   3.067   1.481
40646W        W 8864  32.299  14.866  13.098
40647W        W 8865  36.115  16.675   0.419
40648W        W 8866  34.387  42.307  14.780
40649W        W 8867  38.341  27.154  11.584
40650W        W 8868  35.522  16.330  13.706
40651W        W 8869  43.302  18.462   4.129
40652W        W 8870  40.421  25.743   3.614
40653W        W 8871   7.141  17.086   1.885
40654W        W 8872  29.507   9.419  12.964
40655W        W 8873  16.299  44.938   2.595
40656W        W 8874  11.619  44.385   3.263
40657W        W 8875   2.678  41.993  13.823
40658W        W 8876  14.151  12.328   0.706
40659W        W 8877  24.558  20.273   3.093
40660W        W 8878  10.879  44.042   1.814
40661W        W 8879   1.041  40.802   2.214
40662W        W 8880   2.343  11.893   2.777
40663W        W 8881  12.578  36.423  13.361
40664W        W 8882  24.460  12.111   2.027
40665W        W 8883  27.697  13.716   2.586
40666W        W 8884  12.162  11.844  14.909
40667W        W 8885  36.921  38.842   3.054
40668W        W 8886  44.227   5.860  10.415
40669W        W 8887   7.441  36.534   0.926
40670W        W 8888   6.845  39.400  10.661
40671W        W 8889  25.603  39.840   1.194
40672W        W 8890  36.879  41.470   2.110
40673W        W 8891   6.559   6.183  12.634
40674W        W 8892  29.159  24.626  10.896
40675W        W 8893  35.561   6.861  11.661
40676W        W 8894   7.803  39.035   3.774
40677W        W 8895  32.778  42.883  12.464
40678W        W 8896  29.016  26.482   1.513
40679W        W 8897   6.343  11.119  11.037
40680W        W 8898  21.920  20.628   1.426
40681W        W 8899  18.005  32.793   4.601
40682W        W 8900   6.699  28.558   3.344
40683W        W 8901   5.094  33.745   3.293
40684W        W 8902  11.309  40.669   0.444
40685W        W 8903  17.090  13.409   1.736
40686W        W 8904  41.982  28.543  14.863
40687W        W 8905  22.306  13.922  11.347
40688W        W 8906   8.762  11.404  14.266
40689W        W 8907  37.842  30.070  10.855
40690W        W 8908   3.998  11.158   0.850
40691W        W 8909  16.728  11.606   2.886
40692W        W 8910  30.928  17.321   0.781
40693W        W 8911  30.686  42.398  14.382
40694W        W 8912  20.785  30.536   1.949
40695W        W 8913   2.884  39.446   0.649
40696W        W 8914  26.950   9.606  10.320
40697W        W 8915  34.190   9.240   1.823
40698W        W 8916  36.405  39.919   0.007
40699W        W 8917  28.160   2.878  10.152
40700W        W 8918  10.676  34.968  10.735
40701W        W 8919  10.935  39.866  12.636
40702W        W 8920   0.306  42.429   0.334
40703W        W 8921  15.414  23.726   3.388
40704W        W 8922  42.042  13.930  14.307
40705W        W 8923  13.113  42.010   0.426
40706W        W 8924  28.222  18.864  11.165
40707W        W 8925   1.938  22.323  14.462
40708W        W 8926  12.725  29.190  11.980
40709W        W 8927   3.459  44.568   3.364
40710W        W 8928  42.518   1.468  14.522
40711W        W 8929  33.447   3.886   1.223
40712W        W 8930  26.044  35.605   2.999
40713W        W 8931  14.876   4.668   0.907
40714W        W 8932  31.145   4.835  14.260
40715W        W 8933  13.862   7.377  14.907
40716W        W 8934  37.704   0.479  10.354
40717W        W 8935  22.267   8.441   2.645
40718W        W 8936  44.842   3.229   3.291
40719W        W 8937  27.472  19.009   1.392
40720W        W 8938  13.128  19.537  14.844
40721W        W 8939  32.086  34.482   1.176
40722W        W 8940  39.212   1.728  13.928
40723W        W 8941  41.963  23.065  11.507
40724W        W 8942  17.828  21.769  12.405
40725W        W 8943  35.909  12.297  10.560
40726W        W 8944  26.330   4.752   4.743
40727W        W 8945   8.456  14.043   2.899
40728W        W 8946  19.152  33.696   0.954
40729W        W 8947  37.836  30.605   0.245
40730W        W 8948   9.720  24.151  13.320
40731W        W 8949  28.158   1.977   2.602
40732W        W 8950  13.582  12.189   4.076
40733W        W 8951  15.416  12.764   0.267
40734W        W 8952   9.563  18.707  10.731
40735W        W 8953   0.532   6.127   3.266
40736W        W 8954   2.710  43.477  12.333
40737W        W 8955  33.565  20.988  13.020
40738W        W 8956  20.774   4.266   4.703
40739W        W 8957  16.204  39.298   1.495
40740W        W 8958  25.274  13.129  10.457
40741W        W 8959  23.271  16.652   1.126
40742W        W 8960  16.958  17.673  14.818
40743W        W 8961   9.921  37.579   4.009
40744W        W 8962  29.230  44.401   9.947
40745W        W 8963  40.218  26.486   3.172
40746W        W 8964  21.441   0.082   4.226
40747W        W 8965  29.014   1.165  11.819
40748W        W 8966  22.131  26.696   0.195
40749W        W 8967  23.420  22.101  12.821
40750W        W 8968   8.757   6.448  10.965
40751W        W 8969  19.845  20.093  13.991
40752W        W 8970  40.955  15.289  14.830
40753W        W 8971  27.330  13.743   5.098
40754W        W 8972  15.841   6.765   1.152
40755W        W 8973  11.453  35.465   2.196
40756W        W 8974   6.905  42.404  14.188
40757W        W 8975  40.813   0.793   1.281
40758W        W 8976   5.188  24.676   1.819
40759W        W 8977  31.955  25.120   1.007
40760W        W 8978   9.622  21.041   1.755
40761W        W 8979   0.844   8.109  13.922
40762W        W 8980  16.682  31.825   4.661
40763W        W 8981  22.400  24.495  14.508
40764W        W 8982   4.655  28.272  11.270
40765W        W 8983  29.102  12.252   1.283
40766W        W 8984  12.576  16.473  10.644
40767W        W 8985  28.404   1.897  14.445
40768W        W 8986  39.349  10.271  10.197
40769W        W 8987   6.263  43.082  14.518
40770W        W 8988  29.050  34.755  12.593
40771W        W 8989  29.129  42.697  13.874
40772W        W 8990  41.299  28.556  12.944
40773W        W 8991   3.350  11.670  11.610
40774W        W 8992  31.386  35.509  11.929
40775W        W 8993  29.288  28.108   0.173
40776W        W 8994  13.436   5.780  13.084
40777W        W 8995   4.171  19.841   2.937
40778W        W 8996  16.857  41.791   3.045
40779W        W 8997  12.371  25.600   3.233
40780W        W 8998  10.389  24.578   0.761
40781W        W 8999  13.053  37.357  13.882
40782W        W 9000  35.927  27.889   3.662
40783W        W 9001  32.584  19.035   3.232
40784W        W 9002  33.831   3.665   3.212
40785W        W 9003  28.839   6.455  13.356
40786W        W 9004  21.455  19.214  11.615
40787W        W 9005  16.521  43.815  13.029
40788W        W 9006  24.483  18.201  14.364
40789W        W 9007  40.518   1.235   4.075
40790W        W 9008  15.204  42.363   0.140
40791W        W 9009  41.992   9.670   1.159
40792W        W 9010  11.423  15.312  10.610
40793W        W 9011   6.775   5.998  10.870
40794W        W 9012  26.279  32.475  12.136
40795W        W 9013  25.833  29.614  12.085
40796W        W 9014  21.572  42.038   2.897
40797W        W 9015  23.902  17.244   2.903
40798W        W 9016  28.525  22.797  13.011
40799W        W 9017   0.314  37.846   3.116
40800W        W 9018  22.072   8.865   2.948
40801W        W 9019  37.957   8.600  11.430
40802W        W 9020   4.338  29.941   0.404
40803W        W 9021  36.619   3.521   1.965
40804W        W 9022  42.554   2.256   2.871
40805W        W 9023   5.601  26.913   4.077
40806W        W 9024   1.516  22.109  14.264
40807W        W 9025  33.533  10.110  14.060
40808W        W 9026  19.714  32.561  11.580
40809W        W 9027   6.299  37.677   9.971
40810W        W 9028  23.688  34.539   0.440
40811W        W 9029  29.173   6.935   2.665
40812W        W 9030  18.971  17.858   3.095
40813W        W 9031  36.028  24.281  11.688
40814W        W 9032  33.600  43.034   3.575
40815W        W 9033  15.076  13.170   0.282
40816W        W 9034   8.765  42.410  10.653
40817W        W 9035  40.191  36.824  11.735
40818W        W 9036  19.186   1.925  13.881
40819W        W 9037  18.855  31.572   3.971
40820W        W 9038  25.547  44.652   3.268
40821W        W 9039  26.008   5.242   1.606
40822W        W 9040  14.208  34.651  14.607
40823W        W 9041  34.924  23.729   3.413
40824W        W 9042  15.163   5.120   0.879
40825W        W 9043  10.940  26.818   1.178
40826W        W 9044  16.632  35.618  12.517
40827W        W 9045   9.880   9.296  11.576
40828W        W 9046  30.140  11.381   4.147
40829W        W 9047   9.726  12.178  13.879
40830W        W 9048  31.612  28.421  12.289
40831W        W 9049  27.132   7.301  11.239
40832W        W 9050  14.368  42.933   3.586
40833W        W 9051  38.839  36.210  10.333
40834W        W 9052   1.789   3.017  14.927
40835W        W 9053  22.439  29.326   0.815
40836W        W 9054  21.216  20.967  12.059
40837W        W 9055  17.616   7.864  11.473
40838W        W 9056  28.010   3.904  12.484
40839W        W 9057  39.996   0.201   1.959
40840W        W 9058  39.921  29.878   2.979
40841W        W 9059  18.564  38.984  11.053
40842W        W 9060  21.848  36.561   2.467
40843W        W 9061  12.316  14.589   2.606
40844W        W 9062  20.248   9.687  14.300
40845W        W 9063  26.759   9.453  11.999
40846W        W 9064  31.957  39.367  12.551
40847W        W 9065  14.501   7.575   1.927
40848W        W 9066  18.682  26.158  11.457
40849W        W 9067  43.783  14.328  14.553
40850W        W 9068  13.599  30.917  14.404
40851W        W 9069  19.556  18.339  13.161
40852W        W 9070  23.176  43.526  13.530
40853W        W 9071  11.979  25.977  12.963
40854W        W 9072   2.671  43.638   1.366
40855W        W 9073  11.705  12.007   1.456
40856W        W 9074   1.966  37.399  13.608
40857W        W 9075  28.438  17.228  10.052
40858W        W 9076  24.287  10.078   0.015
40859W        W 9077  21.799  21.622  14.928
40860W        W 9078  39.817  19.614   4.541
40861W        W 9079  34.384   6.983  11.151
40862W        W 9080  15.735  43.080   2.342
40863W        W 9081  28.822  28.472  14.389
40864W        W 9082  30.935   4.950   2.740
40865W        W 9083  28.495   1.026   0.292
40866W        W 9084  40.058   8.815  14.302
40867W        W 9085  25.224  34.653   0.283
40868W        W 9086  44.718  43.228   1.310
40869W        W 9087  40.932  27.728  14.475
40870W        W 9088  15.804  13.077  10.263
40871W        W 9089   9.110  43.954  13.228
40872W        W 9090  28.989  16.665  13.940
40873W        W 9091   1.193   5.464   3.640
40874W        W 9092  41.396  31.433   1.895
40875W        W 9093   1.415   7.642  11.591
40876W        W 9094  13.870  35.921  12.462
40877W        W 9095  40.848  25.255  12.358
40878W        W 9096  44.481  27.437   0.949
40879W        W 9097  32.858  38.937  10.364
40880W        W 9098   0.974  14.982  13.987
40881W        W 9099  13.649   2.384  10.360
40882W        W 9100  34.802  20.947  10.708
40883W        W 9101  29.364  42.421   0.515
40884W        W 9102   4.639  12.813  14.094
40885W        W 9103   4.190   9.355   3.307
40886W        W 9104  32.234  42.926   3.632
40887W        W 9105  28.553  34.480   4.266
40888W        W 9106  18.013  27.977   1.296
40889W        W 9107  15.375  18.552   2.734
40890W        W 9108  24.480   5.577  10.709
40891W        W 9109  19.642  24.454  10.917
40892W        W 9110  40.384  32.164   2.573
40893W        W 9111  42.872  22.689  11.724
40894W        W 9112   3.594  39.078  13.033
40895W        W 9113  35.792  29.152  14.756
40896W        W 9114   2.075   8.870  11.100
40897W        W 9115  12.269  44.090   1.662
40898W        W 9116  27.956  44.742   4.138
40899W        W 9117   2.294  22.709  12.906
40900W        W 9118   5.496  34.018   5.152
40901W        W 9119  17.277  41.077  14.363
40902W        W 9120  20.448   1.823   1.495
40903W        W 9121  33.570  33.557  11.900
40904W        W 9122  25.631  13.699  13.326
40905W        W 9123   3.186  44.860  14.086
40906W        W 9124  14.489  12.321   4.318
40907W        W 9125  40.217  27.601  14.036
40908W        W 9126  36.027   3.389   2.710
40909W        W 9127  41.375  19.775   4.625
40910W        W 9128   9.494   0.414   2.601
40911W        W 9129  41.355  27.090   1.307
40912W        W 9130   8.083  22.043  13.908
40913W        W 9131   4.778   7.594  11.522
40914W        W 9132  15.009   1.890  11.394
40915W        W 9133  30.502   4.425   1.861
40916W        W 9134  16.195  17.840  14.941
40917W        W 9135   2.439  42.981   9.553
40918W        W 9136  20.119  37.794   1.304
40919W        W 9137  20.295  27.607  12.341
40920W        W 9138  33.224  15.180  14.544
40921W        W 9139  10.654  37.208   0.047
40922W        W 9140  23.304  34.801   4.559
40923W        W 9141  24.574  43.779  13.386
40924W        W 9142  23.658  39.224   4.563
40925W        W 9143  31.154  11.620  14.949
40926W        W 9144  28.516  25.812   0.799
40927W        W 9145  27.094  15.579  14.941
40928W        W 9146   6.058  34.097   3.149
40929W        W 9147  18.681  38.152   2.746
40930W        W 9148   5.479  15.754  13.957
40931W        W 9149  30.493  38.797   3.719
40932W        W 9150  39.915  16.571  13.357
40933W        W 9151  17.605  23.203   1.298
40934W        W 9152  16.207   2.951  14.256
40935W        W 9153  10.110  32.187  13.295
40936W        W 9154  28.654  21.500   4.083
40937W        W 9155  17.194  39.953   2.697
40938W        W 9156  30.339  33.362   3.303
40939W        W 9157  37.399  37.945   3.888
40940W        W 9158  17.527  22.990   2.249
40941W        W 9159  12.926  14.602   4.567
40942W        W 9160  22.369  42.878  11.072
40943W        W 9161  44.023  40.591  13.842
40944W        W 9162  33.891   1.741   0.457
40945W        W 9163  30.109  37.963  12.333
40946W        W 9164  34.904  41.061  14.333
40947W        W 9165  15.298  19.755  14.761
40948W        W 9166  44.175  12.209  12.003
40949W        W 9167  32.520  24.436  11.602
40950W        W 9168  36.946  40.974   2.041
40951W        W 9169  43.006  31.183  13.351
40952W        W 9170   9.183  38.090   1.824
40953W        W 9171  13.633  20.863   2.935
40954W        W 9172  13.837  42.838   4.987
40955W        W 9173  39.586  27.462  10.645
40956W        W 9174  18.553   1.221   3.934
40957W        W 9175  27.159  27.963   2.333
40958W        W 9176  16.985   3.958   3.099
40959W        W 9177  11.829  11.183   2.176
40960W        W 9178  11.139  23.935  12.489
40961W        W 9179   0.776  10.624  12.361
40962W        W 9180   0.300  14.318   0.960
40963W        W 9181   9.351  40.137   0.900
40964W        W 9182  27.951  19.702   3.225
40965W        W 9183  15.301  43.983   0.951
40966W        W 9184  17.323   4.965   0.738
40967W        W 9185  39.002   5.025   3.304
40968W        W 9186  21.777  34.853  12.591
40969W        W 9187  11.739  13.367   3.208
40970W        W 9188  19.623   5.352   2.887
40971W        W 9189   0.886   8.216  11.124
40972W        W 9190  30.543  29.636   2.314
40973W        W 9191   3.225   0.173  14.549
40974W        W 9192  42.031  34.161   1.169
40975W        W 9193  34.448  19.825   3.875
40976W        W 9194  23.257  14.391  14.086
40977W        W 9195  32.560  14.628  11.659
40978W        W 9196  11.813  44.385  12.663
40979W        W 9197  35.444  16.738  14.404
40980W        W 9198   6.292  44.751   0.918
40981W        W 9199  17.706  15.580   1.624
40982W        W 9200   1.871  28.889   2.486
40983W        W 9201  33.661  29.142   1.578
40984W        W 9202  28.152  21.966   0.759
40985W        W 9203   7.274  11.356   3.666
40986W        W 9204  42.556  13.197   0.262
40987W        W 9205  25.684  13.217   2.819
40988W        W 9206  32.682   0.061  11.937
40989W        W 9207  14.778  42.863   3.276
40990W        W 9208  29.234  23.821   2.310
40991W        W 9209  12.656   6.550  12.545
40992W        W 9210  20.050  44.394  10.546
40993W        W 9211  18.674  39.792   0.258
40994W        W 9212  16.721  32.680  13.100
40995W        W 9213  18.279  16.199   4.106
40996W        W 9214   1.368  40.471  12.325
40997W        W 9215  25.420   4.237  12.198
40998W        W 9216   9.542  38.191   4.172
40999W        W 9217  12.459   5.856  13.248
41000W        W 9218  30.844  42.514   2.777
41001W        W 9219  14.552  26.728   4.075
41002W        W 9220  33.189  12.709   0.008
41003W        W 9221  42.909  42.725   4.074
41004W        W 9222  37.873   1.976  13.862
41005W        W 9223   5.204  43.584   4.616
41006W        W 9224  17.052  24.507   2.354
41007W        W 9225  20.622  38.585   2.489
41008W        W 9226   2.374  44.469   2.233
41009W        W 9227  14.661   2.378  14.402
41010W        W 9228   4.394  42.614   3.686
41011W        W 9229  15.757  43.677  10.994
41012W        W 9230  14.825  25.595   2.192
41013W        W 9231  26.880   2.161   3.852
41014W        W 9232  22.503   2.858  12.394
41015W        W 9233  16.307   6.279   3.419
41016W        W 9234  32.135   0.992  13.347
41017W        W 9235  13.370  36.983   4.062
41018W        W 9236  18.083  13.339   1.357
41019W        W 9237  39.018  23.147   4.211
41020W        W 9238  37.181  35.523  12.072
41021W        W 9239  17.639  38.368  10.826
41022W        W 9240   7.211  14.636   3.577
41023W        W 9241  41.491  36.062   2.238
41024W        W 9242  33.115  14.143   2.355
41025W        W 9243  41.304  24.295   0.472
41026W        W 9244  24.720  19.802   4.727
41027W        W 9245  16.387  34.402  11.464
41028W        W 9246  32.398  36.914  13.339
41029W        W 9247  29.060   1.501   2.594
41030W        W 9248  28.021  27.159  13.409
41031W        W 9249  34.182  37.419   1.649
41032W        W 9250  26.257  11.709   4.536
41033W        W 9251  10.178   5.362  11.366
41034W        W 9252  35.867  39.457  13.972
41035W        W 9253   8.228   2.118  12.145
41036W        W 9254  18.642  11.203   0.929
41037W        W 9255  42.460  17.861   0.367
41038W        W 9256  40.909  38.015  14.892
41039W        W 9257  11.801   0.894  11.916
41040W        W 9258  44.810  42.665   3.193
41041W        W 9259   8.784  14.370   2.622
41042W        W 9260  31.089  22.133   0.231
41043W        W 9261  27.938   2.273  11.604
41044W        W 9262  25.744  21.365   3.247
41045W        W 9263  24.992   2.253  12.116
41046W        W 9264  35.148  21.752  10.627
41047W        W 9265  31.938  14.294  10.732
41048W        W 9266  32.694  31.441   1.564
41049W        W 9267  42.020   9.282  11.946
41050W        W 9268  17.750   5.663  14.395
41051W        W 9269   2.854  26.222   3.733
41052W        W 9270  34.274  35.345   4.129
41053W        W 9271  33.213   2.299  14.410
41054W        W 9272  24.252  23.008   1.057
41055W        W 9273  40.878  15.791   0.743
41056W        W 9274  27.036  39.445  11.141
41057W        W 9275  40.134  10.087  13.813
41058W        W 9276  15.767  18.587  13.784
41059W        W 9277  44.422  31.663  10.651
41060W        W 9278  22.618  29.514  12.981
41061W        W 9279  31.196  15.223  13.811
41062W        W 9280   8.723  23.715   2.438
41063W        W 9281  18.750  38.042   4.597
41064W        W 9282  24.645  33.848   0.438
41065W        W 9283  43.952  21.641  14.936
41066W        W 9284  23.061  43.062  11.558
41067W        W 9285  38.847  19.552  10.097
41068W        W 9286  14.189  31.140   2.518
41069W        W 9287  11.094  37.446  11.460
41070W        W 9288   3.443  11.251  11.915
41071W        W 9289  14.153   9.394   1.848
41072W        W 9290   3.909  12.216   2.303
41073W        W 9291  38.957  30.196  11.859
41074W        W 9292   2.220  44.520   2.733
41075W        W 9293  38.949  11.832   0.947
41076W        W 9294   5.774  37.449  12.305
41077W        W 9295   5.063   6.809  12.414
41078W        W 9296   3.025   4.999  12.782
41079W        W 9297   1.301  38.662   1.714
41080W        W 9298  39.570  31.122   2.512
41081W        W 9299   4.722  33.588  12.070
41082W        W 9300  29.489  31.729   3.337
41083W        W 9301  24.074  15.200  14.467
41084W        W 9302  33.200  12.710  11.648
41085W        W 9303   5.365  44.208  13.319
41086W        W 9304  32.406  18.225   4.258
41087W        W 9305  37.879  20.680  10.762
41088W        W 9306   8.944  21.168   3.751
41089W        W 9307   9.185  42.818   0.069
41090W        W 9308  26.860  38.014   2.660
41091W        W 9309  43.709   0.365   3.137
41092W        W 9310  35.566  22.076   3.286
41093W        W 9311  18.217  29.258   0.911
41094W        W 9312  32.937  25.238  14.542
41095W        W 9313  39.595  18.241   4.111
41096W        W 9314   8.090  37.493  10.593
41097W        W 9315  19.540   6.992   0.887
41098W        W 9316   9.649  13.983   1.249
41099W        W 9317  28.381  43.911  13.182
41100W        W 9318  11.694   7.107   2.770
41101W        W 9319  44.238  43.728  14.983
41102W        W 9320  17.730   2.714   4.235
41103W        W 9321  42.627   6.125   5.458
41104W        W 9322  14.801  34.113  13.108
41105W        W 9323  17.817  19.578  11.818
41106W        W 9324  30.737   7.715  14.524
41107W        W 9325  10.883   3.307   1.439
41108W        W 9326  34.137   8.921  10.689
41109W        W 9327   4.881  11.122  12.020
41110W        W 9328  19.961   6.918   1.778
41111W        W 9329  18.926  16.313   5.028
41112W        W 9330  25.467  38.508   1.656
41113W        W 9331  41.553  15.679  10.630
41114W        W 9332  34.207  36.007   5.209
41115W        W 9333  27.763   7.278  10.478
41116W        W 9334  42.936  15.181   1.333
41117W        W 9335   7.407   9.811  12.234
41118W        W 9336  31.661  14.517  12.465
41119W        W 9337  21.726  37.544  12.688
41120W        W 9338  37.486  42.241  11.606
41121W        W 9339  42.416  28.152   0.643
41122W        W 9340  24.269  35.979  14.048
41123W        W 9341   7.524   8.365  13.145
41124W        W 9342  10.450  27.291   4.094
41125W        W 9343   3.983   1.319  10.697
41126W        W 9344  34.850  13.832  12.405
41127W        W 9345  10.939   9.671   4.212
41128W        W 9346   6.837  23.825  13.972
41129W        W 9347  28.912  37.830  14.504
41130W        W 9348  19.145  33.480  10.249
41131W        W 9349  10.063  41.605   3.668
41132W        W 9350  13.868   9.222  14.494
41133W        W 9351  35.532  32.408   2.743
41134W        W 9352  34.728  15.721  14.090
41135W        W 9353  31.864  20.035   2.230
41136W        W 9354  11.720  29.234  11.155
41137W        W 9355   7.648   2.618   3.232
41138W        W 9356  15.647   7.332   0.687
41139W        W 9357   7.385  26.658   4.886
41140W        W 9358   2.531  39.875  12.227
41141W        W 9359  20.422  39.453   4.163
41142W        W 9360  20.252  14.326   4.952
41143W        W 9361   3.502   8.975  11.548
41144W        W 9362  21.175  18.643   1.458
41145W        W 9363   9.397   5.736   4.546
41146W        W 9364   8.955  42.869   9.725
41147W        W 9365   5.821   2.326  11.924
41148W        W 9366  26.530   1.467   2.434
41149W        W 9367  14.744  32.117   4.810
41150W        W 9368  40.963  25.780   3.356
41151W        W 9369  30.389   5.284  13.046
41152W        W 9370  18.844  26.604  11.680
41153W        W 9371  30.057  39.795  14.514
41154W        W 9372  28.783  19.016   3.268
41155W        W 9373  42.898  23.405   3.035
41156W        W 9374  10.326   8.536   0.236
41157W        W 9375  34.446  36.547   1.433
41158W        W 9376  41.016  37.398   4.650
41159W        W 9377   2.057   8.943  14.371
41160W        W 9378  11.413   7.285   3.578
41161W        W 9379   0.882  12.336  14.529
41162W        W 9380  14.229   8.092   4.425
41163W        W 9381  14.483  11.619   2.172
41164W        W 9382  40.737  35.538  11.334
41165W        W 9383  17.598  34.825   4.154
41166W        W 9384  26.441  25.894   2.569
41167W        W 9385  15.044  29.526  13.994
41168W        W 9386   4.272  16.276   2.988
41169W        W 9387  41.516   1.251  11.174
41170W        W 9388  25.887  23.654   2.479
41171W        W 9389  14.896   4.110   2.176
41172W        W 9390   2.987  12.573  11.905
41173W        W 9391  40.395  19.019   4.092
41174W        W 9392  15.737   7.432   9.946
41175W        W 9393  19.538  11.806  13.584
41176W        W 9394  43.023  14.712   2.010
41177W        W 9395  40.482  24.789  10.542
41178W        W 9396  35.164  28.317  12.185
41179W        W 9397  11.776  28.637  13.732
41180W        W 9398   0.566   9.089   3.046
41181W        W 9399  14.073   6.603   3.189
41182W        W 9400  14.120  14.129   2.752
41183W        W 9401  17.616  12.934   0.561
41184W        W 9402   8.281  26.457  12.905
41185W        W 9403  18.609  17.148  10.289
41186W        W 9404   3.284  44.179   4.848
41187W        W 9405  12.584  35.406   0.388
41188W        W 9406  32.863  43.715   1.375
41189W        W 9407  19.486  42.788  12.022
41190W        W 9408  26.598  15.329   0.929
41191W        W 9409   3.183  42.432  10.993
41192W        W 9410   8.138   7.473   2.641
41193W        W 9411   4.926  28.309   0.043
41194W        W 9412  22.544  16.245  13.040
41195W        W 9413  40.819  24.751  14.977
41196W        W 9414   6.738   3.946  12.718
41197W        W 9415  10.488   1.062   4.590
41198W        W 9416  44.184  13.169   2.917
41199W        W 9417  31.526  41.167  12.790
41200W        W 9418  27.780   9.067   0.297
41201W        W 9419  30.099  41.243  14.921
41202W        W 9420  28.152  38.052   1.496
41203W        W 9421   8.852  42.368   0.237
41204W        W 9422  33.492  19.675  12.342
41205W        W 9423  27.539  41.485  13.675
41206W        W 9424   6.041  28.443  11.686
41207W        W 9425  25.603  33.976   4.283
41208W        W 9426   7.129   4.143  14.728
41209W        W 9427  18.263   2.146   1.999
41210W        W 9428  25.755  17.637   2.603
41211W        W 9429  26.898  42.739   0.787
41212W        W 9430  31.835   3.615   0.253
41213W        W 9431   0.339  38.826   2.882
41214W        W 9432  24.115  16.583   4.029
41215W        W 9433  36.946   5.146  11.139
41216W        W 9434  37.470  10.424  13.306
41217W        W 9435  31.941   6.967   3.900
41218W        W 9436  20.771  26.059  13.526
41219W        W 9437  31.072   6.958   4.523
41220W        W 9438   7.076  21.598   1.432
41221W        W 9439  17.501  14.170  11.679
41222W        W 9440  22.153   0.713  11.491
41223W        W 9441   1.251  16.683   4.168
41224W        W 9442   3.603  12.090  13.986
41225W        W 9443  38.414  20.954   2.089
41226W        W 9444   2.716   8.479   4.346
41227W        W 9445  32.040  41.111  12.549
41228W        W 9446  23.553  33.031  14.511
41229W        W 9447  29.570  42.544  11.665
41230W        W 9448  31.850  30.285  14.504
41231W        W 9449  27.416  27.567   3.574
41232W        W 9450   9.318  25.203   3.774
41233W        W 9451  10.752  21.026   0.257
41234W        W 9452  11.659  33.170   0.792
41235W        W 9453  34.723  38.250   2.558
41236W        W 9454  19.643  16.362  13.090
41237W        W 9455  43.818  35.308  13.592
41238W        W 9456  30.461  35.625   3.074
41239W        W 9457   7.448   6.439  12.497
41240W        W 9458  15.365   2.504  10.667
41241W        W 9459  35.194   3.966   0.330
41242W        W 9460  39.289   0.332   0.453
41243W        W 9461  35.889  24.539   3.842
41244W        W 9462   7.426   8.448  14.475
41245W        W 9463  17.595  13.857  11.258
41246W        W 9464  33.464  25.675  10.239
41247W        W 9465  11.551  23.175  12.149
41248W        W 9466  42.692  16.428   1.964
41249W        W 9467  18.542  24.188   1.292
41250W        W 9468  16.443   0.312  13.583
41251W        W 9469  30.620  30.523   1.652
41252W        W 9470  39.806  40.362   4.091
41253W        W 9471  30.810  14.365  11.235
41254W        W 9472  10.196  35.887  12.635
41255W        W 9473  19.760  14.769  11.953
41256W        W 9474  10.906  18.328  11.563
41257W        W 9475  39.791  36.903  11.451
41258W        W 9476  15.644   0.471  12.598
41259W        W 9477  19.005  24.421   1.411
41260W        W 9478   1.235  29.755  10.521
41261W        W 9479  13.632  23.724   1.634
41262W        W 9480  17.203  32.115  10.036
41263W        W 9481  21.543  41.558  13.423
41264W        W 9482  39.857  20.258  12.809
41265W        W 9483  22.263  27.080  13.386
41266W        W 9484  20.351   6.259   3.700
41267W        W 9485   6.824  17.795   1.781
41268W        W 9486  18.542   8.163  14.494
41269W        W 9487   6.053  22.585   0.822
41270W        W 9488  18.272  30.753  13.131
41271W        W 9489  23.094   2.861  14.319
41272W        W 9490  17.914  13.665   2.648
41273W        W 9491  38.607  20.282   0.932
41274W        W 9492  44.317  37.065  13.407
41275W        W 9493  35.013  23.238   4.710
41276W        W 9494  14.677  28.138  14.313
41277W        W 9495  11.984  37.915  14.835
41278W        W 9496  44.855  10.092  13.606
41279W        W 9497  12.681  35.169   2.718
41280W        W 9498   3.926  31.057  14.982
41281W        W 9499  38.289  41.138   4.988
41282W        W 9500   2.364  13.787  13.605
41283W        W 9501  17.005  27.766  11.517
41284W        W 9502   7.221  22.599  11.054
41285W        W 9503  29.710   8.124   0.359
41286W        W 9504  14.346  18.388  11.116
41287W        W 9505  26.728  35.381  12.646
41288W        W 9506  36.763  23.555   3.327
41289W        W 9507  12.369  34.067   2.242
41290W        W 9508  13.336  20.324  13.291
41291W        W 9509  36.338  20.518  13.349
41292W        W 9510  13.795   7.783  13.572
41293W        W 9511  14.241  18.208   2.679
41294W        W 9512   0.405  26.862   2.196
41295W        W 9513  24.160   2.288   2.238
41296W        W 9514   4.919  15.366  11.642
41297W        W 9515   5.414  16.424   1.611
41298W        W 9516   9.165  39.132  13.514
41299W        W 9517   1.935  14.367  14.845
41300W        W 9518  33.310  16.298   4.593
41301W        W 9519  18.706   3.517  14.681
41302W        W 9520  24.648  44.856   2.081
41303W        W 9521  16.862  39.876   3.548
41304W        W 9522  22.678  16.203   4.640
41305W        W 9523  41.938  32.118   0.069
41306W        W 9524  10.075  38.811   3.159
41307W        W 9525  33.378  22.115  10.706
41308W        W 9526  25.509  26.803   2.372
41309W        W 9527  23.219  13.999  11.475
41310W        W 9528  32.380  17.646  12.006
41311W        W 9529  43.587  23.532  14.458
41312W        W 9530  44.236  26.964   0.874
41313W        W 9531  23.220  38.536   4.147
41314W        W 9532   7.447  38.000   0.066
41315W        W 9533   2.288   6.417  11.636
41316W        W 9534  13.628  16.132   1.332
41317W        W 9535  11.865   0.996  11.005
41318W        W 9536  29.938  27.263   4.912
41319W        W 9537  27.043  17.263  13.398
41320W        W 9538   8.130  43.782  12.616
41321W        W 9539  19.652  34.354   2.242
41322W        W 9540   7.281   5.150  13.904
41323W        W 9541  30.564  21.846  14.138
41324W        W 9542  36.481  28.453   0.021
41325W        W 9543  19.496  26.101   3.151
41326W        W 9544  16.242  27.520  12.946
41327W        W 9545  34.371  39.576   3.112
41328W        W 9546   4.884  31.051   2.381
41329W        W 9547  30.163  23.606   2.070
41330W        W 9548  22.502   5.531   0.981
41331W        W 9549  33.646  41.511  11.063
41332W        W 9550   3.230   5.152   0.393
41333W        W 9551  33.244  12.231  14.385
41334W        W 9552  31.592   4.798   3.699
41335W        W 9553  35.834  27.051  14.306
41336W        W 9554  26.536  38.746  10.251
41337W        W 9555  15.365   5.888   1.964
41338W        W 9556  36.570  18.337   1.981
41339W        W 9557  43.391  13.589  14.441
41340W        W 9558  19.743  18.619  11.105
41341W        W 9559  39.044  15.520   2.241
41342W        W 9560   3.786  23.060  14.245
41343W        W 9561  44.561  44.898  11.023
41344W        W 9562   6.081   3.706   2.868
41345W        W 9563  42.727  17.646   1.673
41346W        W 9564   6.359   8.020   3.717
41347W        W 9565  30.671   4.248   3.717
41348W        W 9566  43.804  23.399  10.867
41349W        W 9567  44.046  22.166   0.722
41350W        W 9568  16.898   1.029   2.221
41351W        W 9569  44.858  44.242   0.381
41352W        W 9570  22.093  42.983   3.142
41353W        W 9571  43.181   2.446   2.221
41354W        W 9572  32.620  34.440  12.906
41355W        W 9573   2.815  25.988  14.172
41356W        W 9574  28.410   3.139   3.160
41357W        W 9575  20.114   2.052   1.823
41358W        W 9576   3.214  14.775  13.348
41359W        W 9577  42.322  32.630  14.334
41360W        W 9578   6.863   1.187   2.153
41361W        W 9579   6.784   6.803   0.276
41362W        W 9580  28.564  17.309   3.162
41363W        W 9581  27.166  21.636   2.079
41364W        W 9582  21.836   3.462   1.658
41365W        W 9583   0.937  19.361  14.546
41366W        W 9584   7.984  21.670   2.952
41367W        W 9585  37.895  18.058   2.608
41368W        W 9586  19.115  15.541   3.441
41369W        W 9587   1.689  35.282  11.305
41370W        W 9588  30.010  35.160  12.909
41371W        W 9589  10.072  41.886  12.494
41372W        W 9590  25.223   9.417  14.381
41373W        W 9591  19.774  14.830   3.005
41374W        W 9592  34.022  36.487  14.327
41375W        W 9593  42.747  44.035  10.736
41376W        W 9594   8.423   3.317  14.203
41377W        W 9595  42.371   8.464  11.449
41378W        W 9596  25.830  40.104  11.517
41379W        W 9597  20.163  28.532   0.290
41380W        W 9598  28.160  36.932   3.598
41381W        W 9599  30.976   1.282   3.765
41382W        W 9600   1.205   7.605   0.497
41383W        W 9601  43.239  20.211   0.260
41384W        W 9602  13.649  36.300   3.838
41385W        W 9603  25.697  22.026   0.864
41386W        W 9604  27.051   0.399   2.890
41387W        W 9605  25.471  37.009   4.214
41388W        W 9606  41.781  19.077  13.857
41389W        W 9607   1.457  20.519  10.662
41390W        W 9608  20.026   3.892  10.679
41391W        W 9609  42.012  26.478  12.630
41392W        W 9610   0.041  20.713  12.332
41393W        W 9611  35.287   5.626   4.078
41394W        W 9612  19.454  12.448  14.880
41395W        W 9613  31.445  24.801   5.019
41396W        W 9614  17.835  42.999   3.647
41397W        W 9615   1.926  18.366   1.036
41398W        W 9616  11.276  20.911   1.914
41399W        W 9617  10.723   3.603  13.632
41400W        W 9618  37.445  11.243   1.342
41401W        W 9619  23.045  34.588   2.875
41402W        W 9620   5.114  38.003   1.438
41403W        W 9621  41.115   7.363   1.407
41404W        W 9622  12.907   2.463   1.330
41405W        W 9623  12.696  20.288  12.443
41406W        W 9624  10.626  13.303   0.849
41407W        W 9625  42.515  34.741  11.135
41408W        W 9626   8.654  33.090   0.128
41409W        W 9627  38.285  22.721   0.854
41410W        W 9628  22.513  16.746  12.950
41411W        W 9629  17.361  34.692  13.507
41412W        W 9630  40.928  24.482  14.531
41413W        W 9631   6.629  28.166  14.448
41414W        W 9632   4.504  40.028   0.184
41415W        W 9633  27.710  34.944   1.342
41416W        W 9634  28.573  21.184   1.867
41417W        W 9635  15.535  29.033   0.034
41418W        W 9636  29.479  24.437   3.163
41419W        W 9637  28.291   2.551  13.752
41420W        W 9638  35.114  28.160   0.443
41421W        W 9639  25.142  34.603   1.914
41422W        W 9640   5.868  43.074   4.502
41423W        W 9641   8.705  13.826   0.385
41424W        W 9642  30.014   1.791  14.996
41425W        W 9643   0.672   1.284   1.314
41426W        W 9644  35.609   2.430   1.412
41427W        W 9645  39.521  44.998  13.309
41428W        W 9646  20.344  25.079   3.381
41429W        W 9647   7.301  15.441   3.260
41430W        W 9648  10.392  12.089   2.705
41431W        W 9649  30.956  18.096  10.108
41432W        W 9650  28.529   8.803   3.238
41433W        W 9651  17.568  19.292  14.502
41434W        W 9652   2.473  35.615  14.187
41435W        W 9653  24.496   7.962   3.273
41436W        W 9654  17.958  31.109   1.986
41437W        W 9655  10.869  39.469   3.250
41438W        W 9656  26.797  35.757   3.297
41439W        W 9657  41.299  30.627   1.272
41440W        W 9658  17.617   1.457   3.647
41441W        W 9659  33.015  35.636  13.443
41442W        W 9660  16.381   5.528  12.607
41443W        W 9661  33.667  13.147  14.118
41444W        W 9662  21.987  42.413  13.047
41445W        W 9663  14.255   0.459   3.749
41446W        W 9664   0.969  36.426   1.856
41447W        W 9665  17.830  29.582  13.782
41448W        W 9666  31.393  31.393  10.617
41449W        W 9667   5.796  28.697   0.084
41450W        W 9668   8.385  10.765   2.166
41451W        W 9669  21.269  18.213   1.167
41452W        W 9670  16.630  12.255  10.532
41453W        W 9671   7.448  12.301   3.274
41454W        W 9672  28.161  19.858   2.783
41455W        W 9673  28.697  10.249   1.336
41456W        W 9674   7.305   8.911   2.609
41457W        W 9675   4.771  33.946   1.308
41458W        W 9676  20.606  24.589  10.805
41459W        W 9677  33.483  34.619  14.420
41460W        W 9678  12.154   6.330  14.303
41461W        W 9679   4.358  25.598   3.657
41462W        W 9680  28.197  22.864  10.260
41463W        W 9681  30.342  12.272  11.711
41464W        W 9682   6.257   5.441   0.373
41465W        W 9683  12.326   1.251  14.990
41466W        W 9684  20.132  12.898  14.966
41467W        W 9685   2.017  42.769  14.340
41468W        W 9686   5.835  24.143  12.900
41469W        W 9687   1.886  25.522  14.042
41470W        W 9688  26.046   4.812   2.331
41471W        W 9689   4.230  10.848   2.412
41472W        W 9690  15.273  38.159   0.981
41473W        W 9691   2.116   0.415  10.396
41474W        W 9692   0.306  12.751  12.858
41475W        W 9693   0.790  14.607   4.181
41476W        W 9694  24.599   6.110   3.844
41477W        W 9695   6.199   2.679  11.491
41478W        W 9696  18.085  37.122   0.810
41479W        W 9697  28.028  10.573  13.835
41480W        W 9698   4.715  17.343  13.472
41481W        W 9699  17.643  44.163   4.087
41482W        W 9700  28.455  13.231  10.636
41483W        W 9701  37.505  36.428   1.431
41484W        W 9702  29.572  23.219  10.562
41485W        W 9703  42.818  40.038  14.902
41486W        W 9704   3.928  25.219   1.888
41487W        W 9705  23.947  39.504  12.009
41488W        W 9706   6.094  30.493  14.887
41489W        W 9707  39.870   0.740  14.292
41490W        W 9708   1.036  37.936   2.200
41491W        W 9709   3.376  28.153   4.480
41492W        W 9710   3.924   6.218  12.506
41493W        W 9711  42.195  14.021   0.462
41494W        W 9712  21.966  38.308   1.267
41495W        W 9713   4.303  10.655  13.142
41496W        W 9714  11.425   9.742   3.326
41497W        W 9715   1.043  35.204  12.673
41498W        W 9716  34.943  40.771   4.152
41499W        W 9717   7.452  15.575  14.355
41500W        W 9718  20.500  40.091  10.605
41501W        W 9719  29.946  10.139  11.499
41502W        W 9720  31.150  17.762   1.668
41503W        W 9721  22.993  11.243   1.930
41504W        W 9722  15.060  19.362   2.749
41505W        W 9723   8.798  30.873   5.024
41506W        W 9724   4.433  43.925  12.412
41507W        W 9725  20.876  13.617  10.222
41508W        W 9726   5.401   6.858   4.659
41509W        W 9727  35.755  36.016  14.859
41510W        W 9728  42.285  29.982  11.012
41511W        W 9729  19.781  27.665   2.280
41512W        W 9730  33.882  40.524   2.247
41513W        W 9731  17.509  42.920   4.691
41514W        W 9732   4.380   1.880   0.530
41515W        W 9733  29.644  41.798   1.301
41516W        W 9734  33.612  40.353   1.805
41517W        W 9735  15.244  20.600  12.998
41518W        W 9736   9.673  33.650  13.849
41519W        W 9737  11.256  25.596  12.840
41520W        W 9738  15.583  14.184  14.804
41521W        W 9739  23.861  19.287  12.577
41522W        W 9740  36.158   4.326  12.600
41523W        W 9741  13.323   4.314  13.307
41524W        W 9742  26.948  18.195   1.706
41525W        W 9743   9.191   1.156  12.552
41526W        W 9744  43.716  44.440  10.700
41527W        W 9745  18.158  15.009   3.750
41528W        W 9746  35.257  34.784   0.388
41529W        W 9747  15.186  13.852   1.021
41530W        W 9748  10.453   9.317   3.214
41531W        W 9749  39.369  40.392  13.942
41532W        W 9750  24.322   5.958  14.307
41533W        W 9751  19.604  14.425   4.298
41534W        W 9752  20.549  35.697  12.950
41535W        W 9753  37.091  10.346   4.913
41536W        W 9754  42.734   0.340   3.254
41537W        W 9755  35.328   3.799   4.555
41538W        W 9756  35.271   2.761  14.740
41539W        W 9757  24.767  40.082   4.402
41540W        W 9758  12.758  34.105   1.903
41541W        W 9759  21.464  14.606  12.381
41542W        W 9760  26.604  15.133  14.548
41543W        W 9761  31.667  19.746   3.334
41544W        W 9762   0.899  35.185  10.767
41545W        W 9763  13.204   1.081   2.320
41546W        W 9764  13.114  40.360  10.837
41547W        W 9765  10.116  32.918  11.515
41548W        W 9766  43.813  33.477   3.437
41549W        W 9767  35.598  33.533   1.651
41550W        W 9768  44.809  10.577   2.577
41551W        W 9769  21.151  18.472  12.029
41552W        W 9770  37.639  12.751   1.657
41553W        W 9771  40.089  29.037   1.382
41554W        W 9772  42.311  21.798  14.859
41555W        W 9773  38.145   3.270   3.674
41556W        W 9774  21.120   5.423   0.890
41557W        W 9775  27.793  38.990   3.652
41558W        W 9776  21.505  37.455  14.027
41559W        W 9777  18.311  41.132  10.529
41560W        W 9778  32.965   5.481   3.416
41561W        W 9779  39.216  33.588   3.560
41562W        W 9780   2.835  23.539   4.181
41563W        W 9781  22.212  32.721   4.175
41564W        W 9782  22.232   6.853  11.564
41565W        W 9783  27.401  25.926  13.100
41566W        W 9784  42.257  27.565  12.057
41567W        W 9785  20.690  18.869   4.129
41568W        W 9786  15.671  30.936   0.076
41569W        W 9787   3.200  15.300  14.083
41570W        W 9788  25.546  26.004   2.691
41571W        W 9789  22.815  40.622  14.889
41572W        W 9790   4.275  38.877  11.995
41573W        W 9791  10.428  25.284  13.468
41574W        W 9792  19.171  31.371  10.906
41575W        W 9793  20.834  37.838  12.174
41576W        W 9794   4.034  31.522  10.638
41577W        W 9795   6.475  38.430  11.906
41578W        W 9796   8.539  14.775   4.969
41579W        W 9797  30.139  34.342   3.134
41580W        W 9798  36.016  26.079  13.449
41581W        W 9799  11.738  40.980   0.181
41582W        W 9800   1.989  20.930   0.113
41583W        W 9801  39.280   8.833   3.743
41584W        W 9802  23.281   2.456  12.585
41585W        W 9803  41.065  11.690  13.810
41586W        W 9804  34.813   5.879   0.055
41587W        W 9805  23.678  33.593   1.833
41588W        W 9806  19.281  38.104   3.269
41589W        W 9807   7.661  37.543  14.968
41590W        W 9808  43.926  23.438   4.139
41591W        W 9809  20.412  40.916   3.291
41592W        W 9810   2.426  35.582   0.217
41593W        W 9811  26.992   9.751   0.193
41594W        W 9812  43.431  13.463  10.775
41595W        W 9813  23.467  42.006   2.736
41596W        W 9814  25.122  24.596  12.033
41597W        W 9815  31.777  41.549   2.115
41598W        W 9816  17.783   0.963   3.601
41599W        W 9817  26.550  43.360  10.864
41600W        W 9818  34.624  32.653  12.027
41601W        W 9819  27.649  12.374  14.809
41602W        W 9820  43.281  29.044  12.927
41603W        W 9821   4.764  42.013  12.368
41604W        W 9822  21.333  43.526   3.666
41605W        W 9823   2.263  21.749   2.400
41606W        W 9824  16.603   4.695  13.687
41607W        W 9825   5.235  25.701   1.904
41608W        W 9826  36.807  33.030   4.604
41609W        W 9827  37.965  10.915  11.703
41610W        W 9828   1.156  36.929   4.228
41611W        W 9829   8.294  25.271   3.585
41612W        W 9830  39.888   5.782  10.839
41613W        W 9831  15.271  23.289  12.647
41614W        W 9832  18.731  42.519  11.493
41615W        W 9833   6.736   6.312  12.131
41616W        W 9834  32.649  42.240   1.941
41617W        W 9835  14.264  43.447   5.590
41618W        W 9836  35.554   0.931  12.642
41619W        W 9837  23.446  40.333   3.565
41620W        W 9838  36.403  27.703  13.426
41621W        W 9839  15.490  30.617  11.882
41622W        W 9840  11.748  17.263   0.236
41623W        W 9841  16.720  30.596   2.749
41624W        W 9842   0.816  27.633  12.001
41625W        W 9843  14.936  34.399   3.966
41626W        W 9844  26.712  36.053  12.065
41627W        W 9845  19.450  37.008  13.803
41628W        W 9846  27.614   7.676   0.038
41629W        W 9847   4.723  23.065   4.047
41630W        W 9848  22.164   2.577   1.770
41631W        W 9849  37.455  20.039   4.600
41632W        W 9850  23.267  33.247  11.303
41633W        W 9851  17.276   1.012  13.882
41634W        W 9852  27.958  18.229   2.897
41635W        W 9853  35.488   6.493  13.055
41636W        W 9854  19.201  41.069  13.300
41637W        W 9855   4.526  20.638  14.978
41638W        W 9856  17.027   1.305  12.552
41639W        W 9857   6.370  11.569  14.358
41640W        W 9858  35.420  33.732   3.869
41641W        W 9859  15.009  17.616   0.323
41642W        W 9860   6.385  43.733  12.725
41643W        W 9861  37.292  39.330  14.763
41644W        W 9862  37.283  41.869  14.843
41645W        W 9863  40.370   3.337  13.959
41646W        W 9864   2.314   9.695   0.896
41647W        W 9865   9.427   3.280  11.881
41648W        W 9866   0.128   7.221  10.706
41649W        W 9867  37.028  12.378   3.300
41650W        W 9868  42.295  27.678   4.103
41651W        W 9869  38.555  40.382   1.901
41652W        W 9870   9.019  13.703   0.818
41653W        W 9871   6.214  23.367   1.274
41654W        W 9872  10.423   1.149   0.698
41655W        W 9873  44.342  35.435   1.645
41656W        W 9874  42.928  29.490   0.540
41657W        W 9875   8.376  44.248   0.319
41658W        W 9876  11.167  42.083   0.344
41659W        W 9877  40.043  44.439  13.226
41660W        W 9878  39.958  11.185  10.698
41661W        W 9879  33.511  14.036  11.686
41662W        W 9880  37.085  12.077   4.140
41663W        W 9881   7.736   7.361   0.817
41664W        W 9882  27.907  22.525  14.396
41665W        W 9883  41.989  21.995   2.571
41666W        W 9884  15.112  12.550   2.685
41667W        W 9885  43.280  41.831   3.710
41668W        W 9886  38.604  42.469   2.648
41669W        W 9887  26.510  32.250  12.808
41670W        W 9888  17.125  26.310  11.459
41671W        W 9889  16.195  38.586  11.786
41672W        W 9890  34.570   2.628   4.594
41673W        W 9891  21.995  43.339  11.722
41674W        W 9892  38.759  32.815   4.063
41675W        W 9893   2.186   4.668   3.333
41676W        W 9894   2.640  24.761  13.110
41677W        W 9895  41.921  11.033   4.427
41678W        W 9896  41.408  43.193   0.318
41679W        W 9897  22.592  34.608   0.250
41680W        W 9898  30.856  18.491   0.219
41681W        W 9899  13.765  42.805  13.476
41682W        W 9900   5.887  43.593  10.340
41683W        W 9901  14.946  10.150   2.739
41684W        W 9902   6.899  27.249   1.746
41685W        W 9903  42.712   1.412  11.730
41686W        W 9904   8.678  12.809   4.160
41687W        W 9905  12.203  31.184   3.663
41688W        W 9906  29.588   6.718   3.776
41689W        W 9907  22.320  40.005   0.867
41690W        W 9908  21.473  34.306  13.123
41691W        W 9909  28.181  35.020   1.521
41692W        W 9910  31.075   6.953  10.739
41693W        W 9911  34.992   8.186  14.278
41694W        W 9912  40.092  16.087   4.315
41695W        W 9913  32.575  10.687  11.970
41696W        W 9914  23.795  30.167   1.402
41697W        W 9915   4.645  40.784  12.498
41698W        W 9916  10.769  33.780   0.958
41699W        W 9917  38.028  27.394  14.960
41700W        W 9918   1.438   0.416  14.474
41701W        W 9919  13.159  35.180   4.938
41702W        W 9920   3.718  25.070   3.180
41703W        W 9921  30.249  33.854  11.162
41704W        W 9922  10.197  27.756  10.256
41705W        W 9923   9.951  42.371   4.349
41706W        W 9924  35.588  39.793   0.732
41707W        W 9925  35.342  22.127   1.943
41708W        W 9926   2.728  15.571  10.902
41709W        W 9927  33.015  39.518  11.654
41710W        W 9928  37.205  19.300  14.014
41711W        W 9929  42.755  30.431   4.121
41712W        W 9930  24.104  14.780  12.221
41713W        W 9931   6.563  24.002  11.706
41714W        W 9932  15.170   6.345   3.852
41715W        W 9933  42.285  25.443  14.103
41716W        W 9934  35.108  21.015   1.545
41717W        W 9935  44.743  43.483  10.657
41718W        W 9936   5.592   3.833   2.716
41719W        W 9937   3.179  38.127  11.045
41720W        W 9938   1.538  30.685  13.046
41721W        W 9939  38.474  31.957   1.011
41722W        W 9940  38.471  26.999  13.829
41723W        W 9941  25.589   7.249   2.277
41724W        W 9942   1.916   8.447  14.495
41725W        W 9943   8.678  14.248  10.226
41726W        W 9944  33.340  36.473   0.519
41727W        W 9945  43.765  22.780  11.431
41728W        W 9946  10.665  24.642   4.911
41729W        W 9947  35.375   0.020   2.164
41730W        W 9948  32.433  38.950  12.102
41731W        W 9949  14.635  22.607   0.035
41732W        W 9950   0.356   9.346  11.516
41733W        W 9951  41.982   0.982  11.231
41734W        W 9952  27.374   7.019   1.194
41735W        W 9953   5.786  37.395   4.181
41736W        W 9954  33.571  18.017  13.872
41737W        W 9955   9.048  39.378   4.541
41738W        W 9956  44.726   9.392  13.075
41739W        W 9957  43.930  30.941  13.351
41740W        W 9958  16.121  20.200  11.275
41741W        W 9959   9.277  28.107  14.076
41742W        W 9960  39.570   1.160  10.548
41743W        W 9961  40.870  27.116  14.898
41744W        W 9962  14.639  10.624  12.541
41745W        W 9963  24.169  29.687   1.746
41746W        W 9964   4.833   6.853  13.028
41747W        W 9965  38.062  23.467   2.329
41748W        W 9966  18.256  42.901  12.847
41749W        W 9967  23.189  30.521   4.347
41750W        W 9968  23.084   0.735   0.735
41751W        W 9969  37.032  44.249  12.562
41752W        W 9970  34.935   3.938   4.875
41753W        W 9971  20.393   1.754  12.118
41754W        W 9972  41.451  22.620  12.025
41755W        W 9973  44.543   1.974   4.591
41756W        W 9974   5.748   9.847   3.035
41757W        W 9975  38.380  37.401  10.913
41758W        W 9976  32.639   9.632   4.024
41759W        W 9977  29.841  15.677  14.547
41760W        W 9978  10.256   4.917  13.066
41761W        W 9979   8.779   8.668   5.051
41762W        W 9980  18.709  42.304  13.725
41763W        W 9981   4.209  32.097  12.500
41764W        W 9982  25.047  37.264   4.584
41765W        W 9983   6.324  35.983  13.085
41766W        W 9984   3.437  18.342   4.057
41767W        W 9985   2.593  32.611  13.108
41768W        W 9986  27.717  43.296   3.423
41769W        W 9987  37.218  20.208  13.791
41770W        W 9988   6.794  30.002  12.054
41771W        W 9989  33.677  33.486   4.115
41772W        W 9990  21.739  20.067  14.988
41773W        W 9991  20.711  20.671  14.953
41774W        W 9992   2.784   5.605   4.242
41775W        W 9993  37.669  21.891   1.933
41776W        W 9994   9.575  23.447   3.220
41777W        W 9995  10.155  33.168  10.684
41778W        W 9996  30.045   3.829  12.722
41779W        W 9997  18.317  15.244   4.202
41780W        W 9998  15.309  14.407   2.278
41781W        W 9999  11.503  20.931   3.513
41782W        W10000  39.001  43.804  11.457
41783W        W10001   3.594  18.555   0.985
41784W        W10002  43.345  22.609   4.425
41785W        W10003  19.607  31.564   3.420
41786W        W10004  44.014  11.422   3.190
41787W        W10005  26.454  42.390   0.776
41788W        W10006  40.488  25.583  14.834
41789W        W10007   1.973   2.197  11.601
41790W        W10008  36.820  36.352   0.834
41791W        W10009   4.922   9.186  13.826
41792W        W10010  27.035   0.040   4.727
41793W        W10011   7.354   8.466   1.769
41794W        W10012  19.887   3.951  13.334
41795W        W10013  35.415  44.921  13.509
41796W        W10014  41.253  44.007   2.194
41797W        W10015   0.945  11.584  14.406
41798W        W10016  23.124  14.490  11.636
41799W        W10017  44.877   2.693  12.419
41800W        W10018  24.259  16.804   1.650
41801W        W10019   3.899   8.234  13.856
41802W        W10020  10.376   5.860  10.639
41803W        W10021   4.493   3.446   0.965
41804W        W10022  37.498  20.688   3.944
41805W        W10023  31.204  39.018   0.521
41806W        W10024  30.107   7.115  13.866
41807W        W10025  36.251   9.757  13.786
41808W        W10026  43.565  39.940  12.081
41809W        W10027  39.087  44.771  13.490
41810W        W10028  12.725  25.632  12.119
41811W        W10029  11.732  35.326  12.894
41812W        W10030  23.974  31.453   1.889
41813W        W10031   9.596  20.092  12.812
41814W        W10032  20.742  26.429  13.160
41815W        W10033  23.248  17.747   2.747
41816W        W10034  41.989   3.450  10.050
41817W        W10035  41.543  26.441  12.390
41818W        W10036   3.900   4.022  12.772
41819W        W10037  28.653  40.764   3.644
41820W        W10038  39.500  43.762   4.769
41821W        W10039  33.490  44.527  11.429
41822W        W10040  21.263   4.060  13.061
41823W        W10041  20.158  39.001   1.738
41824W        W10042  26.206  28.671  12.906
41825W        W10043  28.087  16.509   5.427
41826W        W10044  30.222  12.697  10.908
41827W        W10045  28.381  24.329   0.866
41828W        W10046  41.885  37.660   2.835
41829W        W10047  30.241  24.625   4.182
41830W        W10048   6.322  43.926   9.725
41831W        W10049  43.471  12.288   1.942
41832W        W10050  28.701  34.947   2.370
41833W        W10051  36.887  18.231  11.894
41834W        W10052  11.581  35.106  11.668
41835W        W10053  31.639   8.478   3.157
41836W        W10054   7.335  18.773  11.266
41837W        W10055  28.828  31.374   4.103
41838W        W10056  28.419  15.678  11.645
41839W        W10057   4.828  42.910   0.404
41840W        W10058  11.434  31.111   0.753
41841W        W10059  26.524  36.287   5.102
41842W        W10060   8.350  16.263  12.594
41843W        W10061  21.892  25.385   1.223
41844W        W10062   3.535  42.266   5.371
41845W        W10063  41.553  15.038  13.435
41846W        W10064  32.140  14.375   4.663
41847W        W10065  28.604  26.244   1.740
41848W        W10066  18.025   2.928  14.920
41849W        W10067  13.704  42.102   1.264
41850W        W10068  34.336  17.227   3.603
41851W        W10069   2.027  17.611   0.724
41852W        W10070  44.810   8.009   3.218
41853W        W10071  20.686  28.023   4.853
41854W        W10072  14.236   2.324   4.153
41855W        W10073   5.485  22.507   1.663
41856W        W10074  38.350   2.254  12.544
41857W        W10075  27.867  13.176  11.632
41858W        W10076  40.814  14.477   4.918
41859W        W10077   4.354  11.572  11.035
41860W        W10078  29.670  24.045   0.533
41861W        W10079  10.544  22.149  11.709
41862W        W10080  23.040  37.872   3.299
41863W        W10081  42.856  35.411  13.557
41864W        W10082  20.894  43.774  14.772
41865W        W10083  21.979  31.060  14.308
41866W        W10084  26.705  28.719  11.942
41867W        W10085  23.461  14.149  12.230
41868W        W10086  22.984   8.710   1.389
41869W        W10087  12.333  29.719  12.538
41870W        W10088  18.760  14.621  12.897
41871W        W10089   1.072  29.446   2.760
41872W        W10090   1.609  24.683   2.619
41873W        W10091  19.190  12.136  12.792
41874W        W10092  16.423  12.328   3.308
41875W        W10093   0.496   1.331   4.110
41876W        W10094  34.638   5.649  10.890
41877W        W10095  19.879   5.325   3.354
41878W        W10096  23.534   3.790   0.334
41879W        W10097  28.502  33.174   0.786
41880W        W10098  14.901   6.549  12.498
41881W        W10099  20.882  15.316   0.507
41882W        W10100  27.203  36.976   0.382
41883W        W10101  14.725   7.225   0.227
41884W        W10102  20.277  12.292  13.780
41885W        W10103  26.225  22.738   4.301
41886W        W10104  43.337  10.206  10.781
41887W        W10105  32.048   6.258  13.544
41888W        W10106  39.442   0.299  12.910
41889W        W10107  37.329  12.186   3.682
41890W        W10108  18.635  43.548   0.903
41891W        W10109  42.601  26.747   4.041
41892W        W10110  31.360  44.330   3.189
41893W        W10111  14.560  24.590  12.976
41894W        W10112  15.673  41.581   0.262
41895W        W10113  42.374  30.044   0.610
41896W        W10114  21.242  24.620   5.351
41897W        W10115   4.331  39.217   1.667
41898W        W10116  21.574  28.360  11.127
41899W        W10117   4.388  18.452   0.507
41900W        W10118  12.281  32.959  12.946
41901W        W10119  31.316  35.035  11.659
41902W        W10120  26.564   6.264   4.753
41903W        W10121  30.238  17.021  14.464
41904W        W10122   6.957   2.783  13.297
41905W        W10123  15.893  11.913   1.673
41906W        W10124   5.811  26.711   1.238
41907W        W10125  16.064  37.023  13.368
41908W        W10126  10.007   5.226   0.882
41909W        W10127  13.644  43.281   3.745
41910W        W10128  16.068  31.514   1.784
41911W        W10129  15.781  30.148  13.471
41912W        W10130   4.132  34.924   4.231
41913W        W10131  37.679  16.831  13.837
41914W        W10132  31.978  20.119  13.021
41915W        W10133  40.874  30.247   2.049
41916W        W10134  41.189   5.437   2.363
41917W        W10135  17.796   9.144   4.482
41918W        W10136   9.324  14.735  12.470
41919W        W10137   5.947   3.427   4.103
41920W        W10138  31.966  11.109   0.500
41921W        W10139  26.312  31.615   0.268
41922W        W10140  35.892  12.063  14.824
41923W        W10141  19.264  20.356  12.426
41924W        W10142   8.027  28.004   4.929
41925W        W10143  26.585  25.092   9.857
41926W        W10144   4.918   4.155   1.875
41927W        W10145  18.011   4.927  14.227
41928W        W10146  20.503  19.542  10.228
41929W        W10147  25.771  14.335  13.905
41930W        W10148  43.343  13.586   2.698
41931W        W10149  13.947  22.115  14.117
41932W        W10150  44.482  25.765   0.444
41933W        W10151  17.291  12.136  13.430
41934W        W10152  19.685   1.002   1.737
41935W        W10153   7.769  25.793  11.415
41936W        W10154  19.294  35.048  11.960
41937W        W10155  28.221  28.688  11.330
41938W        W10156  20.554  37.497  11.940
41939W        W10157  23.046  32.136   1.703
41940W        W10158  42.682  12.839  14.474
41941W        W10159  34.937  36.399   1.651
41942W        W10160   6.372   9.299  10.686
41943W        W10161  25.173  18.943   1.887
41944W        W10162  17.049  38.815   3.052
41945W        W10163  28.668   2.747   0.911
41946W        W10164  20.411  16.257   0.418
41947W        W10165  35.461   2.402  12.498
41948W        W10166  28.979  17.795   2.345
41949W        W10167  23.109   6.442   3.119
41950W        W10168  34.964   2.214  12.429
41951W        W10169   1.962  14.852   0.778
41952W        W10170  27.659  36.737  12.498
41953W        W10171   9.160  36.540   4.909
41954W        W10172   9.809  35.361  11.114
41955W        W10173   1.902   2.886  12.282
41956W        W10174  36.424  43.413  11.059
41957W        W10175  31.357  36.961   1.818
41958W        W10176  40.055  10.609   1.286
41959W        W10177  27.249  33.541   2.658
41960W        W10178  18.998  25.964  13.924
41961W        W10179   5.141  28.407   2.191
41962W        W10180  20.501  37.355  13.770
41963W        W10181  20.474  21.090  11.491
41964W        W10182   0.869  26.559  14.933
41965W        W10183  44.779   6.001   3.673
41966W        W10184  31.639  33.503   5.160
41967W        W10185  44.684  16.125  12.013
41968W        W10186  41.445  20.336  13.816
41969W        W10187  31.517   6.419   1.970
41970W        W10188  25.451  20.883   5.125
41971W        W10189   0.375  10.721   4.057
41972W        W10190  29.585  34.220   4.079
41973W        W10191  10.406  24.502  10.564
41974W        W10192  38.550  30.327   0.341
41975W        W10193  34.980   7.380   3.982
41976W        W10194   9.668  25.147  13.807
41977W        W10195   7.691  10.802   0.809
41978W        W10196  41.138   7.590   0.770
41979W        W10197  15.948   4.314   2.084
41980W        W10198  38.823  37.121  12.404
41981W        W10199  21.227  32.867   5.086
41982W        W10200  40.829   8.889  13.517
41983W        W10201   1.047  23.531   4.902
41984W        W10202  39.813  29.920   1.395
41985W        W10203  36.121  40.359  13.344
41986W        W10204  16.329  27.764   3.245
41987W        W10205   5.248   2.962   3.684
41988W        W10206   3.789  20.616  11.478
41989W        W10207  41.739   6.901  12.006
41990W        W10208  19.106  22.679   1.820
41991W        W10209   4.223   9.140  12.641
41992W        W10210   5.918  43.342  11.140
41993W        W10211   3.899  31.168   2.305
41994W        W10212  23.336  35.972  13.906
41995W        W10213  33.528  10.845  12.457
41996W        W10214  22.036  31.933   0.547
41997W        W10215  11.113   6.381  10.641
41998W        W10216  32.340  32.623  11.088
41999W        W10217  30.192   8.360   1.507
42000W        W10218   7.841   9.743   2.806
42001W        W10219  10.400  19.714  12.957
42002W        W10220   7.228   9.966   1.675
42003W        W10221  30.032  41.397  13.408
42004W        W10222  44.996   1.222   3.334
42005W        W10223  41.503  40.759  10.765
42006W        W10224   7.058  26.086  12.490
42007W        W10225  20.786  18.301   1.323
42008W        W10226  13.461  38.349  13.932
42009W        W10227  23.173  36.824   2.302
42010W        W10228  17.740  43.693   1.899
42011W        W10229  16.467  15.450  11.027
42012W        W10230  25.107   0.871   4.039
42013W        W10231   3.484   1.989  12.096
42014W        W10232   5.408  15.227   0.004
42015W        W10233  15.728  19.158  14.540
42016W        W10234  37.757  33.346   0.840
42017W        W10235  13.894  29.482   2.758
42018W        W10236  29.017   3.968  14.456
42019W        W10237  12.679  17.006   0.342
42020W        W10238  12.978   9.943   1.722
42021W        W10239   8.364  33.000  11.173
42022W        W10240  42.811  20.069  14.994
42023W        W10241  18.659  33.457  12.564
42024W        W10242  18.180   9.325  11.674
42025W        W10243  17.680  18.416   1.374
42026W        W10244  44.447  17.551  10.424
42027W        W10245  15.353  14.600  11.183
42028W        W10246  11.854   9.956  12.104
42029W        W10247  38.826  28.042  13.811
42030W        W10248  18.078  44.957  14.983
42031W        W10249  40.422  21.706  13.527
42032W        W10250  38.828  18.094  12.447
42033W        W10251   4.473  32.071   3.611
42034W        W10252   5.632   5.212   2.769
42035W        W10253  17.640  36.075  13.536
42036W        W10254  21.039  24.815   1.373
42037W        W10255  23.945  40.243   3.727
42038W        W10256  43.470  11.187   1.962
42039W        W10257  15.696  13.717   1.179
42040W        W10258   7.209  23.026   2.656
42041W        W10259  14.373  17.620  10.341
42042W        W10260  18.852  22.520  13.143
42043W        W10261  28.883  13.686  12.961
42044W        W10262  11.056  19.972  11.390
42045W        W10263   3.402  14.391   2.846
42046W        W10264  25.097   6.652  12.027
42047W        W10265  26.589  31.144   0.174
42048W        W10266  38.596  18.985  10.702
42049W        W10267  12.023  12.774  11.254
42050W        W10268  30.023   5.448  13.879
42051W        W10269  19.186  13.888  13.573
42052W        W10270  30.956  40.818  10.814
42053W        W10271  21.607  19.574   2.718
42054W        W10272  22.981  27.129   0.958
42055W        W10273  29.790  41.996   4.741
42056W        W10274  43.512  17.653   1.225
42057W        W10275  24.945  22.119   4.228
42058W        W10276  43.538  16.221   2.262
42059W        W10277  41.216  32.653   2.665
42060W        W10278  41.534  31.449  12.846
42061W        W10279   6.705  24.792   1.793
42062W        W10280  20.311  31.399   5.454
42063W        W10281  25.674  31.216   4.717
42064W        W10282   9.532  26.910   3.237
42065W        W10283   7.279  40.539   4.498
42066W        W10284   2.204  10.136   4.222
42067W        W10285  11.112  38.550  12.888
42068W        W10286  43.890   7.158   2.826
42069W        W10287  11.235  26.482   1.723
42070W        W10288   8.755  31.868   3.301
42071W        W10289  36.809  14.777  12.413
42072W        W10290  42.472  26.517  12.405
42073W        W10291   0.482   1.849  14.571
42074W        W10292  15.164  42.474   1.861
42075W        W10293  19.763   5.763  14.254
42076W        W10294  10.370  29.354   0.793
42077W        W10295  20.693   7.423  11.970
42078W        W10296  39.234   0.450  13.366
42079W        W10297  36.916  14.709  10.739
42080W        W10298  13.418   3.833   0.986
42081W        W10299  28.944  18.867  11.934
42082W        W10300  44.325  10.170   0.079
42083W        W10301  32.719  42.843   3.728
42084W        W10302  35.649  22.542  14.310
42085W        W10303  31.817  16.759   2.158
42086W        W10304  32.660  27.049  11.539
42087W        W10305  28.351   4.856  11.059
42088W        W10306  41.531   9.831  14.831
42089W        W10307  41.410  16.856  13.980
42090W        W10308  37.112  22.943  11.022
42091W        W10309   7.344  13.436   3.174
42092W        W10310  44.301  38.977  12.937
42093W        W10311   1.455   4.344  14.730
42094W        W10312  41.923  41.915   2.867
42095W        W10313  30.630  21.562   2.393
42096W        W10314  40.912  26.598  12.621
42097W        W10315   4.125  12.298  12.662
42098W        W10316  11.312  41.474  13.482
42099W        W10317  19.542  34.272  12.908
42100W        W10318  12.299  24.954  12.474
42101W        W10319  19.081   3.891   0.391
42102W        W10320  32.052   3.424   3.044
42103W        W10321  25.066   4.224  13.080
42104W        W10322  11.282  22.288  10.658
42105W        W10323  18.284  40.171  13.849
42106W        W10324  13.366  44.911  13.533
42107W        W10325   3.431  28.368   0.525
42108W        W10326  44.763  27.479   0.329
42109W        W10327  13.055  43.660  14.975
42110W        W10328  37.464  22.500   0.587
42111W        W10329  24.193  32.175  13.339
42112W        W10330  32.392   4.157  14.937
42113W        W10331  42.794  19.116   2.415
42114W        W10332  22.246   3.558   2.841
42115W        W10333  42.525   1.118  14.918
42116W        W10334   7.178  10.363   1.356
42117W        W10335  14.338  33.382  10.450
42118W        W10336  19.739  17.367   3.740
42119W        W10337  36.531   1.851   0.058
42120W        W10338   0.718  36.911  11.790
42121W        W10339  35.332  28.115  11.079
42122W        W10340  29.121  23.473   4.548
42123W        W10341  28.621  24.240   3.591
42124W        W10342  11.708  32.069  10.015
42125W        W10343  39.881  14.615   1.335
42126W        W10344  12.317  12.375  13.122
42127W        W10345  42.931  40.539   5.004
42128W        W10346  12.386  41.904   4.039
42129W        W10347  38.632   1.490  12.183
42130W        W10348  25.577  34.861   1.786
42131W        W10349  36.168  15.980   3.316
42132W        W10350  19.504  36.849  10.422
42133W        W10351   9.513  30.052   4.880
42134W        W10352  39.363  11.333  11.441
42135W        W10353   0.742  43.984   0.699
42136W        W10354  42.539  11.878   2.437
42137W        W10355  31.608  18.654   4.577
42138W        W10356   1.349  27.539   4.569
42139W        W10357  43.442  20.486   0.791
42140W        W10358  15.106   2.642   0.389
42141W        W10359   7.322  38.652  13.512
42142W        W10360   2.031   3.273   1.584
42143W        W10361  20.798   4.282  12.637
42144W        W10362  27.047   4.668   1.728
42145W        W10363  34.506  36.602  14.113
42146W        W10364  36.436  18.293  14.893
42147W        W10365   3.253  36.502   1.914
42148W        W10366  35.660  26.649   0.373
42149W        W10367  22.123   4.158  12.914
42150W        W10368   8.718  21.157   1.506
42151W        W10369   5.901  27.118  12.892
42152W        W10370   5.818  38.342  14.747
42153W        W10371  31.390  39.549   4.513
42154W        W10372   5.749   0.391  12.273
42155W        W10373  29.091  17.157  12.472
42156W        W10374  36.929  15.649   0.056
42157W        W10375  31.350   3.869  10.688
42158W        W10376   3.928  16.593   2.260
42159W        W10377  12.902  25.494  12.995
42160W        W10378   8.915  32.333  11.547
42161W        W10379   9.735  20.643   3.695
42162W        W10380   8.886  36.950   1.321
42163W        W10381  43.945  24.817   3.765
42164W        W10382   0.960  42.087  12.969
42165W        W10383  13.974  29.703  10.637
42166W        W10384  10.761  14.440   2.785
42167W        W10385   6.987  19.671  12.330
42168W        W10386  33.807   8.263   1.849
42169W        W10387  29.663  44.128  14.007
42170W        W10388   5.393  17.087  14.979
42171W        W10389  34.946  14.681   1.793
42172W        W10390  12.145  40.545   0.940
42173W        W10391   5.925  24.952  11.200
42174W        W10392  10.347  13.714   1.285
42175W        W10393   2.282   6.895  10.823
42176W        W10394  29.099  34.345  12.276
42177W        W10395  38.132  20.723  14.800
42178W        W10396  40.768   4.948  10.590
42179W        W10397  15.463  44.895   1.676
42180W        W10398  41.983  11.662  10.686
42181W        W10399  18.857  24.292  13.523
42182W        W10400   4.313  24.670   4.680
42183W        W10401  18.475  24.120   4.745
42184W        W10402  17.365  10.239   1.805
42185W        W10403  30.866  33.631  13.063
42186W        W10404  27.135  38.300   4.751
42187W        W10405  30.084  38.095  13.779
42188W        W10406  40.277  35.743   0.288
42189W        W10407  10.705  28.932   3.731
42190W        W10408  14.554   9.049   1.979
42191W        W10409   9.602  10.014   4.831
42192W        W10410  21.933  36.461   3.445
42193W        W10411   8.811  44.008   1.035
42194W        W10412  29.189  11.090  11.156
42195W        W10413  40.479  35.962   3.780
42196W        W10414  15.551  20.194   1.841
42197W        W10415  22.060  43.080  10.714
42198W        W10416   0.725  43.580   3.168
42199W        W10417   1.030  19.262   2.916
42200W        W10418  18.246  35.583  12.959
42201W        W10419  36.821  43.547   2.198
42202W        W10420  39.518  31.129   1.145
42203W        W10421  10.336  10.204   4.169
42204W        W10422  44.302  28.227   0.861
42205W        W10423  14.549   2.916  12.811
42206W        W10424  20.006   4.217  11.084
42207W        W10425   7.930  40.023  14.266
42208W        W10426   2.683  42.021   1.712
42209W        W10427  32.518  17.277   2.756
42210W        W10428  13.839   1.191   0.070
42211W        W10429   2.773  44.410  13.369
42212W        W10430  33.239  39.445   0.811
42213W        W10431  22.514  31.487  14.958
42214W        W10432   3.519   3.966   3.245
42215W        W10433  41.041  20.989   0.010
42216W        W10434   1.699  19.752  13.889
42217W        W10435  32.451  40.036  12.061
42218W        W10436  38.848  21.488   2.770
42219W        W10437  15.836  40.919  10.405
42220W        W10438  14.012  19.446   1.279
42221W        W10439  29.605  15.262   0.199
42222W        W10440  13.343  25.083  11.646
42223W        W10441  30.645  14.796   3.159
42224W        W10442  11.716  26.174  12.416
42225W        W10443   4.254   4.377   0.347
42226W        W10444  27.622  11.222   4.183
42227W        W10445  37.397  27.181   0.821
42228W        W10446   2.217   4.673   1.258
42229W        W10447  27.668  22.046   4.127
42230W        W10448  22.717  20.922  13.461
42231W        W10449  42.947  22.846   4.656
42232W        W10450  42.288  43.176   1.768
42233W        W10451  43.380  32.826   1.337
42234W        W10452   7.175  17.713   3.119
42235W        W10453  37.215  40.324  12.643
42236W        W10454  10.504  42.862  12.141
42237W        W10455   9.342  30.465   2.215
42238W        W10456  12.306  35.900  14.515
42239W        W10457  43.592   8.555  13.984
42240W        W10458   7.849  39.403   3.179
42241W        W10459  15.142  15.017   4.163
42242W        W10460   8.993   7.628  11.631
42243W        W10461  18.047  30.542  12.298
42244W        W10462   9.363  20.539  13.020
42245W        W10463  34.335  44.214   1.368
42246W        W10464  43.289  30.165   2.070
42247W        W10465  10.770  13.481  12.835
42248W        W10466  22.243  27.491   4.458
42249W        W10467  37.094   6.128   1.773
42250W        W10468  35.099  44.990  11.965
42251W        W10469   7.752  40.089  11.423
42252W        W10470   2.942  11.724  12.973
42253W        W10471  31.082  35.138  13.069
42254W        W10472  21.752   2.302   3.297
42255W        W10473  26.999  19.010  12.660
42256W        W10474  24.572  32.383   0.286
42257W        W10475  34.979  10.129  13.314
42258W        W10476   5.633  10.906   2.744
42259W        W10477  18.782  16.044  12.141
42260W        W10478  23.479  28.676   0.468
42261W        W10479  17.844  24.435   0.752
42262W        W10480  27.450  43.039  13.154
42263W        W10481  33.975  21.244  14.709
42264W        W10482   7.332  38.647   1.854
42265W        W10483   8.716  20.966   2.847
42266W        W10484  17.708   7.233  12.061
42267W        W10485   8.755   0.309   4.493
42268W        W10486  34.070   2.163  13.381
42269W        W10487  42.569  38.361   1.234
42270W        W10488  10.122  24.170   0.994
42271W        W10489  20.964  16.401  14.942
42272W        W10490  44.451  30.927  14.269
42273W        W10491  26.876  43.236   1.676
42274W        W10492   8.382  15.191  14.852
42275W        W10493  41.753   3.972   3.411
42276W        W10494  35.346  27.067   2.329
42277W        W10495   4.157  17.263  13.483
42278W        W10496  12.561  30.110  14.282
42279W        W10497  43.415  39.849   1.844
42280W        W10498  44.455  10.694   4.374
42281W        W10499  16.924   5.153   3.685
42282W        W10500  21.540  22.756   3.665
42283W        W10501  20.633  29.241   1.721
42284W        W10502  16.225  19.298  14.799
42285W        W10503  44.560  34.921  14.063
42286W        W10504  24.795  19.219  14.589
42287W        W10505   5.285   4.811   3.044
42288W        W10506  25.665  39.494  12.523
42289W        W10507  10.372   7.932  12.085
42290W        W10508  17.200  19.505   1.809
42291W        W10509  12.104   4.762   4.649
42292W        W10510  14.413   9.991   2.693
42293W        W10511  39.647  18.782  12.390
42294W        W10512  16.832  13.963   0.587
42295W        W10513  18.871  44.870   0.920
42296W        W10514  42.005  31.668  12.874
42297W        W10515  42.915  23.553   2.092
42298W        W10516   4.589  21.125  11.990
42299W        W10517  15.907  15.657   1.408
42300W        W10518  17.075  12.833   0.926
42301W        W10519  20.971   0.378  10.722
42302W        W10520  13.183  37.600   1.803
42303W        W10521  23.320  13.796   1.930
42304W        W10522   1.192  30.820   1.752
42305W        W10523  26.710   4.791  11.833
42306W        W10524   6.205  30.727   4.755
42307W        W10525   0.912  20.335  12.905
42308W        W10526  44.238   7.033  10.649
42309W        W10527  39.763  38.817   2.742
42310W        W10528  30.524  22.774   2.464
42311W        W10529  14.057  28.289  14.456
42312W        W10530  38.737  26.671  13.490
42313W        W10531   4.204  14.534  12.069
42314W        W10532  22.044  33.897  14.314
42315W        W10533  15.385  12.275  11.627
42316W        W10534  32.931  43.025   0.531
42317W        W10535   1.131  23.082   1.801
42318W        W10536  11.424   6.809  10.588
42319W        W10537  16.796  13.175   3.840
42320W        W10538  10.872  13.824  10.700
42321W        W10539  37.596  44.854   0.718
42322W        W10540  28.687  35.558  12.446
42323W        W10541  14.097  40.013   4.772
42324W        W10542   1.520  16.864  11.035
42325W        W10543  37.510  29.979   4.259
42326W        W10544  27.695  10.777   3.916
42327W        W10545   0.065  38.855  10.771
42328W        W10546   1.476  14.100  14.720
42329W        W10547  16.856  11.882   2.440
42330W        W10548  39.509  17.552   1.962
42331W        W10549   7.969  19.953   5.477
42332W        W10550   8.502  16.568   2.798
42333W        W10551  19.716  11.387  10.715
42334W        W10552  15.010   8.996   2.601
42335W        W10553  17.542  33.609   0.882
42336W        W10554  40.842  20.106  12.910
42337W        W10555   0.239  11.734  10.701
42338W        W10556  12.141   3.832  12.538
42339W        W10557  25.930  17.384   4.609
42340W        W10558  12.889  40.283  11.682
42341W        W10559  29.623   2.709   2.194
42342W        W10560  27.968  37.788   0.817
42343W        W10561  40.354   6.822   1.214
42344W        W10562   4.938   4.151  11.147
42345W        W10563  30.691  13.704   1.621
42346W        W10564   7.849   3.017  14.832
42347W        W10565  19.942  40.271  10.677
42348W        W10566  40.467  37.619   1.022
42349W        W10567  18.626  16.017  11.665
42350W        W10568  16.630  39.300  14.412
42351W        W10569  44.223  43.783   0.807
42352W        W10570   9.659   9.353  13.598
42353W        W10571  39.451  26.924  13.787
42354W        W10572  38.513  44.775   1.094
42355W        W10573  21.655   4.321  12.510
42356W        W10574  29.877  24.621   4.528
42357W        W10575  28.940  42.365   4.523
42358W        W10576   0.281   0.899   2.775
42359W        W10577  15.142  25.075  13.350
42360W        W10578  33.923  28.360  11.011
42361W        W10579   6.906  42.870  13.430
42362W        W10580  39.183  35.524   5.087
42363W        W10581  41.527   7.199   3.982
42364W        W10582  14.071  13.725  12.371
42365W        W10583  11.797  13.756  14.844
42366W        W10584  16.283  34.875   2.184
42367W        W10585  40.034  19.215  14.376
42368W        W10586   6.254  20.484  14.096
42369W        W10587  34.342  39.919  10.552
42370W        W10588  20.274   8.122  13.509
42371W        W10589  16.211   3.468  14.431
42372W        W10590  14.728   0.012  14.836
42373W        W10591  20.355  21.888   2.824
42374W        W10592  19.072  28.482   1.630
42375W        W10593   9.872   4.286   0.442
42376W        W10594  40.433  27.183  10.888
42377W        W10595   9.162  28.116  13.544
42378W        W10596  34.459  25.220  11.454
42379W        W10597  36.909  37.923   2.636
42380W        W10598  31.503  22.514   4.911
42381W        W10599   2.306  16.770  14.670
42382W        W10600  41.303   2.560   0.754
42383W        W10601  29.692   0.113  10.775
42384W        W10602  35.640  30.305   2.540
42385W        W10603  28.937  22.897  11.645
42386W        W10604   2.011  14.650   4.519
42387W        W10605  19.623  30.978   2.832
42388W        W10606  25.908  18.586  11.963
42389W        W10607  31.008  14.426   2.801
42390W        W10608   4.775  33.329  13.067
42391W        W10609  25.551  16.059  12.848
42392W        W10610  24.821  43.831   1.912
42393W        W10611  23.428  34.865  10.740
42394W        W10612  20.246  24.929   0.251
42395W        W10613   4.169  29.627  12.389
42396W        W10614  12.753  39.580   3.881
42397W        W10615  29.095  37.896  13.141
42398W        W10616  35.848   8.911  14.420
42399W        W10617  31.104   8.394  11.687
42400W        W10618  26.984   6.408  14.866
42401W        W10619   0.334   6.382   2.334
42402W        W10620  34.902  44.992  14.271
42403W        W10621  37.811  32.378   4.157
42404W        W10622  27.470  44.569  11.202
42405W        W10623  17.712  41.054  11.289
42406W        W10624  28.516  41.288  13.947
42407W        W10625  28.145  40.320  11.170
42408W        W10626  23.920  37.117  14.476
42409W        W10627   3.820  14.653   2.727
42410W        W10628  36.858  35.399   1.844
42411W        W10629   8.718  20.577   2.443
42412W        W10630  36.643  40.430  13.394
42413W        W10631  31.785  14.023   4.445
42414W        W10632   9.339  31.126  11.249
42415W        W10633  16.802  22.165  10.380
42416W        W10634   6.325  25.771  11.214
42417W        W10635   4.920   3.937  13.938
42418W        W10636   4.372  41.009  14.349
42419W        W10637  28.966  23.163   1.342
42420W        W10638  19.185  12.846  13.554
42421W        W10639  12.045  32.183  10.987
42422W        W10640  36.656  23.671  10.887
42423W        W10641  34.689  16.205   0.435
42424W        W10642  19.302   2.343   3.677
42425W        W10643   3.119  31.697   2.220
42426W        W10644   4.605  18.542  12.969
42427W        W10645  12.415  20.660   3.231
42428W        W10646  29.939   5.621  12.995
42429W        W10647  21.615  16.090  12.526
42430W        W10648  10.109  34.556  12.183
42431W        W10649   1.377   4.497   1.241
42432W        W10650  44.764  23.756   3.838
42433W        W10651   5.907   6.162  13.440
42434W        W10652  16.359  14.770  11.178
42435W        W10653  37.412  15.218  11.485
42436W        W10654   9.240  42.569   0.524
42437W        W10655  21.493  19.515  11.191
42438W        W10656  37.791  17.611   1.875
42439W        W10657  37.115  43.872   1.422
42440W        W10658  10.309  32.821   3.633
42441W        W10659  37.965  30.699   3.705
42442W        W10660  15.138   2.238  11.045
42443W        W10661  28.368  25.239  14.308
42444W        W10662   8.159  14.373  11.637
42445W        W10663  35.855   0.176   2.208
42446W        W10664  21.635  14.403  14.466
42447W        W10665  25.122   7.691  13.526
42448W        W10666   2.213  26.588   4.316
42449W        W10667  12.604  15.866  12.932
42450W        W10668  30.135  39.057   3.288
42451W        W10669  30.863  38.969  10.990
42452W        W10670   4.050   8.414  14.326
42453W        W10671  28.728   2.832  12.485
42454W        W10672  42.813  11.680  12.151
42455W        W10673  33.561  38.424   0.912
42456W        W10674   4.331  34.560  12.382
42457W        W10675   0.728  24.292   2.785
42458W        W10676  10.284  42.689  14.508
42459W        W10677  39.254  28.952  11.893
42460W        W10678  32.328  13.831   0.562
42461W        W10679  10.179   4.351   2.708
42462W        W10680  28.411  10.058   3.656
42463W        W10681  19.137  12.681  14.532
42464W        W10682  37.007  21.060  13.463
42465W        W10683  23.761  37.200   3.202
42466W        W10684   0.509  25.479   2.294
42467W        W10685  17.298  37.451   4.100
42468W        W10686   0.896   8.283   0.777
42469W        W10687  24.282  40.018   4.595
42470W        W10688  26.725  41.554   0.033
42471W        W10689  26.005  32.567   3.436
42472W        W10690  30.157  14.132  12.072
42473W        W10691  28.642   4.814  10.599
42474W        W10692  41.937   4.105   5.604
42475W        W10693  39.466   0.842   0.171
42476W        W10694  44.573   2.293  11.189
42477W        W10695  30.308  26.551   4.965
42478W        W10696  28.207  23.553  12.449
42479W        W10697  26.070   0.350  10.954
42480W        W10698  37.566  13.381  12.349
42481W        W10699  28.438  27.067   4.036
42482W        W10700  24.183  40.439  14.845
42483W        W10701  32.485   6.232  11.579
42484W        W10702   2.290  27.093  13.801
42485W        W10703  42.836  23.847  10.770
42486W        W10704  18.012  38.600  11.089
42487W        W10705   6.701  26.980  10.897
42488W        W10706  10.788   2.816   1.613
42489W        W10707  37.055  40.615   4.918
42490W        W10708  11.334  36.885  13.350
42491W        W10709  39.428  22.292  12.997
42492W        W10710  34.066   8.462   2.269
42493W        W10711  22.883  28.960  13.043
42494W        W10712  41.214  36.256   0.335
42495W        W10713  19.682  42.332  11.140
42496W        W10714  35.195  28.191   3.145
42497W        W10715   2.175  34.806  11.946
42498W        W10716   2.239  23.030   1.020
42499W        W10717  17.822  30.306   4.491
42500W        W10718   2.935  25.945   1.353
42501W        W10719  41.833  19.250  10.315
42502W        W10720  15.799  18.149   0.295
42503W        W10721  34.661  21.599   3.187
42504W        W10722  43.430  38.773   0.642
42505W        W10723  27.089  25.036   0.432
42506W        W10724   5.920  13.682  13.800
42507W        W10725   4.919  38.603   3.806
42508W        W10726  11.647  22.529  12.367
42509W        W10727  19.018  22.487   3.769
42510W        W10728  15.660  24.270  12.271
42511W        W10729  29.544  21.742   0.689
42512W        W10730  30.841  17.494   1.353
42513W        W10731   5.808  13.184   3.331
42514W        W10732  20.021  39.652  14.896
42515W        W10733  18.637   3.704   2.592
42516W        W10734  22.697  38.825   2.932
42517W        W10735  36.639   2.283   3.550
42518W        W10736  28.883  25.732  12.109
42519W        W10737  36.003  16.538  12.433
42520W        W10738  24.027   5.382  11.674
42521W        W10739  34.586  35.002   1.708
42522W        W10740  26.070  15.954   3.061
42523W        W10741  33.181  31.032  13.111
42524W        W10742  10.508   3.455   4.185
42525W        W10743  39.341   5.971   4.190
42526W        W10744  38.134  20.088   3.414
42527W        W10745  10.420  17.647  11.970
42528W        W10746  16.685   4.219  14.196
42529W        W10747  10.507  31.111  12.378
42530W        W10748  31.836  19.127  12.813
42531W        W10749  35.420  18.206  13.386
42532W        W10750  11.610  14.750  14.542
42533W        W10751  35.331  32.438   2.266
42534W        W10752   9.702  13.739  11.952
42535W        W10753  16.042  13.725   0.785
42536W        W10754  27.047  17.277  10.668
42537W        W10755   8.482  14.295  10.716
42538W        W10756  26.167   6.912   4.706
42539W        W10757  15.371   2.053   2.858
42540W        W10758  43.220  33.545  12.904
42541W        W10759  16.222  21.732   4.289
42542W        W10760  23.524  13.521  10.741
42543W        W10761  40.021  27.553   2.363
42544W        W10762  18.699  31.595  11.123
42545W        W10763  14.543   2.848  10.635
42546W        W10764  25.099  10.767  11.996
42547W        W10765  21.358  24.372  13.651
42548W        W10766  23.576  29.655  10.681
42549W        W10767  38.469   2.956   0.225
42550W        W10768  20.277   3.221   2.653
42551W        W10769  16.972  39.239   4.784
42552W        W10770  37.713  21.524   4.797
42553W        W10771  28.092   8.729  12.782
42554W        W10772  19.786  38.491   0.803
42555W        W10773  16.563  19.463  14.364
42556W        W10774  14.909   0.530  11.622
42557W        W10775  11.382  26.834  12.610
42558W        W10776  36.683  16.027   3.349
42559W        W10777   0.200  10.161  14.033
42560W        W10778  17.797  33.919  10.637
42561W        W10779  30.407  32.309  12.044
42562W        W10780  23.635   0.530  11.875
42563W        W10781  28.207  40.401   3.194
42564W        W10782  19.474   0.238   4.071
42565W        W10783  31.046   8.414   1.208
42566W        W10784  40.326  40.414   3.238
42567W        W10785  29.997  14.032  11.600
42568W        W10786  36.215   9.297  14.527
42569W        W10787  16.683  43.503  13.459
42570W        W10788  20.544  20.977  12.987
42571W        W10789  26.365  38.814   1.701
42572W        W10790  16.906  36.825  12.109
42573W        W10791  36.285  44.993  14.304
42574W        W10792  23.774  41.239   0.079
42575W        W10793  28.602  25.565   2.307
42576W        W10794  16.784  23.457  12.622
42577W        W10795  29.558  16.115  14.227
42578W        W10796   2.356  36.573  11.005
42579W        W10797  42.892  24.425  11.435
42580W        W10798   8.191   2.895   2.458
42581W        W10799  32.943  35.348   1.438
42582W        W10800   1.806  27.413  12.898
42583W        W10801  38.814  21.731   3.717
42584W        W10802  25.706  26.175   0.929
42585W        W10803  42.476  14.232   0.868
42586W        W10804  24.388  32.209   2.596
42587W        W10805  22.540  12.135   2.411
42588W        W10806  31.202   1.195  13.498
42589W        W10807  15.550  18.452  11.555
42590W        W10808  31.504  32.398  11.513
42591W        W10809   3.468   7.035   4.111
42592W        W10810  33.071  11.761   3.646
42593W        W10811  31.067  42.235   4.144
42594W        W10812   4.458   5.723   1.414
42595W        W10813  22.994   0.955  11.215
42596W        W10814  23.650  44.935  12.224
42597W        W10815  26.185  25.942  12.522
42598W        W10816  39.383  37.319   4.284
42599W        W10817  32.415  15.741  13.431
42600W        W10818  19.707  21.957  12.648
42601W        W10819  11.892  34.801  14.329
42602W        W10820  24.113  28.562   2.773
42603W        W10821  23.738  22.124   3.692
42604W        W10822  29.440  43.940  11.087
42605W        W10823  24.930  25.472  10.791
42606W        W10824  20.035  43.667  14.069
42607W        W10825  23.149  30.610  12.641
42608W        W10826  22.802  23.410  13.403
42609W        W10827   0.250  23.644  11.410
42610W        W10828  31.873  31.039  12.536
42611W        W10829  25.584   8.913   3.349
42612W        W10830   1.230  17.107   1.767
42613W        W10831  27.584  14.750  12.542
42614W        W10832  34.985  21.746   0.712
42615W        W10833  36.148  37.844  13.913
42616W        W10834  42.986  17.232   0.858
42617W        W10835  12.831  37.908   1.537
42618W        W10836  29.685   5.901  12.614
42619W        W10837  39.897  24.077  11.435
42620W        W10838  36.368  23.467  12.862
42621W        W10839  18.563  16.106  14.457
42622W        W10840  23.753  29.615   0.359
42623W        W10841  21.199   6.383  13.111
42624W        W10842  30.275   2.736  10.970
42625W        W10843  43.511  28.461   4.774
42626W        W10844  24.101  21.504  14.369
42627W        W10845  19.795  18.047  13.928
42628W        W10846  44.455  24.282  11.955
42629W        W10847  24.009  17.261  12.574
42630W        W10848  19.209  10.867  14.887
42631W        W10849  12.662  13.263  11.359
42632W        W10850   0.482  12.163  10.940
42633W        W10851  23.844  27.594  12.112
42634W        W10852  44.973  20.985   3.001
42635W        W10853   5.240  14.230   2.742
42636W        W10854  27.496  14.654   3.450
42637W        W10855  25.724   7.925  11.996
42638W        W10856  22.403  12.102   3.752
42639W        W10857  35.348  12.638  13.833
42640W        W10858   2.817  12.679  14.903
42641W        W10859  14.043  20.949   2.654
42642W        W10860  30.551   9.256   3.762
42643W        W10861  15.165  42.047  10.072
42644W        W10862  41.529  11.933  13.722
42645W        W10863   3.828  21.080   4.358
42646W        W10864  19.790   5.714  12.305
42647W        W10865  16.231  30.850  11.914
42648W        W10866   3.459  34.419   2.771
42649W        W10867  12.820  34.388  11.076
42650W        W10868  16.147  32.828   0.928
42651W        W10869  15.231  19.702  13.330
42652W        W10870  34.613  19.644  13.305
42653W        W10871  37.383  24.443   0.016
42654W        W10872  44.894  12.739   4.225
42655W        W10873  35.933   7.292   1.468
42656W        W10874  26.637   9.106   1.891
42657W        W10875  23.197  44.211  14.834
42658W        W10876   8.911  17.826   0.654
42659W        W10877   6.630  19.347   4.539
42660W        W10878  14.976  31.442   4.166
42661W        W10879  42.362  38.655   1.627
42662W        W10880  24.109   7.824   3.557
42663W        W10881   7.202  38.314   2.242
42664W        W10882  37.003  32.089   3.203
42665W        W10883  30.510  27.601  10.238
42666W        W10884  12.747   9.978   4.185
42667W        W10885  27.328   0.219  10.682
42668W        W10886  35.282   9.676   0.291
42669W        W10887  16.760  14.274  14.346
42670W        W10888  17.386  16.726  14.289
42671W        W10889  30.075  44.840   2.331
42672W        W10890   7.911  20.128  11.496
42673W        W10891  33.475  32.090   1.278
42674W        W10892   0.324  31.303  12.084
42675W        W10893  19.484  15.374  13.318
42676W        W10894  41.638  23.485   1.386
42677W        W10895  20.576  15.583   2.275
42678W        W10896  26.978  31.543  12.834
42679W        W10897  26.494  24.486   4.987
42680W        W10898  16.827  33.714   0.147
42681W        W10899   8.068   9.275   2.822
42682W        W10900  27.219  30.961  14.562
42683W        W10901  39.530  38.988   4.341
42684W        W10902  40.362  37.790  13.609
42685W        W10903  14.142  12.890  14.720
42686W        W10904   9.295   8.112  14.373
42687W        W10905  19.082  25.637  14.490
42688W        W10906  28.651  33.412  14.317
42689W        W10907   8.133  41.435  14.317
42690W        W10908  12.558  36.868   0.377
42691W        W10909  33.843   4.053  12.558
42692W        W10910   5.006   8.159   3.703
42693W        W10911   7.328  37.032   0.861
42694W        W10912  22.013  41.267   2.739
42695W        W10913  40.531  37.001  14.645
42696W        W10914  30.421  14.461   5.000
42697W        W10915  31.423  16.549  14.343
42698W        W10916  37.416  30.609  14.832
42699W        W10917   4.352  40.007  11.585
42700W        W10918  19.532  16.414  12.572
42701W        W10919  27.269  19.269   3.641
42702W        W10920  11.127   9.205   0.048
42703W        W10921  29.842   0.501   1.389
42704W        W10922   7.391   4.855   4.340
42705W        W10923  41.429  33.038   2.910
42706W        W10924  38.881   0.617   3.473
42707W        W10925   5.448  31.221  11.199
42708W        W10926  32.316   2.989  10.256
42709W        W10927  19.621  33.074   1.551
42710W        W10928  34.849  22.993  14.868
42711W        W10929  42.355   3.075  11.585
42712W        W10930  15.151  42.990   4.453
42713W        W10931  38.405   8.358  13.302
42714W        W10932   5.124  16.154   2.382
42715W        W10933  33.739  15.107  13.683
42716W        W10934   2.959  15.171   2.890
42717W        W10935   2.746   9.302   2.658
42718W        W10936  37.465   7.092  14.566
42719W        W10937  22.984   5.762  14.736
42720W        W10938  35.130   7.404  14.670
42721W        W10939   3.962  41.791   3.800
42722W        W10940  13.533  10.766   3.078
42723W        W10941  12.141  21.062  10.704
42724W        W10942  11.889  34.858  11.243
42725W        W10943  29.060   5.257   0.322
42726W        W10944  33.504   3.887   2.340
42727W        W10945  27.513  14.384  11.513
42728W        W10946  29.219   1.476  12.988
42729W        W10947  21.143  40.229   0.327
42730W        W10948   2.331  16.117   1.737
42731W        W10949  13.163  41.222   3.197
42732W        W10950  20.984  14.266  13.684
42733W        W10951  40.261   7.798  14.827
42734W        W10952  12.946  32.142   9.842
42735W        W10953  32.588  22.815   4.346
42736W        W10954  10.896  29.293  10.661
42737W        W10955  29.975   0.024  12.625
42738W        W10956  28.864  38.762  11.132
42739W        W10957   4.988  21.069  11.645
42740W        W10958  30.129  20.909  13.457
42741W        W10959  11.395  43.417   2.329
42742W        W10960  38.363  13.317   3.329
42743W        W10961  30.357  24.632  14.383
42744W        W10962  31.482  16.532   3.173
42745W        W10963  44.224  36.419   0.214
42746W        W10964   4.715   8.590   1.416
42747W        W10965  31.150  31.850  13.312
42748W        W10966  28.978   8.711  12.849
42749W        W10967  25.254   7.735  12.088
42750W        W10968  10.703  19.698   4.501
42751W        W10969  19.842   8.890  13.580
42752W        W10970   3.009  27.356   2.157
42753W        W10971  22.522  37.054   4.249
42754W        W10972  13.833  44.310   0.661
42755W        W10973  24.052  19.749  10.597
42756W        W10974  32.631  17.175  12.335
42757W        W10975  26.909  17.803  10.550
42758W        W10976  34.426  24.054   4.653
42759W        W10977  30.418   1.300  14.888
42760W        W10978  31.445  42.753   2.127
42761W        W10979  39.891   3.484  14.743
42762W        W10980   3.398  44.237   2.962
42763W        W10981   8.760  37.049   4.803
42764W        W10982  41.269  32.173   2.893
42765W        W10983  24.698   3.368  11.176
42766W        W10984  16.177  15.526   0.955
42767W        W10985  16.868  10.150   2.705
42768W        W10986  18.243  28.990   4.534
42769W        W10987  16.718  17.321  12.060
42770W        W10988  32.960  33.867   2.049
42771W        W10989  19.009  14.794  12.458
42772W        W10990   8.869   5.968   2.702
42773W        W10991   6.655  22.739   0.885
42774W        W10992   2.946  27.065   0.425
42775W        W10993  39.798  12.418   1.796
42776W        W10994  24.315  35.216   0.347
42777W        W10995  15.349  20.525   3.660
42778W        W10996  29.430  43.295  14.372
42779W        W10997  31.129  39.389   3.777
42780W        W10998  37.816  31.353   4.249
42781W        W10999  13.888  38.115   1.533
42782W        W11000  32.417  35.408   3.099
42783W        W11001  33.584  34.064   2.394
42784W        W11002  40.857   4.250   2.348
42785W        W11003  10.125  20.793   2.676
42786W        W11004  27.062   6.252  14.380
42787W        W11005  40.474  13.279   1.897
42788W        W11006  26.556   4.830   2.496
42789W        W11007   5.623  18.102  10.995
42790W        W11008  14.864   0.242  12.090
42791W        W11009  38.893   3.620   4.479
42792W        W11010  22.198  44.208   4.994
42793W        W11011  17.357   4.174  12.548
42794W        W11012  41.973   4.702   4.638
42795W        W11013  21.213  12.766  12.401
42796W        W11014   5.724  35.428  11.571
42797W        W11015   7.396  43.324  14.450
42798W        W11016  35.114   0.698  13.990
42799W        W11017  15.581  10.407  14.428
42800W        W11018   2.682  12.872   4.917
42801W        W11019  41.038  20.540  11.876
42802W        W11020  38.855  13.354   4.193
42803W        W11021  40.285  29.904   1.161
42804W        W11022  13.535  12.048   2.312
42805W        W11023  29.933  10.925  13.665
42806W        W11024  35.999  23.639   3.755
42807W        W11025   3.195   2.945   1.228
42808W        W11026  19.078  40.859  11.016
42809W        W11027  28.756  35.932  13.969
42810W        W11028   8.305  44.395   4.707
42811W        W11029  23.222  30.644   3.836
42812W        W11030  44.317   1.306  12.677
42813W        W11031  41.548  12.014  13.214
42814W        W11032   2.881  27.327  14.045
42815W        W11033  43.809  28.456  12.369
42816W        W11034  29.609  23.094  12.006
42817W        W11035   8.485  12.799  13.246
42818W        W11036   3.678  37.950   2.848
42819W        W11037  41.955  22.034   3.170
42820W        W11038  25.545   6.653   2.216
42821W        W11039  43.810   3.562   3.515
42822W        W11040  37.049  44.658   3.367
42823W        W11041  24.176   1.192  13.890
42824W        W11042   0.060  18.703  13.889
42825W        W11043   6.775   9.264   1.423
42826W        W11044  24.702  17.674   1.465
42827W        W11045  20.067   4.192   2.649
42828W        W11046  14.804  35.385  13.798
42829W        W11047  40.110  35.875   3.393
42830W        W11048  25.432  12.883  12.660
42831W        W11049  21.985  17.764   2.083
42832W        W11050  10.726  13.540   2.213
42833W        W11051  15.283  26.113  10.350
42834W        W11052  31.980   5.080  12.989
42835W        W11053  40.690  20.037   3.653
42836W        W11054  31.663  17.304  14.503
42837W        W11055  26.591  20.102  10.779
42838W        W11056  44.962  24.908  12.881
42839W        W11057  18.513  20.689   3.130
42840W        W11058  35.483  41.955  11.056
42841W        W11059  41.670   0.860  14.516
42842W        W11060  17.072   2.712  14.331
42843W        W11061  34.859   9.378   0.732
42844W        W11062  13.636  42.807  12.477
42845W        W11063  44.577  10.687  11.538
42846W        W11064  14.638   6.861   1.404
42847W        W11065  31.754  24.487   3.262
42848W        W11066   8.920  12.219  12.391
42849W        W11067  35.800  29.588  14.466
42850W        W11068  37.811  33.618   3.543
42851W        W11069  26.113  34.497  11.832
42852W        W11070  21.076  37.208   2.688
42853W        W11071  26.157  35.577  10.578
42854W        W11072  35.076  25.693  10.747
42855W        W11073  39.822  38.895  13.965
42856W        W11074  15.218  44.873  12.846
42857W        W11075   0.360  33.141  13.717
42858W        W11076  23.551  21.729  13.584
42859W        W11077  10.042  40.758  10.960
42860W        W11078   8.259  37.485   4.063
42861W        W11079  33.900  20.830  10.380
42862W        W11080  15.055  40.355   0.504
42863W        W11081   0.256   7.937  11.949
42864W        W11082  17.520  25.460   4.266
42865W        W11083  22.055  27.784  13.317
42866W        W11084  28.952   2.172   5.082
42867W        W11085  15.638   6.411   4.085
42868W        W11086  44.472  38.134   3.661
42869W        W11087  15.361  34.834  13.380
42870W        W11088  17.074   5.449   0.651
42871W        W11089   8.210  30.510  12.623
42872W        W11090   2.409  43.916  12.559
42873W        W11091  22.330  35.036  11.554
42874W        W11092  37.875  42.002  10.799
42875W        W11093  13.070  13.408   4.258
42876W        W11094  13.257   8.925   0.056
42877W        W11095  16.098  16.168   1.654
42878W        W11096  24.097  33.268  10.917
42879W        W11097  10.825  24.668  14.830
42880W        W11098   5.910  11.250  11.912
42881W        W11099  12.989  12.778   1.732
42882W        W11100  20.646  44.913   0.874
42883W        W11101  33.317  37.942   1.788
42884W        W11102  11.281  21.410   1.779
42885W        W11103   7.363   9.219   1.384
42886W        W11104  36.979  25.684   3.638
42887W        W11105  20.310   9.602  10.919
42888W        W11106  43.940  27.029   2.623
42889W        W11107   0.799  38.055   3.346
42890W        W11108  20.771  25.152  11.595
42891W        W11109  16.275  32.718   3.220
42892W        W11110  14.243  18.618   0.724
42893W        W11111  35.682  14.153  14.327
42894W        W11112  29.166  14.482  14.117
42895W        W11113  10.458  39.071   4.190
42896W        W11114  43.985  23.236  11.327
42897W        W11115   0.888   5.699   4.799
42898W        W11116  31.468  36.967   4.700
42899W        W11117  22.784  16.318   1.837
42900W        W11118   0.689  28.922   2.613
42901W        W11119  10.118  20.151  11.141
42902W        W11120  40.405  24.303  10.684
42903W        W11121   3.499  27.481  14.017
42904W        W11122  31.638  27.222   4.011
42905W        W11123  43.240   1.858   3.392
42906W        W11124  25.086  43.732  11.962
42907W        W11125  29.703  35.477  10.709
42908W        W11126   0.584  32.603  12.152
42909W        W11127  20.769   4.263   0.430
42910W        W11128  33.065  21.071  12.885
42911W        W11129   8.552  40.793   2.682
42912W        W11130   8.623  40.157  12.039
42913W        W11131  41.943  38.127   3.065
42914W        W11132  18.178  32.382  10.570
42915W        W11133  29.711   7.411  12.965
42916W        W11134   9.196  14.211  11.598
42917W        W11135  22.982  36.439   0.397
42918W        W11136  22.562  23.622   1.323
42919W        W11137  33.379  31.830   3.250
42920W        W11138   8.891   0.183  11.651
42921W        W11139  16.429  43.022   3.627
42922W        W11140  40.331  32.962  11.939
42923W        W11141  40.743  25.702   0.847
42924W        W11142   7.800  39.168  12.052
42925W        W11143   9.234  37.695   1.514
42926W        W11144  16.040   4.933  10.531
42927W        W11145  10.305  44.788   1.171
42928W        W11146   4.100  38.768   1.874
42929W        W11147   1.816  28.400   3.305
42930W        W11148   4.406  35.109  11.065
42931W        W11149   7.385  10.782  13.478
42932W        W11150  23.128   9.747   3.192
42933W        W11151  11.277  18.144   4.209
42934W        W11152  17.037  29.674   0.686
42935W        W11153  41.805  43.730   1.342
42936W        W11154  19.833  33.426   3.424
42937W        W11155  25.596   9.659  11.499
42938W        W11156  44.835  26.380  12.549
42939W        W11157  17.147  32.864  14.336
42940W        W11158  33.684  10.556  10.118
42941W        W11159  22.696   7.385   1.041
42942W        W11160  43.234  38.409  11.755
42943W        W11161   8.684  28.399   0.273
42944W        W11162  16.049  40.923  13.965
42945W        W11163  18.325  23.733   1.708
42946W        W11164   4.639  33.865  10.535
42947W        W11165   5.846  40.152  10.273
42948W        W11166  44.324  10.285   3.104
42949W        W11167  15.001  37.503   2.227
42950W        W11168  19.262  13.831  12.538
42951W        W11169   7.623  14.208   0.474
42952W        W11170  19.593  14.653  13.809
42953W        W11171  19.035  29.412   2.579
42954W        W11172  18.668  24.672   1.114
42955W        W11173   6.886  44.933   1.781
42956W        W11174  40.976   9.398   0.306
42957W        W11175  20.306  39.981  12.430
42958W        W11176  12.528  35.470   3.212
42959W        W11177  20.421  37.260  14.961
42960W        W11178  35.039  12.498  12.119
42961W        W11179   8.596   3.051  11.497
42962W        W11180  44.456  28.493  12.944
42963W        W11181  26.807  39.919  12.101
42964W        W11182  16.574  24.668   1.937
42965W        W11183   6.220  28.674  13.878
42966W        W11184   2.443  40.561   4.220
42967W        W11185  40.378  17.780  13.286
42968W        W11186  23.921  26.266   4.204
42969W        W11187  28.428  22.061   1.745
42970W        W11188  19.840  39.645  14.399
42971W        W11189  25.790  17.343  14.017
42972W        W11190  43.389  35.432  12.282
42973W        W11191  32.794   4.018  14.348
42974W        W11192  16.609  28.057  11.359
42975W        W11193  17.624   8.370  13.402
42976W        W11194  31.357   8.156  14.931
42977W        W11195  26.157   7.254   1.852
42978W        W11196  33.334  25.971   0.023
42979W        W11197  39.010   4.386  14.379
42980W        W11198  16.164  37.052   2.245
42981W        W11199  35.904   6.751   1.738
42982W        W11200  31.332  17.649  14.980
42983W        W11201   3.375  35.503   1.492
42984W        W11202  29.826   5.701   3.069
42985W        W11203  38.940   4.898  10.021
42986W        W11204  36.355  27.474   0.295
42987W        W11205  24.370  10.557  13.353
42988W        W11206  19.987  32.358   3.770
42989W        W11207  26.635  33.520  13.533
42990W        W11208   5.249   0.271   4.951
42991W        W11209  32.042   8.741   1.951
42992W        W11210  24.444  21.088   4.568
42993W        W11211  24.912  38.714  13.892
42994W        W11212  28.536  29.138   0.136
42995W        W11213  20.233   7.363  14.516
42996W        W11214  39.285  44.089  13.563
42997W        W11215  19.079  31.999   4.712
42998W        W11216  43.424  41.538  14.948
42999W        W11217  12.671  16.228  14.019
43000W        W11218  39.434  37.049  13.759
43001W        W11219   4.656  25.020  10.429
43002W        W11220  24.477  14.738  11.818
43003W        W11221  31.720   4.001  12.659
43004W        W11222  19.502   1.441  12.109
43005W        W11223  44.317  43.083  10.575
43006W        W11224  33.117   1.759   1.875
43007W        W11225  29.964  14.787   4.292
43008W        W11226  36.840  16.196  13.327
43009W        W11227   8.426  41.288   3.705
43010W        W11228  16.847   3.501  11.167
43011W        W11229  26.960  26.612   3.589
43012W        W11230  17.520   5.803   4.559
43013W        W11231  18.729  12.097  11.495
43014W        W11232   6.099  17.368   2.553
43015W        W11233   5.396   1.697  13.484
43016W        W11234   4.713  36.714  14.370
43017W        W11235  22.190  25.610   2.873
43018W        W11236  35.357   3.011   2.021
43019W        W11237  36.080  32.074   3.880
43020W        W11238  36.180  23.537   4.731
43021W        W11239  34.395  19.158  13.313
43022W        W11240  23.797  33.067   1.814
43023W        W11241  43.097   3.690  11.061
43024W        W11242  34.414  21.073   0.433
43025W        W11243   5.679  28.644   3.198
43026W        W11244  31.888  27.116   1.889
43027W        W11245   7.648  15.464   3.684
43028W        W11246  39.942  18.586  13.150
43029W        W11247  10.985  25.603   3.342
43030W        W11248   3.226  28.168  12.177
43031W        W11249  40.633  36.947  12.529
43032W        W11250  40.778   8.763   1.861
43033W        W11251  30.450  24.467   2.399
43034W        W11252  42.383  11.164  12.500
43035W        W11253  42.282  22.692  11.358
43036W        W11254   7.835  38.512   3.276
43037W        W11255  31.819  26.041   0.242
43038W        W11256   5.197  43.964   1.847
43039W        W11257  23.517   0.292   0.767
43040W        W11258  22.732  42.405   3.707
43041W        W11259   5.173   5.251  14.004
43042W        W11260  22.621  35.452   2.423
43043W        W11261  24.007   4.764  13.820
43044W        W11262  21.227  36.716   9.979
43045W        W11263  27.795   6.822   0.562
43046W        W11264  35.586  22.766   2.739
43047W        W11265  12.685   5.401  13.114
43048W        W11266  33.481  28.103  10.407
43049W        W11267  12.464  44.772  12.208
43050W        W11268  22.614  11.717  14.732
43051W        W11269  23.120  22.291  14.417
43052W        W11270  42.854  22.625  13.185
43053W        W11271  21.589   0.994  14.912
43054W        W11272   5.257  11.050   4.537
43055W        W11273  32.827   5.963   3.171
43056W        W11274   4.220   8.854  14.054
43057W        W11275  38.268  16.117  11.119
43058W        W11276  35.257   3.519   9.881
43059W        W11277  30.059  13.530  10.716
43060W        W11278   2.251  43.718  14.892
43061W        W11279  28.226  14.201   4.491
43062W        W11280   1.904   0.035   4.286
43063W        W11281  17.374  23.788   1.788
43064W        W11282   3.988  27.642  12.241
43065W        W11283  19.947  32.426  11.070
43066W        W11284  12.764  14.685  11.517
43067W        W11285  37.554   6.838  14.003
43068W        W11286   4.458   8.590  13.538
43069W        W11287  25.588  33.165   2.771
43070W        W11288  41.357   6.279   1.537
43071W        W11289  42.281  29.559   2.838
43072W        W11290  11.181  17.234   1.697
43073W        W11291  23.503  14.075   4.105
43074W        W11292  31.828   5.493  14.741
43075W        W11293  11.136  25.863  11.512
43076W        W11294   9.705   7.943   3.125
43077W        W11295  40.571  39.906   4.185
43078W        W11296   8.001  10.691   4.634
43079W        W11297  11.758  10.346   0.733
43080W        W11298  21.795  40.825   4.518
43081W        W11299  35.778   0.809  13.131
43082W        W11300  39.973  26.463   1.228
43083W        W11301  14.663   6.103  11.152
43084W        W11302   5.023  10.972  11.000
43085W        W11303  26.412  30.641  12.924
43086W        W11304  20.611   0.958  10.897
43087W        W11305   5.263   8.897   2.393
43088W        W11306  25.749  21.983   4.037
43089W        W11307  24.261  32.644  14.464
43090W        W11308  42.559  23.138  13.978
43091W        W11309  33.485  36.334  12.653
43092W        W11310   3.290  14.630   1.787
43093W        W11311  29.455  26.358   2.438
43094W        W11312  20.361  16.661  11.608
43095W        W11313  36.532  12.867  11.193
43096W        W11314  37.879  30.360  12.130
43097W        W11315  10.690  28.663   4.194
43098W        W11316   4.932  14.746  14.277
43099W        W11317  32.594  12.596  14.068
43100W        W11318  22.560  26.723   3.312
43101W        W11319  27.719  21.143   0.942
43102W        W11320  13.350   6.858  14.398
43103W        W11321  42.498  44.380   2.411
43104W        W11322  13.109  43.310   2.847
43105W        W11323  33.738   3.046   0.388
43106W        W11324  30.421  16.626   4.539
43107W        W11325  27.049   8.442   4.161
43108W        W11326  24.313   2.924   3.934
43109W        W11327  37.964  40.859  14.286
43110W        W11328  15.624   2.251   3.281
43111W        W11329  40.957   4.388   3.924
43112W        W11330  33.570  39.636  14.486
43113W        W11331  41.772   0.879  10.367
43114W        W11332  18.053  25.145   2.816
43115W        W11333  22.740  14.650   1.757
43116W        W11334  11.343   7.666   3.251
43117W        W11335  39.604  10.278  10.683
43118W        W11336  33.955  19.780  12.102
43119W        W11337  20.084  42.711  12.506
43120W        W11338  19.101  29.553  10.662
43121W        W11339   1.494   7.580   4.533
43122W        W11340   1.426  20.061   4.075
43123W        W11341  38.812   8.085   3.673
43124W        W11342  19.301  40.817   1.456
43125W        W11343   7.949  26.468  13.776
43126W        W11344  38.391   1.921  10.921
43127W        W11345  30.877  38.833   1.873
43128W        W11346  43.535   5.815  12.611
43129W        W11347  37.613  11.430   2.545
43130W        W11348  31.667  30.555  12.516
43131W        W11349  24.993  32.618  13.047
43132W        W11350  22.811  33.937   1.847
43133W        W11351   1.726   4.170  11.623
43134W        W11352  32.640  22.572   0.266
43135W        W11353  34.554  23.048   1.776
43136W        W11354   7.499  14.400   3.142
43137W        W11355  33.994   0.939  12.954
43138W        W11356  25.259   9.152  12.573
43139W        W11357   7.925  12.096   4.701
43140W        W11358   2.151  33.449  14.956
43141W        W11359  28.243   3.961   2.014
43142W        W11360  10.985  19.355  12.651
43143W        W11361  38.784  39.166  12.883
43144W        W11362   2.548  34.049  12.403
43145W        W11363  23.495  10.897   4.077
43146W        W11364  15.591  17.789  12.418
43147W        W11365  10.456  19.336   3.723
43148W        W11366  35.991  38.264   4.192
43149W        W11367  23.924  26.779   4.128
43150W        W11368  44.858  38.913  13.386
43151W        W11369   8.584  21.600  10.739
43152W        W11370   0.461  12.749  12.047
43153W        W11371  26.097  39.485  11.228
43154W        W11372  32.134  21.548  14.882
43155W        W11373   5.364  15.074  11.738
43156W        W11374  38.859  38.591  14.883
43157W        W11375   3.222  35.928  13.809
43158W        W11376   8.460  39.782   0.906
43159W        W11377   2.825  34.673   1.185
43160W        W11378  20.696   4.909  11.614
43161W        W11379  29.706  42.980  11.894
43162W        W11380  44.360  20.788  14.988
43163W        W11381  13.901  28.262  11.727
43164W        W11382  16.886  28.110   0.179
43165W        W11383  36.710  28.640   4.507
43166W        W11384  16.153  42.005  13.038
43167W        W11385  33.477  29.219  12.822
43168W        W11386  28.666   2.897  13.515
43169W        W11387  35.596  11.614  12.907
43170W        W11388  13.027  21.951   0.840
43171W        W11389   2.230  29.388   4.069
43172W        W11390  42.431  42.735  12.070
43173W        W11391   2.799   7.656   2.217
43174W        W11392  11.167  38.051  12.121
43175W        W11393   8.413   2.706   3.845
43176W        W11394  18.743  18.601   2.167
43177W        W11395  35.664  26.646  12.573
43178W        W11396   7.403  33.112   2.364
43179W        W11397  27.893   4.618  11.043
43180W        W11398  27.347  38.082  12.966
43181W        W11399  24.605  23.820   0.364
43182W        W11400  10.171  25.417   1.892
43183W        W11401  24.940  22.525   1.614
43184W        W11402  14.133   3.330   0.869
43185W        W11403  29.382  15.739   0.464
43186W        W11404   7.493  26.686   1.524
43187W        W11405   6.004  12.618  13.834
43188W        W11406  18.593   6.884  14.896
43189W        W11407  28.933   3.334  12.489
43190W        W11408  36.555  43.865  14.276
43191W        W11409  32.622  29.562   1.228
43192W        W11410  15.897  35.902  10.810
43193W        W11411  33.339  24.719   1.913
43194W        W11412  39.748   7.918  14.820
43195W        W11413  43.781  42.481  13.006
43196W        W11414   0.554   8.199  10.722
43197W        W11415  17.690   2.197   4.242
43198W        W11416   9.772  37.555  14.926
43199W        W11417   4.303  34.061   1.946
43200W        W11418  41.757  28.937   0.777
43201W        W11419   7.329  35.899  13.068
43202W        W11420  29.401  44.271  11.588
43203W        W11421  39.450  29.161  11.125
43204W        W11422  33.935  34.036  10.705
43205W        W11423  39.376  33.948  14.832
43206W        W11424  15.801   8.279  11.611
43207W        W11425   1.485   4.198  11.143
43208W        W11426   8.724  36.059   1.614
43209W        W11427  23.262  40.804   3.865
43210W        W11428   2.926  31.379   1.435
43211W        W11429  20.780  42.971   3.056
43212W        W11430   4.946  32.664   3.738
43213W        W11431  43.871  40.837   2.961
43214W        W11432  30.577  37.252   0.422
43215W        W11433  16.101  20.303  10.756
43216W        W11434  37.842  10.707   2.433
43217W        W11435  17.147  44.520   0.852
43218W        W11436  37.549  35.377   3.302
43219W        W11437  33.449  12.530  11.239
43220W        W11438  13.823  17.756   3.206
43221W        W11439   9.376  43.798   4.051
43222W        W11440  29.009  41.235   0.966
43223W        W11441  23.534  32.362  13.004
43224W        W11442  33.607  31.498   2.390
43225W        W11443  34.825  23.246   3.206
43226W        W11444  23.069  10.233   0.547
43227W        W11445  37.289  23.843  11.708
43228W        W11446  14.798  25.456   3.146
43229W        W11447  22.322  24.079   1.287
43230W        W11448  37.808  19.193   4.105
43231W        W11449  10.603  30.110  13.273
43232W        W11450   7.772  24.486  11.211
43233W        W11451  25.722   9.138  11.401
43234W        W11452   3.993  20.004  14.494
43235W        W11453   3.937  39.216  14.082
43236W        W11454  21.555  21.918  13.070
43237W        W11455  21.305   1.706  11.929
43238W        W11456  13.280  13.755   0.684
43239W        W11457  17.853  16.432   4.248
43240W        W11458  26.885  24.743   4.746
43241W        W11459  15.633  18.813   1.411
43242W        W11460  40.858   2.170   2.120
43243W        W11461  39.528   3.858   4.063
43244W        W11462   1.301  22.527  12.854
43245W        W11463  10.593  32.536   2.984
43246W        W11464  23.153  21.150   0.263
43247W        W11465  36.791  17.207  13.377
43248W        W11466  19.691  12.373   1.314
43249W        W11467  32.021   6.528  13.964
43250W        W11468  10.305  10.848   2.915
43251W        W11469  20.814  13.326  11.203
43252W        W11470  43.429   0.296   2.110
43253W        W11471  18.281  28.443   4.440
43254W        W11472  10.461  14.169  14.858
43255W        W11473  15.589  15.417  12.898
43256W        W11474  34.601  22.489   0.301
43257W        W11475  13.616  37.811  12.953
43258W        W11476   9.429  32.961   3.573
43259W        W11477  37.975  15.273   1.128
43260W        W11478  23.769  11.891  12.777
43261W        W11479  33.581  28.290   4.913
43262W        W11480  37.024  39.102   4.031
43263W        W11481  26.707   8.188   0.327
43264W        W11482  12.531  12.768  11.472
43265W        W11483   5.971  37.286  10.061
43266W        W11484  34.332   6.315   1.762
43267W        W11485  36.960  29.905  12.929
43268W        W11486  37.321   3.757  10.513
43269W        W11487  11.211  21.860   3.590
43270W        W11488  32.894  38.022   3.824
43271W        W11489  18.768  23.610  14.046
43272W        W11490   2.474  14.810   2.898
43273W        W11491  24.701  34.958   4.698
43274W        W11492  26.224  17.322  11.164
43275W        W11493  22.630  23.289   0.005
43276W        W11494  20.937  38.302  10.922
43277W        W11495  16.765  39.560  14.913
43278W        W11496  13.837  11.739  12.036
43279W        W11497  13.889  18.680  12.214
43280W        W11498  13.260   7.113   2.703
43281W        W11499  15.268  15.368  10.744
43282W        W11500  26.465  34.010   2.213
43283W        W11501  31.916  36.636   3.284
43284W        W11502  16.374   4.211   1.771
43285W        W11503   3.889  39.630  12.330
43286W        W11504  19.699  35.382   4.683
43287W        W11505  12.534  21.550   3.273
43288W        W11506  13.180   9.774  12.503
43289W        W11507  44.815  12.038   2.320
43290W        W11508  39.936  26.875  12.581
43291W        W11509  40.065   1.931   2.034
43292W        W11510  29.867   8.855   3.968
43293W        W11511   7.122  33.327  13.387
43294W        W11512   3.261  26.557  13.562
43295W        W11513  22.609   9.885   3.242
43296W        W11514  21.775  38.482  11.250
43297W        W11515  18.068  11.806  11.297
43298W        W11516  27.588  38.209  14.343
43299W        W11517  19.800   2.368   2.659
43300W        W11518   6.175  19.733  11.667
43301W        W11519  39.000   6.137  11.149
43302W        W11520  20.185   7.204   4.115
43303W        W11521  32.085  28.733  10.541
43304W        W11522  38.058  24.832   1.203
43305W        W11523  38.447   4.251   1.011
43306W        W11524  38.019   5.740  10.666
43307W        W11525  28.555  12.867   0.438
43308W        W11526   3.675  23.616   2.375
43309W        W11527  41.906   0.132  10.893
43310W        W11528   1.717  23.666  13.585
43311W        W11529  15.653  26.259  10.713
43312W        W11530  23.561   9.911   2.216
43313W        W11531  33.861  43.835   3.624
43314W        W11532  23.064  23.843  14.518
43315W        W11533  43.815  23.904  10.743
43316W        W11534  44.418  19.671  14.209
43317W        W11535  40.384  30.032  12.063
43318W        W11536  31.922  25.114  14.826
43319W        W11537  37.890  22.250  14.297
43320W        W11538  44.209  16.328  11.988
43321W        W11539  36.687  38.368   0.419
43322W        W11540   6.368  31.041  12.432
43323W        W11541  36.305  22.185   0.934
43324W        W11542  27.320  21.246  13.891
43325W        W11543  14.626  32.518   2.676
43326W        W11544  29.878   8.924  10.812
43327W        W11545   3.615  12.401  12.670
43328W        W11546  11.327  41.300  11.201
43329W        W11547  15.955   3.878   0.584
43330W        W11548  32.968  41.862   4.848
43331W        W11549  21.395   3.107   2.526
43332W        W11550   6.352   4.316   3.698
43333W        W11551  28.773  43.000   3.657
43334W        W11552  42.661   0.645  12.415
43335W        W11553  42.945  23.283   3.544
43336W        W11554  28.426  39.445  10.763
43337W        W11555  13.678  31.667   5.121
43338W        W11556  37.998  20.671   3.617
43339W        W11557  10.228   8.802   4.907
43340W        W11558  33.116  32.887   4.714
43341W        W11559   6.409  38.571  10.580
43342W        W11560  39.637  18.169   4.625
43343W        W11561  25.143  18.004  10.956
43344W        W11562  35.229   2.581   0.219
43345W        W11563  44.953  23.868   2.264
43346W        W11564  43.792  13.584   4.301
43347W        W11565  43.274  26.834   4.617
43348W        W11566  38.181   3.900   1.298
43349W        W11567  43.913  30.485  12.411
43350W        W11568  44.276  42.450  13.743
43351W        W11569  31.628  35.961  13.625
43352W        W11570  10.077   5.677   3.319
43353W        W11571  22.629   7.771   0.374
43354W        W11572  29.354  42.772  14.340
43355W        W11573  33.967  14.828   1.692
43356W        W11574  34.197   9.889   2.742
43357W        W11575  23.421  38.070   3.661
43358W        W11576  15.274   6.888   3.133
43359W        W11577  42.623  36.501   3.180
43360W        W11578  13.834  29.101   4.618
43361W        W11579  14.096  29.657  12.992
43362W        W11580  22.764  31.539  14.510
43363W        W11581  39.040  14.271   3.840
43364W        W11582  30.567  41.259   4.567
43365W        W11583   0.309   2.405  13.809
43366W        W11584  19.019  41.585   1.873
43367W        W11585  35.592  28.583  10.229
43368W        W11586  31.708  21.527  10.539
43369W        W11587  15.305   5.932   3.303
43370W        W11588   7.019   4.721   2.514
43371W        W11589  41.288  44.909  13.143
43372W        W11590  27.635   8.794   0.726
43373W        W11591  23.534  27.599  13.077
43374W        W11592  14.222   6.462   4.650
43375W        W11593  25.076   3.945  12.639
43376W        W11594  44.509   6.707  12.154
43377W        W11595   5.163  14.681  12.392
43378W        W11596  37.902  23.184  11.457
43379W        W11597  16.749  40.645   1.398
43380W        W11598   9.787  38.456   3.387
43381W        W11599  36.406  33.094   1.316
43382W        W11600  20.531  40.170  12.869
43383W        W11601  33.246  16.121   2.682
43384W        W11602  29.445  34.658  13.549
43385W        W11603  42.761  27.572  12.066
43386W        W11604   8.429   0.766   2.439
43387W        W11605   0.121  22.707   0.190
43388W        W11606  24.061   4.080  11.435
43389W        W11607  31.735  10.592   4.007
43390W        W11608   4.568  33.624  11.035
43391W        W11609  35.135  24.268   4.110
43392W        W11610  36.597  30.105   1.925
43393W        W11611  21.949  16.605  11.339
43394W        W11612  29.258  44.657  14.576
43395W        W11613   2.575  10.435   1.820
43396W        W11614   9.102  21.551   2.210
43397W        W11615  19.346  11.224  12.336
43398W        W11616  27.897  37.980   4.914
43399W        W11617  23.061  42.883  12.472
43400W        W11618   6.745  30.415  12.411
43401W        W11619   6.170   3.531   1.700
43402W        W11620  30.410  29.401  10.444
43403W        W11621  25.693  26.429  13.345
43404W        W11622  18.074  26.187   3.246
43405W        W11623  27.160   7.871   0.904
43406W        W11624  34.421  30.562  10.969
43407W        W11625  40.423  32.452   3.323
43408W        W11626   5.333  29.668   0.986
43409W        W11627   5.797  36.489   0.769
43410W        W11628   4.432   1.855  13.449
43411W        W11629  32.360  32.839  10.609
43412W        W11630  40.906  37.495   2.835
43413W        W11631  31.424   0.400   1.310
43414W        W11632  41.405  14.305   3.743
43415W        W11633   3.056   1.699  13.825
43416W        W11634   6.774   1.754  10.991
43417W        W11635  26.450   3.643   1.042
43418W        W11636  17.531  28.542   0.348
43419W        W11637  30.008  38.018  12.828
43420W        W11638  35.342  21.947   0.340
43421W        W11639  28.027  14.151   5.424
43422W        W11640  41.006  11.199   0.915
43423W        W11641  43.932   2.755  10.714
43424W        W11642  33.899  43.916   1.272
43425W        W11643  25.925  18.370  14.465
43426W        W11644   9.218  31.036  11.729
43427W        W11645  22.172  18.822   0.182
43428W        W11646  34.678   0.368  10.586
43429W        W11647   3.520   4.014  12.435
43430W        W11648  38.357   7.428  10.611
43431W        W11649  33.976   1.156  13.519
43432W        W11650   5.409   7.293   0.887
43433W        W11651  28.873  44.546  14.966
43434W        W11652  26.413  33.667   4.165
43435W        W11653   9.255   3.536   3.223
43436W        W11654  17.133  37.329   0.421
43437W        W11655  12.023   9.144   4.997
43438W        W11656  25.739  10.113   1.904
43439W        W11657  17.972  42.156   0.268
43440W        W11658  42.942  35.335  12.005
43441W        W11659   9.238  22.018   1.856
43442W        W11660  18.616  16.791   3.785
43443W        W11661  38.540  21.616   1.513
43444W        W11662  21.384   3.235   4.543
43445W        W11663  34.071  15.534  12.946
43446W        W11664  25.547  28.386  12.447
43447W        W11665  37.613  14.745   3.132
43448W        W11666  30.191  31.489   1.291
43449W        W11667  31.048  28.224  14.333
43450W        W11668  37.955   6.955  14.675
43451W        W11669  35.677   0.185  13.863
43452W        W11670   1.730  14.845   3.353
43453W        W11671  32.685  23.919   1.321
43454W        W11672   5.901  28.907   2.359
43455W        W11673  30.619  10.948   2.732
43456W        W11674  35.828  22.991  11.851
43457W        W11675  19.624  37.207  14.266
43458W        W11676  42.937   0.245  11.663
43459W        W11677  30.365  22.243  13.856
43460W        W11678  19.758  27.516  10.727
43461W        W11679   0.972  26.818   4.606
43462W        W11680  14.183  23.680   0.465
43463W        W11681  35.794  20.100  14.845
43464W        W11682  44.876  23.581  13.147
43465W        W11683  11.737  38.247  14.252
43466W        W11684  42.002   2.666  12.866
43467W        W11685   3.817  18.106   1.186
43468W        W11686  38.022  39.456   1.089
43469W        W11687  24.299  23.608  12.416
43470W        W11688  19.710   0.958   4.540
43471W        W11689  33.721  12.176   0.953
43472W        W11690  35.598   1.282   2.816
43473W        W11691  43.365  40.028   3.642
43474W        W11692  11.324  14.922   2.233
43475W        W11693  27.157   7.431  14.937
43476W        W11694  18.881  33.760  10.699
43477W        W11695   0.078  43.546   2.834
43478W        W11696  14.165   2.404  12.172
43479W        W11697   4.925  20.963   2.751
43480W        W11698  32.664  15.265   4.542
43481W        W11699  20.224  11.606   3.648
43482W        W11700   8.670  39.752  13.955
43483W        W11701  10.474   1.067   3.797
43484W        W11702   0.358  20.940   1.337
43485W        W11703  18.718  23.617   3.169
43486W        W11704  11.357  23.798   4.156
43487W        W11705  23.122  33.564   2.046
43488W        W11706  15.130  15.818  12.974
43489W        W11707  30.931  40.550   0.790
43490W        W11708  15.855   0.698   4.338
43491W        W11709  30.750   8.991  14.909
43492W        W11710  29.142   2.715   3.325
43493W        W11711  29.146  28.294  13.064
43494W        W11712  14.301  42.975  10.695
43495W        W11713  37.415  17.328   2.818
43496W        W11714  43.406  21.172   3.965
43497W        W11715  15.381  16.803   3.105
43498W        W11716  44.648  30.166  12.036
43499W        W11717  24.174  28.919   2.013
43500W        W11718  27.646  37.515   1.501
43501W        W11719  19.031  36.270   1.313
43502W        W11720  23.286  19.746  12.125
43503W        W11721  32.654  17.689  13.543
43504W        W11722  29.139   4.708  11.483
43505W        W11723  21.270  36.633  14.343
43506W        W11724  18.805  23.534   1.820
43507W        W11725  15.676  21.313   4.095
43508W        W11726  18.935  34.404   1.844
43509W        W11727  17.125  36.055   2.104
43510W        W11728   0.633  39.311  14.294
43511W        W11729  37.427  12.085   0.798
43512W        W11730  15.367  39.572  10.616
43513W        W11731  24.212   7.117  14.341
43514W        W11732  30.671  26.487  14.233
43515W        W11733  36.017  33.621  13.529
43516W        W11734  43.793  44.529  12.562
43517W        W11735  41.831  25.859   3.687
43518W        W11736  11.711  43.389  11.934
43519W        W11737  11.041  32.109   5.086
43520W        W11738  30.591  24.510  11.665
43521W        W11739  38.259  30.260  11.130
43522W        W11740  39.311  11.095   4.147
43523W        W11741  44.796  33.681   0.306
43524W        W11742   9.222   2.759  12.975
43525W        W11743  42.552  31.651  12.041
43526W        W11744  35.736  38.397   1.531
43527W        W11745   1.693   9.698  12.606
43528W        W11746   2.909  36.015   4.290
43529W        W11747  29.017  42.444  11.629
43530W        W11748  19.658  35.670   1.047
43531W        W11749  39.979  30.871   4.443
43532W        W11750  22.813  27.209  11.186
43533W        W11751  23.467  41.114   1.844
43534W        W11752  11.390  37.615  13.001
43535W        W11753  27.040   5.270   4.866
43536W        W11754  28.725   4.368  13.049
43537W        W11755  36.455  19.286  14.532
43538W        W11756  22.144  13.653  13.183
43539W        W11757  41.421  37.576   1.988
43540W        W11758  30.685   4.811  11.901
43541W        W11759   1.791  21.525  12.003
43542W        W11760  18.371   7.300   4.087
43543W        W11761  31.886  18.776   1.030
43544W        W11762  10.194  22.151  11.154
43545W        W11763  29.410  40.337  12.165
43546W        W11764   7.320  15.435   4.935
43547W        W11765  13.690   0.926  11.186
43548W        W11766   0.282   8.450  11.993
43549W        W11767  34.369  27.451  12.269
43550W        W11768  24.273  31.005  10.713
43551W        W11769  39.100   0.307   2.687
43552W        W11770   5.897  28.034  13.889
43553W        W11771  24.817   3.843  14.015
43554W        W11772  17.536  34.608   0.663
43555W        W11773  15.053   0.860   1.747
43556W        W11774  37.263   6.881   4.512
43557W        W11775  14.985  23.675  12.415
43558W        W11776  20.779  32.246  10.796
43559W        W11777  22.693  43.999  11.720
43560W        W11778  39.616  11.485   0.873
43561W        W11779  44.312  30.144  14.507
43562W        W11780   0.170  32.614   4.208
43563W        W11781  15.622  36.160  10.463
43564W        W11782  25.687   1.279  14.974
43565W        W11783   5.380   7.680  13.832
43566W        W11784   7.691  19.686   0.664
43567W        W11785  20.135   5.040  13.381
43568W        W11786  23.732   2.143  12.641
43569W        W11787   7.828  25.945   3.810
43570W        W11788   4.934   0.918  14.812
43571W        W11789  12.411  23.780   1.232
43572W        W11790  38.089  17.165  13.089
43573W        W11791  31.631   7.242   4.411
43574W        W11792   7.692  41.534   2.156
43575W        W11793  37.272  38.849  11.501
43576W        W11794  44.774  16.719   4.751
43577W        W11795  10.873  30.206  11.476
43578W        W11796  36.893  15.141   4.508
43579W        W11797  15.109  11.796   3.694
43580W        W11798   7.841  15.421  12.689
43581W        W11799  11.035  20.397  14.472
43582W        W11800  31.608  14.735  12.004
43583W        W11801  29.938  15.225  14.795
43584W        W11802  12.263  23.615  13.254
43585W        W11803  23.598  28.487   2.859
43586W        W11804  34.241  18.026   1.624
43587W        W11805  20.597   4.270   1.862
43588W        W11806  32.990  36.952  11.102
43589W        W11807  17.592  36.350  11.133
43590W        W11808  20.613  20.593   1.439
43591W        W11809  12.139  16.971  14.990
43592W        W11810  14.329  28.402  14.012
43593W        W11811   7.364  28.154   2.851
43594W        W11812  13.227  43.081   1.423
43595W        W11813  25.145   7.857   0.514
43596W        W11814   9.277  38.167  14.585
43597W        W11815  36.457   1.854  10.875
43598W        W11816  33.979   2.466  10.702
43599W        W11817   5.223   0.721  13.426
43600W        W11818  41.202  30.102   1.373
43601W        W11819  28.866  17.141   5.459
43602W        W11820  33.698   8.796   4.561
43603W        W11821  14.639  37.802   3.205
43604W        W11822  40.987  26.140   0.999
43605W        W11823  28.672  44.964  10.697
43606W        W11824  22.018  20.253  14.532
43607W        W11825  42.548   3.863   4.561
43608W        W11826  28.856  21.583   0.333
43609W        W11827  31.704  13.345  12.871
43610W        W11828   1.154  27.100  13.478
43611W        W11829  35.608  34.390  12.220
43612W        W11830   8.335  25.506  13.444
43613W        W11831  32.413  19.194   2.250
43614W        W11832   6.335   7.050   2.798
43615W        W11833  19.235  28.956   0.857
43616W        W11834  33.980  32.746  10.871
43617W        W11835   1.450  44.386  14.024
43618W        W11836  25.067  37.938  10.516
43619W        W11837  26.086  21.999  13.915
43620W        W11838   2.795  21.255  11.145
43621W        W11839   9.835   4.437  13.350
43622W        W11840  18.301   5.553  11.523
43623W        W11841  34.719  25.490   2.342
43624W        W11842   8.281  40.882   0.059
43625W        W11843  43.052  14.730  11.515
43626W        W11844  41.762  24.601   4.817
43627W        W11845  31.980  32.838  13.378
43628W        W11846  11.431  24.061  14.282
43629W        W11847  19.098  42.161  11.683
43630W        W11848  33.955  42.555   2.237
43631W        W11849  11.062  36.388   2.329
43632W        W11850  35.130  30.974  14.030
43633W        W11851   7.325  40.896  14.226
43634W        W11852  18.530  25.340   0.416
43635W        W11853  18.648   7.140   1.707
43636W        W11854  23.232  38.693   1.591
43637W        W11855   9.835  36.517  11.189
43638W        W11856  17.644   9.225  11.086
43639W        W11857  23.555   1.737  12.375
43640W        W11858  39.621  39.849   4.164
43641W        W11859  38.107  32.172  12.490
43642W        W11860  23.576  34.871  14.459
43643W        W11861  31.962  28.099  13.043
43644W        W11862   7.718   2.082  12.980
43645W        W11863  31.147  42.371   0.224
43646W        W11864  36.440  44.575  12.187
43647W        W11865   3.873  39.792  12.833
43648W        W11866  39.105   5.185   3.787
43649W        W11867   4.281  12.578   3.675
43650W        W11868  20.801   5.991   1.441
43651W        W11869  21.525  32.429  11.942
43652W        W11870  35.973  36.802  12.065
43653W        W11871  36.746  19.744  12.057
43654W        W11872  10.810  40.882   4.592
43655W        W11873  31.042   7.934   1.365
43656W        W11874   0.022  41.895  13.142
43657W        W11875   2.028  30.896   0.483
43658W        W11876  37.711  28.799   3.810
43659W        W11877  39.872  20.023   4.083
43660W        W11878   8.240  39.805  11.512
43661W        W11879  32.675   7.926  11.267
43662W        W11880  42.470  17.225   0.858
43663W        W11881   1.342   8.961  13.992
43664W        W11882  36.935  37.962  12.475
43665W        W11883  17.635  32.992  11.612
43666W        W11884  22.167  42.210   1.314
43667W        W11885   4.158  37.300  12.482
43668W        W11886  23.454   7.288   5.019
43669W        W11887  34.811  20.630  13.311
43670W        W11888  24.306  15.126   2.789
43671W        W11889  36.657  25.746   0.534
43672W        W11890  28.227  13.248  11.182
43673W        W11891  32.895  44.436  11.035
43674W        W11892  42.555  42.407  11.152
43675W        W11893  38.540   2.704   4.961
43676W        W11894  27.671  23.311   0.488
43677W        W11895   5.279  36.620   0.840
43678W        W11896  40.886  39.214  12.813
43679W        W11897  16.155  39.446  11.068
43680W        W11898  10.099  14.201   3.816
43681W        W11899  15.129  10.285  13.717
43682W        W11900  20.030  29.095   3.416
43683W        W11901   1.317   3.985   4.130
43684W        W11902   4.898  35.434   4.169
43685W        W11903  17.891  38.415  10.351
43686W        W11904  36.040  28.186  11.433
43687W        W11905  11.267   9.809  14.228
43688W        W11906  25.386   0.635  10.461
43689W        W11907  28.227  23.438   4.284
43690W        W11908  43.515  14.696   0.001
43691W        W11909  41.840  18.266  13.779
43692W        W11910   3.208   0.676  14.425
43693W        W11911  19.687  43.758   4.585
43694W        W11912  19.461  29.878   1.880
43695W        W11913  30.155  20.179  11.553
43696W        W11914  36.535  22.728  11.818
43697W        W11915  15.055  27.550   4.481
43698W        W11916  33.470  43.341   0.036
43699W        W11917  31.418  38.405  12.900
43700W        W11918  25.929  43.083   0.756
43701W        W11919  31.362  21.302   1.700
43702W        W11920  29.103  31.674  12.380
43703W        W11921   4.831  42.226   0.013
43704W        W11922  20.189  32.203  13.937
43705W        W11923  17.393  38.806  14.521
43706W        W11924  10.117  21.702   2.290
43707W        W11925   0.033  26.687   1.859
43708W        W11926   5.868   3.415   3.243
43709W        W11927   8.452   3.328   2.439
43710W        W11928  22.560  22.146   2.129
43711W        W11929   8.574  36.781   2.765
43712W        W11930   5.478  31.926   4.742
43713W        W11931  41.826  31.535  12.409
43714W        W11932  28.646  26.029   1.263
43715W        W11933  39.907  13.384   3.317
43716W        W11934   0.948  14.735   2.181
43717W        W11935  44.829  32.228   0.422
43718W        W11936  17.894  20.956  12.153
43719W        W11937  12.727  12.260   4.924
43720W        W11938  17.340   1.394  13.005
43721W        W11939  12.466   7.808   0.137
43722W        W11940  28.120  21.463  13.007
43723W        W11941  34.344  29.962  13.782
43724W        W11942  38.980  29.735  10.723
43725W        W11943  31.077   3.007   0.205
43726W        W11944  44.854  40.286  13.381
43727W        W11945  38.557  22.184   4.539
43728W        W11946  12.767   0.709   0.741
43729W        W11947  13.707  10.894  14.236
43730W        W11948   4.162   2.885   0.372
43731W        W11949  15.292   1.289   0.281
43732W        W11950  13.225   3.709   4.693
43733W        W11951  35.850  12.837   0.387
43734W        W11952  43.068  28.471  14.016
43735W        W11953  12.847  24.731  11.868
43736W        W11954  19.859   5.222  10.580
43737W        W11955  21.214  27.237   3.674
43738W        W11956  33.129  28.022  13.392
43739W        W11957  38.974   4.759   2.153
43740W        W11958  35.864  15.541   2.761
43741W        W11959  41.363  21.186   1.762
43742W        W11960   4.416   8.292  12.956
43743W        W11961  31.152  33.752   3.253
43744W        W11962  10.786   2.222   4.267
43745W        W11963  17.290  15.488  11.290
43746W        W11964  14.632   6.848   4.546
43747W        W11965  16.130  40.018   1.405
43748W        W11966   7.177  23.814   1.333
43749W        W11967  16.140  11.122  11.133
43750W        W11968  11.373  19.744   4.133
43751W        W11969  21.069  41.283   0.258
43752W        W11970  20.316  21.674  13.431
43753W        W11971  15.093  17.394  11.102
43754W        W11972  40.365  20.891   5.200
43755W        W11973  13.497   3.131   1.810
43756W        W11974   9.566  21.755  12.203
43757W        W11975  10.556   5.226   1.795
43758W        W11976  29.079  27.518   4.467
43759W        W11977  31.485  21.284  12.869
43760W        W11978  14.709  16.234   3.763
43761W        W11979  40.715  30.225  14.040
43762W        W11980  37.083  42.430   0.683
43763W        W11981  22.474  41.029  14.745
43764W        W11982  23.521  11.786  14.010
43765W        W11983  22.088   8.486   5.016
43766W        W11984  19.744  41.415  13.844
43767W        W11985  19.157  31.805   2.847
43768W        W11986  23.067   0.828  13.084
43769W        W11987  43.643  14.067   0.570
43770W        W11988  24.151  29.742   1.231
43771W        W11989  33.369  19.068  13.005
43772W        W11990  16.317  14.683   4.411
43773W        W11991  20.805   7.246   4.991
43774W        W11992  14.237   0.720  14.563
43775W        W11993  32.887  39.088   0.923
43776W        W11994  31.275  32.726   0.884
43777W        W11995  29.241  15.088   3.295
43778W        W11996  44.466  20.981   4.565
43779W        W11997  40.501  38.071  11.308
43780W        W11998  27.910  32.699   3.392
43781W        W11999   9.723   2.219  10.755
43782W        W12000  41.785  38.403  14.045
43783W        W12001  38.315  43.988  12.449
43784W        W12002   4.722   6.863   3.775
43785W        W12003  43.861  11.303  12.554
43786W        W12004   4.842  24.398  12.059
43787W        W12005  38.967  41.437   3.404
43788W        W12006  38.127   1.245   4.588
43789W        W12007   7.516  32.201  12.517
43790W        W12008  13.715  42.235  14.416
43791W        W12009   5.933  29.870   4.441
43792W        W12010   0.070  31.697   0.430
43793W        W12011  37.818  12.637  14.591
43794W        W12012  30.398  27.189   1.675
43795W        W12013   3.216  11.767  14.820
43796W        W12014  38.617  38.948   4.334
43797W        W12015   5.843   7.837   1.952
43798W        W12016  30.952  11.058   2.362
43799W        W12017  29.989  24.422   3.208
43800W        W12018  38.765  38.937   3.646
43801W        W12019  30.872  32.934   1.864
43802W        W12020  19.036  42.913   0.336
43803W        W12021  37.867  28.908  11.511
43804W        W12022   5.389   8.405  12.296
43805W        W12023   4.494  25.097   3.661
43806W        W12024  10.615  11.200   0.204
43807W        W12025   6.656  44.411   4.670
43808W        W12026  43.821  34.694   3.809
43809W        W12027   9.497  15.864   4.543
43810W        W12028  22.186  18.730   3.952
43811W        W12029   2.369   7.010   4.296
43812W        W12030  18.318  11.870  12.103
43813W        W12031  12.253  36.889  11.379
43814W        W12032  22.747  39.834  13.551
43815W        W12033  24.647  32.139   3.624
43816W        W12034  28.590  33.966   2.822
43817W        W12035   8.411  31.789  13.929
43818W        W12036  25.050  39.860   1.804
43819W        W12037  27.762  32.362  11.242
43820W        W12038  33.030  24.719   2.823
43821W        W12039  13.244  38.197  12.086
43822W        W12040  25.570  34.305   0.542
43823W        W12041  13.118  16.317   1.402
43824W        W12042  24.340  23.243   2.430
43825W        W12043  12.850  29.461   3.696
43826W        W12044  30.481  41.342  12.277
43827W        W12045  27.244  34.493   2.251
43828W        W12046   9.694  43.336   0.913
43829W        W12047   4.822  39.306  13.068
43830W        W12048   5.881  44.456  12.323
43831W        W12049  32.009   2.480   2.852
43832W        W12050   6.637  42.332   1.789
43833W        W12051   7.019  43.221   5.392
43834W        W12052   8.247  25.039  13.003
43835W        W12053  35.066  38.970  11.143
43836W        W12054   0.178   5.661  13.363
43837W        W12055  14.135  42.801  13.849
43838W        W12056  32.004   2.466   5.122
43839W        W12057  28.263  23.938  11.184
43840W        W12058  29.348  11.685  14.605
43841W        W12059  10.749  17.522  12.548
43842W        W12060  32.027   5.459   0.804
43843W        W12061  42.193  40.634   4.347
43844W        W12062  32.353   6.180   1.430
43845W        W12063  14.737  26.696   3.599
43846W        W12064   0.860  15.035   3.869
43847W        W12065  23.565  38.940   1.920
43848W        W12066   3.337  39.975  13.743
43849W        W12067  29.108  25.606   2.425
43850W        W12068   4.349   9.347   2.179
43851W        W12069  16.102  25.284  11.615
43852W        W12070  19.833  42.745   1.809
43853W        W12071   6.309  25.081   3.771
43854W        W12072  21.093   6.582  12.624
43855W        W12073  34.815  24.630  10.954
43856W        W12074  14.813  33.887   2.649
43857W        W12075  23.165  26.740  11.267
43858W        W12076  11.137  17.231   0.782
43859W        W12077  37.693  35.578  11.982
43860W        W12078   6.916  36.266   1.855
43861W        W12079  13.956   0.967   2.638
43862W        W12080  32.458  35.258   3.594
43863W        W12081  13.381  31.448   2.615
43864W        W12082   0.268  41.772   3.227
43865W        W12083  43.969  24.235  11.091
43866W        W12084  38.826   1.317  14.773
43867W        W12085  28.142   3.531  14.560
43868W        W12086  16.305  11.213   0.528
43869W        W12087  30.048   6.722  10.434
43870W        W12088  13.222  34.943  10.705
43871W        W12089  41.554  23.214   2.822
43872W        W12090  15.184  31.918   4.089
43873W        W12091  29.056   5.871   1.716
43874W        W12092  31.191  17.412  13.555
43875W        W12093   3.913   1.104   0.885
43876W        W12094  25.199  16.625  14.763
43877W        W12095  44.907  17.084   3.173
43878W        W12096   9.771  33.613  11.663
43879W        W12097  43.028  43.426   4.657
43880W        W12098  33.941  35.131   3.736
43881W        W12099  35.573  21.002  11.067
43882W        W12100   6.444  29.045  11.186
43883W        W12101  34.862  20.220  14.512
43884W        W12102  35.419  28.779  11.613
43885W        W12103  24.238   3.815   2.827
43886W        W12104  18.768  44.310   0.217
43887W        W12105   2.565  34.317  11.131
43888W        W12106  10.677  20.229  14.803
43889W        W12107  26.641  34.604  14.511
43890W        W12108  35.995  18.070   3.302
43891W        W12109  20.927   7.178   4.497
43892W        W12110  42.820   3.917  11.417
43893W        W12111  10.248  11.345   3.097
43894W        W12112  20.089   3.243   1.293
43895W        W12113  19.536   7.126  12.991
43896W        W12114  44.981   4.193  14.330
43897W        W12115  34.474  17.077  13.977
43898W        W12116  36.987  27.450  14.119
43899W        W12117   7.302  15.508  12.049
43900W        W12118   3.072  42.474   2.284
43901W        W12119  41.946  39.667  12.108
43902W        W12120  21.445  22.608   2.667
43903W        W12121  32.955  39.421  12.661
43904W        W12122  42.232  32.467   2.616
43905W        W12123  35.443  16.691   2.152
43906W        W12124  44.099  29.865  13.834
43907W        W12125  13.626   4.756   2.337
43908W        W12126  17.246  28.562   3.555
43909W        W12127  11.317  23.559   0.840
43910W        W12128  24.637   6.143   4.866
43911W        W12129  38.239  21.060  13.964
43912W        W12130   0.383  15.616   1.457
43913W        W12131  19.333   7.129  10.663
43914W        W12132  21.443  38.733  11.556
43915W        W12133  10.384  40.445  12.970
43916W        W12134  11.723  16.174   5.191
43917W        W12135   8.949  19.705  14.400
43918W        W12136  12.903  16.027   0.476
43919W        W12137  15.237  15.872   3.295
43920W        W12138  31.669  19.143   0.571
43921W        W12139  21.168  14.618   0.858
43922W        W12140  40.065  18.276   3.841
43923W        W12141  16.689  12.575  13.115
43924W        W12142  21.531  23.529   1.440
43925W        W12143  15.379   1.926   0.855
43926W        W12144  22.036  39.826  12.041
43927W        W12145  35.766   7.661  11.091
43928W        W12146  35.671  32.839   2.246
43929W        W12147  31.887  28.653   2.751
43930W        W12148  28.155  40.894  12.016
43931W        W12149  13.523  31.496   4.655
43932W        W12150  19.842  21.907   3.595
43933W        W12151   3.197  21.719   4.980
43934W        W12152  17.477  37.928   2.807
43935W        W12153  41.369   9.084   4.505
43936W        W12154  20.503  39.845   3.812
43937W        W12155  29.197   1.776   3.339
43938W        W12156   0.313  28.026  14.256
43939W        W12157  34.633  10.961   1.820
43940W        W12158  14.593  30.757   4.820
43941W        W12159  15.713  33.255   2.491
43942W        W12160  35.655   3.718   0.323
43943W        W12161  30.590   6.752  14.783
43944W        W12162   1.427  26.469   3.226
43945W        W12163  19.137  18.777   1.840
43946W        W12164  19.558  40.169  12.037
43947W        W12165  20.805  33.559  10.679
43948W        W12166   4.255  44.299  12.865
43949W        W12167  35.999  37.250  12.481
43950W        W12168  31.653  12.992   3.341
43951W        W12169  34.987  14.015  11.944
43952W        W12170   7.067  23.661  12.485
43953W        W12171  36.504   4.060   2.695
43954W        W12172  38.147   3.026   4.124
43955W        W12173  35.889  16.339   3.676
43956W        W12174  27.662  30.837  13.091
43957W        W12175  42.867  38.722   2.112
43958W        W12176   3.865   7.992  11.487
43959W        W12177  38.330   8.689   4.150
43960W        W12178   0.970  44.830  11.894
43961W        W12179  27.272  42.307   1.714
43962W        W12180  11.306  12.593  14.377
43963W        W12181  42.775  19.069  13.998
43964W        W12182  24.370   7.595   2.192
43965W        W12183  37.442  41.719  10.725
43966W        W12184  10.202  31.612   1.658
43967W        W12185  14.761  30.540  13.925
43968W        W12186  32.926  25.290   3.297
43969W        W12187   2.004  37.831   0.529
43970W        W12188  28.722  35.766  11.102
43971W        W12189   4.765  41.553  13.132
43972W        W12190  41.408   5.722   2.757
43973W        W12191  18.581   8.506   2.651
43974W        W12192  10.505  15.776   1.798
43975W        W12193   9.851   7.467   4.766
43976W        W12194  36.511  36.971  11.611
43977W        W12195  36.044  44.445   2.814
43978W        W12196  25.230   2.086  14.877
43979W        W12197  10.955  10.398   1.159
43980W        W12198  29.939  27.113  14.804
43981W        W12199  42.770  43.432   3.276
43982W        W12200  28.157   1.985  12.972
43983W        W12201  19.860  19.077  13.910
43984W        W12202  16.584  44.740  10.562
43985W        W12203  11.272  15.455   1.354
43986W        W12204  30.878   1.018  13.865
43987W        W12205  11.792  16.505  13.905
43988W        W12206  42.285  17.145  10.450
43989W        W12207  22.768  13.155   3.251
43990W        W12208  40.377  43.750   1.834
43991W        W12209  28.873  21.513  10.633
43992W        W12210  27.594  31.937   2.936
43993W        W12211  40.048   3.350  10.649
43994W        W12212   1.056  16.597  10.958
43995W        W12213  17.028  39.459  13.463
43996W        W12214  22.245  34.380  14.280
43997W        W12215  37.759  26.095   4.628
43998W        W12216   1.075  31.546  13.018
43999W        W12217  32.338  27.485  12.086
44000W        W12218  39.974  14.213   0.256
44001W        W12219   1.641  22.690   4.326
44002W        W12220  14.326   0.440  10.981
44003W        W12221  26.745   1.723  11.647
44004W        W12222  38.765   0.488  14.392
44005W        W12223   6.451  31.438  13.991
44006W        W12224  31.790  39.989  11.422
44007W        W12225  38.373  43.249   1.252
44008W        W12226  13.048  36.811   1.374
44009W        W12227   0.873  43.779  11.448
44010W        W12228  31.199  26.988  11.609
44011W        W12229  19.276  39.935   2.269
44012W        W12230  38.410  26.261  14.404
44013W        W12231  11.632  38.090  11.190
44014W        W12232  43.860  34.014  14.749
44015W        W12233  21.166  19.121   4.161
44016W        W12234  14.837   1.893   9.870
44017W        W12235   4.933  30.025   0.910
44018W        W12236  40.460  18.817  11.907
44019W        W12237  10.868  29.084  14.880
44020W        W12238  10.596   4.574  12.299
44021W        W12239  34.030  23.301   1.909
44022W        W12240  34.899  15.786   0.242
44023W        W12241   2.798  13.557  13.480
44024W        W12242   9.776  33.936   3.185
44025W        W12243   0.918   1.053   2.463
44026W        W12244  12.613  31.969   3.212
44027W        W12245  10.151  43.554   4.656
44028W        W12246   0.910  32.029   3.233
44029W        W12247   8.600   2.934  10.651
44030W        W12248   3.914  35.745  11.438
44031W        W12249   3.228  23.093   4.797
44032W        W12250  43.003   1.447   0.907
44033W        W12251  39.921  23.999  11.936
44034W        W12252  35.915   3.170   0.749
44035W        W12253   4.291  15.644   2.811
44036W        W12254  12.565  44.100  11.661
44037W        W12255  11.626  43.901  12.570
44038W        W12256  43.958  18.060   3.648
44039W        W12257   9.004   3.239  14.208
44040W        W12258  28.665   5.530   9.795
44041W        W12259  31.934  26.164  13.906
44042W        W12260  41.895  43.837  14.046
44043W        W12261  13.269  18.531   1.952
44044W        W12262  39.075  31.818  14.901
44045W        W12263  33.599  36.635   2.094
44046W        W12264  21.891  24.527  13.790
44047W        W12265  43.351  27.968   0.930
44048W        W12266  17.074  26.945  14.780
44049W        W12267  26.744  25.296  13.049
44050W        W12268   1.117  13.118  10.312
44051W        W12269  32.421   0.933   0.936
44052W        W12270  17.062  28.128  11.156
44053W        W12271   1.513  29.387  14.268
44054W        W12272  32.519   9.354   4.866
44055W        W12273   4.161   5.133  11.204
44056W        W12274   2.286  36.679  11.521
44057W        W12275  26.258  33.938  12.479
44058W        W12276  35.844   6.822   4.514
44059W        W12277  43.317   0.238  14.973
44060W        W12278  36.534  40.357  10.630
44061W        W12279  19.545  23.173  14.785
44062W        W12280  16.578  10.874  11.094
44063W        W12281   5.422  35.313  14.806
44064W        W12282  11.601  23.543  11.304
44065W        W12283  27.727  27.009   1.365
44066W        W12284  19.657  11.106  14.920
44067W        W12285  20.160   3.967  11.529
44068W        W12286  17.657  37.451   2.120
44069W        W12287   7.358   8.880  14.774
44070W        W12288  26.671  24.098   3.213
44071W        W12289  40.120  17.748  13.744
44072W        W12290  32.215  32.583  12.051
44073W        W12291  19.566   5.390   3.850
44074W        W12292  12.524  41.430   1.879
44075W        W12293  39.764  38.886  14.494
44076W        W12294  26.469   0.919  10.735
44077W        W12295  32.447  16.279  12.073
44078W        W12296  36.411  38.833   3.439
44079W        W12297   7.307  18.277   2.267
44080W        W12298  22.469  25.047   0.857
44081W        W12299  13.173  36.858  12.995
44082W        W12300  40.327  24.523   0.196
44083W        W12301   0.523  12.889   2.830
44084W        W12302  14.077  16.969  14.990
44085W        W12303   8.400  38.678   2.677
44086W        W12304  18.337   2.181   3.673
44087W        W12305  16.913   2.229   0.439
44088W        W12306  43.443  27.973  14.478
44089W        W12307  21.234  10.429   4.352
44090W        W12308  40.759  38.523  11.074
44091W        W12309  31.684  38.389   0.101
44092W        W12310  18.902  11.117   2.250
44093W        W12311  13.852  30.402  12.611
44094W        W12312   8.470  28.169   4.139
44095W        W12313  36.476  25.683   3.778
44096W        W12314   9.809   8.827  13.590
44097W        W12315  26.986   6.320  12.883
44098W        W12316  34.524  36.446   1.955
44099W        W12317  17.439   7.245  10.255
44100W        W12318  12.448  18.610  11.463
44101W        W12319   5.735   2.707   0.498
44102W        W12320  19.065  41.900  10.539
44103W        W12321  36.581  30.944   0.022
44104W        W12322   9.928   6.104  13.952
44105W        W12323  31.485  29.206   3.703
44106W        W12324   2.151  42.104  12.027
44107W        W12325   3.701  27.442   4.986
44108W        W12326  21.617  43.992  11.156
44109W        W12327  31.627   5.695   3.632
44110W        W12328   8.487   4.296   0.931
44111W        W12329  12.863   6.236  14.909
44112W        W12330  19.592  18.381   0.165
44113W        W12331  34.225  20.823  13.793
44114W        W12332  32.510   7.414   3.737
44115W        W12333  31.355  13.722   1.149
44116W        W12334  37.917  18.171  13.622
44117W        W12335  31.895  42.325  14.868
44118W        W12336  11.757  29.944   4.446
44119W        W12337  36.761  13.674  11.543
44120W        W12338  12.157  11.150  11.888
44121W        W12339   2.716  37.408   1.330
44122W        W12340   2.398  15.149  12.028
44123W        W12341  14.873  39.388  10.712
44124W        W12342  16.610  31.260  13.985
44125W        W12343   0.854   9.620   1.166
44126W        W12344  19.387  35.705   3.287
44127W        W12345  31.538   0.429  13.973
44128W        W12346   3.624  21.076   1.404
44129W        W12347   7.142  34.530  12.135
44130W        W12348  11.201  26.034   2.622
44131W        W12349  21.288  28.154  11.573
44132W        W12350   7.413   2.188  10.648
44133W        W12351  25.652  35.561  13.523
44134W        W12352   3.856  44.018   3.158
44135W        W12353  18.573  26.134   1.938
44136W        W12354   4.404  40.300  11.997
44137W        W12355   9.638  20.028   2.857
44138W        W12356   4.382  27.843  11.061
44139W        W12357  28.045  20.979   5.161
44140W        W12358   9.940  43.017   1.341
44141W        W12359  25.684  12.371  10.661
44142W        W12360  11.663  35.199  10.919
44143W        W12361   3.351  39.990  10.703
44144W        W12362  19.752  32.892  11.200
44145W        W12363  28.938  39.796  14.055
44146W        W12364  31.353  41.362   4.063
44147W        W12365  43.718  31.540   0.941
44148W        W12366  39.065  13.831   2.724
44149W        W12367  20.614  21.296   4.683
44150W        W12368   9.289  42.374   2.395
44151W        W12369  13.319  40.728   1.161
44152W        W12370  22.071  18.986   4.793
44153W        W12371  21.408  13.708  11.073
44154W        W12372  19.291  20.074   0.827
44155W        W12373   6.211  29.973   0.968
44156W        W12374  42.831  24.519  14.254
44157W        W12375   5.774  40.807   4.100
44158W        W12376   7.335  27.037  11.739
44159W        W12377  38.892  27.432   4.146
44160W        W12378  20.819   8.709   1.945
44161W        W12379  29.471  12.036  14.988
44162W        W12380  39.922  15.720   1.237
44163W        W12381  26.230  10.022   2.073
44164W        W12382  22.506   3.049  11.502
44165W        W12383  43.316  16.864  11.973
44166W        W12384  41.479  21.489  11.104
44167W        W12385  33.618   6.832  10.695
44168W        W12386  12.459  15.785   0.666
44169W        W12387  11.200  17.557   3.198
44170W        W12388  22.192   3.842   0.459
44171W        W12389  21.481  22.110  12.604
44172W        W12390  20.251  39.965   0.234
44173W        W12391  13.028  35.430   1.289
44174W        W12392  35.946  29.898   2.634
44175W        W12393  23.557  35.485  13.970
44176W        W12394  24.722  26.290   2.362
44177W        W12395  17.188  19.848  11.654
44178W        W12396   7.648  31.221   0.159
44179W        W12397  40.488  41.201   1.821
44180W        W12398  33.867   7.726   0.459
44181W        W12399   9.707  43.020  14.521
44182W        W12400  24.049  22.573   4.596
44183W        W12401  31.030   5.934  10.621
44184W        W12402  28.745  36.912  14.099
44185W        W12403  41.927  42.748  11.991
44186W        W12404  25.131   9.287  12.093
44187W        W12405  16.400  44.846   2.090
44188W        W12406  26.530   6.365  12.610
44189W        W12407   2.434  30.067  11.609
44190W        W12408  34.889  34.862  14.288
44191W        W12409  12.871  35.822   4.171
44192W        W12410  23.864  23.160  10.593
44193W        W12411  39.582  16.585  11.866
44194W        W12412  36.585  40.066  12.083
44195W        W12413   3.086  19.412   0.835
44196W        W12414   7.817  23.729  13.429
44197W        W12415  14.524  14.362   2.990
44198W        W12416  31.436  17.217  14.021
44199W        W12417  39.693   8.432  11.102
44200W        W12418  13.104   1.517   2.730
44201W        W12419  19.722   8.666  11.613
44202W        W12420  15.079  25.933   0.842
44203W        W12421  41.416  17.149   3.696
44204W        W12422  18.599  14.430  14.482
44205W        W12423   7.025   2.798   2.824
44206W        W12424  38.641  41.809  12.006
44207W        W12425  42.761   2.703   3.424
44208W        W12426  30.566  34.636  11.600
44209W        W12427  24.733   1.302  14.033
44210W        W12428  36.369   9.292   0.968
44211W        W12429   4.711   2.716  12.567
44212W        W12430  40.022  43.074  11.875
44213W        W12431  21.058  33.104  14.569
44214W        W12432  17.278  28.848  14.022
44215W        W12433   5.127  36.544   4.515
44216W        W12434  38.268   9.744  13.833
44217W        W12435  14.566  35.502  12.497
44218W        W12436  21.660   9.331   3.756
44219W        W12437  41.730   0.255  12.434
44220W        W12438   6.420  42.357   2.442
44221W        W12439  38.052  21.570  10.672
44222W        W12440  39.338   5.493  13.324
44223W        W12441  40.142  43.112  11.328
44224W        W12442  28.082  30.968   1.476
44225W        W12443  26.974  35.898  12.551
44226W        W12444  28.896  35.818  11.579
44227W        W12445  13.902   0.957   4.075
44228W        W12446  32.702  27.564  13.912
44229W        W12447  38.976  21.237  10.596
44230W        W12448   1.281   2.659   2.757
44231W        W12449  16.639   8.485  13.381
44232W        W12450  40.349  28.496   3.895
44233W        W12451   9.177  39.991  10.541
44234W        W12452   6.128  10.913   2.871
44235W        W12453  43.034  32.245  10.238
44236W        W12454   6.223   7.342  10.726
44237W        W12455  18.095  26.948  10.383
44238W        W12456  16.926   2.216  14.473
44239W        W12457  41.701  40.192  11.673
44240W        W12458  34.510  11.720  12.915
44241W        W12459   9.653  35.564   3.355
44242W        W12460  14.602  37.779  10.501
44243W        W12461  33.748  19.684  10.851
44244W        W12462  24.233  23.914   0.880
44245W        W12463  34.003  10.402   2.553
44246W        W12464  18.624  11.179  10.293
44247W        W12465  25.000   4.020  10.888
44248W        W12466  14.836  14.577   2.327
44249W        W12467  24.726  43.476   0.698
44250W        W12468  16.352  25.589   2.861
44251W        W12469  27.664  20.014   1.853
44252W        W12470   1.437  27.022   4.513
44253W        W12471  26.586  40.044   0.889
44254W        W12472  11.348  32.176  11.568
44255W        W12473  43.845  13.824  14.472
44256W        W12474  39.172  41.462   0.618
44257W        W12475   8.514  18.634   5.432
44258W        W12476  38.443  29.230   2.350
44259W        W12477  35.501  11.272   3.140
44260W        W12478  32.055   8.751   4.713
44261W        W12479  31.908  35.994   2.777
44262W        W12480   7.647  40.237  11.910
44263W        W12481  40.761  17.301  14.432
44264W        W12482  16.519  24.582   4.614
44265W        W12483  42.424  10.134   0.485
44266W        W12484   5.799  42.309  12.199
44267W        W12485  41.512  12.483   0.343
44268W        W12486  12.453   5.865   0.255
44269W        W12487  29.679  30.645   0.710
44270W        W12488  22.159  36.485  10.849
44271W        W12489  30.526  20.507  14.441
44272W        W12490  24.945  17.993   3.303
44273W        W12491  21.029   4.691  11.920
44274W        W12492  17.464  40.831  12.670
44275W        W12493  33.456  34.597  13.125
44276W        W12494  18.589  10.765   4.818
44277W        W12495   1.717  38.555  14.254
44278W        W12496  13.485  15.220  13.562
44279W        W12497  12.585  12.721   2.598
44280W        W12498   2.774  21.167  13.548
44281W        W12499  40.793  40.416  12.434
44282W        W12500  32.439  25.237  11.186
44283W        W12501  28.550  32.162   4.304
44284W        W12502   9.235  24.130   0.219
44285W        W12503   2.778  35.935   4.804
44286W        W12504   2.828  20.862  11.514
44287W        W12505  34.634  29.599   3.311
44288W        W12506  16.210  32.138  12.650
44289W        W12507  33.591  38.742   3.708
44290W        W12508  44.267  27.034  12.590
44291W        W12509  22.029  33.629   4.225
44292W        W12510  20.037   5.328   4.300
44293W        W12511  17.668  26.973  12.983
44294W        W12512   3.267  40.181   4.950
44295W        W12513   1.898   5.428  12.943
44296W        W12514  36.050  31.515   1.701
44297W        W12515   9.884  19.370  14.596
44298W        W12516  17.293  11.085   4.499
44299W        W12517  36.868  39.522  13.932
44300W        W12518  15.668  30.112   2.275
44301W        W12519   1.782   9.618  12.100
44302W        W12520  43.474  35.843  13.873
44303W        W12521  26.702  41.197  12.642
44304W        W12522  23.167  26.507  13.735
44305W        W12523  11.627  17.576   4.463
44306W        W12524  35.502  24.239   0.298
44307W        W12525  28.503  35.684  10.648
44308W        W12526   4.233  24.640   1.306
44309W        W12527   3.914  13.294  14.476
44310W        W12528  24.623  42.569  13.978
44311W        W12529  26.754  23.206  12.473
44312W        W12530  33.014  19.801   4.637
44313W        W12531  22.087  27.584  10.526
44314W        W12532  23.997  38.372  11.205
44315W        W12533  39.373  27.142  11.417
44316W        W12534   0.387  20.343  13.039
44317W        W12535  26.212   5.680   4.086
44318W        W12536  35.461   8.775  11.936
44319W        W12537  37.900  11.271  13.442
44320W        W12538  32.083  22.434   1.674
44321W        W12539  40.068  35.090  11.747
44322W        W12540  44.964  35.002  11.593
44323W        W12541  22.727  23.731   2.652
44324W        W12542  29.051   2.978  14.777
44325W        W12543   4.123  15.094  13.790
44326W        W12544  27.531   7.832   1.769
44327W        W12545  10.711  27.761   3.195
44328W        W12546  20.866  33.872   0.254
44329W        W12547  29.490  19.551   3.247
44330W        W12548  12.866  13.099   2.819
44331W        W12549   2.287   6.686  12.104
44332W        W12550  23.667  20.239  12.410
44333W        W12551  16.499  16.375  11.133
44334W        W12552  13.243   6.231   4.805
44335W        W12553   7.808  43.463  11.703
44336W        W12554   6.252  27.096   3.567
44337W        W12555   8.562  11.247   0.241
44338W        W12556  42.302  13.492   1.574
44339W        W12557  44.322  23.774   4.121
44340W        W12558  16.568  16.031   3.651
44341W        W12559   2.718  31.441   0.811
44342W        W12560   9.394  21.115  13.752
44343W        W12561  13.061  42.982  12.297
44344W        W12562  18.179  22.483   2.342
44345W        W12563  43.005  40.539  13.165
44346W        W12564  17.756  41.132   3.701
44347W        W12565   9.457  21.154   4.470
44348W        W12566  18.479  33.459  14.239
44349W        W12567  36.936  10.296   0.490
44350W        W12568   5.779  35.686  13.993
44351W        W12569  31.144  21.902  14.782
44352W        W12570  39.485  26.374   3.724
44353W        W12571  35.482  37.882   3.122
44354W        W12572  23.697  19.189   0.848
44355W        W12573  17.627  20.213   4.128
44356W        W12574   7.249  40.260  14.991
44357W        W12575  22.725  20.285  12.409
44358W        W12576  13.504  21.284  11.145
44359W        W12577  29.891  42.946   5.124
44360W        W12578  38.994  16.253  10.486
44361W        W12579   2.224  20.249   1.370
44362W        W12580  19.332  36.345   1.750
44363W        W12581   4.925  36.723   2.359
44364W        W12582  39.342  30.714   0.317
44365W        W12583   2.983  37.802  12.719
44366W        W12584   8.683  40.429   3.452
44367W        W12585  33.981   3.755  10.333
44368W        W12586  37.642  22.088   2.388
44369W        W12587   5.749  19.587  14.168
44370W        W12588  25.869  21.292  13.521
44371W        W12589  41.436   1.701   3.664
44372W        W12590   2.039  24.204   4.979
44373W        W12591  41.306   7.214   4.447
44374W        W12592  37.688   7.919   4.179
44375W        W12593  14.296   1.958   4.535
44376W        W12594  14.297  25.481  12.859
44377W        W12595  39.446  41.963  14.320
44378W        W12596  42.680  31.416  13.918
44379W        W12597  29.214  41.530  12.135
44380W        W12598  20.740  29.889  11.100
44381W        W12599  28.862  12.849  14.467
44382W        W12600   1.520   7.283  12.400
44383W        W12601  29.104  27.112  14.520
44384W        W12602  20.450  12.220   0.863
44385W        W12603  36.071  37.063   1.003
44386W        W12604  38.555  12.221   1.413
44387W        W12605  43.917  17.775   4.092
44388W        W12606  36.070  26.022  10.249
44389W        W12607   1.782  43.980  14.833
44390W        W12608  23.542   9.131   2.806
44391W        W12609  17.834   9.599  10.743
44392W        W12610  14.299  34.833  11.521
44393W        W12611  13.485  32.013  12.997
44394W        W12612  30.844  32.599   2.773
44395W        W12613  15.250   3.769   2.453
44396W        W12614  16.032   2.416   2.351
44397W        W12615  33.641  30.667  10.583
44398W        W12616  12.832  32.665  14.317
44399W        W12617  13.134  20.009  12.452
44400W        W12618  21.602   7.860   2.473
44401W        W12619  18.802  17.831   1.043
44402W        W12620  16.087  13.186  10.695
44403W        W12621  11.800  13.808   4.161
44404W        W12622  15.377  17.048   4.841
44405W        W12623  42.281  28.990   0.854
44406W        W12624  38.779  30.348  14.769
44407W        W12625  13.903  26.052   3.711
44408W        W12626  22.075  27.492  13.787
44409W        W12627  17.554  43.188   1.967
44410W        W12628  33.472  24.492   4.657
44411W        W12629  13.099  11.217  10.582
44412W        W12630  22.098  32.362  10.371
44413W        W12631  42.249  40.735   3.823
44414W        W12632  30.077  37.160  13.908
44415W        W12633  16.853  40.184  11.187
44416W        W12634  34.544  11.674   4.483
44417W        W12635   5.831   9.383   1.864
44418W        W12636  35.133   3.712  10.718
44419W        W12637  18.979  39.480   3.401
44420W        W12638  28.671   5.279  14.293
44421W        W12639  36.676  36.373   1.476
44422W        W12640  34.242   7.280  11.601
44423W        W12641  12.590  18.570  12.549
44424W        W12642   7.143  24.583   3.097
44425W        W12643  42.879  28.911   4.197
44426W        W12644  36.086  10.878  11.533
44427W        W12645  20.022   9.500  12.199
44428W        W12646  19.185  14.838   2.311
44429W        W12647  31.579  38.510  10.707
44430W        W12648  26.246   3.769  12.009
44431W        W12649  11.721  20.534  13.324
44432W        W12650  20.143  36.302   2.015
44433W        W12651   4.778  37.208   1.338
44434W        W12652  25.915  41.387   0.375
44435W        W12653  43.312   6.958  14.389
44436W        W12654  31.203  40.606   3.574
44437W        W12655  38.357  43.967  13.750
44438W        W12656  11.216  20.044  13.759
44439W        W12657  43.322  30.701  11.249
44440W        W12658  14.702   8.730  14.193
44441W        W12659  42.534   0.969  13.825
44442W        W12660  40.851   4.429  12.425
44443W        W12661  33.951  31.793   4.583
44444W        W12662  29.085  28.438  14.832
44445W        W12663  40.963  21.488   1.013
44446W        W12664  21.131  20.634  14.625
44447W        W12665  29.505  15.075  14.350
44448W        W12666  41.262  28.732  10.596
44449W        W12667  28.152  36.630   0.334
44450W        W12668  28.870  40.530   4.176
44451W        W12669  34.692  39.523   1.764
44452W        W12670  30.490  13.869  10.702
44453W        W12671  12.727  16.234   0.038
44454W        W12672  12.334   9.410   1.914
44455W        W12673   1.936  23.599   3.120
44456W        W12674  26.567  10.680   4.258
44457W        W12675   6.399  26.049   4.232
44458W        W12676  29.443  22.106   1.820
44459W        W12677   0.957  31.543  11.669
44460W        W12678   7.342   0.426   0.584
44461W        W12679  38.570   0.688   9.733
44462W        W12680   9.085  14.184   0.222
44463W        W12681  27.445  31.335  12.967
44464W        W12682  26.970   5.429   4.372
44465W        W12683  40.844  34.103  11.080
44466W        W12684  19.225  38.414  13.536
44467W        W12685  15.914  20.558   1.811
44468W        W12686   7.397  18.285  11.154
44469W        W12687  32.380   1.400   1.680
44470W        W12688   8.715  15.325   2.119
44471W        W12689  12.191  11.665   0.815
44472W        W12690  31.708  35.042   3.668
44473W        W12691  27.501  19.562  10.577
44474W        W12692  27.603  29.840   4.058
44475W        W12693  29.942  27.691   4.158
44476W        W12694   8.172  36.443  12.077
44477W        W12695  17.275  18.473  11.525
44478W        W12696  15.676  15.825   4.119
44479W        W12697  32.205  29.052   1.963
44480W        W12698   7.504  34.969  14.396
44481W        W12699   8.254  41.337  14.815
44482W        W12700  17.079  44.650  11.966
44483W        W12701  26.678  37.272   1.323
44484W        W12702   8.533  37.991   4.076
44485W        W12703  32.761  24.787   3.346
44486W        W12704  32.158   2.460  11.917
44487W        W12705  26.234  23.079  12.370
44488W        W12706  41.471  40.324  14.709
44489W        W12707   0.752  10.211  14.052
44490W        W12708  32.617  32.883   2.328
44491W        W12709  27.366  23.226   2.852
44492W        W12710  21.630  24.340   4.118
44493W        W12711  16.552  43.390  10.393
44494W        W12712  17.912  32.937  13.839
44495W        W12713  26.172  17.656   2.900
44496W        W12714  15.750  44.326   1.726
44497W        W12715   2.275  32.653   0.441
44498W        W12716  38.942  25.523   2.817
44499W        W12717   5.786  28.967  13.777
44500W        W12718  26.946  21.581   3.257
44501W        W12719  32.460  19.768   3.708
44502W        W12720   9.270   1.653  13.792
44503W        W12721  34.620  39.955   4.109
44504W        W12722  23.328   2.874  12.885
44505W        W12723  23.077  22.234   4.371
44506W        W12724   5.194  37.577   0.459
44507W        W12725  44.971   0.177  11.170
44508W        W12726  32.027  26.553   9.991
44509W        W12727  24.079  10.118  10.283
44510W        W12728  33.075  36.601   3.864
44511W        W12729   7.580  29.347   4.075
44512W        W12730  13.159  10.285   2.400
44513W        W12731  23.004  11.868  14.056
44514W        W12732  12.150  32.351   2.735
44515W        W12733  13.248  16.160  11.362
44516W        W12734  10.590  44.958   4.786
44517W        W12735   5.176  24.631  14.710
44518W        W12736  27.255  40.317  13.860
44519W        W12737  28.528  27.995   0.847
44520W        W12738  42.697   5.880  11.139
44521W        W12739  30.959  19.599  11.474
44522W        W12740  24.573  25.811  13.065
44523W        W12741   3.132  23.050  12.963
44524W        W12742  19.644  42.295   1.636
44525W        W12743  13.285   0.515  10.275
44526W        W12744   7.665  29.734   2.208
44527W        W12745  29.128  31.169   2.684
44528W        W12746   4.763  42.287  13.111
44529W        W12747  19.125  10.362   3.258
44530W        W12748  22.120  10.598  13.834
44531W        W12749   5.904  23.528  11.709
44532W        W12750  17.043   6.367  13.476
44533W        W12751   7.483  21.058  13.027
44534W        W12752   8.593  14.269   5.019
44535W        W12753   5.739  19.117  11.547
44536W        W12754   9.176  16.908   2.234
44537W        W12755  35.120   2.311  13.313
44538W        W12756  22.708  26.674   2.031
44539W        W12757  19.821  22.586   0.443
44540W        W12758   4.190  40.845   3.672
44541W        W12759  43.018  42.487   2.012
44542W        W12760  25.795   9.814   3.712
44543W        W12761   1.057  10.390  11.987
44544W        W12762  42.015  14.569  14.984
44545W        W12763  37.549  24.013  12.528
44546W        W12764  43.442   2.767   0.768
44547W        W12765  25.066  34.131  13.086
44548W        W12766  40.463   8.996  10.810
44549W        W12767   9.143  14.010  10.224
44550W        W12768  37.075  41.403  11.504
44551W        W12769  38.620  32.674   2.294
44552W        W12770  37.616  38.986  11.136
44553W        W12771  21.727  37.134  11.557
44554W        W12772  38.373  36.229   2.068
44555W        W12773  40.261  12.278  10.424
44556W        W12774  12.103   3.838   4.774
44557W        W12775   2.394  30.253   4.218
44558W        W12776  11.935  26.504   2.919
44559W        W12777  11.037  23.749  14.562
44560W        W12778   6.946   8.643   3.431
44561W        W12779  11.016   4.854  12.495
44562W        W12780  27.959   4.675   2.706
44563W        W12781  42.582   8.276   2.430
44564W        W12782   1.348   2.213   1.670
44565W        W12783  14.630  34.417   2.699
44566W        W12784  14.189   0.554   2.866
44567W        W12785  33.838  17.168   3.695
44568W        W12786   0.709  34.435  11.499
44569W        W12787   1.364  44.761   3.210
44570W        W12788  16.604  44.784   0.779
44571W        W12789  42.503   7.125   2.788
44572W        W12790  13.041   3.345   1.817
44573W        W12791  15.408   4.162  14.924
44574W        W12792  40.379  38.474   0.521
44575W        W12793  39.476  10.526  14.029
44576W        W12794  36.970  19.739  13.853
44577W        W12795   6.592  35.840  12.477
44578W        W12796  35.522  15.535  10.739
44579W        W12797  10.672  17.045  11.222
44580W        W12798  11.404   7.811   2.332
44581W        W12799   5.188  12.601  14.499
44582W        W12800   4.327  23.754  12.437
44583W        W12801  35.013   0.498   1.158
44584W        W12802  30.062  16.127   2.281
44585W        W12803  42.393  23.671   2.859
44586W        W12804  11.825   6.407   0.910
44587W        W12805  39.438   5.468   2.479
44588W        W12806  40.384  33.427   0.073
44589W        W12807  44.016  17.043  12.490
44590W        W12808   6.726   2.141   0.469
44591W        W12809  18.646  28.966  13.666
44592W        W12810   0.499  30.951   1.985
44593W        W12811  34.294  29.224  11.233
44594W        W12812  41.922  27.763  13.331
44595W        W12813  21.561   6.244   4.355
44596W        W12814  32.853  32.452  11.217
44597W        W12815  20.986  19.366   3.031
44598W        W12816  42.365  32.340  14.804
44599W        W12817  25.896  35.959  13.278
44600W        W12818  40.964  24.745  12.646
44601W        W12819  11.577  24.063  11.583
44602W        W12820   5.782  10.665  13.136
44603W        W12821  23.247  15.371   3.668
44604W        W12822  18.721  31.649  13.961
44605W        W12823   0.912  18.368   0.914
44606W        W12824  17.877  17.679  13.460
44607W        W12825  44.753   5.691  14.503
44608W        W12826  17.208  37.600  14.967
44609W        W12827   8.988  14.916   3.982
44610W        W12828  11.706  34.334   0.128
44611W        W12829  32.463  41.410  13.352
44612W        W12830  31.202  12.709  11.593
44613W        W12831  33.811  33.015  12.873
44614W        W12832  14.790  41.633   3.686
44615W        W12833   0.463  12.067   4.534
44616W        W12834   2.752  27.148  13.522
44617W        W12835  41.402  24.632   2.680
44618W        W12836   8.969   6.976  12.004
44619W        W12837  20.309   2.108  14.501
44620W        W12838  42.088  43.532   4.503
44621W        W12839  24.505  13.447   2.161
44622W        W12840  24.497   5.819  11.688
44623W        W12841   9.933   1.949  10.315
44624W        W12842  18.131  25.820   0.412
44625W        W12843  37.368   5.461   0.455
44626W        W12844  29.461  28.600  12.424
44627W        W12845  14.388  15.113  14.316
44628W        W12846  18.806   5.235  10.605
44629W        W12847  38.920  31.881   0.740
44630W        W12848  27.392  16.154   4.105
44631W        W12849   1.035  20.586  13.879
44632W        W12850  43.798  31.646  12.572
44633W        W12851  21.496  36.901  11.174
44634W        W12852  23.298  32.166   0.851
44635W        W12853  41.579  29.981  14.976
44636W        W12854   3.897   2.544   3.660
44637W        W12855  36.811  37.550  14.318
44638W        W12856   9.233   6.410  12.876
44639W        W12857  40.055  44.324  13.718
44640W        W12858   2.236  37.830  13.333
44641W        W12859   5.762  22.302  14.489
44642W        W12860  42.914  19.010   1.002
44643W        W12861  44.298  15.298   3.389
44644W        W12862  15.678  21.533   3.084
44645W        W12863  40.565  22.682  13.870
44646W        W12864  21.195   0.499   4.479
44647W        W12865  32.419  21.608  14.443
44648W        W12866  29.933   9.345   3.334
44649W        W12867  35.058  29.435   1.268
44650W        W12868  28.233  19.060  11.906
44651W        W12869  31.420  34.438   4.304
44652W        W12870   9.898  24.151  12.832
44653W        W12871  42.652  18.277   2.192
44654W        W12872  25.583  10.549   0.929
44655W        W12873  17.872  35.918   0.965
44656W        W12874  40.885   4.986   3.239
44657W        W12875  14.049  28.971  13.427
44658W        W12876  11.827  19.027   4.693
44659W        W12877   6.287  16.697   2.112
44660W        W12878  10.389  35.355   2.261
44661W        W12879  32.238  31.499  13.275
44662W        W12880   2.838  14.112  12.736
44663W        W12881  14.676  17.208   0.381
44664W        W12882  28.978  11.607   4.099
44665W        W12883   5.963  43.554   4.032
44666W        W12884  24.930   7.205  11.445
44667W        W12885  39.824  18.253  10.781
44668W        W12886  23.615  26.709  10.903
44669W        W12887  11.165  37.890  13.393
44670W        W12888  17.333  13.587  14.470
44671W        W12889  23.813  42.045   1.749
44672W        W12890  35.013   5.336   1.846
44673W        W12891  25.482  41.826   0.737
44674W        W12892  14.985  43.700   1.265
44675W        W12893  17.518  25.239  10.489
44676W        W12894  16.388  12.090   4.647
44677W        W12895  27.616   0.189   1.663
44678W        W12896  17.252  26.951  12.442
44679W        W12897   3.769  34.688   4.548
44680W        W12898  16.013  44.554   1.297
44681W        W12899  30.802  11.744  14.577
44682W        W12900  16.464  40.350  13.562
44683W        W12901  20.106   9.886  11.289
44684W        W12902   3.611  38.779   0.044
44685W        W12903  10.621   9.219   0.050
44686W        W12904  18.653  16.202   5.471
44687W        W12905  10.767  36.447  12.968
44688W        W12906   0.204  42.597   1.877
44689W        W12907   5.445  29.712  13.436
44690W        W12908  33.888   1.447   1.852
44691W        W12909  22.639  40.965   1.224
44692W        W12910  13.747  31.128  13.104
44693W        W12911  24.936   6.810  10.712
44694W        W12912   7.341  20.042  12.447
44695W        W12913  44.427   3.742  13.955
44696W        W12914  42.802   8.165   4.997
44697W        W12915  32.871  19.150  11.447
44698W        W12916  41.308  39.558   3.899
44699W        W12917  22.036  39.748  13.090
44700W        W12918  10.802  36.378   1.349
44701W        W12919  19.160   5.289   2.646
44702W        W12920  39.732  30.544   0.038
44703W        W12921  19.071  34.550  14.902
44704W        W12922  26.638  36.551   3.578
44705W        W12923  43.390  12.230   2.964
44706W        W12924  43.710  18.089  13.348
44707W        W12925  30.382  10.734  10.562
44708W        W12926   8.744  20.335  10.735
44709W        W12927  28.541  18.554  10.570
44710W        W12928  28.917  44.348   2.329
44711W        W12929  16.282   4.956   2.722
44712W        W12930  38.412  11.779   0.913
44713W        W12931  26.917  10.195   0.457
44714W        W12932  41.064   0.874   4.776
44715W        W12933  20.751  32.016  12.037
44716W        W12934   3.838  12.837   0.821
44717W        W12935  31.972  15.996   2.666
44718W        W12936   5.228  34.114  14.510
44719W        W12937  10.567   7.316  14.178
44720W        W12938   3.454   3.796  12.899
44721W        W12939  21.027  13.065   1.711
44722W        W12940  11.881  19.806   4.164
44723W        W12941   2.812  10.870  12.877
44724W        W12942  12.576  13.395  14.626
44725W        W12943  43.088  35.821  12.024
44726W        W12944   4.273   4.410   4.634
44727W        W12945  38.847  39.437  12.180
44728W        W12946  35.275  36.236   1.309
44729W        W12947  42.691  33.022   2.822
44730W        W12948  21.087  40.203   4.997
44731W        W12949  36.230  42.875   0.745
44732W        W12950  28.485   3.341   1.848
44733W        W12951  23.606  23.021  13.224
44734W        W12952  19.123   7.359   0.438
44735W        W12953  18.237   0.283   0.352
44736W        W12954  34.383  20.220   3.545
44737W        W12955   1.173  26.797  14.518
44738W        W12956   6.960  34.002   0.160
44739W        W12957  38.408  43.286  11.417
44740W        W12958   0.399  32.800   0.970
44741W        W12959   8.061  33.988   2.228
44742W        W12960  13.656  32.789  11.387
44743W        W12961   5.222  31.443   3.527
44744W        W12962   6.988  38.039  13.483
44745W        W12963  17.707  14.021   4.204
44746W        W12964  15.211  27.682  13.941
44747W        W12965  33.749  41.504   2.288
44748W        W12966  20.668  37.102   1.014
44749W        W12967  42.511   4.324   0.237
44750W        W12968  33.363  41.895  14.824
44751W        W12969   9.779  33.341  13.032
44752W        W12970  41.770  26.970   4.569
44753W        W12971   5.486  11.779   0.499
44754W        W12972  41.993  32.974  14.515
44755W        W12973  30.109   5.317   3.230
44756W        W12974  28.657  40.757   2.763
44757W        W12975  31.526  21.827  11.536
44758W        W12976  11.161  27.768  14.359
44759W        W12977   4.404   4.590  14.888
44760W        W12978  19.221  42.042  13.360
44761W        W12979   6.174  21.267  11.225
44762W        W12980   3.276  17.131  11.388
44763W        W12981  11.365  13.104  14.315
44764W        W12982  38.558   8.249  12.815
44765W        W12983  17.617  38.476   1.387
44766W        W12984   9.262   1.072  11.052
44767W        W12985  28.405  34.377  14.338
44768W        W12986  25.526  15.292   3.653
44769W        W12987  26.222  26.266   0.880
44770W        W12988  28.054  12.166   3.113
44771W        W12989  17.768  44.519  13.292
44772W        W12990  10.672   4.839   3.131
44773W        W12991   7.875  25.771  14.908
44774W        W12992  43.619  37.010   0.741
44775W        W12993  27.961  34.617   2.804
44776W        W12994  37.639  29.883   1.816
44777W        W12995  44.881  12.550   0.826
44778W        W12996  44.675  32.635   1.242
44779W        W12997  20.945  41.094   4.043
44780W        W12998  24.072  22.761  12.061
44781W        W12999  23.753  28.837  12.781
44782W        W13000  21.004  37.405  13.875
44783W        W13001  44.878  17.358  10.663
44784W        W13002  14.728  44.073  10.331
44785W        W13003  39.828   6.444  12.091
44786W        W13004  17.498   6.368  11.404
44787W        W13005  39.221  44.978   4.149
44788W        W13006  17.055   9.131  10.387
44789W        W13007  15.627   5.780  12.062
44790W        W13008   9.298  44.748   1.310
44791W        W13009  17.190   2.249   4.121
44792W        W13010  12.899  36.973  14.964
44793W        W13011   4.210  43.228   2.969
44794W        W13012  37.039  42.969   4.652
44795W        W13013  33.332  19.687   9.711
44796W        W13014  11.269   3.879   4.082
44797W        W13015  18.136  16.322   1.294
44798W        W13016   7.653  36.078  10.842
44799W        W13017  42.336  12.782  11.002
44800W        W13018  10.198  37.972   0.721
44801W        W13019  36.391   6.272   4.603
44802W        W13020  34.608  27.181   2.892
44803W        W13021  20.290  24.779  14.388
44804W        W13022  30.531  17.492   1.855
44805W        W13023   7.668  27.629  11.641
44806W        W13024  14.396   0.456  11.511
44807W        W13025  13.176  16.630  11.589
44808W        W13026  22.296   8.620   1.746
44809W        W13027  16.786  35.250  11.499
44810W        W13028  21.766  23.471  14.984
44811W        W13029  30.228  16.052   0.734
44812W        W13030  24.990  15.735   2.723
44813W        W13031  24.879  21.987   1.672
44814W        W13032  38.959  32.083   1.232
44815W        W13033  42.786   0.169  10.747
44816W        W13034  32.366  35.247   5.019
44817W        W13035  10.869  25.106  12.933
44818W        W13036  25.516  18.703  13.790
44819W        W13037  15.772   7.575   3.303
44820W        W13038  19.962  21.676   0.567
44821W        W13039  23.704   9.221  10.694
44822W        W13040   6.814  31.675  11.951
44823W        W13041   0.375  25.207   3.648
44824W        W13042  37.546  22.652   1.500
44825W        W13043  43.171  43.603   2.878
44826W        W13044  13.185  30.959   2.205
44827W        W13045   3.572  36.874   3.511
44828W        W13046  36.468  27.626   3.129
44829W        W13047  23.179   6.720   4.539
44830W        W13048  12.632  11.784   4.697
44831W        W13049  27.884  35.095   2.575
44832W        W13050  37.216   6.334   4.060
44833W        W13051   2.423   8.169   2.745
44834W        W13052  40.968  22.774  14.621
44835W        W13053  15.693  20.517  14.594
44836W        W13054  42.897  27.180   0.273
44837W        W13055  32.609  29.120   2.338
44838W        W13056  16.885   6.774  14.036
44839W        W13057   6.226  19.991  12.131
44840W        W13058  17.737  20.746   0.891
44841W        W13059  35.118  22.742  12.541
44842W        W13060  29.504   9.175   0.513
44843W        W13061   2.168  23.151   1.510
44844W        W13062  38.309   8.422  14.347
44845W        W13063  21.052   2.181  14.770
44846W        W13064  10.714  28.168   4.516
44847W        W13065  27.405  35.109   3.592
44848W        W13066  30.116  40.317  12.651
44849W        W13067  13.815  44.476  13.881
44850W        W13068  38.177  26.394   4.792
44851W        W13069  12.187  30.028   4.800
44852W        W13070  13.191  25.258  14.121
44853W        W13071  14.925  42.067  14.041
44854W        W13072  43.793  23.502  12.154
44855W        W13073  32.117  32.621   2.321
44856W        W13074  12.146  31.751  10.749
44857W        W13075  39.550  42.003   3.651
44858W        W13076  40.052  17.988  12.073
44859W        W13077  20.344  43.273  13.807
44860W        W13078  29.897  38.935  14.396
44861W        W13079  42.836  18.512   4.354
44862W        W13080  41.452   8.583  14.368
44863W        W13081  23.745  34.488  14.091
44864W        W13082  15.332  32.323   3.184
44865W        W13083   8.851  13.832  11.579
44866W        W13084  25.990  31.101   2.792
44867W        W13085   1.657  23.171   3.758
44868W        W13086  33.642  32.525  12.046
44869W        W13087  16.634   2.667   0.471
44870W        W13088  40.106   1.711   4.505
44871W        W13089  43.252  22.612   3.403
44872W        W13090  21.992   7.686  13.723
44873W        W13091  44.577   5.679   2.343
44874W        W13092  27.091  31.480  13.322
44875W        W13093  28.209  18.310  13.109
44876W        W13094  24.638  22.670   1.199
44877W        W13095  41.976  29.025   1.919
44878W        W13096   2.964   4.389   1.389
44879W        W13097  23.665   8.476  13.361
44880W        W13098  23.220  27.088  10.898
44881W        W13099  40.382  24.720   3.693
44882W        W13100  26.775  32.138   3.003
44883W        W13101  19.855   7.416   0.789
44884W        W13102   6.277  20.669   0.942
44885W        W13103   1.002  16.634   1.895
44886W        W13104  37.229  42.341  14.255
44887W        W13105   3.496  32.421  13.108
44888W        W13106  35.591  41.606  13.038
44889W        W13107  43.017  38.917  13.437
44890W        W13108  22.997   5.841   1.869
44891W        W13109  34.011   3.914   1.208
44892W        W13110  16.606   2.087   1.763
44893W        W13111  41.464  18.067   0.421
44894W        W13112  13.927   8.178  14.425
44895W        W13113   7.087   4.369  13.414
44896W        W13114  12.228  35.604  13.804
44897W        W13115   3.255   6.223  10.569
44898W        W13116   0.724  12.800  14.348
44899W        W13117   2.625  11.732   2.313
44900W        W13118  19.622  23.446  11.621
44901W        W13119  43.340  44.229  12.476
44902W        W13120  35.665  16.110   3.238
44903W        W13121  20.210  21.021  13.843
44904W        W13122  16.591   4.702   0.270
44905W        W13123   9.700  12.552   3.258
44906W        W13124  32.621  14.097  11.474
44907W        W13125  26.684  24.075  13.503
44908W        W13126   6.755  35.633  13.933
44909W        W13127  36.824  15.711   2.401
44910W        W13128  43.297  22.333   1.130
44911W        W13129  18.535  21.627  11.998
44912W        W13130   6.733   0.834   2.827
44913W        W13131   9.281  41.479   1.906
44914W        W13132  34.823   4.673   0.559
44915W        W13133  25.721  36.725  10.942
44916W        W13134  11.724  13.867   3.231
44917W        W13135  14.744  32.583  12.825
44918W        W13136  27.998   2.074  14.832
44919W        W13137  12.806  31.918  12.651
44920W        W13138  31.230  41.357  14.062
44921W        W13139  30.413  38.824   2.874
44922W        W13140   6.930   6.317   1.890
44923W        W13141  24.121  32.107  12.791
44924W        W13142  18.615  42.302   3.856
44925W        W13143   7.904  31.829   2.897
44926W        W13144   5.849  19.216   1.454
44927W        W13145   6.998  34.908   0.670
44928W        W13146  35.691  28.931  13.379
44929W        W13147  37.442  30.100  10.546
44930W        W13148  31.891   0.867   1.728
44931W        W13149  32.480  33.211  12.374
44932W        W13150  29.178  37.400   4.743
44933W        W13151   4.665   1.810  11.609
44934W        W13152   2.973  42.070   3.725
44935W        W13153  16.600  24.676  13.069
44936W        W13154   1.845  15.956  14.962
44937W        W13155   6.382  21.976   3.004
44938W        W13156  11.234  36.332   2.836
44939W        W13157  29.944  37.471   3.644
44940W        W13158  17.957  12.736   4.673
44941W        W13159   9.436   5.343  14.951
44942W        W13160  13.796  38.989  11.324
44943W        W13161  25.065  26.184   1.389
44944W        W13162  10.758  29.877   2.294
44945W        W13163  30.992  10.434   4.554
44946W        W13164  15.413  36.596   2.332
44947W        W13165  14.900  10.393   1.489
44948W        W13166   8.253   5.036   2.166
44949W        W13167   9.580   5.372   1.747
44950W        W13168   1.347  40.968   4.620
44951W        W13169  38.674   4.998   1.533
44952W        W13170  39.894  27.059  12.094
44953W        W13171  23.612  40.705   0.395
44954W        W13172  10.151  28.688  14.379
44955W        W13173  26.143   3.721  14.495
44956W        W13174  33.532  39.052   4.638
44957W        W13175   8.337  27.734   1.893
44958W        W13176  23.682  27.177  11.117
44959W        W13177  12.963   2.139   9.971
44960W        W13178  18.895  29.949   5.134
44961W        W13179  25.296   0.559  14.467
44962W        W13180   2.780   6.906   1.162
44963W        W13181  33.282  23.626  12.973
44964W        W13182  28.509  30.583   3.248
44965W        W13183   8.952   3.973   0.311
44966W        W13184  17.972  24.163   3.248
44967W        W13185  38.929  28.978  12.496
44968W        W13186  16.808  23.040   4.183
44969W        W13187   5.442  23.315   1.160
44970W        W13188  36.341  21.150   0.246
44971W        W13189   3.347  26.213   1.545
44972W        W13190  14.548  20.056   3.766
44973W        W13191  11.057  15.728  11.593
44974W        W13192  14.356  41.447   2.363
44975W        W13193  32.918   1.838   4.692
44976W        W13194   3.830   5.462  13.782
44977W        W13195  20.686  35.078   0.055
44978W        W13196   6.279   6.684   3.834
44979W        W13197  38.594  28.441   2.388
44980W        W13198  32.013   6.390   2.687
44981W        W13199   9.265  25.004  14.501
44982W        W13200  25.158  19.078   4.656
44983W        W13201  38.044   4.371   2.161
44984W        W13202  24.385  27.150   1.264
44985W        W13203  33.382   5.527   3.802
44986W        W13204  42.349  43.543  14.148
44987W        W13205  37.044  39.520   4.317
44988W        W13206  16.294  37.566  10.486
44989W        W13207  16.755  24.755   1.012
44990W        W13208  26.984  42.436  10.705
44991W        W13209  20.651  16.219  11.711
44992W        W13210  24.571  14.076   4.045
44993W        W13211   0.041  36.157   1.760
44994W        W13212  38.477  10.452   3.616
44995W        W13213  44.572  41.007  12.013
44996W        W13214  30.194  22.280   0.592
44997W        W13215  41.751  33.342  14.026
44998W        W13216   4.928   8.964   0.459
44999W        W13217  22.092   9.377  11.920
45000W        W13218  24.577   1.302  11.977
45001W        W13219  17.167  31.569   0.072
45002W        W13220   2.268   5.729   5.003
45003W        W13221  33.988  38.897   4.047
45004W        W13222  21.799  26.591   2.353
45005W        W13223  34.369  21.776  13.125
45006W        W13224  26.649  22.101   9.774
45007W        W13225   4.652   4.137  14.326
45008W        W13226  32.495  17.333  13.211
45009W        W13227   8.477   9.970   4.339
45010W        W13228  12.239  36.993  10.877
45011W        W13229  22.877  31.499  13.071
45012W        W13230  40.549  33.150   3.171
45013W        W13231  28.632  21.552  11.603
45014W        W13232  14.148   9.433  11.228
45015W        W13233  36.029  19.715   1.761
45016W        W13234  30.530  36.847   4.089
45017W        W13235   7.250  19.177  10.575
45018W        W13236   4.854   4.014   1.371
45019W        W13237  29.174   4.964   0.772
45020W        W13238  24.785  14.254   3.591
45021W        W13239   9.821  35.984   3.118
45022W        W13240  22.572  29.959   3.735
45023W        W13241  17.702  10.770   4.760
45024W        W13242  29.406   3.950   4.142
45025W        W13243  20.322   8.582   3.842
45026W        W13244  24.546  18.702   3.338
45027W        W13245  40.097  20.888   4.581
45028W        W13246  25.472  43.234  10.302
45029W        W13247  30.686  18.488   1.586
45030W        W13248  43.097  25.587   0.302
45031W        W13249  22.581  33.472  13.910
45032W        W13250  10.524  34.930  13.799
45033W        W13251  30.068   0.749  11.115
45034W        W13252   9.302  44.392   2.882
45035W        W13253  34.347   0.767  13.527
45036W        W13254  37.356  40.748  10.793
45037W        W13255  10.764  28.143  14.514
45038W        W13256  12.697   3.133   5.247
45039W        W13257  21.292   7.881  11.485
45040W        W13258  24.026  35.569  12.387
45041W        W13259  11.290  28.679   0.832
45042W        W13260  23.209  12.165  14.898
45043W        W13261  20.340   3.187  11.146
45044W        W13262  17.660   5.128   1.893
45045W        W13263  37.371  36.347  12.383
45046W        W13264  16.205   1.969  14.966
45047W        W13265  12.249   8.686   4.829
45048W        W13266  28.653  35.833   3.597
45049W        W13267  20.373  20.175  11.130
45050W        W13268  15.727  37.545  11.169
45051W        W13269  15.353  25.217   2.238
45052W        W13270  27.741  24.060  11.229
45053W        W13271  12.780   4.295  11.231
45054W        W13272  20.218  28.989   4.804
45055W        W13273   0.993  32.140  12.855
45056W        W13274  34.062   0.470   1.124
45057W        W13275  39.436  23.070   1.671
45058W        W13276  34.955  38.580  13.356
45059W        W13277  34.321   8.655   0.476
45060W        W13278  43.595  10.343  12.731
45061W        W13279   8.652  31.079   2.371
45062W        W13280  16.225   7.853   3.784
45063W        W13281  30.651  12.873  12.460
45064W        W13282   2.809  36.422   4.628
45065W        W13283   4.644  33.946  11.432
45066W        W13284  33.674  28.073  12.661
45067W        W13285  30.200  32.845   1.239
45068W        W13286   4.207  40.493  12.423
45069W        W13287  39.670  24.097   4.246
45070W        W13288  40.597  29.872  14.827
45071W        W13289  26.715  25.898   1.283
45072W        W13290  20.634  44.384  11.361
45073W        W13291  30.955  25.585   4.739
45074W        W13292  20.458  16.149   1.769
45075W        W13293  36.446   4.610   3.370
45076W        W13294  32.741  44.897  14.411
45077W        W13295   3.021  37.309   3.216
45078W        W13296   9.571  28.214  13.232
45079W        W13297  10.761  21.581  10.699
45080W        W13298   4.704  20.738  13.139
45081W        W13299  34.299   2.834  14.844
45082W        W13300  43.251  22.321  12.554
45083W        W13301  11.820  31.976   2.651
45084W        W13302  19.186   3.811   0.885
45085W        W13303  20.697   1.293  14.544
45086W        W13304  13.576  19.677   1.039
45087W        W13305  24.311  36.974   1.208
45088W        W13306   3.920  24.549   3.196
45089W        W13307  29.086  10.613   0.913
45090W        W13308  41.744  26.039  12.672
45091W        W13309  17.519  40.064  14.970
45092W        W13310  13.595  42.616  12.013
45093W        W13311   5.379  35.936   2.227
45094W        W13312  41.784  13.601  13.468
45095W        W13313  12.553  42.295  10.853
45096W        W13314  17.081  35.961   4.724
45097W        W13315  34.455  16.009  14.982
45098W        W13316  33.629  32.547  13.006
45099W        W13317  34.104  14.313  12.400
45100W        W13318  38.989  31.187  12.201
45101W        W13319  22.596  18.740   4.268
45102W        W13320  25.901  15.462   3.102
45103W        W13321  23.790  23.210  11.987
45104W        W13322  15.383  37.000  13.898
45105W        W13323  14.189  32.085  12.505
45106W        W13324  11.478  19.181   1.971
45107W        W13325  23.500  37.582  12.639
45108W        W13326  36.055   5.739   0.165
45109W        W13327   1.710  34.638   0.853
45110W        W13328  20.935  20.760  11.638
45111W        W13329  11.166  32.916   3.532
45112W        W13330  25.276   5.692   0.383
45113W        W13331  15.140  41.572   0.470
45114W        W13332   9.468  44.300   3.392
45115W        W13333  36.121  10.589   1.946
45116W        W13334   1.333   8.160  11.495
45117W        W13335  17.930  33.726   1.324
45118W        W13336  14.384  40.044  11.635
45119W        W13337   1.870  12.054  14.412
45120W        W13338   6.322  34.119  10.690
45121W        W13339  27.190   4.471  13.498
45122W        W13340  12.124   0.553  13.548
45123W        W13341  17.323  11.296   0.307
45124W        W13342  25.423  27.065  10.779
45125W        W13343   5.353  12.343   3.177
45126W        W13344  12.108  28.446  11.071
45127W        W13345  13.372  28.225  13.515
45128W        W13346  44.807   1.237   4.735
45129W        W13347  29.915   8.023   1.828
45130W        W13348  24.584   2.364  10.893
45131W        W13349   6.788  35.608   4.682
45132W        W13350   1.669  24.095   3.817
45133W        W13351  12.265  20.769   1.096
45134W        W13352  24.770   5.904  13.469
45135W        W13353  39.070  39.342   0.319
45136W        W13354  25.208  14.310   4.708
45137W        W13355   0.307  40.013   2.348
45138W        W13356  21.907  41.633   3.913
45139W        W13357  32.399  12.325   3.269
45140W        W13358  11.854  30.971   4.749
45141W        W13359  36.906  44.985  12.161
45142W        W13360  31.851  18.899  13.857
45143W        W13361  34.518  19.913   1.871
45144W        W13362   8.783   3.228  11.052
45145W        W13363   3.737  28.103  12.092
45146W        W13364  19.800  18.473   4.979
45147W        W13365   2.828  40.834   3.310
45148W        W13366  41.900  11.939  11.123
45149W        W13367  43.866  30.188  14.761
45150W        W13368   2.470   2.803  14.553
45151W        W13369  37.629  13.229  14.339
45152W        W13370  39.801  41.575   3.175
45153W        W13371  15.577  37.445   2.689
45154W        W13372  19.800  44.789   3.322
45155W        W13373  26.678   3.778   1.481
45156W        W13374  14.643  30.513  10.531
45157W        W13375  44.604  38.901   5.167
45158W        W13376  28.012   7.399   4.637
45159W        W13377   6.792  42.832  12.478
45160W        W13378   0.856   2.442  13.078
45161W        W13379  40.299  44.949  11.784
45162W        W13380  23.147   7.714  11.977
45163W        W13381  16.134  17.280   3.117
45164W        W13382  26.916   0.731  14.259
45165W        W13383  43.934  20.914   0.302
45166W        W13384  21.542  43.522  11.962
45167W        W13385  11.689  11.692  10.910
45168W        W13386  38.508   5.756   4.466
45169W        W13387  27.131  20.182   1.804
45170W        W13388  35.964  29.678   1.689
45171W        W13389  37.308  22.132   0.236
45172W        W13390  29.396   3.475   2.353
45173W        W13391   1.244  35.052  12.223
45174W        W13392  41.591  42.612   3.208
45175W        W13393  40.728   6.347  14.532
45176W        W13394  34.889  18.891  10.494
45177W        W13395  23.532  39.776   0.182
45178W        W13396   4.083   9.817  10.397
45179W        W13397   0.831   4.196  13.994
45180W        W13398  17.046  39.377  12.478
45181W        W13399   3.658  30.616   2.354
45182W        W13400  37.849  22.038  12.016
45183W        W13401  26.173  27.742   0.313
45184W        W13402  42.782  24.910  11.626
45185W        W13403  26.281  44.254   3.141
45186W        W13404  37.514   4.187   0.699
45187W        W13405  27.592  10.665   0.029
45188W        W13406   9.792  37.150   1.414
45189W        W13407  28.132  19.075  13.849
45190W        W13408  24.964  30.002   2.835
45191W        W13409  16.239  42.388   1.438
45192W        W13410  14.602   6.391   0.445
45193W        W13411  33.467  23.289  11.280
45194W        W13412  25.546   3.723   3.003
45195W        W13413  22.534  17.868   4.396
45196W        W13414  33.350   8.806  14.597
45197W        W13415  18.103  44.465   4.068
45198W        W13416  37.447  39.117   3.740
45199W        W13417  33.553  34.905  13.534
45200W        W13418  15.562  40.446   4.635
45201W        W13419   1.385  12.763  11.532
45202W        W13420  14.600  22.982   0.859
45203W        W13421   4.303  42.024  14.728
45204W        W13422  22.242   3.315  12.395
45205W        W13423   7.398  20.060  11.515
45206W        W13424   1.812   1.423  12.563
45207W        W13425  13.712  18.810  13.457
45208W        W13426  25.471  43.202   4.210
45209W        W13427  18.405  22.285  14.917
45210W        W13428  18.579   9.225   4.204
45211W        W13429  36.090  36.082   3.196
45212W        W13430  33.899  16.894   0.914
45213W        W13431  18.239  13.148  11.651
45214W        W13432  14.753  40.826   1.431
45215W        W13433  27.994  32.241   1.331
45216W        W13434   3.671  22.674  13.410
45217W        W13435  38.540  39.342  13.693
45218W        W13436   3.253  39.502  12.142
45219W        W13437  12.274  12.089   3.115
45220W        W13438  35.664  38.331   3.401
45221W        W13439  26.179  30.984   4.703
45222W        W13440  40.302  25.783  11.934
45223W        W13441   0.294  36.998   3.330
45224W        W13442  10.112  16.558   2.279
45225W        W13443  34.887  13.764   2.876
45226W        W13444  20.267   4.919  11.340
45227W        W13445   6.941   6.944  11.116
45228W        W13446  11.273  13.617  14.211
45229W        W13447  22.092  41.744   0.172
45230W        W13448  29.142  20.030   4.774
45231W        W13449  22.106  12.492   5.151
45232W        W13450  41.816  39.583  13.551
45233W        W13451  27.973   9.412  12.355
45234W        W13452  26.707   6.495  14.090
45235W        W13453  35.324   3.777   3.490
45236W        W13454  41.259  27.630   4.262
45237W        W13455  10.078  28.432  11.210
45238W        W13456  29.892  16.170   5.071
45239W        W13457  18.953  22.252  14.970
45240W        W13458  31.046   7.928   4.647
45241W        W13459   6.253  33.646   3.663
45242W        W13460   6.535   2.207  11.142
45243W        W13461  20.798  22.011   2.127
45244W        W13462  36.415  26.975  10.499
45245W        W13463  31.090  35.562   1.450
45246W        W13464  39.281  43.965  14.713
45247W        W13465   7.287  14.247   0.933
45248W        W13466  27.130  26.932  12.436
45249W        W13467  30.873  39.014  13.156
45250W        W13468  37.688  35.584   0.511
45251W        W13469  10.639   2.399  13.029
45252W        W13470  26.480  10.393   2.350
45253W        W13471  24.673   0.430   3.250
45254W        W13472   9.832  40.845  12.417
45255W        W13473  43.233   0.451   3.344
45256W        W13474   2.082  25.302   1.904
45257W        W13475  16.849  33.961  10.656
45258W        W13476  33.245  30.573   4.429
45259W        W13477  43.227  10.604  12.425
45260W        W13478  34.865  27.977  11.971
45261W        W13479  35.452  35.610  12.539
45262W        W13480  43.471  44.511  14.371
45263W        W13481   5.256   7.848   0.228
45264W        W13482  35.163  12.110   0.876
45265W        W13483  41.765  25.963  10.967
45266W        W13484  27.929  28.397  11.634
45267W        W13485   2.344   9.997   3.720
45268W        W13486  40.008  34.007   3.529
45269W        W13487  16.825  44.506   0.376
45270W        W13488  39.410   5.730   0.792
45271W        W13489   4.922   2.831  11.616
45272W        W13490   0.775  32.941   4.624
45273W        W13491   6.934  26.693   1.705
45274W        W13492   4.879  21.808  10.152
45275W        W13493  40.805  35.894  12.505
45276W        W13494  18.793  24.794   0.633
45277W        W13495   5.902  22.026   2.253
45278W        W13496   9.713  24.106   4.268
45279W        W13497  19.572  11.791  11.007
45280W        W13498  23.098  11.707  10.638
45281W        W13499  40.826  32.739  11.990
45282W        W13500   5.640  19.622   1.796
45283W        W13501  36.508  44.215  12.566
45284W        W13502  19.445  35.349  11.306
45285W        W13503  29.799   9.405  11.970
45286W        W13504  29.363   8.249   3.672
45287W        W13505  30.095  16.032  13.411
45288W        W13506  17.376  13.277  11.938
45289W        W13507   3.303  29.848  10.512
45290W        W13508  24.992  39.499   4.071
45291W        W13509   7.152   5.217   2.681
45292W        W13510   9.124  15.135   4.471
45293W        W13511  33.510  24.097   1.649
45294W        W13512  38.154  39.025   4.541
45295W        W13513  23.281  14.234   4.535
45296W        W13514  22.577  22.024  13.425
45297W        W13515  35.007  26.680   4.215
45298W        W13516  13.998  21.589  13.453
45299W        W13517  26.627  25.271   3.982
45300W        W13518   2.519  27.680  14.950
45301W        W13519   1.159   8.423   3.283
45302W        W13520  24.175   6.327   4.681
45303W        W13521  41.026  34.046  12.563
45304W        W13522  21.070  17.624  13.749
45305W        W13523   4.986  20.810  12.127
45306W        W13524  11.345  21.185  12.613
45307W        W13525  17.143  34.934   0.948
45308W        W13526   3.658   2.839   1.512
45309W        W13527  14.319  29.404   4.990
45310W        W13528   7.331  26.510  14.331
45311W        W13529  39.227  43.003  12.690
45312W        W13530  10.412  24.484   3.049
45313W        W13531  11.718  41.520   1.391
45314W        W13532  24.010  20.153   4.203
45315W        W13533   6.292  44.547   5.017
45316W        W13534  37.936  27.902  12.269
45317W        W13535  41.549  38.284   3.386
45318W        W13536  12.815  24.058  13.063
45319W        W13537  34.812  11.652  10.605
45320W        W13538   5.831   6.263  11.905
45321W        W13539  39.483  38.504   1.058
45322W        W13540  11.598  32.001  14.831
45323W        W13541   0.998  19.263   1.116
45324W        W13542  14.699   2.396   2.952
45325W        W13543  37.933  14.641  11.079
45326W        W13544  15.813  14.050   3.844
45327W        W13545  25.246  42.907  10.681
45328W        W13546  32.707  28.083  11.510
45329W        W13547  31.277  27.083   3.688
45330W        W13548   8.052  26.152  12.361
45331W        W13549   1.946  27.875  11.180
45332W        W13550  27.402  17.274   1.890
45333W        W13551  25.729  20.754  13.489
45334W        W13552  32.269  29.115   0.307
45335W        W13553   6.275   2.841   2.369
45336W        W13554  25.089  29.697   1.352
45337W        W13555  12.302  40.042   2.183
45338W        W13556   1.895  41.997  12.966
45339W        W13557  18.645  30.376  14.457
45340W        W13558  33.920  16.779  12.644
45341W        W13559   9.617   3.700   1.262
45342W        W13560  22.785   4.384   4.051
45343W        W13561  11.429   4.354   0.461
45344W        W13562  19.347  36.471   0.366
45345W        W13563  32.674  36.286   3.643
45346W        W13564  19.802  27.469  12.216
45347W        W13565   1.016  17.640   0.302
45348W        W13566  10.117  41.071  12.012
45349W        W13567  19.268  32.360  13.806
45350W        W13568  17.127  26.438  12.607
45351W        W13569  27.876   8.171   3.238
45352W        W13570  21.818  22.304  10.739
45353W        W13571  14.578  38.137  12.061
45354W        W13572  24.741  25.870  11.068
45355W        W13573   2.512  35.777  12.102
45356W        W13574  38.120   2.194  11.575
45357W        W13575  19.583  41.824  14.110
45358W        W13576  41.106  32.624  12.413
45359W        W13577   6.151  12.208   2.691
45360W        W13578  13.732  10.727  13.752
45361W        W13579  29.292  21.339   3.250
45362W        W13580   3.054  43.326   3.265
45363W        W13581  22.682   3.257   4.915
45364W        W13582  44.088  24.653  11.954
45365W        W13583  28.197  35.651   3.124
45366W        W13584  38.273   4.243   0.052
45367W        W13585   6.803  30.708  11.579
45368W        W13586   3.941  18.714  13.945
45369W        W13587  29.990  33.124   4.594
45370W        W13588  34.942  12.752   4.356
45371W        W13589  21.154  43.493  13.039
45372W        W13590   5.602  33.642   4.652
45373W        W13591  40.953  32.907  11.465
45374W        W13592  25.896  10.886  12.542
45375W        W13593  39.410  10.998   3.640
45376W        W13594  41.311   0.689   1.410
45377W        W13595  39.706   3.301   0.921
45378W        W13596  19.572  24.720   2.008
45379W        W13597  32.860  26.177  13.667
45380W        W13598  43.553  43.854   3.124
45381W        W13599  44.007  18.614  14.566
45382W        W13600  33.653   6.348   4.212
45383W        W13601  28.742   6.584   2.711
45384W        W13602  16.133  43.582   4.084
45385W        W13603  25.716  40.414  14.559
45386W        W13604  32.511  25.560   4.222
45387W        W13605  11.251  27.579  10.798
45388W        W13606  13.789  41.891  10.581
45389W        W13607  32.440   0.654   3.357
45390W        W13608   0.720  14.095   4.999
45391W        W13609  20.665  28.622   4.116
45392W        W13610  26.505  25.685   3.641
45393W        W13611  13.683  22.092  10.655
45394W        W13612  21.245  28.517   3.209
45395W        W13613  44.778  44.538   2.751
45396W        W13614  13.400  13.390  13.381
45397W        W13615  20.004  17.257   0.674
45398W        W13616  29.488  39.861  11.629
45399W        W13617   6.869  29.907  12.551
45400W        W13618  15.185  31.312   3.104
45401W        W13619   4.320  41.455  13.361
45402W        W13620  11.813   4.811   4.215
45403W        W13621   4.071  23.944  13.495
45404W        W13622  18.540  33.573  11.170
45405W        W13623  17.182   2.002  11.574
45406W        W13624  15.231  19.048   2.364
45407W        W13625  19.076  36.868  11.628
45408W        W13626  18.209   6.162  13.995
45409W        W13627  25.076  29.960  14.108
45410W        W13628  20.186   1.376  14.228
45411W        W13629  44.245  41.009   4.690
45412W        W13630   1.966  36.704  13.972
45413W        W13631  35.638  29.837  12.590
45414W        W13632  36.591   8.850  14.836
45415W        W13633  34.789   9.008   2.806
45416W        W13634  14.127  18.762   3.246
45417W        W13635  17.287  26.576   1.964
45418W        W13636   4.316  33.307   0.418
45419W        W13637  35.795   7.199   3.609
45420W        W13638  38.932  28.653   2.746
45421W        W13639  43.310  21.512  13.540
45422W        W13640  14.136  33.655  12.665
45423W        W13641  13.201  35.853  11.967
45424W        W13642  43.299  23.092  14.486
45425W        W13643  44.161  29.926   3.258
45426W        W13644  44.125  33.622   1.837
45427W        W13645  26.626  22.657   2.700
45428W        W13646  11.323  30.923   1.710
45429W        W13647  36.626  41.957   2.767
45430W        W13648  37.909  25.016  14.283
45431W        W13649  19.307  32.533  14.321
45432W        W13650  37.265   0.796  10.324
45433W        W13651  13.139   2.001   1.214
45434W        W13652  11.408  32.572   0.572
45435W        W13653  41.727  14.788  14.512
45436W        W13654  34.031   6.637   2.887
45437W        W13655  15.568  10.742  10.683
45438W        W13656  16.528  24.183  12.034
45439W        W13657  23.191   4.764  10.763
45440W        W13658  30.604  16.513  12.917
45441W        W13659   8.618  18.326  10.715
45442W        W13660  13.746   9.030   3.964
45443W        W13661  21.300  37.133  13.517
45444W        W13662  19.075   3.769  12.571
45445W        W13663  11.911  10.886  13.971
45446W        W13664  37.835  22.583   3.559
45447W        W13665   1.904  32.051   4.062
45448W        W13666   2.234  32.597  10.720
45449W        W13667  16.758  15.843   1.245
45450W        W13668   0.728  28.268   3.700
45451W        W13669  21.264  28.463  13.393
45452W        W13670  22.049   6.687   0.632
45453W        W13671  16.177  15.637   4.086
45454W        W13672  10.624  23.045   1.236
45455W        W13673  41.250  12.972  11.496
45456W        W13674  38.926  36.823   1.900
45457W        W13675  31.168   4.395   0.076
45458W        W13676  44.788  35.972  11.591
45459W        W13677  22.330  36.586   4.246
45460W        W13678   6.652   9.651  11.542
45461W        W13679   2.570  29.857  12.076
45462W        W13680  37.163  24.872  11.575
45463W        W13681  35.689   4.110  11.653
45464W        W13682  29.582  38.901  10.553
45465W        W13683  44.351   2.783   1.683
45466W        W13684  25.607  15.743  13.833
45467W        W13685  42.841  11.647  14.767
45468W        W13686  27.941  37.093   0.053
45469W        W13687  30.119  24.247  12.574
45470W        W13688   7.403   1.262  14.773
45471W        W13689  41.976  44.031   1.728
45472W        W13690  21.547   6.728  12.429
45473W        W13691  22.733  14.579  12.504
45474W        W13692  33.021  35.250   4.128
45475W        W13693  28.672  21.043   0.769
45476W        W13694  39.988  39.277  14.754
45477W        W13695   4.941  36.726   1.419
45478W        W13696   3.021  25.597   5.065
45479W        W13697   0.005  34.492   3.209
45480W        W13698  39.689  34.118   2.506
45481W        W13699  17.486  16.395  11.131
45482W        W13700  37.001   8.105  10.752
45483W        W13701  20.222  33.588   1.762
45484W        W13702  24.509  10.110  11.140
45485W        W13703  17.779  11.759  10.499
45486W        W13704  13.289  19.862   4.659
45487W        W13705  39.291  18.238  10.681
45488W        W13706  27.166  39.096   1.388
45489W        W13707   2.055  28.611  12.930
45490W        W13708   2.491   3.761   4.710
45491W        W13709  34.348  35.495  11.127
45492W        W13710  26.039  39.460   1.507
45493W        W13711  36.723  18.195   3.889
45494W        W13712  19.140  22.181   1.951
45495W        W13713  28.553   5.850   1.899
45496W        W13714  33.466  25.908   3.604
45497W        W13715  44.845  23.501  11.656
45498W        W13716   1.353  28.900   2.348
45499W        W13717  38.001  26.885  14.710
45500W        W13718  11.996  16.190   9.939
45501W        W13719  37.287  24.373  11.631
45502W        W13720  37.051  24.684  12.028
45503W        W13721   0.832  26.438   4.902
45504W        W13722   9.861   6.249   0.099
45505W        W13723  25.872  12.149   0.447
45506W        W13724  35.547  40.890   3.633
45507W        W13725   4.271  21.345   0.140
45508W        W13726  22.092  35.017  13.503
45509W        W13727  16.801  43.714   1.591
45510W        W13728   4.309   5.236  13.620
45511W        W13729  20.583  41.436   3.182
45512W        W13730   0.887  11.196   0.538
45513W        W13731  39.582   2.318   2.682
45514W        W13732  18.804  44.323  14.689
45515W        W13733  24.997  10.847  13.479
45516W        W13734   2.001  42.531  11.616
45517W        W13735  15.194  29.379  14.467
45518W        W13736   6.941  30.822   4.057
45519W        W13737  37.101  20.777   2.074
45520W        W13738   6.998  14.395  10.568
45521W        W13739   4.715  25.633   1.888
45522W        W13740  39.547   7.824   4.357
45523W        W13741  40.410  11.360   2.680
45524W        W13742  27.135  40.531   2.413
45525W        W13743  23.289  13.436  11.231
45526W        W13744  29.105   9.939  13.505
45527W        W13745   9.682  34.136   3.685
45528W        W13746  26.041  22.335  10.289
45529W        W13747  22.760   5.006  11.055
45530W        W13748  23.662  33.667  10.216
45531W        W13749  21.021  19.764   2.252
45532W        W13750  33.878  20.175   3.439
45533W        W13751   6.394  32.746   1.259
45534W        W13752   5.236  39.485   4.258
45535W        W13753  24.265   6.024   2.183
45536W        W13754  14.706   1.587   4.551
45537W        W13755   1.161  10.369   3.786
45538W        W13756  42.851  18.646   3.864
45539W        W13757  28.020  33.258  11.667
45540W        W13758  17.952  11.774  11.780
45541W        W13759   2.419  43.879   3.528
45542W        W13760  13.588  27.072   3.485
45543W        W13761  15.241  23.751  11.514
45544W        W13762  35.551  42.455  13.487
45545W        W13763   5.197  12.099  11.056
45546W        W13764  42.094  22.762   9.971
45547W        W13765  41.818   6.042   0.932
45548W        W13766  14.406  39.941  13.095
45549W        W13767   9.670   7.820  13.356
45550W        W13768   1.949  32.922   3.202
45551W        W13769  43.400  30.899   0.372
45552W        W13770  27.077  16.137   0.830
45553W        W13771  14.068  38.404  12.954
45554W        W13772  35.191  43.359   2.800
45555W        W13773  35.632  16.502   1.359
45556W        W13774  12.364  29.064   3.018
45557W        W13775   4.280  29.657  12.882
45558W        W13776   0.487  24.938   1.855
45559W        W13777  29.133  28.029   4.785
45560W        W13778   2.921   5.083  11.941
45561W        W13779  21.066  44.138  11.194
45562W        W13780  33.315  24.342  11.635
45563W        W13781  19.096  33.931   3.638
45564W        W13782  41.868  41.370  12.289
45565W        W13783   7.133  28.015  14.506
45566W        W13784  22.109  26.051   4.646
45567W        W13785  18.456  30.967   2.168
45568W        W13786  19.716   0.952   0.849
45569W        W13787  33.565  28.935  14.825
45570W        W13788  29.391   4.918  11.070
45571W        W13789  18.237  41.897   2.188
45572W        W13790  14.028   5.318  11.116
45573W        W13791  13.663  30.458   4.540
45574W        W13792  10.605   1.393   4.210
45575W        W13793  14.112   4.261  11.504
45576W        W13794  42.102  21.295  11.697
45577W        W13795  19.736  44.983   0.936
45578W        W13796  25.479  24.426  11.154
45579W        W13797  35.085  13.608   0.818
45580W        W13798   9.777   7.335  11.227
45581W        W13799  44.796  26.550  13.488
45582W        W13800  37.390  44.007   2.886
45583W        W13801  27.090   2.926  13.969
45584W        W13802  24.199  42.382   0.225
45585W        W13803  31.909   2.168  11.587
45586W        W13804  33.144  37.959  12.937
45587W        W13805  24.086  14.668   4.643
45588W        W13806   3.045  23.079   4.302
45589W        W13807   9.597  30.682  11.664
45590W        W13808  24.445  43.775   3.731
45591W        W13809  14.348  22.138   1.309
45592W        W13810  38.164  36.104   2.954
45593W        W13811  19.024  41.595   0.171
45594W        W13812  15.857  15.322   1.825
45595W        W13813   1.247   4.916   0.458
45596W        W13814  28.162   2.491   1.719
45597W        W13815  17.266  41.753   2.287
45598W        W13816  39.574  32.652   2.347
45599W        W13817   0.795  37.404  11.282
45600W        W13818  21.447  13.541   2.339
45601W        W13819  32.933  22.429   2.447
45602W        W13820  14.783  23.437  14.546
45603W        W13821   1.362  20.806   1.361
45604W        W13822   1.779  15.997  11.147
45605W        W13823  29.118  22.402  14.995
45606W        W13824  41.808  27.162   1.891
45607W        W13825  32.718  39.469   1.753
45608W        W13826  11.176  14.717   3.828
45609W        W13827  33.786  37.130  10.790
45610W        W13828   2.060   3.642  12.986
45611W        W13829  15.274  11.359  13.525
45612W        W13830  16.036   5.847  10.755
45613W        W13831  11.800   1.735   2.549
45614W        W13832  18.586   8.708  11.205
45615W        W13833  26.708   9.840   1.463
45616W        W13834  39.708   8.188   3.564
45617W        W13835  16.605   4.828   1.788
45618W        W13836  33.642  16.790  13.077
45619W        W13837  31.172   5.364  14.483
45620W        W13838  17.810  13.374  14.425
45621W        W13839   2.371  24.127  12.154
45622W        W13840  39.957  17.237   2.014
45623W        W13841  11.285   0.096   5.022
45624W        W13842  20.284   2.443   0.313
45625W        W13843  44.082  14.161   4.893
45626W        W13844  15.807  17.124  11.460
45627W        W13845  23.016   5.650  12.388
45628W        W13846  25.968  10.864   0.883
45629W        W13847   4.495  26.452  11.646
45630W        W13848  39.854  16.057  14.906
45631W        W13849  41.022   9.666  13.990
45632W        W13850  11.531  25.241  10.767
45633W        W13851   0.038   8.339  11.552
45634W        W13852   5.342  38.292  14.964
45635W        W13853  11.314  34.604   3.722
45636W        W13854   1.943   5.131  12.143
45637W        W13855  39.810  38.470  10.728
45638W        W13856  20.001  21.219   0.313
45639W        W13857   9.414  35.889   4.324
45640W        W13858  14.076   0.903  11.732
45641W        W13859  23.072  39.301  12.916
45642W        W13860   0.424  17.587  14.450
45643W        W13861  26.393  15.214  11.062
45644W        W13862  39.421  15.239   3.159
45645W        W13863  40.045  27.040  14.428
45646W        W13864  18.512   9.788  13.944
45647W        W13865  36.033  12.034  13.531
45648W        W13866  40.352  43.519   1.244
45649W        W13867  18.727   7.662  11.240
45650W        W13868  12.435  31.405  14.556
45651W        W13869  43.954  16.190  13.734
45652W        W13870  12.397  15.827  13.796
45653W        W13871  35.036   9.438  10.580
45654W        W13872  23.584  19.317  13.036
45655W        W13873  19.523  20.215  11.999
45656W        W13874  13.228  28.690  12.605
45657W        W13875  43.271  16.527  13.800
45658W        W13876  33.060  16.875   1.541
45659W        W13877  34.130  31.482  10.650
45660W        W13878  11.932  18.494   1.840
45661W        W13879  11.219  22.066  13.791
45662W        W13880   9.178  35.538  12.846
45663W        W13881   3.248  33.653   1.727
45664W        W13882  37.907  18.960  12.286
45665W        W13883  38.646  31.091   1.447
45666W        W13884   5.209  39.468   2.035
45667W        W13885  12.228  28.195  10.610
45668W        W13886  41.634  31.593   2.352
45669W        W13887  12.118  39.018  12.032
45670W        W13888  28.824   3.954  10.984
45671W        W13889  34.435  22.979   0.326
45672W        W13890  25.753  22.957   4.179
45673W        W13891   1.282  41.946   1.693
45674W        W13892  26.431  10.568   1.726
45675W        W13893   8.448  13.227   2.287
45676W        W13894  26.878  35.971  13.461
45677W        W13895  10.895   0.990   4.138
45678W        W13896  34.052  35.145   0.056
45679W        W13897   9.246  32.852  13.534
45680W        W13898   2.814  15.945  11.225
45681W        W13899  31.099   8.201   4.225
45682W        W13900  22.622  37.819  11.605
45683W        W13901  40.031  14.258  10.490
45684W        W13902  28.197  18.120  10.647
45685W        W13903  41.604   6.668  10.753
45686W        W13904  14.099  33.404  10.908
45687W        W13905  41.022  35.092  12.620
45688W        W13906  36.137  25.145   2.328
45689W        W13907  35.485  41.856   2.259
45690W        W13908  29.460  26.541  12.818
45691W        W13909   7.182  44.002  10.194
45692W        W13910  26.620  33.031   4.353
45693W        W13911  11.186  38.775   4.863
45694W        W13912  22.167  20.516  10.900
45695W        W13913  21.476  32.432   3.559
45696W        W13914  35.404   3.632  13.779
45697W        W13915  18.893  18.565  14.397
45698W        W13916   8.285   9.713  14.993
45699W        W13917  33.549  22.644   4.070
45700W        W13918  11.206  12.423  14.873
45701W        W13919  26.234  28.891  11.544
45702W        W13920  30.049  36.623  12.658
45703W        W13921  17.176  25.564  14.424
45704W        W13922  36.525  24.932  12.327
45705W        W13923  34.915  23.358   2.027
45706W        W13924  12.744   6.788   1.731
45707W        W13925  14.796   7.672   3.321
45708W        W13926  28.656   1.920   0.962
45709W        W13927  41.484  38.905   4.569
45710W        W13928   8.902  41.377  10.719
45711W        W13929  27.062  17.657  14.222
45712W        W13930  43.749  25.160  11.964
45713W        W13931  14.621  33.573  11.667
45714W        W13932  39.799  14.089   1.292
45715W        W13933   1.373  16.160   1.977
45716W        W13934  11.332  32.216  12.496
45717W        W13935  14.005  19.674  14.251
45718W        W13936   3.925  21.437   1.673
45719W        W13937  34.916  24.519   2.308
45720W        W13938  12.613   3.067   4.731
45721W        W13939  24.089  36.480   1.905
45722W        W13940  40.974  42.814   0.405
45723W        W13941  13.801  41.987  11.107
45724W        W13942  22.389  42.054  12.443
45725W        W13943  20.991   1.676   2.814
45726W        W13944   7.869  35.800   0.232
45727W        W13945  20.793  27.464  11.208
45728W        W13946  27.964  16.082   4.066
45729W        W13947  39.328   7.747   2.323
45730W        W13948  43.874  15.665  14.771
45731W        W13949  19.507  29.154   3.385
45732W        W13950   3.708  35.967  12.872
45733W        W13951  25.084  38.904  12.491
45734W        W13952  24.752  23.586   3.561
45735W        W13953   6.029  44.985   5.073
45736W        W13954  31.459  29.934  13.302
45737W        W13955  21.111  17.811   0.362
45738W        W13956   5.638  20.994   2.378
45739W        W13957  20.174  15.057   5.410
45740W        W13958   4.344   5.751  13.629
45741W        W13959  35.114  31.185   1.782
45742W        W13960  26.044   2.234  14.324
45743W        W13961  44.949   7.384  12.914
45744W        W13962  29.678  18.006  13.846
45745W        W13963   9.183  28.704   3.550
45746W        W13964   4.140  11.178   2.780
45747W        W13965  23.417  21.732   3.625
45748W        W13966  17.797  28.937   1.671
45749W        W13967  15.786  20.549  13.048
45750W        W13968   8.869   8.845   3.644
45751W        W13969   1.007  33.532   2.567
45752W        W13970  18.625  34.743   2.591
45753W        W13971  33.845  10.912   2.885
45754W        W13972  26.623  35.604   3.811
45755W        W13973  38.005  22.145   2.751
45756W        W13974  35.417   9.309   3.292
45757W        W13975   3.534   7.886   3.045
45758W        W13976   1.864   2.274  10.716
45759W        W13977   9.459  31.832   2.400
45760W        W13978   8.725   4.481   2.722
45761W        W13979  13.194  13.588   3.803
45762W        W13980  15.269   4.850  11.118
45763W        W13981  37.603   6.752  12.458
45764W        W13982  13.808   6.167   3.186
45765W        W13983  42.133  43.467  12.374
45766W        W13984  13.230  20.054  14.852
45767W        W13985   6.316  22.608  12.053
45768W        W13986  17.181  19.231  12.797
45769W        W13987  10.880  38.386  12.408
45770W        W13988   9.257  24.617  12.012
45771W        W13989  30.009  33.913  11.597
45772W        W13990  41.929  25.712  11.432
45773W        W13991  24.809  39.275  10.949
45774W        W13992  36.852  10.675  12.081
45775W        W13993  16.897  35.647   1.832
45776W        W13994  10.241  35.209   1.772
45777W        W13995   1.381  30.745   2.474
45778W        W13996  44.998  21.757  14.023
45779W        W13997  19.327  23.516  11.095
45780W        W13998  20.131  21.315  12.910
45781W        W13999  17.953  34.718  12.640
45782W        W14000   5.818  31.655   0.747
45783W        W14001   7.990  10.787   4.124
45784W        W14002   7.174  17.169  11.387
45785W        W14003  14.324  34.552  11.946
45786W        W14004  38.850   0.214   3.141
45787W        W14005  34.547   2.462  11.545
45788W        W14006   3.065   4.705  14.445
45789W        W14007  44.456  44.409  11.182
45790W        W14008  22.809  11.271   3.311
45791W        W14009  21.977  14.652  12.176
45792W        W14010   3.834  13.257  12.113
45793W        W14011  20.335  37.976   4.713
45794W        W14012  34.058  33.509  12.076
45795W        W14013  27.294  26.924   2.312
45796W        W14014  20.801   3.900   0.036
45797W        W14015  35.985  35.007  11.486
45798W        W14016  26.034  14.717   0.549
45799W        W14017   1.520   3.208   1.807
45800W        W14018   2.400   3.792   0.914
45801W        W14019  40.422  44.480   4.503
45802W        W14020  22.400   3.544  11.534
45803W        W14021  25.019  26.586  14.271
45804W        W14022  39.003   3.269   0.296
45805W        W14023  38.215  36.832  13.801
45806W        W14024  23.397   0.267   2.401
45807W        W14025   4.137  25.087  10.324
45808W        W14026  22.004   1.889  13.327
45809W        W14027   7.086  12.652   3.315
45810W        W14028  39.827  25.053   0.930
45811W        W14029  11.675   8.059  13.830
45812W        W14030  18.572  23.293  12.335
45813W        W14031  23.988  35.953   3.587
45814W        W14032   2.230  39.088   1.889
45815W        W14033  42.049  31.657  11.961
45816W        W14034  13.497  27.772  10.505
45817W        W14035  12.328  30.415   1.912
45818W        W14036  40.111  15.664  13.387
45819W        W14037  15.188  28.447  12.513
45820W        W14038  18.661  21.591   0.952
45821W        W14039  30.625  29.929  11.312
45822W        W14040  17.053  28.108   3.713
45823W        W14041   2.307  20.071  11.602
45824W        W14042  37.452   6.375  12.166
45825W        W14043  20.051  23.944   1.817
45826W        W14044   2.780  40.638  14.643
45827W        W14045  11.102   0.916   0.263
45828W        W14046  20.565  31.449   2.840
45829W        W14047  32.801  25.965  10.893
45830W        W14048  23.691  10.343  14.502
45831W        W14049  39.277   5.325   2.928
45832W        W14050  40.758  29.046   0.811
45833W        W14051  18.198  16.328  12.975
45834W        W14052  30.790  11.417  13.353
45835W        W14053  34.367  24.627  10.726
45836W        W14054   1.920  39.513   2.868
45837W        W14055  15.153  17.988  12.060
45838W        W14056  42.808  12.447   4.116
45839W        W14057  36.387  20.882   4.578
45840W        W14058  17.833  21.627  11.388
45841W        W14059  12.452  37.362  12.473
45842W        W14060  37.296  23.199  11.968
45843W        W14061  36.403  39.085  14.979
45844W        W14062   0.871  34.798   0.396
45845W        W14063  22.064  15.722   0.068
45846W        W14064  33.833   5.139  11.844
45847W        W14065  13.278  28.948  12.149
45848W        W14066  25.919  21.758  12.479
45849W        W14067  22.022  21.182  11.879
45850W        W14068  16.805  37.743  11.007
45851W        W14069  43.577  36.223   0.205
45852W        W14070  18.225  34.926  12.257
45853W        W14071   0.477  13.926   0.194
45854W        W14072   5.648  14.032  14.512
45855W        W14073  33.405  37.681  12.023
45856W        W14074  16.057  39.001  14.938
45857W        W14075   2.995  29.587   2.847
45858W        W14076  39.385   6.763   0.800
45859W        W14077  18.272  40.323   2.011
45860W        W14078  43.832   7.760  14.146
45861W        W14079  35.069   8.155  11.536
45862W        W14080  23.434   9.166   4.548
45863W        W14081  26.909  40.759   4.700
45864W        W14082  11.581  35.267   0.395
45865W        W14083   0.831  35.931  12.896
45866W        W14084  23.608  41.935  14.936
45867W        W14085  24.708  12.323  14.799
45868W        W14086  28.709  17.422   0.278
45869W        W14087  25.245  15.801   1.219
45870W        W14088   5.167  30.571   4.359
45871W        W14089  40.896  28.264  14.417
45872W        W14090   0.678  26.018  10.675
45873W        W14091  25.135  18.105  14.855
45874W        W14092   5.914  14.169  14.057
45875W        W14093  29.639  18.344   3.561
45876W        W14094  39.583  34.031   3.850
45877W        W14095   3.247  14.681  12.837
45878W        W14096   4.733   6.956   3.253
45879W        W14097  16.271  43.036  11.664
45880W        W14098  14.258  22.832  13.088
45881W        W14099  31.428   7.190   2.404
45882W        W14100   0.983  39.583   2.813
45883W        W14101  17.451  21.649  10.444
45884W        W14102  27.385  37.327   5.037
45885W        W14103  40.000   8.362   3.189
45886W        W14104   0.753  21.636   4.783
45887W        W14105  32.900  13.771   4.556
45888W        W14106   5.513   1.012   0.332
45889W        W14107  40.914  21.754  12.032
45890W        W14108  27.297  39.454  12.902
45891W        W14109  11.892  24.064   3.471
45892W        W14110  26.985  35.782  11.711
45893W        W14111  19.026  37.014   1.848
45894W        W14112  38.930  37.107  11.407
45895W        W14113  30.787  32.586   0.805
45896W        W14114  40.669  17.823   2.599
45897W        W14115  40.995  28.512  14.873
45898W        W14116  30.864  35.853   2.786
45899W        W14117  40.794  23.780   2.832
45900W        W14118   1.403   2.631  11.531
45901W        W14119  27.547  25.747  12.078
45902W        W14120  23.608  14.868   2.209
45903W        W14121  39.271  18.316  14.908
45904W        W14122  37.419   5.920   2.158
45905W        W14123  33.788  16.282   3.736
45906W        W14124  26.653  12.606  13.064
45907W        W14125  23.014  35.866   2.420
45908W        W14126   0.678  24.800  14.304
45909W        W14127   3.330  11.739   1.131
45910W        W14128  41.023  24.128   1.403
45911W        W14129  32.377  33.631  11.245
45912W        W14130   5.742  10.952   1.597
45913W        W14131  13.932  36.311   2.702
45914W        W14132  30.589  22.223   0.228
45915W        W14133  16.033  22.139   0.792
45916W        W14134  14.661  31.504   3.394
45917W        W14135  19.851  13.215   1.754
45918W        W14136  32.832   3.216   4.882
45919W        W14137  35.130  41.008  11.939
45920W        W14138  15.786  19.598  14.835
45921W        W14139  33.573  33.691   2.736
45922W        W14140  38.457  44.865  10.424
45923W        W14141   0.503  43.507  11.901
45924W        W14142  32.082   0.218  10.778
45925W        W14143  11.704  44.004   5.485
45926W        W14144   3.385  25.470   3.139
45927W        W14145  31.842  23.499  11.092
45928W        W14146   8.316  41.494  13.772
45929W        W14147   7.894  17.958  12.427
45930W        W14148  31.275  28.254  10.020
45931W        W14149  33.326  10.361  13.139
45932W        W14150  18.663  16.385  10.122
45933W        W14151  11.679   2.255  14.420
45934W        W14152  41.445  31.865  14.734
45935W        W14153  16.747   9.238  14.999
45936W        W14154  44.885   3.532  11.363
45937W        W14155   9.104  17.217  12.009
45938W        W14156  17.465  42.459  13.125
45939W        W14157  26.065   6.198  13.372
45940W        W14158  13.905  36.480  13.148
45941W        W14159   2.477  19.103   1.272
45942W        W14160  17.614  31.830   0.211
45943W        W14161   7.349  13.331   1.207
45944W        W14162  39.371   0.169   1.450
45945W        W14163  33.527  29.435  13.599
45946W        W14164  14.789  44.586  12.953
45947W        W14165  30.427  41.961  14.540
45948W        W14166  25.604  37.983  14.469
45949W        W14167  42.606   1.731  10.713
45950W        W14168  44.255  37.612  11.222
45951W        W14169  10.364  39.473  11.937
45952W        W14170  32.000  21.223  13.003
45953W        W14171  44.941  36.776  12.544
45954W        W14172   7.871  14.314  12.565
45955W        W14173  17.368  42.755  13.545
45956W        W14174  19.612   3.553  14.092
45957W        W14175   2.795  20.523   2.309
45958W        W14176  11.440  33.082  11.118
45959W        W14177  22.576  38.523   3.363
45960W        W14178   9.848  10.144   0.322
45961W        W14179   8.104  25.493  10.629
45962W        W14180  33.170  19.969   2.358
45963W        W14181  35.850  12.793   4.254
45964W        W14182  25.999  43.372   4.261
45965W        W14183   3.518   4.860  14.291
45966W        W14184   7.755   5.273   1.456
45967W        W14185  43.326  44.973  11.952
45968W        W14186  11.242  19.799  12.530
45969W        W14187  30.713   6.831   0.753
45970W        W14188  18.206   8.137  12.639
45971W        W14189  16.182   2.481  14.863
45972W        W14190  34.356   8.428   2.711
45973W        W14191  10.793  38.899  13.124
45974W        W14192  26.992  13.372   3.500
45975W        W14193  13.933  44.876   1.437
45976W        W14194  22.319  44.303   3.263
45977W        W14195  27.935  19.791   1.465
45978W        W14196  14.628  37.492   2.768
45979W        W14197  21.224  36.885  14.811
45980W        W14198  24.143  14.311   5.048
45981W        W14199   1.501  35.828  14.349
45982W        W14200   7.915  26.776  11.616
45983W        W14201  15.849  27.890  12.815
45984W        W14202   9.263  32.901  10.707
45985W        W14203  31.369   3.369  13.404
45986W        W14204   5.186  18.694  14.139
45987W        W14205  14.484  19.763  10.333
45988W        W14206  39.250  34.555  10.880
45989W        W14207  27.124  32.536  12.022
45990W        W14208   5.268  31.376  10.741
45991W        W14209  21.702   5.833  13.019
45992W        W14210  22.573   9.798   1.821
45993W        W14211  27.197  30.093   1.489
45994W        W14212   5.257  32.325   3.463
45995W        W14213   9.757  12.292   4.517
45996W        W14214  34.225  24.841  11.688
45997W        W14215  26.369  15.306   4.227
45998W        W14216   9.400  27.160  11.997
45999W        W14217  35.128  16.146   2.609
46000W        W14218  21.102   1.243  12.421
46001W        W14219  27.904  24.572   1.520
46002W        W14220  31.968  11.309  12.213
46003W        W14221  41.094  40.898   1.048
46004W        W14222   0.858  42.390   2.649
46005W        W14223  22.544  38.664   1.499
46006W        W14224  28.455  14.577  13.369
46007W        W14225  41.910  13.229  14.762
46008W        W14226  41.827  12.337  12.443
46009W        W14227  21.284  40.503  13.066
46010W        W14228  25.280  37.904  12.112
46011W        W14229   3.459  37.530   1.932
46012W        W14230  25.146  39.505  11.296
46013W        W14231  12.247  15.399  12.160
46014W        W14232   0.377   2.880   2.656
46015W        W14233  33.209  28.921   1.338
46016W        W14234  17.341  43.209   1.132
46017W        W14235  36.332  22.180  13.566
46018W        W14236  36.412  13.100  10.750
46019W        W14237   5.139  33.948   0.490
46020W        W14238  30.856  26.069   3.514
46021W        W14239  10.747  42.418  12.022
46022W        W14240   3.729   8.761  13.896
46023W        W14241  21.210   0.330   2.200
46024W        W14242   3.514   1.202   2.660
46025W        W14243  21.709  10.206   1.445
46026W        W14244  20.145  15.291   2.350
46027W        W14245   3.271   3.019   4.752
46028W        W14246  17.127  21.441   4.596
46029W        W14247  28.670  23.783  12.554
46030W        W14248  26.146  27.253   1.288
46031W        W14249  24.983   3.331   3.754
46032W        W14250   1.963  26.452  14.379
46033W        W14251  42.102  42.621  12.475
46034W        W14252  31.033  31.501  14.007
46035W        W14253  18.366  26.214  11.043
46036W        W14254  12.096  38.519   2.425
46037W        W14255  26.694  32.097   2.487
46038W        W14256   9.594  39.357   4.549
46039W        W14257   6.386  12.251   2.245
46040W        W14258  41.956   6.905   3.908
46041W        W14259   3.905  39.403   1.459
46042W        W14260  24.206  17.615  13.389
46043W        W14261  16.063  20.534  12.580
46044W        W14262  23.290   4.758   4.091
46045W        W14263  20.851   4.402  14.060
46046W        W14264  16.711  35.859   0.772
46047W        W14265  43.352  27.188  13.447
46048W        W14266  18.843  17.156  12.090
46049W        W14267   3.817  37.344   3.558
46050W        W14268  35.658  23.073   3.152
46051W        W14269  22.811  26.627   2.532
46052W        W14270   6.771  35.398   1.049
46053W        W14271  24.158  11.835  12.459
46054W        W14272  30.138  25.125   0.475
46055W        W14273  34.564  26.579  13.811
46056W        W14274  21.207  39.149   1.287
46057W        W14275  27.117  38.331   1.807
46058W        W14276  33.635   3.545   0.291
46059W        W14277   8.593  15.085  11.226
46060W        W14278  28.292  13.225   5.036
46061W        W14279   0.351  21.845   2.272
46062W        W14280   7.169  39.369   2.467
46063W        W14281  14.050  11.161  13.431
46064W        W14282   3.739   4.968  13.844
46065W        W14283  39.971  30.625   1.840
46066W        W14284  17.603  35.588  12.490
46067W        W14285  27.782  30.527  11.936
46068W        W14286  14.460  15.100  13.319
46069W        W14287  11.604  16.198   2.227
46070W        W14288  41.263  24.173  13.603
46071W        W14289  32.543   6.326   2.929
46072W        W14290  13.244  13.777   2.407
46073W        W14291  13.564  40.988  14.776
46074W        W14292  29.479  39.377   0.194
46075W        W14293  13.801  38.406  10.993
46076W        W14294  30.250  14.151   0.465
46077W        W14295  35.585  28.060   2.674
46078W        W14296  17.309  33.469   4.608
46079W        W14297  23.878  28.513  14.522
46080W        W14298  19.826  11.288   4.669
46081W        W14299  15.625  34.898   1.789
46082W        W14300  39.372   2.963   4.109
46083W        W14301   5.814  20.758  11.138
46084W        W14302   3.673  43.911   2.659
46085W        W14303  34.072  28.992  12.524
46086W        W14304   7.739   9.207   2.369
46087W        W14305  25.762   6.914   5.045
46088W        W14306  32.954   3.252  14.856
46089W        W14307  44.602  16.194   2.530
46090W        W14308  28.075  10.435   3.761
46091W        W14309  21.558  21.525  14.472
46092W        W14310  23.513  23.584   4.201
46093W        W14311  16.615  39.243  11.006
46094W        W14312  40.565  21.035   4.734
46095W        W14313  13.251  30.059   3.128
46096W        W14314  42.537  14.803  12.527
46097W        W14315   4.205   0.254   1.322
46098W        W14316  22.588   2.066  10.723
46099W        W14317  31.004  36.697   2.303
46100W        W14318  34.484   1.800  13.423
46101W        W14319  21.287  13.156   3.138
46102W        W14320   0.769  31.056  12.064
46103W        W14321  42.196  11.446   2.694
46104W        W14322  29.043  33.954   0.882
46105W        W14323  36.992  31.389   0.950
46106W        W14324  27.371  40.194  11.543
46107W        W14325  21.254  37.789  11.481
46108W        W14326  19.758   8.664  12.539
46109W        W14327  23.571   2.340  12.183
46110W        W14328  22.479  15.281   4.321
46111W        W14329  20.310  28.475   3.782
46112W        W14330  35.014  11.056  12.694
46113W        W14331  43.294  38.467  11.248
46114W        W14332  21.342   9.677  11.098
46115W        W14333  31.396   1.524  11.153
46116W        W14334   2.156  30.857   1.366
46117W        W14335  33.064  18.068   2.712
46118W        W14336  22.922  32.853   3.086
46119W        W14337   2.174  37.084  11.100
46120W        W14338  21.691  32.776   4.349
46121W        W14339   3.428  43.656  14.463
46122W        W14340  35.901   6.937   2.697
46123W        W14341   5.425  17.865  11.880
46124W        W14342  21.678  22.588  12.478
46125W        W14343  42.424  44.215  12.849
46126W        W14344  31.173  35.387  12.581
46127W        W14345  40.829  39.293   3.949
46128W        W14346  25.115  37.781  14.388
46129W        W14347   8.004  44.995   2.250
46130W        W14348  13.851   3.000   4.029
46131W        W14349  10.648  23.985  12.357
46132W        W14350  15.234  33.874  13.473
46133W        W14351  17.226   6.469   0.934
46134W        W14352  16.564  17.661   0.269
46135W        W14353  19.508   3.336  12.094
46136W        W14354  14.137  35.948  14.001
46137W        W14355   3.942  18.015  12.789
46138W        W14356  38.549   8.899   4.571
46139W        W14357   1.615  12.154  10.957
46140W        W14358  11.869   4.228   1.281
46141W        W14359   2.638  33.565  12.226
46142W        W14360  14.205   2.602  14.204
46143W        W14361  18.014   9.824  13.790
46144W        W14362  36.915   9.770   0.399
46145W        W14363  23.515   8.166  12.319
46146W        W14364  21.471  10.034  13.970
46147W        W14365  35.414  27.520  14.890
46148W        W14366  41.881  32.954   2.712
46149W        W14367  19.743  24.591  11.912
46150W        W14368  38.974   1.965  11.406
46151W        W14369   5.397  33.690   3.746
46152W        W14370   7.488  25.166  12.559
46153W        W14371  41.493  41.868  11.473
46154W        W14372  31.282  29.145   0.325
46155W        W14373  40.439  33.565  14.024
46156W        W14374  31.338   1.849  10.773
46157W        W14375  41.416  25.637  14.935
46158W        W14376  43.833  33.096   1.186
46159W        W14377  19.813  23.656  11.190
46160W        W14378  11.683  43.844   3.067
46161W        W14379  41.359  38.937  10.794
46162W        W14380  10.856  10.878  12.376
46163W        W14381  15.805  19.380  10.415
46164W        W14382  30.869  14.238   4.920
46165W        W14383  39.788  16.323  14.465
46166W        W14384   7.863  13.971  11.594
46167W        W14385  26.094  10.673  10.707
46168W        W14386  41.477  14.563   2.398
46169W        W14387   0.345   7.686  10.595
46170W        W14388  10.388  21.000  13.653
46171W        W14389  33.209   8.127   0.958
46172W        W14390  11.064  24.284   3.609
46173W        W14391  41.750  23.105   0.316
46174W        W14392  31.761  18.258  10.606
46175W        W14393  36.433  15.529   4.552
46176W        W14394  35.946  43.372   3.251
46177W        W14395  15.134  27.037   3.548
46178W        W14396  36.320  36.897   1.689
46179W        W14397  29.451   0.011  13.291
46180W        W14398  29.887   5.098  12.942
46181W        W14399  23.457  36.104   1.102
46182W        W14400  36.366   3.913  12.404
46183W        W14401   5.313  37.043   4.563
46184W        W14402   1.989  22.177  14.951
46185W        W14403  27.351   7.328  13.023
46186W        W14404  27.365  44.071  11.176
46187W        W14405  17.497  18.676  11.108
46188W        W14406  35.992  26.829  12.212
46189W        W14407  23.204  14.400  12.648
46190W        W14408  39.922  41.761  11.086
46191W        W14409  30.495  22.166   1.748
46192W        W14410  39.732  39.061  13.134
46193W        W14411  36.559  10.433  10.988
46194W        W14412   0.724  14.327  13.456
46195W        W14413  37.755  34.383  10.918
46196W        W14414  12.172   9.718   1.345
46197W        W14415  35.639  38.292  12.020
46198W        W14416  25.948  17.359  11.599
46199W        W14417   1.401  19.688  14.847
46200W        W14418   0.895  10.952   2.715
46201W        W14419   0.734   0.262  10.212
46202W        W14420  19.591  19.201  12.611
46203W        W14421   9.648  32.620  13.758
46204W        W14422  20.426   5.946   4.887
46205W        W14423  11.439  32.566   4.611
46206W        W14424  20.792  14.792  13.008
46207W        W14425  27.394  30.843  12.119
46208W        W14426  16.751  37.947  11.478
46209W        W14427  25.158  40.819   3.796
46210W        W14428  35.989  20.601  13.989
46211W        W14429  38.064  12.347   3.176
46212W        W14430  35.125  29.152  10.737
46213W        W14431  44.079  22.124  14.048
46214W        W14432  24.512  28.676  10.959
46215W        W14433  21.177  33.560   0.563
46216W        W14434  26.601   9.239  10.501
46217W        W14435  38.413  39.897  14.836
46218W        W14436  15.707   7.383   1.692
46219W        W14437  21.501  33.093   0.510
46220W        W14438  15.274  19.579   2.311
46221W        W14439  18.577  44.210   4.117
46222W        W14440  18.715  18.068   3.970
46223W        W14441  26.100  29.307   1.924
46224W        W14442  44.195   3.156   4.178
46225W        W14443  41.857  39.802  10.745
46226W        W14444  11.368   4.255   4.858
46227W        W14445   7.777  26.513  12.804
46228W        W14446  25.060  35.161   0.046
46229W        W14447  27.596   5.429   3.214
46230W        W14448  10.600  21.142  13.114
46231W        W14449  31.261  31.197   4.340
46232W        W14450   8.771   3.928   3.870
46233W        W14451   8.112  11.790   1.284
46234W        W14452   9.582  30.552   4.826
46235W        W14453  43.771  19.182  10.956
46236W        W14454  39.858   5.035  12.792
46237W        W14455  43.896  33.898   2.203
46238W        W14456   0.060  29.735   2.857
46239W        W14457  20.742  13.520   1.748
46240W        W14458   5.178  25.694   4.294
46241W        W14459  16.015  17.326   4.067
46242W        W14460  32.655  23.097  12.124
46243W        W14461  14.330   7.170  12.980
46244W        W14462  31.348   7.266  14.796
46245W        W14463  44.722  42.960  11.508
46246W        W14464  19.186   3.803   2.396
46247W        W14465   2.926  43.959   3.716
46248W        W14466  43.110  23.080  13.008
46249W        W14467  25.478  21.141  13.211
46250W        W14468   1.164  15.614  11.909
46251W        W14469   0.851  43.571   4.069
46252W        W14470  24.452  20.548  13.901
46253W        W14471  35.898   3.296  10.145
46254W        W14472   6.801  39.750   1.349
46255W        W14473   8.306  17.166  10.768
46256W        W14474  18.903  10.195  13.839
46257W        W14475  41.435   2.937   5.313
46258W        W14476  15.218   3.891  10.899
46259W        W14477   8.217  39.273   3.572
46260W        W14478  12.125   7.440  11.169
46261W        W14479  13.195  30.227  10.801
46262W        W14480  13.410  34.729   2.140
46263W        W14481  37.060  36.582   4.287
46264W        W14482  16.377   0.971  13.897
46265W        W14483   3.631  31.672   2.246
46266W        W14484  35.092  16.557  10.664
46267W        W14485  12.236  42.278   3.251
46268W        W14486   7.649  41.793  11.989
46269W        W14487  41.043  17.107  11.100
46270W        W14488  37.209  27.470  12.807
46271W        W14489  43.480  44.519  11.140
46272W        W14490   8.713  28.538  10.426
46273W        W14491  19.996  19.451  13.480
46274W        W14492  33.628   7.824  10.532
46275W        W14493  26.461   0.950   4.232
46276W        W14494  40.362  43.091   3.543
46277W        W14495  19.076  15.101  12.968
46278W        W14496  27.847  43.717  12.051
46279W        W14497  23.836  28.899  13.349
46280W        W14498  14.789  42.755  10.473
46281W        W14499  10.587  38.749  12.128
46282W        W14500  36.856   9.323   3.236
46283W        W14501  36.048  38.639  12.203
46284W        W14502   8.175  37.544  14.846
46285W        W14503  13.764   1.962   0.741
46286W        W14504  21.572  16.293  13.009
46287W        W14505   4.367   8.886   2.423
46288W        W14506  21.514  43.742   1.909
46289W        W14507  38.594   3.927  12.390
46290W        W14508  19.862  27.660  12.972
46291W        W14509  43.269   4.173  11.164
46292W        W14510   2.627  23.656  14.477
46293W        W14511  40.340  20.930   1.198
46294W        W14512   7.700  13.164  11.159
46295W        W14513  26.678   3.299   4.219
46296W        W14514  27.485  13.247  14.858
46297W        W14515  22.452   2.784   3.800
46298W        W14516  33.467   9.818  11.372
46299W        W14517  44.120  31.651   0.445
46300W        W14518  30.601  12.725   2.329
46301W        W14519  14.730  38.299   3.356
46302W        W14520   1.277  10.422   2.344
46303W        W14521   3.503  20.040  14.151
46304W        W14522   9.050   7.231   4.263
46305W        W14523  14.380  14.646  12.613
46306W        W14524  33.399  42.773   2.160
46307W        W14525  31.451  12.394   2.429
46308W        W14526   2.635  26.548   0.381
46309W        W14527  24.524  41.099  13.075
46310W        W14528  40.540   7.972  10.863
46311W        W14529  30.353  42.528   4.507
46312W        W14530  30.547   9.357  12.948
46313W        W14531  21.147  14.684  13.380
46314W        W14532  10.636  15.843  11.887
46315W        W14533   6.511  37.227   0.942
46316W        W14534  35.771  22.588  14.807
46317W        W14535   5.381   6.844   0.484
46318W        W14536   4.864  31.404   1.136
46319W        W14537  30.283  33.883   3.299
46320W        W14538  35.331  37.425  13.877
46321W        W14539  21.631  16.167   4.513
46322W        W14540   8.414   9.383   4.553
46323W        W14541  33.988   2.614  11.517
46324W        W14542  43.856  27.127   2.126
46325W        W14543  42.074   0.241   4.092
46326W        W14544  13.723  40.623  11.589
46327W        W14545   5.690  39.973  12.428
46328W        W14546  43.825   7.359  13.409
46329W        W14547   8.931   4.741  12.992
46330W        W14548  31.017   4.521   1.893
46331W        W14549   6.407   6.313  13.580
46332W        W14550  18.904   7.352   4.059
46333W        W14551   1.457  24.932  12.989
46334W        W14552  23.764  21.969  12.443
46335W        W14553  43.713  38.449  11.579
46336W        W14554  11.696   7.673  13.469
46337W        W14555  24.090  35.127   1.328
46338W        W14556  35.574  38.340  10.642
46339W        W14557   7.553  27.176  10.921
46340W        W14558  16.167  40.160  12.822
46341W        W14559  42.478  10.680   2.449
46342W        W14560  10.869  13.835   3.466
46343W        W14561  27.563   0.521  11.964
46344W        W14562  24.647   8.097  11.015
46345W        W14563  36.712   8.916   1.856
46346W        W14564  37.869   3.807   2.739
46347W        W14565  24.144  41.852  13.736
46348W        W14566  44.715  42.735   2.330
46349W        W14567  42.012  25.133  10.591
46350W        W14568  25.392  31.866   0.427
46351W        W14569  44.404  37.011  12.050
46352W        W14570  16.194  14.288  11.116
46353W        W14571  44.260  15.840   1.058
46354W        W14572   6.458  25.069  12.556
46355W        W14573  14.069  29.969   0.275
46356W        W14574  27.230  42.995  11.488
46357W        W14575  29.887  22.252  10.469
46358W        W14576  41.071  28.884  11.059
46359W        W14577  17.045  11.059  11.129
46360W        W14578  15.446  28.726   2.150
46361W        W14579  28.401  34.923   3.687
46362W        W14580  12.157  44.451  10.129
46363W        W14581  39.061  33.932  10.776
46364W        W14582   8.153   6.981  13.505
46365W        W14583  32.368  38.962  11.595
46366W        W14584  34.160  31.500  13.077
46367W        W14585  27.102  43.733   4.133
46368W        W14586  18.952  13.629   0.349
46369W        W14587  15.789  15.589   2.807
46370W        W14588  40.520  22.614  14.404
46371W        W14589  38.608   4.984   0.155
46372W        W14590   6.807  23.255   0.887
46373W        W14591  43.055  29.723   4.524
46374W        W14592  39.046  40.797  12.615
46375W        W14593   2.128  35.482  13.440
46376W        W14594  42.919  39.409  13.617
46377W        W14595   1.228   4.978   1.324
46378W        W14596  21.267  28.474   1.218
46379W        W14597  43.311  27.700  13.416
46380W        W14598  24.506  39.971   1.811
46381W        W14599  27.942  21.242   1.433
46382W        W14600  12.098  44.171   3.061
46383W        W14601  34.918  29.221  12.958
46384W        W14602  40.757   5.231   1.002
46385W        W14603  35.901  19.236  12.770
46386W        W14604   3.372   5.545  11.624
46387W        W14605   4.428  11.329   2.369
46388W        W14606  17.405   0.261   1.940
46389W        W14607   8.105   5.648   4.211
46390W        W14608   9.829  26.930  11.125
46391W        W14609  31.616  38.930   3.253
46392W        W14610   6.159   2.015   1.304
46393W        W14611  17.095  27.444  12.579
46394W        W14612  29.637  35.950  10.870
46395W        W14613  28.523   3.194  11.592
46396W        W14614  31.871  35.092  12.045
46397W        W14615  16.033   3.392  13.794
46398W        W14616   1.513  10.733  14.291
46399W        W14617  19.686  27.560   4.596
46400W        W14618   1.909  27.629   2.924
46401W        W14619  15.171  13.722   0.291
46402W        W14620   7.434  36.145   1.839
46403W        W14621  44.016   6.811  13.908
46404W        W14622  11.314  28.797  11.517
46405W        W14623  24.733  29.366   0.428
46406W        W14624  25.504  36.888  11.891
46407W        W14625  17.160  17.266   3.231
46408W        W14626  44.582  31.067  12.465
46409W        W14627  38.825  10.920   4.125
46410W        W14628   2.276  16.539  11.849
46411W        W14629   6.307   7.229  12.490
46412W        W14630  25.608  35.824  14.959
46413W        W14631  37.293  27.222  13.385
46414W        W14632   0.436  43.256   4.152
46415W        W14633  33.052   3.020   2.392
46416W        W14634  28.460  19.291  12.809
46417W        W14635   8.608   0.465  10.589
46418W        W14636  17.606  26.701   4.531
46419W        W14637  44.699  41.558   4.098
46420W        W14638  44.493  13.850  14.021
46421W        W14639  32.507   1.651   2.908
46422W        W14640  37.069  29.554   3.093
46423W        W14641   7.849  35.324   2.867
46424W        W14642  20.768  31.471  14.333
46425W        W14643  26.496   4.334  14.242
46426W        W14644  10.574  34.472  10.526
46427W        W14645  28.631  33.635   0.948
46428W        W14646   1.506  37.537  10.589
46429W        W14647  30.507  22.420   3.473
46430W        W14648  23.651   6.339  14.633
46431W        W14649  16.354  13.762   2.735
46432W        W14650  29.181  30.024  11.636
46433W        W14651   0.612   4.965  11.956
46434W        W14652   7.928  16.103  14.871
46435W        W14653  30.675   2.499   4.560
46436W        W14654  35.558   5.392  13.380
46437W        W14655  33.457  25.941   1.324
46438W        W14656   9.398  18.320   1.431
46439W        W14657  13.150  27.940  12.149
46440W        W14658  15.036   1.308  13.404
46441W        W14659  38.024  21.177  13.497
46442W        W14660   4.143  12.845  14.390
46443W        W14661  20.479  24.469  14.007
46444W        W14662  20.609  33.075   0.925
46445W        W14663  41.827  20.663  12.382
46446W        W14664  19.608  10.199   4.556
46447W        W14665  36.796   3.386  10.357
46448W        W14666  30.174  27.659  11.984
46449W        W14667   5.148  27.180  11.896
46450W        W14668   4.191   7.223   1.409
46451W        W14669  29.125  25.053  13.408
46452W        W14670  37.943  36.012  11.775
46453W        W14671   2.162  22.369  13.997
46454W        W14672  44.496  22.725  13.937
46455W        W14673  28.107  42.417   2.377
46456W        W14674   3.372  44.373  10.734
46457W        W14675  14.844  24.582   0.886
46458W        W14676  36.294  37.524  12.867
46459W        W14677  20.106  44.943  14.246
46460W        W14678  15.070  37.928  10.647
46461W        W14679   3.210  41.665   2.298
46462W        W14680  25.560  29.511  11.678
46463W        W14681  33.394  18.069   4.530
46464W        W14682   4.379  21.769   1.185
46465W        W14683  36.193  25.905   1.904
46466W        W14684  42.319   8.966  13.240
46467W        W14685   2.774  37.814  10.847
46468W        W14686  42.575  27.812   2.160
46469W        W14687   6.408  23.649   3.826
46470W        W14688  24.043  33.662   4.763
46471W        W14689   7.882  10.650  10.713
46472W        W14690   8.350  21.080  14.218
46473W        W14691  15.259  34.397   1.963
46474W        W14692  39.107   2.823  14.411
46475W        W14693  35.399  12.631   4.540
46476W        W14694   4.599  26.569  10.811
46477W        W14695  37.014  19.597   0.581
46478W        W14696  34.028  43.461   4.392
46479W        W14697   9.909   9.132  10.601
46480W        W14698  27.755  35.403   2.182
46481W        W14699  25.598  39.578   4.665
46482W        W14700  21.500  38.349   2.248
46483W        W14701  25.499  29.121   3.645
46484W        W14702   4.705   0.599  11.209
46485W        W14703  41.954  39.284  11.622
46486W        W14704  34.854  28.849  14.859
46487W        W14705  36.944  37.839   3.663
46488W        W14706  29.886  22.650  11.971
46489W        W14707  10.204  33.471   2.909
46490W        W14708   1.348  23.579   1.865
46491W        W14709  17.372  26.101  11.864
46492W        W14710  36.555  39.100  11.006
46493W        W14711  37.597   4.584   3.618
46494W        W14712  13.072  21.854   1.897
46495W        W14713  26.419  34.267   5.068
46496W        W14714  29.731  24.888   3.188
46497W        W14715  12.732  23.985   3.248
46498W        W14716  15.761   7.446  14.745
46499W        W14717  35.291   6.828  13.397
46500W        W14718  35.824   0.443  10.817
46501W        W14719  32.390  39.570   1.346
46502W        W14720  41.228   4.493  10.685
46503W        W14721  16.707  24.088  11.544
46504W        W14722   1.377  31.576  13.483
46505W        W14723  10.612  11.726   2.354
46506W        W14724   8.685  25.945   1.218
46507W        W14725  40.423  25.445  13.941
46508W        W14726  44.521   3.599   1.945
46509W        W14727  37.815  20.148   2.314
46510W        W14728  17.066   6.123   2.285
46511W        W14729   3.932  30.946   4.243
46512W        W14730  29.313  40.760   4.082
46513W        W14731   0.511  19.694   3.730
46514W        W14732   5.751  24.301  14.409
46515W        W14733   6.780  40.556   4.639
46516W        W14734   5.364  27.769  11.102
46517W        W14735  40.881  14.860  11.551
46518W        W14736  42.463  39.126  11.050
46519W        W14737  32.341  43.502   3.280
46520W        W14738   7.382   2.939  11.194
46521W        W14739   9.401   1.166  13.896
46522W        W14740  30.401  24.950   1.297
46523W        W14741   9.831   5.029  11.566
46524W        W14742  25.125  24.476  10.739
46525W        W14743  20.200   3.414  10.705
46526W        W14744  42.420  18.967   2.765
46527W        W14745  11.429  38.375   0.936
46528W        W14746   1.287   8.926   0.354
46529W        W14747  14.824   6.819   3.631
46530W        W14748  38.345  40.786  14.687
46531W        W14749   6.221   2.175   3.670
46532W        W14750  29.064  44.281  11.964
46533W        W14751  27.088  31.365  10.609
46534W        W14752  24.795   0.483  14.416
46535W        W14753  31.526  33.628   3.917
46536W        W14754  37.052  38.479  10.639
46537W        W14755  41.396  35.201   1.543
46538W        W14756  28.883  19.572   1.606
46539W        W14757   5.611  28.118  10.816
46540W        W14758  20.577  30.081   3.965
46541W        W14759   2.189  28.091   0.012
46542W        W14760  42.028  36.403   1.512
46543W        W14761  41.761  34.764  10.010
46544W        W14762   0.364  33.494   4.400
46545W        W14763  13.966   0.592  13.577
46546W        W14764  16.257  11.586  14.622
46547W        W14765  25.347  26.483   0.287
46548W        W14766  38.085   5.335   0.772
46549W        W14767   0.070  22.270  13.970
46550W        W14768  40.465  12.049  14.688
46551W        W14769  34.520  34.808   3.042
46552W        W14770   7.506  11.902   1.600
46553W        W14771   9.635   9.857   2.315
46554W        W14772  26.218  12.442  12.830
46555W        W14773   6.936  44.549   3.729
46556W        W14774  31.637   0.806   4.197
46557W        W14775  17.808   9.707  13.327
46558W        W14776  11.103  38.088   1.913
46559W        W14777   4.164   8.820   2.889
46560W        W14778  13.687  23.959   0.324
46561W        W14779   2.734  20.032  14.997
46562W        W14780  43.753   0.969  12.030
46563W        W14781  33.913  44.534  12.422
46564W        W14782   6.411  35.108  10.691
46565W        W14783  39.265  19.638  10.965
46566W        W14784   6.418  31.847  14.828
46567W        W14785  33.229  39.166  14.944
46568W        W14786  41.299  31.495  12.402
46569W        W14787   0.802   0.889   1.029
46570W        W14788  21.462  13.893   0.366
46571W        W14789   0.249  39.618   1.261
46572W        W14790  30.944  18.949  14.964
46573W        W14791   6.394  44.540   3.720
46574W        W14792  40.519   8.636   3.300
46575W        W14793   6.425  32.191  14.444
46576W        W14794  14.845   6.041   4.142
46577W        W14795  22.465  37.134  11.001
46578W        W14796  13.954  24.704  10.814
46579W        W14797  30.242  15.635   2.349
46580W        W14798   9.233  34.205  13.112
46581W        W14799  35.196  36.880  14.516
46582W        W14800  20.783  36.993  13.531
46583W        W14801   2.880  26.503  14.325
46584W        W14802  22.353  41.225  13.177
46585W        W14803  12.369   4.314   4.759
46586W        W14804  34.353  37.474   0.669
46587W        W14805  11.612  16.553   3.763
46588W        W14806  27.847   4.779   4.914
46589W        W14807  44.415  13.710  12.144
46590W        W14808  12.142  32.324   4.129
46591W        W14809   8.905  28.948  10.700
46592W        W14810  38.092  26.100   0.633
46593W        W14811  26.432  11.385   2.057
46594W        W14812  33.176  22.132   1.735
46595W        W14813  39.275  20.531   4.530
46596W        W14814  15.830  25.223  12.067
46597W        W14815  19.141  33.484  11.542
46598W        W14816  32.744  30.158  13.037
46599W        W14817   7.179  12.517   4.163
46600W        W14818  38.271  25.213   0.905
46601W        W14819  20.280  25.330  14.313
46602W        W14820  16.096  12.899   0.845
46603W        W14821  23.987   3.835   2.347
46604W        W14822  14.354   5.299   2.310
46605W        W14823  39.939   9.141   2.782
46606W        W14824  20.819  33.829  12.294
46607W        W14825  16.862  15.170   4.946
46608W        W14826   2.438  20.728   1.322
46609W        W14827  25.851   9.682  12.788
46610W        W14828  24.449  17.110  10.712
46611W        W14829  28.110  17.503   4.943
46612W        W14830  28.364  35.813  13.285
46613W        W14831  11.399  32.909  11.952
46614W        W14832  34.272  44.525  14.965
46615W        W14833  27.240   3.893   2.182
46616W        W14834  36.400  12.413  13.499
46617W        W14835   0.916   3.249  14.176
46618W        W14836  18.710  13.481   1.209
46619W        W14837  42.158  20.215   4.345
46620W        W14838  25.094  10.657  10.959
46621W        W14839  17.577  42.403  14.381
46622W        W14840   9.849   5.528  14.041
46623W        W14841  19.315  20.772   1.706
46624W        W14842  44.293   7.300  11.209
46625W        W14843  18.822   4.404   4.640
46626W        W14844  44.491   1.687  11.728
46627W        W14845  32.883  42.215  13.951
46628W        W14846  11.891  18.709  14.272
46629W        W14847  36.391  12.506   3.697
46630W        W14848  10.732  12.215  11.878
46631W        W14849  10.227  11.104  11.547
46632W        W14850   4.781  29.739   3.628
46633W        W14851   2.354   0.218   0.938
46634W        W14852  10.203  12.333   0.771
46635W        W14853  37.011  19.601  10.383
46636W        W14854  22.361  22.131   2.600
46637W        W14855   5.311  28.689   1.356
46638W        W14856  27.612  22.103  13.559
46639W        W14857  21.549  34.090  11.055
46640W        W14858  18.273  10.823   0.251
46641W        W14859  20.561  30.389  12.021
46642W        W14860  26.636   2.365   2.961
46643W        W14861  29.829  20.866  14.810
46644W        W14862  39.975  40.818   3.298
46645W        W14863   3.002  30.073   3.000
46646W        W14864  30.733  44.992  10.668
46647W        W14865  20.327  38.889  14.347
46648W        W14866   9.483   0.655   3.772
46649W        W14867  16.646  38.752  12.035
46650W        W14868   1.703   4.100   1.834
46651W        W14869  28.450  13.205   1.776
46652W        W14870  22.040  15.354   4.558
46653W        W14871  41.449  19.559   3.607
46654W        W14872   3.835  19.441   1.747
46655W        W14873  44.570  38.185  14.752
46656W        W14874  35.301   6.215  14.879
46657W        W14875  23.995   0.141   3.758
46658W        W14876  44.864  13.759  11.875
46659W        W14877  37.579   6.428   1.303
46660W        W14878  20.177  31.140   1.782
46661W        W14879  39.120   1.738   0.830
46662W        W14880  22.027  27.680   0.209
46663W        W14881  40.444   4.272   0.743
46664W        W14882  39.024  28.454   4.252
46665W        W14883  27.126  44.141   2.401
46666W        W14884  40.063   6.668  11.664
46667W        W14885  29.887  15.738  14.028
46668W        W14886  13.755  42.872  11.565
46669W        W14887  20.373   7.856  14.363
46670W        W14888  36.879  31.419   0.030
46671W        W14889  37.404  23.526  14.743
46672W        W14890   4.222  43.721   1.806
46673W        W14891  28.895  39.798  13.526
46674W        W14892  35.342   4.460  10.321
46675W        W14893  19.473  37.983  13.686
46676W        W14894  36.629  29.498   1.195
46677W        W14895  37.832   4.863   2.828
46678W        W14896  31.527   8.828   1.921
46679W        W14897  32.082  19.322   0.320
46680W        W14898  11.421   4.769  13.348
46681W        W14899  43.585   7.091  13.798
46682W        W14900  21.143  30.535  11.997
46683W        W14901  20.264  38.662  14.815
46684W        W14902   1.450  34.506   2.834
46685W        W14903  25.304  17.615  12.836
46686W        W14904  13.739   3.365  14.371
46687W        W14905  32.438   7.042   1.248
46688W        W14906  24.524   1.482   0.361
46689W        W14907  18.995  42.397   4.249
46690W        W14908  33.453   1.374  11.016
46691W        W14909   5.901  23.168  10.741
46692W        W14910  18.644  39.101  14.591
46693W        W14911  41.958   0.496   0.273
46694W        W14912   9.901  42.812  10.794
46695W        W14913  41.538  10.418  14.193
46696W        W14914  15.682  13.593  13.115
46697W        W14915  38.500  10.851  11.165
46698W        W14916  25.903  11.835  14.628
46699W        W14917  14.287  35.027  12.953
46700W        W14918  30.517   9.678  10.694
46701W        W14919  36.860   4.286   0.017
46702W        W14920  19.281  34.932   0.212
46703W        W14921  38.813  12.927  13.488
46704W        W14922  11.196  24.607   4.898
46705W        W14923  21.330  11.858   5.082
46706W        W14924  43.313  30.719   1.400
46707W        W14925  14.597   7.654   0.497
46708W        W14926  29.126  23.496  12.683
46709W        W14927  10.369  21.086  11.394
46710W        W14928  27.962  26.776  12.942
46711W        W14929  21.228   4.237  14.765
46712W        W14930   6.001  38.333  13.247
46713W        W14931  20.869  31.122   4.688
46714W        W14932  20.008  37.549   4.756
46715W        W14933  12.821   7.771   3.994
46716W        W14934  13.799   5.243  13.888
46717W        W14935  40.521  31.711  14.495
46718W        W14936  27.616   2.035   0.200
46719W        W14937  27.064  25.427   0.020
46720W        W14938  27.503  15.053  14.391
46721W        W14939   1.811   5.338   1.218
46722W        W14940  44.397   5.038   0.784
46723W        W14941  30.158  40.045   2.342
46724W        W14942  25.363  12.607  10.294
46725W        W14943   9.445  30.390  13.808
46726W        W14944   5.976   7.274  12.085
46727W        W14945  19.110  19.267  11.727
46728W        W14946  11.590  42.911  14.720
46729W        W14947  37.388   5.399   3.085
46730W        W14948  36.334  27.057   5.678
46731W        W14949   0.783  26.249   0.359
46732W        W14950   2.810  33.003   2.785
46733W        W14951  35.757  24.017   0.859
46734W        W14952  32.118   7.594   1.871
46735W        W14953   0.253  16.287  10.963
46736W        W14954   9.670  23.635   1.827
46737W        W14955   5.794  13.149   0.044
46738W        W14956  23.865  44.068   1.940
46739W        W14957  31.540   6.382  11.409
46740W        W14958  22.314   6.873   1.396
46741W        W14959  43.530  33.679   0.031
46742W        W14960   4.370  43.283  11.139
46743W        W14961   1.155   9.757   3.087
46744W        W14962  43.409  36.075  13.413
46745W        W14963  42.780   9.771  11.664
46746W        W14964  38.090  42.810   1.156
46747W        W14965   6.780  40.758   1.365
46748W        W14966   1.644   6.632   2.689
46749W        W14967   0.276  12.783   2.384
46750W        W14968  43.802  12.269  13.455
46751W        W14969  38.867  35.000   1.513
46752W        W14970  20.813  36.310  13.036
46753W        W14971   9.116  44.071   3.704
46754W        W14972  42.097  42.186  11.230
46755W        W14973   2.430  23.958   0.074
46756W        W14974  20.178   0.839  10.643
46757W        W14975  30.163  41.024  12.000
46758W        W14976  30.649  41.761  13.755
46759W        W14977  35.051  27.009  10.252
46760W        W14978   6.251   7.100  13.520
46761W        W14979  29.911   7.309  13.434
46762W        W14980   2.454  42.401   4.529
46763W        W14981  32.251  39.005  10.725
46764W        W14982  31.958  25.168   4.627
46765W        W14983  13.536  25.754   2.582
46766W        W14984  22.624   9.041  11.138
46767W        W14985  31.993  35.617  14.823
46768W        W14986  27.057  39.038   3.027
46769W        W14987  12.581  15.732   3.026
46770W        W14988  24.114  12.879  11.574
46771W        W14989   3.079   8.379  13.519
46772W        W14990  23.741  15.826   0.950
46773W        W14991  20.375  13.978   5.331
46774W        W14992   6.218  28.631  14.774
46775W        W14993  37.899  29.361  12.994
46776W        W14994  31.656  11.868  11.169
46777W        W14995  22.734  40.842   3.744
46778W        W14996  35.308   9.555  11.527
46779W        W14997   7.211  23.037  11.959
46780W        W14998  26.076  20.698  14.291
46781W        W14999  13.418  39.054  12.114
46782W        W15000  19.720  12.718   0.901
46783W        W15001  15.054  33.485  14.845
46784W        W15002  40.846   1.331  12.485
46785W        W15003   2.394  20.296  12.072
46786W        W15004  19.598  41.767  14.618
46787W        W15005  16.753   7.648   4.649
46788W        W15006  26.442  13.838   2.771
46789W        W15007  17.319  29.102  10.353
46790W        W15008   4.946  39.840  14.437
46791W        W15009   2.416  35.570   3.948
46792W        W15010  19.226  15.250  10.347
46793W        W15011   7.341  34.378   1.928
46794W        W15012  15.735  34.376   1.754
46795W        W15013   7.662  17.693   3.354
46796W        W15014  21.362  30.526  12.492
46797W        W15015  32.502  26.148   1.085
46798W        W15016   3.961  14.135  14.972
46799W        W15017  26.396   7.879  13.786
46800W        W15018  31.650  14.874   1.931
46801W        W15019  21.185  44.923   3.815
46802W        W15020  24.130  35.111  14.460
46803W        W15021   5.987  10.672   0.776
46804W        W15022  24.389   3.217   2.316
46805W        W15023  28.551  14.058  12.707
46806W        W15024   1.399  17.243   3.311
46807W        W15025   6.861   6.662   4.590
46808W        W15026   7.373  11.459  12.768
46809W        W15027  28.805   5.338  10.567
46810W        W15028  30.156  14.526  10.658
46811W        W15029  26.569  35.935   4.676
46812W        W15030  36.157  31.181  14.863
46813W        W15031  44.989  42.983  11.960
46814W        W15032  42.621   9.506  12.501
46815W        W15033  40.569   7.716  14.367
46816W        W15034  30.991  18.703  14.244
46817W        W15035  43.061  15.726  10.704
46818W        W15036  22.441  32.512   3.585
46819W        W15037  16.685   3.198  13.536
46820W        W15038  23.128  30.783  13.627
46821W        W15039  17.225  28.436  14.937
46822W        W15040  27.546  22.426  13.968
46823W        W15041  10.908  13.232  14.895
46824W        W15042  17.206   8.310  14.260
46825W        W15043  38.942  20.566   3.162
46826W        W15044  28.541  27.668   0.224
46827W        W15045   4.649  13.313   1.005
46828W        W15046  20.675  19.451   2.443
46829W        W15047  36.908   7.695  12.523
46830W        W15048  43.622   2.042  10.909
46831W        W15049   7.252  17.789  11.964
46832W        W15050  21.076  43.481  14.378
46833W        W15051  42.515  39.634   2.665
46834W        W15052  40.433  14.440  14.310
46835W        W15053  30.698  28.570  11.980
46836W        W15054   8.969   2.920  13.405
46837W        W15055  22.608  38.072  10.929
46838W        W15056  31.142   6.736  12.016
46839W        W15057  24.359  25.468   4.994
46840W        W15058  26.488  41.960  14.061
46841W        W15059  21.211   7.748   2.108
46842W        W15060  35.420  18.667   1.839
46843W        W15061  11.916  27.228  14.730
46844W        W15062  21.793  13.181   2.257
46845W        W15063  22.230   4.056   2.954
46846W        W15064  16.415  24.178  13.804
46847W        W15065  43.566   6.733  12.075
46848W        W15066  19.536  27.912  12.019
46849W        W15067  23.614  41.497   0.920
46850W        W15068  43.790   0.208  11.637
46851W        W15069  39.074  17.020  11.192
46852W        W15070  43.985  41.979   4.189
46853W        W15071  27.679  42.742   3.362
46854W        W15072  23.462  20.253   3.632
46855W        W15073  27.061   1.951   4.739
46856W        W15074  28.230  18.331  14.825
46857W        W15075  43.790  22.189   1.183
46858W        W15076  31.069  12.326   3.580
46859W        W15077  22.554  44.478   1.889
46860W        W15078  23.941  11.745  11.025
46861W        W15079   1.378   7.191   1.943
46862W        W15080  40.153  31.667   0.873
46863W        W15081  42.286  19.200   0.319
46864W        W15082  33.341  28.865  10.300
46865W        W15083   8.936  35.117   2.452
46866W        W15084  33.632  36.929   2.831
46867W        W15085  39.543  25.583  12.199
46868W        W15086   8.727  23.627  14.760
46869W        W15087  27.077  31.706  12.365
46870W        W15088   9.480   7.050  12.007
46871W        W15089  12.258   7.057  13.906
46872W        W15090  25.729   3.466  10.315
46873W        W15091  16.874  32.613   4.176
46874W        W15092  30.617  32.839  14.898
46875W        W15093  35.059  11.873  13.341
46876W        W15094  26.581   8.306   3.967
46877W        W15095  24.115  18.666  11.659
46878W        W15096  42.320  32.049   4.097
46879W        W15097  14.320  44.406   3.642
46880W        W15098  37.897  38.914   0.287
46881W        W15099  14.164   3.093  14.032
46882W        W15100  43.366  25.299   0.682
46883W        W15101  21.242  18.950  13.301
46884W        W15102  10.057  16.054  10.876
46885W        W15103   5.047   9.747  14.935
46886W        W15104  31.172  40.370   1.237
46887W        W15105  28.943  30.326   4.264
46888W        W15106  33.343  10.916   2.763
46889W        W15107  26.966  39.241  12.574
46890W        W15108  30.606  29.234   3.776
46891W        W15109   7.155  20.766  14.946
46892W        W15110  33.595  25.138   1.692
46893W        W15111  20.807  26.063  12.244
46894W        W15112  27.248  17.098  12.872
46895W        W15113  27.490  14.504  13.439
46896W        W15114  39.382  39.456  13.994
46897W        W15115  17.028   9.878   2.038
46898W        W15116   4.265  12.367  14.442
46899W        W15117  25.527  33.989   2.805
46900W        W15118  38.228  36.744   1.151
46901W        W15119  14.570  37.672  14.141
46902W        W15120  17.190   5.197   3.240
46903W        W15121  18.983  21.577   2.746
46904W        W15122  33.647   3.339   2.290
46905W        W15123  20.168  35.100  12.022
46906W        W15124   6.383  32.933   2.424
46907W        W15125  43.975  12.066  13.973
46908W        W15126  18.670  35.307  13.011
46909W        W15127   9.307   6.272  12.365
46910W        W15128  33.190   4.820   1.951
46911W        W15129  32.168   9.441  11.797
46912W        W15130   5.259  30.922  12.511
46913W        W15131  15.295  14.835   1.247
46914W        W15132  43.419  27.484  13.876
46915W        W15133  19.520  37.254  13.343
46916W        W15134   6.963  13.891  14.784
46917W        W15135  44.437  31.888   1.855
46918W        W15136  24.524  40.799   1.325
46919W        W15137  38.908  38.332   0.317
46920W        W15138   7.946  36.523   0.758
46921W        W15139  28.190  32.134  11.045
46922W        W15140  11.903  25.174   4.914
46923W        W15141  11.608  40.483   2.492
46924W        W15142  36.388   2.765  14.329
46925W        W15143   3.314   9.120  14.503
46926W        W15144  20.750  34.302   2.302
46927W        W15145  33.917  26.192  13.479
46928W        W15146   1.331  11.119  11.189
46929W        W15147  12.847  30.528   0.439
46930W        W15148   3.971  29.097  13.823
46931W        W15149  44.099  25.768  11.130
46932W        W15150   6.606  10.544   0.169
46933W        W15151  35.095  33.633   1.009
46934W        W15152  44.790  11.215   1.945
46935W        W15153  43.347  14.960   3.491
46936W        W15154  25.042   8.747  14.900
46937W        W15155  34.455   8.342   3.553
46938W        W15156  31.161  25.550  11.581
46939W        W15157  15.692   0.331   0.728
46940W        W15158  12.719  36.922  12.613
46941W        W15159   8.645  44.839   4.942
46942W        W15160  16.697  10.613  12.918
46943W        W15161  12.163   6.620   4.173
46944W        W15162  35.404  30.606   0.841
46945W        W15163  13.801  28.497   3.405
46946W        W15164  41.263  20.059   1.806
46947W        W15165   2.281   7.841   2.339
46948W        W15166  41.072  34.610  13.634
46949W        W15167  35.480  34.886   4.463
46950W        W15168  34.488  34.033   4.080
46951W        W15169  42.827  16.918  12.957
46952W        W15170  16.545  10.857   4.142
46953W        W15171  17.159  41.342   3.015
46954W        W15172  34.421   4.949   0.393
46955W        W15173  40.582  42.353  11.174
46956W        W15174  26.039  34.086   1.916
46957W        W15175  12.120  29.670   0.706
46958W        W15176  24.722  38.873  13.433
46959W        W15177  37.803  39.066   1.334
46960W        W15178  40.375   7.343   0.440
46961W        W15179   1.896  25.563   1.359
46962W        W15180  12.336  12.615  14.556
46963W        W15181  29.929  21.587   1.723
46964W        W15182   9.204   6.776   4.045
46965W        W15183  20.262  33.068  12.096
46966W        W15184   3.406  39.690   4.713
46967W        W15185   2.375  28.081   1.439
46968W        W15186  12.916  38.794  14.766
46969W        W15187   4.640  10.453   0.462
46970W        W15188  13.250  29.171  10.803
46971W        W15189  27.404   4.965   0.382
46972W        W15190  18.310  39.680  14.018
46973W        W15191  41.369  16.728  11.964
46974W        W15192  37.423  40.984  11.247
46975W        W15193   2.942  16.129  12.890
46976W        W15194  39.100  28.514  13.763
46977W        W15195  30.153   4.334   3.649
46978W        W15196  27.944  41.068  11.590
46979W        W15197  23.969  27.367  12.889
46980W        W15198  38.035  10.622  11.303
46981W        W15199  23.693  42.521  10.962
46982W        W15200  31.278  41.110   3.560
46983W        W15201   4.832  20.018  13.866
46984W        W15202  42.423  37.866   1.268
46985W        W15203  41.216  41.208   2.290
46986W        W15204   0.744   3.990   0.319
46987W        W15205   2.975  20.649  14.300
46988W        W15206   4.774  14.805   4.073
46989W        W15207  21.234  42.772  14.893
46990W        W15208  41.852  43.395  14.297
46991W        W15209  40.408  43.459   4.322
46992W        W15210  43.242  42.371   0.550
46993W        W15211  12.794   8.459  13.838
46994W        W15212  21.113  26.711   2.805
46995W        W15213   3.279  31.454   1.789
46996W        W15214  17.082  42.387   1.793
46997W        W15215   7.223  13.991  12.011
46998W        W15216  23.162  41.991  13.556
46999W        W15217  15.115  22.474  11.175
47000W        W15218  44.005  36.330   2.922
47001W        W15219  17.708   1.985   1.463
47002W        W15220  25.948  40.369   0.369
47003W        W15221  30.380   7.242   2.415
47004W        W15222  38.343  29.246   3.352
47005W        W15223  26.577   9.399  14.981
47006W        W15224  34.765  37.514   2.729
47007W        W15225  11.312  18.145   1.702
47008W        W15226  38.771  13.645   0.275
47009W        W15227  20.127   4.528  13.508
47010W        W15228   0.004  19.186   4.585
47011W        W15229  26.643  31.003   5.033
47012W        W15230   5.545  30.193  12.080
47013W        W15231  44.854  33.623   4.328
47014W        W15232  11.304  39.467   4.147
47015W        W15233  12.400   8.671   4.332
47016W        W15234  17.753   5.164   3.199
47017W        W15235  15.069  35.062  14.183
47018W        W15236   1.793   4.420  10.807
47019W        W15237  14.366  24.731  12.423
47020W        W15238   3.899   6.898  13.162
47021W        W15239  43.380  21.574   4.735
47022W        W15240   2.003  24.080  13.490
47023W        W15241   8.220  19.151  14.808
47024W        W15242  22.961  43.782   3.541
47025W        W15243  19.598  34.066  11.582
47026W        W15244  20.516   2.978  13.011
47027W        W15245  35.854  10.728  11.962
47028W        W15246   9.226   9.817   3.624
47029W        W15247  16.861  29.370  10.738
47030W        W15248   8.249   0.286  13.377
47031W        W15249  35.537  36.320   4.326
47032W        W15250   2.726   6.354  14.787
47033W        W15251  25.516  37.646   2.164
47034W        W15252  26.935  26.248  13.837
47035W        W15253  14.813  22.632   3.567
47036W        W15254  32.588  17.242   3.304
47037W        W15255  16.906  26.133   3.718
47038W        W15256   9.212  30.621   3.082
47039W        W15257  30.256  31.477  11.864
47040W        W15258  12.853  35.495   1.758
47041W        W15259  33.452  20.562   2.753
47042W        W15260  37.997  28.275   0.375
47043W        W15261  33.053  26.977   0.268
47044W        W15262  25.956  27.078   1.740
47045W        W15263  22.073  15.042  13.927
47046W        W15264   8.636  27.070  12.931
47047W        W15265  20.852  33.344  11.173
47048W        W15266  39.430   1.281  12.535
47049W        W15267  14.821   2.536  13.938
47050W        W15268  22.021  37.538   0.876
47051W        W15269  12.723  22.980  10.405
47052W        W15270   9.926  19.273   2.413
47053W        W15271  25.531  38.822  14.693
47054W        W15272   6.730  26.307  12.081
47055W        W15273   1.785   6.218  11.606
47056W        W15274  25.179   1.830  11.526
47057W        W15275  33.429  44.543   4.114
47058W        W15276  12.824   5.693  14.942
47059W        W15277  42.743   3.318  14.443
47060W        W15278  42.229  42.230   0.829
47061W        W15279   2.506  19.542  12.512
47062W        W15280  33.106  42.961  14.976
47063W        W15281  13.523  42.830   0.809
47064W        W15282  27.030  13.308  11.059
47065W        W15283   8.605  43.309  10.613
47066W        W15284  19.066   2.348  10.657
47067W        W15285  28.895  18.799  12.802
47068W        W15286  33.195  15.709  13.858
47069W        W15287  12.748  40.500   2.811
47070W        W15288   6.465  33.922  11.134
47071W        W15289   6.831   1.344   1.287
47072W        W15290  11.957  26.083  11.634
47073W        W15291  30.534  29.591   3.361
47074W        W15292  12.094  27.150  12.432
47075W        W15293  35.272  25.503   4.519
47076W        W15294  25.240  18.982   3.299
47077W        W15295   6.873  25.570  12.279
47078W        W15296  41.065  37.286  11.568
47079W        W15297  44.613  25.993   2.673
47080W        W15298  16.569  35.458  14.967
47081W        W15299  14.749  32.411   2.177
47082W        W15300  34.959  38.583   0.760
47083W        W15301  23.558   5.349  10.774
47084W        W15302   4.276  24.149   1.160
47085W        W15303  21.173  34.596  13.460
47086W        W15304  26.213   4.324   0.662
47087W        W15305  25.056  16.076   3.761
47088W        W15306  12.600  36.484  12.392
47089W        W15307  34.036   4.436  12.871
47090W        W15308  31.506  38.819   3.788
47091W        W15309  30.126  18.160   3.637
47092W        W15310  37.424  25.407   2.794
47093W        W15311   0.116   6.372   3.505
47094W        W15312   0.452  20.462   1.487
47095W        W15313  34.372  16.549  12.646
47096W        W15314  13.001  39.279   4.199
47097W        W15315  25.580  37.458   3.158
47098W        W15316  12.571  23.963  13.499
47099W        W15317  34.718   0.283  12.363
47100W        W15318  22.175  19.685   4.283
47101W        W15319  26.818   1.413   2.013
47102W        W15320  31.588  37.410  11.949
47103W        W15321  21.997  24.893  11.989
47104W        W15322   9.098  21.453   1.276
47105W        W15323  37.220  15.852   1.597
47106W        W15324  43.454  36.950   4.380
47107W        W15325   6.231   6.675  11.075
47108W        W15326  34.387  11.124   2.265
47109W        W15327  12.726  43.408  14.044
47110W        W15328  41.804  27.055  11.700
47111W        W15329  36.139  11.158  11.964
47112W        W15330   3.993   0.511  11.367
47113W        W15331  42.542  44.528  14.359
47114W        W15332  32.773   3.290  11.573
47115W        W15333   2.200  26.201   3.310
47116W        W15334  15.776  31.112   0.588
47117W        W15335  33.368   9.292  10.633
47118W        W15336  31.501  13.863  11.608
47119W        W15337  34.568   8.753   4.468
47120W        W15338  42.968  35.384   2.017
47121W        W15339  38.725   7.688  10.321
47122W        W15340  27.124  22.184  11.507
47123W        W15341  13.866   5.445   4.672
47124W        W15342  38.994  14.366   2.816
47125W        W15343   5.343  44.617  10.181
47126W        W15344  23.112  18.785  10.815
47127W        W15345   8.694   6.615   0.669
47128W        W15346  15.910   6.904  12.600
47129W        W15347  41.316  24.200  10.653
47130W        W15348   0.939   3.427  11.360
47131W        W15349  26.912  18.762   3.739
47132W        W15350   0.872  12.485   2.777
47133W        W15351   4.261  37.102   4.708
47134W        W15352  10.364  44.865   3.156
47135W        W15353   6.238  20.820  14.490
47136W        W15354  44.001   3.230  14.324
47137W        W15355  17.716  43.856  11.998
47138W        W15356   2.132   3.305   4.074
47139W        W15357  26.723  30.921  14.711
47140W        W15358  43.300   2.422  13.326
47141W        W15359  34.389  17.482  14.840
47142W        W15360  39.366   0.879  14.171
47143W        W15361  12.966   5.937  13.237
47144W        W15362   9.270  25.065  10.742
47145W        W15363   3.187  25.112  14.312
47146W        W15364  38.823  34.996   2.953
47147W        W15365   3.001  44.078   1.325
47148W        W15366   2.414  11.800   0.379
47149W        W15367  18.774  35.316  14.012
47150W        W15368  14.688  44.321   0.452
47151W        W15369  26.054  13.099  10.867
47152W        W15370  28.990  34.349   2.830
47153W        W15371  21.634  27.424  14.994
47154W        W15372  13.721  35.975  11.922
47155W        W15373   4.706  44.033  12.840
47156W        W15374  11.267  12.365  10.705
47157W        W15375  22.715  35.634   4.132
47158W        W15376  29.148  19.042  10.692
47159W        W15377  36.231  15.358   0.357
47160W        W15378  24.686  40.991  10.931
47161W        W15379  39.000  18.347   4.212
47162W        W15380  36.112  23.560  14.819
47163W        W15381  26.022  28.035  11.221
47164W        W15382  38.322  18.200  13.975
47165W        W15383  17.355  36.061   4.282
47166W        W15384  25.476   5.341  13.444
47167W        W15385  22.602  44.229  12.616
47168W        W15386  44.953  39.773   1.998
47169W        W15387  21.194   9.250  10.867
47170W        W15388  24.963  39.658   3.148
47171W        W15389   7.979  23.430   3.679
47172W        W15390  35.374   2.875   3.557
47173W        W15391  44.414  21.773  12.079
47174W        W15392  30.146   6.229   2.246
47175W        W15393  31.397  24.070  10.669
47176W        W15394   8.162   7.256  13.940
47177W        W15395  26.559  11.365  14.363
47178W        W15396  11.291  23.400  12.537
47179W        W15397  37.863   0.325   0.781
47180W        W15398  29.928  23.606  10.593
47181W        W15399  28.919  27.153   0.004
47182W        W15400   1.925  23.965  14.943
47183W        W15401  12.105  18.199  11.561
47184W        W15402   5.147  30.133   4.653
47185W        W15403  26.747  33.453  11.082
47186W        W15404  11.338  37.161   4.024
47187W        W15405  37.295  15.147  14.325
47188W        W15406  38.346  35.113   2.745
47189W        W15407  13.751  36.422   2.219
47190W        W15408  19.117  40.003  10.353
47191W        W15409   7.011  38.603   4.076
47192W        W15410  38.895  35.655  14.853
47193W        W15411  25.554  27.313   4.307
47194W        W15412  11.741   9.844  11.119
47195W        W15413   9.233  40.407   0.075
47196W        W15414  13.400  33.942  12.962
47197W        W15415  12.342  29.149  12.517
47198W        W15416  38.746   0.683  13.369
47199W        W15417   9.897  33.589   3.960
47200W        W15418  35.230   6.110   1.770
47201W        W15419  39.370  40.335   2.818
47202W        W15420  12.195   5.008  11.132
47203W        W15421  21.105  37.008   4.550
47204W        W15422   7.819  29.812  14.128
47205W        W15423  34.816  40.013   4.587
47206W        W15424  34.619  29.383   0.440
47207W        W15425  41.357   8.801  11.596
47208W        W15426  28.888   8.137  11.946
47209W        W15427  35.078  37.930   2.396
47210W        W15428  21.306  34.036  12.445
47211W        W15429  12.098  18.625   0.303
47212W        W15430  10.676   0.777   3.189
47213W        W15431  17.186   6.894  10.944
47214W        W15432  19.183  34.812   4.705
47215W        W15433  36.189  26.412  11.925
47216W        W15434  15.903  14.228   2.817
47217W        W15435  10.073  18.110  10.334
47218W        W15436  38.431  30.914   3.735
47219W        W15437  15.248  36.523   4.918
47220W        W15438   2.278  29.187  12.371
47221W        W15439  14.375  33.023   1.941
47222W        W15440   7.824  25.617  14.394
47223W        W15441   1.759   1.418  14.884
47224W        W15442  25.083  31.356  14.465
47225W        W15443  22.375  14.669  10.799
47226W        W15444  43.554  13.796  13.515
47227W        W15445  30.932  27.342   1.507
47228W        W15446  42.477   1.815   3.955
47229W        W15447   7.301  22.002   4.982
47230W        W15448  15.600  24.172   3.696
47231W        W15449  44.003  28.055  13.316
47232W        W15450   6.639  17.442  11.210
47233W        W15451  23.003  34.091  13.449
47234W        W15452  14.483  33.495  14.273
47235W        W15453  33.552  42.323   1.916
47236W        W15454  16.746  20.288  12.549
47237W        W15455   6.652   6.692  11.476
47238W        W15456  28.440   6.306  11.870
47239W        W15457  36.462  34.436   1.877
47240W        W15458  18.420  25.567  13.149
47241W        W15459  11.939  38.434   0.975
47242W        W15460   0.436  16.111  11.598
47243W        W15461  11.190   8.253  10.587
47244W        W15462  41.185  37.622  13.178
47245W        W15463  14.601  32.443   0.836
47246W        W15464   1.017   3.634  10.554
47247W        W15465  17.099   5.422  11.111
47248W        W15466   7.229  40.204   1.905
47249W        W15467  13.578   2.891  10.455
47250W        W15468  32.135  12.820  13.476
47251W        W15469  22.527   7.423   2.841
47252W        W15470   1.742  35.098  10.396
47253W        W15471  27.229  31.818   3.879
47254W        W15472   3.696  12.379   0.280
47255W        W15473  18.044  34.404  13.970
47256W        W15474  13.662  44.737  13.137
47257W        W15475   0.939  39.772  14.385
47258W        W15476  26.394  39.878   2.474
47259W        W15477  27.599  33.564  12.567
47260W        W15478  40.866  38.829   1.365
47261W        W15479  17.254  10.585   1.426
47262W        W15480  17.346  33.771   2.728
47263W        W15481  39.762   7.201  12.900
47264W        W15482   0.324  23.801  14.999
47265W        W15483  25.610   3.204   0.838
47266W        W15484  14.819  11.619  11.273
47267W        W15485  18.668   6.609  11.527
47268W        W15486  14.510  21.216   2.716
47269W        W15487  15.641  28.706  12.444
47270W        W15488  29.366   9.798   1.042
47271W        W15489   2.423   2.341   2.786
47272W        W15490  26.688  22.961   1.862
47273W        W15491   3.878  24.333  14.382
47274W        W15492  32.686  44.822   1.748
47275W        W15493  24.488   3.905   1.329
47276W        W15494  32.899  16.102  14.928
47277W        W15495  10.475   3.241  11.618
47278W        W15496   5.779  17.080  13.516
47279W        W15497  10.908   3.317  14.450
47280W        W15498   3.496  35.401   4.949
47281W        W15499  39.749  24.244  13.049
47282W        W15500  18.353  24.854   0.262
47283W        W15501  26.979  36.723  13.119
47284W        W15502  40.542  38.997  11.213
47285W        W15503  12.362  40.875  11.854
47286W        W15504  25.147  32.405  10.723
47287W        W15505   4.327   4.088  14.940
47288W        W15506   5.125  29.070  10.781
47289W        W15507  25.096  18.995   0.423
47290W        W15508  37.462  11.861   1.292
47291W        W15509  32.898  30.092   4.927
47292W        W15510  16.537   4.809  10.622
47293W        W15511   9.899   4.230  14.922
47294W        W15512   9.994  12.561  13.572
47295W        W15513  38.435  17.020   4.319
47296W        W15514  31.192  27.935  12.463
47297W        W15515  29.302  29.033   2.645
47298W        W15516   6.074   0.983   0.471
47299W        W15517   2.532  13.977   0.438
47300W        W15518  30.038  35.410   3.896
47301W        W15519  12.023  27.968  10.194
47302W        W15520  15.396  33.569  12.163
47303W        W15521  23.172  26.552   3.479
47304W        W15522  21.583  41.765   0.870
47305W        W15523  42.778  43.137  12.884
47306W        W15524   7.944  40.241   1.549
47307W        W15525  22.960  24.069   3.683
47308W        W15526  14.232  21.053   4.400
47309W        W15527   5.901  20.134  14.002
47310W        W15528  10.604  19.645  13.443
47311W        W15529  40.601  30.983  11.955
47312W        W15530   7.831  31.672  12.942
47313W        W15531  26.094   3.512   3.734
47314W        W15532  13.183  21.150   5.076
47315W        W15533  12.652  29.637  14.717
47316W        W15534  27.450  28.927   0.024
47317W        W15535  30.005   9.052  13.862
47318W        W15536  34.442   9.020  11.114
47319W        W15537  20.476  10.891  14.929
47320W        W15538  25.467  40.201   1.597
47321W        W15539  14.374  16.671   1.361
47322W        W15540  25.609  17.530  14.950
47323W        W15541  36.801  13.796   0.879
47324W        W15542  24.657   1.058  10.513
47325W        W15543  39.072  24.649   0.095
47326W        W15544  29.513  21.664   4.087
47327W        W15545  25.118  14.688   0.529
47328W        W15546  31.416   0.618  14.990
47329W        W15547  44.859  20.204  12.885
47330W        W15548  19.734  24.779  14.789
47331W        W15549  37.574  20.842   0.424
47332W        W15550  18.610  10.114  14.775
47333W        W15551  40.054   7.135  10.885
47334W        W15552   7.944   7.447   2.155
47335W        W15553  21.058  34.106  14.369
47336W        W15554   4.596  22.559   3.136
47337W        W15555   6.734  37.197  12.216
47338W        W15556   6.891  13.079  13.734
47339W        W15557   2.417  37.046  13.765
47340W        W15558   4.462  15.412  14.671
47341W        W15559   8.148  23.741  12.962
47342W        W15560  21.302  32.544   2.693
47343W        W15561  36.982  32.134  13.760
47344W        W15562  32.151  42.995  13.050
47345W        W15563  17.379  16.128  10.588
47346W        W15564  44.918  36.432   4.977
47347W        W15565  25.852  35.147   4.824
47348W        W15566   7.853  21.148   0.198
47349W        W15567  40.912  23.060  11.644
47350W        W15568   9.535   5.427  12.534
47351W        W15569  18.936  42.439   0.559
47352W        W15570  26.007  33.268   2.434
47353W        W15571  24.755  30.177  14.451
47354W        W15572  39.895  24.197  14.064
47355W        W15573  34.386  11.472  10.385
47356W        W15574  40.151  14.288  14.741
47357W        W15575   8.338  19.662  10.774
47358W        W15576   3.463  40.627  12.899
47359W        W15577  12.882   3.449  12.868
47360W        W15578  22.343  24.153  14.960
47361W        W15579  30.840  34.830  14.426
47362W        W15580  28.242   3.673   3.277
47363W        W15581  18.274  36.615  12.910
47364W        W15582  29.902  23.586  13.986
47365W        W15583  29.484  14.762   4.107
47366W        W15584  12.284  35.269  12.356
47367W        W15585  18.792  25.278   3.772
47368W        W15586   8.204  31.621  13.325
47369W        W15587   2.379   3.450   0.281
47370W        W15588  44.253   2.540  12.035
47371W        W15589   9.236  31.936  12.259
47372W        W15590  26.153  41.294  14.910
47373W        W15591   7.965  11.396  13.487
47374W        W15592  39.464  38.001   3.277
47375W        W15593   6.464  22.518   3.680
47376W        W15594  29.267  24.799  14.748
47377W        W15595  26.268  12.150   3.781
47378W        W15596  40.035  11.166   4.975
47379W        W15597   6.437  22.653  14.512
47380W        W15598  33.950  39.270  13.955
47381W        W15599   0.004  32.152  12.861
47382W        W15600   6.395  29.065  14.972
47383W        W15601   2.780  42.048   0.211
47384W        W15602  25.097  15.749  12.998
47385W        W15603  23.234  18.183   3.139
47386W        W15604   6.078   5.945  12.666
47387W        W15605  18.191  44.408  11.734
47388W        W15606  38.388  17.176  12.106
47389W        W15607  15.658  23.168   1.373
47390W        W15608  31.558  22.035   0.439
47391W        W15609  41.096  44.829   0.414
47392W        W15610  19.596   9.344   1.209
47393W        W15611  26.204  14.184  12.285
47394W        W15612  13.413  22.505  10.816
47395W        W15613   7.271  15.355   0.440
47396W        W15614  36.658  27.625  14.472
47397W        W15615  21.033  21.498   5.022
47398W        W15616  38.454  32.653  14.889
47399W        W15617  34.042  28.932   2.833
47400W        W15618  23.425  21.246   4.475
47401W        W15619  44.707   5.158  14.418
47402W        W15620  32.622  34.786   3.715
47403W        W15621  37.919   3.913   0.811
47404W        W15622  24.569  32.391  11.573
47405W        W15623   6.923   3.897   2.628
47406W        W15624  14.025  21.523   3.985
47407W        W15625  14.324  23.456   4.156
47408W        W15626  23.053  31.067  12.842
47409W        W15627  33.465  21.739  11.116
47410W        W15628  43.468  36.286  10.831
47411W        W15629  21.150  19.899  12.437
47412W        W15630  35.011  28.926   3.686
47413W        W15631  35.423  30.961  13.545
47414W        W15632  23.023  34.333   4.613
47415W        W15633  27.989   4.818  13.428
47416W        W15634  21.515  38.545   0.081
47417W        W15635   6.788  23.722   3.197
47418W        W15636  15.619  23.242  11.211
47419W        W15637  19.719  28.095   4.499
47420W        W15638  42.497  35.682  14.324
47421W        W15639  17.307  24.468  10.792
47422W        W15640  11.683   8.231   1.194
47423W        W15641  29.236   7.880  14.419
47424W        W15642  31.659  20.713  14.978
47425W        W15643  37.489   0.715   3.358
47426W        W15644  30.980  17.704   4.592
47427W        W15645   1.585   5.301  11.831
47428W        W15646   5.365  25.268  12.022
47429W        W15647  27.756  26.679   2.268
47430W        W15648   4.498   6.319  11.402
47431W        W15649  17.475  36.472  14.831
47432W        W15650  29.665   5.246   0.917
47433W        W15651  16.958  37.544  11.718
47434W        W15652  11.911  43.956  13.032
47435W        W15653  14.095  16.637   2.661
47436W        W15654  41.706   4.498  12.464
47437W        W15655  36.368  41.366  10.646
47438W        W15656  24.600  19.714  13.333
47439W        W15657  40.021  29.209   3.656
47440W        W15658  35.125  23.932  11.656
47441W        W15659  37.225  26.645   2.284
47442W        W15660  32.093  42.469  13.035
47443W        W15661  35.804  37.996   4.643
47444W        W15662  29.890   9.860   0.969
47445W        W15663  22.827  19.973  12.018
47446W        W15664  32.419  17.931  11.189
47447W        W15665  12.345   8.376   0.036
47448W        W15666  21.840  23.190   3.241
47449W        W15667  31.637   6.829  14.875
47450W        W15668  20.391  36.576  10.417
47451W        W15669  42.979  32.036   0.863
47452W        W15670  26.539  32.624  13.609
47453W        W15671  19.044  36.393  13.384
47454W        W15672  21.753   2.287   0.479
47455W        W15673  41.542  11.670  11.423
47456W        W15674  25.951  35.758   0.948
47457W        W15675   4.375  21.310   1.929
47458W        W15676  11.753  13.307   1.875
47459W        W15677  40.831  40.877   2.717
47460W        W15678  43.040  36.888   4.032
47461W        W15679  41.910   9.591  10.636
47462W        W15680  40.036  24.602  12.464
47463W        W15681   7.995  25.680   3.410
47464W        W15682  25.426  25.854   4.386
47465W        W15683  36.615   0.917   4.081
47466W        W15684   9.121  34.316  14.458
47467W        W15685   8.351  21.028   0.224
47468W        W15686   7.173  25.981  14.587
47469W        W15687  42.473  23.608  10.388
47470W        W15688  35.167   7.944   1.839
47471W        W15689   7.681   5.196  13.183
47472W        W15690  40.929  23.431  13.065
47473W        W15691  16.294   1.943   2.318
47474W        W15692  20.226  39.548   4.628
47475W        W15693  16.268  13.765   1.368
47476W        W15694  42.778  17.634   3.406
47477W        W15695  31.535   7.964   3.119
47478W        W15696  28.557   2.296   4.329
47479W        W15697  33.051  30.689   1.646
47480W        W15698  26.928  22.770  14.498
47481W        W15699  30.455   7.593  14.985
47482W        W15700  15.409   5.458   0.508
47483W        W15701  39.170  18.136   3.770
47484W        W15702   6.812  23.536  14.410
47485W        W15703   7.286  22.295  10.644
47486W        W15704   6.222   6.695   1.521
47487W        W15705  17.092  25.920  14.851
47488W        W15706  11.389   7.378   2.058
47489W        W15707   5.358  33.126   0.452
47490W        W15708  33.220  38.377   4.124
47491W        W15709  34.898  22.474  14.900
47492W        W15710  15.489  23.347   4.203
47493W        W15711  16.785  19.834   0.751
47494W        W15712  24.671  14.807   0.300
47495W        W15713   8.383  18.663  12.837
47496W        W15714   9.499  29.077  13.429
47497W        W15715  12.117  39.053   2.782
47498W        W15716   7.713  25.019   4.123
47499W        W15717  35.420  27.434  13.473
47500W        W15718  38.519   2.444   3.791
47501W        W15719   4.521  13.312   1.898
47502W        W15720  29.459   0.119  12.498
47503W        W15721   0.449  17.251   2.429
47504W        W15722  12.718  28.696  13.810
47505W        W15723  39.546  34.640   3.209
47506W        W15724  18.093  38.652   4.077
47507W        W15725   6.381   1.195  11.691
47508W        W15726  37.065  21.019  11.615
47509W        W15727  43.677  20.855  11.372
47510W        W15728   8.209  22.213   1.686
47511W        W15729   4.277   9.368   3.807
47512W        W15730   1.309  37.787  14.996
47513W        W15731  42.804  11.816  14.262
47514W        W15732  41.520  20.610  14.278
47515W        W15733  34.489   1.728   1.523
47516W        W15734  43.666  12.544   3.600
47517W        W15735  32.187  43.638   1.599
47518W        W15736   3.856  19.582  12.503
47519W        W15737  12.791  16.180  11.595
47520W        W15738   1.140  18.558   4.271
47521W        W15739   2.741  19.971  11.854
47522W        W15740   0.334  37.168  11.197
47523W        W15741  14.613  26.191   2.857
47524W        W15742  16.637  21.157  11.134
47525W        W15743  23.201  43.330  13.057
47526W        W15744   0.938  17.217  13.257
47527W        W15745   1.824   4.775  14.947
47528W        W15746  19.099  11.391   0.861
47529W        W15747  24.034  33.979  12.541
47530W        W15748  29.385  10.115  12.491
47531W        W15749  42.380  11.362  14.875
47532W        W15750   3.975   7.125   2.744
47533W        W15751   3.399   1.696   4.192
47534W        W15752  14.357  37.037  14.769
47535W        W15753   2.367  35.888  12.570
47536W        W15754  17.758  35.022  13.592
47537W        W15755   0.767  18.209  12.283
47538W        W15756  14.316   7.254   1.572
47539W        W15757  12.782   8.143  14.871
47540W        W15758  25.025  22.084  14.374
47541W        W15759  30.956  33.155  12.160
47542W        W15760   5.653  25.928   2.520
47543W        W15761  42.510  18.209   3.399
47544W        W15762  44.714   9.703  12.664
47545W        W15763  42.806  35.059   1.223
47546W        W15764  36.043   2.364   2.195
47547W        W15765  22.514  32.436  13.082
47548W        W15766  28.703   4.545   1.484
47549W        W15767  44.799  14.106   2.325
47550W        W15768  33.484   0.699  10.844
47551W        W15769  18.952  38.575   4.424
47552W        W15770  35.027  25.493  12.840
47553W        W15771   3.515  23.949  12.641
47554W        W15772  19.644  40.561   4.989
47555W        W15773  28.908  42.518   2.772
47556W        W15774  38.062  24.870  12.300
47557W        W15775  22.266   0.871   2.811
47558W        W15776  20.808  35.938  14.871
47559W        W15777  35.685  15.432   0.019
47560W        W15778  38.951  20.107   4.605
47561W        W15779  11.204  10.163   1.573
47562W        W15780   8.069  13.496  12.825
47563W        W15781   1.389  31.746   3.287
47564W        W15782  35.911  40.914   4.539
47565W        W15783  21.772  19.650   1.721
47566W        W15784  31.484   4.889   1.239
47567W        W15785  40.737   2.420   0.045
47568W        W15786  32.243  13.370  11.093
47569W        W15787  39.181   5.682  12.013
47570W        W15788  12.142  25.725  13.393
47571W        W15789  43.827  23.970   4.167
47572W        W15790  21.673  21.585  11.816
47573W        W15791  39.314   8.668   1.294
47574W        W15792  13.698  35.661  10.610
47575W        W15793   2.373  28.107  10.991
47576W        W15794  40.616   7.678   0.800
47577W        W15795   1.887   6.135   3.264
47578W        W15796   5.465  18.770   3.423
47579W        W15797  28.207   8.088   2.337
47580W        W15798  37.097  14.518  12.051
47581W        W15799  16.680   3.354   4.911
47582W        W15800  34.114  38.123  11.228
47583W        W15801  40.369  12.839   4.011
47584W        W15802   1.359  30.192   2.436
47585W        W15803  15.306   8.309  11.524
47586W        W15804  15.063  22.484  12.965
47587W        W15805   1.389  17.579  11.726
47588W        W15806  13.222  25.447  12.040
47589W        W15807   4.967  43.760   0.226
47590W        W15808  29.352  28.446   2.292
47591W        W15809  10.490   8.965   0.492
47592W        W15810   6.046  37.956  14.453
47593W        W15811  40.559   9.622   4.213
47594W        W15812  42.962  30.367  12.515
47595W        W15813  35.122  23.784   0.258
47596W        W15814  43.485  18.125   1.854
47597W        W15815  43.476  28.952   1.749
47598W        W15816  32.575   7.025  11.181
47599W        W15817  41.016  15.857  10.646
47600W        W15818  34.058  34.457  14.800
47601W        W15819  39.100   2.636  12.132
47602W        W15820  11.592   8.290   2.247
47603W        W15821  33.878  27.995   1.820
47604W        W15822   2.688  44.858  12.482
47605W        W15823  20.017  32.360  11.957
47606W        W15824  44.658  32.555   4.191
47607W        W15825  25.781  13.882  11.893
47608W        W15826  39.273   3.615   0.004
47609W        W15827  19.830   9.631   3.299
47610W        W15828  20.255   4.590  14.765
47611W        W15829  32.622   3.920   1.850
47612W        W15830  26.408   6.016   3.743
47613W        W15831   8.182  43.924  11.180
47614W        W15832  24.114  17.057  10.301
47615W        W15833  36.831  19.644   3.699
47616W        W15834  31.008  39.797  12.574
47617W        W15835  26.404  33.827  13.116
47618W        W15836  26.215  44.468   0.271
47619W        W15837  29.049   3.469  14.591
47620W        W15838  43.769  19.312  13.042
47621W        W15839   1.191  20.891   3.285
47622W        W15840  33.219  14.682  14.332
47623W        W15841  28.011  11.247  11.580
47624W        W15842  12.758  43.355   3.268
47625W        W15843  40.883  12.467   1.441
47626W        W15844  38.937   3.834   2.401
47627W        W15845  30.949   2.285   3.242
47628W        W15846   5.677  41.007  13.983
47629W        W15847  15.756   3.424   0.375
47630W        W15848  10.249  36.354  12.380
47631W        W15849  14.169  25.584   3.739
47632W        W15850  14.543   9.316  10.650
47633W        W15851   3.798  18.075   3.395
47634W        W15852  11.796  31.641  13.989
47635W        W15853   8.070  44.522   4.268
47636W        W15854  20.041  39.016   0.725
47637W        W15855  24.571  42.836   1.400
47638W        W15856  26.568  32.992   2.985
47639W        W15857  14.367  42.406   1.124
47640W        W15858  15.397  33.153   0.051
47641W        W15859  19.732   9.047  14.893
47642W        W15860  39.339  28.674   0.252
47643W        W15861  30.740  31.977  11.099
47644W        W15862  18.080   8.820  11.153
47645W        W15863   3.600  41.031   2.876
47646W        W15864   1.871  28.896   3.236
47647W        W15865  42.252  41.250   3.258
47648W        W15866  41.051  20.830  14.484
47649W        W15867  38.339  26.447   1.419
47650W        W15868  44.325   1.433   4.632
47651W        W15869  42.160  28.041   1.979
47652W        W15870   3.164   8.717   4.336
47653W        W15871  21.466   1.894   4.444
47654W        W15872  24.660  34.824   3.589
47655W        W15873  14.594  14.143   4.156
47656W        W15874   0.834   2.006   3.134
47657W        W15875  43.903   5.570   0.171
47658W        W15876  17.928  30.602   0.836
47659W        W15877   4.536  32.502   1.377
47660W        W15878  16.455  22.207   4.261
47661W        W15879   6.401   2.203   0.068
47662W        W15880  21.957   1.325   2.865
47663W        W15881  43.846  12.171   0.041
47664W        W15882  19.145  20.732  10.946
47665W        W15883   4.468   8.844   4.546
47666W        W15884  24.159  23.787   3.278
47667W        W15885  19.215  37.980   0.884
47668W        W15886  40.319  23.514   1.780
47669W        W15887   3.280  21.245  10.762
47670W        W15888  19.844   8.646   3.674
47671W        W15889  30.531  15.473  13.010
47672W        W15890  13.215  29.134   0.530
47673W        W15891   0.825  40.092  10.346
47674W        W15892   8.797  33.609  11.086
47675W        W15893  17.323  15.824  14.759
47676W        W15894   1.981  29.758  11.617
47677W        W15895  21.666  36.161  14.730
47678W        W15896  31.646   2.660  11.657
47679W        W15897   6.907  20.209   3.806
47680W        W15898  39.412   5.801   9.973
47681W        W15899  41.382   4.956  12.180
47682W        W15900   1.041  42.593  13.018
47683W        W15901  12.623  15.375  13.937
47684W        W15902  40.151  32.641  14.401
47685W        W15903  30.189  27.115   0.297
47686W        W15904   7.304  39.509  10.851
47687W        W15905   3.911  24.529   0.499
47688W        W15906  13.841   5.962  13.359
47689W        W15907  29.198  13.090  11.189
47690W        W15908   2.448   6.825   5.067
47691W        W15909  14.820   5.297  12.980
47692W        W15910   8.465  29.085   0.813
47693W        W15911  23.367  16.774  11.458
47694W        W15912  35.915  40.249   2.166
47695W        W15913  12.181  38.011  10.495
47696W        W15914  20.767  37.870  14.004
47697W        W15915   1.549  28.410   2.788
47698W        W15916  15.893   1.235   1.831
47699W        W15917  16.247  35.033  12.994
47700W        W15918  32.850  36.754  10.632
47701W        W15919  16.584  17.581  12.576
47702W        W15920   5.503  27.423  12.157
47703W        W15921  28.423  33.089  14.949
47704W        W15922   9.680  32.609   0.300
47705W        W15923  30.958   5.759   4.079
47706W        W15924   2.891  42.497   2.792
47707W        W15925   3.960   7.128   1.902
47708W        W15926   8.446  44.618  13.961
47709W        W15927   3.131  30.578  14.496
47710W        W15928  16.104  15.069  10.335
47711W        W15929  39.055  22.071   4.733
47712W        W15930  19.697   5.916  14.749
47713W        W15931  10.132  31.332   0.747
47714W        W15932  10.196  10.469  14.002
47715W        W15933  14.798   3.711  11.177
47716W        W15934  28.480  44.978   4.766
47717W        W15935  34.488  29.834   2.867
47718W        W15936  12.363  43.552   1.775
47719W        W15937  21.884  20.944   3.123
47720W        W15938  43.844  18.410   3.234
47721W        W15939  11.127  36.033   0.110
47722W        W15940   1.482  22.155  14.841
47723W        W15941  20.424  27.148   1.704
47724W        W15942  43.925  19.131   0.798
47725W        W15943  10.567   2.448  11.218
47726W        W15944  13.219  16.298   4.320
47727W        W15945  40.914  29.601   1.313
47728W        W15946  40.397   7.081   4.091
47729W        W15947   7.358   0.799  14.959
47730W        W15948  34.547  37.094   4.498
47731W        W15949  42.496  25.557  13.637
47732W        W15950  19.280  41.298   1.108
47733W        W15951  26.494  19.013   4.452
47734W        W15952  41.828  15.302  12.971
47735W        W15953  29.220  24.448   5.491
47736W        W15954  18.245  32.333   4.872
47737W        W15955  13.835  37.660  11.523
47738W        W15956  15.224  21.144  12.653
47739W        W15957  18.037   1.259   5.131
47740W        W15958  25.912  42.322   3.792
47741W        W15959   7.012  41.586   0.381
47742W        W15960   9.736  24.145  11.164
47743W        W15961   3.263   0.153  11.858
47744W        W15962   1.828  41.280   1.190
47745W        W15963  30.995   0.720  14.299
47746W        W15964  32.990  30.195  10.968
47747W        W15965   8.089  36.568   2.826
47748W        W15966  41.260  37.786  12.389
47749W        W15967  33.685  44.972   4.228
47750W        W15968  37.202   6.246   3.482
47751W        W15969  25.673   8.886  13.568
47752W        W15970  13.661  10.561  13.271
47753W        W15971  14.620  17.622  11.087
47754W        W15972   9.223   4.863  14.917
47755W        W15973  23.445   1.236  13.068
47756W        W15974   1.240  14.666   0.815
47757W        W15975   3.925  16.177  13.010
47758W        W15976  37.167  15.913   4.928
47759W        W15977   7.836  21.019  11.521
47760W        W15978  14.180  40.121   1.480
47761W        W15979  38.268   1.383  13.549
47762W        W15980  13.908  32.132   1.365
47763W        W15981  42.034  27.025  10.763
47764W        W15982  41.781  21.183   3.143
47765W        W15983  33.150  21.813  12.162
47766W        W15984  44.425   5.289  14.851
47767W        W15985  24.538  21.942   4.485
47768W        W15986  36.469  10.873   1.683
47769W        W15987  25.725  28.322   1.985
47770W        W15988  11.309   2.987  10.747
47771W        W15989   6.795  36.696  12.148
47772W        W15990   5.558   6.669  10.653
47773W        W15991  42.987  16.808  11.568
47774W        W15992  19.092  11.866  11.148
47775W        W15993   6.821  41.404  12.633
47776W        W15994  34.967  22.232  10.717
47777W        W15995  39.998  24.101  10.443
47778W        W15996   2.827  36.554  10.675
47779W        W15997  12.709   4.478   2.621
47780W        W15998  22.759  43.465   2.015
47781W        W15999   2.628  18.827  10.757
47782W        W16000  14.602  44.061  11.522
47783W        W16001  33.635  31.749   4.111
47784W        W16002   1.744  38.994   0.857
47785W        W16003  13.382   4.298   1.264
47786W        W16004  23.316  41.041  12.363
47787W        W16005   9.709  32.299  12.773
47788W        W16006  12.178   9.308  12.230
47789W        W16007  27.549  29.615  14.334
47790W        W16008  25.926  17.287  10.750
47791W        W16009  41.053  37.282   1.240
47792W        W16010  30.595   3.452  12.111
47793W        W16011   4.175  41.549   4.491
47794W        W16012   7.643   5.556   1.884
47795W        W16013   5.930  41.375   3.321
47796W        W16014  32.595  39.400  14.342
47797W        W16015  18.044  31.534  12.473
47798W        W16016  43.037  32.265   5.119
47799W        W16017  11.815  40.060  10.941
47800W        W16018  42.821   8.643  13.923
47801W        W16019  27.107  21.683   0.732
47802W        W16020   9.507  38.065  14.084
47803W        W16021   5.271   1.214  13.325
47804W        W16022  17.282  27.303  13.468
47805W        W16023  18.512  19.877   0.347
47806W        W16024  31.770  26.012   5.123
47807W        W16025  29.357  34.980  14.936
47808W        W16026  28.380  27.468  12.525
47809W        W16027   6.851  28.361  12.678
47810W        W16028  16.740   0.279  13.987
47811W        W16029  29.906  40.780  11.621
47812W        W16030   1.826  34.802  11.574
47813W        W16031   5.806  21.150   1.038
47814W        W16032  29.625  11.335  14.267
47815W        W16033  20.991  44.051  13.010
47816W        W16034  31.456   3.472  11.461
47817W        W16035  12.352  38.078   2.221
47818W        W16036  18.747  21.372   4.391
47819W        W16037   4.709  32.431   1.926
47820W        W16038  21.313  30.595   2.508
47821W        W16039  28.921  29.097   1.696
47822W        W16040   9.985   2.346  14.049
47823W        W16041  27.964   7.635   2.199
47824W        W16042   2.471  27.490   3.811
47825W        W16043  15.289  13.641  14.393
47826W        W16044   1.983  41.533  13.840
47827W        W16045  35.646  44.286  13.856
47828W        W16046  38.996  21.683   0.421
47829W        W16047  18.246  20.266   3.346
47830W        W16048  44.918  35.078   0.381
47831W        W16049  25.350   7.957   2.053
47832W        W16050   2.693  32.566  10.918
47833W        W16051  44.797  21.146   1.242
47834W        W16052  28.067  10.436   2.819
47835W        W16053  39.853  26.879  11.221
47836W        W16054   4.332  16.828   0.467
47837W        W16055  36.345  32.883   4.806
47838W        W16056  16.356  31.705   5.177
47839W        W16057  26.781  36.302  12.861
47840W        W16058  15.664   5.260   0.932
47841W        W16059  36.610  38.826   4.350
47842W        W16060  26.066  36.811   0.767
47843W        W16061  11.625  25.960   1.982
47844W        W16062  39.763  10.883   0.344
47845W        W16063  42.122  28.184   4.103
47846W        W16064  44.410   9.318  12.541
47847W        W16065   9.127  19.619  11.108
47848W        W16066  29.661  27.926  12.928
47849W        W16067  31.007  17.303   1.855
47850W        W16068   5.917   0.988  14.994
47851W        W16069   5.118  13.743  12.444
47852W        W16070  33.886  22.600  14.837
47853W        W16071  38.561  44.071  11.109
47854W        W16072  18.543   1.534   0.299
47855W        W16073  16.152  23.142   1.529
47856W        W16074  22.152  26.874  12.409
47857W        W16075  41.134   0.057  11.536
47858W        W16076  15.918  22.654   5.053
47859W        W16077  36.747  35.149   1.253
47860W        W16078   6.409  41.352   3.655
47861W        W16079   8.889  17.034  10.162
47862W        W16080   7.143  12.970  11.720
47863W        W16081  35.996  44.010   3.836
47864W        W16082   0.011  34.262   2.759
47865W        W16083  34.265  37.291  12.143
47866W        W16084  10.892  12.062   1.963
47867W        W16085  29.699  16.491  10.441
47868W        W16086  21.645   7.716   2.984
47869W        W16087  37.394  25.516   0.981
47870W        W16088  34.464  11.523  13.395
47871W        W16089  23.177  13.118  10.845
47872W        W16090   6.573  18.012  10.709
47873W        W16091  39.946  15.198   3.365
47874W        W16092   2.489  38.766   3.358
47875W        W16093  26.011  20.280  12.488
47876W        W16094  10.673  25.183   3.302
47877W        W16095  24.111  31.120   0.029
47878W        W16096  26.551  29.517   4.029
47879W        W16097   5.120  24.154   1.073
47880W        W16098  24.380  28.526  14.467
47881W        W16099  34.378  21.113  11.982
47882W        W16100  33.860  33.737   3.716
47883W        W16101  14.962   3.742   0.646
47884W        W16102  38.095  23.301  12.339
47885W        W16103  22.363  27.376  12.440
47886W        W16104  34.720  27.651   1.829
47887W        W16105  23.880  35.482   4.865
47888W        W16106  15.115  24.947  12.351
47889W        W16107  40.591   8.463   2.266
47890W        W16108  14.132  37.185  12.220
47891W        W16109  19.369   2.244  11.061
47892W        W16110  20.544  33.491   5.118
47893W        W16111  15.191  10.145  14.723
47894W        W16112  43.149   0.890   4.895
47895W        W16113  33.758  11.730  12.137
47896W        W16114  17.623   1.222  10.698
47897W        W16115  19.686  42.869  14.811
47898W        W16116  32.511  23.094  13.101
47899W        W16117  14.914  44.715   1.439
47900W        W16118  24.544  32.882  11.421
47901W        W16119  29.698  41.641   0.473
47902W        W16120  23.924  29.456  13.350
47903W        W16121  16.837  37.501   3.856
47904W        W16122  23.984   1.568   2.643
47905W        W16123   3.674   4.373  14.440
47906W        W16124  19.711  18.201   2.161
47907W        W16125  23.269  32.939   2.675
47908W        W16126  25.700  18.061  11.135
47909W        W16127  12.650  18.137  11.172
47910W        W16128  38.810  20.323  10.694
47911W        W16129  32.306  28.523   3.525
47912W        W16130  21.210  44.814   2.281
47913W        W16131  20.411   8.823   2.273
47914W        W16132  43.180  10.823  13.915
47915W        W16133  30.189  32.171   2.277
47916W        W16134  39.902  38.211   1.273
47917W        W16135  36.731   0.252  14.245
47918W        W16136  24.691   9.124  14.085
47919W        W16137  31.995  40.900  14.874
47920W        W16138   8.874  40.355  10.751
47921W        W16139  24.974  24.305   4.471
47922W        W16140   1.363  36.027   3.119
47923W        W16141  15.516  35.083   1.301
47924W        W16142  10.214   6.788  10.704
47925W        W16143  22.398  21.042   3.196
47926W        W16144  26.447  43.969  13.511
47927W        W16145  23.234   1.184   2.320
47928W        W16146  34.150  44.244   3.681
47929W        W16147   6.785  11.428  12.938
47930W        W16148   7.326   0.929   0.483
47931W        W16149  44.332  40.039   3.180
47932W        W16150  16.353  10.323   0.442
47933W        W16151  33.660  23.502  10.524
47934W        W16152  22.300  40.688   4.534
47935W        W16153   1.846   2.794   1.789
47936W        W16154   9.572  14.511   1.205
47937W        W16155  10.546  20.077   2.724
47938W        W16156  39.838  10.700  12.990
47939W        W16157   5.291  35.092   1.906
47940W        W16158   2.311   0.348   4.977
47941W        W16159  13.307  29.912  11.236
47942W        W16160   1.280  21.531   4.064
47943W        W16161  35.838  26.478   1.377
47944W        W16162  16.162   3.995   3.579
47945W        W16163  10.720  24.748   1.576
47946W        W16164  39.478  31.111   3.176
47947W        W16165   6.855  18.624  13.153
47948W        W16166  27.226  37.584   3.668
47949W        W16167  44.889  18.538   4.762
47950W        W16168   8.155  33.142   0.913
47951W        W16169  28.818   6.958  14.550
47952W        W16170  14.572  40.262   0.615
47953W        W16171   3.388   7.158   3.307
47954W        W16172  39.118  32.075   3.134
47955W        W16173  20.488  14.632   2.294
47956W        W16174  40.399  19.345  11.941
47957W        W16175   6.200  12.100   4.931
47958W        W16176   7.920  13.360  11.594
47959W        W16177  38.014   1.744   2.265
47960W        W16178  19.684  42.343   3.648
47961W        W16179  20.160   1.027  13.818
47962W        W16180  31.889  32.466   2.829
47963W        W16181  44.804  11.522   2.366
47964W        W16182   7.300  39.299   5.000
47965W        W16183  26.514  14.725   1.808
47966W        W16184  24.701  10.279  14.705
47967W        W16185  29.059   3.219   0.626
47968W        W16186  19.906  43.972  14.998
47969W        W16187  23.963   8.911  11.221
47970W        W16188  38.354   6.339  11.540
47971W        W16189  14.815  35.058   0.735
47972W        W16190   8.469   3.430  12.837
47973W        W16191   9.177  25.924   2.243
47974W        W16192  22.398   3.444   0.717
47975W        W16193  12.695  36.881  13.121
47976W        W16194  13.196  28.439  12.152
47977W        W16195  44.270  30.416  11.209
47978W        W16196   5.241  28.126  12.815
47979W        W16197  35.491  33.387  12.286
47980W        W16198   4.623   2.762  13.505
47981W        W16199  43.389  42.369  10.563
47982W        W16200  41.010   0.456  12.934
47983W        W16201  32.691   3.840   2.349
47984W        W16202   3.285   1.473  13.396
47985W        W16203  27.132   1.969  13.936
47986W        W16204  15.641   4.049   4.624
47987W        W16205  29.470  43.361   0.945
47988W        W16206  18.171   2.808   0.440
47989W        W16207  24.262  39.362   0.238
47990W        W16208  35.511  26.918   4.621
47991W        W16209  38.766  12.402   0.389
47992W        W16210  13.342  41.622   2.145
47993W        W16211  34.222   4.851   1.752
47994W        W16212   9.634   4.723  14.239
47995W        W16213  11.107  27.145  13.578
47996W        W16214  34.740  25.528   4.529
47997W        W16215  32.389  39.920   2.771
47998W        W16216  43.807  33.185   0.180
47999W        W16217  31.071   7.442   3.637
48000W        W16218  37.004  26.731  12.310
48001W        W16219  19.781  15.131   4.112
48002W        W16220  43.684   3.290   4.515
48003W        W16221  23.551   5.245   0.465
48004W        W16222   0.073   0.361   1.020
48005W        W16223   8.064  39.225   4.507
48006W        W16224   5.453   5.622  10.797
48007W        W16225  15.041  30.586   5.005
48008W        W16226   0.506   6.356  10.351
48009W        W16227  11.429  18.679   1.771
48010W        W16228  32.477  24.052  10.683
48011W        W16229  16.738  20.941  13.984
48012W        W16230  21.040  15.113  12.105
48013W        W16231   4.281  14.182   1.394
48014W        W16232  37.532  19.328   3.692
48015W        W16233  17.043  33.546   2.346
48016W        W16234   5.833  34.904  12.295
48017W        W16235  21.146  22.179   2.686
48018W        W16236   7.423  32.503   2.519
48019W        W16237   0.300  33.961  14.538
48020W        W16238  29.921   6.435  11.931
48021W        W16239  23.770   7.948  13.310
48022W        W16240  16.529   3.398  14.852
48023W        W16241   2.353  30.390   3.729
48024W        W16242  42.257  38.049  14.290
48025W        W16243  24.942  10.675  12.508
48026W        W16244  12.352  14.206   5.055
48027W        W16245  42.322  15.251   4.568
48028W        W16246  32.737  30.763   4.584
48029W        W16247  43.831  39.894   3.134
48030W        W16248  35.942  25.212  12.925
48031W        W16249  40.871  10.022   2.814
48032W        W16250  12.862  31.771  11.285
48033W        W16251  16.806   0.776   4.174
48034W        W16252  27.066  42.374  14.803
48035W        W16253   1.382  12.278  14.345
48036W        W16254  38.087  27.331  12.899
48037W        W16255  19.788   8.747   2.452
48038W        W16256  31.207  20.902  14.838
48039W        W16257  38.771  19.786   5.250
48040W        W16258  12.548  38.512  11.104
48041W        W16259  37.399  31.023  14.359
48042W        W16260  26.977  32.845   4.014
48043W        W16261   2.908  29.890  11.687
48044W        W16262   8.323  10.255   2.901
48045W        W16263   7.926  31.912  11.671
48046W        W16264  42.771   3.988  11.910
48047W        W16265  23.593  11.807   2.944
48048W        W16266  39.060   3.467  11.184
48049W        W16267  14.813  12.603   4.029
48050W        W16268  27.045  21.706   2.578
48051W        W16269  37.096  26.996  13.862
48052W        W16270  35.417  33.319   2.389
48053W        W16271   3.011  41.527  11.428
48054W        W16272   3.864  23.331   3.600
48055W        W16273  21.634  26.442   0.381
48056W        W16274  23.083   3.298  10.720
48057W        W16275  10.631  31.443   0.796
48058W        W16276   0.374  19.976   4.187
48059W        W16277  27.147  24.516  11.702
48060W        W16278  30.869   2.038  10.682
48061W        W16279  16.675  30.867  11.459
48062W        W16280  16.069  39.336   4.316
48063W        W16281  41.409  32.621   0.227
48064W        W16282  43.512  33.285  11.440
48065W        W16283  20.614  21.524  13.014
48066W        W16284  18.577  18.229   0.829
48067W        W16285  27.977  39.377  14.282
48068W        W16286  43.195  20.323   1.232
48069W        W16287  30.007   2.469  14.252
48070W        W16288  11.673  26.731   1.524
48071W        W16289  44.277  29.545   2.633
48072W        W16290  29.472  14.071   4.893
48073W        W16291  20.673  42.541  11.667
48074W        W16292  27.379  24.804  14.430
48075W        W16293  11.893   2.394   3.792
48076W        W16294  43.385  14.209   4.070
48077W        W16295   9.091  42.949  11.929
48078W        W16296  40.479   4.683  11.648
48079W        W16297   1.341  26.946  14.012
48080W        W16298  26.542  34.902   1.714
48081W        W16299  41.721  21.161   1.344
48082W        W16300   8.844  37.030   3.204
48083W        W16301  37.940   2.400   0.714
48084W        W16302  28.475  33.362  13.837
48085W        W16303  43.049  13.681   3.118
48086W        W16304   8.312   2.704   1.438
48087W        W16305  26.369   3.432   5.216
48088W        W16306  11.289   6.759  13.201
48089W        W16307  23.611   5.314   3.260
48090W        W16308  42.424  33.960   1.453
48091W        W16309  29.086   6.920  10.678
48092W        W16310  15.814  20.786   3.608
48093W        W16311   4.248  41.358  10.211
48094W        W16312  38.392   3.517   4.573
48095W        W16313  27.648  26.969  12.563
48096W        W16314  11.229  17.610   4.086
48097W        W16315  15.969   2.901  10.484
48098W        W16316   9.297  19.144  10.931
48099W        W16317  38.588  20.662  11.956
48100W        W16318  38.760  19.779  10.965
48101W        W16319  28.530   6.189  10.485
48102W        W16320  22.037  29.210  13.457
48103W        W16321   3.763   7.124  12.359
48104W        W16322  31.539  23.469  12.772
48105W        W16323   8.876  20.008   3.150
48106W        W16324  14.211  23.992  10.741
48107W        W16325  15.806  13.259   3.878
48108W        W16326   6.966  28.421  10.738
48109W        W16327  24.615  26.726   2.020
48110W        W16328  14.067  20.093  10.525
48111W        W16329  11.668  15.737   1.502
48112W        W16330  34.083  13.845   0.528
48113W        W16331  30.644  10.759  12.473
48114W        W16332  44.050  35.000   1.322
48115W        W16333  13.832  19.685  11.997
48116W        W16334  37.267  29.794  13.598
48117W        W16335  27.997  39.792  13.678
48118W        W16336  42.325  41.541  14.434
48119W        W16337   7.116  32.540  12.966
48120W        W16338   1.405  22.959   0.434
48121W        W16339  44.047   8.395   2.288
48122W        W16340  17.764  37.419   3.321
48123W        W16341  33.658  26.930  12.354
48124W        W16342   8.800   3.802   3.341
48125W        W16343  24.471  40.024   2.660
48126W        W16344   9.673  13.408   1.839
48127W        W16345  16.143   9.908  12.017
48128W        W16346  33.172  27.727   1.366
48129W        W16347  36.277  32.642  11.068
48130W        W16348  37.820  44.822   3.840
48131W        W16349  31.915  31.818   1.684
48132W        W16350  14.089  18.726   2.368
48133W        W16351  11.232  41.909   4.899
48134W        W16352  14.842  20.183   1.402
48135W        W16353  27.356  43.753   2.147
48136W        W16354  15.042  34.131  11.546
48137W        W16355  35.956  19.137   3.055
48138W        W16356  42.823   7.008   3.805
48139W        W16357  25.589  43.369   1.015
48140W        W16358  21.529  37.483  11.119
48141W        W16359   2.747  14.757   4.100
48142W        W16360   6.191  20.819  11.491
48143W        W16361  43.539  34.575  10.237
48144W        W16362  15.203  42.557  13.889
48145W        W16363   4.233  22.700   1.309
48146W        W16364  22.693  24.943  13.405
48147W        W16365   2.934   8.896  14.862
48148W        W16366  28.182  42.843   1.775
48149W        W16367  26.903  10.162  13.346
48150W        W16368  37.177  24.170   2.250
48151W        W16369  17.692  31.079   2.811
48152W        W16370  26.712  41.571   1.314
48153W        W16371  11.095  15.249   0.016
48154W        W16372  13.379   8.118   1.630
48155W        W16373  10.442  25.426  10.852
48156W        W16374   6.733  25.146   2.165
48157W        W16375  24.657  26.600  12.398
48158W        W16376  24.569  36.497  10.737
48159W        W16377  28.042  28.681  13.087
48160W        W16378   3.043  15.169  12.830
48161W        W16379  31.773  13.674  12.213
48162W        W16380  41.863   0.575   1.348
48163W        W16381   7.012  35.961   2.895
48164W        W16382  27.777  34.512  10.670
48165W        W16383  14.334   5.289   3.360
48166W        W16384  35.434   2.055  10.404
48167W        W16385  12.607   1.865   3.515
48168W        W16386  41.044  36.896   1.853
48169W        W16387  30.356   2.800  14.560
48170W        W16388   9.204  13.734   2.211
48171W        W16389  15.492  38.726  11.467
48172W        W16390  44.182  32.763  11.621
48173W        W16391  34.308  43.581   3.592
48174W        W16392  14.968  15.719   3.703
48175W        W16393  33.571  14.076   2.135
48176W        W16394  28.945  37.442   0.155
48177W        W16395  24.246  43.374   3.451
48178W        W16396  35.985  31.329  13.503
48179W        W16397  31.626  30.477   0.638
48180W        W16398  14.548  17.133   1.685
48181W        W16399  30.114  18.861   3.089
48182W        W16400  19.953  19.138  14.889
48183W        W16401   0.513  18.619  12.532
48184W        W16402  35.697  19.073   1.266
48185W        W16403  34.544  13.088   1.316
48186W        W16404  22.613  23.995  11.146
48187W        W16405  27.921  15.857   1.260
48188W        W16406   5.889  12.523  12.083
48189W        W16407  35.111  18.865   0.503
48190W        W16408  14.328   7.940   3.271
48191W        W16409  20.545   4.825  12.107
48192W        W16410   3.334  37.648  10.971
48193W        W16411  30.666  27.270  10.681
48194W        W16412  31.202  18.650  11.406
48195W        W16413  10.205  10.691   1.935
48196W        W16414   6.324  33.959   4.086
48197W        W16415  26.110  14.943  14.529
48198W        W16416  29.640  34.481   3.216
48199W        W16417  31.983  38.505   3.727
48200W        W16418  36.470  43.275   3.228
48201W        W16419  40.327   6.241   0.776
48202W        W16420  21.152  34.893   2.296
48203W        W16421  33.042  31.446  11.170
48204W        W16422  41.481   0.258  11.989
48205W        W16423  36.628   4.841  11.412
48206W        W16424  25.821  12.275  13.775
48207W        W16425  13.895  25.781  12.939
48208W        W16426  27.539  19.164   4.061
48209W        W16427  27.107  14.403   3.226
48210W        W16428  16.804  10.116  10.696
48211W        W16429   4.327  41.751  12.346
48212W        W16430  25.484   2.427  11.790
48213W        W16431  30.747   8.391   1.659
48214W        W16432   7.794  15.817   0.764
48215W        W16433  20.484  24.170   4.687
48216W        W16434  30.620  40.864   2.427
48217W        W16435   8.875  38.847  11.600
48218W        W16436  36.552  12.763  12.099
48219W        W16437  44.244  18.793   1.008
48220W        W16438  20.451   8.120  13.010
48221W        W16439   8.156  33.195   2.681
48222W        W16440  27.438   9.442   3.425
48223W        W16441  21.872  33.928   0.368
48224W        W16442  35.848  40.776   3.099
48225W        W16443  25.438  27.505   3.458
48226W        W16444  42.386  27.631  13.933
48227W        W16445  29.926  32.973   0.231
48228W        W16446  10.257  21.105  10.863
48229W        W16447   2.918  19.158  14.386
48230W        W16448   5.464  30.613   2.476
48231W        W16449  17.165  38.853   5.071
48232W        W16450  24.565   5.172  11.017
48233W        W16451  12.407  19.681   2.377
48234W        W16452  25.790  33.935  10.801
48235W        W16453  26.778   1.223  11.519
48236W        W16454  42.471  27.548  12.542
48237W        W16455  29.956   7.294  14.313
48238W        W16456  34.890  24.678   0.661
48239W        W16457   0.499   0.544   3.977
48240W        W16458  35.084  14.691  11.542
48241W        W16459  30.427  10.116   3.772
48242W        W16460   9.309  10.865  12.890
48243W        W16461  39.459  38.432   0.549
48244W        W16462   8.391  36.432   1.900
48245W        W16463  41.421   6.331  11.200
48246W        W16464  37.343  29.900  12.559
48247W        W16465  28.793  34.621  13.434
48248W        W16466  23.550  19.541  10.653
48249W        W16467  23.495   8.884   1.245
48250W        W16468   1.284  15.936   3.973
48251W        W16469   7.232  30.549  12.447
48252W        W16470   7.261  24.677  11.989
48253W        W16471  32.290  42.830  12.606
48254W        W16472  14.607  26.750  12.394
48255W        W16473  30.078  22.993   2.921
48256W        W16474   2.337   2.318  14.798
48257W        W16475  38.082  14.766   0.969
48258W        W16476  26.680  24.279  11.631
48259W        W16477   6.640  28.073  12.325
48260W        W16478  44.738  23.474  10.717
48261W        W16479  13.153   5.731  12.127
48262W        W16480  24.423  30.063   2.900
48263W        W16481   6.275  21.822   4.501
48264W        W16482  16.816  13.637   3.637
48265W        W16483   8.262  28.447   1.571
48266W        W16484  12.755  26.556   1.788
48267W        W16485  15.718  34.913   0.846
48268W        W16486  23.181  30.632   4.861
48269W        W16487  20.781  14.113  10.182
48270W        W16488  14.828  40.594  12.831
48271W        W16489  14.651  11.404  13.483
48272W        W16490   2.165  44.467   9.950
48273W        W16491  17.849  16.706   9.999
48274W        W16492  35.485   9.286   1.381
48275W        W16493  23.470  11.370  14.316
48276W        W16494  34.678  36.476   0.749
48277W        W16495  43.586  27.175  12.155
48278W        W16496   4.007  27.682  14.938
48279W        W16497  23.080  33.645  13.816
48280W        W16498  34.822  32.516   2.294
48281W        W16499   0.251  25.360   4.138
48282W        W16500  40.361  42.473  14.023
48283W        W16501  27.531  12.485   0.837
48284W        W16502  37.459  38.903   2.823
48285W        W16503  43.052   7.024   0.641
48286W        W16504  34.891   3.215  10.116
48287W        W16505  16.591   8.738  12.952
48288W        W16506   9.848  12.770   2.823
48289W        W16507  43.971  17.024   0.000
48290W        W16508  31.684  25.652  14.463
48291W        W16509  30.423  12.603  12.107
48292W        W16510  41.861  23.739   1.000
48293W        W16511  36.995   5.755   0.244
48294W        W16512  40.360   0.071  14.059
48295W        W16513  43.676  35.094  10.371
48296W        W16514  15.780  35.878   0.109
48297W        W16515  18.712  44.118  13.227
48298W        W16516  24.857   3.461   4.588
48299W        W16517  30.223   8.966  12.579
48300W        W16518   3.247  41.834   3.289
48301W        W16519  12.724  21.698   3.729
48302W        W16520  26.584  17.837  14.082
48303W        W16521  10.564   8.837  11.197
48304W        W16522  41.044   1.702   2.289
48305W        W16523   3.323  27.177   4.195
48306W        W16524  33.435  39.902   2.766
48307W        W16525   6.854   7.872   3.945
48308W        W16526  21.137   8.492  10.458
48309W        W16527  17.169  36.080   0.908
48310W        W16528  21.025   3.925   2.398
48311W        W16529  19.466  40.920   0.552
48312W        W16530  44.075  37.091  14.925
48313W        W16531  38.633  13.618  11.645
48314W        W16532  28.478  43.536  12.819
48315W        W16533  27.880  39.938   0.921
48316W        W16534  37.111  42.265   2.695
48317W        W16535  10.186   7.612   0.029
48318W        W16536   2.610  33.631  14.816
48319W        W16537  21.799  14.360   0.275
48320W        W16538  11.885   9.642   0.205
48321W        W16539  14.264  21.006   1.866
48322W        W16540   6.840  22.120  13.144
48323W        W16541   4.107  40.337  11.045
48324W        W16542  32.457  40.182  14.961
48325W        W16543  17.331  10.338  12.828
48326W        W16544   0.182  32.114   2.413
48327W        W16545  22.217  43.936  13.960
48328W        W16546   7.748  18.972  10.617
48329W        W16547   8.829  21.632  11.213
48330W        W16548  40.254   6.421   2.472
48331W        W16549  18.598  40.743   3.738
48332W        W16550  14.519  38.415  11.615
48333W        W16551   6.559   4.835   3.645
48334W        W16552  44.849   1.506  13.842
48335W        W16553  23.997   3.137   3.573
48336W        W16554  26.229  26.731   0.499
48337W        W16555  14.716  43.282   9.810
48338W        W16556  41.123  10.174   9.962
48339W        W16557  15.363  23.427  13.209
48340W        W16558  14.950  25.566  14.252
48341W        W16559  20.631  22.187   3.137
48342W        W16560  41.635  44.045  14.442
48343W        W16561  22.617  19.279   0.205
48344W        W16562   1.377  19.337  12.077
48345W        W16563  22.310  44.503  12.982
48346W        W16564  11.662  21.330   3.241
48347W        W16565  26.004  18.868  13.049
48348W        W16566  24.902  33.828  12.141
48349W        W16567   5.946  19.092  14.232
48350W        W16568  23.638  34.551  10.254
48351W        W16569  34.915   3.192   2.889
48352W        W16570  32.672  12.396   4.210
48353W        W16571  35.619  32.409  10.501
48354W        W16572  44.821  13.999  11.141
48355W        W16573  14.488  21.520  14.262
48356W        W16574   0.942  25.944  11.976
48357W        W16575   1.699  15.765   1.876
48358W        W16576   1.894  44.329   2.388
48359W        W16577  21.436  33.136  13.467
48360W        W16578  35.001  41.315  13.613
48361W        W16579  40.456  29.946   3.191
48362W        W16580  27.502  24.279   0.945
48363W        W16581  29.652  21.200   0.678
48364W        W16582  10.649  36.023  11.147
48365W        W16583  31.175  11.317  10.600
48366W        W16584  44.576   8.094  12.797
48367W        W16585  32.494  22.113   4.189
48368W        W16586   8.887  30.966   2.841
48369W        W16587   4.416  24.528   2.251
48370W        W16588  18.678  32.509  10.502
48371W        W16589  21.796  35.067  11.665
48372W        W16590  16.652   3.762  14.466
48373W        W16591  12.698  11.714   0.203
48374W        W16592  36.308  29.993   3.177
48375W        W16593  17.363  22.042  13.484
48376W        W16594  13.936  43.749   2.686
48377W        W16595  41.082  44.404   1.848
48378W        W16596   0.067  23.592   0.452
48379W        W16597   8.770  44.320   1.996
48380W        W16598  35.980   4.704  12.925
48381W        W16599  36.460  17.396   0.788
48382W        W16600  33.432  21.823   3.723
48383W        W16601  11.771  20.114  12.016
48384W        W16602   3.809  31.629  11.092
48385W        W16603   7.358   5.923  11.635
48386W        W16604  41.916  27.860   3.767
48387W        W16605  12.318  30.590  12.965
48388W        W16606  38.742  27.955   2.474
48389W        W16607   0.108  30.560  11.536
48390W        W16608   1.325  31.040  14.845
48391W        W16609  44.226   8.856  13.426
48392W        W16610   2.076  18.075  14.682
48393W        W16611   4.248  30.037   4.585
48394W        W16612  12.647   0.446  13.587
48395W        W16613  24.924  44.537  11.349
48396W        W16614  42.069  22.456   2.333
48397W        W16615  26.171  10.852   2.416
48398W        W16616  38.564  29.582   3.710
48399W        W16617  36.784  29.401  11.056
48400W        W16618   6.161  37.851  13.127
48401W        W16619   6.698  22.756  14.032
48402W        W16620   0.471  10.258  10.463
48403W        W16621   9.135  33.240  13.124
48404W        W16622  22.046  18.039   3.662
48405W        W16623  14.406  13.625   3.679
48406W        W16624  18.394  37.972  14.873
48407W        W16625  38.518  29.250  12.638
48408W        W16626  36.169  23.901   0.570
48409W        W16627  11.685  22.591   3.795
48410W        W16628  27.672  16.991   3.179
48411W        W16629  41.225   8.311  14.793
48412W        W16630  26.376  37.905   2.794
48413W        W16631  25.543  29.685  10.725
48414W        W16632   9.148  29.897  14.468
48415W        W16633  12.033  38.375  11.004
48416W        W16634  17.099   5.897   0.960
48417W        W16635  30.380  21.796   0.404
48418W        W16636  44.058  22.708   1.295
48419W        W16637  43.013  32.077   4.637
48420W        W16638  21.044   5.354  13.286
48421W        W16639   0.684   7.757   0.493
48422W        W16640  18.282  38.601  10.631
48423W        W16641   3.842  21.142  14.955
48424W        W16642  19.546  38.057  11.521
48425W        W16643  28.889  26.729  12.832
48426W        W16644  15.644  40.530   0.418
48427W        W16645  26.495  13.943  11.470
48428W        W16646  34.996  20.869   1.043
48429W        W16647  14.669   6.725  12.965
48430W        W16648  13.462  13.699  13.801
48431W        W16649  10.464   2.699  13.400
48432W        W16650  39.082   5.247  10.842
48433W        W16651  39.929  31.348   4.240
48434W        W16652  21.639   0.070   3.219
48435W        W16653  13.217  28.960  13.058
48436W        W16654   1.003  17.403   0.811
48437W        W16655   9.216  23.590  13.890
48438W        W16656  13.490  28.215  10.800
48439W        W16657   2.013  40.933   0.829
48440W        W16658   2.691  42.472  14.494
48441W        W16659  33.532   8.748  10.930
48442W        W16660  43.378  26.688  13.422
48443W        W16661  27.026  23.486   3.666
48444W        W16662  15.249  14.233  10.633
48445W        W16663  44.769  42.901  10.066
48446W        W16664  31.701  41.025   3.835
48447W        W16665  19.813  12.748   2.014
48448W        W16666   4.941  26.566  11.202
48449W        W16667  33.421  33.892  13.034
48450W        W16668  44.905   8.240   4.943
48451W        W16669  42.474  24.123  14.206
48452W        W16670  28.181  19.793   4.527
48453W        W16671  14.893  27.728   1.948
48454W        W16672  12.314  30.868   1.026
48455W        W16673  18.922  18.970   1.344
48456W        W16674  17.258  11.219   2.847
48457W        W16675   9.913  44.334  14.399
48458W        W16676  40.244  25.278  12.810
48459W        W16677  12.207  24.266  10.898
48460W        W16678  44.984  17.502  12.523
48461W        W16679  39.038   8.412   4.039
48462W        W16680  29.658  26.623  10.286
48463W        W16681  42.717  29.105  12.829
48464W        W16682  39.006  42.756  10.724
48465W        W16683  12.683  11.586  10.590
48466W        W16684  33.872  26.953  14.368
48467W        W16685   0.196  10.405   2.876
48468W        W16686   6.920  11.610  11.607
48469W        W16687  40.437  19.808  12.161
48470W        W16688  12.325  10.191  12.064
48471W        W16689  36.333  13.999   0.234
48472W        W16690   6.018  29.585   4.955
48473W        W16691  24.990  23.066  12.887
48474W        W16692   2.793  35.517  14.589
48475W        W16693  14.114  41.068  12.423
48476W        W16694  27.038   7.733  12.931
48477W        W16695   3.634   0.923  14.271
48478W        W16696  23.187  26.202   0.478
48479W        W16697  30.104  19.059  14.551
48480W        W16698  17.742   1.569   0.768
48481W        W16699   4.429  12.373   2.284
48482W        W16700  21.550   6.210  12.491
48483W        W16701  32.577  13.742  10.988
48484W        W16702  31.206   5.769   0.324
48485W        W16703  11.219  16.556  14.351
48486W        W16704  33.603  42.516   1.338
48487W        W16705  43.063  11.076   0.278
48488W        W16706  11.785  43.822   0.370
48489W        W16707  39.578   2.993  14.554
48490W        W16708  11.203  42.844  13.516
48491W        W16709  39.054   7.738  13.403
48492W        W16710   6.799  42.247   4.174
48493W        W16711   0.070  37.453   3.447
48494W        W16712  28.257  13.852  11.902
48495W        W16713  25.641  12.179   4.713
48496W        W16714  21.005   1.713  14.006
48497W        W16715  15.276   2.843  13.904
48498W        W16716  17.330  20.004   3.133
48499W        W16717  36.455  16.062  10.802
48500W        W16718  14.302  21.223   1.276
48501W        W16719  35.447  30.421  14.405
48502W        W16720  16.703  25.119   0.028
48503W        W16721  33.644  23.895  11.413
48504W        W16722  32.100  42.570   1.234
48505W        W16723   0.163   2.918   4.176
48506W        W16724  22.598  36.339   2.917
48507W        W16725  30.405  34.622   0.291
48508W        W16726  15.568  44.558  14.872
48509W        W16727  35.140  39.273  10.725
48510W        W16728  43.191  15.210  14.424
48511W        W16729  26.327  34.546  10.529
48512W        W16730  32.855   5.982  13.035
48513W        W16731   8.732  28.625  14.713
48514W        W16732  18.208   9.465   4.583
48515W        W16733   8.176  30.057   0.498
48516W        W16734  27.063  14.264  13.577
48517W        W16735  38.768  30.023  13.799
48518W        W16736  26.144  28.989  14.303
48519W        W16737  40.370  27.145   3.324
48520W        W16738  33.942  14.273  11.519
48521W        W16739   3.178   3.738   0.249
48522W        W16740  14.851  22.624   1.211
48523W        W16741  18.668  44.502  14.206
48524W        W16742   6.803  42.025   1.302
48525W        W16743  41.387  10.659   0.299
48526W        W16744  11.848  37.064   2.818
48527W        W16745   4.305   3.788  14.538
48528W        W16746  27.429  24.160   2.794
48529W        W16747   2.909  36.787  13.540
48530W        W16748   1.909   8.169  10.791
48531W        W16749  21.056  39.392   3.544
48532W        W16750  21.263   4.168   0.292
48533W        W16751  25.523   6.012   2.635
48534W        W16752  12.637  26.945  13.479
48535W        W16753  37.610  29.103  14.431
48536W        W16754   0.998  37.468  13.489
48537W        W16755  16.586  39.055  12.446
48538W        W16756  25.967  27.966   1.668
48539W        W16757   0.264  15.763   2.711
48540W        W16758   2.371  25.217  10.638
48541W        W16759   6.284  26.955  14.728
48542W        W16760  44.531  32.625  11.276
48543W        W16761  17.883  12.897   2.271
48544W        W16762  21.723   9.242   3.209
48545W        W16763   5.969  39.636  11.636
48546W        W16764  22.197  34.160  13.784
48547W        W16765  35.528  24.484   0.766
48548W        W16766  15.124  34.481  12.111
48549W        W16767  44.634  20.777   4.115
48550W        W16768  37.621  17.632  14.388
48551W        W16769  31.400  11.814  10.682
48552W        W16770  42.996   2.235  11.490
48553W        W16771   1.016  30.208  14.868
48554W        W16772  38.554  39.566   2.310
48555W        W16773  29.145   2.314  10.992
48556W        W16774  14.829  44.322   2.202
48557W        W16775  21.177  38.305  11.390
48558W        W16776   2.790  32.423  14.454
48559W        W16777  42.619  39.351  14.592
48560W        W16778  15.530  16.710  14.544
48561W        W16779  43.337  38.088  12.148
48562W        W16780  11.722  20.055  14.921
48563W        W16781  24.646  19.769   2.905
48564W        W16782  25.921  24.751   2.204
48565W        W16783  10.242  23.827   3.559
48566W        W16784  15.236  35.018  11.414
48567W        W16785   0.403  28.169  10.610
48568W        W16786  11.150  22.405  13.382
48569W        W16787  17.055  11.694  13.557
48570W        W16788   4.403  25.612   0.956
48571W        W16789  38.495  40.743  10.638
48572W        W16790  44.243  34.812  11.573
48573W        W16791  13.790  24.210   1.813
48574W        W16792  18.808  25.988   1.206
48575W        W16793  41.126  39.912  14.628
48576W        W16794  33.551   5.776   4.241
48577W        W16795  18.205  16.013   3.619
48578W        W16796  43.223  40.267  14.008
48579W        W16797   0.470  38.041   2.203
48580W        W16798  41.991   1.766  13.334
48581W        W16799   7.939  38.047  10.661
48582W        W16800  43.797  39.536  12.675
48583W        W16801   6.670  33.597  14.323
48584W        W16802  28.465  11.093   1.446
48585W        W16803  43.150  28.930  14.249
48586W        W16804  24.408  19.770   0.865
48587W        W16805  31.228   2.415   3.665
48588W        W16806  36.431  24.436   2.803
48589W        W16807  34.858  30.518   3.656
48590W        W16808  40.841   5.854  12.373
48591W        W16809   6.320  16.050  11.570
48592W        W16810  20.256  38.384   4.058
48593W        W16811   6.677  32.136   4.139
48594W        W16812  21.625  20.621  14.481
48595W        W16813   9.680  31.170  11.928
48596W        W16814  15.185  41.064  10.955
48597W        W16815  30.093   5.976   3.424
48598W        W16816  27.189  18.186  12.986
48599W        W16817  35.345  29.290  11.580
48600W        W16818  32.645  24.200   2.255
48601W        W16819  40.525  28.633  14.714
48602W        W16820  31.964  44.427  10.875
48603W        W16821  17.145   4.648  14.375
48604W        W16822  10.099  39.113   3.805
48605W        W16823  15.077  40.594  12.228
48606W        W16824   3.980  15.736  11.460
48607W        W16825   7.114  25.068   3.311
48608W        W16826  12.877  26.205   4.602
48609W        W16827   7.140  14.383   0.454
48610W        W16828  10.155  31.794   2.698
48611W        W16829   8.106  19.077  11.886
48612W        W16830  17.174  38.385   2.286
48613W        W16831  19.106  42.435   1.394
48614W        W16832   7.601  41.331  14.318
48615W        W16833   8.166   2.410  12.596
48616W        W16834  12.711  38.387  14.523
48617W        W16835  33.417   5.648  11.051
48618W        W16836  12.391  33.601  11.079
48619W        W16837  21.223  24.725   1.923
48620W        W16838  17.902  33.375  13.361
48621W        W16839  25.574   3.833  12.479
48622W        W16840  40.857  18.321  11.647
48623W        W16841  28.801   9.293   4.410
48624W        W16842  43.854   0.404  10.724
48625W        W16843  10.183  26.041   4.580
48626W        W16844  35.002  28.442  13.407
48627W        W16845   2.769  20.089   4.652
48628W        W16846  31.718  13.576   1.934
48629W        W16847  23.536  15.610   2.930
48630W        W16848  23.703  20.637  12.100
48631W        W16849  29.174  43.816  10.640
48632W        W16850  25.917  17.169   2.756
48633W        W16851  30.239  41.983   0.516
48634W        W16852  17.109  11.736   0.117
48635W        W16853  43.247  14.910   0.438
48636W        W16854  25.291   9.827   1.390
48637W        W16855  23.715   7.663   4.410
48638W        W16856  20.083  43.958  11.308
48639W        W16857  15.625  10.499  11.514
48640W        W16858  35.886  36.082   2.704
48641W        W16859  20.384  43.786  14.922
48642W        W16860  27.177  26.077  10.959
48643W        W16861  41.464  23.688   2.675
48644W        W16862  19.334  33.367   1.874
48645W        W16863  43.889  21.909  14.493
48646W        W16864  22.678  39.271   3.766
48647W        W16865  19.285  22.529  13.506
48648W        W16866  21.048   6.293   4.531
48649W        W16867  34.139  23.813  11.649
48650W        W16868  17.584  24.594  12.864
48651W        W16869  19.451  13.882   2.316
48652W        W16870  40.905   8.874   2.353
48653W        W16871  35.065  27.371  13.856
48654W        W16872  40.277   4.125  10.715
48655W        W16873  34.038  17.101   2.309
48656W        W16874  33.546  11.991   3.632
48657W        W16875  41.914  29.094   4.220
48658W        W16876  37.306  13.737   1.474
48659W        W16877  16.875  10.645   3.791
48660W        W16878  32.555   2.828   2.140
48661W        W16879   5.812  44.165   0.330
48662W        W16880  34.075  17.749  12.840
48663W        W16881  14.246  23.799  14.280
48664W        W16882  31.871  23.612   0.753
48665W        W16883  10.873  24.934  12.451
48666W        W16884  22.174  37.704  12.941
48667W        W16885  35.583  29.552   0.069
48668W        W16886  12.292   1.383  11.664
48669W        W16887  39.696  34.077  14.431
48670W        W16888   5.164  11.079   2.789
48671W        W16889  27.097  32.625  13.889
48672W        W16890   2.956  27.533  11.843
48673W        W16891  38.590  17.659  12.274
48674W        W16892  21.357  32.956  10.595
48675W        W16893   6.435  26.414  14.031
48676W        W16894   3.388  29.922   2.685
48677W        W16895  12.669  34.464   1.508
48678W        W16896  14.302  15.555   5.021
48679W        W16897  18.993  18.066  13.031
48680W        W16898  40.263  33.419  11.047
48681W        W16899  23.659  32.150   3.286
48682W        W16900  21.640  36.666   5.411
48683W        W16901   3.510  43.733   0.489
48684W        W16902  17.303  44.184  11.977
48685W        W16903  41.828  42.807   1.428
48686W        W16904  31.965  10.129  14.881
48687W        W16905  27.971  22.309   1.855
48688W        W16906  31.432  22.817  11.648
48689W        W16907  43.818  32.017  11.925
48690W        W16908   8.187  36.319  14.013
48691W        W16909  16.204  36.725   3.583
48692W        W16910  35.793  32.141  13.964
48693W        W16911  20.766  28.856  11.182
48694W        W16912  40.453  42.554   2.708
48695W        W16913   0.212  30.804  13.822
48696W        W16914   3.471  22.135  11.972
48697W        W16915  18.499  37.377   1.048
48698W        W16916  30.575  30.762   0.670
48699W        W16917  14.544  33.035  14.044
48700W        W16918  33.390  11.862   0.202
48701W        W16919  32.862  43.486   3.204
48702W        W16920  36.857   7.154  11.801
48703W        W16921  15.607  15.274  11.140
48704W        W16922  16.603  43.482   3.863
48705W        W16923   1.748  22.182  13.789
48706W        W16924  27.743  10.093  11.802
48707W        W16925  41.502  39.030   0.826
48708W        W16926  37.498  10.601  12.501
48709W        W16927  41.343   3.570  10.642
48710W        W16928  36.912  44.623  10.740
48711W        W16929  40.068  20.693  13.056
48712W        W16930  24.946  13.383   0.735
48713W        W16931   0.492  41.616   0.735
48714W        W16932  22.432  20.139   3.895
48715W        W16933  22.273   5.824   3.143
48716W        W16934  19.819   6.475   4.548
48717W        W16935  30.051  27.457   1.986
48718W        W16936  20.101   8.726   1.466
48719W        W16937  27.473  32.980  10.926
48720W        W16938  24.311  32.961   9.845
48721W        W16939   4.590  44.478  11.113
48722W        W16940  15.594  41.373  10.093
48723W        W16941  22.511  15.206   0.429
48724W        W16942   0.376   6.454   0.422
48725W        W16943   5.980  36.601  13.833
48726W        W16944  43.518  29.896  14.467
48727W        W16945  24.045  41.776   0.206
48728W        W16946  40.954  19.134   4.849
48729W        W16947   0.834  17.095  11.073
48730W        W16948   4.741  44.827  13.849
48731W        W16949   6.338  26.545   9.993
48732W        W16950  19.075  15.314  12.476
48733W        W16951  25.637  21.886   2.292
48734W        W16952   8.441  38.140  13.327
48735W        W16953  26.963  36.419  14.395
48736W        W16954   0.077  31.158  11.172
48737W        W16955  42.080   7.359   3.119
48738W        W16956  20.989  12.785   3.406
48739W        W16957   5.408  24.189  11.138
48740W        W16958   8.314  31.800  12.837
48741W        W16959   7.302  19.756  14.016
48742W        W16960  25.472  24.943  11.127
48743W        W16961   2.315  42.895   4.452
48744W        W16962  10.702   0.794  13.739
48745W        W16963   6.394  32.208   4.549
48746W        W16964  10.963   8.795  12.104
48747W        W16965  39.007  15.216  13.765
48748W        W16966  43.009   2.492   1.759
48749W        W16967  12.232  13.828  14.550
48750W        W16968   5.930  28.192   4.040
48751W        W16969  43.287  21.456   0.951
48752W        W16970  13.837   3.293  10.664
48753W        W16971  30.227  18.667   1.762
48754W        W16972  10.201  34.579   4.415
48755W        W16973   8.431  21.537   0.492
48756W        W16974  21.261  31.942   5.049
48757W        W16975  28.858  28.474   2.369
48758W        W16976   5.447  43.712   3.248
48759W        W16977  30.237   8.077   2.744
48760W        W16978  39.491  14.060   0.383
48761W        W16979  28.542  17.342  13.565
48762W        W16980  17.138  24.942  14.790
48763W        W16981   1.286  14.308  14.290
48764W        W16982  44.787  38.416   4.180
48765W        W16983   1.270  16.722  13.000
48766W        W16984  28.604  18.892   0.449
48767W        W16985  34.037  33.771  11.149
48768W        W16986   7.333  18.005  12.409
48769W        W16987  35.916  24.083   3.080
48770W        W16988   2.421  12.305   1.861
48771W        W16989  35.661  34.165  10.852
48772W        W16990  23.722  21.568   4.018
48773W        W16991  33.545  24.667   0.968
48774W        W16992  11.602  37.560  13.920
48775W        W16993  22.078  31.603  13.988
48776W        W16994  26.435   8.147   0.772
48777W        W16995   0.957   7.887   3.753
48778W        W16996  23.228  41.904  10.831
48779W        W16997  33.401  30.383  10.225
48780W        W16998  32.928  12.627   0.447
48781W        W16999  42.059  33.895   0.702
48782W        W17000  40.477   5.967  13.784
48783W        W17001  14.164  43.422   3.630
48784W        W17002  41.711   9.729   1.590
48785W        W17003  37.868   9.947   0.770
48786W        W17004   1.655  43.451   3.657
48787W        W17005  14.187   3.944   1.519
48788W        W17006   7.434  10.330  13.070
48789W        W17007  17.056  11.634  12.325
48790W        W17008  28.183  15.022   4.009
48791W        W17009  40.030  22.730   3.160
48792W        W17010  20.330  41.359  14.582
48793W        W17011   7.168  40.446   0.895
48794W        W17012  21.576  28.133   3.355
48795W        W17013  19.149  15.126   5.444
48796W        W17014  10.653  41.375   4.513
48797W        W17015  34.404   4.933  11.443
48798W        W17016  29.658   0.828  14.729
48799W        W17017  23.977   5.227  14.341
48800W        W17018   0.660  17.901  10.453
48801W        W17019   8.380  11.586   1.809
48802W        W17020  38.496   5.346   4.064
48803W        W17021  26.940  40.540   0.170
48804W        W17022   4.327  15.508  13.356
48805W        W17023  33.145  29.621   3.323
48806W        W17024  18.554   6.343   5.017
48807W        W17025  11.180  30.408  11.050
48808W        W17026  14.697   4.623   1.918
48809W        W17027  32.524  14.929   3.218
48810W        W17028  36.207   9.809   1.383
48811W        W17029  25.538   8.976  12.129
48812W        W17030  27.976  41.457  10.748
48813W        W17031  17.911  35.449   1.873
48814W        W17032   7.096  30.701   2.819
48815W        W17033  42.435   3.296   3.538
48816W        W17034   2.430  24.931   4.627
48817W        W17035   8.433  33.822  10.688
48818W        W17036  20.633  38.002   0.474
48819W        W17037  35.893  38.643   4.548
48820W        W17038   4.382  36.894  11.149
48821W        W17039  42.352  22.366  13.475
48822W        W17040  15.293  29.162   1.380
48823W        W17041  12.979  17.789   4.365
48824W        W17042   7.316  23.517   1.749
48825W        W17043  15.107   6.452   3.359
48826W        W17044   5.701   5.443   4.119
48827W        W17045  22.724  14.105  11.569
48828W        W17046  21.745  38.909  14.725
48829W        W17047  22.559  30.115  11.052
48830W        W17048  31.495  11.215  13.675
48831W        W17049   2.897   4.210  11.620
48832W        W17050  27.930  44.462  11.657
48833W        W17051  16.377   5.468   1.190
48834W        W17052  35.989   5.185   3.929
48835W        W17053  44.796  42.919   1.780
48836W        W17054  14.111  14.927  12.978
48837W        W17055   1.289   5.800   2.839
48838W        W17056  27.377  13.721   2.176
48839W        W17057  22.269  20.221   2.838
48840W        W17058   2.363  14.627  15.000
48841W        W17059  33.260  12.641   2.285
48842W        W17060  21.123  28.407   0.720
48843W        W17061  11.277   6.210  12.000
48844W        W17062  43.793  11.822  11.945
48845W        W17063  12.237  41.310  13.600
48846W        W17064  40.663  36.974  11.653
48847W        W17065  15.675  14.599   4.595
48848W        W17066  14.883  39.519   2.849
48849W        W17067   2.139  41.451   0.737
48850W        W17068   6.476  40.235  12.403
48851W        W17069   4.323  16.208   4.472
48852W        W17070  17.638  11.612  13.944
48853W        W17071  38.516  40.204  11.192
48854W        W17072  44.806  15.531   2.236
48855W        W17073   3.125  34.586  13.557
48856W        W17074  25.010  11.654   3.702
48857W        W17075   0.446  14.411  13.007
48858W        W17076  17.080  44.008  14.874
48859W        W17077   3.692  34.342   0.042
48860W        W17078  27.574   8.803   2.232
48861W        W17079   6.577  44.920   1.357
48862W        W17080  27.905  20.715   0.239
48863W        W17081  11.774  22.823   4.249
48864W        W17082  41.245   3.174   3.584
48865W        W17083   4.265  11.183   3.628
48866W        W17084  17.023  28.257   0.669
48867W        W17085  25.020  28.874   0.927
48868W        W17086  11.656   5.459  14.477
48869W        W17087  43.991  12.331   1.771
48870W        W17088  38.905  30.137  12.901
48871W        W17089  25.488   2.288  12.289
48872W        W17090   3.275  23.517  12.423
48873W        W17091  39.934  24.780   0.001
48874W        W17092  16.240  29.117   4.858
48875W        W17093  26.957  44.326  10.333
48876W        W17094   4.870  20.441   2.729
48877W        W17095  42.046  44.235   2.193
48878W        W17096  33.377  41.975   3.202
48879W        W17097  35.626   0.968  11.700
48880W        W17098   3.013  33.886  11.474
48881W        W17099  35.852  27.982   2.243
48882W        W17100  27.737  30.239   3.753
48883W        W17101  41.333   9.608  11.213
48884W        W17102  24.586  11.927  13.845
48885W        W17103  17.298  41.101  10.484
48886W        W17104  26.982   8.675   3.102
48887W        W17105  29.877   2.981  12.783
48888W        W17106  24.138  42.488  11.219
48889W        W17107  20.682   7.309   1.410
48890W        W17108  26.479  35.818   2.850
48891W        W17109  11.297  19.586   3.095
48892W        W17110  29.974  35.269   1.861
48893W        W17111  20.939  40.459  12.692
48894W        W17112  18.145  13.606  11.858
48895W        W17113  30.809   6.869  13.405
48896W        W17114   8.231  43.823   1.947
48897W        W17115  37.468   1.249  11.035
48898W        W17116  23.058  16.634  13.829
48899W        W17117  37.160  19.065   1.368
48900W        W17118   2.471  21.282  13.115
48901W        W17119  26.036  30.198  12.827
48902W        W17120  38.803  36.639   3.704
48903W        W17121  20.186  43.198  12.433
48904W        W17122   8.239  36.854  12.399
48905W        W17123  12.164   9.477  12.745
48906W        W17124  40.880  24.229   4.330
48907W        W17125  19.757  13.546   2.627
48908W        W17126  13.502  39.319   4.346
48909W        W17127  26.962   5.583   2.750
48910W        W17128  14.748  38.950  10.239
48911W        W17129  31.218  14.680  11.107
48912W        W17130  27.908  21.405  12.082
48913W        W17131   6.636   4.731   1.293
48914W        W17132   8.202  28.728   2.129
48915W        W17133  16.819  36.033   3.371
48916W        W17134   9.256   5.647  13.590
48917W        W17135  43.110  38.194   3.667
48918W        W17136   4.751  16.171   4.733
48919W        W17137  43.404   7.408   0.753
48920W        W17138  15.244   2.501  11.965
48921W        W17139  35.598  17.727  14.064
48922W        W17140   7.203   0.737  11.575
48923W        W17141  25.686   5.012   2.671
48924W        W17142  14.914  27.231   1.272
48925W        W17143  19.817   2.725  13.999
48926W        W17144  15.937  15.559   2.308
48927W        W17145  18.281   7.363  13.917
48928W        W17146   3.292  35.266   4.431
48929W        W17147  33.933  38.395  10.462
48930W        W17148  42.377  20.260  13.868
48931W        W17149  44.715  38.369  12.454
48932W        W17150  34.909  21.826   2.123
48933W        W17151  16.130  27.932   0.530
48934W        W17152   0.446  39.459  13.820
48935W        W17153  42.353  41.934   2.294
48936W        W17154  41.206  19.997   3.681
48937W        W17155   0.735  24.281  14.310
48938W        W17156  17.537  44.094   9.809
48939W        W17157  11.756  12.532   1.517
48940W        W17158   4.228   3.641  10.719
48941W        W17159  13.308  27.181  13.800
48942W        W17160  32.949  19.128  10.490
48943W        W17161  14.194  11.211   2.308
48944W        W17162  18.004  37.985   1.504
48945W        W17163   5.267   3.384  11.143
48946W        W17164   5.835   2.008  13.396
48947W        W17165  38.116  19.616   4.192
48948W        W17166   7.860  11.529   1.658
48949W        W17167  16.289  44.513  10.943
48950W        W17168  41.690  32.292  11.258
48951W        W17169  39.935  13.600  12.544
48952W        W17170  44.479  20.279   4.161
48953W        W17171  13.444  22.796  11.442
48954W        W17172  43.453  14.846   2.274
48955W        W17173  29.840  13.297  13.987
48956W        W17174  15.609  32.374   2.742
48957W        W17175  12.801   6.850   3.704
48958W        W17176  14.192  37.888   3.459
48959W        W17177  18.560  36.057  12.508
48960W        W17178  37.998  11.349  11.452
48961W        W17179  43.292  28.177  10.431
48962W        W17180  43.978  40.426   3.265
48963W        W17181   5.746   3.960   3.202
48964W        W17182  40.303  13.324   0.887
48965W        W17183  34.396  14.756  12.083
48966W        W17184  24.160  15.670   0.177
48967W        W17185  16.533  39.425   4.561
48968W        W17186  33.608  17.217  14.485
48969W        W17187  23.949  25.122   0.864
48970W        W17188  32.784  18.969  12.996
48971W        W17189  16.087  38.996  14.021
48972W        W17190  29.613   2.743   1.168
48973W        W17191  19.987  13.319  14.014
48974W        W17192  28.193   9.855   0.399
48975W        W17193   0.474   3.507  10.600
48976W        W17194   9.407  40.122  14.374
48977W        W17195   1.458  20.325  12.958
48978W        W17196  37.758  26.492   4.230
48979W        W17197   6.834  12.316  12.512
48980W        W17198  27.154  19.769  14.712
48981W        W17199  12.321  40.783   2.702
48982W        W17200   0.100  16.701   1.222
48983W        W17201  42.891  44.635   1.209
48984W        W17202   6.401  14.326  14.222
48985W        W17203  27.537   3.173   4.192
48986W        W17204  25.947   5.547  12.529
48987W        W17205  29.964  43.925  11.081
48988W        W17206  17.493   7.529  12.465
48989W        W17207  23.884  25.554   2.656
48990W        W17208  16.045  16.864   4.307
48991W        W17209  27.424  34.084   0.481
48992W        W17210   9.755  22.054   1.756
48993W        W17211  23.987  27.116  14.980
48994W        W17212  40.265   9.414   2.454
48995W        W17213   0.820  16.878  10.592
48996W        W17214   0.854  31.919  13.293
48997W        W17215   9.899  28.484  12.662
48998W        W17216  41.301  16.728   4.102
48999W        W17217  14.699   2.618   3.485
49000W        W17218  17.309   7.736  14.532
49001W        W17219  12.910   4.768  12.476
49002W        W17220  27.620  24.743   0.619
49003W        W17221  23.192  24.225  13.480
49004W        W17222   6.960  43.163   2.685
49005W        W17223  22.954   8.223   1.201
49006W        W17224  22.452  38.235  14.717
49007W        W17225   1.890  24.949  12.040
49008W        W17226  40.583  29.555  11.166
49009W        W17227  10.879   2.311  14.962
49010W        W17228  17.744  29.853  14.217
49011W        W17229  22.459   0.625  11.916
49012W        W17230   0.909  31.755   2.000
49013W        W17231  35.873   3.918  13.440
49014W        W17232   3.134   0.280   0.315
49015W        W17233  16.987  19.520  11.243
49016W        W17234   3.471  39.120   4.632
49017W        W17235  35.097  27.843  14.059
49018W        W17236   6.304   1.687  12.595
49019W        W17237  22.314  18.803  13.384
49020W        W17238  41.295  37.920   3.632
49021W        W17239  44.551  42.474   3.595
49022W        W17240  39.915  23.936  10.939
49023W        W17241  37.308   7.824  13.382
49024W        W17242  13.679  13.622   4.213
49025W        W17243  14.418   8.910   0.152
49026W        W17244  15.341  28.035   4.569
49027W        W17245  44.151   6.186   4.016
49028W        W17246  23.780  10.676  11.671
49029W        W17247  24.065  35.104   2.305
49030W        W17248  35.266   2.913   4.946
49031W        W17249  38.386  17.860   0.577
49032W        W17250  18.066   0.254  11.262
49033W        W17251  12.677   7.684   3.517
49034W        W17252  44.332  17.191  11.617
49035W        W17253  22.738   1.350   1.294
49036W        W17254  17.716  12.163  10.181
49037W        W17255   6.901  23.444  13.453
49038W        W17256  44.018  32.990  14.360
49039W        W17257  11.727   2.467  12.835
49040W        W17258  12.359   2.938   2.766
49041W        W17259   2.973   3.959  11.181
49042W        W17260   1.239  22.312   3.414
49043W        W17261  34.527  34.868  13.910
49044W        W17262  10.017  30.552   4.510
49045W        W17263   3.193  26.596  13.038
49046W        W17264  19.691  11.356  12.701
49047W        W17265  10.275  14.381   4.713
49048W        W17266  42.790  44.825  13.089
49049W        W17267  32.571  39.449   2.648
49050W        W17268  32.056  40.343  11.793
49051W        W17269   9.562   0.404  14.379
49052W        W17270  13.591  41.650  13.108
49053W        W17271  43.267  22.537  13.470
49054W        W17272  28.632  22.235  12.286
49055W        W17273  11.352   1.617   3.805
49056W        W17274   2.402  12.203   3.318
49057W        W17275  19.197   4.971  13.220
49058W        W17276  36.945  32.939   4.093
49059W        W17277   9.865  16.157  13.860
49060W        W17278  43.933   0.878   4.572
49061W        W17279  15.130  31.811   4.992
49062W        W17280  10.177  38.372  14.790
49063W        W17281  18.274  35.142  11.812
49064W        W17282  11.326   6.146   2.354
49065W        W17283  42.894   7.097   0.143
49066W        W17284   6.656  32.379  13.465
49067W        W17285  32.411  24.421  14.961
49068W        W17286  10.888  17.450  14.490
49069W        W17287  43.087  33.517  13.573
49070W        W17288  15.569  41.586   1.366
49071W        W17289  13.340  39.124  11.087
49072W        W17290  36.709  30.908   3.278
49073W        W17291  14.574   9.729  11.370
49074W        W17292  39.479   4.229  13.070
49075W        W17293  10.839  28.123   2.845
49076W        W17294  13.576  35.552  12.206
49077W        W17295  36.076  10.826   4.390
49078W        W17296  34.820   8.772   0.458
49079W        W17297  25.272  16.115   5.263
49080W        W17298  30.258  34.951   3.681
49081W        W17299  32.006  40.370   1.848
49082W        W17300  29.922  14.388   3.353
49083W        W17301   1.821  27.635   1.499
49084W        W17302  11.615  18.245  11.718
49085W        W17303  39.365  31.915  13.986
49086W        W17304  14.760  44.854   4.951
49087W        W17305  15.307  36.153  14.328
49088W        W17306  18.679  17.652  12.176
49089W        W17307  19.084  17.355   0.449
49090W        W17308  17.858   1.229   1.793
49091W        W17309  17.091   9.735  12.046
49092W        W17310  38.793   1.774   1.481
49093W        W17311  30.920  38.964   0.956
49094W        W17312  16.869  33.839   1.954
49095W        W17313  14.156   8.865   1.699
49096W        W17314   7.556  24.241  14.448
49097W        W17315  33.316  18.819   3.291
49098W        W17316  30.079  14.183  13.117
49099W        W17317   3.820  39.878   2.283
49100W        W17318  37.748  42.377   1.340
49101W        W17319  35.561  29.122  10.248
49102W        W17320   7.646  11.904   2.077
49103W        W17321  38.686  11.678   1.362
49104W        W17322   7.407   6.148  12.928
49105W        W17323  11.279  44.472  12.590
49106W        W17324  15.728   4.224  14.272
49107W        W17325  22.758  28.460   1.019
49108W        W17326  19.435  38.378   0.428
49109W        W17327  16.731   0.838   4.689
49110W        W17328   3.429  21.622  12.529
49111W        W17329   6.469   7.856   0.395
49112W        W17330  41.356  30.918   0.828
49113W        W17331  38.828  29.266  13.090
49114W        W17332  12.838   1.948  11.452
49115W        W17333   4.445   7.408  12.022
49116W        W17334   6.196  25.096   4.336
49117W        W17335  39.970   4.054  12.891
49118W        W17336  44.345  32.642  13.235
49119W        W17337  35.972  40.680  14.869
49120W        W17338   1.961  19.636  13.452
49121W        W17339  12.908  21.479   0.040
49122W        W17340  44.110  17.349   1.738
49123W        W17341  26.468   8.318  11.531
49124W        W17342   2.993  41.506  13.969
49125W        W17343  21.501  11.879   3.292
49126W        W17344  34.126  41.272   2.749
49127W        W17345  11.079   0.877  11.493
49128W        W17346  14.855  21.048   3.096
49129W        W17347  18.010  12.273  12.105
49130W        W17348  14.959  25.952  12.630
49131W        W17349  14.489  29.568   4.155
49132W        W17350  33.478  26.731   3.116
49133W        W17351  32.444  20.927  10.404
49134W        W17352   0.350  42.263  10.637
49135W        W17353  44.581  31.568   1.103
49136W        W17354  33.025  35.016   4.595
49137W        W17355  20.164  44.882   0.686
49138W        W17356   5.074  32.271   4.722
49139W        W17357  24.247  24.157   2.364
49140W        W17358  27.599  40.066   4.410
49141W        W17359  13.629  42.141  12.935
49142W        W17360  26.749  26.304   2.702
49143W        W17361  26.068  18.863   4.697
49144W        W17362   9.875  17.019   2.422
49145W        W17363  26.284  37.668  12.402
49146W        W17364  14.809  33.041  13.606
49147W        W17365   4.438  12.807   1.915
49148W        W17366  17.904   1.541  14.317
49149W        W17367  21.730  18.827  12.938
49150W        W17368  28.940   0.099   1.403
49151W        W17369  42.002  37.514  11.084
49152W        W17370  44.511  19.305  13.246
49153W        W17371  16.071  21.176  10.599
49154W        W17372  20.477  30.885   2.132
49155W        W17373  15.859  38.043  11.218
49156W        W17374  40.570  35.642   2.306
49157W        W17375  10.340  41.048   1.388
49158W        W17376   5.877   0.818   2.167
49159W        W17377  21.036  15.570   1.294
49160W        W17378  35.983  17.439   4.586
49161W        W17379  37.137  35.423   4.164
49162W        W17380  25.774  29.348   3.239
49163W        W17381  18.096  11.679  13.387
49164W        W17382  24.970   2.812   0.406
49165W        W17383  33.171  38.602  13.740
49166W        W17384  21.154  40.078  11.220
49167W        W17385  12.730  11.865   3.165
49168W        W17386  28.995  24.067   5.224
49169W        W17387   2.747  31.369  14.425
49170W        W17388   4.650   8.910  10.990
49171W        W17389   9.750  15.323   3.720
49172W        W17390  21.787   3.223   4.221
49173W        W17391  44.331  29.011  14.746
49174W        W17392  31.294  33.415  11.873
49175W        W17393  29.469  12.306   3.258
49176W        W17394  11.664  37.388   3.195
49177W        W17395   3.746  43.986  14.201
49178W        W17396  25.981  21.780   3.115
49179W        W17397  33.509  38.637   2.289
49180W        W17398  20.452  40.903   4.671
49181W        W17399  34.237  24.889  14.884
49182W        W17400  25.648  17.571  12.042
49183W        W17401  31.043  11.889   1.339
49184W        W17402   7.098   6.452   3.105
49185W        W17403  41.046  18.413   0.737
49186W        W17404  39.943  13.040   4.212
49187W        W17405  38.266  14.229   0.786
49188W        W17406  24.298  31.529  14.012
49189W        W17407  40.931  32.860   4.544
49190W        W17408  17.719  20.317   3.259
49191W        W17409  33.487  29.952  13.493
49192W        W17410  15.822  35.229   3.867
49193W        W17411  10.041  29.002  12.635
49194W        W17412  15.460  20.673   0.960
49195W        W17413  30.073  40.343  13.906
49196W        W17414  13.342  26.099  11.687
49197W        W17415  17.898  15.040   2.716
49198W        W17416   5.292   7.787   0.739
49199W        W17417  29.450  14.056  14.297
49200W        W17418  11.137   0.504   2.524
49201W        W17419   0.381  28.670  12.407
49202W        W17420  10.836  42.360   4.703
49203W        W17421   4.331  12.409  12.184
49204W        W17422  12.015  10.585   5.357
49205W        W17423  33.038   0.780  11.157
49206W        W17424  27.123  40.046   0.233
49207W        W17425  19.702  29.095  13.831
49208W        W17426  20.514  12.210   2.264
49209W        W17427  41.207  13.727  14.512
49210W        W17428  40.687  40.395   2.844
49211W        W17429  25.609  24.889   1.291
49212W        W17430   1.934  14.484   3.677
49213W        W17431   9.855  29.461   0.826
49214W        W17432  10.498  18.992   1.239
49215W        W17433  28.964  36.121  12.049
49216W        W17434   5.443  14.623  11.963
49217W        W17435   9.702   3.117   1.909
49218W        W17436  20.947  22.460   1.926
49219W        W17437  25.156  21.640   1.380
49220W        W17438  34.842  44.836  10.636
49221W        W17439  30.394  40.909  11.520
49222W        W17440   0.374  17.686  11.674
49223W        W17441  20.014  34.057   1.923
49224W        W17442  20.149   0.219   1.506
49225W        W17443  14.032  18.766  14.751
49226W        W17444  42.788  33.091  10.307
49227W        W17445  41.637  21.228  11.533
49228W        W17446  20.078  16.580   1.338
49229W        W17447  10.148  28.275   4.546
49230W        W17448  20.662  10.245  13.782
49231W        W17449  15.911   4.366   0.347
49232W        W17450   2.159  39.817   1.309
49233W        W17451   2.725  18.521   2.107
49234W        W17452  28.692  12.642  14.985
49235W        W17453   0.447  43.948  12.179
49236W        W17454  16.501  36.342   0.793
49237W        W17455  39.468  38.599   4.808
49238W        W17456  25.546   2.329  12.832
49239W        W17457   0.868  32.620   1.132
49240W        W17458  36.054  37.923   3.817
49241W        W17459  10.727  26.155  14.787
49242W        W17460  32.375  28.751  12.655
49243W        W17461  19.560   2.853   2.715
49244W        W17462  23.009  13.034  11.593
49245W        W17463  30.161   3.366  12.978
49246W        W17464   6.268   3.074  14.014
49247W        W17465  30.957  23.708   3.611
49248W        W17466  25.080   9.745  11.463
49249W        W17467  12.352  10.919   2.341
49250W        W17468  13.175  33.497  12.861
49251W        W17469   3.378  39.574   0.823
49252W        W17470  43.711  20.043  13.875
49253W        W17471  17.080   3.006  11.473
49254W        W17472  14.207  28.589   3.060
49255W        W17473  34.095  24.195  10.707
49256W        W17474  15.785  35.565  12.035
49257W        W17475  36.910  14.187  10.677
49258W        W17476  21.751  16.455   0.123
49259W        W17477   5.956  36.460   3.838
49260W        W17478  34.872   5.372  14.969
49261W        W17479  19.914  14.176  11.855
49262W        W17480   6.204  11.419   3.700
49263W        W17481  33.459  33.667   4.561
49264W        W17482   0.394  24.662   2.947
49265W        W17483  12.121  21.584   0.803
49266W        W17484  20.152   2.743   4.880
49267W        W17485  15.825  34.071   0.752
49268W        W17486  19.521  40.023  14.597
49269W        W17487  21.633  42.119  11.519
49270W        W17488  13.530  13.354  10.753
49271W        W17489   9.918  11.895  14.964
49272W        W17490   1.892   0.230   3.786
49273W        W17491  39.022  33.310  13.488
49274W        W17492  44.065  10.534   1.716
49275W        W17493  13.890  19.978  12.841
49276W        W17494  35.377   3.780   1.220
49277W        W17495  30.054  26.690   0.053
49278W        W17496  25.747  23.269   2.153
49279W        W17497   8.886  37.937  13.503
49280W        W17498  37.382  39.323   5.094
49281W        W17499  40.250  30.395   1.464
49282W        W17500   1.478  19.299  14.388
49283W        W17501   5.278  32.307  12.519
49284W        W17502   5.962  23.950  13.476
49285W        W17503  11.874  28.554   2.038
49286W        W17504  32.600  36.794   3.790
49287W        W17505  30.443  18.777   2.221
49288W        W17506  28.397  24.707   4.494
49289W        W17507  43.390  42.934   1.361
49290W        W17508  14.138  11.080   1.253
49291W        W17509  35.115  44.273   5.084
49292W        W17510  34.367  41.706  13.127
49293W        W17511   9.606  41.306   4.925
49294W        W17512  31.011  44.407   0.795
49295W        W17513   8.689  37.428  11.162
49296W        W17514  35.347  22.267  12.390
49297W        W17515   4.792  30.133   2.817
49298W        W17516  12.114  11.050  13.533
49299W        W17517  22.516   8.318  14.047
49300W        W17518  43.051   4.181   2.286
49301W        W17519  40.746  14.382  14.732
49302W        W17520   9.369  28.598  11.658
49303W        W17521  40.451  29.511   1.922
49304W        W17522  33.051  37.471  13.100
49305W        W17523  24.645  35.443  10.609
49306W        W17524  24.460   5.859   1.734
49307W        W17525  32.433  26.605   0.866
49308W        W17526  27.381  31.795  14.934
49309W        W17527   6.741  14.577  13.906
49310W        W17528  39.567  12.863   1.949
49311W        W17529  12.411  32.511   3.152
49312W        W17530  32.463  10.230   4.551
49313W        W17531  38.337  43.330  10.393
49314W        W17532  41.320  35.058  14.430
49315W        W17533   2.143  38.078   1.687
49316W        W17534  34.286  35.543  12.823
49317W        W17535  23.895  12.113   0.351
49318W        W17536  26.144  40.556  12.380
49319W        W17537   3.329  16.634  11.062
49320W        W17538   5.347  14.342   1.691
49321W        W17539   7.837  24.579   2.385
49322W        W17540  25.784  23.974  12.547
49323W        W17541   6.252   3.626  14.836
49324W        W17542  17.689  30.430   0.401
49325W        W17543  26.066  37.410   4.415
49326W        W17544  21.036  36.016   0.817
49327W        W17545  28.998  13.923   3.838
49328W        W17546  40.223  24.720   1.180
49329W        W17547  35.102  39.828   1.683
49330W        W17548  19.098  13.602  12.096
49331W        W17549   4.766  13.920  11.524
49332W        W17550  19.782  22.477  14.367
49333W        W17551  24.649  29.026  13.349
49334W        W17552   7.908  26.771   4.063
49335W        W17553   8.200   3.255   2.889
49336W        W17554  29.546   9.229   3.795
49337W        W17555  35.906  34.584   1.494
49338W        W17556   5.916  44.858   4.592
49339W        W17557  30.726  13.926  10.245
49340W        W17558  29.564  26.664   0.216
49341W        W17559  42.386  22.663  11.873
49342W        W17560  40.475   4.910  11.196
49343W        W17561   7.283   0.799  10.712
49344W        W17562  41.466  23.277   1.829
49345W        W17563   0.911  31.137  14.331
49346W        W17564  28.219  41.059   1.411
49347W        W17565  27.064  36.443  13.551
49348W        W17566  20.680  25.623   0.682
49349W        W17567  31.452  44.958   3.917
49350W        W17568  10.270  44.220   2.459
49351W        W17569   8.113  34.262  12.908
49352W        W17570  42.427  41.441   4.642
49353W        W17571  29.756  26.660  10.803
49354W        W17572  28.284   6.611  10.745
49355W        W17573  15.770   5.338  10.675
49356W        W17574  43.863   4.835   2.820
49357W        W17575  26.932  43.783  11.097
49358W        W17576  13.647   7.320   1.719
49359W        W17577   3.008   5.258   3.299
49360W        W17578  23.987  24.583  14.771
49361W        W17579  32.794  37.973  14.335
49362W        W17580   2.646  28.007  12.917
49363W        W17581  40.718  39.459   4.981
49364W        W17582  13.371  43.534  12.821
49365W        W17583   8.392  23.034   0.394
49366W        W17584   9.473   4.014   0.276
49367W        W17585  31.327   0.000  12.317
49368W        W17586   5.096  29.157   1.875
49369W        W17587  41.757   8.664   2.861
49370W        W17588  35.428  18.338   0.865
49371W        W17589  26.775  14.755  11.985
49372W        W17590  16.182  11.656  11.867
49373W        W17591  17.006  14.615   2.622
49374W        W17592  38.018  35.896  12.267
49375W        W17593  44.487  35.437  14.316
49376W        W17594  16.958  18.691  11.186
49377W        W17595  39.808  36.941  12.403
49378W        W17596  12.154  18.619  12.829
49379W        W17597   7.280  18.358   3.796
49380W        W17598  41.792   2.042  11.182
49381W        W17599   7.240   6.563   0.162
49382W        W17600   5.338  37.000  14.763
49383W        W17601  26.683   2.098  11.982
49384W        W17602  21.828  15.603   1.924
49385W        W17603  30.070  43.470   0.268
49386W        W17604  11.060   4.771   4.536
49387W        W17605  34.914  22.062   1.661
49388W        W17606   2.311   6.065   4.590
49389W        W17607  22.611  34.964  14.859
49390W        W17608  30.150  10.292  13.099
49391W        W17609  15.113  22.504   1.642
49392W        W17610  17.543  17.122  10.072
49393W        W17611  25.095  14.410   5.228
49394W        W17612  31.646  18.445  11.327
49395W        W17613  24.490  43.636   0.262
49396W        W17614   6.687  22.683  12.617
49397W        W17615  40.554  18.336  12.078
49398W        W17616  24.681  17.313   4.407
49399W        W17617  39.433   3.678  13.976
49400W        W17618  17.740  43.381  12.251
49401W        W17619  12.635  37.106   1.311
49402W        W17620  19.067  24.190   0.033
49403W        W17621   2.202  12.149  11.914
49404W        W17622  26.925  35.921   5.047
49405W        W17623  41.025  32.430  14.844
49406W        W17624  34.009  21.215   4.175
49407W        W17625  23.674   6.440   3.768
49408W        W17626  34.067   3.547  12.591
49409W        W17627  15.784   3.727  14.085
49410W        W17628  22.447  25.440   1.299
49411W        W17629  40.211  12.608   0.444
49412W        W17630  24.090  29.427   2.865
49413W        W17631  30.510  40.999  10.611
49414W        W17632  31.943  15.759   3.712
49415W        W17633  24.416   3.006   3.158
49416W        W17634   0.332  14.100  12.548
49417W        W17635  10.423  20.059  11.567
49418W        W17636   1.229   9.113  11.173
49419W        W17637  41.750  23.156  14.291
49420W        W17638  38.298  35.957  10.754
49421W        W17639  15.802  40.966   3.280
49422W        W17640   6.804  12.572  13.855
49423W        W17641  26.181  29.151   0.566
49424W        W17642  14.914  13.903   2.849
49425W        W17643  34.574   8.371  13.434
49426W        W17644  40.574  13.134   3.658
49427W        W17645  31.154  30.926  14.912
49428W        W17646  39.480  13.374  12.619
49429W        W17647  20.706  33.488  12.958
49430W        W17648  35.410  10.607  14.484
49431W        W17649  43.389  14.767  12.070
49432W        W17650   4.330   1.985   2.298
49433W        W17651   7.934  16.160  13.951
49434W        W17652  39.360   1.487  14.367
49435W        W17653  33.207  35.871  10.025
49436W        W17654   5.288  35.824  14.797
49437W        W17655  37.335  41.251   1.247
49438W        W17656  23.196  24.549  10.875
49439W        W17657  16.795  34.737  11.425
49440W        W17658  15.975  11.810  14.982
49441W        W17659  26.373  20.923   2.709
49442W        W17660  40.605  37.040  14.143
49443W        W17661  34.064   8.293  13.500
49444W        W17662  11.186   7.389  11.964
49445W        W17663  30.340  29.230   0.890
49446W        W17664  18.288  15.737   3.134
49447W        W17665  34.980   2.499  11.895
49448W        W17666  12.028   7.845  14.858
49449W        W17667  23.080  37.234   3.619
49450W        W17668   3.653   3.690   0.492
49451W        W17669   6.441  34.683   0.142
49452W        W17670  35.827  37.473   4.561
49453W        W17671  31.994  28.345  12.598
49454W        W17672  13.229  42.491  12.364
49455W        W17673  24.487  23.789  14.438
49456W        W17674   3.202   2.234   0.411
49457W        W17675  35.051  17.662  14.791
49458W        W17676  18.406  33.557   5.118
49459W        W17677  40.965  13.052  11.074
49460W        W17678  25.446  22.692  12.362
49461W        W17679  21.562  21.266   2.821
49462W        W17680   8.138  43.469  13.902
49463W        W17681  17.337   9.682  11.604
49464W        W17682  27.995  19.658   0.541
49465W        W17683  33.985   7.245   1.689
49466W        W17684  18.753  25.612   0.820
49467W        W17685  23.047  18.031  12.827
49468W        W17686  43.064  38.474  13.067
49469W        W17687  27.169  36.308  11.931
49470W        W17688  38.333  15.712  11.445
49471W        W17689  18.197   8.171   1.404
49472W        W17690  40.183  39.963  10.392
49473W        W17691  13.707   7.649   2.434
49474W        W17692  28.837  42.730   0.179
49475W        W17693   3.543  36.122  11.292
49476W        W17694   6.979  41.437  14.065
49477W        W17695  23.051   7.462   1.700
49478W        W17696  10.669  42.488  10.612
49479W        W17697  39.087  31.959  10.675
49480W        W17698   3.995  25.079  12.437
49481W        W17699  32.895  37.817   2.065
49482W        W17700  33.111   6.784  12.021
49483W        W17701  26.556  43.895  14.517
49484W        W17702  43.425  26.113  14.506
49485W        W17703  17.711  10.867  13.058
49486W        W17704  23.141  27.501   3.945
49487W        W17705  21.442   9.412   2.783
49488W        W17706   1.029  44.927   0.809
49489W        W17707  39.757   8.145  14.357
49490W        W17708  18.154   9.985  11.992
49491W        W17709  26.326  43.486  13.944
49492W        W17710  19.057  30.447   2.992
49493W        W17711  14.107  15.132   0.370
49494W        W17712  19.711  36.634   2.732
49495W        W17713  22.025  38.472   4.552
49496W        W17714  39.920  31.842   2.594
49497W        W17715  36.837  24.767   3.746
49498W        W17716   7.940   9.373   3.647
49499W        W17717  30.654  19.938   3.011
49500W        W17718  23.712  10.415   4.145
49501W        W17719  11.611  18.951   3.706
49502W        W17720   2.523  10.908  11.399
49503W        W17721  13.971  13.777  13.814
49504W        W17722  25.500  16.265  10.696
49505W        W17723  15.725  39.988  13.578
49506W        W17724   7.597  16.067  14.321
49507W        W17725   4.383  44.311   0.730
49508W        W17726  40.922  40.284  14.272
49509W        W17727  30.211  31.978  11.088
49510W        W17728  24.514  41.842  11.566
49511W        W17729  35.506  43.146  12.947
49512W        W17730  30.983   3.763  14.446
49513W        W17731  30.063  38.091  10.642
49514W        W17732   5.487  25.239   1.824
49515W        W17733   4.559  29.153   2.000
49516W        W17734   9.393  31.731  14.993
49517W        W17735  35.792   6.409  14.985
49518W        W17736  19.184  42.124   1.811
49519W        W17737  13.659  36.784   0.353
49520W        W17738  41.564  42.094  14.376
49521W        W17739  31.071  25.125   1.916
49522W        W17740  22.027  18.054  12.081
49523W        W17741  10.870   1.243  13.899
49524W        W17742  19.833   6.346   3.672
49525W        W17743  41.067  31.821   3.222
49526W        W17744   6.411  33.092  12.115
49527W        W17745  22.751  16.144  14.024
49528W        W17746   7.803   6.051   1.884
49529W        W17747  17.002  21.939  12.544
49530W        W17748   0.257  17.717   3.842
49531W        W17749  36.043   3.408  10.651
49532W        W17750   6.303  28.118   0.787
49533W        W17751  32.638  22.621  14.445
49534W        W17752  18.702   9.465   2.953
49535W        W17753  10.879  19.418   4.962
49536W        W17754  31.461  30.416   4.586
49537W        W17755  26.130   2.768   1.652
49538W        W17756   9.311  38.858  12.526
49539W        W17757   4.361  43.535  14.047
49540W        W17758  10.217   9.931  12.151
49541W        W17759  42.060  43.035  11.536
49542W        W17760  13.089   7.675   3.204
49543W        W17761  10.948  31.901  14.492
49544W        W17762  29.128  10.650  12.057
49545W        W17763  30.147  19.376   3.065
49546W        W17764  15.144   4.377   1.767
49547W        W17765  35.291  10.674  12.912
49548W        W17766  19.750  34.745   1.435
49549W        W17767  41.041  25.712  11.164
49550W        W17768  17.179  24.368   1.117
49551W        W17769  19.841  40.823   1.492
49552W        W17770  33.561  17.528  14.059
49553W        W17771   6.631  41.849   3.704
49554W        W17772  21.639  20.284  10.722
49555W        W17773  18.025  14.089  13.081
49556W        W17774  12.310   1.373   0.512
49557W        W17775  21.545  10.368  14.416
49558W        W17776  41.904  35.019  12.869
49559W        W17777  20.974  11.032   0.396
49560W        W17778  38.470   5.825  10.429
49561W        W17779  37.609  39.262  11.597
49562W        W17780  14.287  34.813   2.555
49563W        W17781   0.802  29.520  12.630
49564W        W17782  29.699   6.998  14.675
49565W        W17783   3.422  11.403  12.521
49566W        W17784  15.176  35.431  11.709
49567W        W17785  22.542  18.731   1.414
49568W        W17786  17.662   7.507   4.833
49569W        W17787  23.583  14.108   0.664
49570W        W17788  39.008   6.119   2.901
49571W        W17789  30.457   6.618   0.305
49572W        W17790  30.715  14.107  12.780
49573W        W17791  30.035  16.034   3.749
49574W        W17792  39.904   7.863   3.052
49575W        W17793  15.516  18.336   0.697
49576W        W17794  24.899  24.741   0.253
49577W        W17795  38.303  33.167  13.889
49578W        W17796  11.743  32.502  10.682
49579W        W17797  10.898   8.242  14.544
49580W        W17798  21.579  35.516   0.372
49581W        W17799  10.032  22.536   1.742
49582W        W17800  20.191  23.299  11.107
49583W        W17801  32.251  11.696   4.917
49584W        W17802  34.371  35.337  10.647
49585W        W17803   4.407   8.292  13.963
49586W        W17804  43.464  39.000   3.318
49587W        W17805  15.711  38.546   3.105
49588W        W17806  36.475  26.115   4.639
49589W        W17807  15.210  44.510   3.672
49590W        W17808  23.011  19.511   0.484
49591W        W17809   1.781  34.455  13.831
49592W        W17810  11.673  34.989   4.629
49593W        W17811  24.500   8.610  11.723
49594W        W17812  43.151   3.220  12.859
49595W        W17813  33.114   1.460  12.953
49596W        W17814  18.017  23.955  11.080
49597W        W17815  16.733  43.485  14.358
49598W        W17816  16.488  37.431   2.338
49599W        W17817   8.010  17.236   1.354
49600W        W17818  39.340  23.648  14.508
49601W        W17819  44.789  21.748   4.889
49602W        W17820  39.396  44.864   2.696
49603W        W17821  31.582  21.406  12.351
49604W        W17822  15.096   2.405   2.571
49605W        W17823  37.245  44.840  14.737
49606W        W17824  40.149  29.044  13.086
49607W        W17825   4.862  19.592   1.315
49608W        W17826  25.847  13.192  11.773
49609W        W17827  23.636  20.066  10.650
49610W        W17828  17.096  29.234   0.313
49611W        W17829  30.581  22.359  14.305
49612W        W17830  39.046  25.514   2.150
49613W        W17831   9.586  36.237  14.521
49614W        W17832   8.239   0.879  11.475
49615W        W17833  14.823   8.324   4.937
49616W        W17834  18.968  21.443  14.770
49617W        W17835   6.077   4.399   3.246
49618W        W17836  22.697   7.817   4.007
49619W        W17837   1.892  35.432   4.660
49620W        W17838  14.029  13.864  11.602
49621W        W17839   8.451  31.016   1.159
49622W        W17840   5.991  13.217  14.559
49623W        W17841   5.636  24.932  10.727
49624W        W17842  15.537  28.550   0.298
49625W        W17843   5.330   4.494   0.782
49626W        W17844  33.996  14.565   4.920
49627W        W17845  42.418  21.180   1.877
49628W        W17846  22.667   2.278   3.738
49629W        W17847  40.513  43.861   4.750
49630W        W17848  15.690  42.256  11.195
49631W        W17849  11.397  24.536   0.819
49632W        W17850  34.340  41.774  11.052
49633W        W17851  14.125  16.080  13.373
49634W        W17852  14.072  14.849  14.007
49635W        W17853  20.270  29.526   1.444
49636W        W17854  35.348  41.791   3.620
49637W        W17855  14.196   2.879  10.235
49638W        W17856   8.321  37.128  13.422
49639W        W17857   1.416  37.395   4.325
49640W        W17858   2.018  41.486   1.638
49641W        W17859  23.765  22.021  10.717
49642W        W17860   4.093  25.536  14.420
49643W        W17861  37.908  16.800   0.814
49644W        W17862  43.281  20.000   0.751
49645W        W17863   0.539  27.451  14.660
49646W        W17864  18.914  31.164  11.312
49647W        W17865  14.862  34.541  14.861
49648W        W17866  30.424  30.055  13.448
49649W        W17867  26.725  30.078   3.567
49650W        W17868  35.269  17.910  10.665
49651W        W17869  24.956  43.338   1.730
49652W        W17870  38.565   4.724   3.314
49653W        W17871  15.115  10.378  11.562
49654W        W17872  22.048  43.461   1.282
49655W        W17873  32.461  16.650  12.441
49656W        W17874  43.234  20.258  13.879
49657W        W17875  25.976  36.873  13.012
49658W        W17876  14.753   1.552  10.271
49659W        W17877  38.843  39.566  14.025
49660W        W17878   2.174   6.289   4.135
49661W        W17879   2.036  32.771   0.910
49662W        W17880  33.205  27.930  11.420
49663W        W17881  14.928  21.621   0.949
49664W        W17882  12.109  41.074   1.841
49665W        W17883  17.016  10.265   4.113
49666W        W17884  24.604   4.762   1.502
49667W        W17885  21.235  41.056   1.331
49668W        W17886  39.745  22.781   0.616
49669W        W17887   8.901  15.843  11.809
49670W        W17888  11.598  18.530   2.254
49671W        W17889  42.299  11.857  14.139
49672W        W17890  36.463  37.008  13.212
49673W        W17891  32.924  30.314   2.623
49674W        W17892  38.318  30.005   0.678
49675W        W17893  39.768  11.253   3.929
49676W        W17894  26.309   9.344   0.875
49677W        W17895  33.977  18.197  14.519
49678W        W17896  30.137  34.454   1.386
49679W        W17897  36.749  20.018  11.635
49680W        W17898  43.150  19.274   2.762
49681W        W17899  36.355  22.544  13.225
49682W        W17900  16.331  32.678   2.272
49683W        W17901  41.269  35.032   4.317
49684W        W17902  30.220  33.717  14.806
49685W        W17903  40.074  16.617  12.344
49686W        W17904  14.342   9.696   3.096
49687W        W17905  41.407   4.278   2.728
49688W        W17906  23.534  27.163  12.597
49689W        W17907  35.360  15.597   3.076
49690W        W17908  16.907   9.712  14.856
49691W        W17909   0.913   4.793   3.717
49692W        W17910   5.825   7.711   4.236
49693W        W17911  22.192  27.140   3.702
49694W        W17912   9.133  20.698  14.492
49695W        W17913  19.619  31.963   3.083
49696W        W17914  31.492   4.196  14.723
49697W        W17915  34.927  43.471   4.462
49698W        W17916  21.921  27.510   3.225
49699W        W17917  41.882  42.365   0.261
49700W        W17918  11.711  37.861   0.745
49701W        W17919  35.578  10.505  11.567
49702W        W17920  15.594  32.478  13.858
49703W        W17921  40.031  44.032  10.864
49704W        W17922   2.868  22.896  12.009
49705W        W17923  38.164  19.211  10.557
49706W        W17924  39.147  12.492  13.454
49707W        W17925  18.813   5.882   1.376
49708W        W17926  33.966  21.000   2.232
49709W        W17927  37.327  20.189   1.360
49710W        W17928  14.764   4.183  10.949
49711W        W17929  29.185  31.253  14.258
49712W        W17930  24.100  14.329  10.676
49713W        W17931  14.146  28.394  11.217
49714W        W17932   7.855   3.656  11.370
49715W        W17933  27.612   8.029   4.816
49716W        W17934   1.346   1.288   4.192
49717W        W17935  15.106  41.899   0.886
49718W        W17936  31.132  38.393  11.916
49719W        W17937  14.600  17.195  11.561
49720W        W17938   6.228  29.694  10.997
49721W        W17939  18.394  15.823   2.634
49722W        W17940   7.242  39.638  10.360
49723W        W17941  20.698  44.741   3.663
49724W        W17942  37.830  33.611   4.807
49725W        W17943   1.226  25.087   3.883
49726W        W17944  28.043  35.605  12.876
49727W        W17945   3.454  13.270  14.730
49728W        W17946  20.621  39.561  12.499
49729W        W17947   5.936  21.287   2.722
49730W        W17948   5.415  19.318  11.202
49731W        W17949  21.326   3.066  14.944
49732W        W17950  20.676  38.483  11.562
49733W        W17951  21.337   6.505   3.519
49734W        W17952  16.753  35.031  14.061
49735W        W17953  40.450  21.143   1.703
49736W        W17954  16.127  27.664  10.458
49737W        W17955  34.389  36.829   3.265
49738W        W17956   1.237   4.772  14.934
49739W        W17957  15.028  12.915   3.080
49740W        W17958  18.587  26.209  10.586
49741W        W17959  16.585  29.310   2.445
49742W        W17960  27.597  19.886  13.552
49743W        W17961   8.751   1.882  13.050
49744W        W17962  38.115  19.819  11.840
49745W        W17963  20.483  41.543   5.125
49746W        W17964  28.561  10.815   4.130
49747W        W17965   6.398  30.788  11.086
49748W        W17966  40.278  17.076  10.710
49749W        W17967   6.265  33.120   3.665
49750W        W17968  34.307  33.310  11.011
49751W        W17969   2.910   4.333   4.480
49752W        W17970  35.646  26.765  13.077
49753W        W17971   4.151  20.178   0.454
49754W        W17972   8.144  23.302  11.744
49755W        W17973   3.459  29.138   9.956
49756W        W17974  11.225  26.098   4.175
49757W        W17975  32.606  25.620  12.138
49758W        W17976  33.956  34.561  10.692
49759W        W17977  37.626  37.392   1.877
49760W        W17978   1.695  25.636   2.864
49761W        W17979  34.933  24.398  11.832
49762W        W17980  23.471  11.783  11.908
49763W        W17981  29.625   5.104   3.189
49764W        W17982   7.617   4.041  14.905
49765W        W17983  14.917  18.619   3.718
49766W        W17984  17.759  33.356   0.403
49767W        W17985  12.584  10.444   5.107
49768W        W17986   2.299  29.752  11.222
49769W        W17987  12.835  33.567  12.075
49770W        W17988  44.772  26.126  10.972
49771W        W17989  41.427  40.793   4.837
49772W        W17990  42.406   9.733   4.610
49773W        W17991  30.660  16.356   0.743
49774W        W17992  18.003   7.599  12.474
49775W        W17993  12.565   9.451  13.063
49776W        W17994  19.032  11.563  10.278
49777W        W17995  20.291  19.043  13.646
49778W        W17996  22.264  29.651  11.077
49779W        W17997  25.475  33.491  11.564
49780W        W17998  26.849  30.641  11.619
49781W        W17999  40.121  18.748  10.634
49782W        W18000  30.130  25.988  10.696
49783W        W18001  42.520  14.138  14.496
49784W        W18002   9.077  35.985   0.693
49785W        W18003   2.507  44.115   1.219
49786W        W18004   0.196  19.787  11.172
49787W        W18005  17.270   5.754  13.879
49788W        W18006  35.423  26.971  11.530
49789W        W18007   8.693  21.477   4.092
49790W        W18008  22.985  28.291  14.855
49791W        W18009   2.760  39.735  14.988
49792W        W18010  14.600   4.236   3.598
49793W        W18011  11.810   5.935   2.326
49794W        W18012  18.981  13.145   2.193
49795W        W18013  38.335  30.410   3.935
49796W        W18014  43.067   7.294  14.688
49797W        W18015  30.096  44.417  10.826
49798W        W18016  44.948  33.682  11.123
49799W        W18017   7.425  15.610  12.913
49800W        W18018  34.042  32.945  11.331
49801W        W18019  19.045   1.879   3.719
49802W        W18020  33.408  12.683   4.057
49803W        W18021  16.198  15.354  12.575
49804W        W18022  41.455  19.696   3.110
49805W        W18023   8.223  25.285  12.143
49806W        W18024  36.247  12.602  10.805
49807W        W18025  30.979  27.931   0.029
49808W        W18026  15.085  43.005   0.725
49809W        W18027  10.668   6.449   4.109
49810W        W18028  26.242  35.759  12.009
49811W        W18029  36.600  35.534   2.279
49812W        W18030   0.836  24.075   1.624
49813W        W18031  41.860  10.496   4.549
49814W        W18032  27.235   9.286   0.851
49815W        W18033  16.056  27.042  13.823
49816W        W18034  22.798   0.262  12.081
49817W        W18035  15.278  39.565   1.842
49818W        W18036  11.394   4.927   0.862
49819W        W18037  17.048  12.016   1.437
49820W        W18038  37.880  26.070  13.394
49821W        W18039  36.366   0.008  12.466
49822W        W18040  22.550   3.316  11.968
49823W        W18041  44.930  37.290  13.336
49824W        W18042   4.020  43.529   4.185
49825W        W18043  38.031  24.448  11.967
49826W        W18044   8.213  14.149  11.185
49827W        W18045   9.587  11.777   2.323
49828W        W18046  25.490  38.760   4.314
49829W        W18047   5.329  21.329   4.479
49830W        W18048  30.156  33.084   3.725
49831W        W18049  35.548   2.210  14.905
49832W        W18050  28.467   5.712  10.668
49833W        W18051  21.001  23.542   3.213
49834W        W18052  33.411   9.215   4.899
49835W        W18053  42.893   0.554   4.473
49836W        W18054  39.836   6.026   0.897
49837W        W18055  41.295   3.358   4.570
49838W        W18056   5.416  36.605  11.217
49839W        W18057  15.673  43.007   4.272
49840W        W18058  27.889  41.557   3.666
49841W        W18059  16.228  20.778   0.424
49842W        W18060  15.086   8.901   3.580
49843W        W18061  23.991   3.950   1.349
49844W        W18062  10.743  27.932  14.978
49845W        W18063  18.931  31.116   2.309
49846W        W18064  42.652   3.201  13.068
49847W        W18065  29.277   5.991   0.776
49848W        W18066  43.496  22.198   3.612
49849W        W18067  42.375  36.444  13.512
49850W        W18068  10.678   4.100  10.844
49851W        W18069  25.093  34.958  11.213
49852W        W18070  20.746  25.027  14.404
49853W        W18071  14.595   3.392   4.577
49854W        W18072  11.833  31.330  14.989
49855W        W18073  37.330  27.946   4.206
49856W        W18074  29.201  38.355  13.329
49857W        W18075   7.767  38.463  10.408
49858W        W18076  42.846  38.784   1.256
49859W        W18077  33.136  12.825   3.628
49860W        W18078  13.559  25.134  14.798
49861W        W18079  11.583  27.022   0.597
49862W        W18080  32.430  33.937   3.129
49863W        W18081  36.320   3.035  11.392
49864W        W18082  43.866  42.391   1.939
49865W        W18083   2.353  39.335   1.354
49866W        W18084   0.584   3.517   5.089
49867W        W18085  42.917   9.356  12.882
49868W        W18086  18.654   8.655   4.584
49869W        W18087  30.432  19.224  13.821
49870W        W18088  41.421  16.090  11.335
49871W        W18089  26.457   2.826   0.346
49872W        W18090  16.625  31.965  11.269
49873W        W18091   0.390  37.489  12.520
49874W        W18092  25.605  11.885  12.480
49875W        W18093  29.273  27.369   3.055
49876W        W18094  41.302  13.198   0.828
49877W        W18095  43.506  35.600  14.395
49878W        W18096  15.671   6.253   1.258
49879W        W18097   9.224  23.614  10.663
49880W        W18098  27.272   2.737  11.139
49881W        W18099   2.911   0.005  14.937
49882W        W18100  14.485  27.413  10.206
49883W        W18101  19.437  13.450   2.059
49884W        W18102  31.332  27.707  10.019
49885W        W18103  41.324  42.646   1.179
49886W        W18104   8.830  20.552   0.884
49887W        W18105  42.774  13.632   2.246
49888W        W18106  17.018  28.635  14.464
49889W        W18107  27.363  10.254  13.539
49890W        W18108  41.435  11.027  12.988
49891W        W18109  12.147  41.520  10.627
49892W        W18110  31.214  28.192  10.653
49893W        W18111  21.067  21.885  11.099
49894W        W18112   6.310   2.804   4.724
49895W        W18113  12.181   3.728   3.670
49896W        W18114  22.680  32.085   1.314
49897W        W18115   4.722  39.496   1.864
49898W        W18116  12.795  32.544  10.742
49899W        W18117  35.089   7.942  12.940
49900W        W18118  43.260  10.281   5.026
49901W        W18119  17.556  22.158   4.204
49902W        W18120  18.218  17.182  10.612
49903W        W18121  34.061  12.260  13.772
49904W        W18122  29.501  28.475   3.836
49905W        W18123  25.946   4.854  10.820
49906W        W18124  39.088   4.597  14.859
49907W        W18125  12.752  37.560   2.890
49908W        W18126  10.675  14.878   9.867
49909W        W18127   0.794  19.995   3.357
49910W        W18128  22.000  40.624  14.322
49911W        W18129  10.606  26.556  12.004
49912W        W18130  19.482   2.484   2.235
49913W        W18131  27.433   0.387   3.252
49914W        W18132  26.612  41.503   4.740
49915W        W18133  14.996  27.030  10.565
49916W        W18134  13.009   1.774   5.034
49917W        W18135  19.582  28.477  11.278
49918W        W18136   7.928  14.637  11.125
49919W        W18137  19.934  17.438  11.548
49920W        W18138  34.528  23.147   2.285
49921W        W18139  32.093  42.867  13.902
49922W        W18140  28.742   1.085   1.079
49923W        W18141  41.847   2.529  12.202
49924W        W18142  35.267   3.388   1.570
49925W        W18143  19.076  42.116   0.958
49926W        W18144  22.307   1.880   2.288
49927W        W18145  27.475  26.663   3.149
49928W        W18146  42.554  43.708   4.718
49929W        W18147  24.418  36.014   1.458
49930W        W18148  16.086  20.114  13.145
49931W        W18149  42.186   6.483   4.145
49932W        W18150  28.951  36.382   2.208
49933W        W18151  25.477  40.752   1.443
49934W        W18152  35.573  25.775   4.175
49935W        W18153  41.277  24.948  12.303
49936W        W18154  12.485  13.340   0.380
49937W        W18155   8.734   3.509   0.474
49938W        W18156  22.579  43.206  10.687
49939W        W18157  31.041  16.556   0.416
49940W        W18158  24.682  25.255   3.596
49941W        W18159  29.900  30.459   2.211
49942W        W18160  26.161  24.437  11.690
49943W        W18161  42.577  42.264   4.064
49944W        W18162  31.642  33.838  14.678
49945W        W18163  38.120  21.225   4.888
49946W        W18164  36.569  39.120  13.812
49947W        W18165  32.376   6.679  13.570
49948W        W18166  23.085  15.481   2.645
49949W        W18167   6.230  39.519  12.989
49950W        W18168   6.026   0.405  14.364
49951W        W18169  31.581  34.429   2.982
49952W        W18170  10.583  22.215  13.042
49953W        W18171  26.111  23.259  14.456
49954W        W18172   9.746  34.920   0.549
49955W        W18173  33.684   4.053  14.427
49956W        W18174  37.804  28.109  13.575
49957W        W18175  30.131  10.636  11.389
49958W        W18176   5.221  40.178  12.558
49959W        W18177   6.161  24.541  12.970
49960W        W18178  43.991  15.990  12.412
49961W        W18179  32.493  32.984  11.921
49962W        W18180  22.150  18.491   4.960
49963W        W18181  37.866   1.206  14.846
49964W        W18182  16.105   8.125  12.475
49965W        W18183  17.594  25.078   1.029
49966W        W18184   1.986  37.478   3.328
49967W        W18185  17.064   1.774  12.790
49968W        W18186  35.453  31.149  13.069
49969W        W18187  29.539  41.757   4.083
49970W        W18188   4.175  30.930   3.792
49971W        W18189  36.672   6.752  12.055
49972W        W18190  29.702  41.071   3.644
49973W        W18191  21.566  16.403  12.105
49974W        W18192   3.968  39.813   4.537
49975W        W18193   5.395  15.789   4.716
49976W        W18194  11.038  39.792   2.618
49977W        W18195   9.743  12.551  13.124
49978W        W18196  41.824  44.467  14.712
49979W        W18197  44.922   9.961   1.346
49980W        W18198  35.921  25.376  11.058
49981W        W18199   2.915  10.956   0.371
49982W        W18200  38.512  31.944   3.699
49983W        W18201   2.968  14.233   1.903
49984W        W18202  10.079   2.349  12.143
49985W        W18203  22.621   8.001  14.893
49986W        W18204  11.462  10.578   1.114
49987W        W18205   9.342   5.133  13.536
49988W        W18206  13.792  28.699  11.475
49989W        W18207  14.603  10.216  14.339
49990W        W18208  39.825  35.325   0.755
49991W        W18209  27.498  28.934   2.726
49992W        W18210  31.877  10.747   1.886
49993W        W18211  12.573  16.709  14.864
49994W        W18212   3.204  44.919   3.660
49995W        W18213  19.857  43.993   2.868
49996W        W18214  25.262   7.248   4.148
49997W        W18215  27.528  22.535   0.362
49998W        W18216  15.988  30.415  10.733
49999W        W18217  28.939  36.587   0.703
50000W        W18218  38.869  18.173   2.858
50001W        W18219  12.105  43.091   2.476
50002W        W18220   7.147  28.401  13.441
50003W        W18221  32.559  15.609  12.457
50004W        W18222  39.393  33.864  11.181
50005W        W18223  21.803   7.328  11.836
50006W        W18224   8.245  36.323   2.385
50007W        W18225  13.495  25.322   1.250
50008W        W18226  43.781  41.720  12.385
50009W        W18227  28.143  28.650   4.213
50010W        W18228  22.676  37.976   0.116
50011W        W18229  42.890   1.754   0.451
50012W        W18230  27.385   3.993   3.082
50013W        W18231  43.443  10.045   3.145
50014W        W18232  41.859  12.766   3.988
50015W        W18233  41.014   1.710   4.672
50016W        W18234  22.105  26.062  13.320
50017W        W18235  18.077   9.261  13.381
50018W        W18236  22.253  14.434   3.801
50019W        W18237  11.429  42.404   4.024
50020W        W18238  42.682  32.504   2.882
50021W        W18239  33.924  14.548  11.976
50022W        W18240  19.009  43.717   2.760
50023W        W18241  25.258  34.291   2.294
50024W        W18242  35.870  22.448  13.400
50025W        W18243  30.736   7.635  11.824
50026W        W18244  29.698   3.207   1.436
50027W        W18245  12.214  21.330   4.994
50028W        W18246  35.508  35.999  13.482
50029W        W18247  41.794   2.418   1.285
50030W        W18248   6.313   4.897   3.178
50031W        W18249  38.805  31.585   0.288
50032W        W18250  30.476  15.292  10.897
50033W        W18251  36.348  28.702   0.854
50034W        W18252  33.155   3.164  14.369
50035W        W18253   2.861  14.016   3.686
50036W        W18254  37.112  39.573   3.153
50037W        W18255   4.234  37.968   3.682
50038W        W18256  40.402  42.594   3.596
50039W        W18257  39.096  21.231   0.706
50040W        W18258  10.482  22.257   2.904
50041W        W18259  12.230   0.971  14.503
50042W        W18260  40.523  26.657   4.568
50043W        W18261   9.202  14.697   9.706
50044W        W18262  11.430  30.572  11.859
50045W        W18263  29.662   7.769  13.462
50046W        W18264   5.619  29.592   2.717
50047W        W18265  15.997  24.098   1.348
50048W        W18266  38.160  43.113   0.749
50049W        W18267  40.230  24.129  14.811
50050W        W18268   2.565  35.948   2.316
50051W        W18269  38.824  22.461  11.252
50052W        W18270  21.657   4.371  14.507
50053W        W18271  20.867  36.380   0.313
50054W        W18272   8.016  34.070  11.561
50055W        W18273  40.648   6.700   2.681
50056W        W18274  43.780  21.206   2.190
50057W        W18275  43.357  37.092  11.935
50058W        W18276   1.919  27.059   4.320
50059W        W18277  25.511  30.894  14.123
50060W        W18278   6.646  21.558  11.025
50061W        W18279  19.545   3.465   0.021
50062W        W18280  34.594   0.981  14.832
50063W        W18281  27.553  40.045  10.691
50064W        W18282   0.710  40.927   3.615
50065W        W18283  37.364  34.420  13.460
50066W        W18284  44.458  24.732  10.632
50067W        W18285  43.364  34.995  11.154
50068W        W18286   0.038  36.096   0.522
50069W        W18287  28.680   9.398  13.580
50070W        W18288  42.066  41.826  14.051
50071W        W18289  44.375  28.845   1.433
50072W        W18290  41.969  12.829  12.152
50073W        W18291  39.364  42.322  13.791
50074W        W18292  44.291  23.251  10.865
50075W        W18293  18.070  33.524   0.837
50076W        W18294  16.015  42.524  12.380
50077W        W18295  17.557  12.770   3.825
50078W        W18296  22.802  24.260  14.740
50079W        W18297  34.955  15.996  12.365
50080W        W18298  42.098   1.135  14.462
50081W        W18299  32.870   8.958  11.213
50082W        W18300  14.726   3.371   2.763
50083W        W18301  21.961   6.890  10.697
50084W        W18302  22.677   5.499  11.106
50085W        W18303  14.284  15.373   3.226
50086W        W18304  27.079  35.488  13.515
50087W        W18305   6.671  17.278  13.162
50088W        W18306   9.255  28.627  13.457
50089W        W18307   8.320  19.186   1.520
50090W        W18308  38.981  23.999  14.367
50091W        W18309  37.801   9.618  10.577
50092W        W18310  33.609  37.270  13.238
50093W        W18311   3.844  21.001  13.461
50094W        W18312  10.718  38.474  14.359
50095W        W18313  22.729  27.367   2.710
50096W        W18314   1.234  20.084  12.527
50097W        W18315  11.219  31.410  11.119
50098W        W18316  19.697  36.816   4.640
50099W        W18317   8.847  32.925   3.312
50100W        W18318  19.749   8.793  14.436
50101W        W18319  13.111  33.307  13.328
50102W        W18320   9.887  26.496  12.537
50103W        W18321  30.420  39.298  13.253
50104W        W18322   9.459  36.320   0.436
50105W        W18323  20.259  38.350  14.409
50106W        W18324  18.572   8.893  14.044
50107W        W18325   3.883  20.083  10.578
50108W        W18326  16.740  37.001   0.228
50109W        W18327  24.138  31.988   2.185
50110W        W18328  17.705   9.762   3.729
50111W        W18329  31.416   5.182  13.938
50112W        W18330  38.488  43.438  13.830
50113W        W18331  38.294  12.654   4.402
50114W        W18332  39.778  16.652   0.253
50115W        W18333   7.635  12.734  14.770
50116W        W18334  27.931   8.771  10.478
50117W        W18335   1.719  29.527  14.741
50118W        W18336  16.284  31.666   2.256
50119W        W18337   3.216  41.291  11.018
50120W        W18338  31.641  14.010  14.799
50121W        W18339  24.268   1.631   3.604
50122W        W18340  27.949  26.550  12.446
50123W        W18341  11.616  19.072  11.154
50124W        W18342  39.325  36.683   3.639
50125W        W18343  43.856   3.490   1.425
50126W        W18344  42.434  43.004  12.525
50127W        W18345  22.458   8.370   1.329
50128W        W18346  28.890  16.531  13.040
50129W        W18347   0.181  25.072   2.255
50130W        W18348  36.092   4.809   4.292
50131W        W18349  21.949  40.421   1.703
50132W        W18350  17.145   7.397  12.836
50133W        W18351  22.453  29.565  12.441
50134W        W18352  42.849   5.779   4.148
50135W        W18353  39.023  27.572  13.525
50136W        W18354  16.230   0.988   5.062
50137W        W18355  13.935  35.886   2.379
50138W        W18356  25.512  14.216  12.168
50139W        W18357  41.891  34.934   2.850
50140W        W18358  11.654   8.495  10.561
50141W        W18359  13.202  31.952  13.980
50142W        W18360   2.844  22.029   4.292
50143W        W18361   6.996  11.784   3.886
50144W        W18362  14.711  19.846  13.385
50145W        W18363  35.138  27.177   2.839
50146W        W18364   1.236  16.917   3.704
50147W        W18365  18.847  26.648   1.908
50148W        W18366  42.182   5.874  11.226
50149W        W18367   4.716  23.046  10.848
50150W        W18368  39.925  42.478   0.850
50151W        W18369  24.970  12.718   4.380
50152W        W18370  20.064  13.425  12.426
50153W        W18371   0.198   5.436   0.337
50154W        W18372  37.875  41.765  11.251
50155W        W18373   6.712  29.388   4.526
50156W        W18374  43.290  31.235   0.775
50157W        W18375  36.119   1.765  12.911
50158W        W18376   8.787  15.722   3.789
50159W        W18377  31.505  12.871  12.820
50160W        W18378   8.158   7.071   4.215
50161W        W18379  17.597  32.471   4.641
50162W        W18380  35.001  12.739  11.290
50163W        W18381  37.827  43.330  11.141
50164W        W18382  28.175  17.583  11.105
50165W        W18383  40.227   6.190  13.362
50166W        W18384  33.985  38.516   4.801
50167W        W18385  10.252   8.940   3.604
50168W        W18386   2.321  17.525  12.602
50169W        W18387   7.877  44.547   1.918
50170W        W18388   5.053  34.407   0.737
50171W        W18389  13.837   6.756   3.622
50172W        W18390  18.206  14.029   4.015
50173W        W18391  44.899  14.802  10.709
50174W        W18392  41.129  20.217   2.314
50175W        W18393  34.398  20.367  14.716
50176W        W18394  33.203  15.320   0.438
50177W        W18395  44.684   8.616  13.479
50178W        W18396  25.629  20.229   1.620
50179W        W18397  43.531  27.749   3.214
50180W        W18398  41.945  36.379  11.620
50181W        W18399  16.741  28.087  11.846
50182W        W18400  11.340  15.280  11.511
50183W        W18401  24.532  36.950   1.961
50184W        W18402  14.413  44.757   1.229
50185W        W18403   1.201   1.473  14.835
50186W        W18404  16.611  16.028  12.428
50187W        W18405  17.785   7.233  14.407
50188W        W18406  12.109  24.713   2.157
50189W        W18407  18.974   5.589   3.074
50190W        W18408  15.289  21.771   2.689
50191W        W18409  36.584  33.791  13.453
50192W        W18410   3.392  34.641  10.999
50193W        W18411   9.730  11.355  12.057
50194W        W18412  14.192  20.846   3.255
50195W        W18413  26.320   7.745   1.764
50196W        W18414  10.742  26.412   5.003
50197W        W18415   9.619  27.541   1.446
50198W        W18416  29.762  37.333  14.828
50199W        W18417  34.040   1.748  10.949
50200W        W18418   9.682  26.981   1.748
50201W        W18419  42.629  21.333  14.831
50202W        W18420  34.089  22.795   1.822
50203W        W18421  30.503  21.297   2.833
50204W        W18422  22.255  37.479  13.455
50205W        W18423  34.693  32.365   1.020
50206W        W18424  19.427  16.098   1.881
50207W        W18425  38.470  11.285   4.201
50208W        W18426  11.696   4.265   4.132
50209W        W18427  22.166  17.872  13.456
50210W        W18428  42.022  30.445   1.913
50211W        W18429  25.031  38.932   2.140
50212W        W18430   1.586  40.055  12.099
50213W        W18431  15.798   1.476  12.985
50214W        W18432  22.823   1.274   4.584
50215W        W18433   9.443  10.109   1.904
50216W        W18434   2.906  12.159  14.964
50217W        W18435   2.192   9.911   2.362
50218W        W18436  15.006  31.136   3.547
50219W        W18437   0.265  20.719  14.493
50220W        W18438  10.547   7.313   1.766
50221W        W18439   8.710  38.846   0.814
50222W        W18440  36.555  35.164  11.130
50223W        W18441  28.646  27.897  11.803
50224W        W18442  40.551  28.378  13.771
50225W        W18443  29.137  10.267  10.743
50226W        W18444  19.836   0.934  11.544
50227W        W18445   3.945  44.050  11.639
50228W        W18446  39.488  43.589   4.297
50229W        W18447   1.886  12.638  13.532
50230W        W18448  11.104  36.065  13.085
50231W        W18449   0.961  19.047   4.250
50232W        W18450   9.597  30.904   3.730
50233W        W18451  37.575   4.966  14.103
50234W        W18452  37.772  37.413  12.991
50235W        W18453   5.787   5.229   0.454
50236W        W18454  35.400  44.835   3.546
50237W        W18455  31.613  21.240  10.094
50238W        W18456   6.170  34.118   1.932
50239W        W18457  33.403  34.945   5.004
50240W        W18458   3.000  12.666  11.076
50241W        W18459  35.692  18.767  12.624
50242W        W18460  13.201  20.326  14.330
50243W        W18461  33.313   5.197  14.787
50244W        W18462  44.821  16.244  13.460
50245W        W18463  31.619   4.577   0.270
50246W        W18464  30.158  28.990   1.342
50247W        W18465   5.648  21.246  11.044
50248W        W18466  37.474   4.065   3.652
50249W        W18467  16.109  11.628   4.931
50250W        W18468  41.828  36.884   4.255
50251W        W18469  24.212  25.587   0.768
50252W        W18470  35.394  11.429  13.355
50253W        W18471  43.904  14.039   4.074
50254W        W18472  33.153  39.285   4.156
50255W        W18473  40.623  33.352  12.149
50256W        W18474   6.240   2.384  13.244
50257W        W18475  18.139   5.248   1.220
50258W        W18476  17.333  30.941  13.816
50259W        W18477  43.136  27.997  14.885
50260W        W18478   3.721  12.657   4.482
50261W        W18479   4.298  35.111   4.719
50262W        W18480   2.499  14.644   3.641
50263W        W18481  25.343  18.443  11.110
50264W        W18482  43.816   9.875   4.702
50265W        W18483  40.046  32.980  13.551
50266W        W18484   7.839  12.756   0.226
50267W        W18485  16.054   6.330  11.043
50268W        W18486  32.109  14.725  13.554
50269W        W18487  36.925   6.931   2.154
50270W        W18488  24.706  13.590  12.848
50271W        W18489  38.852  20.431   2.658
50272W        W18490   0.520   8.069  11.527
50273W        W18491   4.268  22.077  10.410
50274W        W18492  10.893  42.794   2.903
50275W        W18493  25.934  32.573   0.408
50276W        W18494   8.354  13.872  11.622
50277W        W18495  29.130  13.404   3.983
50278W        W18496  32.922  43.374  12.077
50279W        W18497  41.889  36.805   1.850
50280W        W18498  11.535  34.213  12.000
50281W        W18499  30.483  41.797  12.835
50282W        W18500  11.859  13.281  14.570
50283W        W18501  32.838   0.975   2.207
50284W        W18502  35.155  40.991   2.287
50285W        W18503  28.026  19.732  13.200
50286W        W18504  33.557  28.536   4.454
50287W        W18505  26.671  32.913   9.868
50288W        W18506  41.436  36.573   1.753
50289W        W18507  25.167  44.939  13.837
50290W        W18508   2.499  24.414   4.628
50291W        W18509   9.351  29.618  12.442
50292W        W18510  20.249  16.796   0.453
50293W        W18511  10.803  16.775   2.937
50294W        W18512  22.224  44.472   4.556
50295W        W18513   4.511  36.548  12.971
50296W        W18514  29.223  35.948   2.956
50297W        W18515   9.301  39.549   4.112
50298W        W18516   8.674  28.736   2.343
50299W        W18517  32.003   1.329   2.053
50300W        W18518  39.317  33.357   1.798
50301W        W18519  29.181  17.740   4.232
50302W        W18520  24.902  12.411  11.055
50303W        W18521  44.223  24.816   0.835
50304W        W18522  18.156  42.851   4.088
50305W        W18523  20.585  22.777   4.612
50306W        W18524  35.701   9.195   1.875
50307W        W18525  16.654  27.351   2.231
50308W        W18526  35.989   3.336   4.549
50309W        W18527  23.056  38.006  10.695
50310W        W18528  39.114  29.691  13.027
50311W        W18529  32.686   6.205   4.287
50312W        W18530  39.635  28.997  14.473
50313W        W18531  11.710  30.496   4.559
50314W        W18532  34.964  15.345   1.702
50315W        W18533  39.822  27.940   3.222
50316W        W18534  18.659   4.372  14.372
50317W        W18535  33.930  12.353   0.416
50318W        W18536   2.582  31.651  10.359
50319W        W18537  21.476  21.276   1.190
50320W        W18538  34.509   0.275   0.374
50321W        W18539  20.463  28.479  12.401
50322W        W18540  24.697  27.879  12.040
50323W        W18541  33.282  29.594   9.906
50324W        W18542  23.053  14.468   2.818
50325W        W18543  26.180   0.768  14.805
50326W        W18544  25.882  43.932   2.718
50327W        W18545  11.833  39.247   4.220
50328W        W18546  28.118  36.295   1.769
50329W        W18547   5.505  30.139   3.281
50330W        W18548   3.870  28.912   1.209
50331W        W18549   3.656  30.122  13.021
50332W        W18550  26.101  34.099   4.158
50333W        W18551   9.089  39.530  10.761
50334W        W18552  44.723  39.793  11.599
50335W        W18553  44.603  18.142   1.800
50336W        W18554  23.544  24.942   3.102
50337W        W18555  40.898  13.360  13.078
50338W        W18556   9.266  33.248  14.996
50339W        W18557   6.448  40.457   4.253
50340W        W18558  18.136   9.904  12.955
50341W        W18559  37.921  19.336  11.888
50342W        W18560   5.085   1.920  12.861
50343W        W18561   1.787  29.988   0.388
50344W        W18562  16.152  11.633   4.407
50345W        W18563  27.571  12.622  13.017
50346W        W18564   6.321  10.715  13.236
50347W        W18565   5.005  30.503  11.463
50348W        W18566  16.181  18.350  14.041
50349W        W18567  33.364  29.415   0.753
50350W        W18568  30.503   6.445   1.827
50351W        W18569  14.773  40.491   4.141
50352W        W18570  11.849   1.416   2.092
50353W        W18571  21.112  14.223   1.912
50354W        W18572   1.176  43.837  13.031
50355W        W18573  28.622  25.109   1.915
50356W        W18574   9.166  39.019  12.064
50357W        W18575  13.996  42.294  12.012
50358W        W18576  34.631  17.837   4.647
50359W        W18577  35.883  12.531  13.410
50360W        W18578  18.668  18.734   2.671
50361W        W18579  20.205  30.905   3.616
50362W        W18580  33.412   7.615   4.686
50363W        W18581  24.128  39.470   4.559
50364W        W18582  27.747  35.280   0.848
50365W        W18583  38.902  17.256  12.665
50366W        W18584   2.979  20.687   1.413
50367W        W18585   4.019  14.167  14.371
50368W        W18586  10.327  23.022   1.687
50369W        W18587  13.224   0.085   3.646
50370W        W18588   0.402  25.722  13.989
50371W        W18589  11.598   0.478   1.273
50372W        W18590  40.219  36.524  10.790
50373W        W18591  16.741  29.414  14.936
50374W        W18592  42.063  35.367   1.527
50375W        W18593   7.942  41.948   0.534
50376W        W18594   3.883   5.018   3.752
50377W        W18595  27.189   1.962   0.515
50378W        W18596   9.694  25.737  13.609
50379W        W18597  16.629  44.519  13.523
50380W        W18598   0.935  24.115   1.107
50381W        W18599   9.425  15.987   3.198
50382W        W18600   9.887  38.818   1.872
50383W        W18601  44.274  38.825  13.803
50384W        W18602  15.901  40.108   0.582
50385W        W18603  27.991  21.189  11.007
50386W        W18604  12.882  42.783   0.209
50387W        W18605  28.657  13.028  10.202
50388W        W18606  15.652  18.286  13.338
50389W        W18607  18.435  27.947   4.155
50390W        W18608  38.833   5.958   4.119
50391W        W18609  13.170  27.659   2.246
50392W        W18610  31.637   8.122   0.378
50393W        W18611  20.522  43.813   1.531
50394W        W18612  44.431  36.310  13.878
50395W        W18613  34.126  12.559  11.986
50396W        W18614   8.519  32.920   4.047
50397W        W18615  32.389  18.220  14.321
50398W        W18616  26.742  19.931  12.216
50399W        W18617  42.879  41.536  12.350
50400W        W18618  34.332   7.126   2.284
50401W        W18619  25.657   4.448   0.564
50402W        W18620   9.812  25.113   1.250
50403W        W18621   9.656  18.984   2.801
50404W        W18622  25.059  21.056   3.874
50405W        W18623   6.125  32.367  10.450
50406W        W18624  34.442  31.234  13.424
50407W        W18625  38.464  40.108   2.331
50408W        W18626  33.809   5.625   1.970
50409W        W18627  23.234  22.513  14.885
50410W        W18628   6.717  26.398   2.685
50411W        W18629  36.600   1.734  13.102
50412W        W18630   1.528  13.611  13.250
50413W        W18631  20.759  42.070   4.265
50414W        W18632  19.130   1.977   4.282
50415W        W18633  27.472   2.472  10.717
50416W        W18634   1.546  27.969   2.473
50417W        W18635  14.268   9.136  11.645
50418W        W18636   0.086   7.970  14.591
50419W        W18637  13.168  35.921   1.169
50420W        W18638  28.556  25.054  13.040
50421W        W18639   9.706  19.301  13.507
50422W        W18640  31.122  21.401  14.880
50423W        W18641  22.697   5.798  13.048
50424W        W18642  37.584  29.345   2.669
50425W        W18643   0.708   4.916   1.235
50426W        W18644  26.520  22.707   3.660
50427W        W18645  10.672  44.401   1.136
50428W        W18646  18.077  34.708  10.477
50429W        W18647   3.478   9.630   2.931
50430W        W18648  28.661  21.196  14.264
50431W        W18649   2.951  40.867  11.129
50432W        W18650  26.046  11.427  14.345
50433W        W18651   9.429   0.879   1.492
50434W        W18652  36.869  35.606   4.575
50435W        W18653  26.451  21.045  10.655
50436W        W18654  12.235   1.392   1.021
50437W        W18655  34.558  39.494  12.314
50438W        W18656  25.997   7.146  10.585
50439W        W18657  40.966  10.656   1.741
50440W        W18658   7.789   0.814  10.595
50441W        W18659  30.672  16.617   1.218
50442W        W18660  38.426   0.638   4.143
50443W        W18661  36.371  31.930  10.608
50444W        W18662  40.609   3.257   3.094
50445W        W18663  32.157  29.181   4.204
50446W        W18664  41.452  35.865  10.917
50447W        W18665   6.966   7.224   3.673
50448W        W18666  22.202   0.797  14.495
50449W        W18667  43.331   4.533   0.155
50450W        W18668  14.759   1.413  13.836
50451W        W18669  14.557  35.611  14.813
50452W        W18670  38.358   1.293  14.437
50453W        W18671  32.379  44.337  10.270
50454W        W18672  25.231  16.627  13.491
50455W        W18673  43.358  41.044   4.528
50456W        W18674  39.862  41.248  11.706
50457W        W18675  31.632  31.477   1.008
50458W        W18676  10.937  17.564   5.031
50459W        W18677   5.715  32.020  11.132
50460W        W18678  13.829  32.387  13.403
50461W        W18679  35.504   2.188   0.452
50462W        W18680  40.414  24.608  14.701
50463W        W18681   2.023  35.051   0.883
50464W        W18682  29.422  26.063  14.015
50465W        W18683  42.131  34.087   4.778
50466W        W18684  24.186  41.593  11.200
50467W        W18685  37.659   9.066   0.374
50468W        W18686  31.484  32.859   0.154
50469W        W18687  43.308  13.971  13.039
50470W        W18688  21.269  13.246  10.943
50471W        W18689  32.432  42.957  14.301
50472W        W18690   2.919  30.015   0.081
50473W        W18691  13.357  37.974  11.633
50474W        W18692   1.729   0.364  11.665
50475W        W18693   3.916   1.816  14.752
50476W        W18694  15.636  10.921  14.370
50477W        W18695  21.249   0.771   1.691
50478W        W18696  38.824  15.254  14.259
50479W        W18697   7.265   0.720   3.416
50480W        W18698  37.113  11.599   0.014
50481W        W18699  30.553  44.893   0.466
50482W        W18700  13.369  28.126   2.211
50483W        W18701   7.736  35.836  11.726
50484W        W18702  38.532  13.263  10.741
50485W        W18703  39.916  41.807  11.604
50486W        W18704  32.082  16.517   1.372
50487W        W18705   8.644  32.504   4.350
50488W        W18706   8.241  19.307   2.420
50489W        W18707   0.344  28.436   3.280
50490W        W18708  43.598   3.736  14.383
50491W        W18709   5.451  22.917   4.179
50492W        W18710  11.734  30.958  10.512
50493W        W18711  35.822   8.814   0.338
50494W        W18712  12.267   4.661   3.674
50495W        W18713  37.971  26.635  10.441
50496W        W18714  35.510   5.372  10.768
50497W        W18715  40.999  22.607  14.143
50498W        W18716  25.378  23.239  14.864
50499W        W18717  27.319  27.718  10.534
50500W        W18718  34.829   1.115  12.876
50501W        W18719  18.149   9.659   1.476
50502W        W18720  43.079  24.106   1.458
50503W        W18721  14.234  11.328  12.070
50504W        W18722  34.360  12.334  11.562
50505W        W18723  14.854   5.726   1.903
50506W        W18724  33.164  13.127  14.251
50507W        W18725  12.382  10.863  14.934
50508W        W18726   3.028  12.309   4.114
50509W        W18727   9.676   6.873   3.167
50510W        W18728  16.222   4.544  12.199
50511W        W18729  24.972  30.996   3.552
50512W        W18730  27.943  19.930  13.991
50513W        W18731  25.121   6.081   5.131
50514W        W18732  17.497  18.783  14.507
50515W        W18733  23.664  20.525   0.889
50516W        W18734  27.552  12.193  12.753
50517W        W18735   7.164  27.447  14.428
50518W        W18736  38.657  15.770  12.380
50519W        W18737  12.906  20.160   1.538
50520W        W18738  38.255   0.857  13.167
50521W        W18739  41.281   1.941  12.894
50522W        W18740  18.814  41.313   2.800
50523W        W18741   4.437  31.281   0.836
50524W        W18742  33.949   2.881  14.031
50525W        W18743  43.010  10.247  14.278
50526W        W18744  10.741  24.766  11.976
50527W        W18745   3.331  26.143   4.478
50528W        W18746  42.740   4.836  11.557
50529W        W18747   4.694  30.158  11.648
50530W        W18748  41.889  34.582  10.529
50531W        W18749  38.949  20.014  11.513
50532W        W18750  33.152  28.354  11.707
50533W        W18751  37.094   7.477   3.602
50534W        W18752   3.373  44.487   3.890
50535W        W18753  10.441  12.207   2.196
50536W        W18754  43.919   4.475   4.311
50537W        W18755  39.533   5.646  13.764
50538W        W18756  35.869  36.546  13.237
50539W        W18757  21.541  25.119   4.828
50540W        W18758  22.682   5.267   4.735
50541W        W18759   0.253   3.725   2.866
50542W        W18760  16.694  23.302   2.202
50543W        W18761   8.213  37.644   2.687
50544W        W18762   8.249  44.809  11.159
50545W        W18763  44.999  17.450   2.225
50546W        W18764   5.680   3.377  11.411
50547W        W18765  15.804  38.290   0.788
50548W        W18766  15.535  41.956   2.721
50549W        W18767  34.589  44.630  14.536
50550W        W18768   0.467  35.436   2.333
50551W        W18769  26.673  40.286   3.145
50552W        W18770   7.636  41.245  12.062
50553W        W18771   7.456  17.822   3.795
50554W        W18772  18.151  34.272  10.719
50555W        W18773  21.849  36.525   4.374
50556W        W18774  13.344   6.088  11.321
50557W        W18775  44.296  17.158   1.301
50558W        W18776  23.131  35.325  11.876
50559W        W18777   8.739  25.731  14.440
50560W        W18778  10.255  42.261   0.277
50561W        W18779   9.896  28.617  11.659
50562W        W18780  10.369   9.230  11.438
50563W        W18781  11.334  43.381  14.718
50564W        W18782  13.261  31.201  12.596
50565W        W18783  17.311   7.314  13.828
50566W        W18784   0.253   6.364  14.418
50567W        W18785  28.734   6.166  12.541
50568W        W18786   8.358  23.611  13.421
50569W        W18787  25.341   1.989  13.446
50570W        W18788  14.341  29.010   4.653
50571W        W18789   3.295  22.452   3.693
50572W        W18790  40.405  44.511  12.033
50573W        W18791  16.795   7.806  12.062
50574W        W18792  10.022  18.467   4.893
50575W        W18793  43.406  34.724  14.015
50576W        W18794   2.330  38.467   0.423
50577W        W18795  32.075  11.143  13.610
50578W        W18796  21.954  41.870  13.335
50579W        W18797  21.229  37.943   4.875
50580W        W18798  23.765  42.182   0.422
50581W        W18799  15.253  21.142   0.228
50582W        W18800  33.637  16.278   2.352
50583W        W18801  31.627  25.149  13.240
50584W        W18802  22.273   3.142   1.700
50585W        W18803  34.009   8.676  11.662
50586W        W18804   4.178  21.528   2.367
50587W        W18805  38.634  11.853   5.075
50588W        W18806  39.744  42.207   4.095
50589W        W18807   6.207   4.009  11.520
50590W        W18808  16.778  15.762   3.262
50591W        W18809   2.836  41.550  14.980
50592W        W18810  20.172  22.513  10.228
50593W        W18811  32.206   7.701   2.366
50594W        W18812  35.840  37.088   1.475
50595W        W18813  13.445  44.405  12.362
50596W        W18814  31.690   6.156   9.693
50597W        W18815  38.837  38.060  11.835
50598W        W18816  40.570  33.930   2.151
50599W        W18817  24.256   3.417  14.332
50600W        W18818  36.005   4.184   4.541
50601W        W18819  16.802  38.393   2.652
50602W        W18820  44.995  33.019  13.369
50603W        W18821   2.865  38.563   3.716
50604W        W18822   0.775  11.128  10.678
50605W        W18823  31.502  30.104  14.901
50606W        W18824  38.010  16.648   0.327
50607W        W18825  37.570  28.832  12.598
50608W        W18826  10.887   6.634   4.574
50609W        W18827   7.201  25.041  14.739
50610W        W18828   5.833  38.344   1.969
50611W        W18829  34.968   3.783   2.203
50612W        W18830  34.309  44.711   1.261
50613W        W18831  25.839  30.857  14.529
50614W        W18832  22.080  33.989   2.191
50615W        W18833  31.632  29.135   2.823
50616W        W18834  34.623  37.564  12.408
50617W        W18835  22.780  29.465   0.425
50618W        W18836  26.163   9.686  13.558
50619W        W18837  34.165  44.957   4.456
50620W        W18838  24.145  27.077  13.301
50621W        W18839  42.435  33.431   2.208
50622W        W18840   5.437  27.194  13.099
50623W        W18841  38.541   4.820  11.458
50624W        W18842  44.211  35.241  13.896
50625W        W18843  14.777  34.481  13.955
50626W        W18844   4.339  32.036  14.917
50627W        W18845  34.319  23.368  10.740
50628W        W18846   9.077  29.387   4.285
50629W        W18847  13.537  33.107   2.366
50630W        W18848   6.331  30.608   2.157
50631W        W18849  17.636  28.553  11.974
50632W        W18850  35.008  34.042   4.002
50633W        W18851   9.760  22.217  12.063
50634W        W18852  19.427  19.195   2.654
50635W        W18853  15.294   3.244   5.094
50636W        W18854  36.479  35.575  13.892
50637W        W18855  42.408  43.139   3.032
50638W        W18856  19.759  35.392   3.151
50639W        W18857  42.746  26.370   1.366
50640W        W18858  26.431  28.419  11.583
50641W        W18859  33.214  16.585  12.144
50642W        W18860  44.175   8.649  11.513
50643W        W18861  26.847   5.758  10.523
50644W        W18862   5.186  33.065  11.478
50645W        W18863  37.806   1.473  13.823
50646W        W18864   1.291   1.005  12.418
50647W        W18865  28.956  39.976  14.965
50648W        W18866  33.879  10.608   4.947
50649W        W18867  24.581   2.993   4.715
50650W        W18868  29.698  20.666  12.875
50651W        W18869  14.258  10.384  13.985
50652W        W18870  23.972  44.530  12.551
50653W        W18871  29.487  19.058   1.923
50654W        W18872  17.711  19.809  13.830
50655W        W18873  27.887  21.101   2.452
50656W        W18874  39.646   4.840   4.601
50657W        W18875   0.427  35.857   0.282
50658W        W18876  31.958  15.220   0.481
50659W        W18877  32.595  26.470  14.460
50660W        W18878  20.681  20.767  13.836
50661W        W18879   8.641  18.142  12.099
50662W        W18880  33.825  39.407  11.094
50663W        W18881  40.841   2.220  13.646
50664W        W18882  17.112  42.971   5.025
50665W        W18883  11.112  28.140   0.800
50666W        W18884  35.725   0.475  12.448
50667W        W18885  12.848  33.184  14.289
50668W        W18886  20.262  44.575  12.941
50669W        W18887   5.952   0.348  13.306
50670W        W18888  31.049  17.815   1.005
50671W        W18889  44.111  33.791  11.574
50672W        W18890  36.642  37.678  11.145
50673W        W18891  17.697  37.501  10.640
50674W        W18892  25.227  10.592  13.856
50675W        W18893  22.780  29.640  11.091
50676W        W18894  37.761  10.226   3.169
50677W        W18895  32.665  44.792   4.333
50678W        W18896   5.627  39.817  13.461
50679W        W18897  21.537  40.873  11.098
50680W        W18898   2.225  19.790  11.136
50681W        W18899  17.593  25.193  11.005
50682W        W18900  23.054  42.747  13.908
50683W        W18901   0.928  22.171  10.977
50684W        W18902  15.332  31.515   0.420
50685W        W18903  41.799  42.545   3.660
50686W        W18904  35.867  31.138   4.190
50687W        W18905   4.611  27.400  10.233
50688W        W18906  15.844  37.087   0.107
50689W        W18907  39.449  18.072  13.117
50690W        W18908  27.610  10.772  10.665
50691W        W18909  40.245  19.161  13.286
50692W        W18910  38.485  33.368  14.330
50693W        W18911  31.982  12.872   2.664
50694W        W18912  33.383  42.805   0.395
50695W        W18913   3.839  36.072   4.096
50696W        W18914  37.893   0.375   2.858
50697W        W18915   4.922   2.372   1.740
50698W        W18916  38.967  32.450  12.921
50699W        W18917   7.474  23.090  11.104
50700W        W18918  26.674  36.693   2.071
50701W        W18919   1.757   6.740  11.569
50702W        W18920   3.774  41.286   0.017
50703W        W18921  12.427  16.827  10.987
50704W        W18922  35.323  29.984   2.223
50705W        W18923  10.096  26.060  11.688
50706W        W18924  35.665  10.236  11.993
50707W        W18925   5.155   0.234   2.251
50708W        W18926  36.494  43.064  12.026
50709W        W18927  41.336  15.265  12.167
50710W        W18928  35.407  21.519  11.157
50711W        W18929  10.671  26.884  11.607
50712W        W18930  34.500  26.659   4.083
50713W        W18931   2.735   1.997   0.778
50714W        W18932  34.030  20.170   4.400
50715W        W18933  15.502  23.996  13.508
50716W        W18934  33.861  40.528  12.790
50717W        W18935  12.862  21.661  10.642
50718W        W18936   9.193  36.462   2.306
50719W        W18937  43.799  15.034   1.509
50720W        W18938  23.040   2.459  13.527
50721W        W18939  28.007  22.215  11.784
50722W        W18940  19.174  10.572   0.324
50723W        W18941  31.060  34.149   4.624
50724W        W18942  14.242  42.096  10.251
50725W        W18943  36.657  39.257   3.240
50726W        W18944  39.980  35.968  13.465
50727W        W18945  40.579  23.039   1.851
50728W        W18946  15.305   0.521  11.951
50729W        W18947  30.829   1.408   2.311
50730W        W18948  17.662  22.212   2.840
50731W        W18949  14.852  21.390  14.984
50732W        W18950  22.121  19.850  11.539
50733W        W18951  27.011  26.746   0.358
50734W        W18952  39.191  26.836   1.444
50735W        W18953  41.786  17.299   1.855
50736W        W18954  38.500  42.245  14.303
50737W        W18955  42.365  34.994  12.613
50738W        W18956  31.360   3.900  13.499
50739W        W18957  31.301  15.064  13.339
50740W        W18958  40.852  25.621  10.693
50741W        W18959  10.138  32.074   3.134
50742W        W18960  31.587  43.525  13.387
50743W        W18961  30.591  32.317  14.903
50744W        W18962   2.740  37.901   2.972
50745W        W18963  42.626  36.151  14.995
50746W        W18964  13.413  31.054  13.936
50747W        W18965  11.889  44.473  13.673
50748W        W18966  25.031  33.521   0.950
50749W        W18967  39.104  13.071   3.804
50750W        W18968  25.215   7.043  11.068
50751W        W18969  11.179  11.349   3.697
50752W        W18970  34.197  38.962  14.751
50753W        W18971  41.031   0.907  13.365
50754W        W18972  25.615   2.799  13.762
50755W        W18973  17.007  33.570   3.080
50756W        W18974   3.615  41.541  11.874
50757W        W18975  29.274  13.988   2.567
50758W        W18976   5.228  22.254   1.239
50759W        W18977  38.588  39.834  14.366
50760W        W18978   7.971  31.551  13.840
50761W        W18979  21.774  43.485   2.309
50762W        W18980  24.991  44.380  13.725
50763W        W18981  37.507  39.084   2.322
50764W        W18982  24.520  42.340  12.656
50765W        W18983  18.759  34.468  12.437
50766W        W18984  25.012  14.788   4.844
50767W        W18985  27.567  28.066  13.325
50768W        W18986   9.837   7.244  12.685
50769W        W18987  12.371   1.338   1.957
50770W        W18988  20.791  41.036   0.658
50771W        W18989  40.460  39.432   0.448
50772W        W18990   9.219  40.902  14.828
50773W        W18991  11.633  28.401   3.512
50774W        W18992  31.143  22.631  12.942
50775W        W18993   4.725   6.287  13.127
50776W        W18994   0.333  41.402  10.823
50777W        W18995  34.184  30.025  14.761
50778W        W18996   6.312  15.993  12.986
50779W        W18997   4.180   9.191  10.950
50780W        W18998   2.954  41.023  14.949
50781W        W18999  43.305  21.006  12.073
50782W        W19000  41.494   6.684   3.802
50783W        W19001  18.095   8.698   0.864
50784W        W19002   7.194   7.348   0.914
50785W        W19003  17.354  39.410  13.872
50786W        W19004  13.121   0.201  14.892
50787W        W19005   4.932   0.325  11.593
50788W        W19006  32.984  30.017   2.160
50789W        W19007  22.938  41.270  11.124
50790W        W19008   1.258  15.169   1.339
50791W        W19009   4.403  36.982   4.198
50792W        W19010  40.468  34.037  12.724
50793W        W19011  33.574   9.353  11.627
50794W        W19012  27.596  31.481   3.701
50795W        W19013  40.832  44.231  11.915
50796W        W19014  14.062  34.358  10.642
50797W        W19015  15.421  14.059   2.849
50798W        W19016   7.845  36.466   1.703
50799W        W19017  28.407  33.715  13.069
50800W        W19018  12.639  22.717   3.659
50801W        W19019  30.025  20.057   4.850
50802W        W19020  34.586  42.011  13.490
50803W        W19021  20.426  26.559  11.040
50804W        W19022  18.055  34.237  10.192
50805W        W19023  17.092  32.577  12.098
50806W        W19024  31.812   8.862  12.016
50807W        W19025   5.240  16.242  13.305
50808W        W19026  40.875  35.127  12.113
50809W        W19027  33.388  22.584  11.571
50810W        W19028  17.352  12.669  10.801
50811W        W19029  25.661  27.882   0.314
50812W        W19030  41.460   4.387   4.114
50813W        W19031   3.092  20.917  13.862
50814W        W19032   6.105  34.885  11.025
50815W        W19033   1.556  17.073  12.411
50816W        W19034   8.697  44.413   0.700
50817W        W19035  15.175  13.056  11.201
50818W        W19036  29.697  33.074  12.039
50819W        W19037  42.277  35.549  10.561
50820W        W19038  18.288  15.914   4.989
50821W        W19039  43.013  21.121  13.372
50822W        W19040   4.830   4.900  10.780
50823W        W19041  39.639   0.826  13.282
50824W        W19042  14.555  33.443   5.067
50825W        W19043  24.626  26.427   0.997
50826W        W19044  36.056   3.930  10.621
50827W        W19045  15.343  25.519  12.536
50828W        W19046  20.496  12.801   1.327
50829W        W19047  16.647  29.437   4.590
50830W        W19048  34.534  29.558   1.886
50831W        W19049  25.331   1.413  11.233
50832W        W19050  26.622   0.502  10.958
50833W        W19051  26.594  24.741  12.378
50834W        W19052   8.180  43.549  10.836
50835W        W19053  41.021  18.318   0.234
50836W        W19054   5.181   5.448  13.070
50837W        W19055   9.144   4.916  11.206
50838W        W19056  31.519  32.173   2.561
50839W        W19057  33.382   7.479  11.238
50840W        W19058  43.171  30.429   0.315
50841W        W19059  14.650   3.532  12.275
50842W        W19060   7.241  15.695   2.206
50843W        W19061  26.610  27.733  12.079
50844W        W19062  18.634   0.404  12.757
50845W        W19063   8.340  39.765   3.683
50846W        W19064  19.868  36.550   0.325
50847W        W19065  44.939  26.583  11.124
50848W        W19066  33.533  42.347   2.455
50849W        W19067  36.780  37.374  12.929
50850W        W19068   3.970  19.059  14.420
50851W        W19069   6.613  32.621   4.754
50852W        W19070  40.217  20.248   2.764
50853W        W19071  13.834   6.887  13.371
50854W        W19072  34.055  22.965   2.321
50855W        W19073  33.286   8.293  14.742
50856W        W19074  43.366  33.390  11.923
50857W        W19075  42.359  44.202   2.920
50858W        W19076   6.092  20.194   2.208
50859W        W19077  11.282  36.273   1.848
50860W        W19078   9.749  25.964  12.528
50861W        W19079  21.000  24.103  14.744
50862W        W19080  36.488  40.424   2.417
50863W        W19081  30.864  31.617   3.012
50864W        W19082  44.337   7.847   3.100
50865W        W19083  36.496  12.915   1.904
50866W        W19084  22.576  35.573   1.274
50867W        W19085  24.290  13.133  11.142
50868W        W19086  16.630   2.563   0.989
50869W        W19087  13.777  26.228   2.472
50870W        W19088  17.771  27.689  14.779
50871W        W19089   9.006  18.732   4.256
50872W        W19090  43.321  20.042  14.346
50873W        W19091  36.583  42.735  11.635
50874W        W19092  31.634  43.191  13.888
50875W        W19093  26.199  20.770   0.249
50876W        W19094  29.012  12.889  12.212
50877W        W19095  21.189  10.711  11.611
50878W        W19096  16.799  23.386  11.093
50879W        W19097  20.071  12.441   4.003
50880W        W19098   9.217  11.379  12.866
50881W        W19099  42.739  13.270   3.189
50882W        W19100  22.657   2.111  13.414
50883W        W19101   5.949   8.035  13.410
50884W        W19102  32.703  36.577   2.658
50885W        W19103  35.363  11.874   3.727
50886W        W19104  15.942  37.182   4.785
50887W        W19105  10.753   1.413   0.996
50888W        W19106   6.527  35.501   4.258
50889W        W19107  40.321  35.350   3.225
50890W        W19108  34.317  14.657   0.217
50891W        W19109   4.780  25.565  13.763
50892W        W19110   1.149   5.005   4.151
50893W        W19111  13.851  30.992   0.246
50894W        W19112   1.282  20.618  14.456
50895W        W19113  34.285  22.238  14.920
50896W        W19114  43.905  15.106  14.059
50897W        W19115   5.592  18.812  13.760
50898W        W19116  20.758  29.964   2.858
50899W        W19117  24.264   8.961   3.307
50900W        W19118  10.778  41.930  12.985
50901W        W19119  13.638  20.194   1.615
50902W        W19120   4.877  44.761  10.422
50903W        W19121  31.961   9.340   3.588
50904W        W19122  38.362  42.575  12.362
50905W        W19123  31.567  23.525   2.203
50906W        W19124  30.594  34.623   2.218
50907W        W19125   0.212  44.130  14.026
50908W        W19126  12.285   1.914   1.643
50909W        W19127  28.470  16.504  12.500
50910W        W19128  21.504  22.039   4.364
50911W        W19129  41.428  28.154  12.060
50912W        W19130  34.060  19.208  12.135
50913W        W19131   2.244  25.201  11.712
50914W        W19132  42.373   8.932  12.700
50915W        W19133  37.487  31.865   2.393
50916W        W19134  44.864  29.522  11.564
50917W        W19135   4.273  30.649   0.032
50918W        W19136  18.163  10.886  10.475
50919W        W19137  39.029  21.873  14.574
50920W        W19138  29.889  31.037   4.696
50921W        W19139  20.489  11.194  14.095
50922W        W19140  22.283  17.448  11.185
50923W        W19141  36.412   6.636  10.315
50924W        W19142  10.141   4.951   2.196
50925W        W19143  41.759   9.721  11.498
50926W        W19144  22.136  38.787   1.199
50927W        W19145  38.849  33.634  11.171
50928W        W19146   2.360  11.906   5.047
50929W        W19147  44.087   5.231   5.048
50930W        W19148   5.206  38.859  14.493
50931W        W19149  32.094   2.814  11.508
50932W        W19150  35.852  33.457  11.442
50933W        W19151  34.236  19.762   1.389
50934W        W19152  13.827   2.154   1.215
50935W        W19153  24.692   7.829   1.337
50936W        W19154  17.860  34.577  14.428
50937W        W19155  26.692  14.859  12.486
50938W        W19156  26.651   8.978  14.384
50939W        W19157   4.668  13.360   2.861
50940W        W19158   8.378   3.767  13.472
50941W        W19159  42.504  37.097  14.784
50942W        W19160  38.981  42.831   3.848
50943W        W19161  17.041   0.399   2.809
50944W        W19162  32.387  22.988  10.762
50945W        W19163  23.566  30.588  11.493
50946W        W19164   8.281  32.032   2.589
50947W        W19165  13.731  21.992   0.409
50948W        W19166  33.186  43.325   1.472
50949W        W19167  14.601  22.633   2.206
50950W        W19168  12.105   1.013   2.752
50951W        W19169   8.709  25.475  12.168
50952W        W19170  37.455  16.211   3.913
50953W        W19171  24.965  38.391  11.318
50954W        W19172   5.785  16.546   3.656
50955W        W19173  10.187   9.819   2.335
50956W        W19174  15.629   5.079   3.149
50957W        W19175  17.445  39.868   2.232
50958W        W19176  25.109  43.900   4.216
50959W        W19177  23.684  34.039   3.048
50960W        W19178  12.986  35.151   3.129
50961W        W19179  34.929  16.202  14.920
50962W        W19180  35.807  38.666   0.749
50963W        W19181  35.786  41.294  13.478
50964W        W19182  33.049  17.398  12.601
50965W        W19183   7.032  40.295  11.136
50966W        W19184   2.427   5.865   0.624
50967W        W19185  44.897  11.376   3.378
50968W        W19186   6.371  15.259   0.076
50969W        W19187  30.613  17.391   2.384
50970W        W19188  29.783  25.418   4.133
50971W        W19189   4.192   8.403   3.217
50972W        W19190  22.764  22.289  14.799
50973W        W19191  32.495   9.766   1.456
50974W        W19192  12.690  15.644  13.396
50975W        W19193   8.403  18.198   3.159
50976W        W19194  20.519  25.113   4.092
50977W        W19195  21.418  44.494   0.063
50978W        W19196   1.448  20.177   0.247
50979W        W19197   7.297  42.573  11.300
50980W        W19198  18.283  39.343  12.072
50981W        W19199   9.967  24.777  14.052
50982W        W19200   6.211  26.435  13.025
50983W        W19201  30.069  19.665  11.573
50984W        W19202  20.843   1.484  12.034
50985W        W19203  16.144  29.036   3.855
50986W        W19204   5.919   5.722  13.708
50987W        W19205  18.568  33.350  10.688
50988W        W19206  19.338  26.671  11.696
50989W        W19207  26.347  34.957   0.839
50990W        W19208  13.189  34.142   1.629
50991W        W19209  37.326   7.649   4.891
50992W        W19210  42.919  40.286   4.543
50993W        W19211   7.663  23.717   0.481
50994W        W19212  38.736  41.312   0.890
50995W        W19213   8.384  38.146   2.690
50996W        W19214  20.201  43.028  14.761
50997W        W19215  12.408  25.479   4.074
50998W        W19216   2.760  24.687   1.922
50999W        W19217  43.270   8.962  14.036
51000W        W19218  32.602  16.696   4.685
51001W        W19219  24.720  35.057   3.129
51002W        W19220  17.137  41.421   4.063
51003W        W19221  30.520  43.499   2.763
51004W        W19222  42.738  16.209   1.204
51005W        W19223  37.754  15.868  10.562
51006W        W19224  34.798   5.527   0.940
51007W        W19225   1.830   0.948   4.517
51008W        W19226   5.495  31.882   3.587
51009W        W19227  34.917   6.641  12.405
51010W        W19228   8.815  30.587   1.951
51011W        W19229  39.160  40.675  11.422
51012W        W19230  25.800  42.819   3.537
51013W        W19231   0.207  33.999   0.384
51014W        W19232  14.850  15.895  13.947
51015W        W19233  39.471  35.953  13.610
51016W        W19234  36.365  22.978  12.977
51017W        W19235  27.497  10.486  11.071
51018W        W19236  24.753   7.794  12.514
51019W        W19237  44.721  31.905  11.605
51020W        W19238   3.798  27.865   1.681
51021W        W19239   3.709   5.924  11.571
51022W        W19240   9.318  15.585  11.959
51023W        W19241   9.488  15.718  12.420
51024W        W19242  23.078  34.796   1.195
51025W        W19243  23.026  11.478  12.832
51026W        W19244   4.430  41.972  10.930
51027W        W19245  11.616  19.320   1.439
51028W        W19246  26.591  44.569   1.725
51029W        W19247  21.503  35.848  13.432
51030W        W19248   1.280  37.166   1.792
51031W        W19249  42.382  12.529   3.160
51032W        W19250  40.838   3.970   3.509
51033W        W19251  10.850  22.623  10.664
51034W        W19252  38.960  37.131   3.719
51035W        W19253  34.343   3.730  13.005
51036W        W19254  19.375  17.850  13.396
51037W        W19255  30.585  41.521  10.674
51038W        W19256  25.019  24.505   2.153
51039W        W19257  12.240  29.330  14.833
51040W        W19258  36.090  11.292   1.319
51041W        W19259  35.900  38.126   0.682
51042W        W19260  27.566   5.141  12.506
51043W        W19261  41.840  26.711  14.289
51044W        W19262  15.740  36.317  13.369
51045W        W19263  36.331   1.419   4.235
51046W        W19264  41.448  14.310  11.050
51047W        W19265  14.847  18.544  11.220
51048W        W19266  39.321  43.808  14.002
51049W        W19267  18.609  32.659   1.742
51050W        W19268  13.784  26.961   4.424
51051W        W19269   8.699  31.916  13.168
51052W        W19270  16.025  33.633   3.344
51053W        W19271  20.187  33.430   2.701
51054W        W19272   5.282  39.620  12.414
51055W        W19273  24.900  18.730  11.066
51056W        W19274  17.741  38.688  12.624
51057W        W19275  18.012   7.433   3.202
51058W        W19276   1.272   6.182   1.852
51059W        W19277  18.280  22.118  10.659
51060W        W19278  40.022  31.681   1.721
51061W        W19279  22.057  11.922  12.126
51062W        W19280  12.638  22.179   2.781
51063W        W19281   4.125  26.335  13.544
51064W        W19282   8.678  12.882  11.635
51065W        W19283  34.298   4.186   2.190
51066W        W19284  38.268   5.364   2.672
51067W        W19285   7.948  36.602  14.842
51068W        W19286   9.346  13.358  13.834
51069W        W19287  31.425   7.946   1.825
51070W        W19288  31.644   8.328  13.927
51071W        W19289  19.814  38.932   2.129
51072W        W19290  24.484  42.185   1.438
51073W        W19291   4.424  29.616   4.876
51074W        W19292  15.691  44.939  12.592
51075W        W19293  36.271  24.273   2.318
51076W        W19294   3.131  26.608   1.798
51077W        W19295  34.675  43.407  14.524
51078W        W19296  19.865  40.207   3.353
51079W        W19297  20.292  43.325  12.910
51080W        W19298   1.597   2.732   2.362
51081W        W19299   5.882  37.664  10.463
51082W        W19300  36.092  24.411   0.966
51083W        W19301  43.398   7.403   4.562
51084W        W19302   7.857  18.806   4.844
51085W        W19303  37.303  40.930  14.862
51086W        W19304  13.041  34.437  14.439
51087W        W19305  23.765   1.990   2.870
51088W        W19306   4.264   2.273   2.868
51089W        W19307  42.809  11.562   0.508
51090W        W19308   3.802  16.698  14.519
51091W        W19309  42.302  22.940   0.422
51092W        W19310  10.648  17.042  12.673
51093W        W19311  32.368  29.234   5.136
51094W        W19312  11.252  21.938   1.756
51095W        W19313  43.594  31.737  13.783
51096W        W19314  13.979  41.321  13.254
51097W        W19315  42.867   1.862  11.129
51098W        W19316  29.373   3.841  12.883
51099W        W19317  10.646  36.363   4.083
51100W        W19318  32.867  29.685   1.705
51101W        W19319   6.754   5.836   2.086
51102W        W19320  38.355  37.865   3.930
51103W        W19321  44.705  13.295  12.071
51104W        W19322  41.350  36.326  11.556
51105W        W19323  29.153  41.864   1.764
51106W        W19324   4.182   9.853   2.110
51107W        W19325  22.580  10.790  10.587
51108W        W19326  18.698   5.286   4.460
51109W        W19327  33.200  10.704  13.510
51110W        W19328  36.008   0.324  14.914
51111W        W19329  10.879  12.780  13.464
51112W        W19330  21.754  25.986  12.628
51113W        W19331  43.321  12.573  10.960
51114W        W19332  14.634  14.863  11.172
51115W        W19333  26.157   6.266  10.721
51116W        W19334   1.309  36.123  11.560
51117W        W19335  13.220  42.155   4.110
51118W        W19336  42.532  30.266   1.896
51119W        W19337  38.021  33.659  14.403
51120W        W19338  25.085  19.508   0.335
51121W        W19339  43.493  11.572  13.260
51122W        W19340  36.441  24.242   1.404
51123W        W19341  28.989   0.266  14.028
51124W        W19342  18.564   1.248   9.912
51125W        W19343   4.945  32.873   1.377
51126W        W19344   3.045  26.914  12.557
51127W        W19345   6.897   8.177   0.433
51128W        W19346   5.717  30.640  11.879
51129W        W19347   0.350  41.098  11.231
51130W        W19348  19.762  24.626   3.852
51131W        W19349  14.150   7.797   2.228
51132W        W19350   6.972  15.820  13.019
51133W        W19351  39.371  39.414  12.318
51134W        W19352   6.357   9.706  12.484
51135W        W19353  29.938  11.870   4.115
51136W        W19354  19.566  22.003  14.288
51137W        W19355   2.809  14.261  12.252
51138W        W19356   2.376  16.592  13.792
51139W        W19357   9.415  20.358  12.061
51140W        W19358  44.661  36.961  13.799
51141W        W19359   5.194  16.360  14.350
51142W        W19360   4.162  18.687   4.150
51143W        W19361  33.126  32.627   3.228
51144W        W19362  18.333  42.826  11.439
51145W        W19363  40.597  44.587   1.943
51146W        W19364  29.738  40.111   0.275
51147W        W19365  12.399   4.878   2.757
51148W        W19366  26.709  16.217   2.573
51149W        W19367  29.908  39.769   2.766
51150W        W19368  10.574  19.359  10.145
51151W        W19369  31.379  20.481  14.571
51152W        W19370  10.346  24.433   1.730
51153W        W19371  16.882  34.248  11.540
51154W        W19372   3.519  25.614  10.768
51155W        W19373  30.762  24.687   0.971
51156W        W19374  30.099   7.120  11.353
51157W        W19375  32.575  31.381   0.032
51158W        W19376  16.137  17.784  12.350
51159W        W19377  20.537  40.477  13.339
51160W        W19378  42.731  40.794  10.735
51161W        W19379  40.574  30.339  12.422
51162W        W19380  30.455  23.163   2.127
51163W        W19381  31.974  35.482   1.134
51164W        W19382  24.800  39.318  13.014
51165W        W19383  17.672   5.901  12.650
51166W        W19384  24.255  36.484   2.407
51167W        W19385  34.589  29.617   1.342
51168W        W19386   7.257   5.416  14.346
51169W        W19387  20.549  24.452   3.556
51170W        W19388  25.122   7.516   1.368
51171W        W19389  35.257  41.272  13.180
51172W        W19390   0.619  41.541  12.078
51173W        W19391   1.340   3.488  14.376
51174W        W19392  14.569  19.259  11.010
51175W        W19393  35.599  14.376   3.785
51176W        W19394  29.098  12.066  14.341
51177W        W19395  10.786  40.104   0.339
51178W        W19396  43.501  30.459  14.486
51179W        W19397  43.863  36.323  13.392
51180W        W19398  14.825  38.267   1.883
51181W        W19399   6.160  33.461   0.510
51182W        W19400  25.119  18.268   2.839
51183W        W19401  25.830  16.857   5.109
51184W        W19402  27.785  30.651   1.034
51185W        W19403   8.582   2.584   0.414
51186W        W19404  21.885  15.796   4.838
51187W        W19405  19.739  31.993  13.774
51188W        W19406   3.790  16.975   1.386
51189W        W19407  28.972  14.217   2.928
51190W        W19408  37.298  40.280   2.648
51191W        W19409   4.612  16.317   1.306
51192W        W19410  43.122  11.834   0.177
51193W        W19411  11.256  38.402   4.543
51194W        W19412  19.571  30.002  14.194
51195W        W19413   9.207  14.355  11.088
51196W        W19414  13.957  14.233  11.198
51197W        W19415   1.259  23.917   3.578
51198W        W19416  17.902  37.635  11.539
51199W        W19417  34.705  32.475  13.916
51200W        W19418  43.569   0.746   3.632
51201W        W19419  11.207  22.098  14.844
51202W        W19420  28.618  29.478   0.525
51203W        W19421  32.549  43.316   1.394
51204W        W19422  26.116   9.129   3.317
51205W        W19423  12.779  10.624   2.276
51206W        W19424  30.070   1.845   0.560
51207W        W19425  15.680  21.153  12.920
51208W        W19426   4.839  40.812   4.470
51209W        W19427  29.011  24.411   2.946
51210W        W19428  10.352  28.380  14.731
51211W        W19429  18.639  29.864  14.397
51212W        W19430   1.492  24.209  12.432
51213W        W19431  30.120   8.078  14.019
51214W        W19432  32.020  25.392  13.480
51215W        W19433  39.907  33.347  12.763
51216W        W19434   9.980  32.083  14.158
51217W        W19435  42.169  12.787   0.984
51218W        W19436   7.137  35.855  12.541
51219W        W19437  29.489  37.502   1.651
51220W        W19438  35.519  33.199   3.184
51221W        W19439  22.598  26.407  11.533
51222W        W19440  14.205   7.383   2.529
51223W        W19441  40.990  26.112  11.473
51224W        W19442  35.961  14.328   0.686
51225W        W19443  14.807  19.608  10.727
51226W        W19444  40.858  37.962  10.522
51227W        W19445  38.447  28.411  12.003
51228W        W19446   8.241  39.050  13.837
51229W        W19447  31.854  26.331   4.004
51230W        W19448   9.300  14.355   1.946
51231W        W19449  44.845   2.342   1.065
51232W        W19450  32.271  10.214   4.041
51233W        W19451   4.713  10.191   3.684
51234W        W19452  17.642  30.213   3.620
51235W        W19453  35.303  13.230   1.753
51236W        W19454  43.831  41.327  12.717
51237W        W19455  12.865  33.306   3.234
51238W        W19456  20.054  24.538   2.131
51239W        W19457  44.856  21.685   4.366
51240W        W19458   7.250   5.129  10.620
51241W        W19459   7.983  14.816   0.750
51242W        W19460   6.255   9.509  11.176
51243W        W19461  37.864  14.877  14.515
51244W        W19462  43.964  12.583  11.161
51245W        W19463  13.783  28.681   0.770
51246W        W19464  14.370  13.345  14.786
51247W        W19465  24.051  12.800   0.867
51248W        W19466  37.102   4.631  12.620
51249W        W19467  42.809  14.168   2.168
51250W        W19468   3.245   3.839   1.304
51251W        W19469   1.371   0.509  14.970
51252W        W19470  10.666  14.835  10.378
51253W        W19471  23.031  15.664  13.827
51254W        W19472   8.404  42.706  12.390
51255W        W19473   0.216  13.907  14.755
51256W        W19474   1.953  28.481   4.215
51257W        W19475  30.956  41.812   2.185
51258W        W19476  32.667  40.335   2.734
51259W        W19477  15.759  25.661   1.645
51260W        W19478  16.211  36.367  12.497
51261W        W19479  37.403   1.231  10.017
51262W        W19480  25.285   4.693   1.737
51263W        W19481  16.785  19.563  13.431
51264W        W19482  29.794   2.083   9.942
51265W        W19483  35.591   2.467  13.512
51266W        W19484  27.948   0.012   4.671
51267W        W19485  33.896  42.142   1.081
51268W        W19486  17.616  35.073  12.478
51269W        W19487  41.747  22.183  12.712
51270W        W19488  31.654  30.570   1.137
51271W        W19489  16.655  43.433  10.886
51272W        W19490  29.678  41.492   4.518
51273W        W19491  30.398  39.996   1.849
51274W        W19492  12.856  18.304   2.765
51275W        W19493   4.867  31.530  11.921
51276W        W19494  12.721  22.989  11.424
51277W        W19495  31.680  36.450   2.863
51278W        W19496  12.869  30.866   4.746
51279W        W19497   2.131  10.371  11.086
51280W        W19498  40.852   5.201  11.034
51281W        W19499  19.172  42.750  14.860
51282W        W19500  22.203  31.736  12.038
51283W        W19501  42.312  18.993  12.038
51284W        W19502  22.637  24.196  12.832
51285W        W19503  42.986  12.093   2.170
51286W        W19504  10.823   4.300   2.932
51287W        W19505  20.718   4.931   2.458
51288W        W19506  11.244   9.264  12.897
51289W        W19507  36.521  40.208   0.961
51290W        W19508  25.492  20.983   2.248
51291W        W19509  31.033  18.679   4.493
51292W        W19510  14.997  44.500   3.186
51293W        W19511   2.974  28.090   3.842
51294W        W19512   5.620  33.986  12.379
51295W        W19513   8.667  36.979   0.472
51296W        W19514  15.860  40.523   0.925
51297W        W19515  41.603  25.772  11.889
51298W        W19516  30.199  20.249  10.670
51299W        W19517   6.724   2.472   4.533
51300W        W19518  42.839  25.870  13.366
51301W        W19519   5.980  30.699  11.445
51302W        W19520  39.993  41.237  11.210
51303W        W19521   2.397   3.287   4.526
51304W        W19522   4.839  33.893   3.893
51305W        W19523  32.429  14.205  14.752
51306W        W19524  42.027  26.933  13.827
51307W        W19525  31.470  34.468   4.823
51308W        W19526  20.105   8.869   3.280
51309W        W19527  42.811   8.903   0.259
51310W        W19528  42.476  17.804  14.076
51311W        W19529   1.820  37.364   0.380
51312W        W19530  15.664   7.949  14.860
51313W        W19531  30.953  39.465  14.823
51314W        W19532  42.934  22.697  14.594
51315W        W19533  12.659  35.909  12.966
51316W        W19534  14.736  11.879  12.293
51317W        W19535  14.139  32.683  12.881
51318W        W19536   6.846  39.509   4.762
51319W        W19537  18.072  16.152  14.301
51320W        W19538  12.300  10.085  10.538
51321W        W19539   4.649  23.493   2.313
51322W        W19540  25.429   6.782  13.466
51323W        W19541  26.918  14.055   2.899
51324W        W19542   7.319   6.815   0.944
51325W        W19543  21.170  43.297  10.548
51326W        W19544  44.841  19.819   1.583
51327W        W19545   1.588   7.943   0.274
51328W        W19546  16.202  30.693   3.642
51329W        W19547  34.843   2.879  13.975
51330W        W19548  18.512  20.285   3.812
51331W        W19549  27.374   5.628   4.609
51332W        W19550  22.614  37.380   2.861
51333W        W19551  39.911  23.572  12.245
51334W        W19552   8.911   4.874   1.479
51335W        W19553  41.016  33.911  11.519
51336W        W19554  41.643  29.001  10.259
51337W        W19555  20.703   4.270   0.970
51338W        W19556   4.223  31.576   3.679
51339W        W19557  10.117  18.748  14.874
51340W        W19558  11.845  34.342  13.174
51341W        W19559  11.346  28.097  12.050
51342W        W19560  25.105   2.852  13.973
51343W        W19561  25.654  15.077  12.621
51344W        W19562  17.485  17.851  13.156
51345W        W19563   0.222   9.921   2.718
51346W        W19564  38.966  35.038   2.454
51347W        W19565  11.918  38.981  14.746
51348W        W19566  15.237   1.676  10.154
51349W        W19567  33.796   0.878   3.532
51350W        W19568  20.278   0.360   0.445
51351W        W19569  28.028  44.808   0.938
51352W        W19570  39.157  30.705   9.908
51353W        W19571  40.014  25.937   1.383
51354W        W19572  22.739  10.681  11.462
51355W        W19573  32.613  41.506   4.683
51356W        W19574  12.505  36.020   0.895
51357W        W19575   7.404   1.461   4.007
51358W        W19576  17.367   3.887  12.979
51359W        W19577  35.133   8.387  11.992
51360W        W19578  38.378  39.019   2.396
51361W        W19579  39.437  35.152   3.219
51362W        W19580  23.032  23.038  12.607
51363W        W19581  42.480  34.145  14.425
51364W        W19582  35.300  35.549  13.629
51365W        W19583  38.148  25.399  12.241
51366W        W19584  29.931  19.173  11.650
51367W        W19585   4.966  10.089   4.130
51368W        W19586  44.566   9.897  11.099
51369W        W19587  13.688  38.092  13.508
51370W        W19588   7.469  24.706  10.379
51371W        W19589  20.692   9.418  13.457
51372W        W19590   4.709   7.945   0.013
51373W        W19591  33.477  10.952   4.657
51374W        W19592  18.893   6.393   0.800
51375W        W19593  39.438   3.732   3.580
51376W        W19594  30.623  18.334   3.629
51377W        W19595  31.890  39.574   4.847
51378W        W19596  10.562  31.485   1.299
51379W        W19597  13.451  34.697   4.304
51380W        W19598   8.819   2.256   3.003
51381W        W19599  16.404  31.075   2.845
51382W        W19600  37.094  38.802   1.793
51383W        W19601   5.112  24.040   4.952
51384W        W19602  33.463  17.730   3.269
51385W        W19603  17.386  10.288   2.721
51386W        W19604  22.274  43.508   2.170
51387W        W19605   9.612  42.455  13.857
51388W        W19606  19.287   4.272  14.755
51389W        W19607  14.710   6.220   3.658
51390W        W19608  44.360  25.105  12.555
51391W        W19609   9.266  42.696  11.479
51392W        W19610  28.031  30.039  11.994
51393W        W19611   7.071  41.157   1.249
51394W        W19612   2.788   8.034   4.721
51395W        W19613  35.561  20.848   1.299
51396W        W19614  38.238   1.318   2.004
51397W        W19615  17.331  26.996  14.333
51398W        W19616   6.725   6.763   1.691
51399W        W19617  27.061  24.959   2.330
51400W        W19618  10.588  32.002  13.363
51401W        W19619  13.223   6.063   1.445
51402W        W19620   6.871  12.760   3.808
51403W        W19621   3.812   6.209   4.363
51404W        W19622  19.306   2.393   2.735
51405W        W19623   5.382  43.310  14.346
51406W        W19624  18.702  39.028  14.074
51407W        W19625  18.089  42.881  14.791
51408W        W19626   4.661  36.434  10.563
51409W        W19627  25.545  44.206  13.037
51410W        W19628   4.963   1.731   4.134
51411W        W19629  44.542  33.098  10.558
51412W        W19630  43.252  24.683   3.278
51413W        W19631   1.334  13.639   2.245
51414W        W19632  42.514   6.141   1.455
51415W        W19633   5.241  29.988  10.749
51416W        W19634  13.155  44.890   0.930
51417W        W19635   7.641  13.137  13.522
51418W        W19636  42.895  13.149   2.200
51419W        W19637  22.233   2.888  11.945
51420W        W19638  17.995  24.177  14.715
51421W        W19639  38.609  25.114   2.924
51422W        W19640  27.836  28.620   2.449
51423W        W19641  40.499   4.039   1.217
51424W        W19642  20.120  19.856   5.073
51425W        W19643  38.136  29.800   1.949
51426W        W19644  12.817   4.013   4.787
51427W        W19645  15.177  16.623  11.229
51428W        W19646  37.266   8.105  12.483
51429W        W19647  15.328  14.087  11.113
51430W        W19648  11.033  40.265  11.651
51431W        W19649  40.611  35.416  12.433
51432W        W19650   2.279  36.089   1.894
51433W        W19651  30.321  12.106  13.018
51434W        W19652   6.243  42.818   4.091
51435W        W19653  24.769  36.056  13.916
51436W        W19654   2.470  14.744   0.952
51437W        W19655   4.880  40.350  12.199
51438W        W19656  32.127  42.837   3.144
51439W        W19657   9.328  16.753  12.838
51440W        W19658  11.539  31.604   0.956
51441W        W19659  21.273  10.913  13.981
51442W        W19660  10.618  26.540   3.601
51443W        W19661  31.402  31.557  11.474
51444W        W19662  39.473   0.720  10.295
51445W        W19663  39.424  28.250   3.162
51446W        W19664  19.737  39.978   0.957
51447W        W19665  10.556  34.575  14.348
51448W        W19666   6.942  31.848   3.784
51449W        W19667   4.292  18.179  14.593
51450W        W19668  11.136   5.908  14.832
51451W        W19669  19.792   9.688   0.317
51452W        W19670  26.267   4.241  12.958
51453W        W19671  29.078  23.917   2.801
51454W        W19672   5.022   4.415   3.339
51455W        W19673  44.071  14.081   2.613
51456W        W19674  13.323   9.114  13.116
51457W        W19675  25.008  40.052  14.484
51458W        W19676  32.074  38.905  13.894
51459W        W19677   8.984  15.724   1.943
51460W        W19678  20.532  35.996  13.374
51461W        W19679  23.685   0.892  14.574
51462W        W19680  19.437  20.796  12.603
51463W        W19681  26.197  25.488  11.093
51464W        W19682  11.927  31.641  12.246
51465W        W19683  42.566  35.334  13.969
51466W        W19684  12.222  36.891  12.403
51467W        W19685  28.484  43.066   4.064
51468W        W19686  34.396  26.070  14.388
51469W        W19687   8.360  28.821   0.278
51470W        W19688  27.184  30.104   2.382
51471W        W19689  10.287  36.559   2.682
51472W        W19690  29.201  39.900  10.755
51473W        W19691   6.836  25.956   4.554
51474W        W19692   8.169   9.980  12.439
51475W        W19693  23.619  13.090  12.391
51476W        W19694  28.967  37.043  10.651
51477W        W19695  34.457  24.574  12.058
51478W        W19696  12.956  31.574   2.355
51479W        W19697   8.144   0.780  12.551
51480W        W19698  31.504   2.831   5.003
51481W        W19699  22.314   0.279  14.498
51482W        W19700  34.770  17.441   1.862
51483W        W19701  26.015   0.322  13.872
51484W        W19702  36.986  28.022  11.166
51485W        W19703   9.265  22.540   2.382
51486W        W19704  14.584  43.796  13.308
51487W        W19705   2.224  10.945   2.931
51488W        W19706   1.181   4.986  13.533
51489W        W19707  34.459   2.116  12.587
51490W        W19708  32.544  40.807   2.181
51491W        W19709   3.815  21.637  14.281
51492W        W19710  36.628  35.465   4.104
51493W        W19711  16.115  41.729   2.325
51494W        W19712  33.199   2.338  12.057
51495W        W19713  28.115   0.681   0.358
51496W        W19714  38.063  32.924   0.854
51497W        W19715  22.097  15.275   2.328
51498W        W19716  15.831  23.081   4.495
51499W        W19717  24.074  22.560   0.285
51500W        W19718   8.900  41.965   2.364
51501W        W19719  39.979   4.446  12.366
51502W        W19720   4.513  18.856   0.187
51503W        W19721   0.165  20.547  11.845
51504W        W19722  10.665  42.799   4.956
51505W        W19723  16.572   4.488  12.600
51506W        W19724   3.785  36.282   2.722
51507W        W19725   3.069  21.964   3.811
51508W        W19726  35.409  23.598   0.885
51509W        W19727   8.518  34.475   2.735
51510W        W19728  36.084  44.273   0.470
51511W        W19729  39.568  33.126  11.529
51512W        W19730  29.904  16.678  11.598
51513W        W19731   7.688  21.790  12.646
51514W        W19732  28.807  32.021  12.627
51515W        W19733  11.173  13.817  12.884
51516W        W19734  18.011  17.026  12.449
51517W        W19735   5.109  40.682   4.944
51518W        W19736  44.450  23.050   0.671
51519W        W19737  40.765  12.338  11.598
51520W        W19738   4.392   8.418  10.784
51521W        W19739  19.125   3.731  14.886
51522W        W19740  35.604  10.778  11.132
51523W        W19741   3.408  21.705  11.644
51524W        W19742  24.669   9.276   4.260
51525W        W19743   0.028  16.713   0.343
51526W        W19744  14.595   5.804  12.032
51527W        W19745  43.408   0.947  13.821
51528W        W19746  34.865  17.135   2.725
51529W        W19747  28.383   6.811  14.310
51530W        W19748   7.422   1.738  14.934
51531W        W19749  44.854  40.292  11.508
51532W        W19750   6.327  44.035  10.703
51533W        W19751  14.294  44.083   0.704
51534W        W19752  37.470   5.744   1.669
51535W        W19753  22.065  42.239   0.013
51536W        W19754  24.490   1.978   0.220
51537W        W19755  24.020  23.923   4.519
51538W        W19756  13.356  43.045  11.890
51539W        W19757  33.514  13.654  13.461
51540W        W19758  23.639  37.404   0.939
51541W        W19759  30.730  34.848  13.440
51542W        W19760  10.841  35.581   0.829
51543W        W19761   7.275  39.499   4.489
51544W        W19762  39.385  19.570   1.983
51545W        W19763  35.181   3.551  12.043
51546W        W19764  23.749  24.077   2.335
51547W        W19765  10.935  25.307   0.382
51548W        W19766  42.100  31.630   0.280
51549W        W19767  41.759  24.489   1.414
51550W        W19768   7.525  43.936   1.256
51551W        W19769  28.883  28.534   3.660
51552W        W19770  11.893   7.904   2.461
51553W        W19771  11.291  23.965   1.887
51554W        W19772  25.046  29.494   2.720
51555W        W19773   2.382  20.595  13.514
51556W        W19774  39.118  16.749   1.112
51557W        W19775  24.792  37.024   2.880
51558W        W19776  43.402  34.061  12.482
51559W        W19777   7.749  32.456   0.944
51560W        W19778  26.675  36.050   4.194
51561W        W19779  10.020  33.960  11.049
51562W        W19780  43.062  29.406  12.573
51563W        W19781   8.784  41.754  13.833
51564W        W19782  40.283  27.977   1.636
51565W        W19783   6.791  10.154   0.445
51566W        W19784  40.485  22.187   2.915
51567W        W19785   8.415  15.749  10.631
51568W        W19786  16.742  23.271  14.218
51569W        W19787  24.404  23.437   0.834
51570W        W19788   0.465  10.964   3.621
51571W        W19789  39.786  18.268  14.811
51572W        W19790   0.758  20.074   1.345
51573W        W19791  39.417  40.612   2.356
51574W        W19792  27.080  10.823  10.812
51575W        W19793  10.135  10.720   3.397
51576W        W19794  42.847  44.867  12.158
51577W        W19795  22.620  26.899  12.630
51578W        W19796  33.983   0.871  10.924
51579W        W19797   3.735   0.051  12.866
51580W        W19798  35.356  24.597   3.781
51581W        W19799  22.597  29.953  14.910
51582W        W19800  16.545  34.929   4.540
51583W        W19801   5.462  23.140  12.226
51584W        W19802   2.095  44.952   4.761
51585W        W19803  29.180  11.646   0.150
51586W        W19804  40.854  17.936   0.912
51587W        W19805  37.327  33.099   1.221
51588W        W19806  23.626  28.023  13.340
51589W        W19807  28.873   1.307   4.096
51590W        W19808  19.129   0.426  11.185
51591W        W19809   5.458  34.172  14.073
51592W        W19810  23.575  42.739  13.481
51593W        W19811  33.688  31.323  12.295
51594W        W19812  33.497  27.650   3.183
51595W        W19813  34.224  12.863  11.569
51596W        W19814  44.779  14.522  11.156
51597W        W19815  28.826  20.997  10.696
51598W        W19816  41.887  34.016   3.272
51599W        W19817  37.087  23.010   4.214
51600W        W19818   1.776   6.309   0.046
51601W        W19819  12.127   8.345   2.299
51602W        W19820   4.684  16.736   2.855
51603W        W19821   6.746   3.438   0.828
51604W        W19822   5.874  32.002  12.945
51605W        W19823  30.726  10.868  14.720
51606W        W19824  38.849  32.129  11.096
51607W        W19825  28.539   5.808   3.409
51608W        W19826   2.890  19.209   4.055
51609W        W19827  43.423  38.694  12.698
51610W        W19828  22.371  11.319   4.633
51611W        W19829  14.876  11.047  14.833
51612W        W19830   4.715  37.778   1.173
51613W        W19831  44.414  15.568  11.586
51614W        W19832  42.167   3.359   5.009
51615W        W19833  13.001  16.254  12.828
51616W        W19834  29.354   1.231   4.240
51617W        W19835   0.005   6.880  12.182
51618W        W19836   4.090   9.578   5.018
51619W        W19837  19.577  42.364  13.981
51620W        W19838  11.088  36.861  14.516
51621W        W19839   5.191  15.470   1.859
51622W        W19840   0.994   7.402   2.876
51623W        W19841   5.025  25.175  11.650
51624W        W19842  37.095  39.601   2.160
51625W        W19843  10.668  33.994  11.702
51626W        W19844  26.708  13.090  14.392
51627W        W19845  23.998  30.548   9.985
51628W        W19846  15.306  42.952  11.578
51629W        W19847  21.441  31.311   1.145
51630W        W19848  18.310  37.446   1.520
51631W        W19849  24.736  19.903  11.919
51632W        W19850  23.589  42.773   3.651
51633W        W19851  30.395  22.131  10.552
51634W        W19852  34.575  18.509  13.956
51635W        W19853  31.532  29.577  13.987
51636W        W19854  44.068  38.047  11.481
51637W        W19855  27.206  33.448   4.022
51638W        W19856  10.322  35.578   0.815
51639W        W19857  35.859   3.868   5.294
51640W        W19858   0.988  40.332   0.395
51641W        W19859  30.120   6.912  11.861
51642W        W19860   3.682  15.739   3.479
51643W        W19861   6.717  12.373   1.860
51644W        W19862   5.704  43.336  12.426
51645W        W19863   2.751  43.736   2.308
51646W        W19864  15.298  36.042   4.192
51647W        W19865  15.049  14.493   4.187
51648W        W19866  33.014  17.574  13.183
51649W        W19867  26.467  41.419  10.396
51650W        W19868  35.856  20.271  11.566
51651W        W19869  30.962  28.066  11.122
51652W        W19870   6.745  15.228  10.876
51653W        W19871   4.864   1.752  12.419
51654W        W19872  31.174  21.715  12.967
51655W        W19873  31.864  32.089  13.102
51656W        W19874  25.441  13.329  14.113
51657W        W19875  26.649  35.135   0.453
51658W        W19876   0.859   6.672  12.499
51659W        W19877  39.298  44.871  14.856
51660W        W19878   2.890  12.383   1.676
51661W        W19879   2.952  19.576   3.646
51662W        W19880  21.619  31.957   1.364
51663W        W19881  31.528   5.900   4.098
51664W        W19882   3.279  30.483   3.879
51665W        W19883  26.422   9.086   0.376
51666W        W19884  17.290  13.124   3.140
51667W        W19885  18.599  13.051   0.402
51668W        W19886  39.186   4.599  11.497
51669W        W19887   6.397  42.847   1.764
51670W        W19888   1.459  23.792   2.334
51671W        W19889  26.830   1.089   3.306
51672W        W19890  34.341  10.446  12.646
51673W        W19891   2.842  35.189   1.195
51674W        W19892  15.703   8.676   1.306
51675W        W19893  22.662  27.789   4.568
51676W        W19894  14.852   7.684  11.091
51677W        W19895   9.241  12.405  11.179
51678W        W19896  14.736  23.530   2.283
51679W        W19897   5.252  27.068   2.193
51680W        W19898  25.033  11.797   0.962
51681W        W19899  12.415  35.493  11.371
51682W        W19900  21.425   7.060   3.578
51683W        W19901  11.257  18.617  14.834
51684W        W19902  21.504  25.644  12.342
51685W        W19903  44.923   4.958  11.146
51686W        W19904  15.487  43.978   1.424
51687W        W19905  28.967   5.498   2.099
51688W        W19906   8.080   6.675   1.425
51689W        W19907  44.462  38.423   1.915
51690W        W19908  40.020  32.499  12.527
51691W        W19909  39.067  16.053   2.272
51692W        W19910   1.033  12.817   3.576
51693W        W19911   4.382  10.886   0.617
51694W        W19912  16.658   8.569  10.736
51695W        W19913  36.948  30.423  12.922
51696W        W19914  10.235  28.548  10.747
51697W        W19915  43.814  20.052  14.773
51698W        W19916  20.616  10.717   1.864
51699W        W19917  12.867  41.780   4.229
51700W        W19918  32.675  29.341  10.726
51701W        W19919  35.772  31.577   3.740
51702W        W19920  31.542  37.958  10.730
51703W        W19921  22.466  21.686   2.863
51704W        W19922  37.836  19.178  12.761
51705W        W19923  19.469  35.384   2.707
51706W        W19924  12.659   1.318   3.341
51707W        W19925   5.584  37.791   1.494
51708W        W19926  25.589  16.787   2.938
51709W        W19927  12.107   2.799  10.050
51710W        W19928  14.786  27.020  12.820
51711W        W19929  23.965  40.465   4.593
51712W        W19930  40.409  24.080  13.432
51713W        W19931  37.776  10.252  11.091
51714W        W19932   2.458  42.347  11.664
51715W        W19933   3.766  23.161   0.232
51716W        W19934  41.742  13.296  10.705
51717W        W19935  13.092  11.401   3.799
51718W        W19936  18.976  29.763  12.097
51719W        W19937   0.853   5.061   9.893
51720W        W19938  30.003  33.015   1.790
51721W        W19939  44.529  18.731  12.540
51722W        W19940   3.607  40.355  10.958
51723W        W19941  20.966  36.402  13.946
51724W        W19942   7.887  36.079  14.790
51725W        W19943  21.726  24.415  11.547
51726W        W19944   6.919  27.759   1.668
51727W        W19945  10.831  16.563   4.832
51728W        W19946  25.210  34.823   2.374
51729W        W19947   2.641  30.388   2.642
51730W        W19948  27.071  20.291   2.771
51731W        W19949  15.333  32.151  14.737
51732W        W19950  11.900  42.837  11.047
51733W        W19951   3.548  17.483  11.636
51734W        W19952  13.658  26.398  12.537
51735W        W19953  13.860  10.664   1.359
51736W        W19954  33.655  35.411  14.359
51737W        W19955  32.232  12.182   4.010
51738W        W19956  14.895   4.207   4.134
51739W        W19957  42.778   6.233  14.565
51740W        W19958  43.647  16.539   3.838
51741W        W19959  40.670   5.965  11.514
51742W        W19960  34.168  26.647  13.493
51743W        W19961  24.400   8.709   1.286
51744W        W19962  32.525  10.641   2.902
51745W        W19963  28.935  27.066   4.194
51746W        W19964  22.960   9.758   1.298
51747W        W19965   4.457  11.829   0.400
51748W        W19966  16.650  42.482  12.485
51749W        W19967  34.382  11.325  11.684
51750W        W19968  42.450  35.061   4.082
51751W        W19969  40.049   2.025  11.194
51752W        W19970  28.758  25.847   2.766
51753W        W19971  20.887  20.786   0.506
51754W        W19972   5.175  42.578   5.425
51755W        W19973  19.814  33.615   4.596
51756W        W19974  37.573  33.178  13.163
51757W        W19975  20.700  21.177   3.244
51758W        W19976  23.902  36.109   2.307
51759W        W19977   2.908   7.185  12.006
51760W        W19978   7.273   5.940  14.324
51761W        W19979  16.208   6.886   4.631
51762W        W19980  15.672  19.481  11.605
51763W        W19981  42.374  14.102  13.032
51764W        W19982  16.732  14.735  13.005
51765W        W19983  44.018  39.484  14.758
51766W        W19984  28.120   4.930   3.532
51767W        W19985  16.629  44.364   4.135
51768W        W19986  41.588  24.001   3.712
51769W        W19987  35.857  42.556  14.995
51770W        W19988  26.905  16.442  12.900
51771W        W19989  42.297  16.591  11.210
51772W        W19990  22.284  12.296   3.258
51773W        W19991   0.873  10.791   3.877
51774W        W19992  40.519  34.951  12.644
51775W        W19993  32.071   1.238   0.710
51776W        W19994  21.052  16.682   3.869
51777W        W19995  12.801  28.664  11.937
51778W        W19996  35.081  41.528   4.170
51779W        W19997  32.102  18.286   1.120
51780W        W19998  22.099  40.387  12.515
51781W        W19999  13.141  40.936   1.604
51782W        W20000   2.476  39.330  13.490
51783W        W20001   5.231  19.220   3.432
51784W        W20002  33.573  19.250  11.079
51785W        W20003  38.298   8.833  13.803
51786W        W20004  13.376   3.458   2.765
51787W        W20005  12.033  36.092  10.811
51788W        W20006  38.606  12.136   3.183
51789W        W20007  36.386  20.160  12.046
51790W        W20008  10.815  34.442  11.469
51791W        W20009   1.687  44.554   2.804
51792W        W20010  42.834  20.467   1.859
51793W        W20011  11.002  13.268   4.557
51794W        W20012  38.521  30.993   0.940
51795W        W20013  34.952  12.286   4.597
51796W        W20014  35.324   5.117  13.770
51797W        W20015  32.429  22.937   2.919
51798W        W20016  28.073   5.294  13.255
51799W        W20017  35.346  13.863  13.563
51800W        W20018  12.371  34.731  14.051
51801W        W20019  33.668  18.097  14.933
51802W        W20020  12.632  38.075  10.725
51803W        W20021  31.542   0.748   0.938
51804W        W20022  42.462  44.409   3.841
51805W        W20023   3.417  19.686   1.483
51806W        W20024   3.561  31.073   2.695
51807W        W20025  36.003  18.967   3.594
51808W        W20026  23.629   0.580  14.114
51809W        W20027  21.146  25.825   1.923
51810W        W20028  15.313   2.860   4.753
51811W        W20029  26.439  29.084   1.015
51812W        W20030   9.393   4.460   3.540
51813W        W20031  20.735  25.088  10.757
51814W        W20032   3.809   6.137   1.899
51815W        W20033  35.168   0.335  10.689
51816W        W20034  32.870  12.028   3.231
51817W        W20035  26.127  35.031  11.672
51818W        W20036  32.694  17.791  14.424
51819W        W20037   3.155  33.395   2.641
51820W        W20038  19.128  17.132  14.710
51821W        W20039  29.456  10.221   1.832
51822W        W20040  21.300  17.150   2.171
51823W        W20041  40.124  29.702   3.512
51824W        W20042  18.608   7.417  14.973
51825W        W20043  10.698  14.804   4.087
51826W        W20044  34.556  10.157  13.006
51827W        W20045   7.932  38.873  11.193
51828W        W20046  38.542   2.662   4.238
51829W        W20047  26.998  31.737  11.378
51830W        W20048  13.572  34.231   1.313
51831W        W20049  11.668  40.051  11.975
51832W        W20050  33.467  43.235  10.384
51833W        W20051   8.016  43.915   1.134
51834W        W20052  26.017  27.784  12.704
51835W        W20053  20.458  23.034   3.593
51836W        W20054  37.305  31.407  14.024
51837W        W20055  27.573  21.961  12.527
51838W        W20056  42.230   6.325   2.368
51839W        W20057   5.572   9.123  10.931
51840W        W20058  44.275  30.748  11.662
51841W        W20059  39.063  43.332  13.604
51842W        W20060  41.562  17.486  10.745
51843W        W20061  31.328  15.647  14.438
51844W        W20062  35.833  31.855  13.531
51845W        W20063  36.410  44.540  14.942
51846W        W20064  38.374  20.289   1.405
51847W        W20065   0.512  40.070  13.057
51848W        W20066  18.076  17.186  10.102
51849W        W20067  20.588  29.926   0.832
51850W        W20068  31.323  18.106  13.606
51851W        W20069  44.945  30.640   1.359
51852W        W20070  32.465  18.093  11.697
51853W        W20071   8.686   5.327   0.284
51854W        W20072  15.299  18.759   0.995
51855W        W20073   3.685  44.928  14.299
51856W        W20074  28.205   9.408  10.967
51857W        W20075  22.431  38.310   3.809
51858W        W20076  19.237  44.333   2.237
51859W        W20077  38.456  34.428   2.824
51860W        W20078  42.811  32.977  11.977
51861W        W20079  26.327  33.287  13.163
51862W        W20080   8.420  19.661  11.676
51863W        W20081  30.441  35.088   0.880
51864W        W20082  13.773  19.653  10.495
51865W        W20083   7.411   2.324   3.601
51866W        W20084  12.604  25.831   2.846
51867W        W20085  22.293  43.842  11.990
51868W        W20086  13.427  37.603  12.516
51869W        W20087   7.399  11.260  14.360
51870W        W20088  33.490  39.919   3.642
51871W        W20089  35.739  44.425   3.375
51872W        W20090  22.097  13.137   0.913
51873W        W20091   8.718   9.787   1.734
51874W        W20092  28.503  21.345   4.887
51875W        W20093   8.767  32.680   4.834
51876W        W20094  37.782   6.206  10.856
51877W        W20095  36.535   7.254   0.729
51878W        W20096  35.723   7.366   4.556
51879W        W20097   0.168  35.449  13.653
51880W        W20098  30.107   3.999   1.845
51881W        W20099  42.071  15.334   1.323
51882W        W20100  10.596  44.236  11.992
51883W        W20101  13.806  20.952   0.362
51884W        W20102  44.357   9.242   0.966
51885W        W20103   1.912  38.884  10.702
51886W        W20104  23.653  20.682   4.555
51887W        W20105  18.132  39.810   3.168
51888W        W20106  29.904  22.156   4.498
51889W        W20107  44.939  17.278  14.862
51890W        W20108  26.961   1.481   0.345
51891W        W20109   2.863   5.863  14.808
51892W        W20110  20.512  23.020  10.809
51893W        W20111  17.339  34.135  13.875
51894W        W20112  12.525   2.771   0.390
51895W        W20113  13.078  19.586  12.733
51896W        W20114  10.818  33.309   1.889
51897W        W20115  41.308  14.042   0.469
51898W        W20116  17.822  16.780   2.199
51899W        W20117  37.830  19.317  13.272
51900W        W20118  20.516  27.239   2.232
51901W        W20119  21.472  12.413  10.444
51902W        W20120  16.934  22.334  13.454
51903W        W20121   3.226  16.288  13.896
51904W        W20122  33.078  32.428  12.646
51905W        W20123  19.690  44.790  14.577
51906W        W20124  27.392  24.571   1.581
51907W        W20125  25.711   3.429  14.817
51908W        W20126  33.815  11.885  14.904
51909W        W20127  37.416  24.029   5.085
51910W        W20128  44.158   7.965   4.521
51911W        W20129   6.159  14.790  14.902
51912W        W20130  40.904  18.024   1.838
51913W        W20131  44.509  37.904   4.131
51914W        W20132  27.275  35.822  12.136
51915W        W20133  21.479  22.501  11.863
51916W        W20134  35.733  41.332   1.422
51917W        W20135  23.181  26.955  14.501
51918W        W20136   7.379  19.049   2.790
51919W        W20137   5.185  13.822  10.431
51920W        W20138  20.014   1.033   4.099
51921W        W20139  12.825   6.460  12.006
51922W        W20140  38.801  30.129   0.810
51923W        W20141  34.900  23.811   1.740
51924W        W20142  42.320  39.871  10.542
51925W        W20143  37.595  39.797  14.162
51926W        W20144  28.492   1.700  13.945
51927W        W20145  37.748  14.645   0.566
51928W        W20146  34.192  34.464  13.871
51929W        W20147  28.621   4.053   1.383
51930W        W20148   0.279  28.658  10.711
51931W        W20149  15.119  31.617   2.695
51932W        W20150  13.183  41.026  11.171
51933W        W20151  32.231  23.026  12.651
51934W        W20152  23.359  41.443  14.800
51935W        W20153  22.185  16.842   2.358
51936W        W20154  41.641  41.300  13.882
51937W        W20155   1.444  17.386  13.265
51938W        W20156  26.687  30.559   1.451
51939W        W20157  35.072   9.206   0.312
51940W        W20158   8.667  28.044  11.043
51941W        W20159  41.555  19.562  12.535
51942W        W20160  24.202  26.458  12.639
51943W        W20161  22.794  15.291   3.931
51944W        W20162  44.970  25.642  10.971
51945W        W20163  33.572  32.316  12.540
51946W        W20164  38.321   7.583   1.173
51947W        W20165  12.655   0.499  12.590
51948W        W20166  10.656   4.605  10.962
51949W        W20167   4.007  35.611   2.170
51950W        W20168   0.347   0.360   3.522
51951W        W20169   8.705  43.094   3.429
51952W        W20170  39.060  41.768   4.564
51953W        W20171  20.101  35.783  10.199
51954W        W20172  25.139  15.955  12.506
51955W        W20173   5.551  40.302   3.248
51956W        W20174   5.654   1.836   3.264
51957W        W20175  27.183  36.022  13.035
51958W        W20176  35.570   3.609  11.500
51959W        W20177   7.127  16.034   1.396
51960W        W20178  19.832  26.514   1.976
51961W        W20179  21.714  13.831   2.686
51962W        W20180   4.746  44.197  14.990
51963W        W20181   1.829  37.671  14.029
51964W        W20182  40.595  24.452  11.666
51965W        W20183  42.714  38.290   0.337
51966W        W20184   7.730   2.745   0.263
51967W        W20185  37.890  34.066  11.979
51968W        W20186  24.268   8.171   1.330
51969W        W20187  12.317  35.353   4.042
51970W        W20188  33.477  31.046   5.555
51971W        W20189  18.809  31.527  13.421
51972W        W20190  39.311  18.142   3.194
51973W        W20191  22.403   4.449   4.409
51974W        W20192   1.211  25.570   1.798
51975W        W20193  42.028  15.866  12.391
51976W        W20194  29.912  26.610  12.610
51977W        W20195  39.406  37.386  12.154
51978W        W20196  40.310  28.600  12.906
51979W        W20197  25.330  32.194   5.068
51980W        W20198  35.945  43.297  13.696
51981W        W20199  28.385  21.192   2.350
51982W        W20200  39.004   4.752  13.451
51983W        W20201  31.696  38.381   1.039
51984W        W20202  24.295  22.120  10.782
51985W        W20203   7.200   5.990   3.270
51986W        W20204  43.370   6.464  14.533
51987W        W20205   3.901   6.597   2.817
51988W        W20206  27.366   6.168   3.677
51989W        W20207  20.184  30.401   3.550
51990W        W20208  28.982  22.591   0.485
51991W        W20209   5.600  29.549  14.798
51992W        W20210  14.388  28.917  12.084
51993W        W20211   0.391  21.502  11.982
51994W        W20212  33.140   5.635   0.505
51995W        W20213  35.507  37.091   4.670
51996W        W20214  26.762  33.128  12.330
51997W        W20215   2.755  15.305  13.813
51998W        W20216  42.020  12.465   0.267
51999W        W20217  16.600  34.878  12.307
52000W        W20218  12.262  16.973   4.488
52001W        W20219  34.055  31.675  14.561
52002W        W20220   6.587  16.255   4.084
52003W        W20221   9.256   7.098  14.315
52004W        W20222  23.519   9.898  13.414
52005W        W20223  36.011  36.339   3.657
52006W        W20224  19.252  32.267  10.284
52007W        W20225   0.808  41.360  11.120
52008W        W20226  21.684  30.124   0.969
52009W        W20227   5.938  43.701   5.295
52010W        W20228   8.303  13.855  14.396
52011W        W20229  30.261   1.810   4.162
52012W        W20230  20.084  26.646   3.809
52013W        W20231  40.557   3.397  10.321
52014W        W20232  11.008  42.998   3.556
52015W        W20233  31.961  43.022   4.053
52016W        W20234  27.262  36.451   0.250
52017W        W20235   3.087   7.496   0.329
52018W        W20236  27.974  43.681  14.332
52019W        W20237  27.966   2.874   1.393
52020W        W20238  19.883  30.274  11.451
52021W        W20239  43.716  14.279  13.000
52022W        W20240  30.190  15.613   0.993
52023W        W20241  26.569  23.071  13.344
52024W        W20242   8.143   3.904   0.785
52025W        W20243  42.098  37.626  10.579
52026W        W20244   2.717  39.218   3.151
52027W        W20245  38.559  19.108   1.257
52028W        W20246   8.251  36.757  11.163
52029W        W20247  42.108  18.278   3.734
52030W        W20248  18.353  11.117   2.399
52031W        W20249  30.219  11.094   4.562
52032W        W20250   8.872   2.965   3.757
52033W        W20251   0.489  17.416  13.502
52034W        W20252   5.439   1.401   1.904
52035W        W20253  17.590   0.994  11.161
52036W        W20254   7.046  35.561   2.550
52037W        W20255  39.352  31.816  12.703
52038W        W20256  43.918  29.349  10.528
52039W        W20257   4.278  12.764  14.896
52040W        W20258  37.397  12.682  13.906
52041W        W20259  25.675   1.877  14.217
52042W        W20260  37.271  23.480   4.127
52043W        W20261  25.100  35.341   1.434
52044W        W20262  41.575  39.650  11.622
52045W        W20263  12.922  15.807  13.856
52046W        W20264  34.938  19.409  14.260
52047W        W20265   6.974  21.069  13.948
52048W        W20266   3.932  37.747  13.103
52049W        W20267   5.648  34.071   0.255
52050W        W20268  32.397  10.264  10.621
52051W        W20269  27.468  37.560  13.041
52052W        W20270  11.795  43.358  10.644
52053W        W20271  38.756  26.963   1.685
52054W        W20272   9.686  15.222   1.761
52055W        W20273  22.301  42.735   4.933
52056W        W20274  22.954  23.201   3.641
52057W        W20275  35.976  32.582   4.579
52058W        W20276  41.511  43.815   1.806
52059W        W20277  11.638   7.830  12.489
52060W        W20278   2.348  23.119  14.504
52061W        W20279  10.961   2.034   2.604
52062W        W20280   2.711  19.104  13.009
52063W        W20281  17.068  42.523  14.496
52064W        W20282  14.609   2.921  14.236
52065W        W20283  17.927  27.622   4.810
52066W        W20284  27.600  34.422  14.877
52067W        W20285   1.248  13.807   0.091
52068W        W20286   7.175  41.874  10.799
52069W        W20287  13.757  19.748   4.412
52070W        W20288  30.933  29.081   1.714
52071W        W20289   7.845  10.408   2.262
52072W        W20290  25.584  18.508  12.872
52073W        W20291   4.198  13.668  14.311
52074W        W20292   0.861  38.311   4.619
52075W        W20293  26.987   5.838   2.295
52076W        W20294  16.833  30.872  14.984
52077W        W20295  32.953  41.448   3.154
52078W        W20296  13.276  30.451   4.148
52079W        W20297  41.682  17.585  11.678
52080W        W20298  15.192   6.408   4.350
52081W        W20299  23.761  28.484   0.884
52082W        W20300  20.178  26.612  13.068
52083W        W20301  15.598  12.778   2.626
52084W        W20302  35.136   3.307   2.398
52085W        W20303  27.078  13.032  10.613
52086W        W20304  35.232  11.689   3.208
52087W        W20305   2.217  19.155   3.681
52088W        W20306   5.348   5.636  14.743
52089W        W20307  22.573  23.063  14.505
52090W        W20308  19.211   3.484  12.985
52091W        W20309  19.655  19.299  13.106
52092W        W20310  24.133  22.407  11.632
52093W        W20311  43.480  11.340   0.443
52094W        W20312   4.781  19.996   5.051
52095W        W20313  13.313   3.976   2.805
52096W        W20314  38.778   7.405   3.206
52097W        W20315   0.665  35.512  13.625
52098W        W20316  26.213  33.045   3.360
52099W        W20317  28.980   1.355  12.532
52100W        W20318  33.150  17.473  14.499
52101W        W20319  34.353  22.098   3.335
52102W        W20320   5.879   9.194  11.401
52103W        W20321  18.249  36.503  13.988
52104W        W20322  28.543   2.651  11.516
52105W        W20323  14.429  12.555   3.671
52106W        W20324  29.643  19.579   2.196
52107W        W20325  24.971  37.525   0.431
52108W        W20326  10.371  31.549  12.628
52109W        W20327  21.475  31.403  12.114
52110W        W20328  24.457  33.508   4.044
52111W        W20329   1.751  31.904  12.538
52112W        W20330  39.924  20.656   0.340
52113W        W20331  13.487  41.132  13.058
52114W        W20332  20.235  31.122  10.927
52115W        W20333  31.075  21.195   2.283
52116W        W20334  38.502  12.245  14.067
52117W        W20335   9.460  15.687   1.741
52118W        W20336  34.197   2.718   4.251
52119W        W20337   8.303  23.023   2.361
52120W        W20338  25.201  19.013  10.515
52121W        W20339  13.174  21.255  13.174
52122W        W20340  36.870  16.530   3.193
52123W        W20341   0.649  37.428  13.852
52124W        W20342   5.180  29.649   3.301
52125W        W20343  36.318  19.965   2.104
52126W        W20344   5.451  41.479  13.934
52127W        W20345  12.614   6.389   3.930
52128W        W20346  40.281  40.483   0.781
52129W        W20347  33.626   6.612   1.269
52130W        W20348  15.204  20.558   1.405
52131W        W20349   6.648   3.886  10.896
52132W        W20350  18.237  11.503   4.624
52133W        W20351   1.419  31.573  14.847
52134W        W20352  32.909   5.882   5.017
52135W        W20353  22.076   2.713  11.486
52136W        W20354  22.772  13.277   0.290
52137W        W20355  31.489  10.450   1.644
52138W        W20356  10.136  40.291  12.505
52139W        W20357  35.506   4.860  12.524
52140W        W20358  36.525  42.465   2.765
52141W        W20359  31.743  34.870   0.404
52142W        W20360  27.229  28.654  11.948
52143W        W20361   5.324  18.593  14.683
52144W        W20362  26.868  18.599  12.992
52145W        W20363   3.687  22.954  14.762
52146W        W20364  11.530  18.968   9.971
52147W        W20365  38.825  32.555   1.840
52148W        W20366   2.676  28.059  14.641
52149W        W20367  13.627  44.526   4.108
52150W        W20368   0.394  12.394  11.385
52151W        W20369  21.902   1.399   0.421
52152W        W20370  13.695  18.425   4.118
52153W        W20371  33.675   7.845  11.037
52154W        W20372  44.386   5.945   0.873
52155W        W20373  41.451  30.657   4.567
52156W        W20374  31.252  23.780   1.353
52157W        W20375  41.377  18.520  14.488
52158W        W20376   9.203  43.356   9.788
52159W        W20377   5.119   3.698   1.676
52160W        W20378  12.253   9.801  12.375
52161W        W20379  27.813   4.081   1.728
52162W        W20380  44.856  36.114   2.608
52163W        W20381  40.481  31.462   1.827
52164W        W20382  27.496  38.127  12.151
52165W        W20383  27.660  42.920  14.599
52166W        W20384  25.728  28.166   5.141
52167W        W20385  35.918   1.544   4.581
52168W        W20386  21.192  41.889  12.896
52169W        W20387  24.023  17.614  11.551
52170W        W20388  36.822   8.836   0.292
52171W        W20389  24.292   2.489   1.354
52172W        W20390   2.285  30.769   2.695
52173W        W20391  44.344  30.459  14.097
52174W        W20392  24.521  18.266   4.639
52175W        W20393  27.962   4.415  12.657
52176W        W20394  20.825  32.412   0.474
52177W        W20395  16.057  41.928   2.847
52178W        W20396   7.097  37.368   3.333
52179W        W20397  17.814  25.626   1.966
52180W        W20398  40.772  21.433  11.650
52181W        W20399   8.300  34.611   4.504
52182W        W20400  21.131  22.943   1.884
52183W        W20401  24.775   4.215   0.380
52184W        W20402   5.588   8.213  13.080
52185W        W20403   4.411  44.315   3.122
52186W        W20404  16.289  16.706   0.766
52187W        W20405   4.387  22.954   0.288
52188W        W20406  44.988  20.358   4.111
52189W        W20407   4.789   1.339   1.299
52190W        W20408  13.822  25.411  11.589
52191W        W20409   3.937  11.782  11.282
52192W        W20410  16.319   1.250   0.556
52193W        W20411   6.231  39.798  14.335
52194W        W20412  43.484  23.630   1.282
52195W        W20413  24.119  44.907  14.387
52196W        W20414  12.768  17.574  13.391
52197W        W20415  29.894   0.294  13.402
52198W        W20416  28.943  42.462   3.669
52199W        W20417  36.028  30.712  12.357
52200W        W20418   8.330  35.385   4.840
52201W        W20419  31.905  33.376  14.554
52202W        W20420   8.365  35.402  14.411
52203W        W20421   6.202  13.645   2.805
52204W        W20422   6.271  42.056  12.277
52205W        W20423  14.715  17.582   0.761
52206W        W20424   7.841  37.490   5.062
52207W        W20425   9.725  34.072   2.355
52208W        W20426   5.296  38.457   2.305
52209W        W20427  16.979   3.073  13.957
52210W        W20428  25.041  29.808  10.786
52211W        W20429   2.891  23.441   3.153
52212W        W20430  26.541  29.038  14.600
52213W        W20431  10.456  27.282   3.164
52214W        W20432  20.973  38.316   0.242
52215W        W20433   0.683  27.467  10.738
52216W        W20434  21.047   0.828   2.189
52217W        W20435   3.382   2.179   2.945
52218W        W20436  36.441  35.530   3.627
52219W        W20437  27.196  42.817   2.235
52220W        W20438   8.828  36.440   0.490
52221W        W20439   1.671  25.126  14.337
52222W        W20440  10.851  21.496  14.308
52223W        W20441  27.927  26.750   3.359
52224W        W20442  16.788  17.180  11.440
52225W        W20443  30.862  23.072  12.923
52226W        W20444   0.595  39.769  12.637
52227W        W20445  23.093  21.486  12.979
52228W        W20446  25.187  24.702  14.269
52229W        W20447  29.101   8.918   4.615
52230W        W20448  25.379  21.488  13.587
52231W        W20449  20.266  30.020   4.870
52232W        W20450   2.367  10.116   5.203
52233W        W20451   3.721  31.083   0.805
52234W        W20452  36.013  39.501  10.601
52235W        W20453   8.350  17.153  12.579
52236W        W20454  40.328  13.308  13.809
52237W        W20455  44.028  32.691   0.911
52238W        W20456   3.465  41.705  11.238
52239W        W20457  15.943  35.787   3.734
52240W        W20458  44.134  30.935   2.316
52241W        W20459  25.152  29.679   0.425
52242W        W20460   7.708  27.042  12.786
52243W        W20461  25.546  22.051  14.734
52244W        W20462  18.237  39.208  14.880
52245W        W20463  22.280  16.663  10.352
52246W        W20464  14.316   8.443   3.479
52247W        W20465  39.241  33.997  11.652
52248W        W20466  43.483  28.525   3.832
52249W        W20467  12.315  24.077  12.088
52250W        W20468  42.503   3.796  11.033
52251W        W20469   5.008  15.244  13.599
52252W        W20470  37.268  37.554  12.950
52253W        W20471  35.414  38.317   0.812
52254W        W20472   6.891  26.935   0.901
52255W        W20473  31.960  23.428  12.470
52256W        W20474  28.064  22.417  13.054
52257W        W20475  23.978  28.236   3.138
52258W        W20476  34.845  38.339   0.293
52259W        W20477   7.118  20.142  11.991
52260W        W20478  44.765  38.564  13.763
52261W        W20479  35.232  26.492  10.278
52262W        W20480  20.102  40.412   2.525
52263W        W20481  24.202   3.872   1.846
52264W        W20482  32.974   6.207   2.645
52265W        W20483  13.203   8.434   3.564
52266W        W20484  22.861  23.247  13.897
52267W        W20485  17.223   3.786  10.587
52268W        W20486  28.138   8.255   1.859
52269W        W20487  26.493  43.252  10.361
52270W        W20488  18.027   1.265  11.054
52271W        W20489  29.187  18.587   1.868
52272W        W20490  22.035  38.539   3.542
52273W        W20491   5.430  25.418  10.625
52274W        W20492  18.520   9.350  14.308
52275W        W20493  26.569  42.117   1.428
52276W        W20494  12.766   1.041   4.797
52277W        W20495  40.824   4.747   0.314
52278W        W20496   7.317  33.211  14.740
52279W        W20497   2.227   3.872  13.907
52280W        W20498  43.031   4.411  11.539
52281W        W20499  14.084  20.002   1.815
52282W        W20500  32.612  21.312  11.896
52283W        W20501   3.355  11.309   1.428
52284W        W20502   9.255  44.648  14.921
52285W        W20503  22.086  35.935   2.925
52286W        W20504  11.268  10.429   2.630
52287W        W20505  19.415  12.249   0.890
52288W        W20506  18.163  31.065  12.209
52289W        W20507   7.605   7.096   4.335
52290W        W20508  11.129   4.738   1.313
52291W        W20509   7.464  21.762  13.343
52292W        W20510  18.281   7.693  14.678
52293W        W20511  39.249  21.265  13.089
52294W        W20512  27.100  33.067  11.942
52295W        W20513  36.261  28.153   0.901
52296W        W20514  40.632   9.818   4.701
52297W        W20515  33.971  40.480  11.796
52298W        W20516  15.820  18.702   0.919
52299W        W20517  23.593  13.248   4.230
52300W        W20518  33.629  28.195  13.175
52301W        W20519  29.913  17.707  12.515
52302W        W20520   6.267  37.951   0.328
52303W        W20521  15.019   5.778   3.717
52304W        W20522  39.497  39.981   0.980
52305W        W20523   8.037   9.758   4.531
52306W        W20524  35.061  22.704  14.454
52307W        W20525  21.755  16.046   3.171
52308W        W20526  36.787   3.977  13.874
52309W        W20527   7.071  34.055  14.589
52310W        W20528  29.394  30.882   0.347
52311W        W20529  37.120  11.338  12.825
52312W        W20530  25.117  32.333  13.451
52313W        W20531  26.142  36.784  11.217
52314W        W20532  43.977  35.955   0.421
52315W        W20533  12.214  31.905  11.797
52316W        W20534   9.570  22.556   1.961
52317W        W20535  10.848   3.375   3.754
52318W        W20536  22.141   9.628  13.723
52319W        W20537  25.303  33.606   4.674
52320W        W20538   9.571  16.855   3.674
52321W        W20539   5.651  13.201  13.139
52322W        W20540  43.439  23.624   4.009
52323W        W20541  26.977  14.653  14.914
52324W        W20542  38.833  32.460  13.785
52325W        W20543  38.288  28.514   1.252
52326W        W20544  12.328  15.791   3.533
52327W        W20545   1.434  44.395   3.831
52328W        W20546  25.483   8.886   2.324
52329W        W20547  32.804  33.351  11.127
52330W        W20548  26.216   6.122   1.776
52331W        W20549  16.529  20.111   2.081
52332W        W20550  25.928  40.427   4.202
52333W        W20551  38.538   2.953   3.786
52334W        W20552   9.198  28.684  11.168
52335W        W20553  39.638   4.027   4.538
52336W        W20554  25.886   9.453  11.014
52337W        W20555  27.685  24.018  13.482
52338W        W20556  38.440  19.122   2.691
52339W        W20557  18.216  15.492   3.580
52340W        W20558  36.318  30.391   1.365
52341W        W20559  38.564  31.113   4.187
52342W        W20560   5.859   2.921  11.154
52343W        W20561  33.916  22.036   3.694
52344W        W20562  40.570   5.840   4.484
52345W        W20563  40.477   1.907   4.185
52346W        W20564  27.724  38.401   1.538
52347W        W20565  31.297  35.029  14.521
52348W        W20566   5.359   8.136   1.885
52349W        W20567  43.335  43.702  14.830
52350W        W20568  16.489  34.604  13.339
52351W        W20569  34.413  34.855  14.807
52352W        W20570   4.706  11.064  14.404
52353W        W20571  11.344  28.151  13.030
52354W        W20572  33.885  43.394   3.302
52355W        W20573   0.766  12.696  11.615
52356W        W20574  20.651  12.618   2.780
52357W        W20575  23.515   5.412  13.437
52358W        W20576  19.256  42.652   0.917
52359W        W20577  44.364  10.349   2.102
52360W        W20578  17.022  29.513   4.173
52361W        W20579  41.222   7.668  12.972
52362W        W20580  31.525   9.192   4.639
52363W        W20581  12.863   4.252   2.180
52364W        W20582   4.119  10.173   1.693
52365W        W20583  39.026  23.563   2.235
52366W        W20584  43.883  30.166  14.208
52367W        W20585   8.083  20.516   0.328
52368W        W20586   9.227  12.081  13.613
52369W        W20587  11.273  44.416   1.903
52370W        W20588  33.162  13.850   1.906
52371W        W20589  15.257  41.445  11.274
52372W        W20590  16.626  40.110  12.573
52373W        W20591   7.313  26.651   1.009
52374W        W20592  35.564  30.717  11.514
52375W        W20593  36.045  29.984  11.439
52376W        W20594  30.167  33.093  14.268
52377W        W20595   7.380   9.835   2.559
52378W        W20596   8.349  26.223   0.830
52379W        W20597  39.658  13.839   1.737
52380W        W20598  28.669  38.069  11.256
52381W        W20599   1.346  36.045  13.354
52382W        W20600  30.913   5.265  14.046
52383W        W20601  41.112   2.914   4.000
52384W        W20602  33.486   1.533  13.346
52385W        W20603  18.705  21.623  14.357
52386W        W20604   7.777   5.312   3.907
52387W        W20605  17.196  33.989  11.869
52388W        W20606  42.120   6.970   4.405
52389W        W20607  34.690  33.559   1.934
52390W        W20608  32.509   8.133   2.330
52391W        W20609  17.906  42.379  14.789
52392W        W20610  28.240   0.449  14.057
52393W        W20611  22.766   1.997  12.024
52394W        W20612  33.166  19.302  12.469
52395W        W20613  18.317  19.578  10.950
52396W        W20614  36.445  30.430  12.473
52397W        W20615  25.105  31.968   4.637
52398W        W20616   9.567   2.275  12.054
52399W        W20617  23.413  36.452   0.071
52400W        W20618  29.480   2.758   4.186
52401W        W20619  27.099  32.181  10.133
52402W        W20620  35.477  23.485   4.640
52403W        W20621  23.755   7.196  10.989
52404W        W20622  38.346  23.985  13.076
52405W        W20623  15.327  41.520   4.973
52406W        W20624  38.855  33.001  14.156
52407W        W20625  23.594  29.926  10.192
52408W        W20626  35.268  37.487   2.658
52409W        W20627  11.923  19.268  13.531
52410W        W20628  21.079  27.735   3.796
52411W        W20629  42.447   9.695   2.188
52412W        W20630   5.939  40.517   5.557
52413W        W20631  23.087  39.455   0.839
52414W        W20632  15.102  10.859  10.860
52415W        W20633  41.304  34.504   0.263
52416W        W20634  20.427  27.129  12.511
52417W        W20635  44.864   3.996  13.824
52418W        W20636   3.343  44.538  10.186
52419W        W20637  41.517  24.738   1.834
52420W        W20638  41.484  26.591   1.493
52421W        W20639  19.088  21.797   0.195
52422W        W20640  36.065  25.676   2.370
52423W        W20641  13.323  13.875   0.194
52424W        W20642  31.952  38.564   4.557
52425W        W20643  14.421   0.806   4.094
52426W        W20644  11.799  43.999   3.533
52427W        W20645  22.766  15.944   1.077
52428W        W20646  21.372  36.925   5.012
52429W        W20647  13.903  37.860  11.048
52430W        W20648  28.883   8.465   4.707
52431W        W20649  12.571   7.248   1.592
52432W        W20650   5.074  22.614   3.999
52433W        W20651  28.940  23.712  12.121
52434W        W20652   2.839  24.474   2.385
52435W        W20653   3.569  25.582  11.645
52436W        W20654   3.983  39.239  12.659
52437W        W20655  26.479  14.727  14.830
52438W        W20656  35.943  28.882   3.764
52439W        W20657  38.179  27.646   0.802
52440W        W20658  15.072  35.073   2.151
52441W        W20659   4.917  43.764   3.353
52442W        W20660  34.878  27.616  12.375
52443W        W20661  24.150  33.106  13.040
52444W        W20662  17.612  15.387   3.049
52445W        W20663  18.346  39.448  11.565
52446W        W20664  32.094  34.183   4.064
52447W        W20665  43.310  16.954   3.984
52448W        W20666  11.889  43.982  13.859
52449W        W20667  20.939   6.770   1.481
52450W        W20668  31.218  42.971   2.934
52451W        W20669   6.156  21.737  11.001
52452W        W20670  20.003  34.409  11.593
52453W        W20671  38.102  21.087   3.888
52454W        W20672   2.029  18.784  12.544
52455W        W20673  17.571  38.115   0.302
52456W        W20674  25.988  22.189  12.917
52457W        W20675  20.333  20.772  14.280
52458W        W20676   8.401  31.056   3.822
52459W        W20677  34.122  21.446  13.430
52460W        W20678  19.279  27.446  12.135
52461W        W20679  42.466   2.944   1.050
52462W        W20680  39.777  19.510   0.481
52463W        W20681  15.205  21.347  13.888
52464W        W20682   9.301  14.993   0.985
52465W        W20683  13.413  37.774  11.177
52466W        W20684  39.118  36.561   0.722
52467W        W20685  39.960   3.828  13.358
52468W        W20686   7.137   8.285   3.093
52469W        W20687  33.017  32.025   2.413
52470W        W20688  19.460  29.486   4.045
52471W        W20689   3.420  18.282   4.587
52472W        W20690  37.423  10.897  10.656
52473W        W20691  24.686  27.622  12.503
52474W        W20692  18.855  18.759  14.884
52475W        W20693  26.575   5.535   5.019
52476W        W20694  15.282  42.930  10.599
52477W        W20695  26.982  42.395   4.632
52478W        W20696  20.250   8.744  14.552
52479W        W20697  37.619  19.795   2.681
52480W        W20698  11.063  40.665  11.992
52481W        W20699  26.550  24.254  12.153
52482W        W20700  37.124  17.476  12.825
52483W        W20701  13.009  17.983  10.838
52484W        W20702  22.135  22.121   3.072
52485W        W20703  35.049  37.105   4.924
52486W        W20704  27.642  11.335  12.565
52487W        W20705  26.251  29.339   0.093
52488W        W20706  41.832  26.386  11.246
52489W        W20707  31.224  44.660   1.211
52490W        W20708  32.489   0.803  13.649
52491W        W20709  36.926   1.448   2.398
52492W        W20710  13.768  42.828  10.640
52493W        W20711  21.082  34.922   3.233
52494W        W20712   7.998  37.398   4.566
52495W        W20713   6.788   4.854  14.039
52496W        W20714  35.462  29.050   0.139
52497W        W20715  43.575   9.290   0.505
52498W        W20716  35.749   7.586  13.809
52499W        W20717  39.051  11.710  12.968
52500W        W20718   6.459  11.381   0.562
52501W        W20719  40.502  11.851   4.428
52502W        W20720  24.162  19.415   0.328
52503W        W20721  36.710  39.498  13.382
52504W        W20722  44.840  18.698   1.615
52505W        W20723  25.765  27.806   4.342
52506W        W20724  33.006  33.418   4.628
52507W        W20725  43.769  29.246  12.978
52508W        W20726  10.473  33.317  12.463
52509W        W20727  19.507  44.528   1.833
52510W        W20728   4.699   2.385  10.464
52511W        W20729  15.838  37.486   3.131
52512W        W20730  13.091  43.993  11.646
52513W        W20731   7.415   3.980  12.044
52514W        W20732  40.973  18.889  10.721
52515W        W20733  34.051  18.215  12.539
52516W        W20734  27.655  43.921  11.590
52517W        W20735  22.232  15.930   1.749
52518W        W20736   5.686  27.503   2.887
52519W        W20737  17.738   0.203  11.689
52520W        W20738   4.745  36.797   0.423
52521W        W20739   1.628   6.605  12.052
52522W        W20740  15.824  24.404   4.123
52523W        W20741   9.089  32.811  11.659
52524W        W20742  35.810   3.762   4.781
52525W        W20743  36.766  23.430   4.206
52526W        W20744  10.924  36.641   1.872
52527W        W20745  32.327   6.163   3.896
52528W        W20746  31.913   4.480   1.950
52529W        W20747  13.612  20.157   0.832
52530W        W20748  30.502  34.093   2.816
52531W        W20749   5.319  13.286  12.060
52532W        W20750  44.097  41.286   2.837
52533W        W20751   2.364   9.636   4.634
52534W        W20752   8.605   2.420  12.324
52535W        W20753  37.528  26.129  12.868
52536W        W20754  31.152  21.715   2.325
52537W        W20755  19.091  19.220   3.302
52538W        W20756  33.101  32.490  14.021
52539W        W20757  24.139  43.300  10.541
52540W        W20758  12.352  26.203   0.914
52541W        W20759  27.254   7.702   4.680
52542W        W20760  17.564  36.046   0.577
52543W        W20761  33.329  28.535  13.456
52544W        W20762   0.836   0.459  11.679
52545W        W20763  34.948  25.284   0.547
52546W        W20764   8.799  38.968  12.483
52547W        W20765  35.986   1.874   0.086
52548W        W20766  38.024  44.677  10.205
52549W        W20767  14.329  38.546   3.127
52550W        W20768  40.953   1.478   1.818
52551W        W20769   7.681  24.620   0.396
52552W        W20770  35.928  44.924   2.682
52553W        W20771   5.463  40.420  12.138
52554W        W20772  34.965  27.865   1.317
52555W        W20773   7.447  20.019   1.246
52556W        W20774  20.763   8.785  11.319
52557W        W20775  23.728  15.189  13.616
52558W        W20776  23.603  14.363   2.806
52559W        W20777  10.171  34.555  14.004
52560W        W20778   2.192  20.529   4.788
52561W        W20779  34.392  16.663   4.133
52562W        W20780  40.157  39.783   2.797
52563W        W20781  37.578  37.794   4.913
52564W        W20782  35.116  10.978   0.767
52565W        W20783  28.992  34.630  14.643
52566W        W20784  26.230  19.798  13.512
52567W        W20785  27.755  31.135   4.058
52568W        W20786  39.426  28.123   4.095
52569W        W20787  39.690  26.950   4.490
52570W        W20788   1.233  43.167   3.175
52571W        W20789  13.247  37.301   2.259
52572W        W20790  30.300  30.108   0.432
52573W        W20791  21.897  32.295   4.384
52574W        W20792  27.117   3.870   1.260
52575W        W20793  28.832  30.999  12.794
52576W        W20794  40.911  13.830  12.518
52577W        W20795  21.696   6.355  12.953
52578W        W20796  20.489  40.679  12.870
52579W        W20797  24.652  32.375   3.126
52580W        W20798   0.741  38.950  14.949
52581W        W20799  40.293  26.457   4.106
52582W        W20800  29.068  13.493  13.863
52583W        W20801   6.579   9.363  14.935
52584W        W20802  21.763   3.910  13.182
52585W        W20803  27.022  28.656  13.787
52586W        W20804   4.877  17.449   2.732
52587W        W20805  18.646  18.613  11.767
52588W        W20806  34.251  38.394   2.732
52589W        W20807  18.026  18.584  11.051
52590W        W20808   4.545  17.113   3.480
52591W        W20809  14.703  31.399   2.896
52592W        W20810  23.492  40.036   2.478
52593W        W20811  25.156  25.642   0.759
52594W        W20812  29.238  22.174   2.314
52595W        W20813  40.050  44.932  13.385
52596W        W20814  11.674  36.871  12.553
52597W        W20815  25.669  43.900   1.689
52598W        W20816  32.700  35.108   0.195
52599W        W20817  35.317  20.350  14.790
52600W        W20818  15.875  19.754  11.148
52601W        W20819   1.264   8.747  12.644
52602W        W20820  11.846  32.747  11.139
52603W        W20821  29.648  35.604  14.889
52604W        W20822   3.376   9.482  11.520
52605W        W20823  32.680  35.413  10.439
52606W        W20824  18.147  37.675  11.081
52607W        W20825  26.148   6.035  12.478
52608W        W20826  30.752   4.821   2.235
52609W        W20827   4.133  37.195   2.848
52610W        W20828  18.528  31.809  12.497
52611W        W20829  17.315  31.030  12.342
52612W        W20830  19.643  27.168   2.289
52613W        W20831  24.649  35.364   3.838
52614W        W20832  11.820  30.689   1.739
52615W        W20833  23.310  10.964   3.603
52616W        W20834   7.399  34.006   4.610
52617W        W20835  13.891   6.272  14.802
52618W        W20836  40.846  14.193   0.273
52619W        W20837  14.076   1.304   2.253
52620W        W20838  22.276  38.228  12.932
52621W        W20839  16.831  38.146  13.427
52622W        W20840   4.414  34.545   1.764
52623W        W20841  44.437  10.678   4.864
52624W        W20842  12.579  21.673   1.916
52625W        W20843  20.605  39.951  11.545
52626W        W20844   0.875  28.062   4.196
52627W        W20845  28.425   6.262   4.608
52628W        W20846  26.488  28.506  13.309
52629W        W20847  15.586  20.617   3.195
52630W        W20848  31.122  30.108  10.986
52631W        W20849  19.918  39.576   4.203
52632W        W20850  27.778  24.600   2.034
52633W        W20851  38.394  23.229   0.819
52634W        W20852  34.187  20.298  12.003
52635W        W20853   7.561  18.758  13.920
52636W        W20854  40.865   3.907  11.468
52637W        W20855  36.904  20.512  11.577
52638W        W20856  22.541   5.741  14.418
52639W        W20857  38.597  40.562  12.601
52640W        W20858  34.746  22.622  10.436
52641W        W20859   6.273  20.238   4.407
52642W        W20860  13.174  14.336   3.285
52643W        W20861   7.773  28.870  13.863
52644W        W20862  24.268   7.301   4.214
52645W        W20863  37.548   8.618   3.057
52646W        W20864  15.193  29.955   3.681
52647W        W20865  34.545  40.439   0.092
52648W        W20866   9.359  35.825  13.757
52649W        W20867   3.409  29.598   3.799
52650W        W20868  27.624  44.594   4.504
52651W        W20869   1.544  21.509   1.905
52652W        W20870  15.441  20.715  11.105
52653W        W20871   1.292  35.122  13.461
52654W        W20872  10.884   8.251   3.101
52655W        W20873  18.341   9.804  11.492
52656W        W20874  34.811  25.827   2.805
52657W        W20875  13.660   3.652  14.806
52658W        W20876  40.894  12.096   2.281
52659W        W20877   0.081  36.194   3.055
52660W        W20878   1.813  30.455   0.663
52661W        W20879  19.953  41.305  13.063
52662W        W20880  11.676   1.692  12.372
52663W        W20881  13.963  17.528  13.323
52664W        W20882  20.122  20.785   1.276
52665W        W20883   3.798  41.288   1.751
52666W        W20884  30.435  29.728   0.778
52667W        W20885   4.280  26.180  10.765
52668W        W20886  27.881  41.979   3.191
52669W        W20887  34.235  36.174   1.016
52670W        W20888  26.458   5.548   1.730
52671W        W20889  12.344  20.669  13.364
52672W        W20890   9.749  20.479   0.866
52673W        W20891  41.826  21.965  11.133
52674W        W20892  16.172  29.013  13.311
52675W        W20893   4.592  20.438   0.449
52676W        W20894  40.194  27.076   4.693
52677W        W20895   4.952  31.025  12.092
52678W        W20896  42.296  12.600  12.556
52679W        W20897  18.608  15.097  13.176
52680W        W20898  25.990  13.440  14.939
52681W        W20899  18.690  15.565  11.922
52682W        W20900  19.585  42.053   4.882
52683W        W20901   4.035   2.681  11.623
52684W        W20902  44.178  19.041  12.333
52685W        W20903   6.400  34.869   5.075
52686W        W20904   3.341  15.943   4.167
52687W        W20905  31.679   2.665  14.582
52688W        W20906   2.234  17.117   1.987
52689W        W20907  43.864  27.436   4.493
52690W        W20908  13.984  40.526  12.459
52691W        W20909  16.333  20.324  14.765
52692W        W20910  11.726   7.022  13.992
52693W        W20911  20.260  13.794  12.078
52694W        W20912  35.913  32.638  13.141
52695W        W20913  36.019  36.100  13.448
52696W        W20914   8.163  43.801   2.462
52697W        W20915  37.937  22.836  12.433
52698W        W20916  27.465  42.028  14.288
52699W        W20917  13.995  30.651  10.693
52700W        W20918  30.467  32.816  13.935
52701W        W20919  30.119   6.098  11.588
52702W        W20920   0.922  33.081  13.303
52703W        W20921  44.080   0.012   4.028
52704W        W20922  23.254   1.523   1.391
52705W        W20923  15.597  32.064   3.838
52706W        W20924  12.671  20.408  11.779
52707W        W20925   8.003   0.968   4.634
52708W        W20926  11.308  10.968  14.916
52709W        W20927   6.418  21.838  14.898
52710W        W20928   2.874   2.239  13.421
52711W        W20929  28.453   4.329   4.146
52712W        W20930  17.474  39.248   4.626
52713W        W20931  36.421  30.191  11.160
52714W        W20932  26.220  24.612  14.831
52715W        W20933  19.581   7.404  13.413
52716W        W20934  27.524   9.176   4.772
52717W        W20935  30.035  36.311  11.587
52718W        W20936  30.023  31.143  10.622
52719W        W20937  15.893   1.510   0.861
52720W        W20938   1.767  15.496  12.873
52721W        W20939  24.088  40.310   0.333
52722W        W20940  24.719  19.172  14.095
52723W        W20941  23.549  32.487   3.692
52724W        W20942   0.272  16.565  11.392
52725W        W20943  21.258   7.340   3.182
52726W        W20944  40.309  36.055  13.888
52727W        W20945  11.415  44.739   2.656
52728W        W20946  24.022  19.516  11.425
52729W        W20947  18.700  26.163   2.752
52730W        W20948  43.879  25.662   1.175
52731W        W20949  13.215  25.771   1.260
52732W        W20950  23.661  14.609  12.436
52733W        W20951  29.573  39.730   1.473
52734W        W20952   8.702  22.050  13.093
52735W        W20953  29.394   2.266   3.348
52736W        W20954  43.100   7.802   4.758
52737W        W20955  31.969   7.151  12.934
52738W        W20956  40.083  33.404   3.271
52739W        W20957  29.229  26.787  14.134
52740W        W20958  23.628   8.733  14.741
52741W        W20959  36.475  23.978   3.831
52742W        W20960   2.737  26.598   4.090
52743W        W20961  21.509   9.180   4.660
52744W        W20962  18.015  34.531   4.201
52745W        W20963   3.317   8.869  10.656
52746W        W20964  27.554  16.098   0.481
52747W        W20965  30.784  28.190   4.100
52748W        W20966  21.607  43.460  11.424
52749W        W20967  41.977   3.851  10.970
52750W        W20968  18.203  35.015   2.267
52751W        W20969  35.980   3.199  13.135
52752W        W20970   5.348  20.222  13.907
52753W        W20971   7.928  31.128   3.161
52754W        W20972   0.118  24.344   2.198
52755W        W20973   7.963  19.627   1.663
52756W        W20974  23.405  41.919  12.183
52757W        W20975  25.358   2.324   1.883
52758W        W20976   4.946  39.336  14.592
52759W        W20977  30.992   4.425   0.969
52760W        W20978  44.571   6.835   1.940
52761W        W20979  21.059  32.451  12.874
52762W        W20980   5.025  38.049   0.312
52763W        W20981  19.039   4.797   0.427
52764W        W20982  17.612  14.802  11.423
52765W        W20983   7.844  36.334   0.287
52766W        W20984  17.718  37.356  11.146
52767W        W20985   1.190  28.041   2.882
52768W        W20986   4.217  32.866  13.893
52769W        W20987   6.224  27.141  12.476
52770W        W20988  19.822  17.566   3.230
52771W        W20989  21.461  35.938  12.025
52772W        W20990  27.547   0.550  13.315
52773W        W20991  19.648  33.235  10.379
52774W        W20992   0.184  40.649   1.820
52775W        W20993   9.313  37.772  14.980
52776W        W20994  11.684  26.469  14.363
52777W        W20995   8.087  19.339  14.337
52778W        W20996  37.851   7.138   3.084
52779W        W20997  26.879  38.783   1.742
52780W        W20998  26.768  21.027  14.987
52781W        W20999  26.615   3.027   4.965
52782W        W21000  17.730  22.561  11.666
52783W        W21001  44.412   9.168  10.628
52784W        W21002  18.018  35.559  11.627
52785W        W21003  32.008  38.604  14.326
52786W        W21004   2.826  14.143   4.533
52787W        W21005  17.518  42.917   0.676
52788W        W21006  14.799  13.729   0.652
52789W        W21007   8.377  38.145  14.260
52790W        W21008  44.856   3.694  14.244
52791W        W21009  14.326   2.983   4.733
52792W        W21010  24.461  39.963  12.329
52793W        W21011  36.831  31.979  12.262
52794W        W21012  21.735  17.293   4.727
52795W        W21013  21.095  25.223  13.326
52796W        W21014  21.852  38.516  11.790
52797W        W21015  36.318   7.827   2.680
52798W        W21016  38.944  38.147   1.179
52799W        W21017  21.055  29.868   3.290
52800W        W21018  14.705  41.285   0.500
52801W        W21019  25.966  41.944   4.335
52802W        W21020  19.686  28.632  14.535
52803W        W21021  42.911   7.718  12.711
52804W        W21022  35.170  19.625   1.776
52805W        W21023  44.741  34.053   1.321
52806W        W21024  43.332  29.563  13.011
52807W        W21025  43.540  13.269  12.605
52808W        W21026  38.116  40.835  13.789
52809W        W21027  20.789  16.678   0.897
52810W        W21028  21.522  12.158   3.973
52811W        W21029  33.081  33.919   2.582
52812W        W21030  31.545   7.716  11.425
52813W        W21031  10.604  39.221   3.690
52814W        W21032  13.586  36.815  12.372
52815W        W21033  25.027  25.648  14.714
52816W        W21034  30.045   1.310   1.778
52817W        W21035  35.990  39.966  13.031
52818W        W21036  16.719  17.110   3.613
52819W        W21037  15.599  32.818  11.089
52820W        W21038  23.964  39.413  14.822
52821W        W21039   0.673  36.433  13.599
52822W        W21040  17.371  33.584  12.553
52823W        W21041  43.793  13.788  10.641
52824W        W21042  11.555   5.932   4.132
52825W        W21043  16.230  34.535  10.652
52826W        W21044  31.985  31.140   3.071
52827W        W21045  19.148  30.530  12.561
52828W        W21046  10.598  41.018   4.118
52829W        W21047  20.307  30.048   1.290
52830W        W21048   8.688   8.610   4.050
52831W        W21049  35.200  34.189  12.814
52832W        W21050  40.056   3.222   1.867
52833W        W21051   2.162  21.474  12.696
52834W        W21052  37.382  31.650   4.328
52835W        W21053   7.336  41.009  13.334
52836W        W21054  32.105  18.186   2.800
52837W        W21055   3.313   6.428  11.038
52838W        W21056  12.865  30.990  12.368
52839W        W21057  26.191  12.939  12.104
52840W        W21058  12.614  10.183  11.211
52841W        W21059   5.883  16.220  14.853
52842W        W21060  15.075   0.703   0.409
52843W        W21061  29.149  31.243   0.637
52844W        W21062  43.515   6.688  11.206
52845W        W21063  36.439  21.031   1.238
52846W        W21064   6.818  13.904   1.849
52847W        W21065  42.403  18.686  11.482
52848W        W21066  28.603  36.885   0.408
52849W        W21067  35.861  39.657  14.799
52850W        W21068  30.904  26.431   1.753
52851W        W21069   2.207  33.478  11.712
52852W        W21070  14.235  35.910  12.109
52853W        W21071  24.919  28.032   1.093
52854W        W21072   7.306   5.661  13.888
52855W        W21073  42.862  30.933   0.626
52856W        W21074  15.571  43.843   1.919
52857W        W21075  29.926  16.835   4.333
52858W        W21076  42.496   3.369   0.742
52859W        W21077  35.764  26.520   0.865
52860W        W21078   8.595   0.600  11.682
52861W        W21079  38.550  11.729  13.841
52862W        W21080   3.874   5.433  11.541
52863W        W21081  13.701  10.391   4.209
52864W        W21082   0.207   0.363   1.539
52865W        W21083  25.189  12.753  11.307
52866W        W21084  34.064  19.365  11.191
52867W        W21085   0.680  42.366   1.747
52868W        W21086  31.539  12.723  11.210
52869W        W21087  13.157  30.454   1.758
52870W        W21088  12.427  21.691  14.872
52871W        W21089   9.768  44.015   1.203
52872W        W21090   7.062  34.106   3.134
52873W        W21091   9.369  21.912   1.335
52874W        W21092  26.450  16.209  13.050
52875W        W21093  41.386  34.885  12.939
52876W        W21094  36.782  19.284   4.176
52877W        W21095   8.862  20.562   4.160
52878W        W21096  39.644  39.624   2.353
52879W        W21097  42.287  28.444   1.496
52880W        W21098  35.084   8.081   0.855
52881W        W21099  23.339  36.867  10.339
52882W        W21100  29.650  43.407  12.167
52883W        W21101   6.794  25.129   1.189
52884W        W21102  13.282  39.675  10.274
52885W        W21103   8.153  25.943   0.327
52886W        W21104   1.471   7.709   3.717
52887W        W21105  20.057  35.838   2.283
52888W        W21106  14.805  19.759  11.882
52889W        W21107  23.971  22.241   0.702
52890W        W21108  17.799  40.164  11.614
52891W        W21109  39.849  37.357  13.901
52892W        W21110  23.665  25.461  13.549
52893W        W21111  39.818   0.558  10.762
52894W        W21112  23.971  40.372   3.237
52895W        W21113  21.564  30.939  11.236
52896W        W21114  40.597   9.258   1.588
52897W        W21115  23.444  25.239   0.967
52898W        W21116   8.926  44.571  14.300
52899W        W21117  44.450  40.294  12.585
52900W        W21118  21.768  31.893   1.855
52901W        W21119   8.955  24.959  12.548
52902W        W21120   1.484  29.049  14.665
52903W        W21121  32.909  18.705  10.773
52904W        W21122  31.908  44.788  12.900
52905W        W21123  33.811   3.710  13.001
52906W        W21124  26.555  17.452   3.581
52907W        W21125   2.731  18.760   4.335
52908W        W21126  28.973   3.955  13.365
52909W        W21127  37.619  22.447   1.997
52910W        W21128   5.376  32.133  13.042
52911W        W21129  14.500  24.977  10.558
52912W        W21130   4.275  34.792  14.079
52913W        W21131  38.100  17.248   4.651
52914W        W21132  39.937  35.782  14.780
52915W        W21133  34.279  37.392  13.805
52916W        W21134  37.472  25.542  14.476
52917W        W21135  38.363  32.404  14.020
52918W        W21136  14.363  43.456   0.048
52919W        W21137  40.773  38.268   1.253
52920W        W21138   0.229  29.601   2.281
52921W        W21139  25.566   6.463   2.908
52922W        W21140   3.343  37.665  11.470
52923W        W21141  16.169  43.506   0.716
52924W        W21142   6.377  27.639   0.993
52925W        W21143  13.560  40.972   0.763
52926W        W21144   1.257   6.195   0.711
52927W        W21145  33.126  17.839  13.655
52928W        W21146  26.981  33.553   2.202
52929W        W21147  23.201  44.724  14.850
52930W        W21148   9.087  37.020  12.886
52931W        W21149  16.262  24.857   5.003
52932W        W21150  35.607  28.032  13.399
52933W        W21151  21.948  17.629   1.225
52934W        W21152   0.399  22.555  12.769
52935W        W21153  22.009  37.380  10.926
52936W        W21154  33.761  42.947  10.990
52937W        W21155  32.162  15.769  11.536
52938W        W21156   7.989  28.140  12.393
52939W        W21157  17.348  24.500  11.601
52940W        W21158  29.821  42.087  13.049
52941W        W21159   4.152  23.404  14.347
52942W        W21160  15.683   1.333   4.038
52943W        W21161  32.500   5.547   2.265
52944W        W21162   0.858   5.203   4.964
52945W        W21163  35.127   2.978   0.561
52946W        W21164  19.666   4.443   2.386
52947W        W21165  21.993   1.909  13.860
52948W        W21166  36.811   7.151  12.490
52949W        W21167  19.419  28.016   0.405
52950W        W21168  34.017  12.668   3.872
52951W        W21169  10.311   5.967   0.300
52952W        W21170  39.440  20.634  11.906
52953W        W21171  33.900  39.237  12.572
52954W        W21172  28.186  14.260   0.398
52955W        W21173  20.593  28.964   0.745
52956W        W21174  29.068  37.875   1.701
52957W        W21175  37.242  12.435   1.810
52958W        W21176   6.591  26.695   5.045
52959W        W21177  27.685   6.010  13.536
52960W        W21178   3.419  10.309   4.204
52961W        W21179  16.172  29.952   1.522
52962W        W21180   7.351  36.367   2.790
52963W        W21181  13.632  16.873   1.829
52964W        W21182   3.284  16.627  14.464
52965W        W21183  31.737  44.554   0.352
52966W        W21184  22.026   3.219  11.450
52967W        W21185   2.030  32.189  13.794
52968W        W21186  17.302   8.765  13.468
52969W        W21187  39.886  11.517   1.327
52970W        W21188  28.964  22.442   4.342
52971W        W21189  30.678  34.918  10.717
52972W        W21190  44.247   5.343  13.084
52973W        W21191  41.057  20.551   1.793
52974W        W21192   1.355  18.097  12.505
52975W        W21193  11.214  41.680   1.326
52976W        W21194  39.880  21.603   2.705
52977W        W21195   1.205  11.547  14.872
52978W        W21196  15.569  34.022  11.537
52979W        W21197  21.235  43.085   1.350
52980W        W21198  44.780   4.795   1.322
52981W        W21199  18.063   1.650   2.754
52982W        W21200   5.620  42.536   1.948
52983W        W21201  36.315  15.447  13.415
52984W        W21202  23.173   5.616  11.009
52985W        W21203   8.093   1.687  13.006
52986W        W21204  26.173  11.082   1.399
52987W        W21205   3.897  10.425   4.042
52988W        W21206   1.026  43.966  10.422
52989W        W21207  28.518   2.316  12.299
52990W        W21208  17.380   1.059   1.819
52991W        W21209  29.042  17.061  10.749
52992W        W21210   3.798   6.329   2.385
52993W        W21211  26.053   6.524  12.404
52994W        W21212  19.058  43.013  10.717
52995W        W21213  16.746  31.953   2.371
52996W        W21214  10.073  30.606  14.392
52997W        W21215  11.826  28.880  11.556
52998W        W21216  35.805   1.157   2.320
52999W        W21217  42.094  43.306   1.320
53000W        W21218  13.349  19.160  14.485
53001W        W21219  38.593  42.991   4.665
53002W        W21220   2.408  16.321   2.418
53003W        W21221  34.579   3.296  14.280
53004W        W21222  28.220  20.344  13.860
53005W        W21223   8.925  28.459  13.867
53006W        W21224   3.809   8.141   0.400
53007W        W21225   6.999  44.563  12.859
53008W        W21226  19.037   1.956   1.128
53009W        W21227   4.361  10.434  14.072
53010W        W21228   6.875  33.095   2.391
53011W        W21229  11.714  11.730  12.955
53012W        W21230  17.160  33.832   4.974
53013W        W21231   6.937  24.765   4.927
53014W        W21232  38.472  10.490   1.685
53015W        W21233  28.703  42.853   2.413
53016W        W21234  25.177  19.277   0.853
53017W        W21235   3.629  27.929   2.658
53018W        W21236  34.586  29.667  11.992
53019W        W21237  11.485  15.252  14.684
53020W        W21238  18.178  40.511  11.613
53021W        W21239   0.451  33.219   3.616
53022W        W21240  21.016  39.332   0.831
53023W        W21241  38.952  33.175   3.749
53024W        W21242   5.246  11.340  12.319
53025W        W21243  17.222   6.148  14.481
53026W        W21244  27.600  12.588  13.541
53027W        W21245   8.594  28.733  14.212
53028W        W21246  15.831  27.621  13.274
53029W        W21247  18.537  26.981  12.638
53030W        W21248  35.844  21.396  12.971
53031W        W21249  37.330  26.020   3.244
53032W        W21250   1.048   0.278  14.143
53033W        W21251  19.716  24.100   4.080
53034W        W21252  43.905  41.096  14.010
53035W        W21253  38.566  28.479  13.911
53036W        W21254  12.151   0.226  11.064
53037W        W21255  10.282  38.580   4.150
53038W        W21256  36.227  23.734  10.601
53039W        W21257  26.752  44.828   0.708
53040W        W21258  30.165   8.602   2.632
53041W        W21259  36.982  32.895  12.497
53042W        W21260  11.505  36.495  11.550
53043W        W21261  35.401  20.226  13.422
53044W        W21262  34.492   3.078   9.548
53045W        W21263  26.092  31.154   0.273
53046W        W21264   3.848  15.172   3.265
53047W        W21265  42.898  29.993   3.034
53048W        W21266  35.384   7.757   4.043
53049W        W21267   2.099  18.737  10.678
53050W        W21268  22.445  18.998  14.194
53051W        W21269  22.476  30.512   0.850
53052W        W21270  16.795  23.094  12.966
53053W        W21271  36.999  30.987   2.855
53054W        W21272  44.821  29.272  12.924
53055W        W21273  41.795   6.693  11.224
53056W        W21274  16.128  12.038  13.804
53057W        W21275  35.430  27.740   0.373
53058W        W21276  20.047  43.559  12.094
53059W        W21277  39.107  11.728  13.822
53060W        W21278   0.718  17.609   2.701
53061W        W21279  37.157  28.801   9.870
53062W        W21280  37.640   6.454   0.386
53063W        W21281   9.174   9.800  12.626
53064W        W21282  19.484  37.979  11.002
53065W        W21283  27.438  32.631   2.360
53066W        W21284  39.537  10.911   2.698
53067W        W21285  17.873  14.865   2.213
53068W        W21286   8.346  25.723  12.483
53069W        W21287  33.986  42.330  11.560
53070W        W21288  41.025   5.643  12.973
53071W        W21289  27.913   6.774  14.557
53072W        W21290  35.249  15.558   1.293
53073W        W21291  17.298  35.555   2.183
53074W        W21292  38.061  35.290   1.326
53075W        W21293  12.251   6.248   0.638
53076W        W21294  20.709  20.843   2.833
53077W        W21295  10.399  16.679  11.547
53078W        W21296  16.557  35.863   4.692
53079W        W21297   6.856   6.870  13.846
53080W        W21298   3.139  15.027   0.332
53081W        W21299  33.577   6.320  10.524
53082W        W21300   2.292   8.204  13.002
53083W        W21301  39.826  25.201  13.137
53084W        W21302   1.837  21.820  11.508
53085W        W21303   3.644  12.845   1.281
53086W        W21304   8.893  28.673  12.333
53087W        W21305  38.970  37.415   1.898
53088W        W21306  20.782  17.122   1.802
53089W        W21307  26.090  44.716   3.280
53090W        W21308   1.320  29.692   5.081
53091W        W21309  19.291  27.621   1.405
53092W        W21310  22.646  16.075  10.986
53093W        W21311  28.036  10.121   2.392
53094W        W21312  20.087   7.255   3.217
53095W        W21313  38.384  14.916   4.736
53096W        W21314   0.108   4.892  12.043
53097W        W21315  28.783   7.234   4.370
53098W        W21316  39.197  29.058   3.383
53099W        W21317  42.408   6.710   3.737
53100W        W21318  41.498   8.145   3.883
53101W        W21319  29.825  30.560  12.110
53102W        W21320  28.418  41.667  12.476
53103W        W21321   8.385  44.523   3.380
53104W        W21322   9.281  29.301   2.943
53105W        W21323  42.062  27.398  12.975
53106W        W21324   5.082  29.624  11.988
53107W        W21325  33.007  29.744  10.695
53108W        W21326  20.275   0.386  14.414
53109W        W21327  37.793  14.313  13.335
53110W        W21328  30.030   5.309   2.334
53111W        W21329   9.800  26.068  10.816
53112W        W21330  18.603   3.788  11.225
53113W        W21331  10.651   6.287  12.566
53114W        W21332  14.691   6.309  10.679
53115W        W21333  44.688  14.786  12.464
53116W        W21334  17.678  36.400   4.510
53117W        W21335  14.798  15.680   4.911
53118W        W21336  11.839   4.116  14.075
53119W        W21337  18.142  13.252   0.524
53120W        W21338  17.289  34.069  12.368
53121W        W21339  34.773  20.127   3.071
53122W        W21340   4.180   1.902   4.573
53123W        W21341  35.980   7.764   1.247
53124W        W21342   8.496  34.973  14.718
53125W        W21343  23.425  20.113   2.257
53126W        W21344  12.861  10.385   0.785
53127W        W21345   9.774  10.461   1.658
53128W        W21346  36.529  44.523  14.425
53129W        W21347  11.153  17.724   4.578
53130W        W21348  30.579  37.756  12.995
53131W        W21349  21.529  30.461   1.417
53132W        W21350  42.163  41.364  11.841
53133W        W21351  15.856  36.978   3.261
53134W        W21352   5.600  17.850   3.262
53135W        W21353  44.865  35.683   3.752
53136W        W21354  39.798  39.129   1.378
53137W        W21355  17.000  20.026  13.455
53138W        W21356  16.115  28.719   1.188
53139W        W21357  12.846   4.163  13.503
53140W        W21358  19.420  38.293  14.114
53141W        W21359  12.415  43.316  14.818
53142W        W21360  20.174  32.412  13.302
53143W        W21361  42.888  42.387   4.491
53144W        W21362  15.733  29.293   4.943
53145W        W21363  38.097  18.053  11.203
53146W        W21364  17.773   3.426   3.601
53147W        W21365   7.383   5.723  12.585
53148W        W21366  25.924  20.179   4.550
53149W        W21367   7.626   0.299   4.145
53150W        W21368   6.095  18.102   3.095
53151W        W21369   0.701  14.641  11.009
53152W        W21370  38.009   8.604  10.798
53153W        W21371  14.119   2.862  13.080
53154W        W21372  21.299  25.726  10.705
53155W        W21373  34.949  18.205  12.479
53156W        W21374   9.025  30.567  12.409
53157W        W21375   7.519  15.553  11.140
53158W        W21376   6.338  20.844   0.437
53159W        W21377  31.528  28.380   2.450
53160W        W21378  12.499  13.764  14.999
53161W        W21379  39.631   9.641  14.284
53162W        W21380  43.862  25.275   1.530
53163W        W21381  20.262  31.492  14.284
53164W        W21382  20.513  17.300  14.860
53165W        W21383  10.159  35.581   3.166
53166W        W21384  44.403  34.365   3.368
53167W        W21385  32.110  34.959  12.495
53168W        W21386  11.999  39.993  12.826
53169W        W21387   9.228  31.590   3.357
53170W        W21388  29.936  28.563  11.507
53171W        W21389  31.597  12.182   4.835
53172W        W21390  12.549  18.105  14.461
53173W        W21391  15.568   2.762  13.469
53174W        W21392   0.251  28.999  14.267
53175W        W21393   1.550   7.072   4.693
53176W        W21394  28.160   2.709   0.935
53177W        W21395  28.893  19.866   0.171
53178W        W21396  22.184  26.210  12.838
53179W        W21397  23.754   5.804   3.270
53180W        W21398   5.111  23.510   0.519
53181W        W21399  26.854  30.007  13.363
53182W        W21400   9.199  40.512   3.148
53183W        W21401  25.755   4.216   3.083
53184W        W21402   9.475  34.150   0.286
53185W        W21403  11.821  10.867   3.052
53186W        W21404   4.381  32.378   0.903
53187W        W21405   3.173  21.250   1.227
53188W        W21406  35.939  22.674  12.937
53189W        W21407  20.701  44.325  10.835
53190W        W21408  18.084  20.741   2.214
53191W        W21409   8.228  38.749   3.583
53192W        W21410  42.863  17.785   3.880
53193W        W21411  38.578  43.726   0.855
53194W        W21412  24.431  39.101  13.848
53195W        W21413  10.809  10.992  14.758
53196W        W21414   2.324  27.946   4.837
53197W        W21415  22.249   3.057   2.912
53198W        W21416  20.282  23.433   0.270
53199W        W21417  22.563  12.052   1.477
53200W        W21418  11.850  36.138   2.349
53201W        W21419  36.075  41.785   4.115
53202W        W21420  20.641   6.721  10.740
53203W        W21421  23.696  29.368  12.893
53204W        W21422  18.481   0.269  12.242
53205W        W21423   0.303  42.768  10.692
53206W        W21424  14.444  10.082   4.900
53207W        W21425   3.675   9.657   2.248
53208W        W21426  14.141  27.428   2.387
53209W        W21427  40.012   6.348   3.252
53210W        W21428   8.935  36.339  12.388
53211W        W21429  41.542  21.596   0.433
53212W        W21430  23.932   0.824  11.525
53213W        W21431  36.488  44.896  11.431
53214W        W21432   0.984  19.747  10.800
53215W        W21433  10.221  41.309   0.585
53216W        W21434  15.674  23.540  11.763
53217W        W21435  26.044  29.410   3.712
53218W        W21436  30.193   1.812  10.095
53219W        W21437  11.610  14.604   0.553
53220W        W21438  22.138  24.242   3.054
53221W        W21439  26.094  37.939   2.353
53222W        W21440  28.537  22.861   1.343
53223W        W21441  30.954  24.909  10.512
53224W        W21442  38.970  25.411   1.205
53225W        W21443  19.471  22.302  12.961
53226W        W21444  20.042  20.265   1.280
53227W        W21445  33.855  28.423   3.633
53228W        W21446  17.686  13.464   0.510
53229W        W21447   5.734  28.516  14.006
53230W        W21448  10.896  43.794  11.967
53231W        W21449   5.678  20.618  14.090
53232W        W21450  26.236  12.640   3.176
53233W        W21451  44.304  27.527  11.467
53234W        W21452   9.350  36.383  10.367
53235W        W21453  32.488  23.914   3.591
53236W        W21454   3.356   7.735   4.706
53237W        W21455  22.028  10.241  12.856
53238W        W21456  39.430  21.680  11.742
53239W        W21457  35.478  29.743  13.624
53240W        W21458  36.804   3.838   2.330
53241W        W21459  33.942  23.049  10.479
53242W        W21460  23.760  12.525  11.488
53243W        W21461   5.989  15.791  13.912
53244W        W21462  40.460  11.362  10.558
53245W        W21463  15.694  23.636  14.103
53246W        W21464  16.641  22.747  13.348
53247W        W21465  36.424  13.956   2.229
53248W        W21466   2.977   5.004   0.821
53249W        W21467  17.985  29.842   1.620
53250W        W21468  33.697  16.584   0.139
53251W        W21469  15.288  16.308   4.428
53252W        W21470   8.234   3.815  13.956
53253W        W21471  29.185   4.318  12.078
53254W        W21472  41.884  38.411   2.265
53255W        W21473   5.001  21.596   4.191
53256W        W21474  34.666   6.333   0.295
53257W        W21475  40.930  14.993  13.951
53258W        W21476  31.225  27.496  13.778
53259W        W21477  29.869   3.320  10.023
53260W        W21478  29.444  15.219  12.369
53261W        W21479  19.692  10.022   2.130
53262W        W21480  30.530  34.491   1.723
53263W        W21481  37.537  30.869   2.811
53264W        W21482   0.068  33.557  13.401
53265W        W21483  41.174  43.376   4.242
53266W        W21484  38.016  27.678   2.037
53267W        W21485  29.949  16.885  12.497
53268W        W21486   1.028  30.816   3.157
53269W        W21487  23.465   9.854  14.451
53270W        W21488  43.988  32.093   3.748
53271W        W21489  29.938  35.115   0.835
53272W        W21490   2.831  18.138   2.491
53273W        W21491  23.418  29.040   3.563
53274W        W21492  39.376  35.015   4.136
53275W        W21493   5.723   2.789   3.292
53276W        W21494  21.219  26.064  13.776
53277W        W21495  34.964  30.513  14.902
53278W        W21496  32.400   9.826  12.053
53279W        W21497  13.843  37.585  10.606
53280W        W21498  37.078   3.582  12.908
53281W        W21499   9.185  36.776   0.307
53282W        W21500  13.822   9.392   1.048
53283W        W21501  20.968  14.609  12.479
53284W        W21502  40.553  27.953  14.195
53285W        W21503   7.140  15.738  12.510
53286W        W21504  17.023  37.378  14.526
53287W        W21505  37.909  27.463   2.490
53288W        W21506  43.080  32.535  11.994
53289W        W21507  21.358  11.467   0.403
53290W        W21508  30.175  16.709  10.260
53291W        W21509  17.280  21.754  11.206
53292W        W21510  38.642  17.874  11.016
53293W        W21511  39.398  16.682  13.352
53294W        W21512   9.390   5.965  10.904
53295W        W21513  33.488  21.101  10.706
53296W        W21514  34.400  20.794   2.712
53297W        W21515   6.767  20.286   4.287
53298W        W21516  13.607   7.644   3.339
53299W        W21517  24.782   9.746   1.325
53300W        W21518   3.065  12.203   1.219
53301W        W21519   6.912   0.182   4.573
53302W        W21520  27.622   3.927   1.269
53303W        W21521   8.322  11.184  14.794
53304W        W21522  39.508  43.017  14.466
53305W        W21523  31.101  19.871  10.434
53306W        W21524  23.188  25.956   2.339
53307W        W21525  26.840   4.690   0.296
53308W        W21526   2.750  31.988  12.579
53309W        W21527  42.315  22.584  10.403
53310W        W21528  22.790  44.445   0.013
53311W        W21529   7.652  27.205  14.415
53312W        W21530  38.584  34.877  10.652
53313W        W21531   1.229  22.771  14.079
53314W        W21532  27.408  25.282  11.845
53315W        W21533   8.173   6.917  14.338
53316W        W21534  20.808  32.754   4.027
53317W        W21535  40.273  36.843   1.373
53318W        W21536  41.282  22.121  12.908
53319W        W21537  28.452  42.575   0.880
53320W        W21538  15.813   6.418   0.778
53321W        W21539   9.704  37.890   0.911
53322W        W21540  15.339   9.345   3.796
53323W        W21541  43.963  44.021   3.394
53324W        W21542   7.923   4.143   2.389
53325W        W21543  12.205  32.036  13.987
53326W        W21544   8.182   4.890  14.843
53327W        W21545   7.961  10.406   0.058
53328W        W21546  26.286  15.216  14.959
53329W        W21547   5.435   2.061  11.172
53330W        W21548  44.044  32.237   2.086
53331W        W21549  11.131  24.027   2.771
53332W        W21550  32.546  24.409   3.697
53333W        W21551  21.288  21.987  11.957
53334W        W21552  36.520  20.557   1.445
53335W        W21553   6.885  40.844   0.471
53336W        W21554  36.414  33.115  14.778
53337W        W21555  18.493  29.001  13.074
53338W        W21556  44.120  14.474  13.298
53339W        W21557  26.635  30.922  11.217
53340W        W21558  25.727  34.457  10.753
53341W        W21559   3.168  29.015   1.786
53342W        W21560  11.818  33.582  10.441
53343W        W21561  41.481  33.392  10.678
53344W        W21562  14.390  21.725   3.635
53345W        W21563  22.707  37.848   1.164
53346W        W21564  30.714  35.152   2.168
53347W        W21565   1.776  33.241   0.874
53348W        W21566  22.278  42.751   1.438
53349W        W21567  21.262   4.430  10.616
53350W        W21568  12.384  35.942  13.426
53351W        W21569  40.290   5.697   4.048
53352W        W21570  35.852  31.899   1.002
53353W        W21571  20.644  15.158   3.811
53354W        W21572  29.396  11.855   1.833
53355W        W21573  15.112  29.637   1.514
53356W        W21574  43.694   5.280   0.578
53357W        W21575  25.901   4.314   1.053
53358W        W21576  21.948  42.391  11.209
53359W        W21577  22.789  33.598   1.242
53360W        W21578  31.513   7.506   3.405
53361W        W21579  22.673   3.340  13.311
53362W        W21580  13.864   8.587   3.195
53363W        W21581  19.869   7.697  14.376
53364W        W21582  37.057  31.399  13.051
53365W        W21583  21.322  19.693  14.844
53366W        W21584  24.519  40.744  11.907
53367W        W21585   7.452  21.396   4.158
53368W        W21586  32.542   9.458  10.428
53369W        W21587  21.786  44.910  11.250
53370W        W21588  31.687  12.092  12.095
53371W        W21589  37.586   2.101   0.930
53372W        W21590  35.849   2.907  13.523
53373W        W21591   8.306  12.010   0.386
53374W        W21592   9.724  24.834  12.057
53375W        W21593  22.019  35.926  14.309
53376W        W21594   7.220  22.718   2.216
53377W        W21595   5.461   3.662  11.888
53378W        W21596  16.758  22.096   1.349
53379W        W21597  19.339   6.312   2.800
53380W        W21598  42.583  43.011  11.652
53381W        W21599  13.867  40.395   1.893
53382W        W21600  39.421  11.886  12.179
53383W        W21601  42.027  33.954  14.692
53384W        W21602  17.609  43.346   2.887
53385W        W21603  30.513  20.582  12.460
53386W        W21604  32.453  43.094   4.619
53387W        W21605  12.991  13.581  14.934
53388W        W21606  34.834   5.934  13.037
53389W        W21607   4.715  41.140  11.017
53390W        W21608  43.690   8.912   2.848
53391W        W21609   6.252  35.598   0.349
53392W        W21610  28.679  14.161  11.159
53393W        W21611  13.868  27.315  11.260
53394W        W21612  41.985  32.135  10.681
53395W        W21613  35.997  28.877  10.071
53396W        W21614  25.514  43.642   2.931
53397W        W21615  42.400  36.969  13.786
53398W        W21616  16.690  25.074   4.679
53399W        W21617  34.041  14.884  13.321
53400W        W21618  32.590  44.040   4.570
53401W        W21619  39.427  15.532   1.398
53402W        W21620  26.907  27.604   4.690
53403W        W21621  23.059   9.839   2.288
53404W        W21622   6.687  24.728   3.326
53405W        W21623  16.159   5.125   0.859
53406W        W21624  40.566  37.291   1.423
53407W        W21625  14.106  30.889  14.294
53408W        W21626   3.683  15.790  11.044
53409W        W21627   7.127  39.807   5.073
53410W        W21628  14.693   3.348  14.537
53411W        W21629  39.952  26.205   2.288
53412W        W21630   5.475   7.855   3.205
53413W        W21631  35.845  20.523  11.079
53414W        W21632  20.715  25.429  11.141
53415W        W21633   5.405  16.190  12.353
53416W        W21634  21.657  18.696   2.658
53417W        W21635  29.880   3.455  13.601
53418W        W21636  37.520   3.289  12.256
53419W        W21637   7.593  28.960   1.827
53420W        W21638  27.688  36.108   1.388
53421W        W21639  32.132  14.787  12.438
53422W        W21640  36.812   1.708   1.460
53423W        W21641  13.468  43.554   5.175
53424W        W21642  16.316  10.248   2.697
53425W        W21643  39.010   7.654  14.384
53426W        W21644   5.354   8.612   2.826
53427W        W21645  29.089  25.503  10.333
53428W        W21646  29.532  24.281  10.743
53429W        W21647  21.987  35.841   3.566
53430W        W21648   9.893  26.475   4.732
53431W        W21649  17.058  11.034  11.925
53432W        W21650  10.980  26.173  11.923
53433W        W21651   0.740   7.475  13.363
53434W        W21652   0.987   5.990   4.341
53435W        W21653   4.384  44.564  11.583
53436W        W21654  17.576  44.549   3.222
53437W        W21655  17.967   2.288  11.201
53438W        W21656  17.517  20.106  13.456
53439W        W21657  17.836  23.164  12.866
53440W        W21658  39.012   3.370   3.331
53441W        W21659  14.880   5.293  12.086
53442W        W21660  14.107  42.579  12.449
53443W        W21661  29.694  15.831   4.091
53444W        W21662  23.940  26.875   1.283
53445W        W21663  39.057  37.521   3.398
53446W        W21664  24.858  34.546  11.043
53447W        W21665  43.523  21.072  10.529
53448W        W21666  28.614  33.352   3.682
53449W        W21667  18.954  11.523   4.153
53450W        W21668  37.969  28.875  12.014
53451W        W21669  44.233  27.182  10.160
53452W        W21670  40.238  14.609   2.180
53453W        W21671  26.061  39.446  10.725
53454W        W21672  26.971   9.410  10.797
53455W        W21673   4.750  40.295  13.205
53456W        W21674  22.609  42.365   4.740
53457W        W21675  28.820  21.493  11.134
53458W        W21676  16.834   8.963  13.394
53459W        W21677  34.953  25.109  13.170
53460W        W21678   2.217  17.847  13.027
53461W        W21679   9.186  10.109  14.190
53462W        W21680  28.249   0.440   4.671
53463W        W21681   3.476  31.991   2.740
53464W        W21682  43.020  15.012  10.962
53465W        W21683   4.275  13.126   0.656
53466W        W21684   2.472  10.814  11.901
53467W        W21685  17.401  18.911   2.264
53468W        W21686  16.779  13.115   5.454
53469W        W21687  19.821  16.607   3.205
53470W        W21688  39.840   1.280  10.138
53471W        W21689  13.681  13.658  14.887
53472W        W21690  31.118  44.077  10.089
53473W        W21691  44.126  34.114   5.356
53474W        W21692  41.987  38.049  12.191
53475W        W21693  37.919  16.775   4.470
53476W        W21694  27.659   1.398  11.985
53477W        W21695  19.145  19.111  13.120
53478W        W21696  41.918  39.426  12.988
53479W        W21697  26.183  41.484   4.457
53480W        W21698  24.035  23.466   1.223
53481W        W21699  20.069  21.828   1.325
53482W        W21700  43.019   3.900   1.271
53483W        W21701   9.647   3.606   3.864
53484W        W21702  13.688  27.667   0.717
53485W        W21703  41.380   3.139  13.352
53486W        W21704   0.338  30.651  10.631
53487W        W21705  11.650   1.247   2.709
53488W        W21706  13.994  29.660   4.074
53489W        W21707  14.511  29.207  12.505
53490W        W21708  34.359  13.410  11.541
53491W        W21709  14.136  14.108  10.703
53492W        W21710   1.254   5.324   2.628
53493W        W21711   5.597  44.201  11.069
53494W        W21712  17.113  36.580   3.109
53495W        W21713  37.265  32.915  11.203
53496W        W21714  33.568   3.205  10.975
53497W        W21715  11.347  16.729   1.683
53498W        W21716  18.600   9.685  11.064
53499W        W21717  44.895   5.534   3.415
53500W        W21718  12.629  20.286  10.846
53501W        W21719  17.220  18.826   4.093
53502W        W21720  22.269  23.615   0.883
53503W        W21721  39.355  39.790   1.911
53504W        W21722   4.955  44.008  12.381
53505W        W21723  19.960  39.002  11.605
53506W        W21724  30.070  31.385  12.341
53507W        W21725  37.583  28.911   0.428
53508W        W21726  10.131  21.834  10.093
53509W        W21727  37.504  34.835   1.846
53510W        W21728  22.538  36.129   4.082
53511W        W21729  11.597   0.272   4.618
53512W        W21730  19.717  39.347   4.620
53513W        W21731  36.339  44.631   4.434
53514W        W21732   8.802   6.431   4.103
53515W        W21733  11.891  19.177  12.197
53516W        W21734  25.635  12.846   1.426
53517W        W21735  11.996  25.873  12.100
53518W        W21736  40.120  41.544  13.986
53519W        W21737   8.830  44.334  13.823
53520W        W21738  19.832  38.435   1.885
53521W        W21739   4.702  34.416   2.186
53522W        W21740   6.251  21.127   4.057
53523W        W21741  13.263  28.416  14.980
53524W        W21742  41.399  10.201   4.548
53525W        W21743  28.054  16.350   3.603
53526W        W21744  29.456  23.010   4.093
53527W        W21745  37.664  28.613   3.148
53528W        W21746  29.521  39.884   4.411
53529W        W21747  41.454  27.542  14.520
53530W        W21748   5.415  42.699  11.046
53531W        W21749  20.972   2.837   1.441
53532W        W21750  30.591  30.236   0.872
53533W        W21751  27.646   6.728  11.796
53534W        W21752   0.791  13.939   3.542
53535W        W21753  20.935  35.345  13.059
53536W        W21754  27.947  13.192  10.763
53537W        W21755   7.115   2.235  12.517
53538W        W21756  21.309  24.283   2.871
53539W        W21757  34.537   5.589   2.278
53540W        W21758  18.694  33.028   4.072
53541W        W21759   4.291  33.362  14.029
53542W        W21760   9.839  14.677   4.797
53543W        W21761  34.871   9.231  13.459
53544W        W21762  35.803  30.011   3.105
53545W        W21763   0.002  10.206  12.237
53546W        W21764  39.851  24.666   2.934
53547W        W21765  44.866   0.784  10.324
53548W        W21766  22.035  44.485  14.267
53549W        W21767  38.423   8.596   3.252
53550W        W21768  32.971   1.880  14.204
53551W        W21769  37.611  40.966  12.140
53552W        W21770  32.169  42.034   1.229
53553W        W21771  25.695  21.107  14.800
53554W        W21772  38.674  41.476   4.842
53555W        W21773   1.242  32.870   0.387
53556W        W21774  19.711   2.616  11.711
53557W        W21775  41.762  31.620  14.288
53558W        W21776  25.962  42.517  10.774
53559W        W21777   0.440  32.164   4.342
53560W        W21778   0.457  11.601  13.069
53561W        W21779  18.514  42.056   3.430
53562W        W21780  24.558  20.675  10.684
53563W        W21781  38.599  25.760   2.089
53564W        W21782   3.673  24.061   0.546
53565W        W21783  26.880  12.209   2.365
53566W        W21784  25.235  11.698  10.639
53567W        W21785  24.913  36.896  12.950
53568W        W21786  18.935   1.538  10.418
53569W        W21787  12.761  14.020   3.156
53570W        W21788  21.190   7.735  13.073
53571W        W21789  17.854  10.619  13.898
53572W        W21790   6.785  31.148   1.203
53573W        W21791  18.979   9.822   0.820
53574W        W21792  15.824  22.533   1.325
53575W        W21793  34.560  42.821   4.954
53576W        W21794  21.749  40.376  12.112
53577W        W21795  10.424   0.001  14.080
53578W        W21796  11.390  27.146  13.093
53579W        W21797  31.167  34.178  14.976
53580W        W21798  12.382  27.989  13.849
53581W        W21799   2.896  21.414  13.995
53582W        W21800  21.793   2.489   1.351
53583W        W21801  19.938  38.920   3.328
53584W        W21802   6.229   5.706   9.588
53585W        W21803   3.273  30.825  14.076
53586W        W21804  30.551  30.560   0.188
53587W        W21805   9.315  37.091  14.258
53588W        W21806  26.811  17.161   4.620
53589W        W21807  10.848  23.079  10.418
53590W        W21808  44.396  34.048   4.646
53591W        W21809  30.554  15.300   4.114
53592W        W21810   4.952   6.905  13.902
53593W        W21811   7.775  15.292   0.614
53594W        W21812  24.766  34.125   0.890
53595W        W21813  12.792  27.461   1.728
53596W        W21814  17.288  35.325  10.773
53597W        W21815   6.337  16.528  13.000
53598W        W21816  32.946  18.865   4.846
53599W        W21817  36.791  26.656  11.827
53600W        W21818  20.754  31.982   0.194
53601W        W21819  20.053  28.399   1.809
53602W        W21820  24.048  34.529   3.751
53603W        W21821  37.005  30.202  11.591
53604W        W21822   1.458  43.381   1.899
53605W        W21823  43.044  27.149   2.832
53606W        W21824  36.099  33.373   1.644
53607W        W21825  35.312  39.323  13.101
53608W        W21826  29.619  16.222   1.213
53609W        W21827  33.673  38.389  13.807
53610W        W21828  25.652  37.346  11.648
53611W        W21829  29.037  20.879   3.132
53612W        W21830  16.275  17.271  12.303
53613W        W21831  23.228  39.708   1.753
53614W        W21832   9.250  39.905  12.889
53615W        W21833   0.997  38.961   1.388
53616W        W21834  24.543  43.440   2.572
53617W        W21835  20.538  26.982  14.195
53618W        W21836  35.472  36.589  12.667
53619W        W21837  11.049  29.599   3.361
53620W        W21838   6.773  36.894  12.644
53621W        W21839  38.513  37.856   4.418
53622W        W21840  30.598  27.026  14.226
53623W        W21841  24.465  34.565   0.823
53624W        W21842  36.078   4.438  10.780
53625W        W21843  17.544  39.084   0.887
53626W        W21844  28.583  37.590   3.076
53627W        W21845  24.234  12.527  13.473
53628W        W21846  42.519   8.120  14.480
53629W        W21847  41.260  24.592   1.404
53630W        W21848  40.014   2.659  12.075
53631W        W21849  25.570  24.377  14.383
53632W        W21850  17.486  30.029   0.130
53633W        W21851  20.509  13.122   0.712
53634W        W21852   3.694  29.379   1.394
53635W        W21853  31.701  31.964   2.129
53636W        W21854  37.580  32.068   4.600
53637W        W21855  37.568  16.683  12.480
53638W        W21856  40.165  28.784   0.510
53639W        W21857  17.144  11.321  12.797
53640W        W21858  42.530  16.765   0.127
53641W        W21859  32.303  41.753   4.259
53642W        W21860  34.994  37.036   0.849
53643W        W21861  14.264   0.310   4.242
53644W        W21862   8.182  34.568  13.303
53645W        W21863  34.473  25.589  11.993
53646W        W21864  24.179   4.502  13.429
53647W        W21865  32.565  19.856   0.079
53648W        W21866   6.064  21.777   2.657
53649W        W21867  36.704  13.340  11.128
53650W        W21868  24.726   7.756   4.663
53651W        W21869  23.901  27.605  14.395
53652W        W21870   2.623  41.949  12.535
53653W        W21871  30.785  20.689   3.503
53654W        W21872  29.316   5.551  14.961
53655W        W21873  12.142  42.744  13.487
53656W        W21874  24.053  10.973   3.283
53657W        W21875  33.617  16.759   4.606
53658W        W21876   1.954  14.812   2.864
53659W        W21877  34.468   7.925  14.543
53660W        W21878  42.717  21.792  14.121
53661W        W21879  36.974  26.185   0.532
53662W        W21880   9.707  18.680  12.470
53663W        W21881  35.374  12.400  13.383
53664W        W21882  11.856  23.735   0.815
53665W        W21883   2.961  14.711   2.179
53666W        W21884   3.373  14.309  14.969
53667W        W21885  11.669   2.922   4.423
53668W        W21886  23.097  15.576   4.242
53669W        W21887  29.720   8.691  12.479
53670W        W21888  36.568  36.113  13.155
53671W        W21889  41.551  26.499   1.998
53672W        W21890   6.315  23.246  11.017
53673W        W21891  30.617   5.604  10.579
53674W        W21892  35.508  19.595  12.045
53675W        W21893  34.130   2.246   2.285
53676W        W21894  39.456  30.499   4.561
53677W        W21895   9.241  23.878  11.106
53678W        W21896  36.617  15.315   4.098
53679W        W21897  24.881  26.682   0.147
53680W        W21898  20.538  38.069   3.286
53681W        W21899  42.675  18.401   4.820
53682W        W21900  41.601  35.410  11.659
53683W        W21901   1.754  10.836   2.703
53684W        W21902  34.978  30.878   1.394
53685W        W21903  41.077   6.886  10.718
53686W        W21904  12.284  43.485   0.877
53687W        W21905  27.555  15.622   2.373
53688W        W21906   2.700   8.883   0.340
53689W        W21907  30.423  40.119  14.288
53690W        W21908   1.475  19.537   3.915
53691W        W21909  28.964   6.346   4.621
53692W        W21910  21.298  35.999   1.919
53693W        W21911  40.839  33.835   0.846
53694W        W21912  24.692  16.986   0.929
53695W        W21913  14.572  15.673  11.515
53696W        W21914  28.180  43.867   4.015
53697W        W21915  14.720  30.475  12.663
53698W        W21916   4.898  32.077  12.033
53699W        W21917  31.553  15.961   4.872
53700W        W21918  40.577  12.194   2.681
53701W        W21919  39.036  27.771  12.999
53702W        W21920  17.507  33.512   3.579
53703W        W21921  31.929   7.918   1.508
53704W        W21922  40.722  17.365  10.784
53705W        W21923  24.517  37.826   1.397
53706W        W21924  10.668  13.682  14.832
53707W        W21925  42.921  22.342   4.587
53708W        W21926   4.413   4.249   1.202
53709W        W21927  40.860  31.348  12.625
53710W        W21928   2.258  18.775   2.157
53711W        W21929  25.521  27.449   2.956
53712W        W21930  32.525  30.359  13.470
53713W        W21931  27.836  29.535   4.925
53714W        W21932  23.653  25.450   3.140
53715W        W21933   2.860   1.381   0.936
53716W        W21934  43.410  35.392  11.780
53717W        W21935  11.651  10.229   1.805
53718W        W21936  21.781  43.392  13.899
53719W        W21937  33.571   4.542  11.212
53720W        W21938   1.780  24.577  13.469
53721W        W21939   9.436  35.412  12.410
53722W        W21940  25.198  24.640   3.947
53723W        W21941  17.620  13.347  11.072
53724W        W21942  42.458  12.471  10.610
53725W        W21943  16.106  24.137   2.364
53726W        W21944   3.266  44.866  12.809
53727W        W21945  39.023  38.489   3.566
53728W        W21946  16.831  24.663  10.742
53729W        W21947  40.430   3.149  10.916
53730W        W21948  35.864  28.508  12.575
53731W        W21949  18.293  22.708  11.609
53732W        W21950  38.026  20.644  11.270
53733W        W21951   5.485  33.410   3.307
53734W        W21952  22.927   3.524  11.592
53735W        W21953  14.196  43.301   2.661
53736W        W21954  35.852  34.766   3.590
53737W        W21955  41.305  24.154  11.669
53738W        W21956  34.934  20.254  11.974
53739W        W21957  15.575   0.361  13.850
53740W        W21958  31.943   2.356  10.178
53741W        W21959  40.439   9.839   0.966
53742W        W21960  10.040  19.032   3.736
53743W        W21961  15.314  13.653  13.513
53744W        W21962  12.124  18.102  13.606
53745W        W21963  11.832  18.134   2.763
53746W        W21964  13.150  16.804   4.442
53747W        W21965   8.750  34.765   0.264
53748W        W21966  43.490  27.171   4.279
53749W        W21967  36.578  40.053   2.791
53750W        W21968  30.997  40.593   2.646
53751W        W21969  31.434  27.649  13.323
53752W        W21970  14.772  31.110  14.035
53753W        W21971  22.596   2.873   4.568
53754W        W21972  33.972  36.937  13.016
53755W        W21973  25.463   8.268   4.960
53756W        W21974  19.269  25.501   3.879
53757W        W21975  23.198  16.174   4.659
53758W        W21976  20.598  17.387   1.373
53759W        W21977  34.560  15.265  12.866
53760W        W21978  27.047  10.305  13.959
53761W        W21979  36.548  14.086   3.551
53762W        W21980  10.758   4.944  14.804
53763W        W21981  35.335  14.083   4.191
53764W        W21982  41.342  25.102  11.412
53765W        W21983  30.989  30.429  14.949
53766W        W21984  42.864  27.694   0.926
53767W        W21985  31.767  16.214   3.539
53768W        W21986  25.202  43.666   0.803
53769W        W21987  18.691  20.175   2.420
53770W        W21988  26.128  39.409  13.616
53771W        W21989  30.702  29.074  10.703
53772W        W21990  29.403  36.367   0.546
53773W        W21991  36.052  36.647   1.314
53774W        W21992  16.031  18.550  14.481
53775W        W21993  33.955  36.080  10.771
53776W        W21994  15.795  14.715   1.323
53777W        W21995  29.475  13.178   3.657
53778W        W21996  33.295  12.634  10.762
53779W        W21997  10.403  30.608  10.697
53780W        W21998  24.424  22.940   4.591
53781W        W21999  15.021  29.030  11.251
53782W        W22000  32.615  26.467  10.709
53783W        W22001  31.084  38.132   0.288
53784W        W22002   3.913   0.354   4.627
53785W        W22003  11.247  43.365   2.839
53786W        W22004  36.096  11.814   1.448
53787W        W22005  37.918  31.664   4.652
53788W        W22006  29.518  40.361  13.895
53789W        W22007  10.842  44.841   0.349
53790W        W22008   6.420  12.155   3.155
53791W        W22009   8.792  27.013   1.736
53792W        W22010  36.070  10.643  13.504
53793W        W22011  44.283  28.050   3.695
53794W        W22012  44.319  39.074  14.923
53795W        W22013   3.033  24.107  12.653
53796W        W22014  32.207  36.488   1.993
53797W        W22015  13.157  31.821   4.507
53798W        W22016  33.819   0.916  14.406
53799W        W22017   0.177  31.156  12.972
53800W        W22018  21.959  31.519  10.665
53801W        W22019  38.894   4.862  10.533
53802W        W22020   2.226  15.266  10.619
53803W        W22021  21.745  31.765   5.098
53804W        W22022  36.518   1.211  13.128
53805W        W22023  13.738  43.073   1.223
53806W        W22024  44.854  20.672   3.665
53807W        W22025  40.305  24.344   0.780
53808W        W22026  43.151  11.272  11.639
53809W        W22027  32.283   3.822  11.112
53810W        W22028  21.055  27.533   3.271
53811W        W22029  17.568  32.060  12.880
53812W        W22030  17.708   0.723  10.727
53813W        W22031  14.054  29.233  14.886
53814W        W22032   4.475   1.320  11.602
53815W        W22033   4.201  29.778   2.218
53816W        W22034   2.404  10.672  13.684
53817W        W22035  25.968  13.072   3.251
53818W        W22036  29.520  18.542   4.082
53819W        W22037  18.475  21.158  10.827
53820W        W22038  13.915  23.190  12.990
53821W        W22039  10.326  44.947  13.064
53822W        W22040   1.462  24.072   1.870
53823W        W22041  29.602  26.206  12.458
53824W        W22042   7.372   3.453   4.582
53825W        W22043  30.223  10.601   2.777
53826W        W22044  25.701   7.379   3.588
53827W        W22045  27.528  41.835  13.285
53828W        W22046  34.962  38.850  11.648
53829W        W22047  41.591   9.915  10.876
53830W        W22048  20.781   0.195   0.446
53831W        W22049  39.538  21.595   1.304
53832W        W22050  44.480  27.494  11.986
53833W        W22051  18.660  29.782   4.327
53834W        W22052  22.641  38.612  13.581
53835W        W22053  32.191  32.833   3.671
53836W        W22054  43.331  10.681  10.482
53837W        W22055  17.756  42.294  12.168
53838W        W22056   1.405  14.469   3.685
53839W        W22057  41.959  44.536   1.599
53840W        W22058  22.047  15.541  14.068
53841W        W22059  21.695   0.609   3.358
53842W        W22060  23.071   3.167  14.961
53843W        W22061  21.252  22.711  11.422
53844W        W22062  40.380  16.367  13.567
53845W        W22063  40.751  34.816   1.977
53846W        W22064  10.248   7.185  11.455
53847W        W22065  24.123  24.345  10.669
53848W        W22066  19.641   0.315   1.397
53849W        W22067  33.391  42.286   0.415
53850W        W22068  31.343  31.954   0.326
53851W        W22069  13.836  22.661  11.086
53852W        W22070  14.325  37.049  13.977
53853W        W22071  24.538  32.377  13.010
53854W        W22072  11.517  22.866   0.092
53855W        W22073   4.681  40.483   0.304
53856W        W22074  44.003  17.359  10.662
53857W        W22075  36.045   8.764   1.145
53858W        W22076  33.569  24.575   2.897
53859W        W22077  44.202  13.554   1.258
53860W        W22078  27.758  22.050   3.090
53861W        W22079  36.025  36.584   3.135
53862W        W22080  30.851  27.385   3.785
53863W        W22081  18.210  42.926   2.713
53864W        W22082  15.600  38.857  10.779
53865W        W22083  21.627  18.284   4.377
53866W        W22084   2.994  38.888   4.078
53867W        W22085  39.293  27.873  10.705
53868W        W22086  28.114  38.373   4.136
53869W        W22087  14.761   0.414   1.693
53870W        W22088  18.064  27.703   3.435
53871W        W22089   7.598   5.333   2.913
53872W        W22090  23.624  37.725   1.361
53873W        W22091   7.947   3.895   1.730
53874W        W22092   9.728  11.931  11.520
53875W        W22093   4.942  33.092   0.809
53876W        W22094  31.108  15.942   1.711
53877W        W22095  15.710   3.757   3.625
53878W        W22096  28.607  20.993  12.126
53879W        W22097  20.089  22.858   2.690
53880W        W22098  27.002  13.584  12.431
53881W        W22099  24.958  27.954   1.611
53882W        W22100  25.456  39.140  11.557
53883W        W22101  32.063  43.342  12.666
53884W        W22102  20.066  14.379  12.800
53885W        W22103  16.121  11.106  14.008
53886W        W22104  10.844  29.448   0.563
53887W        W22105   8.241  11.672   3.227
53888W        W22106  16.793  10.335  14.094
53889W        W22107  14.747  23.163   4.269
53890W        W22108   6.020   8.655   0.520
53891W        W22109  15.321   2.198   0.252
53892W        W22110  22.190  36.051   1.887
53893W        W22111  43.521  26.908  12.987
53894W        W22112  19.036  10.764  13.561
53895W        W22113  27.578   5.238  14.977
53896W        W22114  22.057  33.446  14.069
53897W        W22115   5.354  39.001   2.179
53898W        W22116  25.546   9.995  12.466
53899W        W22117  16.064  10.181   2.202
53900W        W22118   0.343  25.519  11.327
53901W        W22119  17.574  26.167  13.976
53902W        W22120  38.620  30.697   2.361
53903W        W22121   1.711  39.556  11.970
53904W        W22122  26.176  44.252  12.424
53905W        W22123  38.085   1.500   1.542
53906W        W22124  26.893  25.854  13.022
53907W        W22125  38.515  37.307  11.938
53908W        W22126   5.705   9.751   3.546
53909W        W22127  10.723  23.521  10.665
53910W        W22128  12.233  11.017  10.958
53911W        W22129  13.200   1.014  10.387
53912W        W22130  42.832  16.547  11.113
53913W        W22131  29.167  19.804  12.872
53914W        W22132  10.305  19.079   0.237
53915W        W22133   0.861  31.460  13.546
53916W        W22134  44.365  24.264  14.478
53917W        W22135  39.991  36.879  10.499
53918W        W22136  27.455  11.066   0.339
53919W        W22137  26.229  25.692   3.123
53920W        W22138  19.751  25.399  10.915
53921W        W22139  24.118  38.592   4.124
53922W        W22140  33.167  33.733   3.154
53923W        W22141   0.348  41.632  11.300
53924W        W22142  21.776  36.374   1.986
53925W        W22143  11.605  12.680   0.264
53926W        W22144  18.613  13.305  13.089
53927W        W22145  19.682  36.840  14.711
53928W        W22146  13.801   1.106  13.631
53929W        W22147  36.524   8.434   0.148
53930W        W22148  24.818  29.484   2.199
53931W        W22149  39.546  23.829  14.075
53932W        W22150  16.508   2.135  13.509
53933W        W22151  41.345  41.203   1.441
53934W        W22152   9.574  21.320   3.073
53935W        W22153   2.323  19.630   1.403
53936W        W22154  26.900   7.773  13.780
53937W        W22155  29.906  15.068  12.214
53938W        W22156  44.450  26.473  14.986
53939W        W22157  11.850  23.721  14.993
53940W        W22158  27.973  13.902  12.758
53941W        W22159   2.383  21.093   1.701
53942W        W22160   8.714  25.658   2.719
53943W        W22161  27.121  44.974  14.976
53944W        W22162  39.945  12.698   4.619
53945W        W22163  21.752   1.465  11.243
53946W        W22164   8.390  16.190   4.969
53947W        W22165  32.948  22.755  14.846
53948W        W22166   7.778  33.599   2.014
53949W        W22167  15.904   5.128   4.566
53950W        W22168  16.819   8.741  14.365
53951W        W22169  40.060  22.507   0.916
53952W        W22170  41.921  10.925  11.142
53953W        W22171  25.158   1.801   4.433
53954W        W22172  22.675  22.018  14.331
53955W        W22173   8.852  39.351   0.908
53956W        W22174  32.423  19.722  14.588
53957W        W22175  29.654  40.345   4.025
53958W        W22176  30.319  19.949   0.395
53959W        W22177  44.980  38.081   3.841
53960W        W22178   4.721  22.560   0.490
53961W        W22179  20.502  39.028  13.416
53962W        W22180   2.479   5.879  10.740
53963W        W22181   0.830  13.905   2.938
53964W        W22182  26.939  33.953   1.435
53965W        W22183  17.157   3.197   4.730
53966W        W22184  36.116  30.397  13.305
53967W        W22185  39.968  33.185   2.163
53968W        W22186  13.785  13.302   2.431
53969W        W22187  30.218  39.860  12.081
53970W        W22188  17.297  16.082  11.977
53971W        W22189  26.892  31.462   4.127
53972W        W22190   1.252   8.834   1.254
53973W        W22191  42.942   5.299  11.563
53974W        W22192   1.945   7.474   3.562
53975W        W22193   0.282   4.962   2.587
53976W        W22194  41.906  12.739   3.474
53977W        W22195  35.822  43.251   2.239
53978W        W22196   6.236  26.428   4.536
53979W        W22197   5.181  40.980   3.516
53980W        W22198  21.296  28.793  12.538
53981W        W22199  14.080  34.553  13.165
53982W        W22200  20.795  44.540  13.051
53983W        W22201  36.300  31.858   0.686
53984W        W22202  20.002  19.179   0.905
53985W        W22203  23.940   1.432  12.189
53986W        W22204  10.158  27.526   3.707
53987W        W22205  14.952   1.005  10.838
53988W        W22206  27.192  27.438   1.714
53989W        W22207   0.924  17.391   3.136
53990W        W22208  27.209   1.806  11.439
53991W        W22209  27.376  31.423   1.333
53992W        W22210  19.053  43.467   1.191
53993W        W22211  15.629  33.125  10.217
53994W        W22212  25.065  12.143   1.746
53995W        W22213  12.766  30.004  12.422
53996W        W22214  32.584  18.145   4.810
53997W        W22215   0.725  18.963  13.648
53998W        W22216   9.257  39.477  13.150
53999W        W22217  28.507  34.942   1.907
54000W        W22218  16.711  23.881   4.141
54001W        W22219   9.649  29.561   2.324
54002W        W22220  15.368  26.339   2.907
54003W        W22221  25.448  24.197   2.759
54004W        W22222  36.538  32.929   0.824
54005W        W22223  36.481  16.886  13.004
54006W        W22224   0.778  11.002   1.727
54007W        W22225  20.635  40.749  11.192
54008W        W22226  17.889  26.193  11.926
54009W        W22227  23.495  41.533   4.713
54010W        W22228  10.893  37.455  14.260
54011W        W22229  10.431   7.767  13.910
54012W        W22230  39.002   8.066   2.716
54013W        W22231  22.659  17.539  13.522
54014W        W22232  28.970   7.760   0.366
54015W        W22233   0.851  21.024  12.591
54016W        W22234  33.158  42.596  12.649
54017W        W22235  33.864   5.305   3.668
54018W        W22236  38.648  38.830   4.868
54019W        W22237  25.587   5.522   1.264
54020W        W22238  30.850  18.232   2.357
54021W        W22239   2.298   4.271  10.773
54022W        W22240  43.279  14.048   5.050
54023W        W22241  44.519  10.704   3.368
54024W        W22242  18.334  15.632  14.819
54025W        W22243   4.823  16.677  12.878
54026W        W22244  40.474  38.466  14.316
54027W        W22245  17.652  24.595   1.217
54028W        W22246  43.213   7.093   2.103
54029W        W22247   9.851   3.092  12.181
54030W        W22248  21.305  18.150  11.632
54031W        W22249  29.972  18.145   1.873
54032W        W22250   1.253  16.736   2.715
54033W        W22251  24.497  36.821   4.918
54034W        W22252  25.775   8.593   3.701
54035W        W22253   1.275   5.638  14.829
54036W        W22254  36.458   6.331   1.129
54037W        W22255   9.774   8.941  14.563
54038W        W22256  15.872  38.453  10.636
54039W        W22257   6.535  26.231  11.253
54040W        W22258   7.704  14.812  14.788
54041W        W22259  21.045   8.582   1.466
54042W        W22260  23.300  32.722   0.909
54043W        W22261  32.004  34.507   0.155
54044W        W22262   7.242  10.258  13.537
54045W        W22263   5.334  43.095   4.649
54046W        W22264  24.689  17.053   1.892
54047W        W22265  15.546  21.798   1.607
54048W        W22266  43.707   1.033   2.292
54049W        W22267  40.618  41.458  13.903
54050W        W22268  23.569  16.247   1.307
54051W        W22269   5.957  18.543  10.269
54052W        W22270  44.007  22.924   4.082
54053W        W22271   3.689  40.407   1.000
54054W        W22272  43.027  37.076  14.754
54055W        W22273   0.257  17.597   4.362
54056W        W22274  18.074  23.985  12.817
54057W        W22275  40.053  13.306  11.856
54058W        W22276  42.560  17.485  11.909
54059W        W22277  39.253   6.317  12.997
54060W        W22278  15.622   4.251  12.797
54061W        W22279  43.865  25.141   1.018
54062W        W22280  22.111  36.017  12.585
54063W        W22281  44.801  28.416  10.642
54064W        W22282  32.284  11.933  12.536
54065W        W22283  28.926  24.969   0.603
54066W        W22284  22.153  22.007  14.115
54067W        W22285  38.389  24.179   3.602
54068W        W22286  31.359  16.261  13.917
54069W        W22287   0.986  16.175   3.104
54070W        W22288  40.419  39.569   3.664
54071W        W22289  14.326  27.863  14.586
54072W        W22290  42.245  30.647   4.135
54073W        W22291  11.815  15.265   4.186
54074W        W22292   0.450  17.155  13.058
54075W        W22293  27.246  12.437   1.468
54076W        W22294  39.868  31.692  14.883
54077W        W22295   6.570  21.353  14.864
54078W        W22296  23.561  22.721   1.895
54079W        W22297  19.378  13.464  11.687
54080W        W22298  35.080  11.044  13.226
54081W        W22299   7.416  18.754   0.785
54082W        W22300  25.714   1.490   2.270
54083W        W22301  25.656  36.981   0.505
54084W        W22302  21.599  10.607  12.166
54085W        W22303  20.226  16.146  12.031
54086W        W22304   9.789  44.315  12.506
54087W        W22305  36.922  12.630   2.174
54088W        W22306  36.949   0.478   0.745
54089W        W22307  38.384  38.462   2.344
54090W        W22308  34.858  39.203  12.017
54091W        W22309  29.737   9.235   1.951
54092W        W22310  15.142   1.151  10.182
54093W        W22311  16.418  21.254   4.273
54094W        W22312  22.223  18.464  11.272
54095W        W22313  29.573  42.598   1.593
54096W        W22314   3.080  16.364   4.290
54097W        W22315  22.962  25.311  11.136
54098W        W22316   1.223  11.706   2.975
54099W        W22317  14.348  28.267   0.787
54100W        W22318  43.611  31.608  11.044
54101W        W22319  32.647  32.448  14.860
54102W        W22320  16.913  28.555   3.959
54103W        W22321  43.226  23.488   1.706
54104W        W22322  17.053   9.619  11.154
54105W        W22323  11.235   6.984  11.025
54106W        W22324  24.232  42.803  14.242
54107W        W22325  19.748   5.326   0.550
54108W        W22326   3.684  22.371   3.380
54109W        W22327  15.184   2.773   2.172
54110W        W22328  36.945   9.121  12.731
54111W        W22329  19.220  12.723  11.131
54112W        W22330   5.273  11.598   4.546
54113W        W22331  16.886  28.494  11.494
54114W        W22332  43.569  16.757  12.453
54115W        W22333  10.655   7.273   0.879
54116W        W22334   2.390   0.308   1.443
54117W        W22335  22.524  19.819  12.500
54118W        W22336  31.929  38.335  13.880
54119W        W22337  11.542   5.453   0.846
54120W        W22338  41.597   5.234   2.729
54121W        W22339   9.639  18.199   4.543
54122W        W22340  19.781  42.777   3.152
54123W        W22341  24.523   4.704  11.268
54124W        W22342  31.693  12.711   1.491
54125W        W22343  26.416   6.094   1.298
54126W        W22344  27.167  29.630  13.535
54127W        W22345  35.471  31.891   2.830
54128W        W22346  43.784  38.442   3.180
54129W        W22347  24.075  43.577  14.899
54130W        W22348  39.680  37.964   0.416
54131W        W22349  29.571   5.376  11.282
54132W        W22350  32.541  14.460  13.341
54133W        W22351  25.492  15.738   2.870
54134W        W22352  43.814  24.947  13.409
54135W        W22353  10.226  44.437   2.921
54136W        W22354  36.961  33.464   4.387
54137W        W22355  34.878  29.936  13.924
54138W        W22356  35.407  35.111   3.672
54139W        W22357  24.506  34.650   2.909
54140W        W22358   5.049  20.589   0.013
54141W        W22359  38.137   6.801  12.195
54142W        W22360  36.792  23.147  12.057
54143W        W22361   4.777  14.178   3.533
54144W        W22362   1.477  13.825  14.199
54145W        W22363  42.461  43.946  12.410
54146W        W22364  12.118  11.218  14.503
54147W        W22365  10.063  35.908  13.123
54148W        W22366   6.342  44.217   3.322
54149W        W22367  11.776  27.616   4.194
54150W        W22368  21.966  15.614   1.398
54151W        W22369  29.592  37.055   1.354
54152W        W22370  29.209   9.644  12.607
54153W        W22371  25.124  29.649  11.352
54154W        W22372  21.117  26.390  14.155
54155W        W22373  19.691   3.952  11.975
54156W        W22374  25.491   5.234  10.659
54157W        W22375  31.563  24.683  11.621
54158W        W22376  43.262  40.871  10.437
54159W        W22377  41.625   7.245   1.368
54160W        W22378   1.328  24.794  14.969
54161W        W22379   2.537  21.799   3.915
54162W        W22380  34.239  24.277  14.499
54163W        W22381  40.040   1.768  13.379
54164W        W22382  39.146  11.358  12.186
54165W        W22383  41.315  15.327   3.698
54166W        W22384  23.062  18.286  10.606
54167W        W22385  16.081  14.855   3.477
54168W        W22386   6.924  13.569   1.431
54169W        W22387   7.697   7.827   4.764
54170W        W22388  28.900   1.461  14.806
54171W        W22389  26.512   9.123  12.946
54172W        W22390  31.083  25.612   2.346
54173W        W22391  35.161  11.802   1.297
54174W        W22392  29.445  14.485   3.665
54175W        W22393  42.557  27.240  12.970
54176W        W22394  26.629  20.855   0.985
54177W        W22395  21.236  19.782  12.972
54178W        W22396  16.560   5.824  10.739
54179W        W22397   1.287  15.564   2.700
54180W        W22398  16.742   8.439   4.631
54181W        W22399  28.654  34.874   1.394
54182W        W22400  40.855  36.096   4.141
54183W        W22401  14.133  33.522   1.493
54184W        W22402   9.600  40.280   3.403
54185W        W22403  11.547  29.453   2.477
54186W        W22404   9.170  23.593   0.350
54187W        W22405  26.450  15.855   4.320
54188W        W22406  23.028   9.404  12.016
54189W        W22407   4.862  22.267  12.574
54190W        W22408  22.688   6.433   3.844
54191W        W22409  23.006   5.227  14.720
54192W        W22410  40.925  18.325   3.259
54193W        W22411  39.364  29.647   3.246
54194W        W22412  42.393  38.044  10.685
54195W        W22413  33.171  42.229  14.416
54196W        W22414  42.949  25.931  11.527
54197W        W22415   5.507   4.882   2.072
54198W        W22416  29.542   5.511  12.258
54199W        W22417  17.779  10.270   3.824
54200W        W22418  27.994  13.318   1.984
54201W        W22419  29.653  21.790  12.342
54202W        W22420  28.120  43.749   0.439
54203W        W22421  17.872  20.647  14.840
54204W        W22422   4.851  26.824  11.656
54205W        W22423   1.092  21.718   1.790
54206W        W22424   1.412  20.555   0.897
54207W        W22425  15.137  11.328  14.043
54208W        W22426  23.446   4.695   0.374
54209W        W22427  18.770  15.314   1.818
54210W        W22428  18.683  13.333   3.703
54211W        W22429   2.958  36.059  10.605
54212W        W22430  17.130   6.455   3.203
54213W        W22431  28.098   1.763  11.535
54214W        W22432  43.525  14.611   1.809
54215W        W22433  29.950  18.662  10.452
54216W        W22434   4.831  36.000  10.892
54217W        W22435  12.121  33.346  11.428
54218W        W22436   9.178  31.022  13.118
54219W        W22437   3.405  27.722  12.000
54220W        W22438  15.910  30.572   2.248
54221W        W22439  14.168  17.271  14.549
54222W        W22440  41.418  15.209  10.765
54223W        W22441  44.905   6.512  10.131
54224W        W22442  23.528  34.424   3.740
54225W        W22443  19.143   8.477   3.768
54226W        W22444  10.474  19.478  10.766
54227W        W22445  31.826  22.659  11.327
54228W        W22446  23.991  16.875  14.207
54229W        W22447   5.797  32.307   3.646
54230W        W22448  44.027  13.742   0.408
54231W        W22449  31.986  26.457   4.913
54232W        W22450  37.538  15.213   2.889
54233W        W22451   0.745  28.904  14.466
54234W        W22452  29.831  40.304   4.507
54235W        W22453  17.284  10.183   3.669
54236W        W22454  22.572  42.372  10.347
54237W        W22455   0.488  29.887   4.473
54238W        W22456  28.373   4.193   3.249
54239W        W22457  21.229  18.831   0.237
54240W        W22458   5.301  12.778  12.103
54241W        W22459  41.061   3.008   0.849
54242W        W22460  29.632  29.077  12.564
54243W        W22461  25.173  24.327   4.939
54244W        W22462  35.439  21.989  11.427
54245W        W22463  19.689   8.717   2.947
54246W        W22464  11.774  35.039   2.946
54247W        W22465  32.915  22.048   0.504
54248W        W22466   8.636  17.396  12.973
54249W        W22467  38.645  21.245   3.484
54250W        W22468  29.623  36.028  12.484
54251W        W22469   2.312  13.274   4.663
54252W        W22470  28.788  15.822  10.739
54253W        W22471  43.280   6.235   0.933
54254W        W22472   5.841   2.037  10.868
54255W        W22473   2.383  24.465   1.649
54256W        W22474   9.956   0.810  10.688
54257W        W22475  21.277  27.189  13.025
54258W        W22476  25.118  44.200   2.169
54259W        W22477  22.252  12.447  14.747
54260W        W22478  10.890   0.144  14.750
54261W        W22479  39.982  43.585  13.302
54262W        W22480   4.474  36.105  10.113
54263W        W22481  20.249  19.351   2.192
54264W        W22482  11.310  16.332  13.887
54265W        W22483   5.644  34.880  10.750
54266W        W22484  15.335  32.482  11.431
54267W        W22485   0.509  18.745   3.680
54268W        W22486  36.072   4.671   2.033
54269W        W22487  27.706   5.905   3.345
54270W        W22488  27.143  25.024   1.458
54271W        W22489  27.974   0.845  14.542
54272W        W22490   2.282  31.969   1.242
54273W        W22491   5.299  40.200   0.862
54274W        W22492   0.647   9.739  11.681
54275W        W22493  12.604  21.431   2.379
54276W        W22494   1.788   7.814  13.631
54277W        W22495  36.909  21.462   0.870
54278W        W22496  29.991  14.709  13.035
54279W        W22497  13.855  21.231   1.651
54280W        W22498  29.084  30.204   0.770
54281W        W22499   1.907  19.784   0.903
54282W        W22500  23.869   5.923   4.618
54283W        W22501  20.794  26.710   0.015
54284W        W22502  20.567  17.832   4.184
54285W        W22503  41.974  27.220  14.265
54286W        W22504  36.021  31.236  12.977
54287W        W22505  19.572  34.539   0.454
54288W        W22506   5.955  10.964  13.517
54289W        W22507  31.049  10.664   0.914
54290W        W22508  34.359  39.924  12.132
54291W        W22509  29.201  27.136  12.424
54292W        W22510   5.095  14.527   4.454
54293W        W22511  42.587  29.098   0.414
54294W        W22512   6.671  41.240  13.323
54295W        W22513   7.311  31.724  10.810
54296W        W22514  38.282  33.537  12.627
54297W        W22515  24.158   8.846  12.108
54298W        W22516  35.191   1.094   1.564
54299W        W22517  33.451   6.469  11.025
54300W        W22518  34.323  11.018  13.371
54301W        W22519  33.829  13.632  13.877
54302W        W22520  27.505  38.498   0.772
54303W        W22521  42.891  38.063  11.571
54304W        W22522  37.491  36.542   2.449
54305W        W22523  11.661  21.515   4.653
54306W        W22524  25.910  16.402  14.311
54307W        W22525  23.948  33.025  11.567
54308W        W22526  42.585  10.167  11.946
54309W        W22527   8.633  25.240   0.825
54310W        W22528  40.594  32.603   2.392
54311W        W22529  27.951  27.212   4.146
54312W        W22530  30.748  10.160   3.228
54313W        W22531  24.606  12.422   1.641
54314W        W22532  20.014   0.911  12.027
54315W        W22533  33.092  17.705   0.350
54316W        W22534  11.067   2.188   4.706
54317W        W22535  25.175  20.601   1.766
54318W        W22536  24.235  18.888   1.821
54319W        W22537   0.941  34.480   3.050
54320W        W22538  13.821  33.936  14.882
54321W        W22539   0.572  31.510  13.046
54322W        W22540  25.287  39.228   4.409
54323W        W22541  31.985  29.701  11.363
54324W        W22542  37.450  19.029  14.467
54325W        W22543  13.577   4.759   0.484
54326W        W22544  13.307  20.287  12.041
54327W        W22545  24.861  35.065  14.042
54328W        W22546  18.990  24.970  11.207
54329W        W22547  32.178  22.462  13.834
54330W        W22548  10.298   4.764   4.031
54331W        W22549  20.332   7.820   1.665
54332W        W22550   5.672  31.701  12.421
54333W        W22551  21.492   6.484  11.318
54334W        W22552   6.711   8.733   1.453
54335W        W22553  13.440  12.696   3.888
54336W        W22554  15.222  16.830   4.400
54337W        W22555   6.653  16.641  12.433
54338W        W22556  27.974  11.808  14.329
54339W        W22557  15.019  42.471  14.368
54340W        W22558  32.467  26.128  12.853
54341W        W22559   0.632   2.055   0.027
54342W        W22560   1.750   5.848   1.216
54343W        W22561  23.778  38.910   3.795
54344W        W22562  12.294  24.528   4.176
54345W        W22563  18.943  15.197   2.858
54346W        W22564  20.242  40.936  14.267
54347W        W22565  22.780  44.620   3.243
54348W        W22566  13.376  41.838   3.744
54349W        W22567  18.569  12.127  14.716
54350W        W22568  26.699  32.799   0.901
54351W        W22569  16.065  19.550  14.381
54352W        W22570  35.089  39.228   4.134
54353W        W22571  42.290  31.104   3.459
54354W        W22572  44.431  18.767  13.366
54355W        W22573  18.094  12.341  12.992
54356W        W22574   0.838   2.237   0.490
54357W        W22575   6.796  37.801   3.310
54358W        W22576   9.411  37.598   0.595
54359W        W22577  29.200  41.009  12.108
54360W        W22578  29.178   0.417   4.139
54361W        W22579  26.291  20.245   1.607
54362W        W22580  18.093  18.194  10.660
54363W        W22581  39.402  10.205   0.059
54364W        W22582   6.437  29.887  10.555
54365W        W22583   7.540  13.668   3.623
54366W        W22584   2.917  35.117   3.670
54367W        W22585  31.435   3.380  10.940
54368W        W22586  34.511  17.889   2.061
54369W        W22587  31.066  37.206   2.166
54370W        W22588  28.767  36.260  11.101
54371W        W22589   0.472   8.845   2.012
54372W        W22590  24.937   4.772  13.966
54373W        W22591  27.997   0.475   2.922
54374W        W22592   5.636   3.887   0.064
54375W        W22593  13.721  27.027  11.696
54376W        W22594  14.700  40.766   0.555
54377W        W22595   7.932  38.428  11.436
54378W        W22596  18.086  33.028   0.668
54379W        W22597  40.103   7.360   3.762
54380W        W22598   7.395  21.761  11.476
54381W        W22599   0.144  10.820   0.707
54382W        W22600   9.751  37.116   3.830
54383W        W22601  24.956  11.306  14.305
54384W        W22602  26.116   6.816  11.406
54385W        W22603  16.548   3.428  12.064
54386W        W22604   2.370   5.714   3.948
54387W        W22605  40.944   9.190  13.118
54388W        W22606  40.870  12.395   0.904
54389W        W22607  35.787  43.520   3.761
54390W        W22608  23.040  21.847  11.774
54391W        W22609  40.157   1.740  14.448
54392W        W22610   4.972  15.544  13.994
54393W        W22611   8.156  16.909  12.051
54394W        W22612  25.461  32.151  13.810
54395W        W22613  16.636  11.094   3.693
54396W        W22614  25.160  32.907  12.132
54397W        W22615   8.342  31.343   3.390
54398W        W22616  17.251  41.028   4.905
54399W        W22617  34.086   2.330  14.733
54400W        W22618   3.922  13.704   1.705
54401W        W22619  44.822   3.871   0.280
54402W        W22620  41.048  34.438   3.167
54403W        W22621  32.442  43.367   0.214
54404W        W22622  43.135  15.246  10.511
54405W        W22623  19.158  37.934   2.811
54406W        W22624  10.673  10.068  13.025
54407W        W22625  30.705  32.072   2.278
54408W        W22626  31.985   8.198  14.322
54409W        W22627  21.279  17.727  14.764
54410W        W22628   4.725  12.265   0.400
54411W        W22629  40.962  11.995   1.256
54412W        W22630  17.596  43.445   3.391
54413W        W22631   5.956  10.176   0.724
54414W        W22632   2.384  31.345  14.895
54415W        W22633  34.225   9.136   1.295
54416W        W22634  26.738  21.637  10.995
54417W        W22635  32.381  20.987   1.881
54418W        W22636  29.387   4.902  12.973
54419W        W22637   7.824  17.878  14.068
54420W        W22638   1.929  20.503  10.403
54421W        W22639  42.541  24.206   4.521
54422W        W22640  28.985  25.650   0.909
54423W        W22641  42.317  43.514  13.633
54424W        W22642  44.358   1.853   2.301
54425W        W22643  17.014  24.028   1.493
54426W        W22644  36.648  28.607   3.163
54427W        W22645  43.985  11.405   4.558
54428W        W22646  23.680  27.479   4.698
54429W        W22647   1.368  12.241  13.827
54430W        W22648  14.667  20.188   4.771
54431W        W22649   3.951  26.715  11.566
54432W        W22650   8.977   5.768   1.381
54433W        W22651  19.351  31.966  14.111
54434W        W22652  25.897  10.372  12.497
54435W        W22653  28.147  44.830   2.779
54436W        W22654   0.339   0.866  12.576
54437W        W22655   7.238  12.239   1.925
54438W        W22656  28.751  39.521  12.955
54439W        W22657  23.625  36.310   3.634
54440W        W22658  21.063   4.944  10.680
54441W        W22659  31.689  22.995  12.590
54442W        W22660  34.901  33.415   2.399
54443W        W22661  23.685  26.570  11.920
54444W        W22662  14.289  24.705  13.861
54445W        W22663  36.409  22.386  10.542
54446W        W22664  31.668  13.133  12.381
54447W        W22665  25.298  37.163   2.822
54448W        W22666  31.158  19.285   0.795
54449W        W22667  26.965  42.744   5.020
54450W        W22668  39.403  31.699  10.316
54451W        W22669  12.878  24.636   0.026
54452W        W22670  23.151  27.029   3.716
54453W        W22671  42.038  29.517  12.542
54454W        W22672  32.137  22.975  12.132
54455W        W22673  28.453  12.395   0.916
54456W        W22674   6.329  14.336  13.724
54457W        W22675  44.955  38.843  12.453
54458W        W22676  25.959   2.455   2.316
54459W        W22677  10.193  36.424   1.239
54460W        W22678  26.041  23.470   2.932
54461W        W22679  28.177   6.297   2.193
54462W        W22680   4.504  13.139   9.889
54463W        W22681  16.846  19.246   3.210
54464W        W22682   7.378   7.955   3.994
54465W        W22683   1.984  13.203   1.941
54466W        W22684  25.549  19.614  12.140
54467W        W22685  12.986  31.235  10.473
54468W        W22686   0.421   1.783  13.165
54469W        W22687  30.236  24.876   3.162
54470W        W22688  13.767  24.977   0.272
54471W        W22689  11.653  32.171   3.624
54472W        W22690   6.374   6.713  13.987
54473W        W22691  19.716  31.168  12.479
54474W        W22692  42.900   1.825   2.961
54475W        W22693  39.335   9.732   0.292
54476W        W22694  15.104   1.269   4.704
54477W        W22695  30.106  32.024   3.584
54478W        W22696  23.097   1.762  10.523
54479W        W22697  40.153  16.812  13.754
54480W        W22698  10.185  14.238  11.270
54481W        W22699  11.538  29.073   3.183
54482W        W22700  27.485  35.649  11.533
54483W        W22701  38.051  24.524   2.346
54484W        W22702  10.928  31.902  12.413
54485W        W22703   5.830  35.398   0.118
54486W        W22704   8.369   6.442   2.784
54487W        W22705  23.921   1.973  11.026
54488W        W22706  38.505  19.249  13.886
54489W        W22707   5.217  26.206  12.135
54490W        W22708  15.964  27.005  11.678
54491W        W22709  20.478  13.164  13.871
54492W        W22710  16.262  40.656  12.907
54493W        W22711   6.829   5.170   3.330
54494W        W22712   4.933  19.256  14.821
54495W        W22713  35.565  36.745   2.242
54496W        W22714  35.023  12.402   0.467
54497W        W22715   4.871  29.560   0.677
54498W        W22716  34.308  18.690   2.794
54499W        W22717  18.066  26.169  10.612
54500W        W22718  39.970   4.194  11.105
54501W        W22719   2.465   8.849   2.538
54502W        W22720  31.039  28.921   1.234
54503W        W22721  13.790   3.364  11.176
54504W        W22722  15.561   4.187  11.562
54505W        W22723   6.586  40.191   9.708
54506W        W22724  20.499  20.447   0.439
54507W        W22725  18.861  10.330   0.864
54508W        W22726  44.910  20.264  10.730
54509W        W22727  28.164  13.667   4.734
54510W        W22728  42.839  19.598   1.842
54511W        W22729   1.815  30.924  14.460
54512W        W22730  21.712   3.949  14.101
54513W        W22731  41.393  37.847  11.146
54514W        W22732  14.886  25.419  12.343
54515W        W22733   2.679   9.363   3.170
54516W        W22734  11.116  24.450   1.304
54517W        W22735   6.050   9.495   0.830
54518W        W22736  24.077  44.441  10.802
54519W        W22737  12.081   6.182  11.577
54520W        W22738  12.098  40.959  11.091
54521W        W22739  36.553  11.942   0.745
54522W        W22740  17.760  20.065  12.487
54523W        W22741  27.902   0.367   1.206
54524W        W22742  22.670   4.182   1.384
54525W        W22743  13.896  28.665  13.915
54526W        W22744  38.853  13.100  14.706
54527W        W22745   0.047  37.851  11.650
54528W        W22746  44.376   1.472  13.551
54529W        W22747  42.167  20.333  12.611
54530W        W22748  29.939  31.049   1.237
54531W        W22749  10.683  32.466   2.477
54532W        W22750  25.083  21.544   3.646
54533W        W22751   6.915  11.889   2.752
54534W        W22752  19.717  16.903   0.414
54535W        W22753  13.107  36.487  13.373
54536W        W22754  19.080  28.250   3.691
54537W        W22755   1.305  10.546  12.883
54538W        W22756  37.776  25.700   4.117
54539W        W22757   2.796  28.174  11.284
54540W        W22758   4.158   7.280   4.635
54541W        W22759   5.199   6.663   1.359
54542W        W22760   0.760  18.743   4.620
54543W        W22761  13.632  43.582   1.282
54544W        W22762  16.982   8.194   1.319
54545W        W22763  19.245  17.593  14.436
54546W        W22764  35.434  29.073  11.133
54547W        W22765   3.436  34.880  13.913
54548W        W22766   3.477  36.451   1.446
54549W        W22767  38.904   6.579  12.314
54550W        W22768  33.634  11.874   2.214
54551W        W22769  20.295  11.262  10.735
54552W        W22770  33.948  29.383   5.407
54553W        W22771   2.921  13.363   2.344
54554W        W22772   5.293  20.515  12.458
54555W        W22773   9.179  12.753   4.075
54556W        W22774  24.967  14.776  11.997
54557W        W22775  13.305   1.234  13.324
54558W        W22776  34.805   7.421  13.793
54559W        W22777  14.239  15.893  12.018
54560W        W22778  35.924  11.589   1.874
54561W        W22779  34.481  19.437  11.918
54562W        W22780  16.030   2.475  14.355
54563W        W22781  10.831  20.677  10.297
54564W        W22782  12.231  44.061   4.624
54565W        W22783  38.019   3.333  12.075
54566W        W22784  39.107  14.787   0.885
54567W        W22785  12.056  44.830  12.521
54568W        W22786  28.903  27.942   0.472
54569W        W22787  17.668  12.344   1.258
54570W        W22788  34.531  38.036   4.344
54571W        W22789  19.470  27.380  14.722
54572W        W22790  19.442  32.831   1.979
54573W        W22791  18.151  27.075  11.953
54574W        W22792   0.777  29.054   3.586
54575W        W22793  37.614  21.707   0.274
54576W        W22794  32.115  25.195  10.767
54577W        W22795  30.565  21.553   0.932
54578W        W22796  25.065   6.305  13.705
54579W        W22797   1.839  20.229   4.495
54580W        W22798  41.889   2.949  14.417
54581W        W22799  35.413  15.608   4.034
54582W        W22800  42.960  23.632   1.229
54583W        W22801  33.373  11.890   0.711
54584W        W22802  30.548  31.564   0.210
54585W        W22803  11.630  25.980   0.394
54586W        W22804  31.488  29.529   5.112
54587W        W22805  21.437   2.757   3.320
54588W        W22806  22.218  12.596  11.559
54589W        W22807  16.932   4.568   1.472
54590W        W22808  22.837  33.461   0.740
54591W        W22809  42.691  21.997   1.718
54592W        W22810   7.306  39.518  14.025
54593W        W22811  10.608  38.770  13.604
54594W        W22812  20.647   2.400   1.393
54595W        W22813  28.770  31.703  11.974
54596W        W22814   2.037  35.153  14.954
54597W        W22815  26.152  38.581  14.371
54598W        W22816  40.560  34.370  10.761
54599W        W22817   3.819  35.587   3.533
54600W        W22818  12.870  20.783   4.554
54601W        W22819   6.329  32.445   2.295
54602W        W22820  31.693  38.883   2.310
54603W        W22821  22.594   4.714   0.506
54604W        W22822  29.375  16.729   2.147
54605W        W22823  19.073  21.229  12.612
54606W        W22824  18.874  39.863   2.653
54607W        W22825   9.456  14.807   2.215
54608W        W22826   3.970  34.311  12.108
54609W        W22827  42.278  44.706  14.892
54610W        W22828   5.604   0.472   2.461
54611W        W22829   7.021  32.341  12.461
54612W        W22830  42.074  11.827   2.200
54613W        W22831   3.234  15.844   0.840
54614W        W22832   0.911   0.459  13.120
54615W        W22833  40.194  42.439   3.147
54616W        W22834  25.281  10.166  10.795
54617W        W22835  19.373  22.428  14.025
54618W        W22836  43.488  23.027   2.656
54619W        W22837   5.859   5.245   3.675
54620W        W22838   1.366  26.608   1.740
54621W        W22839   0.911  27.992  13.554
54622W        W22840  11.913  42.480  13.881
54623W        W22841  19.177   6.113   4.446
54624W        W22842   6.814  31.548   2.331
54625W        W22843  12.824   6.738   0.233
54626W        W22844  23.192  36.552   1.865
54627W        W22845  32.633  33.799  10.837
54628W        W22846  21.963  25.019   0.844
54629W        W22847  27.623  43.809   3.162
54630W        W22848   6.089  43.981   4.283
54631W        W22849  24.394   8.435   4.181
54632W        W22850  19.526  39.053  12.551
54633W        W22851  25.495  40.899  14.600
54634W        W22852  40.195  30.720  14.959
54635W        W22853  42.255   4.905   4.239
54636W        W22854   7.624  26.517   2.782
54637W        W22855  33.240  40.052  13.351
54638W        W22856  16.229  15.865   3.031
54639W        W22857  31.449   0.309  11.895
54640W        W22858   9.263   3.413  10.918
54641W        W22859   0.104   0.297   4.685
54642W        W22860  40.279  16.812   0.252
54643W        W22861   4.305  40.421   2.833
54644W        W22862  23.508  30.075   4.361
54645W        W22863   7.250   3.211  13.487
54646W        W22864   5.413   2.249  12.692
54647W        W22865  44.430   8.625   3.732
54648W        W22866  23.594   3.018  14.377
54649W        W22867  40.516  29.265  13.477
54650W        W22868  34.251   9.603   0.274
54651W        W22869  33.682  30.573   2.287
54652W        W22870   5.281  22.183  14.731
54653W        W22871  10.194  29.027   3.112
54654W        W22872  41.549  40.025   1.072
54655W        W22873  12.873  26.243  11.873
54656W        W22874  41.936  41.300  10.687
54657W        W22875  12.029  44.939  12.005
54658W        W22876   0.759  43.858   4.480
54659W        W22877  36.807  43.805  12.401
54660W        W22878  35.978  15.623   4.760
54661W        W22879   8.126  41.477   0.709
54662W        W22880   5.304  28.527  14.271
54663W        W22881   6.632  40.937  10.816
54664W        W22882  16.270  11.430  13.637
54665W        W22883  43.899   2.926   1.501
54666W        W22884  38.095  34.337   1.227
54667W        W22885  18.242  42.476   0.929
54668W        W22886  18.083  17.251   2.164
54669W        W22887  17.977   6.069  11.460
54670W        W22888  25.478   8.764  11.650
54671W        W22889   1.833  39.333  11.442
54672W        W22890   7.610  24.285   4.159
54673W        W22891  39.135  37.715   1.373
54674W        W22892   4.390   0.312   4.411
54675W        W22893  18.111  38.972  12.860
54676W        W22894  32.258  26.765   1.733
54677W        W22895  29.402  22.255   3.795
54678W        W22896  41.331  37.807   2.653
54679W        W22897   4.783  37.301   0.330
54680W        W22898  40.860  18.856   3.229
54681W        W22899  29.002  23.185  13.938
54682W        W22900   9.392  31.225   1.783
54683W        W22901  16.657  22.721   4.965
54684W        W22902  19.721  26.016   3.863
54685W        W22903  11.194  20.972  11.125
54686W        W22904  23.098   6.928   3.253
54687W        W22905  15.068  36.125  11.835
54688W        W22906  19.397  41.308   1.624
54689W        W22907  31.930   8.900   1.053
54690W        W22908   2.498  41.220  12.023
54691W        W22909  18.695   5.300  14.587
54692W        W22910   4.850  15.241   0.782
54693W        W22911  21.007  39.933   3.821
54694W        W22912  32.739  29.563   4.972
54695W        W22913  14.040  11.912   2.980
54696W        W22914  14.219  35.465   4.262
54697W        W22915  41.463   9.177   0.328
54698W        W22916  21.349  36.615   4.294
54699W        W22917   3.190  41.411   0.888
54700W        W22918   3.307  24.148   0.178
54701W        W22919  38.470  13.519   4.561
54702W        W22920  44.925  34.813   0.846
54703W        W22921   5.840  18.625  11.598
54704W        W22922  27.709  25.132   3.324
54705W        W22923  37.706  26.019   2.885
54706W        W22924  29.864   8.898  10.194
54707W        W22925   4.947  26.828   5.063
54708W        W22926   5.797  13.544  11.957
54709W        W22927  31.005   4.906  14.786
54710W        W22928  24.668  20.694   3.387
54711W        W22929  11.597   3.765   2.393
54712W        W22930  35.176  39.943  14.303
54713W        W22931  30.919  33.102   0.785
54714W        W22932  31.079  41.293  10.655
54715W        W22933  43.543  22.524  10.936
54716W        W22934  15.197  13.902  13.946
54717W        W22935   3.509  31.427  12.805
54718W        W22936  40.265   2.877   3.656
54719W        W22937   5.673  38.896  10.566
54720W        W22938   7.835   8.644  14.182
54721W        W22939  34.629  30.467  12.938
54722W        W22940  31.848  22.389   5.291
54723W        W22941  35.390  25.390  11.056
54724W        W22942  15.617  28.092  13.273
54725W        W22943  27.264   6.831  11.007
54726W        W22944  14.743   8.597   3.822
54727W        W22945  31.116   3.842  12.029
54728W        W22946  27.661  38.558   4.373
54729W        W22947   1.606  16.565   3.527
54730W        W22948  39.380  35.047  14.140
54731W        W22949  44.046  18.686   0.522
54732W        W22950  37.275  27.669   4.697
54733W        W22951   1.189  26.132   0.033
54734W        W22952   0.923  18.692   1.817
54735W        W22953   3.787  34.998  14.351
54736W        W22954  28.301  43.090  10.692
54737W        W22955  41.967  23.765  12.522
54738W        W22956  33.958  27.756   2.280
54739W        W22957  27.611  10.661   4.410
54740W        W22958  13.865  12.837  13.913
54741W        W22959  40.451  44.559  13.984
54742W        W22960  40.767  26.648  13.962
54743W        W22961  20.603   2.002  13.854
54744W        W22962  13.995  25.445   0.307
54745W        W22963  27.442  32.607   0.215
54746W        W22964  42.686  37.587  14.003
54747W        W22965  19.144  30.342  11.116
54748W        W22966  27.536  29.030   3.589
54749W        W22967  29.180  11.221   0.879
54750W        W22968  11.182   9.475   2.279
54751W        W22969  11.192  27.004   1.627
54752W        W22970  24.663  19.263   0.527
54753W        W22971  13.274  31.239   1.384
54754W        W22972  36.083  38.571   1.183
54755W        W22973  14.948   7.791  14.555
54756W        W22974  21.572  28.515   0.336
54757W        W22975  42.342  12.630   4.256
54758W        W22976  38.847  17.437   4.207
54759W        W22977  23.981  18.482  11.192
54760W        W22978  12.768  16.787   1.769
54761W        W22979   3.786  26.777  14.871
54762W        W22980  35.635  37.465   1.749
54763W        W22981  19.739  24.492  14.364
54764W        W22982  35.135   2.333   1.983
54765W        W22983  22.169  30.834  10.821
54766W        W22984   0.726  20.988   3.075
54767W        W22985   0.388  23.357   4.296
54768W        W22986  17.398  19.671  12.572
54769W        W22987   5.679  32.889  10.731
54770W        W22988  39.890   2.705   0.291
54771W        W22989   9.255   3.157   0.169
54772W        W22990  18.793  26.240   3.688
54773W        W22991  23.317  35.652  14.771
54774W        W22992  14.699  26.244   4.172
54775W        W22993  27.888  40.352  11.927
54776W        W22994  14.276  42.695  13.352
54777W        W22995   3.003  32.375  12.886
54778W        W22996  17.170  12.720   9.945
54779W        W22997  23.568   3.230   3.853
54780W        W22998  18.342   3.468  11.534
54781W        W22999  15.790   3.512   9.871
54782W        W23000   0.482  18.174  14.955
54783W        W23001  30.058  29.714   4.146
54784W        W23002   1.592  40.903  14.316
54785W        W23003  21.780  25.994   4.220
54786W        W23004  42.208   2.489   2.244
54787W        W23005  19.472  25.045  12.069
54788W        W23006  12.244  31.401   0.301
54789W        W23007  27.538  22.127  10.045
54790W        W23008  13.512  11.813   0.976
54791W        W23009  15.279  23.532   4.681
54792W        W23010  36.523  26.197  13.260
54793W        W23011  37.282  26.563   4.029
54794W        W23012  12.603  33.471  13.604
54795W        W23013  40.386  39.554  14.934
54796W        W23014  33.305  44.302  14.665
54797W        W23015  14.328  44.960  11.189
54798W        W23016   8.827  37.774   3.718
54799W        W23017  23.575  16.846  14.927
54800W        W23018   5.655  31.029  13.043
54801W        W23019  40.487  19.055   0.717
54802W        W23020   4.631  33.751   5.004
54803W        W23021   6.252  40.297  14.471
54804W        W23022  32.092   9.232  12.763
54805W        W23023  21.306  32.918   2.289
54806W        W23024   3.306  24.019   4.502
54807W        W23025  22.046  13.189   1.798
54808W        W23026  33.439  15.195   0.916
54809W        W23027  41.944  20.474   0.905
54810W        W23028  15.272  19.771   0.671
54811W        W23029  30.615  23.519  12.958
54812W        W23030  18.439   8.276   0.933
54813W        W23031  15.517  30.505   4.296
54814W        W23032  18.127  37.200   4.656
54815W        W23033  11.054  41.794  11.197
54816W        W23034   7.649  15.816  11.816
54817W        W23035  10.585  38.346   2.399
54818W        W23036  39.967  25.000  11.647
54819W        W23037  13.591  30.958   0.692
54820W        W23038  44.554  29.072  13.320
54821W        W23039  18.890  15.656   2.632
54822W        W23040  10.892  30.841   4.937
54823W        W23041  21.796  15.555   0.888
54824W        W23042  24.107  12.349  10.753
54825W        W23043  39.792  37.189  13.403
54826W        W23044  39.060  14.176  10.561
54827W        W23045   6.319  25.354   1.238
54828W        W23046  44.171  14.957  12.406
54829W        W23047  16.897  13.736  12.449
54830W        W23048  13.624  26.046   2.013
54831W        W23049   1.927  27.068   4.843
54832W        W23050  23.639  31.204   2.436
54833W        W23051  41.242  26.989  11.584
54834W        W23052  42.110  31.899   1.740
54835W        W23053  23.088  42.930   3.708
54836W        W23054  38.076  24.218   1.832
54837W        W23055  12.674  15.754  14.790
54838W        W23056  19.257   2.854   0.446
54839W        W23057   4.687   1.581  12.884
54840W        W23058   9.894  37.091   2.333
54841W        W23059  35.068   9.821  11.137
54842W        W23060   1.889   4.944  10.830
54843W        W23061  43.083  44.405  12.032
54844W        W23062   1.328  21.679  14.490
54845W        W23063  43.023   9.151   2.794
54846W        W23064  22.627   4.257  13.229
54847W        W23065   7.405  16.135  13.050
54848W        W23066  25.621  24.583   4.882
54849W        W23067  41.821  44.305   5.068
54850W        W23068   7.126  17.441   3.558
54851W        W23069  35.072   0.252  13.279
54852W        W23070  30.903   1.688  11.043
54853W        W23071  24.298   1.867  12.839
54854W        W23072  30.100  14.766  14.955
54855W        W23073  28.351   5.143   1.002
54856W        W23074   7.455  24.817   4.949
54857W        W23075  40.022  27.393  12.447
54858W        W23076   8.740  23.081  12.864
54859W        W23077  21.317   0.093  11.096
54860W        W23078  30.633  24.246  11.089
54861W        W23079  43.081   3.823  14.366
54862W        W23080  13.022  28.380  10.974
54863W        W23081  39.351  13.604   2.330
54864W        W23082  32.076   1.712   5.390
54865W        W23083  23.140  21.252  13.450
54866W        W23084  30.489  36.336   0.475
54867W        W23085   7.888   2.496   1.908
54868W        W23086   3.371  20.715  10.751
54869W        W23087  19.785  36.873   2.261
54870W        W23088  39.543  34.350  11.880
54871W        W23089  27.496  26.627  13.156
54872W        W23090  25.987   6.740  10.904
54873W        W23091  28.186  23.173  14.774
54874W        W23092  38.993  18.003   0.886
54875W        W23093   9.751   8.762  14.087
54876W        W23094  30.150   0.896   2.974
54877W        W23095  21.647   4.980   2.899
54878W        W23096  32.307   8.985  12.022
54879W        W23097   1.683  28.305  13.080
54880W        W23098   5.421   4.263  11.321
54881W        W23099  42.934  33.411   2.596
54882W        W23100  25.633   6.995   1.826
54883W        W23101  29.221  32.249  10.770
54884W        W23102   3.864  40.075  11.423
54885W        W23103  42.845  35.386   2.818
54886W        W23104  26.991   2.851   0.410
54887W        W23105  23.222  38.826  14.345
54888W        W23106   8.380  40.998   5.026
54889W        W23107  19.502  17.994   1.727
54890W        W23108  21.331  27.648  13.720
54891W        W23109   3.348  10.649   2.754
54892W        W23110  30.852   7.207  11.175
54893W        W23111  15.155  22.979  11.032
54894W        W23112  44.591   5.839  11.219
54895W        W23113  17.066  10.812  13.485
54896W        W23114  41.603   0.418   1.773
54897W        W23115  16.618  28.854  13.572
54898W        W23116  41.799  26.876   3.720
54899W        W23117  38.479  41.778  10.737
54900W        W23118  21.557  30.011  14.478
54901W        W23119  43.021  43.311  14.719
54902W        W23120   5.848  16.330  13.074
54903W        W23121   9.785  42.881   4.242
54904W        W23122  13.330  10.246  14.904
54905W        W23123  36.472   7.273  12.100
54906W        W23124  40.920  28.033  11.978
54907W        W23125  41.462  35.637  14.714
54908W        W23126  17.617  41.833   1.391
54909W        W23127  35.286  43.313   4.830
54910W        W23128  32.670  24.597  10.680
54911W        W23129  27.028  26.900   3.169
54912W        W23130   0.907  43.441  14.825
54913W        W23131  29.326   2.360  13.386
54914W        W23132  34.949   3.885  14.078
54915W        W23133  14.185  40.767  11.157
54916W        W23134  32.404  35.029  12.067
54917W        W23135  33.661  30.465   0.286
54918W        W23136  24.568  29.650   0.851
54919W        W23137  17.118   8.793   4.698
54920W        W23138  39.240  33.475  13.936
54921W        W23139  33.386  19.135   0.386
54922W        W23140  16.854  16.319   4.024
54923W        W23141   6.671  41.486   2.011
54924W        W23142  13.729  40.650   4.272
54925W        W23143  25.654  23.483  12.319
54926W        W23144   2.927   2.443   3.196
54927W        W23145  24.476  27.958   4.533
54928W        W23146  34.425  17.165  12.080
54929W        W23147   8.916  15.119   4.949
54930W        W23148  42.919  44.832   3.282
54931W        W23149  25.639  16.338  13.818
54932W        W23150  27.011  10.302   2.286
54933W        W23151   9.401  42.889  14.081
54934W        W23152  41.789  21.085   0.467
54935W        W23153  34.435   2.061  11.134
54936W        W23154  23.194  14.336   0.370
54937W        W23155   8.115  36.672   1.285
54938W        W23156   7.385  13.221   4.929
54939W        W23157  14.257   6.424  11.002
54940W        W23158  14.844  40.556   1.893
54941W        W23159  44.008   6.126   2.673
54942W        W23160  15.543  24.309   0.404
54943W        W23161   0.478   9.157   3.568
54944W        W23162   4.664  32.190  10.760
54945W        W23163  27.145  11.758   2.286
54946W        W23164   7.227   4.938   0.296
54947W        W23165  28.674  27.485  12.106
54948W        W23166  24.074  33.628  11.293
54949W        W23167   6.362  25.933  13.045
54950W        W23168   6.645  28.637  13.467
54951W        W23169  27.622   6.935  13.213
54952W        W23170  26.235  38.897   0.704
54953W        W23171  19.519  12.424   3.063
54954W        W23172   9.197  44.293   0.850
54955W        W23173  43.266  38.876   4.699
54956W        W23174  34.382   7.029  12.014
54957W        W23175  11.838  25.018  12.979
54958W        W23176  32.899  23.071  10.713
54959W        W23177   7.905   8.690  11.691
54960W        W23178  40.407  30.117  10.555
54961W        W23179   5.410  21.991  14.276
54962W        W23180   6.373  23.215   0.268
54963W        W23181  43.785  18.348  10.663
54964W        W23182  22.800  36.580   4.040
54965W        W23183  15.658  32.413   4.615
54966W        W23184  35.698  25.886   2.059
54967W        W23185  12.941  38.992  12.335
54968W        W23186  36.447   5.306  11.233
54969W        W23187  14.879  38.511   0.947
54970W        W23188  34.567   0.277   2.404
54971W        W23189  37.317   6.321  10.691
54972W        W23190  10.311  38.573  10.972
54973W        W23191  24.516  13.056   0.770
54974W        W23192  14.253  41.996  10.744
54975W        W23193  37.349  16.138  11.268
54976W        W23194  28.728  13.682  14.876
54977W        W23195  31.959   7.481   4.064
54978W        W23196  31.629  25.227  12.733
54979W        W23197  37.502  36.590  10.967
54980W        W23198  33.953  36.344  11.237
54981W        W23199  14.898  35.878  14.481
54982W        W23200  41.658  27.920  13.831
54983W        W23201   8.711  18.133   2.738
54984W        W23202  22.953  13.425   3.692
54985W        W23203  36.383  19.218  13.031
54986W        W23204  19.031  20.040   2.772
54987W        W23205  26.710  29.182   1.458
54988W        W23206  31.738  14.737   0.310
54989W        W23207  20.512  36.352  14.934
54990W        W23208   2.347  13.257  13.465
54991W        W23209  35.906  33.765   3.596
54992W        W23210  31.180   1.793   1.454
54993W        W23211   5.905  41.206   3.798
54994W        W23212   5.088  18.099  13.920
54995W        W23213  35.443   3.357   2.834
54996W        W23214  36.423   5.512  12.612
54997W        W23215  35.843   9.196   0.866
54998W        W23216   3.711  34.331   0.930
54999W        W23217  22.823  13.204   2.243
55000W        W23218  26.578  33.329  14.113
55001W        W23219  28.277  32.071  14.964
55002W        W23220  28.725  11.680   2.796
55003W        W23221  16.334  35.428   0.920
55004W        W23222  25.315  14.905  10.673
55005W        W23223  31.523  43.734  14.783
55006W        W23224  39.146  22.147   0.013
55007W        W23225  30.529  11.365  14.799
55008W        W23226  22.214  37.582   2.027
55009W        W23227  29.777   6.846  14.166
55010W        W23228   0.898   4.253  12.218
55011W        W23229  20.009  12.085   3.137
55012W        W23230  39.297   9.706  11.648
55013W        W23231  43.373  41.580   4.647
55014W        W23232   0.792  32.270   2.798
55015W        W23233  23.530  42.268   1.333
55016W        W23234  23.432  23.625  11.988
55017W        W23235  27.699   6.192  14.022
55018W        W23236   5.633  33.244  11.643
55019W        W23237  24.484  30.312   0.167
55020W        W23238   1.108  21.424  14.081
55021W        W23239  30.004  33.437   0.477
55022W        W23240  15.377   4.448  12.000
55023W        W23241  20.162  35.016  14.430
55024W        W23242  31.078   9.872  11.590
55025W        W23243  30.881   6.175   0.426
55026W        W23244  38.198  34.954   0.216
55027W        W23245  20.221  40.029   2.181
55028W        W23246  33.138  19.453   2.250
55029W        W23247  25.473  31.160   3.674
55030W        W23248  23.045  15.621   3.186
55031W        W23249  31.213  30.728  11.184
55032W        W23250  24.475  26.688  10.821
55033W        W23251  15.274   8.841   0.345
55034W        W23252  12.708  30.510   1.017
55035W        W23253  10.213  43.779   1.103
55036W        W23254  44.397  26.989  12.087
55037W        W23255  34.543  37.060   2.765
55038W        W23256  10.262  21.803   2.792
55039W        W23257  27.194   6.682   3.686
55040W        W23258   2.724  40.485  11.422
55041W        W23259   3.857  38.360  11.446
55042W        W23260  37.957  29.065   2.893
55043W        W23261  38.279  36.389  11.679
55044W        W23262  16.389  30.378   0.812
55045W        W23263   4.634  31.325   4.520
55046W        W23264   6.726  16.956  13.560
55047W        W23265  32.653  33.278  10.636
55048W        W23266  16.192  34.943   2.680
55049W        W23267  15.570   9.276  14.937
55050W        W23268  41.733  18.031   2.402
55051W        W23269  29.118  18.236   2.786
55052W        W23270   6.089  30.955   4.299
55053W        W23271  39.164  13.834   1.887
55054W        W23272  34.598  24.671   0.216
55055W        W23273  15.243  36.757   3.648
55056W        W23274  43.392  15.268  11.168
55057W        W23275   9.162  42.971  12.860
55058W        W23276   3.926  34.880  13.379
55059W        W23277  32.945  13.075   3.219
55060W        W23278  39.077  40.876   1.383
55061W        W23279  29.766  22.212  13.022
55062W        W23280  35.892   5.425   1.497
55063W        W23281  18.581  12.582  11.399
55064W        W23282  20.501  26.240  14.985
55065W        W23283  15.293   2.042   3.748
55066W        W23284   9.817   1.016  13.628
55067W        W23285  33.077   3.147   5.351
55068W        W23286   1.502  35.533   3.836
55069W        W23287  35.051  12.384   2.332
55070W        W23288  34.577   2.479  12.220
55071W        W23289  11.265  16.241  11.897
55072W        W23290  38.053  10.564  12.522
55073W        W23291  32.122   9.911   9.886
55074W        W23292  33.840   6.674   4.638
55075W        W23293  23.641  41.713   3.145
55076W        W23294  22.669  30.690  10.994
55077W        W23295   5.401   6.609  13.888
55078W        W23296  33.499  13.246   0.856
55079W        W23297   6.716  16.280   5.088
55080W        W23298   9.175  41.452   2.420
55081W        W23299  24.767  44.785   1.108
55082W        W23300   1.675  42.012  13.933
55083W        W23301  26.348  21.212   2.276
55084W        W23302   1.273  26.359   4.610
55085W        W23303  25.757  29.893   0.287
55086W        W23304  11.375   6.911   1.761
55087W        W23305  27.947  17.538  13.443
55088W        W23306   0.489  38.570  12.031
55089W        W23307  12.675  15.311   0.726
55090W        W23308   1.348  32.415  10.684
55091W        W23309  14.783  10.122  12.004
55092W        W23310  40.032  26.404  11.309
55093W        W23311  25.477  28.071  14.720
55094W        W23312  40.740  27.525   3.409
55095W        W23313   9.159  41.819   4.113
55096W        W23314  19.488  33.477  14.492
55097W        W23315  22.473   7.047   2.426
55098W        W23316   6.699  10.718  14.704
55099W        W23317   4.011  35.329   1.722
55100W        W23318  35.057  37.842   0.258
55101W        W23319  17.624  23.994   0.952
55102W        W23320   9.273  17.551  14.324
55103W        W23321   5.500  28.421   1.785
55104W        W23322   8.819  40.913   4.601
55105W        W23323  29.511  11.328  10.357
55106W        W23324  10.197  10.713   4.913
55107W        W23325  21.636   5.436  14.374
55108W        W23326  14.084  33.834  10.624
55109W        W23327  35.185  21.319   2.874
55110W        W23328  10.748   4.464  14.983
55111W        W23329  16.853  31.378   0.903
55112W        W23330   3.339  17.633   0.479
55113W        W23331  14.069  32.550   0.784
55114W        W23332  11.685  29.381   0.458
55115W        W23333  43.183  37.536   2.320
55116W        W23334  20.391   3.865  13.470
55117W        W23335  30.794  40.750   1.255
55118W        W23336  30.550  17.611  10.775
55119W        W23337  36.957  17.293   0.564
55120W        W23338  10.777  14.804   0.920
55121W        W23339  16.615   1.226   3.919
55122W        W23340  24.005  40.074  12.146
55123W        W23341  44.379   6.343  14.831
55124W        W23342  14.550  35.506  11.112
55125W        W23343   6.722  13.362  12.340
55126W        W23344  15.373  27.447  13.497
55127W        W23345   8.633   9.299  13.787
55128W        W23346   2.119  35.661   2.231
55129W        W23347   4.898   5.737   1.121
55130W        W23348  35.330   5.324  12.485
55131W        W23349   3.327  44.453   1.475
55132W        W23350  38.122  44.788   1.426
55133W        W23351   4.619  28.688   3.606
55134W        W23352  38.259  12.584   0.405
55135W        W23353  39.860  21.503  11.522
55136W        W23354  24.233   9.951   0.874
55137W        W23355  20.792   8.771   0.297
55138W        W23356   1.458  28.093   1.472
55139W        W23357  29.833  20.022   2.400
55140W        W23358  15.911   5.655  12.462
55141W        W23359  43.374  33.882  14.558
55142W        W23360  40.330   7.065   3.354
55143W        W23361   8.729  38.432   4.339
55144W        W23362  33.901  19.117  13.576
55145W        W23363  44.570  22.980   2.006
55146W        W23364  14.360  44.977  13.417
55147W        W23365  33.920   6.921  12.385
55148W        W23366  26.681  35.332  13.182
55149W        W23367  40.286  21.899   4.266
55150W        W23368  33.195  36.700  12.436
55151W        W23369  18.794  22.050   2.844
55152W        W23370  15.335  34.561   1.484
55153W        W23371  23.765   6.788   0.373
55154W        W23372   5.900  21.657  12.233
55155W        W23373  25.443  10.141  11.550
55156W        W23374  44.185  29.382   4.793
55157W        W23375  11.095  38.982   3.190
55158W        W23376  23.687  15.835  14.958
55159W        W23377  13.350  42.006   4.582
55160W        W23378  24.609  28.706  10.462
55161W        W23379  28.125  20.158  11.417
55162W        W23380  19.876  16.625  14.779
55163W        W23381  26.707  35.633   0.427
55164W        W23382  31.975  27.428  12.476
55165W        W23383  21.072  43.016   0.322
55166W        W23384   5.684  27.709   0.392
55167W        W23385  22.000  25.611  13.530
55168W        W23386  44.701   0.784  11.980
55169W        W23387   3.155  24.100   2.539
55170W        W23388  11.274  24.593  14.449
55171W        W23389  38.995  12.120  14.166
55172W        W23390  36.447  29.379  12.443
55173W        W23391  16.789  40.950   4.684
55174W        W23392   3.643  32.950  13.269
55175W        W23393   3.353  33.279  12.985
55176W        W23394  36.500   0.509  12.034
55177W        W23395  11.264  13.266   4.114
55178W        W23396  31.124  20.427   3.808
55179W        W23397  33.607  15.798  14.749
55180W        W23398  33.767  21.481   1.423
55181W        W23399  32.913  37.513   3.945
55182W        W23400  33.504  34.870  12.510
55183W        W23401  19.701  23.112   2.328
55184W        W23402  11.234  20.010  12.043
55185W        W23403  14.075   4.189   3.818
55186W        W23404  24.628  29.614   3.042
55187W        W23405   9.322   1.350   3.116
55188W        W23406  43.203   1.305  11.879
55189W        W23407  37.098  13.352   0.499
55190W        W23408   7.016  13.749  12.540
55191W        W23409  19.431   8.692   3.383
55192W        W23410  24.930  32.422   1.203
55193W        W23411  31.010  27.927  13.576
55194W        W23412  17.519   2.749   1.978
55195W        W23413  10.738  40.638   1.995
55196W        W23414  39.840  32.083   4.549
55197W        W23415  28.551  16.732   9.771
55198W        W23416  14.383   4.141   0.373
55199W        W23417  20.987  18.255  10.747
55200W        W23418  18.599  22.818   0.970
55201W        W23419   8.904  41.193  13.008
55202W        W23420  13.766   1.187  13.084
55203W        W23421  14.761  26.961   0.845
55204W        W23422  12.814   8.418  11.117
55205W        W23423   1.445  18.495  14.064
55206W        W23424   0.534  39.746  11.139
55207W        W23425   4.285  39.200   2.776
55208W        W23426  14.533  44.556  11.690
55209W        W23427   4.006  11.132  11.018
55210W        W23428  23.592  26.456   0.369
55211W        W23429  34.582   9.756   2.423
55212W        W23430  30.940   0.205  14.252
55213W        W23431   2.474  36.527  13.873
55214W        W23432  13.905  28.989   3.204
55215W        W23433  15.844   9.878  12.481
55216W        W23434   1.742  27.978   0.757
55217W        W23435  36.944   9.234   4.126
55218W        W23436   7.419  21.504  14.486
55219W        W23437  24.759  19.166   3.240
55220W        W23438  19.920  16.629  13.443
55221W        W23439  17.517  13.503   4.308
55222W        W23440  42.169  22.305  14.812
55223W        W23441   6.880   5.648   2.690
55224W        W23442  19.044   1.787  12.099
55225W        W23443   5.664  11.314  10.528
55226W        W23444  33.552  21.096   3.689
55227W        W23445  37.645  44.280  11.580
55228W        W23446  14.747  11.138  11.097
55229W        W23447  38.301  31.877  11.967
55230W        W23448  32.003  43.665  14.551
55231W        W23449   8.645  19.819  14.833
55232W        W23450  23.004  24.511   4.166
55233W        W23451  12.840  32.946  14.751
55234W        W23452  25.024   5.694  13.929
55235W        W23453  28.165  43.997  11.559
55236W        W23454   8.176  21.910   1.288
55237W        W23455  31.726  28.490  11.255
55238W        W23456  40.911   3.694  12.919
55239W        W23457   2.221  35.155  14.423
55240W        W23458  35.969   4.782   3.344
55241W        W23459  28.415   2.375  14.754
55242W        W23460  43.292  12.208   5.061
55243W        W23461  21.963  33.986  13.224
55244W        W23462  34.016  31.364  11.660
55245W        W23463  10.370  34.789  11.143
55246W        W23464  37.121  28.114  10.687
55247W        W23465  39.447  34.809   0.557
55248W        W23466  25.495  11.840  13.833
55249W        W23467  24.614   7.193  10.418
55250W        W23468  28.982  40.968  12.909
55251W        W23469  28.554  40.949   0.900
55252W        W23470  14.576  14.766  14.638
55253W        W23471  25.212  11.405   0.594
55254W        W23472  22.155  39.541   2.206
55255W        W23473  17.845  17.664   0.678
55256W        W23474  10.176  12.674   2.033
55257W        W23475  17.070  38.908  12.308
55258W        W23476   9.332  40.746  12.349
55259W        W23477  13.676   8.953   4.479
55260W        W23478  34.013  20.144   1.142
55261W        W23479  30.579  29.675   0.269
55262W        W23480   8.124  12.895  11.507
55263W        W23481  39.763  20.540   4.758
55264W        W23482  33.134  10.475   4.272
55265W        W23483  30.263   4.670   0.291
55266W        W23484  12.019  42.775  10.178
55267W        W23485  15.526  31.894   3.348
55268W        W23486  13.087  30.573   3.221
55269W        W23487  40.817  35.596   2.780
55270W        W23488  18.617   0.729  14.873
55271W        W23489  41.855  26.447  13.847
55272W        W23490  34.161  32.643  13.120
55273W        W23491  32.933  16.268   0.867
55274W        W23492  42.769  43.711  13.904
55275W        W23493  15.710  44.412  13.907
55276W        W23494  19.115  28.164  12.857
55277W        W23495   6.350  32.060  13.177
55278W        W23496   2.262  12.687  10.660
55279W        W23497   5.364  19.867   4.608
55280W        W23498  44.081  26.786  14.818
55281W        W23499  31.041   7.629  14.091
55282W        W23500   5.625  43.277  11.566
55283W        W23501  30.180  25.483  10.806
55284W        W23502   8.240   0.251   1.332
55285W        W23503  41.355  11.420   2.400
55286W        W23504  19.158  41.403   3.186
55287W        W23505  21.188  20.528   4.493
55288W        W23506  12.324  23.166  12.661
55289W        W23507   4.728   0.293   1.222
55290W        W23508  22.058  33.420   0.466
55291W        W23509  32.794  25.142   0.042
55292W        W23510  39.861  12.878  11.566
55293W        W23511  10.054   0.274  14.323
55294W        W23512  13.958  36.182  13.557
55295W        W23513   1.447  40.258   1.055
55296W        W23514  25.152  12.050  14.978
55297W        W23515   9.877  20.088  12.368
55298W        W23516  29.222  23.138   0.854
55299W        W23517  20.218  15.561  12.845
55300W        W23518  16.469   1.622  12.848
55301W        W23519  44.302  12.146  14.799
55302W        W23520   4.173  25.138  11.222
55303W        W23521   0.766   0.414   2.256
55304W        W23522  33.372   2.474   2.395
55305W        W23523  41.359  38.174  13.388
55306W        W23524   9.836  19.604  13.963
55307W        W23525  30.061  17.441  10.747
55308W        W23526  22.684  37.831   2.012
55309W        W23527  31.667  28.121   4.427
55310W        W23528  40.232  43.269   1.661
55311W        W23529  26.914   0.707   4.237
55312W        W23530  21.762  37.888   2.003
55313W        W23531  43.263  35.308   1.187
55314W        W23532  39.353   3.652   5.477
55315W        W23533  33.056  30.992   9.735
55316W        W23534  35.987   0.674  13.604
55317W        W23535  38.390  23.816  14.452
55318W        W23536   9.477  30.070   0.373
55319W        W23537   9.346  29.565  13.392
55320W        W23538  10.156  42.872  13.613
55321W        W23539   3.439  38.005  14.831
55322W        W23540  31.579  43.967  10.300
55323W        W23541  36.414  12.709   1.426
55324W        W23542  36.991  28.473   0.034
55325W        W23543  35.092   6.916   4.133
55326W        W23544   1.964  34.967   4.862
55327W        W23545  30.815  42.298   4.605
55328W        W23546   2.414  11.794   1.841
55329W        W23547   2.333   6.384   1.786
55330W        W23548  16.311  18.788  13.813
55331W        W23549  30.969  34.375  13.568
55332W        W23550  44.838  21.673   3.274
55333W        W23551  13.450  23.753  14.885
55334W        W23552  44.656  19.654  12.092
55335W        W23553  43.369  19.797  12.566
55336W        W23554  42.056  14.855  12.740
55337W        W23555  16.000  31.507  14.335
55338W        W23556   0.000   0.972   0.492
55339W        W23557  11.202  34.074  13.341
55340W        W23558  31.761  20.267  11.574
55341W        W23559  19.932   1.438   4.589
55342W        W23560   3.427  13.727   4.573
55343W        W23561  42.484   6.583  13.459
55344W        W23562  26.765  23.180  10.985
55345W        W23563  24.427  28.948   2.938
55346W        W23564  23.722  27.990  11.795
55347W        W23565   6.434  19.806  13.366
55348W        W23566  23.467   5.937   3.696
55349W        W23567  17.977   1.530   1.351
55350W        W23568  39.299  26.726  14.520
55351W        W23569  43.284  28.516  12.159
55352W        W23570   6.495  32.126  10.733
55353W        W23571   3.996  10.205   4.515
55354W        W23572  24.188  15.204   1.873
55355W        W23573  31.283  41.413   2.215
55356W        W23574  42.800  12.397  14.203
55357W        W23575  25.614  28.638   4.887
55358W        W23576  27.118  16.359  14.566
55359W        W23577  39.849  18.289   1.439
55360W        W23578  40.265   6.460  13.813
55361W        W23579  30.909  39.484   3.309
55362W        W23580  17.437  27.320  14.917
55363W        W23581  15.809  39.424  13.078
55364W        W23582  15.335  25.732  13.936
55365W        W23583   1.750  19.689  12.090
55366W        W23584  30.481  39.993  12.525
55367W        W23585  44.349  43.269   0.931
55368W        W23586  22.522  28.106   3.318
55369W        W23587  29.205   6.533  10.335
55370W        W23588   4.428   4.111   1.697
55371W        W23589   4.505  15.031  11.931
55372W        W23590  42.852  29.998   0.429
55373W        W23591   3.731   9.665  11.859
55374W        W23592  44.082   8.759   1.879
55375W        W23593  18.466  36.823   3.977
55376W        W23594  41.623  19.209   3.181
55377W        W23595  17.494  12.607  13.437
55378W        W23596  38.125   5.725  13.101
55379W        W23597  31.836  34.732   4.465
55380W        W23598  34.769  22.230   0.727
55381W        W23599  31.093  42.394   3.221
55382W        W23600  44.183  35.838  10.912
55383W        W23601  19.127   2.323   0.365
55384W        W23602   9.891  41.365  12.441
55385W        W23603  24.149   8.611   4.625
55386W        W23604  17.127   1.758  11.140
55387W        W23605  23.064   6.439   0.849
55388W        W23606  21.757  39.558   0.352
55389W        W23607  32.854  24.916   1.447
55390W        W23608  14.467  36.183  13.675
55391W        W23609  29.298  36.510  11.952
55392W        W23610  18.419  28.024   4.977
55393W        W23611   0.813  44.852  12.848
55394W        W23612  18.473  14.267  10.739
55395W        W23613  11.632  16.684  13.455
55396W        W23614   9.269  26.575   3.572
55397W        W23615  14.740  44.675  11.239
55398W        W23616  21.236  44.263  10.737
55399W        W23617  14.735  24.008  11.699
55400W        W23618  17.667   1.494   0.254
55401W        W23619  24.074  19.943  14.365
55402W        W23620  27.926  19.716  11.796
55403W        W23621  43.374  10.828   2.426
55404W        W23622  34.930  26.259   2.426
55405W        W23623  36.673   3.703   3.277
55406W        W23624  40.773  14.327  11.577
55407W        W23625  30.157  24.168  14.467
55408W        W23626  34.868  25.866   1.945
55409W        W23627  38.527  12.119  12.615
55410W        W23628  34.168  16.651  13.917
55411W        W23629  21.435  37.581   2.666
55412W        W23630  23.794  36.737   0.347
55413W        W23631  18.590  42.819  14.240
55414W        W23632  26.532  38.372   1.925
55415W        W23633  35.963  11.564   0.466
55416W        W23634  16.458  38.406  14.400
55417W        W23635   3.402  22.752   2.629
55418W        W23636  38.983  27.957   5.057
55419W        W23637  40.209  33.167   2.756
55420W        W23638  20.176  19.621   0.654
55421W        W23639  29.700   7.647   1.361
55422W        W23640   8.868  21.281  10.420
55423W        W23641   8.062  33.319  13.822
55424W        W23642  30.665   1.971  10.215
55425W        W23643  37.997  31.193   3.802
55426W        W23644  23.433  44.226   2.312
55427W        W23645  15.482  44.050  13.179
55428W        W23646  43.839  15.421   4.251
55429W        W23647  37.540  44.330  12.479
55430W        W23648  16.548   9.397   4.355
55431W        W23649  15.231   2.915   4.273
55432W        W23650  39.120  23.270  11.036
55433W        W23651  42.478  31.283  14.849
55434W        W23652  23.223  25.668  14.799
55435W        W23653  34.047  41.485  11.374
55436W        W23654  20.945  13.189  12.530
55437W        W23655   9.336  34.198   3.224
55438W        W23656   6.497  44.969  12.089
55439W        W23657   0.245   6.873  14.491
55440W        W23658  41.480  18.237   4.135
55441W        W23659  19.726  20.270   0.007
55442W        W23660  13.369  11.289   0.216
55443W        W23661  33.970   7.712  13.446
55444W        W23662   7.173  33.171   0.723
55445W        W23663  25.303  39.915  11.703
55446W        W23664  26.494  19.601   3.292
55447W        W23665  17.392  28.642  11.520
55448W        W23666  12.364  22.521   4.324
55449W        W23667  13.286  16.186   2.307
55450W        W23668   6.748   9.407  11.098
55451W        W23669  21.316  27.560   1.313
55452W        W23670  11.166  28.861   1.750
55453W        W23671  18.520   7.367   3.137
55454W        W23672   0.238  44.964  11.588
55455W        W23673  27.357  18.097   1.387
55456W        W23674  25.485  40.426   3.922
55457W        W23675  37.742   1.850  12.594
55458W        W23676  21.594  11.142  12.092
55459W        W23677  17.109  39.088  10.865
55460W        W23678  31.534  10.606   1.150
55461W        W23679   1.543  24.628  14.478
55462W        W23680  21.621  32.072  14.304
55463W        W23681  23.422  15.984  12.035
55464W        W23682   6.246   2.379   0.523
55465W        W23683  28.545  33.302   2.322
55466W        W23684   9.921   8.617   2.707
55467W        W23685  36.512   6.700  12.520
55468W        W23686  23.030   8.373  14.059
55469W        W23687  11.143   6.808   2.234
55470W        W23688  33.151  22.561   2.009
55471W        W23689  15.331   3.206   9.917
55472W        W23690  40.437  20.579   4.314
55473W        W23691  12.249  25.777  14.363
55474W        W23692  18.200  17.241  13.479
55475W        W23693  28.314  39.181  12.848
55476W        W23694  35.465  35.931   3.631
55477W        W23695   5.167  38.134   3.788
55478W        W23696  22.502  15.257  13.009
55479W        W23697  35.610  27.130  12.012
55480W        W23698   2.787  19.528  13.937
55481W        W23699  21.061   8.977   3.772
55482W        W23700   3.075  42.300   5.125
55483W        W23701  32.910  43.080   1.891
55484W        W23702  21.075  43.788   3.279
55485W        W23703   0.489  12.722  13.878
55486W        W23704  11.313  11.284   2.048
55487W        W23705  20.222  20.309   2.236
55488W        W23706  38.687  16.797   1.410
55489W        W23707  19.977  34.486   2.790
55490W        W23708  36.847   9.840   3.235
55491W        W23709  17.771  20.255  11.073
55492W        W23710  23.566  33.332  10.623
55493W        W23711   6.231  40.870   3.553
55494W        W23712  15.667  39.587  11.122
55495W        W23713  30.236  38.029  13.295
55496W        W23714  35.611  32.813   3.555
55497W        W23715   6.359  33.513  12.924
55498W        W23716  37.737  22.358  12.492
55499W        W23717  18.080  13.094  11.159
55500W        W23718   9.739  41.082  14.778
55501W        W23719   5.288  41.736   4.056
55502W        W23720   9.865  21.297  14.388
55503W        W23721  30.038  38.553   0.438
55504W        W23722   9.108   6.319   0.803
55505W        W23723   8.658  31.453  13.468
55506W        W23724   0.858  22.138   4.699
55507W        W23725   5.399  14.741   0.744
55508W        W23726  43.809  30.484   4.127
55509W        W23727  38.528  38.094   1.469
55510W        W23728  42.031  40.378  13.204
55511W        W23729  37.518   6.113  11.699
55512W        W23730   3.764  14.644   4.980
55513W        W23731  30.117  26.136  12.556
55514W        W23732  36.978  12.385  13.888
55515W        W23733  41.489  37.065   2.085
55516W        W23734  25.617  17.679   1.603
55517W        W23735   6.115  24.175   4.495
55518W        W23736  24.217  44.326  12.134
55519W        W23737  36.101  15.154   3.372
55520W        W23738  37.015  30.895   4.756
55521W        W23739  38.671  20.606   1.768
55522W        W23740  22.515  20.883  10.186
55523W        W23741   7.402  24.594   2.663
55524W        W23742  12.851  18.164  14.999
55525W        W23743   4.667   9.286   3.117
55526W        W23744  38.566  24.308  14.420
55527W        W23745  38.923  26.744  12.984
55528W        W23746  36.875  34.725  12.287
55529W        W23747  13.238   8.881   3.789
55530W        W23748  32.381  25.830  10.083
55531W        W23749  29.107   9.347   0.230
55532W        W23750  23.422  35.368   4.636
55533W        W23751   5.916  20.981  10.686
55534W        W23752   0.372  24.108   4.887
55535W        W23753  44.213  10.535   0.892
55536W        W23754  33.024  23.416   3.285
55537W        W23755  15.711  27.075   2.180
55538W        W23756   1.076  23.752   0.264
55539W        W23757  12.210  40.576   1.799
55540W        W23758  12.465  31.352   2.851
55541W        W23759  12.991   0.992   3.636
55542W        W23760   2.514   4.866   3.706
55543W        W23761  20.360  11.687   0.415
55544W        W23762   1.290  16.266   4.454
55545W        W23763   9.832  20.089   3.666
55546W        W23764  42.859  31.605   4.791
55547W        W23765  42.727   8.866  11.463
55548W        W23766  18.516  35.658  10.299
55549W        W23767  27.235  28.376   1.740
55550W        W23768  44.328  44.242  13.069
55551W        W23769  25.409  12.175   2.667
55552W        W23770   9.259  42.483   9.934
55553W        W23771  33.460  28.014  14.168
55554W        W23772  35.061  10.595  12.446
55555W        W23773  32.648  12.756   1.914
55556W        W23774  29.505  34.486  12.628
55557W        W23775  44.844  23.575  12.184
55558W        W23776  16.947   2.281   1.319
55559W        W23777  44.935  25.175   2.706
55560W        W23778  35.387   9.758  14.347
55561W        W23779  29.485  38.886  14.768
55562W        W23780  30.072  32.347   1.320
55563W        W23781  43.426   4.919  14.797
55564W        W23782  40.935  12.065   0.292
55565W        W23783  20.899  27.246   1.898
55566W        W23784  19.181  16.896  10.616
55567W        W23785   7.831  15.321   4.964
55568W        W23786  30.029  10.574  14.060
55569W        W23787  27.821  40.226   4.897
55570W        W23788  33.907  41.682   1.387
55571W        W23789  23.659  22.269  10.276
55572W        W23790   4.763  16.591   0.308
55573W        W23791  26.051  18.224  11.618
55574W        W23792  41.411  24.708  14.445
55575W        W23793  17.708  22.747  13.748
55576W        W23794  24.151  35.975  10.690
55577W        W23795  16.289  32.518  14.216
55578W        W23796  36.735  41.083  14.642
55579W        W23797   9.181  15.092   0.509
55580W        W23798  19.310  22.697   3.347
55581W        W23799  11.041  21.767   2.200
55582W        W23800  26.932  31.079   1.390
55583W        W23801  38.530  27.552   0.015
55584W        W23802  20.122  16.075   1.323
55585W        W23803  28.988   1.567   1.131
55586W        W23804  22.375  35.889  13.013
55587W        W23805  13.669   0.262  13.291
55588W        W23806   3.856  22.338  10.178
55589W        W23807  14.733  15.350  10.488
55590W        W23808  23.724  35.871  14.277
55591W        W23809  34.442  30.678  12.495
55592W        W23810  20.308   7.940   0.781
55593W        W23811  40.292  37.884   2.849
55594W        W23812  26.645  16.555  12.052
55595W        W23813  21.275   1.885  12.415
55596W        W23814  35.387  12.048   0.328
55597W        W23815  30.372  16.172   4.289
55598W        W23816  34.448   6.108   3.157
55599W        W23817   2.229  44.496   0.283
55600W        W23818   6.721  31.449   0.750
55601W        W23819  33.955  13.340  13.460
55602W        W23820  18.145  38.181  14.481
55603W        W23821  33.910  10.305  12.413
55604W        W23822  29.361  25.650  14.362
55605W        W23823   2.555  24.453   0.241
55606W        W23824  16.607  40.315  13.075
55607W        W23825  20.049   3.758   2.952
55608W        W23826  16.108  16.693  14.079
55609W        W23827  24.977  39.804  13.148
55610W        W23828   7.670  27.162  11.400
55611W        W23829  32.291  12.315   2.402
55612W        W23830  21.505  33.090  11.610
55613W        W23831  35.452  33.404   0.703
55614W        W23832  18.656   2.509  13.486
55615W        W23833  26.429  42.944   1.666
55616W        W23834  34.790  44.899   1.285
55617W        W23835  38.798  28.332  13.350
55618W        W23836  17.154  10.240  11.849
55619W        W23837  32.012   0.781   3.641
55620W        W23838  13.869  44.936  13.641
55621W        W23839  27.871  40.429   4.076
55622W        W23840   7.237  40.181  10.305
55623W        W23841  24.670  25.598   1.034
55624W        W23842  22.496  43.780   3.230
55625W        W23843   8.434  33.980   2.567
55626W        W23844   1.592  16.989   1.405
55627W        W23845  25.015  10.709  14.774
55628W        W23846   6.524   8.796   3.164
55629W        W23847  38.869  40.217  12.917
55630W        W23848  15.224  13.356  13.931
55631W        W23849  34.411  30.108  10.726
55632W        W23850  37.823  30.319   4.031
55633W        W23851  33.354  44.188  11.043
55634W        W23852  39.282   4.200  13.947
55635W        W23853  38.105   0.851  12.518
55636W        W23854  19.555   6.864   1.407
55637W        W23855  41.077  23.071   3.740
55638W        W23856  23.194  21.784   0.847
55639W        W23857  30.020  27.611   0.429
55640W        W23858   8.697  29.380   3.304
55641W        W23859  25.458   0.963  12.507
55642W        W23860  18.622  33.974  12.460
55643W        W23861  12.689  23.992   4.136
55644W        W23862   0.833   2.323   4.158
55645W        W23863   7.087  31.119   2.511
55646W        W23864  10.602  39.499   2.589
55647W        W23865  17.192  22.523  12.567
55648W        W23866  18.644   9.896  13.042
55649W        W23867  40.555  14.694  10.235
55650W        W23868  30.139   3.245  11.956
55651W        W23869  18.081  22.596  10.712
55652W        W23870  43.093  36.966   0.784
55653W        W23871   9.182  25.104  13.978
55654W        W23872  11.816  40.803  14.273
55655W        W23873  18.523  31.431   2.384
55656W        W23874  16.676  42.968   3.153
55657W        W23875  19.113   8.735  11.932
55658W        W23876  39.087   4.851   0.299
55659W        W23877   3.381  18.307   1.390
55660W        W23878  40.858  12.905   3.277
55661W        W23879  38.321  44.182   3.281
55662W        W23880   2.295  29.734  13.889
55663W        W23881  39.990  41.427  13.149
55664W        W23882   9.594   6.235   1.008
55665W        W23883  35.071  16.070   4.168
55666W        W23884   3.195  31.112  10.678
55667W        W23885  29.644  19.662   2.760
55668W        W23886   4.870  32.984   4.493
55669W        W23887  10.752  18.035  12.517
55670W        W23888  35.528  13.998  13.080
55671W        W23889  39.794  35.548   0.259
55672W        W23890   8.935  36.476   1.849
55673W        W23891  39.285  24.620   1.675
55674W        W23892  28.420  30.902   0.332
55675W        W23893  26.284   6.438  13.803
55676W        W23894   7.782  42.338   4.064
55677W        W23895  33.300  42.918   4.863
55678W        W23896  28.088  42.942   3.601
55679W        W23897   3.934  10.198  10.698
55680W        W23898  43.491  10.176   0.527
55681W        W23899  16.283  13.303  13.441
55682W        W23900  29.976   6.394   0.198
55683W        W23901  31.056  23.210  11.829
55684W        W23902  31.514  27.244   1.551
55685W        W23903   1.790  11.615   4.231
55686W        W23904   9.334  23.969  14.320
55687W        W23905  19.118  33.615   2.263
55688W        W23906  43.229  13.709  14.916
55689W        W23907  15.802   3.760   5.000
55690W        W23908  23.554  10.785   2.152
55691W        W23909  40.463  36.463   3.891
55692W        W23910   8.611  26.441   0.402
55693W        W23911  11.693  16.216   4.158
55694W        W23912  18.681  20.350   4.300
55695W        W23913   0.733  29.148   1.782
55696W        W23914   3.235  16.280  14.852
55697W        W23915   7.633  17.028  12.132
55698W        W23916  32.428  34.745  14.959
55699W        W23917  18.115  16.159  10.956
55700W        W23918  27.085  41.944  12.055
55701W        W23919  12.338  19.716   3.216
55702W        W23920  42.658  40.665   2.377
55703W        W23921  13.061  32.150   4.116
55704W        W23922  16.785   7.878   3.332
55705W        W23923   7.358  28.484   1.601
55706W        W23924  27.523   3.816   2.594
55707W        W23925  22.609  21.946  12.011
55708W        W23926  16.293   4.766  10.086
55709W        W23927  44.964  44.295  11.719
55710W        W23928  22.768  33.834  11.630
55711W        W23929  37.984  19.082  13.732
55712W        W23930  15.055  30.971  12.860
55713W        W23931  10.865   4.235   1.311
55714W        W23932   2.427  15.211   0.717
55715W        W23933  32.709  36.281   3.098
55716W        W23934  38.460  11.155  12.567
55717W        W23935  41.508  19.061  12.673
55718W        W23936  30.966   6.358  13.417
55719W        W23937   6.504  20.838  10.031
55720W        W23938   7.187  36.655  13.742
55721W        W23939   3.952  14.407  13.555
55722W        W23940  43.013  12.558  14.710
55723W        W23941  17.171   1.767   0.363
55724W        W23942  18.136  43.540  11.940
55725W        W23943  28.606  41.688   2.780
55726W        W23944   9.768  18.107   4.047
55727W        W23945  29.221  14.477  11.974
55728W        W23946   9.680  29.308   0.353
55729W        W23947  14.104  35.044   4.599
55730W        W23948  17.055  16.369   3.549
55731W        W23949  38.630  24.012  13.976
55732W        W23950   8.689  25.033   1.387
55733W        W23951  41.802  29.749  14.366
55734W        W23952  15.111  16.052  11.992
55735W        W23953  36.593  33.837  12.369
55736W        W23954  22.578  42.877  12.272
55737W        W23955  26.556   1.849  13.368
55738W        W23956  28.132  39.072  11.531
55739W        W23957  44.463  39.399   3.957
55740W        W23958  23.262  33.905   3.865
55741W        W23959   4.898  15.747   4.472
55742W        W23960  26.676  15.686  13.774
55743W        W23961   8.819  34.234  14.036
55744W        W23962  21.144  31.045   3.780
55745W        W23963   1.745  13.648   0.378
55746W        W23964  24.069  17.100   1.148
55747W        W23965  41.900  20.825  10.431
55748W        W23966  21.050   2.345   4.962
55749W        W23967  29.539  15.784   3.597
55750W        W23968  20.549   4.758  13.298
55751W        W23969  15.377  11.157  14.982
55752W        W23970   8.058  29.999   0.986
55753W        W23971  40.248  28.007   2.200
55754W        W23972  34.200   0.268   2.792
55755W        W23973   1.413  23.134   4.190
55756W        W23974  32.090  34.518   2.585
55757W        W23975  41.250   3.283  11.070
55758W        W23976  34.577  27.035  11.947
55759W        W23977  43.071  28.146  12.865
55760W        W23978  21.687  36.044   1.152
55761W        W23979   0.938  12.461  14.029
55762W        W23980  38.927  22.298   3.728
55763W        W23981   1.814  10.237   1.371
55764W        W23982  16.339   8.250  12.986
55765W        W23983  11.800  36.108  12.092
55766W        W23984  11.120   8.324  12.010
55767W        W23985   0.186  30.884  14.891
55768W        W23986  25.937  10.859  11.171
55769W        W23987  24.124  26.394   1.233
55770W        W23988  31.513  22.243  14.446
55771W        W23989  23.962  21.625   1.530
55772W        W23990   1.962  20.055   4.043
55773W        W23991  12.094  42.969  14.624
55774W        W23992  25.189   6.710   1.786
55775W        W23993  25.928  15.632  12.007
55776W        W23994   3.265   7.302  14.813
55777W        W23995   1.409  29.357   0.455
55778W        W23996  24.977   6.915   3.532
55779W        W23997   5.955  13.818  11.551
55780W        W23998  33.146  29.363  13.241
55781W        W23999  19.040  15.653   1.255
55782W        W24000  14.031  20.145  14.034
55783W        W24001  16.256  15.985   1.188
55784W        W24002  33.302  28.481   2.705
55785W        W24003  12.709  40.454   4.861
55786W        W24004  44.894  39.288  11.642
55787W        W24005  29.057  24.794   2.594
55788W        W24006  21.793  37.468   2.323
55789W        W24007  40.643  40.928  13.343
55790W        W24008  27.125  23.753   1.799
55791W        W24009  34.057   9.609  11.707
55792W        W24010  32.178  44.589   4.522
55793W        W24011   3.990  44.194  13.321
55794W        W24012   2.011  11.649  11.906
55795W        W24013   4.435  14.634   1.195
55796W        W24014  24.204  11.375  10.768
55797W        W24015  19.848   4.238  12.902
55798W        W24016   5.689   7.217   0.147
55799W        W24017  26.019  26.141  11.683
55800W        W24018   3.290  26.167   0.538
55801W        W24019  38.956  10.850   0.872
55802W        W24020  35.616  44.887   0.941
55803W        W24021  24.431  41.834   2.701
55804W        W24022  43.053  17.253   1.885
55805W        W24023   0.260  18.108   0.429
55806W        W24024  11.290  33.618  13.581
55807W        W24025  14.850  39.605  13.061
55808W        W24026   5.676  10.669   2.282
55809W        W24027  37.440  35.005  13.487
55810W        W24028  43.764   0.476  13.480
55811W        W24029  25.262  11.824   2.304
55812W        W24030  35.158  23.573  10.873
55813W        W24031  20.951  21.149  10.676
55814W        W24032  32.687  11.337   0.940
55815W        W24033  17.329   4.689  12.541
55816W        W24034  10.194  36.907  12.400
55817W        W24035  38.497  21.501  10.910
55818W        W24036  44.283  15.686   0.075
55819W        W24037  26.506  24.896  10.363
55820W        W24038  12.536  12.153  10.554
55821W        W24039  25.099  42.018   2.288
55822W        W24040  36.615  14.135  14.003
55823W        W24041  40.617  36.526   2.200
55824W        W24042  14.736  23.422   0.302
55825W        W24043  40.794  31.108   4.782
55826W        W24044   5.788  35.344   3.892
55827W        W24045  20.032  38.026   3.104
55828W        W24046  32.584  21.103  13.426
55829W        W24047  28.606   7.439  14.615
55830W        W24048  12.708   1.011  12.570
55831W        W24049   9.188  35.087   1.271
55832W        W24050  36.521   7.103  14.720
55833W        W24051  43.312  30.617   4.137
55834W        W24052  32.719   7.709   2.544
55835W        W24053  14.567  25.646  13.313
55836W        W24054   9.201  22.966  13.123
55837W        W24055  28.632  33.192   4.174
55838W        W24056  27.178  37.431  10.462
55839W        W24057  40.156  36.192  10.400
55840W        W24058   8.930   0.985   1.402
55841W        W24059  13.712  30.110  10.830
55842W        W24060  14.781  16.652  12.802
55843W        W24061  32.828  41.407  10.508
55844W        W24062  11.585  23.202   2.484
55845W        W24063  43.329   1.462   0.463
55846W        W24064  27.928  14.078   0.855
55847W        W24065  40.560   6.033   1.236
55848W        W24066  35.329  32.000  10.671
55849W        W24067  40.474  19.949   3.155
55850W        W24068   5.474  44.583   1.853
55851W        W24069   3.028  27.536   0.825
55852W        W24070  18.698   2.142   4.034
55853W        W24071  18.322  33.457  13.020
55854W        W24072  42.824  40.030   3.963
55855W        W24073  33.104  23.511  12.479
55856W        W24074  42.840  23.924   2.778
55857W        W24075   3.206  42.880  10.765
55858W        W24076  18.201   6.957   3.141
55859W        W24077  42.342  24.595  12.420
55860W        W24078   8.379  30.619   2.346
55861W        W24079  21.991   7.239  14.031
55862W        W24080  44.623  18.567   3.863
55863W        W24081  33.630  17.660   1.827
55864W        W24082  33.076  43.239   3.648
55865W        W24083   7.682   5.165  14.521
55866W        W24084  17.605  25.950   4.228
55867W        W24085   9.386  13.151  11.508
55868W        W24086   4.885  31.450   0.612
55869W        W24087  33.232  15.053  13.607
55870W        W24088   9.625  24.213  11.994
55871W        W24089  14.583  29.039   0.030
55872W        W24090   0.380  36.392   2.656
55873W        W24091  28.380  17.187   3.653
55874W        W24092  17.680  16.066   1.345
55875W        W24093  41.601  28.995   2.713
55876W        W24094   6.781  43.088   0.254
55877W        W24095  39.293   4.042   3.187
55878W        W24096  17.576   1.536  11.984
55879W        W24097   6.809  18.606  12.653
55880W        W24098   8.402  15.027   0.946
55881W        W24099  32.546  36.915   1.356
55882W        W24100  38.375  22.741  12.138
55883W        W24101  37.388  19.483  11.077
55884W        W24102  23.020   7.126  13.439
55885W        W24103   5.684  19.170   4.661
55886W        W24104  29.120   8.747   2.163
55887W        W24105  37.002   1.721   9.782
55888W        W24106  25.666   7.411  11.928
55889W        W24107  36.039  19.583   5.040
55890W        W24108  41.813  25.525   0.800
55891W        W24109  39.060  41.148   1.830
55892W        W24110  39.961  36.351  14.754
55893W        W24111  22.841  30.107   1.065
55894W        W24112  23.565  36.230  12.424
55895W        W24113   3.450  28.214   1.415
55896W        W24114   2.410  35.913  13.429
55897W        W24115  35.593  18.367  14.864
55898W        W24116  16.326  35.819   3.368
55899W        W24117  12.809  34.891  14.367
55900W        W24118  33.506   7.667   2.311
55901W        W24119  31.161  38.863  12.725
55902W        W24120  41.468   7.664   3.719
55903W        W24121  38.838  37.921  14.262
55904W        W24122  33.063  25.651  11.911
55905W        W24123  23.586  27.140  12.050
55906W        W24124  18.492   6.425   4.035
55907W        W24125  18.957  11.642  11.587
55908W        W24126  12.683  27.450   2.238
55909W        W24127  28.706  31.445   1.850
55910W        W24128  17.291   8.458   3.877
55911W        W24129  11.081  20.815   4.198
55912W        W24130  16.076  32.007   2.620
55913W        W24131  35.830   2.931   2.839
55914W        W24132   2.366  25.095  12.203
55915W        W24133   1.832  33.388  14.535
55916W        W24134  31.384  37.121   0.893
55917W        W24135   7.262   9.421   0.512
55918W        W24136  31.577  23.525  13.276
55919W        W24137  13.664  12.786  10.471
55920W        W24138  40.559   2.436   2.830
55921W        W24139  42.724  17.662   0.763
55922W        W24140  34.533  33.156   0.699
55923W        W24141  10.324  40.432   4.272
55924W        W24142  28.617  19.547  14.888
55925W        W24143  24.176  12.742  12.984
55926W        W24144  16.510  14.313  13.875
55927W        W24145  39.419  43.519   0.354
55928W        W24146  34.890  13.857   3.853
55929W        W24147  44.767   8.826   2.868
55930W        W24148  33.093  24.383  10.872
55931W        W24149  35.059  24.197   3.603
55932W        W24150  39.477  29.848  11.622
55933W        W24151   8.207  17.774   1.301
55934W        W24152  43.049  40.414  10.571
55935W        W24153  15.012   9.850   0.313
55936W        W24154  31.857  21.322   4.024
55937W        W24155  36.564  27.000  10.003
55938W        W24156   7.719  24.577   1.878
55939W        W24157  32.407  40.471   0.413
55940W        W24158  43.890  44.085   0.355
55941W        W24159  42.003   4.639   0.758
55942W        W24160   9.725   6.313   3.215
55943W        W24161  44.703   2.358   0.028
55944W        W24162   7.766   8.757  12.925
55945W        W24163  42.366  38.321  13.448
55946W        W24164  15.078  17.882  11.165
55947W        W24165  36.654  37.514   2.901
55948W        W24166  33.585   3.931   2.845
55949W        W24167  14.492  17.295  14.931
55950W        W24168  28.540  11.546  10.666
55951W        W24169   3.221  24.111   3.560
55952W        W24170   3.253  32.001   4.919
55953W        W24171   8.209  14.326  14.227
55954W        W24172  10.476  26.747  14.266
55955W        W24173  22.002  37.992   4.318
55956W        W24174  41.740  22.987  13.230
55957W        W24175  18.551   4.165   2.815
55958W        W24176  28.604  32.688   4.297
55959W        W24177  37.095  11.107  10.998
55960W        W24178  11.205  30.516  12.307
55961W        W24179  41.686  25.141  12.546
55962W        W24180  37.640  43.769   4.896
55963W        W24181   5.384  31.010   0.177
55964W        W24182  27.926  25.790   4.131
55965W        W24183   4.961  23.615   2.698
55966W        W24184  42.801  30.756  11.253
55967W        W24185   4.320  27.493  11.436
55968W        W24186  17.747  40.199   3.954
55969W        W24187  15.724  18.724   4.616
55970W        W24188  18.239  30.829  11.308
55971W        W24189  25.110  14.754   1.972
55972W        W24190  22.663   7.879   0.889
55973W        W24191   4.428  21.780   1.719
55974W        W24192  15.628  37.461   0.426
55975W        W24193  24.433  14.104   0.721
55976W        W24194  24.865  12.700   3.852
55977W        W24195  13.104   7.110   4.120
55978W        W24196  38.958  22.835   3.774
55979W        W24197   2.838  43.830   3.215
55980W        W24198  36.642  36.386  14.966
55981W        W24199  43.025  12.650  13.185
55982W        W24200  10.651  39.439  14.242
55983W        W24201  33.924   9.252  12.518
55984W        W24202  12.308  30.977  14.798
55985W        W24203  42.127  19.041   3.827
55986W        W24204   0.705  36.378  14.528
55987W        W24205   1.943   9.926   2.839
55988W        W24206  23.530  12.242  13.753
55989W        W24207  10.049  40.595  13.863
55990W        W24208   4.454   0.549  10.748
55991W        W24209  37.960  43.377  12.976
55992W        W24210   5.415   8.890   4.049
55993W        W24211  28.105  40.912  14.046
55994W        W24212  30.958  17.391  12.197
55995W        W24213  39.880  29.530  11.827
55996W        W24214  19.945   6.416  12.591
55997W        W24215  21.633  13.599   4.209
55998W        W24216  14.675  38.831   0.574
55999W        W24217  32.480  18.453   1.621
56000W        W24218   1.020  40.955  13.017
56001W        W24219  24.105  13.589  13.499
56002W        W24220  26.419   7.903  12.200
56003W        W24221  30.642   4.739  12.836
56004W        W24222   4.699  24.416  14.861
56005W        W24223  12.791  38.983   0.684
56006W        W24224   0.783  42.561   3.138
56007W        W24225  44.932  26.529   4.601
56008W        W24226  14.300  28.241  10.732
56009W        W24227  18.079   7.009  11.309
56010W        W24228  14.643   9.521   1.492
56011W        W24229  37.003  21.856   3.752
56012W        W24230  40.882   4.163  11.949
56013W        W24231   6.667  12.726  14.329
56014W        W24232  29.397   9.507  14.785
56015W        W24233  22.157  20.076  14.029
56016W        W24234   9.836   3.028   4.560
56017W        W24235  28.241  13.438  10.153
56018W        W24236  31.662  14.357   3.489
56019W        W24237  26.624  29.457  14.316
56020W        W24238   7.685  18.344   5.110
56021W        W24239   4.755  28.772  11.537
56022W        W24240   3.165  25.661   1.987
56023W        W24241  28.059  33.290  12.636
56024W        W24242  34.276  22.800  13.825
56025W        W24243  27.045  35.518  10.869
56026W        W24244  39.276   7.741   1.259
56027W        W24245  26.450  28.575  14.352
56028W        W24246  27.683  37.010   1.296
56029W        W24247  11.605  24.575  12.820
56030W        W24248  43.275  38.356   4.139
56031W        W24249  26.134  29.200  13.834
56032W        W24250  30.346  43.527  13.959
56033W        W24251  23.881  18.037   0.496
56034W        W24252  19.651  16.575  11.478
56035W        W24253   4.434   9.100  13.474
56036W        W24254   3.142  24.957   2.151
56037W        W24255  37.040   3.356   2.223
56038W        W24256   7.244  40.610   2.211
56039W        W24257   0.499  27.946   1.398
56040W        W24258  25.032  43.358  10.648
56041W        W24259  36.870  32.622  12.916
56042W        W24260  35.271  33.018  13.879
56043W        W24261  17.575   3.721   1.858
56044W        W24262  41.997   4.847  13.894
56045W        W24263  42.041  18.307   2.719
56046W        W24264  24.876  20.282  13.290
56047W        W24265  13.240  14.631   1.247
56048W        W24266   4.228  28.108  12.995
56049W        W24267  35.603  41.508  11.331
56050W        W24268  23.232  36.601   4.347
56051W        W24269   9.158  40.356   3.639
56052W        W24270  22.216  10.910   1.275
56053W        W24271  37.657  13.893   4.258
56054W        W24272  37.116  28.841  13.538
56055W        W24273  30.117  25.077   4.406
56056W        W24274  41.239   5.366  14.025
56057W        W24275  43.252   3.753   0.827
56058W        W24276  19.136  16.256  14.854
56059W        W24277  12.652  10.801   2.762
56060W        W24278  16.667  31.336   4.476
56061W        W24279  23.441  40.522  13.459
56062W        W24280  38.765  38.925  10.164
56063W        W24281  13.233   3.901  14.985
56064W        W24282  21.234   0.806   0.286
56065W        W24283  13.309   0.959   3.236
56066W        W24284  43.040  17.221   3.152
56067W        W24285  29.896  13.049  10.707
56068W        W24286  44.433  26.627   4.787
56069W        W24287  11.037  41.447  14.864
56070W        W24288   7.395  39.923   3.663
56071W        W24289   2.313  38.542  10.675
56072W        W24290   5.433  26.405   1.051
56073W        W24291  26.782   5.730   0.432
56074W        W24292   3.881  10.743  12.860
56075W        W24293  24.271  35.960   0.020
56076W        W24294  15.580   0.857   3.351
56077W        W24295  18.064  22.091   4.138
56078W        W24296  13.352  32.566  10.567
56079W        W24297  15.086   4.082  11.718
56080W        W24298  15.301  32.477  10.741
56081W        W24299  25.211  37.115   0.237
56082W        W24300  42.129  30.503  11.065
56083W        W24301   5.092  38.151  12.567
56084W        W24302  28.506  19.023   1.769
56085W        W24303  22.567  41.355  10.742
56086W        W24304  26.996  24.013  11.976
56087W        W24305  15.145   9.593  14.799
56088W        W24306  37.722   8.668  12.886
56089W        W24307  29.025   4.907   4.637
56090W        W24308  29.585  38.012  12.450
56091W        W24309  43.954  44.289  11.180
56092W        W24310  31.674  31.486  11.027
56093W        W24311  32.015  13.822  13.650
56094W        W24312  22.064  16.161   0.438
56095W        W24313  42.139  26.577   4.044
56096W        W24314  36.915  15.249  10.682
56097W        W24315  34.194  13.775   2.306
56098W        W24316  10.149  38.534   1.421
56099W        W24317  16.337  32.610  12.778
56100W        W24318  34.385  30.974   3.183
56101W        W24319  11.555   0.254   1.755
56102W        W24320  20.693  40.803   3.693
56103W        W24321  30.881  38.482   2.242
56104W        W24322  44.111  13.722  10.224
56105W        W24323  25.541   6.515   0.505
56106W        W24324  13.261  24.021   0.849
56107W        W24325  31.353   1.272   4.165
56108W        W24326  18.361  32.563   2.258
56109W        W24327   1.493  22.149  10.759
56110W        W24328   3.505  32.108   4.493
56111W        W24329  23.660  32.767  13.843
56112W        W24330  21.388  17.794  12.789
56113W        W24331   0.812  31.020   1.038
56114W        W24332  19.956  19.539   2.614
56115W        W24333  24.182  18.569  14.580
56116W        W24334   8.158  23.703  13.897
56117W        W24335  34.888  14.789  13.584
56118W        W24336  36.472   9.649  14.250
56119W        W24337  19.309   7.235  13.835
56120W        W24338  15.472   8.756   2.674
56121W        W24339   8.418  22.747  14.112
56122W        W24340  23.289  36.874   4.809
56123W        W24341   6.804  28.217   4.103
56124W        W24342  14.562  38.533   4.136
56125W        W24343  31.568   1.849  14.152
56126W        W24344  19.919  21.093  14.808
56127W        W24345  17.900  13.125   4.351
56128W        W24346   0.283  13.533  13.368
56129W        W24347  36.898  18.600   1.620
56130W        W24348  26.412  17.509   4.830
56131W        W24349   1.904  28.109  10.724
56132W        W24350   7.160  38.825   2.394
56133W        W24351  11.655  10.072   3.694
56134W        W24352  12.801  40.389   0.368
56135W        W24353  30.538  13.869  11.470
56136W        W24354  43.582  24.655  12.040
56137W        W24355  25.933  23.598  11.073
56138W        W24356   0.597   7.116  12.432
56139W        W24357  33.277  42.845  11.173
56140W        W24358  38.319   8.373   3.723
56141W        W24359  43.767  35.518   4.646
56142W        W24360  26.125  25.262   5.177
56143W        W24361  33.088   6.743  14.752
56144W        W24362  26.488   1.975   4.143
56145W        W24363   7.426   9.973   3.038
56146W        W24364  38.954   5.255  13.616
56147W        W24365  21.042  31.072   0.292
56148W        W24366  35.070  42.948   3.564
56149W        W24367  25.627  20.615  12.335
56150W        W24368  12.360  34.119  11.095
56151W        W24369  22.256  10.456  14.913
56152W        W24370  25.507  23.461  12.802
56153W        W24371  35.631  31.113  14.000
56154W        W24372  32.228   5.806   0.340
56155W        W24373   3.836  41.973   2.212
56156W        W24374  20.697  18.215  12.151
56157W        W24375   6.825  12.344   4.577
56158W        W24376   6.206  19.496   9.733
56159W        W24377  21.143   5.760   0.495
56160W        W24378  22.740  18.263   4.088
56161W        W24379  38.096   0.394   5.503
56162W        W24380  10.661  21.014  12.327
56163W        W24381  24.035  23.035   1.508
56164W        W24382  36.381  14.082   0.826
56165W        W24383  38.096  35.860  13.212
56166W        W24384  32.992   6.242  11.152
56167W        W24385  26.061   8.261  14.498
56168W        W24386  40.069  28.285   0.643
56169W        W24387   7.379   6.833   2.384
56170W        W24388  41.301  39.426  14.818
56171W        W24389  27.046   3.097   2.768
56172W        W24390  30.730  31.565  12.010
56173W        W24391  13.592   1.477   4.172
56174W        W24392  40.822   6.245   4.314
56175W        W24393  17.148  37.401  12.563
56176W        W24394  29.648  19.784  13.848
56177W        W24395  31.852   7.852   3.581
56178W        W24396   9.891  19.719  13.035
56179W        W24397   8.388   8.670   3.644
56180W        W24398  31.014  36.935  13.511
56181W        W24399  29.076  44.280   4.163
56182W        W24400  41.880   3.843   2.230
56183W        W24401  16.484  42.887   5.052
56184W        W24402  41.053   2.839  14.951
56185W        W24403   1.936  25.938   5.075
56186W        W24404  34.492  13.370   0.888
56187W        W24405   8.271  26.114  10.658
56188W        W24406  22.748   6.902   2.846
56189W        W24407  29.333  19.602  10.736
56190W        W24408  18.202   7.684   1.173
56191W        W24409   9.707   7.462  12.227
56192W        W24410  37.937   1.970  12.144
56193W        W24411  14.301  29.686  14.871
56194W        W24412  34.873  31.904  11.591
56195W        W24413  23.272  20.072   3.151
56196W        W24414  29.449  35.006   0.832
56197W        W24415  24.760   7.751   0.840
56198W        W24416  31.442  23.502   3.634
56199W        W24417  23.452  17.264   2.645
56200W        W24418  29.640  42.022  10.764
56201W        W24419  30.230  40.966   0.362
56202W        W24420  11.331  16.773  12.562
56203W        W24421   5.697  31.073  10.718
56204W        W24422  14.779  43.978  13.738
56205W        W24423  11.330   3.610   1.693
56206W        W24424   3.921   7.502  11.442
56207W        W24425   7.806  40.895   3.226
56208W        W24426  11.277   0.245   2.954
56209W        W24427  20.116   9.257   1.383
56210W        W24428  31.776  10.179   3.150
56211W        W24429  40.996  31.535   0.600
56212W        W24430   9.604  37.256  10.241
56213W        W24431  21.055  32.664   4.477
56214W        W24432  14.647  40.522  11.927
56215W        W24433   7.875  31.151  11.176
56216W        W24434  44.189   6.968  13.421
56217W        W24435  28.427  14.264  11.601
56218W        W24436  42.338  44.081   0.744
56219W        W24437  16.325  28.275   3.226
56220W        W24438  28.659  41.968  11.875
56221W        W24439  43.240  27.720  11.146
56222W        W24440  29.881  40.744   0.654
56223W        W24441  11.106  23.444  13.433
56224W        W24442  30.224   5.264  10.726
56225W        W24443  39.308  30.012  14.521
56226W        W24444  28.624   8.755  11.677
56227W        W24445  43.531   8.080   2.172
56228W        W24446   4.324  40.027  13.085
56229W        W24447  32.652   4.095  12.525
56230W        W24448   3.434  22.577   1.685
56231W        W24449  31.173  14.368  12.672
56232W        W24450  43.522  41.942  11.933
56233W        W24451  29.388  19.692   0.241
56234W        W24452   2.846   1.317  14.116
56235W        W24453   3.919  22.547  10.675
56236W        W24454  42.253  19.077   4.391
56237W        W24455  28.155  18.639   1.687
56238W        W24456  28.858  19.352   0.360
56239W        W24457   7.702  23.460  12.991
56240W        W24458  36.470  27.153   2.399
56241W        W24459  33.530  37.335  14.598
56242W        W24460   6.470   3.939  11.979
56243W        W24461  21.190  37.486  10.729
56244W        W24462  32.097  21.023  14.993
56245W        W24463  41.279  27.643  12.075
56246W        W24464   3.728  23.514   0.623
56247W        W24465   0.357  23.256  14.967
56248W        W24466  12.963  19.080  10.481
56249W        W24467  34.590  26.639   1.786
56250W        W24468  43.219  14.266   9.965
56251W        W24469  36.680  15.143  11.990
56252W        W24470  10.750  25.199  14.865
56253W        W24471  25.547  27.549  12.824
56254W        W24472  31.783  19.465  11.077
56255W        W24473  42.703  31.403   3.311
56256W        W24474  36.344   3.237  14.534
56257W        W24475   8.361  32.193   3.056
56258W        W24476   1.457   3.984  14.331
56259W        W24477  39.587  35.214  11.585
56260W        W24478   0.282  26.346  13.332
56261W        W24479  44.627  39.145  11.214
56262W        W24480   5.292  31.378  11.672
56263W        W24481  15.778   2.606   4.652
56264W        W24482   3.897   2.702   2.314
56265W        W24483   1.550  34.342  14.323
56266W        W24484  27.227  12.120   0.549
56267W        W24485  25.486   6.977  12.181
56268W        W24486  41.267  30.831   3.247
56269W        W24487   4.449  38.338  12.027
56270W        W24488  15.765  36.431   3.595
56271W        W24489  17.978   3.676   5.039
56272W        W24490   7.410   1.497  12.078
56273W        W24491   2.867  40.771   2.275
56274W        W24492  26.359  30.551  11.526
56275W        W24493  10.601  17.260  13.190
56276W        W24494  30.619  42.690  13.967
56277W        W24495  21.308  36.890   0.879
56278W        W24496  38.031  36.741  10.728
56279W        W24497   5.866   1.425   1.595
56280W        W24498   3.494  11.070  11.031
56281W        W24499  15.811  32.919   3.375
56282W        W24500  23.693  17.086   3.360
56283W        W24501   2.509  40.059   4.344
56284W        W24502  42.945  37.466   3.883
56285W        W24503  27.150  44.727   4.313
56286W        W24504  15.769  36.167  12.684
56287W        W24505  26.493   9.412   2.451
56288W        W24506  10.643  44.250   4.195
56289W        W24507  34.792  10.251  11.742
56290W        W24508   3.208   7.358  10.627
56291W        W24509   5.782   1.393  13.378
56292W        W24510  19.206   0.975   0.827
56293W        W24511   5.023   3.539  12.105
56294W        W24512  20.496   6.772   0.586
56295W        W24513   8.507  37.433   4.537
56296W        W24514   0.938  23.403  12.441
56297W        W24515  13.306   2.019  13.476
56298W        W24516   3.952   7.289  11.909
56299W        W24517  43.482   5.202   2.862
56300W        W24518  28.016  44.753   0.410
56301W        W24519  33.966  37.819  14.040
56302W        W24520  17.231  18.058  12.289
56303W        W24521  25.417  39.044   2.967
56304W        W24522  18.619  21.175   0.027
56305W        W24523  14.635   7.207   0.763
56306W        W24524  19.810   2.276  14.525
56307W        W24525   5.603   6.554  13.318
56308W        W24526  23.620   8.233   3.176
56309W        W24527   3.442  17.994   1.786
56310W        W24528  11.572  14.919  11.921
56311W        W24529  26.708   2.010  12.846
56312W        W24530  39.102  20.513  13.971
56313W        W24531  36.607   7.786  11.992
56314W        W24532  11.324  24.431  14.943
56315W        W24533   6.075  33.801   2.412
56316W        W24534  27.972  38.762   1.858
56317W        W24535  25.194  19.971   1.758
56318W        W24536  25.481  33.045  11.345
56319W        W24537   5.724   7.721  14.996
56320W        W24538  12.109   5.926   3.388
56321W        W24539  43.814  20.192  10.752
56322W        W24540  39.292  16.514   0.377
56323W        W24541  31.128  19.125   1.315
56324W        W24542  31.366  28.009  13.969
56325W        W24543   8.865  24.455   3.727
56326W        W24544  32.455   9.444  13.515
56327W        W24545  24.781   3.251  10.687
56328W        W24546  10.396   8.021   0.350
56329W        W24547  36.525  11.124  11.514
56330W        W24548   2.288  22.670   2.704
56331W        W24549  34.413  24.567  13.865
56332W        W24550  11.145  24.952   2.117
56333W        W24551  17.368   0.827   1.349
56334W        W24552  11.907  14.721  12.371
56335W        W24553  43.974  29.171  11.150
56336W        W24554  41.392  37.332  11.142
56337W        W24555   2.718  17.814  12.008
56338W        W24556  27.708  17.731   1.714
56339W        W24557  31.617  25.143  14.314
56340W        W24558  33.504   0.407   3.923
56341W        W24559  12.866  37.477   4.723
56342W        W24560  43.094  34.567   2.969
56343W        W24561   0.675  12.800   1.424
56344W        W24562  26.103  10.583   1.304
56345W        W24563  12.937  20.249   2.792
56346W        W24564   4.850  15.509  13.185
56347W        W24565  16.526   1.997  12.018
56348W        W24566  44.040   4.905  11.153
56349W        W24567  24.219   5.312  14.795
56350W        W24568  15.247  10.609   4.564
56351W        W24569  44.906  26.072   0.625
56352W        W24570   5.980  32.265  11.594
56353W        W24571  37.925   9.462   0.568
56354W        W24572  33.574  25.438  12.672
56355W        W24573   3.488  10.032   0.079
56356W        W24574  15.272   5.415   3.370
56357W        W24575  32.403  19.606  13.380
56358W        W24576   3.634  29.459  14.054
56359W        W24577  30.380  25.529  14.294
56360W        W24578  44.591  44.401  12.076
56361W        W24579  33.447  44.839   1.294
56362W        W24580  43.466  37.670  10.547
56363W        W24581  19.371  34.354  14.500
56364W        W24582  26.780  40.388  12.906
56365W        W24583  42.236  37.833  12.638
56366W        W24584  14.809   0.491  10.742
56367W        W24585  19.221  25.010   1.365
56368W        W24586  25.433  14.413  10.688
56369W        W24587  29.038  36.514   1.253
56370W        W24588  42.463  24.729   2.679
56371W        W24589  24.405  16.634  11.545
56372W        W24590  25.482  41.297   1.424
56373W        W24591   8.322  24.113   1.691
56374W        W24592  27.074  22.448   3.602
56375W        W24593   7.195  41.094  11.459
56376W        W24594  23.848  23.133   9.885
56377W        W24595  19.143   5.108   3.124
56378W        W24596  21.532   9.811   3.923
56379W        W24597  12.395  30.080   1.018
56380W        W24598  30.602   8.419  13.899
56381W        W24599  36.166  32.190  10.135
56382W        W24600  25.031  34.614  13.278
56383W        W24601  34.454  32.878  10.754
56384W        W24602   0.339  12.307  12.348
56385W        W24603  26.738  38.364   1.432
56386W        W24604   1.427  34.826  13.885
56387W        W24605   9.273  28.184   5.007
56388W        W24606  19.622   2.771   4.691
56389W        W24607  42.279  12.317  14.384
56390W        W24608  22.613   1.378   0.775
56391W        W24609  35.023  14.043  14.539
56392W        W24610  24.755  10.678   4.509
56393W        W24611  33.883  36.635   3.769
56394W        W24612   4.209  31.031  10.750
56395W        W24613  23.844  29.577   4.698
56396W        W24614  43.406  24.534  11.556
56397W        W24615  12.574   7.189  11.083
56398W        W24616  39.409  39.414   1.041
56399W        W24617  25.498  14.642   4.970
56400W        W24618  12.732  13.184  12.350
56401W        W24619   2.894  21.527   4.166
56402W        W24620  26.262   2.440  11.071
56403W        W24621  19.625   9.956  12.852
56404W        W24622  41.354  25.613  13.931
56405W        W24623  23.548  36.840   0.792
56406W        W24624  12.890  44.470  11.524
56407W        W24625  34.598  11.169  10.752
56408W        W24626   4.987  25.576   1.460
56409W        W24627   4.671  29.468  12.277
56410W        W24628   6.290   9.282   1.224
56411W        W24629   0.285  16.641   3.111
56412W        W24630  13.079  32.217   0.785
56413W        W24631  42.299  43.754  14.997
56414W        W24632  43.671  12.298   4.629
56415W        W24633   3.330  40.525  13.815
56416W        W24634  23.659  31.715   2.355
56417W        W24635  20.368  15.608  13.358
56418W        W24636  35.316  11.672  10.661
56419W        W24637   4.695   0.949  14.329
56420W        W24638  37.528  11.185   4.111
56421W        W24639  21.604  10.652   2.382
56422W        W24640  11.244  16.051  14.428
56423W        W24641  20.105  22.486   4.786
56424W        W24642  37.790  29.569   4.130
56425W        W24643  13.165  29.649  11.669
56426W        W24644  33.564  32.109   4.550
56427W        W24645  39.004  39.545   3.413
56428W        W24646  26.394  23.165  12.853
56429W        W24647   6.400  39.076  13.186
56430W        W24648   1.917  19.272   2.768
56431W        W24649  11.757  23.255   3.182
56432W        W24650  12.147  11.520   0.329
56433W        W24651   4.563  23.778   3.366
56434W        W24652  43.869   3.296  12.486
56435W        W24653  43.203  14.170   4.576
56436W        W24654  32.386  13.367   4.586
56437W        W24655  32.202  13.434   1.274
56438W        W24656  23.649  35.125   5.145
56439W        W24657  19.216  23.643   3.203
56440W        W24658  20.059  12.746  14.080
56441W        W24659  28.731  26.137  11.807
56442W        W24660  16.069  15.915   3.673
56443W        W24661  41.848  15.670  10.187
56444W        W24662  19.565  19.118  14.522
56445W        W24663  24.039   7.338   0.530
56446W        W24664  41.931  32.556   3.330
56447W        W24665   0.251  21.632   0.366
56448W        W24666   8.210  14.069  12.067
56449W        W24667   7.633  32.577  13.000
56450W        W24668  17.611  22.536   0.882
56451W        W24669  37.388  18.137   1.504
56452W        W24670  10.111  20.386  12.025
56453W        W24671  34.527   5.494   4.313
56454W        W24672  36.640  39.773   1.826
56455W        W24673   3.888  34.424   1.840
56456W        W24674  33.784  42.092  13.847
56457W        W24675  39.908   2.260   1.170
56458W        W24676  14.787  27.498  10.614
56459W        W24677  30.433  44.841   4.749
56460W        W24678  41.809  39.831  12.602
56461W        W24679  19.735   8.373  11.151
56462W        W24680  35.028   4.133   3.766
56463W        W24681  19.948  15.295   0.094
56464W        W24682  27.601  28.646  12.780
56465W        W24683  17.494  18.091   2.333
56466W        W24684  30.852  17.217   2.874
56467W        W24685  27.527  39.915  12.829
56468W        W24686  26.535  18.734  10.586
56469W        W24687   2.775  30.568   2.170
56470W        W24688  43.453  15.651  13.322
56471W        W24689  43.331  14.339   2.214
56472W        W24690   9.420  17.122  11.570
56473W        W24691   3.281  35.150  11.083
56474W        W24692   1.755  12.468  11.781
56475W        W24693  28.996   9.724  11.512
56476W        W24694  44.886  20.105  12.062
56477W        W24695  35.350  35.920   0.191
56478W        W24696   8.652  35.865   3.773
56479W        W24697  27.609  23.709  14.463
56480W        W24698  42.281  43.496  11.641
56481W        W24699   4.747  31.976  12.530
56482W        W24700  28.481   9.982  14.972
56483W        W24701  37.311  10.438   0.176
56484W        W24702  36.606  23.590   1.333
56485W        W24703   3.076   5.651  12.651
56486W        W24704  16.043  33.675   4.828
56487W        W24705   5.472  35.606  13.392
56488W        W24706  14.928  11.208   3.033
56489W        W24707  25.327  31.400  13.990
56490W        W24708  24.589  14.336  10.847
56491W        W24709  28.478  15.812  11.160
56492W        W24710  13.646  28.635  14.379
56493W        W24711   2.851  33.710  13.951
56494W        W24712   3.469  39.239   1.246
56495W        W24713   9.352  26.709  11.122
56496W        W24714   1.960  15.011   2.266
56497W        W24715   9.207  29.724   1.492
56498W        W24716   7.069  36.079   3.778
56499W        W24717  32.065  16.684  10.738
56500W        W24718  21.546  29.149  10.668
56501W        W24719  40.787   9.805  12.479
56502W        W24720  43.492  41.363   3.706
56503W        W24721   6.539   6.939  10.734
56504W        W24722  25.708  21.840   4.899
56505W        W24723   3.245  38.636   2.117
56506W        W24724  23.115  33.969  12.540
56507W        W24725  20.646  32.975   1.441
56508W        W24726   1.039  32.988  10.368
56509W        W24727   4.257  30.758   2.393
56510W        W24728   2.064   6.908   2.685
56511W        W24729  12.073   8.785  10.418
56512W        W24730  29.583  36.527   1.422
56513W        W24731  32.532  36.337  12.888
56514W        W24732   6.426  13.840   0.890
56515W        W24733  44.215  39.345   0.376
56516W        W24734  24.214  35.020   3.751
56517W        W24735  24.157   4.408  10.658
56518W        W24736   6.762  32.178  12.030
56519W        W24737   2.399  36.407  11.992
56520W        W24738  31.102  16.862   3.259
56521W        W24739  38.350  16.410  13.476
56522W        W24740   5.628  40.451  11.223
56523W        W24741   3.215  10.329  13.638
56524W        W24742   0.726  10.353   4.141
56525W        W24743  29.026   7.407  14.318
56526W        W24744  23.573   4.979   4.470
56527W        W24745   1.166  41.763  12.020
56528W        W24746  41.875  11.419  11.130
56529W        W24747  11.326  36.978  11.462
56530W        W24748   8.877  28.491   4.885
56531W        W24749  44.498  20.978   1.658
56532W        W24750   8.275  12.350  13.361
56533W        W24751   1.279   6.481  11.450
56534W        W24752   5.909  12.687   4.878
56535W        W24753  34.914  43.711  13.425
56536W        W24754  10.024   8.176   0.011
56537W        W24755   6.403  26.754   0.950
56538W        W24756   2.274  12.885   1.361
56539W        W24757  12.058   4.518  12.183
56540W        W24758  23.244  24.632  11.439
56541W        W24759  15.648   8.347  11.117
56542W        W24760  19.811   0.717   0.405
56543W        W24761  11.774   1.023   9.989
56544W        W24762  10.573  40.487  13.902
56545W        W24763  22.028  41.765   2.742
56546W        W24764   4.113   2.349   1.917
56547W        W24765  36.880  37.982  10.566
56548W        W24766  38.510  34.953   3.684
56549W        W24767  14.152  35.899  10.538
56550W        W24768   1.993   7.746  10.490
56551W        W24769  14.702   0.915  13.415
56552W        W24770  15.387   6.752  11.543
56553W        W24771   8.168   7.842  10.595
56554W        W24772  35.831  18.735   2.749
56555W        W24773   0.309  26.492  12.367
56556W        W24774  40.352  30.020   2.163
56557W        W24775  19.711  20.679  12.139
56558W        W24776   2.341  10.372  11.654
56559W        W24777  24.547   4.338  14.845
56560W        W24778  31.478   2.878   1.065
56561W        W24779  18.635  36.058   1.811
56562W        W24780  31.839  14.054   1.859
56563W        W24781  34.957  43.449   0.954
56564W        W24782  14.169   7.109   4.400
56565W        W24783   4.711  24.472   1.243
56566W        W24784  27.982   5.575  10.773
56567W        W24785  32.089  37.173   1.352
56568W        W24786  36.772  28.423  12.761
56569W        W24787  10.664   2.832   2.596
56570W        W24788  20.033  36.816  14.338
56571W        W24789  22.940  27.058  14.950
56572W        W24790  24.725  42.859  10.691
56573W        W24791  14.291  14.714   1.377
56574W        W24792  41.873  40.864  13.071
56575W        W24793   7.429  14.399  14.989
56576W        W24794  40.162  19.566  12.591
56577W        W24795   1.724  25.221  11.627
56578W        W24796  28.730   0.378  11.005
56579W        W24797   4.600  18.850   0.874
56580W        W24798   0.883  27.449   1.861
56581W        W24799   0.318  12.180   1.356
56582W        W24800   3.876   5.149  13.344
56583W        W24801   7.911   9.640  12.072
56584W        W24802  25.222  39.047   0.246
56585W        W24803  31.671  15.718   3.287
56586W        W24804   6.420  12.901   1.173
56587W        W24805  40.420  21.013   9.688
56588W        W24806  25.633  44.166  12.523
56589W        W24807  32.750   0.100  12.573
56590W        W24808  19.746  19.838   1.439
56591W        W24809   8.199  32.066  14.327
56592W        W24810  10.279  22.215  12.131
56593W        W24811   2.654  13.649  14.856
56594W        W24812  26.604  25.511   5.105
56595W        W24813  16.861  35.294   1.449
56596W        W24814  18.248  29.686  14.080
56597W        W24815  37.466  41.435   3.810
56598W        W24816  17.035  23.476  13.248
56599W        W24817  18.682  40.330  10.379
56600W        W24818  41.005  26.126  10.578
56601W        W24819  20.681  24.040  14.285
56602W        W24820  43.267  17.695   0.770
56603W        W24821  15.834  38.368   3.582
56604W        W24822   9.830  38.809   2.641
56605W        W24823  27.619  14.176   2.294
56606W        W24824  37.895  14.642   2.411
56607W        W24825  35.635  14.669   3.234
56608W        W24826   6.236  11.794   4.070
56609W        W24827  32.848   3.993  13.058
56610W        W24828  18.522   3.883  14.369
56611W        W24829  18.685  24.627  14.324
56612W        W24830  25.631  31.124   3.167
56613W        W24831   7.024   1.469   3.099
56614W        W24832  15.027   3.554  13.771
56615W        W24833  21.514   6.775   3.992
56616W        W24834  16.287  15.273  13.381
56617W        W24835  40.529  18.330   0.031
56618W        W24836  13.236  31.737   0.917
56619W        W24837   4.197   1.513  14.398
56620W        W24838  20.799  25.070   3.121
56621W        W24839  19.092  16.590   3.672
56622W        W24840  26.464  32.838   3.892
56623W        W24841  12.644  22.247   4.691
56624W        W24842  14.074  44.508  13.436
56625W        W24843  23.170  20.791   4.343
56626W        W24844  28.439  14.430  14.460
56627W        W24845  24.447  25.627  10.708
56628W        W24846  23.872  41.885   3.597
56629W        W24847  12.355  24.587  14.942
56630W        W24848   0.305  41.308  11.705
56631W        W24849   3.903  43.059  12.705
56632W        W24850  29.050  15.416  10.961
56633W        W24851  40.898   2.038  11.754
56634W        W24852  38.922  15.032   0.118
56635W        W24853  12.141  34.402   0.445
56636W        W24854  37.379  26.134   0.182
56637W        W24855  23.568  21.650   1.864
56638W        W24856   8.737  30.165   2.811
56639W        W24857   3.274  34.595   1.935
56640W        W24858  17.753   3.937   2.317
56641W        W24859  30.600  30.357  10.433
56642W        W24860  13.130   6.193   2.476
56643W        W24861  27.320  39.912  11.983
56644W        W24862  25.390  24.412  13.578
56645W        W24863   4.287  13.649   0.775
56646W        W24864  29.516  37.529  10.266
56647W        W24865  29.192  42.253  10.586
56648W        W24866  32.521  40.314   1.814
56649W        W24867   9.170  19.480  13.442
56650W        W24868  44.738  32.883   3.805
56651W        W24869  26.536  11.209  10.674
56652W        W24870   6.870  38.960  12.987
56653W        W24871  18.539  12.191   4.058
56654W        W24872  20.718  24.495  14.531
56655W        W24873   3.735  11.539  10.883
56656W        W24874  39.425  41.446  11.881
56657W        W24875  28.996   9.041   3.187
56658W        W24876  40.799   8.021  12.537
56659W        W24877  26.917  41.614   5.186
56660W        W24878   7.992  25.581   4.762
56661W        W24879  27.051   0.193   0.980
56662W        W24880  12.470  24.923   4.723
56663W        W24881  17.098  32.385  14.781
56664W        W24882  31.941  28.813   1.420
56665W        W24883  44.675  20.126   2.827
56666W        W24884   6.807  14.067  13.793
56667W        W24885  15.309  43.473   0.850
56668W        W24886  10.222  22.791   2.154
56669W        W24887  20.759  35.929  13.851
56670W        W24888  21.200  33.264  13.944
56671W        W24889   6.881  38.159   4.272
56672W        W24890  30.714  43.189  13.875
56673W        W24891  28.639  20.243   3.638
56674W        W24892  38.512  13.825  10.894
56675W        W24893   4.404  35.363   2.379
56676W        W24894  13.152  26.289   4.167
56677W        W24895   4.720  20.865   0.945
56678W        W24896   7.686  36.317  11.898
56679W        W24897   0.902   7.606  13.832
56680W        W24898  23.471  17.265  13.044
56681W        W24899  31.579  39.506  14.056
56682W        W24900  29.355  37.929   2.878
56683W        W24901  40.858   3.719   0.227
56684W        W24902  21.002  39.997  14.810
56685W        W24903  15.124  38.751  11.046
56686W        W24904  34.818  38.395   3.574
56687W        W24905  38.754  24.572   1.347
56688W        W24906   6.642  38.844   3.168
56689W        W24907  38.981  31.059  13.119
56690W        W24908   9.782  19.225   3.297
56691W        W24909   6.234  33.087  10.612
56692W        W24910  40.807  41.275  12.993
56693W        W24911  43.867  28.090   4.615
56694W        W24912  37.608  38.130  11.997
56695W        W24913   5.007   9.726  11.942
56696W        W24914  15.589  39.867   1.515
56697W        W24915  24.249  20.651   2.649
56698W        W24916  15.647   8.748   1.812
56699W        W24917  41.429  10.394   1.600
56700W        W24918  25.705  20.197  12.902
56701W        W24919  36.769   4.527  13.956
56702W        W24920  23.331  29.243  14.072
56703W        W24921  15.724   2.792   4.104
56704W        W24922  34.583  35.052  11.047
56705W        W24923  27.395  40.976   2.443
56706W        W24924   5.334  23.690  10.461
56707W        W24925  43.021  14.627   4.749
56708W        W24926   3.546  40.123   0.489
56709W        W24927   1.533   8.373  12.347
56710W        W24928   3.755  27.411  12.661
56711W        W24929  29.935  29.432  14.889
56712W        W24930  10.551  44.527  13.782
56713W        W24931  35.121  35.550   3.783
56714W        W24932   3.914   4.162  11.387
56715W        W24933  25.440  32.497   1.755
56716W        W24934  27.590  18.921  14.383
56717W        W24935   7.792  28.680   2.426
56718W        W24936  14.236  15.160  14.828
56719W        W24937  11.938  22.071  10.215
56720W        W24938   2.310  13.167   0.608
56721W        W24939  28.166  15.335  11.296
56722W        W24940  41.247   6.374   0.535
56723W        W24941  11.417   7.328   0.353
56724W        W24942  17.832   4.380  11.189
56725W        W24943   2.718  22.631  13.430
56726W        W24944  31.022  31.199   3.856
56727W        W24945   6.474  28.795  12.991
56728W        W24946  29.505  35.268   4.206
56729W        W24947  37.100  20.789   0.192
56730W        W24948  23.881   0.791  13.710
56731W        W24949  16.053  26.554  11.891
56732W        W24950  37.537   9.336   1.343
56733W        W24951  19.077  30.114  11.548
56734W        W24952  16.201  44.501   4.381
56735W        W24953  23.447   7.315   3.307
56736W        W24954   0.249  43.474  12.363
56737W        W24955  26.726  19.141   2.243
56738W        W24956  41.081  14.352   2.092
56739W        W24957  17.194  18.135  14.023
56740W        W24958  14.070   7.716   1.668
56741W        W24959  11.592   7.996  14.587
56742W        W24960  44.049  36.026  12.047
56743W        W24961  34.087  28.416   1.152
56744W        W24962  37.820  15.826   0.927
56745W        W24963   6.297  20.634   2.326
56746W        W24964  28.368  17.255  12.004
56747W        W24965  34.559  28.394  12.068
56748W        W24966   4.832   8.384   0.263
56749W        W24967  10.886   9.048   3.338
56750W        W24968  21.455  32.493   4.744
56751W        W24969  19.906  42.466  10.690
56752W        W24970  11.374  44.394  11.533
56753W        W24971  29.611  42.494   2.104
56754W        W24972  32.374  10.666  12.427
56755W        W24973  28.076  28.919   3.647
56756W        W24974  40.488  14.164   1.966
56757W        W24975  42.806  35.847   4.336
56758W        W24976   5.931   5.720  14.218
56759W        W24977  34.561  39.219   1.204
56760W        W24978  25.870  26.121  12.176
56761W        W24979   0.799   1.803   4.150
56762W        W24980  20.568  20.196  10.657
56763W        W24981  22.442  23.718  12.897
56764W        W24982  38.821  18.213   3.375
56765W        W24983  14.194  37.697  12.139
56766W        W24984  36.701  25.159   5.015
56767W        W24985   7.793   4.896  12.419
56768W        W24986  27.036  36.731  11.649
56769W        W24987   8.381  21.734   1.771
56770W        W24988  27.547   7.089  13.812
56771W        W24989  40.274  27.701   3.296
56772W        W24990  25.650  22.572  12.847
56773W        W24991  17.837   7.261   0.757
56774W        W24992  34.054  24.044  13.162
56775W        W24993  39.443   5.197   0.915
56776W        W24994  26.870   4.322  11.651
56777W        W24995   2.830  39.614  12.862
56778W        W24996  34.549  18.556  10.712
56779W        W24997  29.054  24.521   3.448
56780W        W24998   3.284   3.222   2.902
56781W        W24999  16.622   7.042  14.828
56782W        W25000  38.938  34.143  11.220
56783W        W25001  40.274  25.162  11.128
56784W        W25002   7.750  26.018  11.966
56785W        W25003  13.285  13.947  14.684
56786W        W25004   1.113  43.902   3.121
56787W        W25005  24.105  37.830   2.308
56788W        W25006  43.789  18.144  13.876
56789W        W25007  37.292  22.576  11.334
56790W        W25008  38.308  23.967  10.963
56791W        W25009  12.177  17.049   1.877
56792W        W25010  18.640  36.860   3.163
56793W        W25011  30.592   5.425  12.591
56794W        W25012  34.779  37.854  14.405
56795W        W25013  25.679  14.555   3.093
56796W        W25014  31.454   3.760   0.600
56797W        W25015   2.679  14.216  13.597
56798W        W25016  23.966  31.107   0.581
56799W        W25017  11.016  41.743   3.647
56800W        W25018   9.429  25.710   4.093
56801W        W25019  11.817  14.134   5.056
56802W        W25020  11.655  26.921  11.458
56803W        W25021  31.210  31.908   2.255
56804W        W25022  36.679  12.152  14.297
56805W        W25023  25.974  25.575   1.675
56806W        W25024  37.831  38.964  13.006
56807W        W25025  14.952  13.722   1.954
56808W        W25026  29.142  17.669  11.951
56809W        W25027  44.577  11.837  10.946
56810W        W25028  41.286  44.846  12.240
56811W        W25029  11.906  40.464  11.265
56812W        W25030   3.389  42.497  10.099
56813W        W25031   6.474  42.252  10.766
56814W        W25032  44.828   1.172  14.267
56815W        W25033  16.321  24.453  11.620
56816W        W25034  31.313   2.904  14.228
56817W        W25035  25.444  10.985  11.182
56818W        W25036  36.828  44.941   3.759
56819W        W25037  18.182  30.611  14.511
56820W        W25038  19.748  37.530   2.379
56821W        W25039  42.392  14.366   3.684
56822W        W25040  29.316  29.729   1.768
56823W        W25041  32.768  32.862  10.920
56824W        W25042   9.644  37.544   2.293
56825W        W25043   1.707  19.168   1.733
56826W        W25044  41.156  21.147  11.378
56827W        W25045  41.963  21.260  13.085
56828W        W25046  14.713   9.151   3.015
56829W        W25047  44.858  30.101  14.486
56830W        W25048  27.381   3.787   1.701
56831W        W25049  44.594  30.403   4.624
56832W        W25050   8.158  40.339   0.636
56833W        W25051  20.496  38.367  13.096
56834W        W25052   7.642  23.726  11.219
56835W        W25053  20.782  11.120  10.895
56836W        W25054  22.724  41.476   1.497
56837W        W25055  12.615   7.100  12.573
56838W        W25056   9.716  17.137   0.942
56839W        W25057  12.847   0.481  11.691
56840W        W25058  23.801  35.405   3.878
56841W        W25059  20.974  24.086  11.132
56842W        W25060  21.652  18.015  12.409
56843W        W25061   9.975  38.374  11.463
56844W        W25062  28.069   4.916  14.788
56845W        W25063   8.259  39.325  12.233
56846W        W25064  13.541   2.804   3.077
56847W        W25065   1.614  41.954   3.169
56848W        W25066  44.920   0.445  11.632
56849W        W25067   1.862  15.677   2.780
56850W        W25068   3.893  41.440   2.709
56851W        W25069  13.799  13.312   0.788
56852W        W25070  39.336  44.485  11.125
56853W        W25071  18.592  21.139   3.384
56854W        W25072  41.519  23.608   0.265
56855W        W25073  41.606   3.374  11.433
56856W        W25074  16.074   7.884   4.654
56857W        W25075   0.794  26.262   3.286
56858W        W25076  40.451  28.119   3.566
56859W        W25077   5.332  20.245  12.889
56860W        W25078  25.290   4.316   1.364
56861W        W25079   5.533  33.540   2.337
56862W        W25080  42.279   0.919  10.584
56863W        W25081  39.921  37.040  10.982
56864W        W25082  22.512  14.882   3.719
56865W        W25083  36.968  10.182  10.823
56866W        W25084  24.695  29.741   1.744
56867W        W25085   6.887  20.169  14.240
56868W        W25086  38.102  27.045   2.261
56869W        W25087  15.566   7.171  13.515
56870W        W25088   9.045   0.401   2.896
56871W        W25089  28.905  29.360  10.476
56872W        W25090  32.475  38.059  10.653
56873W        W25091  12.914   3.130   4.115
56874W        W25092  17.776   5.524   0.347
56875W        W25093  36.412  11.418   2.180
56876W        W25094  14.161  27.741   0.896
56877W        W25095  41.900   6.185  11.506
56878W        W25096  15.445  13.645   1.654
56879W        W25097  37.614   5.607   0.876
56880W        W25098  26.999  22.311   4.524
56881W        W25099   5.861  10.296  11.954
56882W        W25100   6.884  34.438  14.926
56883W        W25101   9.919  28.693  14.856
56884W        W25102  34.333  25.034   0.924
56885W        W25103  31.087   5.263   2.255
56886W        W25104   4.912  20.007   3.959
56887W        W25105  28.387  22.315   3.718
56888W        W25106  32.393  10.834   0.263
56889W        W25107  23.319  42.529  14.293
56890W        W25108  32.312  17.150   4.863
56891W        W25109   6.158   7.437   0.391
56892W        W25110  33.900  29.605  14.824
56893W        W25111  24.205  25.026   3.802
56894W        W25112  39.146  34.514  13.241
56895W        W25113   6.466  14.395  10.484
56896W        W25114  29.171  24.118   0.493
56897W        W25115  35.851  19.472   3.730
56898W        W25116  37.272  25.380  12.483
56899W        W25117   9.741  22.653  10.701
56900W        W25118  38.558  13.204  13.148
56901W        W25119  32.597  16.076   4.199
56902W        W25120  25.573  14.792   0.312
56903W        W25121  36.811  29.156   1.723
56904W        W25122  26.248  38.892  13.715
56905W        W25123   9.688   5.385   3.518
56906W        W25124  15.705  30.223   1.336
56907W        W25125  35.813  20.089  13.776
56908W        W25126  27.203  41.436  11.993
56909W        W25127  33.329  28.018  10.903
56910W        W25128  15.818  42.901  13.412
56911W        W25129  35.745  27.944   0.873
56912W        W25130   4.697  39.100   3.696
56913W        W25131   6.516  35.292  11.169
56914W        W25132   5.725   1.849   1.876
56915W        W25133  35.091  34.544   0.849
56916W        W25134  42.791  41.013  13.141
56917W        W25135   3.009  24.007   4.059
56918W        W25136  10.220  36.958   1.156
56919W        W25137  44.530  26.999   0.069
56920W        W25138   7.702  16.858   0.801
56921W        W25139  32.452  43.234  13.393
56922W        W25140  16.483   6.660   1.704
56923W        W25141  11.676  16.568  14.816
56924W        W25142  24.048  16.192   4.330
56925W        W25143  39.332  37.504  10.799
56926W        W25144  44.827  43.259  14.298
56927W        W25145  41.049  39.381   3.489
56928W        W25146  33.114  11.341  14.263
56929W        W25147  44.714  44.442  14.320
56930W        W25148  35.128  18.974   3.237
56931W        W25149  17.189  27.210   3.210
56932W        W25150  27.625  42.104  12.865
56933W        W25151  19.264  29.570   3.559
56934W        W25152   4.757  33.810   1.799
56935W        W25153  17.910  38.469  12.143
56936W        W25154  23.715  33.859  12.924
56937W        W25155   8.796  10.628  11.569
56938W        W25156  11.384  14.108  12.500
56939W        W25157   6.546  34.002   2.323
56940W        W25158  18.363   3.278  11.070
56941W        W25159  42.317  43.023   2.256
56942W        W25160  29.185  25.013   2.124
56943W        W25161  31.587  21.449   2.243
56944W        W25162   6.415  44.700   1.839
56945W        W25163  30.328  23.825  11.199
56946W        W25164  16.264  16.944   3.840
56947W        W25165  21.472   1.491   4.814
56948W        W25166  31.635  41.584  14.508
56949W        W25167  42.354  39.545  13.849
56950W        W25168  32.137  42.346   2.054
56951W        W25169  10.339  41.597   1.594
56952W        W25170   0.827  29.727  14.754
56953W        W25171  43.003  17.246   3.689
56954W        W25172  10.411  44.568  11.072
56955W        W25173  41.509  27.160   4.155
56956W        W25174  38.343  33.816  11.938
56957W        W25175  14.335  20.952  14.916
56958W        W25176  15.226  28.185  13.891
56959W        W25177   1.906   3.248  10.934
56960W        W25178  21.253  41.575   1.240
56961W        W25179  14.148  31.802   3.369
56962W        W25180  31.025  26.441  10.317
56963W        W25181   3.588   0.282  10.371
56964W        W25182   7.784  18.537   4.091
56965W        W25183  27.189  43.863  13.983
56966W        W25184  31.564  43.494  14.314
56967W        W25185  40.488  29.599  13.043
56968W        W25186  24.076  44.026  12.584
56969W        W25187  37.853   8.539   4.599
56970W        W25188  29.377   8.179   4.754
56971W        W25189  32.911  31.598  13.750
56972W        W25190   9.807  20.204   4.651
56973W        W25191   6.286   9.572   1.696
56974W        W25192  28.214  25.276   3.258
56975W        W25193  26.703  44.380  14.285
56976W        W25194  21.303  39.765   0.195
56977W        W25195  27.456  27.884   1.699
56978W        W25196   9.588  42.306   1.983
56979W        W25197  19.349  15.553  10.728
56980W        W25198  37.572  28.177  11.065
56981W        W25199   5.893  17.658   5.454
56982W        W25200  34.972  18.472   2.497
56983W        W25201   8.267   3.791   2.184
56984W        W25202  23.757  44.636   2.434
56985W        W25203  26.236  38.637   3.815
56986W        W25204  26.153  13.692   3.729
56987W        W25205  34.584  44.469  11.702
56988W        W25206  29.593  26.167  13.407
56989W        W25207   4.861   6.745  10.221
56990W        W25208  31.459   7.727  10.916
56991W        W25209  29.933  12.387   4.070
56992W        W25210  14.593  29.080   4.008
56993W        W25211  20.336   3.185   4.584
56994W        W25212  21.504  33.557  11.861
56995W        W25213  10.771   3.949   4.246
56996W        W25214   7.275  15.385  10.675
56997W        W25215   2.804   1.412  14.609
56998W        W25216  29.194  19.231   0.759
56999W        W25217   1.354  23.539   4.478
57000W        W25218  11.726  20.700   1.860
57001W        W25219  17.643  17.796  13.972
57002W        W25220  42.450  23.085  12.637
57003W        W25221  18.704  40.148  14.875
57004W        W25222  28.896   7.199  11.114
57005W        W25223   3.512  42.748   0.797
57006W        W25224  31.198  36.725   4.308
57007W        W25225  20.262  39.877   3.350
57008W        W25226   3.603  21.211   4.816
57009W        W25227   3.433  43.757  12.541
57010W        W25228  38.821  44.328  13.585
57011W        W25229  15.361  16.470   1.219
57012W        W25230  23.504  31.548  11.567
57013W        W25231  12.298  19.122  12.578
57014W        W25232   9.645  22.688   4.537
57015W        W25233   9.989  25.773   4.968
57016W        W25234  35.069  29.138  14.233
57017W        W25235   4.958   6.603   4.167
57018W        W25236  22.065  18.117   4.602
57019W        W25237  28.577   6.394  14.020
57020W        W25238  18.165   7.920   3.222
57021W        W25239  35.020   5.795   1.333
57022W        W25240   7.739  42.008   2.397
57023W        W25241  44.321   2.111   2.781
57024W        W25242   6.372  10.714  14.235
57025W        W25243  10.703   8.707  14.353
57026W        W25244  11.609  16.663  12.049
57027W        W25245  21.181   0.601  10.294
57028W        W25246  37.052  13.495  14.985
57029W        W25247  15.238  26.331   4.314
57030W        W25248   7.984   8.331  10.624
57031W        W25249  17.171  19.105   4.548
57032W        W25250   2.390   6.157  14.381
57033W        W25251  37.012  33.344  14.363
57034W        W25252   2.765  30.796  11.262
57035W        W25253  10.951  22.125   2.661
57036W        W25254  42.094  13.645  13.015
57037W        W25255  16.272   7.915  11.981
57038W        W25256  26.067  42.156   2.191
57039W        W25257  12.129  43.329  10.206
57040W        W25258  39.177   6.618  11.122
57041W        W25259  13.639  22.187  11.169
57042W        W25260  15.552  35.569  11.031
57043W        W25261  25.334   9.790   2.851
57044W        W25262  43.777   5.176  12.395
57045W        W25263  37.199  25.058   5.081
57046W        W25264  43.959  31.708   1.958
57047W        W25265  39.308  29.417  14.326
57048W        W25266  43.226  38.925   1.749
57049W        W25267  24.433  27.648  14.410
57050W        W25268  22.139  25.625   3.404
57051W        W25269  19.715   2.878  12.154
57052W        W25270  22.245  36.593   4.750
57053W        W25271  38.313  14.664   4.284
57054W        W25272  44.296  30.720   4.133
57055W        W25273  23.673  11.558  12.390
57056W        W25274  14.453  30.541  13.098
57057W        W25275   7.413   8.937  14.274
57058W        W25276  38.294  44.925  13.296
57059W        W25277  36.066  43.521   1.875
57060W        W25278  19.161   9.965  13.135
57061W        W25279  33.564  17.316   2.276
57062W        W25280   0.422  36.394  14.058
57063W        W25281   5.956  11.385   2.883
57064W        W25282  27.156  25.269  14.009
57065W        W25283  30.226  11.795  11.928
57066W        W25284  17.177  37.084  14.960
57067W        W25285   4.251  33.560   2.865
57068W        W25286   3.981  33.540   2.260
57069W        W25287  24.645   2.936  13.754
57070W        W25288  21.694  33.603  10.965
57071W        W25289  30.522  37.815   4.632
57072W        W25290  35.082   8.332   2.197
57073W        W25291  27.948  43.716  11.158
57074W        W25292  19.566  12.990  14.809
57075W        W25293   6.776   0.292  11.788
57076W        W25294  32.380  25.898   1.504
57077W        W25295  27.116  44.786   3.793
57078W        W25296  38.402  11.564   0.431
57079W        W25297  13.181   7.714  13.167
57080W        W25298   9.877  29.966   2.863
57081W        W25299  16.960  17.706  13.870
57082W        W25300  33.657  19.820   4.212
57083W        W25301   0.482  43.754  14.974
57084W        W25302  10.741   7.967  10.549
57085W        W25303  24.476  25.153   0.814
57086W        W25304  24.698  11.164  14.775
57087W        W25305   0.594   9.963   0.838
57088W        W25306  36.085  22.616   1.668
57089W        W25307   4.810  10.168   0.863
57090W        W25308  31.907  14.424   2.718
57091W        W25309  41.360   2.517  12.388
57092W        W25310   4.516  38.903   0.192
57093W        W25311  16.115  37.567  13.393
57094W        W25312  14.367   3.544   1.277
57095W        W25313  42.075  21.140  10.804
57096W        W25314  25.646  16.543  11.983
57097W        W25315  31.735  34.869   2.731
57098W        W25316  26.288   9.359  14.521
57099W        W25317  30.476  31.836   2.730
57100W        W25318  19.216  35.302  14.256
57101W        W25319  24.075  10.171  14.174
57102W        W25320  42.248   4.749  11.658
57103W        W25321   3.838  36.640   2.353
57104W        W25322  12.099  31.019  13.066
57105W        W25323  35.068  17.690  13.774
57106W        W25324  24.517  30.514  11.837
57107W        W25325  31.107   6.776   4.989
57108W        W25326  32.169  37.100  14.438
57109W        W25327   1.042  14.763  11.389
57110W        W25328  26.305  34.007  11.963
57111W        W25329   1.258   3.273  13.370
57112W        W25330   9.800   7.430   4.260
57113W        W25331  38.338  31.685   2.322
57114W        W25332  10.976  36.501   0.277
57115W        W25333  35.056  14.767  13.106
57116W        W25334   1.458  16.034   2.880
57117W        W25335   2.377   0.653  11.090
57118W        W25336  35.065  40.261  10.754
57119W        W25337   8.730  42.986   2.455
57120W        W25338  32.850  39.045  11.795
57121W        W25339  35.035  12.117  10.750
57122W        W25340  44.749  18.822   4.308
57123W        W25341  18.719  24.048  14.377
57124W        W25342  22.444  18.293  13.327
57125W        W25343  40.518  43.836   2.887
57126W        W25344   2.466   9.589   1.439
57127W        W25345   3.715  32.287  11.613
57128W        W25346  23.616  30.884  13.457
57129W        W25347  31.348  30.643   3.608
57130W        W25348   1.552  34.351   0.224
57131W        W25349   9.773  35.399   2.877
57132W        W25350  13.366  31.524   3.124
57133W        W25351   1.198  20.640   0.323
57134W        W25352  43.313  39.579  12.360
57135W        W25353  35.006  38.479  11.303
57136W        W25354  42.781  23.569  14.845
57137W        W25355  12.617  26.234  10.583
57138W        W25356  32.650  39.972  11.494
57139W        W25357  41.438  36.416   4.081
57140W        W25358  44.552  35.379   4.182
57141W        W25359  36.524  26.958  12.151
57142W        W25360  21.272   7.015   2.777
57143W        W25361  35.818  37.469   3.561
57144W        W25362  16.775  25.671   2.056
57145W        W25363  35.031  41.474   0.932
57146W        W25364  14.354  38.503  12.553
57147W        W25365  30.444   2.279   2.556
57148W        W25366  24.210  28.237   0.796
57149W        W25367  17.622  20.500   1.353
57150W        W25368  24.582  44.305  14.972
57151W        W25369  11.828  37.600  12.013
57152W        W25370  16.849  42.391  12.006
57153W        W25371   1.852  16.281   3.154
57154W        W25372  23.061  33.596   4.227
57155W        W25373  36.958  44.883  11.185
57156W        W25374  36.993  27.149   2.295
57157W        W25375  12.869  37.519  11.872
57158W        W25376  25.387   7.970   1.519
57159W        W25377  38.287  38.012  12.554
57160W        W25378  13.633  42.310   2.970
57161W        W25379  12.065   4.253  14.611
57162W        W25380   8.791  37.465   1.347
57163W        W25381  27.976  32.735  11.833
57164W        W25382  17.615  44.467   1.197
57165W        W25383   9.321  39.317  13.992
57166W        W25384  17.171   4.423   2.921
57167W        W25385  40.370  41.561  11.294
57168W        W25386  33.792   1.363  10.639
57169W        W25387  12.383   3.257   3.567
57170W        W25388   3.625  31.158   4.608
57171W        W25389  15.583   4.207  10.704
57172W        W25390  25.513  16.589   0.186
57173W        W25391  27.375  43.091   4.837
57174W        W25392  34.091  29.605   2.253
57175W        W25393  11.399  37.253  14.321
57176W        W25394  37.093  43.941  13.929
57177W        W25395  32.164  22.460  10.969
57178W        W25396  27.004  34.495   1.778
57179W        W25397   2.373  20.695   2.717
57180W        W25398  25.023  11.768  14.086
57181W        W25399  19.285  24.762  14.504
57182W        W25400  17.241   7.935   4.590
57183W        W25401  22.643  19.963  14.333
57184W        W25402  41.084   7.415  10.737
57185W        W25403  11.840   4.788  11.721
57186W        W25404  20.809  21.495   2.159
57187W        W25405  13.287  23.676  13.332
57188W        W25406  16.345  40.271   4.184
57189W        W25407   7.012  44.077   5.249
57190W        W25408  17.953  15.609   4.323
57191W        W25409  15.848  24.488  14.457
57192W        W25410   4.996  10.258   3.231
57193W        W25411   6.204   1.275   4.382
57194W        W25412  36.715  37.066   0.443
57195W        W25413  12.175  39.769   4.214
57196W        W25414  24.199  42.277  14.248
57197W        W25415  10.716  29.939  11.882
57198W        W25416  10.786  11.718  11.718
57199W        W25417  39.898  16.651  12.831
57200W        W25418  39.622  27.705  14.832
57201W        W25419  29.644  17.695  11.972
57202W        W25420  18.500  37.880   1.763
57203W        W25421  18.737  36.342  12.925
57204W        W25422  43.421  12.715   5.037
57205W        W25423  20.635  11.667  13.910
57206W        W25424   1.744  41.402  14.265
57207W        W25425   4.881   1.668   3.641
57208W        W25426  15.521  23.253   3.197
57209W        W25427  11.195  30.686   1.262
57210W        W25428   4.251  20.781  11.328
57211W        W25429   4.219  41.026   4.528
57212W        W25430  22.245  18.715  10.829
57213W        W25431  13.730  22.909   1.817
57214W        W25432   5.356  36.293   0.442
57215W        W25433   8.156  14.566   2.255
57216W        W25434   8.412  24.570  13.135
57217W        W25435  36.633  14.525   3.254
57218W        W25436  30.717  22.520  10.651
57219W        W25437  38.145   3.654   5.012
57220W        W25438  44.934  14.396  14.798
57221W        W25439  30.355   8.491   1.993
57222W        W25440  35.142   4.850   2.070
57223W        W25441   8.907  29.364   0.705
57224W        W25442  33.561  24.654   2.401
57225W        W25443  22.033   0.468   3.699
57226W        W25444  37.780  21.685   4.326
57227W        W25445   2.380  19.441  10.699
57228W        W25446  21.798  40.725   0.972
57229W        W25447  11.911  42.245  12.445
57230W        W25448   4.170  44.239   5.008
57231W        W25449  38.359  38.039  14.414
57232W        W25450   2.735  23.825  13.996
57233W        W25451  43.805  33.061   4.739
57234W        W25452  20.932  29.469   2.878
57235W        W25453  16.525  21.969   0.882
57236W        W25454  11.793  28.995   2.338
57237W        W25455  44.703  37.942  10.829
57238W        W25456  14.321  12.118   2.207
57239W        W25457  43.679  35.400  13.116
57240W        W25458  26.934  39.414   3.393
57241W        W25459   2.347  25.001   2.831
57242W        W25460  25.303   3.605  11.416
57243W        W25461  15.304  13.566   2.739
57244W        W25462  18.787  39.922   1.584
57245W        W25463  44.182  12.191  10.882
57246W        W25464   2.164  16.149  13.988
57247W        W25465  44.839  31.168  12.014
57248W        W25466  42.074  23.483   4.019
57249W        W25467  31.926  36.989  13.565
57250W        W25468  11.969  10.536  13.580
57251W        W25469  28.093  36.013  14.440
57252W        W25470  21.720  16.567   0.646
57253W        W25471  28.658  44.041   3.965
57254W        W25472  30.991  31.994   1.324
57255W        W25473  14.832  29.192  12.115
57256W        W25474  10.737  43.076   1.860
57257W        W25475  30.901   0.924  10.627
57258W        W25476  38.448  34.311  11.224
57259W        W25477  19.520  17.096  11.471
57260W        W25478   1.344  32.689   4.580
57261W        W25479  35.512   8.731   2.862
57262W        W25480  23.936   7.426   3.257
57263W        W25481  17.701   8.266   4.132
57264W        W25482  24.117  31.336   3.276
57265W        W25483  20.092   3.205  12.002
57266W        W25484  10.346   8.151  13.517
57267W        W25485  13.150  26.035   0.718
57268W        W25486  39.276  29.238  12.825
57269W        W25487  18.081  24.508   3.649
57270W        W25488  22.142  30.426  11.709
57271W        W25489   5.932  40.353   2.902
57272W        W25490  11.857  23.219   0.857
57273W        W25491   3.122  39.545  14.648
57274W        W25492  10.855  18.091   5.154
57275W        W25493  32.512  23.306   3.354
57276W        W25494  26.173  19.054  11.929
57277W        W25495  10.895  32.439   2.002
57278W        W25496  40.927  35.083  13.483
57279W        W25497   5.172  28.495  11.604
57280W        W25498  41.346   2.256  13.828
57281W        W25499  26.169   3.224  12.955
57282W        W25500  26.517   3.735  14.877
57283W        W25501  18.952  33.037   1.842
57284W        W25502  14.571   0.780   0.412
57285W        W25503  26.173  12.648  11.054
57286W        W25504  34.525  40.037  14.008
57287W        W25505  36.778  12.315   2.824
57288W        W25506  37.155  31.045  11.172
57289W        W25507  42.007   1.541   1.776
57290W        W25508  28.572  35.772  11.986
57291W        W25509  23.050  10.804   2.317
57292W        W25510  43.865  20.738  10.345
57293W        W25511   1.443  43.470   1.008
57294W        W25512  33.427  36.487   1.068
57295W        W25513   8.878  39.052   0.336
57296W        W25514   9.553  35.860  13.165
57297W        W25515  24.208  25.871   1.195
57298W        W25516  18.732   0.853   3.561
57299W        W25517   3.221  27.585  10.636
57300W        W25518   1.413  10.944  13.791
57301W        W25519  44.955  21.207  13.115
57302W        W25520  27.953  32.930   2.702
57303W        W25521  24.542  29.626  10.587
57304W        W25522  20.018  25.668   0.377
57305W        W25523  18.680  28.632  10.871
57306W        W25524  24.582  24.442  12.885
57307W        W25525  37.449  41.570  14.215
57308W        W25526  15.823  24.132  13.909
57309W        W25527  16.148   1.734   0.444
57310W        W25528  33.891   9.979   0.189
57311W        W25529  44.515  25.269  13.034
57312W        W25530  22.674   3.580  10.743
57313W        W25531  13.386  42.034  14.084
57314W        W25532  15.212  11.322   3.885
57315W        W25533  24.496   1.426  11.462
57316W        W25534   3.620  25.163   1.320
57317W        W25535  29.861  39.354  14.762
57318W        W25536  12.935   8.738  11.561
57319W        W25537  20.523  32.039   0.710
57320W        W25538  23.492  44.452  11.494
57321W        W25539  37.006  41.849   2.423
57322W        W25540   6.436  13.741  12.562
57323W        W25541  18.280  15.661  14.284
57324W        W25542  20.370  42.799  12.920
57325W        W25543  30.371  44.814  12.893
57326W        W25544  44.002  29.646  14.312
57327W        W25545  25.815  10.941   3.575
57328W        W25546   7.241  23.799  11.527
57329W        W25547  19.979  24.009  14.812
57330W        W25548  43.704  13.200   2.770
57331W        W25549  22.247  28.094  10.505
57332W        W25550  35.202  43.945  14.759
57333W        W25551  36.842  25.756  10.699
57334W        W25552  13.115  35.072   3.632
57335W        W25553  13.292   5.459  13.869
57336W        W25554  27.727  27.057  10.453
57337W        W25555  44.370  26.569  12.363
57338W        W25556  28.398  21.627  14.380
57339W        W25557  31.894  25.262  11.235
57340W        W25558  12.722  16.592  11.885
57341W        W25559  25.059  34.550   4.724
57342W        W25560  30.591  23.192   0.068
57343W        W25561  32.722  19.757   4.184
57344W        W25562  41.509  29.184   0.359
57345W        W25563  20.135  26.212   4.645
57346W        W25564  33.396   2.387  13.907
57347W        W25565  33.323  32.001   3.735
57348W        W25566  23.195   7.325   0.760
57349W        W25567  19.163  16.108  12.921
57350W        W25568  23.563   9.666  11.007
57351W        W25569   8.459   6.788   4.557
57352W        W25570  35.884  17.277   3.619
57353W        W25571  37.448  41.049   2.236
57354W        W25572   9.842  30.959  12.356
57355W        W25573  11.320   2.026  14.869
57356W        W25574  38.064  13.356   3.754
57357W        W25575  29.359  13.649  11.680
57358W        W25576  17.912  42.416   2.090
57359W        W25577   0.509  28.947   3.132
57360W        W25578  23.052  30.221  13.387
57361W        W25579  36.645  32.980  13.503
57362W        W25580  43.970  43.326  14.778
57363W        W25581  20.774   9.603  12.949
57364W        W25582  29.561   5.583  14.138
57365W        W25583  43.551  11.805  14.733
57366W        W25584  42.884  21.349  12.940
57367W        W25585  15.174   3.202  11.135
57368W        W25586  33.160   5.950   3.567
57369W        W25587   9.714  23.416  11.475
57370W        W25588   5.863  16.110  12.588
57371W        W25589  27.878   6.973   1.319
57372W        W25590  37.623  10.156  11.593
57373W        W25591  13.746  37.944  11.962
57374W        W25592  36.749  42.892   4.228
57375W        W25593   6.660  32.019  13.855
57376W        W25594   8.470   5.670   1.429
57377W        W25595  23.748  32.909   4.720
57378W        W25596  31.392  21.715  14.366
57379W        W25597   9.809  14.630   4.243
57380W        W25598  23.686  40.118  13.260
57381W        W25599  16.566  21.580  13.218
57382W        W25600   1.808  33.892   4.734
57383W        W25601  16.062  10.911  13.511
57384W        W25602  25.404  17.060  14.989
57385W        W25603  27.039  29.496  11.273
57386W        W25604  15.343  16.168  10.657
57387W        W25605  36.480  32.843   2.741
57388W        W25606  43.304  34.831   3.785
57389W        W25607   9.627  33.406  14.307
57390W        W25608  35.115  18.991  14.012
57391W        W25609  27.844  20.630  11.651
57392W        W25610  17.817  31.435  12.028
57393W        W25611  14.114  39.941   1.969
57394W        W25612  25.986  42.523  13.475
57395W        W25613   6.854  12.310  14.568
57396W        W25614  41.001   6.309   4.797
57397W        W25615  14.254  18.059   1.438
57398W        W25616  11.342   2.456   0.462
57399W        W25617  24.744  31.883  11.665
57400W        W25618  25.821  11.401   4.335
57401W        W25619  32.103  20.183   0.085
57402W        W25620  17.787  21.278  12.586
57403W        W25621  39.829   6.753  11.193
57404W        W25622  12.194  33.655  13.321
57405W        W25623   6.394  13.450  11.532
57406W        W25624  27.440   6.124   4.488
57407W        W25625  31.605  31.483  12.467
57408W        W25626  35.426  34.030   0.085
57409W        W25627   5.905   5.391   2.343
57410W        W25628  14.397  44.380  12.674
57411W        W25629  40.787   5.654   1.628
57412W        W25630  34.035  42.024  10.728
57413W        W25631  42.513  31.011  13.387
57414W        W25632  13.624   7.738   1.394
57415W        W25633   1.513  19.242   3.120
57416W        W25634  37.392  25.022  10.939
57417W        W25635   4.907   4.040  11.981
57418W        W25636  27.745   8.097  11.166
57419W        W25637  24.191  38.375  13.412
57420W        W25638  13.009  38.537  14.120
57421W        W25639  34.132  15.585  12.085
57422W        W25640  30.586  14.046   2.831
57423W        W25641  23.096   4.641  11.251
57424W        W25642  17.326  10.865  14.983
57425W        W25643  30.461  37.921  11.960
57426W        W25644  33.676  42.810   2.610
57427W        W25645  39.932  34.349   4.096
57428W        W25646  28.041  27.953   3.224
57429W        W25647  37.141  32.348  11.463
57430W        W25648   7.266  27.058   3.408
57431W        W25649  44.938  16.897  14.192
57432W        W25650   0.292  16.248  12.566
57433W        W25651  43.522  33.505   4.106
57434W        W25652   3.741  42.323  13.162
57435W        W25653  37.611  15.624  10.123
57436W        W25654  31.696  17.858  11.933
57437W        W25655  43.861  27.658   4.976
57438W        W25656  40.763  27.927  11.051
57439W        W25657  22.249  16.854   3.172
57440W        W25658  23.984  19.449  14.404
57441W        W25659  27.449  32.853   3.227
57442W        W25660   7.324  22.620   3.770
57443W        W25661  29.969   8.590  12.912
57444W        W25662  28.624  13.634   5.058
57445W        W25663  44.872  21.344  11.072
57446W        W25664  41.983  27.689   0.247
57447W        W25665  25.931  33.329   0.950
57448W        W25666  33.043  17.688   3.596
57449W        W25667  21.082  17.960  11.196
57450W        W25668  13.832   5.242   3.144
57451W        W25669  24.756  42.279  11.348
57452W        W25670  39.008  17.796  14.378
57453W        W25671  34.615   7.628   3.212
57454W        W25672  25.543  43.819  14.638
57455W        W25673  11.998  44.305   1.272
57456W        W25674  34.738   3.306   0.797
57457W        W25675  41.607  44.789   3.743
57458W        W25676  44.746  12.174   0.173
57459W        W25677  24.897   5.871  12.510
57460W        W25678  44.915  36.993  14.292
57461W        W25679  29.673  35.004   0.366
57462W        W25680  15.117  23.034   1.638
57463W        W25681  25.997  11.831   4.114
57464W        W25682  30.908  25.267  12.038
57465W        W25683  23.598  22.464   2.366
57466W        W25684  18.448  23.623  11.942
57467W        W25685  35.970  36.196  10.505
57468W        W25686  14.479  10.479   1.908
57469W        W25687   4.839  26.216  12.521
57470W        W25688  36.700  28.773   2.681
57471W        W25689  18.043   8.465   1.816
57472W        W25690   4.870  17.374   5.024
57473W        W25691  14.262  19.566  13.371
57474W        W25692  44.010  11.378   0.361
57475W        W25693  23.900  12.667   3.552
57476W        W25694  19.405  13.864   2.833
57477W        W25695  11.078  14.108   1.729
57478W        W25696  19.086  30.748   4.279
57479W        W25697  42.335  22.058   0.293
57480W        W25698   9.949  39.694  14.814
57481W        W25699  11.193  28.413   1.289
57482W        W25700  11.955  27.624  12.698
57483W        W25701   9.872  33.146   4.238
57484W        W25702  18.327  41.453   2.799
57485W        W25703  37.812  24.490   2.810
57486W        W25704  21.734  20.655   1.919
57487W        W25705  21.065  30.109   3.770
57488W        W25706  36.386  20.389  11.584
57489W        W25707  39.648  42.402   1.840
57490W        W25708   2.695   9.747   2.386
57491W        W25709  43.756  44.982  12.312
57492W        W25710   1.400  34.043   3.751
57493W        W25711  18.785  26.686   2.779
57494W        W25712  25.631  14.579  13.389
57495W        W25713  41.616  12.797  14.923
57496W        W25714  36.270  32.108  11.091
57497W        W25715  15.617  38.527   1.247
57498W        W25716   3.908  13.046  13.974
57499W        W25717  44.258  14.985   2.966
57500W        W25718  28.200   4.761   4.012
57501W        W25719  40.979   5.730  11.895
57502W        W25720  10.180  10.143   0.729
57503W        W25721  24.247  26.262  14.809
57504W        W25722  12.728  13.276   3.849
57505W        W25723  29.174   2.523   3.811
57506W        W25724   5.657  42.656  13.167
57507W        W25725  39.617  44.770   1.218
57508W        W25726  17.130  40.272   1.356
57509W        W25727  20.492  35.134  11.191
57510W        W25728  22.037  12.173  13.934
57511W        W25729  13.539  21.736   4.062
57512W        W25730   7.175   3.729   0.843
57513W        W25731  22.416  18.009   4.965
57514W        W25732  11.761   4.047  14.971
57515W        W25733  15.215  16.593  13.234
57516W        W25734  29.111  34.881   4.417
57517W        W25735  15.658  22.522  14.958
57518W        W25736  21.660  19.275  13.960
57519W        W25737   6.671   0.317   2.668
57520W        W25738  16.353  27.634  13.761
57521W        W25739  40.953  43.431   0.951
57522W        W25740   1.308  14.014  10.624
57523W        W25741  38.840  12.515  14.496
57524W        W25742  19.889   5.935  10.727
57525W        W25743  17.218  38.039  11.238
57526W        W25744  37.516  27.202   4.763
57527W        W25745  29.192  18.158  12.066
57528W        W25746  38.314  42.785  11.865
57529W        W25747  15.690  39.071  12.395
57530W        W25748  36.470  28.186  13.818
57531W        W25749   0.721   1.886   3.638
57532W        W25750  41.785  18.743   2.968
57533W        W25751  40.524  21.750   0.850
57534W        W25752   3.933  36.009  10.986
57535W        W25753  18.934  29.192  14.923
57536W        W25754  24.052  33.632  14.465
57537W        W25755  25.283  30.521  11.469
57538W        W25756   7.280  20.573  10.753
57539W        W25757  34.544   3.360  12.701
57540W        W25758   1.663   1.651  11.667
57541W        W25759  29.024  20.639  14.526
57542W        W25760  32.081  41.372   4.535
57543W        W25761   2.057  20.192  14.376
57544W        W25762  17.246  23.470  12.425
57545W        W25763  13.833  13.524   1.326
57546W        W25764  26.438  32.969   2.484
57547W        W25765  38.781   6.529  11.817
57548W        W25766   1.764  32.037  14.971
57549W        W25767  22.778  44.060   1.104
57550W        W25768  22.275  14.500   1.954
57551W        W25769   9.249  33.403  10.900
57552W        W25770  19.060  35.343  13.370
57553W        W25771  33.845  11.613   0.900
57554W        W25772  19.069   5.652   0.365
57555W        W25773  10.648  17.849   0.196
57556W        W25774  33.007   7.677  11.608
57557W        W25775  14.747   5.045  12.542
57558W        W25776  38.757   9.630  10.823
57559W        W25777  30.029  42.531  12.876
57560W        W25778  30.410  27.475  12.415
57561W        W25779   1.842  16.264   1.769
57562W        W25780  44.761  34.048   3.175
57563W        W25781   2.340  38.749   2.852
57564W        W25782  21.125  24.435   4.252
57565W        W25783  11.598  38.765  13.454
57566W        W25784  35.600   8.222   1.990
57567W        W25785  15.406  17.451  11.537
57568W        W25786   4.689   8.124  11.525
57569W        W25787   1.001   4.685   2.361
57570W        W25788  25.180   1.539  14.986
57571W        W25789  34.494   4.409   1.760
57572W        W25790  21.583  21.868   3.443
57573W        W25791  42.354  44.530  13.838
57574W        W25792   7.920  19.331   2.817
57575W        W25793   8.906  22.999   0.903
57576W        W25794  20.111   2.690  12.865
57577W        W25795  31.649  40.777   3.383
57578W        W25796   1.027  29.505   3.686
57579W        W25797   2.241  40.764  14.919
57580W        W25798   7.664  23.034  14.203
57581W        W25799  36.525  15.756  11.213
57582W        W25800  14.031   7.694   5.065
57583W        W25801  13.764  39.569  14.072
57584W        W25802  30.605  32.932   3.502
57585W        W25803  32.017   4.238   0.331
57586W        W25804  31.105  37.049   3.213
57587W        W25805  29.783  22.558  13.793
57588W        W25806  25.131  29.397  12.906
57589W        W25807  13.641  25.740  11.968
57590W        W25808  33.861  27.121  13.412
57591W        W25809  30.090  30.012  14.747
57592W        W25810  11.764  38.598   3.814
57593W        W25811  34.274  40.507  13.836
57594W        W25812  30.931  16.673  11.567
57595W        W25813  23.196  21.490  14.846
57596W        W25814  12.718  40.068   3.134
57597W        W25815   7.949  18.019   4.109
57598W        W25816  15.191   9.622  13.064
57599W        W25817  35.358  19.150  13.422
57600W        W25818  42.136   1.772  13.836
57601W        W25819  16.752  14.276   1.709
57602W        W25820   1.564  23.183  12.360
57603W        W25821  28.158  28.999  10.502
57604W        W25822  38.605  18.684   3.329
57605W        W25823  15.597   3.161   1.362
57606W        W25824  31.535  35.464   3.900
57607W        W25825  34.265  41.547   2.322
57608W        W25826  29.775  28.217  12.520
57609W        W25827  27.073  34.985   1.648
57610W        W25828  13.310  39.875  14.023
57611W        W25829   1.392   9.697   1.783
57612W        W25830  29.419   4.570  10.344
57613W        W25831  11.820  29.331   3.727
57614W        W25832  43.244   0.060  13.030
57615W        W25833  44.925  35.444  10.536
57616W        W25834  18.480  11.702   3.319
57617W        W25835  10.822  36.920  13.560
57618W        W25836  10.134  21.007  10.368
57619W        W25837  14.165  38.886   2.764
57620W        W25838  34.318  30.067  12.234
57621W        W25839  13.932  38.823   3.718
57622W        W25840  13.591  12.383  13.923
57623W        W25841   4.820  21.966   1.392
57624W        W25842  28.509  18.620   3.112
57625W        W25843  23.152  39.652  12.515
57626W        W25844  44.466   1.695   3.709
57627W        W25845  27.558  29.879   4.571
57628W        W25846  25.889  41.785   3.824
57629W        W25847  41.870   6.632   4.746
57630W        W25848  11.350  12.909  14.812
57631W        W25849  10.274  14.653  14.924
57632W        W25850  28.408  12.669  12.564
57633W        W25851  25.938  19.882   1.392
57634W        W25852   9.836  34.814  14.331
57635W        W25853  29.218  44.430  11.107
57636W        W25854  29.686  28.914  14.380
57637W        W25855  27.983  13.807   2.179
57638W        W25856  15.339  28.971   4.489
57639W        W25857  10.319  32.977   2.282
57640W        W25858  29.319  29.662   0.782
57641W        W25859  10.243   2.860  12.425
57642W        W25860  40.491   3.021   4.516
57643W        W25861  42.897  19.648   3.561
57644W        W25862  41.276   0.846  14.865
57645W        W25863  36.088  20.670   3.291
57646W        W25864  41.046  13.190   2.861
57647W        W25865  38.989   8.618   4.506
57648W        W25866   6.810  16.920  14.983
57649W        W25867  17.781  23.665   1.486
57650W        W25868   0.560  40.385   3.202
57651W        W25869  21.111  23.237   1.447
57652W        W25870  23.573  34.914   3.207
57653W        W25871  10.293  26.455  14.895
57654W        W25872  28.936  29.243  12.077
57655W        W25873  38.383   8.328  11.063
57656W        W25874  44.830  12.376   5.008
57657W        W25875  35.413  27.201  10.650
57658W        W25876  44.908   4.997  13.982
57659W        W25877  11.253  14.419  10.766
57660W        W25878  27.086  31.063   0.056
57661W        W25879  14.541  36.152   3.845
57662W        W25880  34.868  15.662  12.753
57663W        W25881  43.295  31.373  12.612
57664W        W25882  19.023  11.868   2.381
57665W        W25883  25.896  26.941   4.196
57666W        W25884   4.503  41.943  12.832
57667W        W25885  16.315  26.007   0.334
57668W        W25886   3.259  23.048   3.666
57669W        W25887  16.588  14.800   5.429
57670W        W25888  24.519   1.355  10.916
57671W        W25889  38.778  21.563  13.097
57672W        W25890  14.019  24.873  10.345
57673W        W25891   2.294  37.299   3.713
57674W        W25892   2.926  28.386  13.117
57675W        W25893   9.524  43.767  14.785
57676W        W25894  21.213  22.548  12.709
57677W        W25895  13.022  37.880   0.102
57678W        W25896  22.459  35.169   4.055
57679W        W25897  16.028  33.928   4.102
57680W        W25898  37.751  36.953   3.070
57681W        W25899  26.393  43.062  14.825
57682W        W25900  11.637   1.977   3.496
57683W        W25901  38.888  29.899   1.271
57684W        W25902   1.315  41.749   4.231
57685W        W25903  38.956   2.742  10.855
57686W        W25904  18.642  16.986  14.620
57687W        W25905   7.457   7.609   2.134
57688W        W25906  21.197  34.567   1.427
57689W        W25907  25.201  21.285  11.644
57690W        W25908   3.014  23.413  13.905
57691W        W25909  18.043  24.989  11.176
57692W        W25910  23.154   6.001  12.959
57693W        W25911  25.655   0.967   2.270
57694W        W25912  19.632  30.738  12.851
57695W        W25913   5.503  24.677  11.176
57696W        W25914   2.225   7.881   0.420
57697W        W25915  17.627  32.636  14.412
57698W        W25916  27.878  27.174  11.199
57699W        W25917  10.185  16.747   3.646
57700W        W25918  12.389  21.235   2.829
57701W        W25919  27.952   7.076   3.739
57702W        W25920   1.137  41.774   3.223
57703W        W25921  30.852  31.600   2.453
57704W        W25922   3.863  36.113   3.591
57705W        W25923  22.097  23.292  11.618
57706W        W25924  12.142  29.137   1.972
57707W        W25925  26.462   0.016  11.031
57708W        W25926  35.298  11.397  14.844
57709W        W25927  18.128   1.847  12.352
57710W        W25928  21.799   2.937   1.671
57711W        W25929  28.780  37.206   3.887
57712W        W25930  32.635   3.671   4.216
57713W        W25931  29.948  31.866   3.118
57714W        W25932  25.740  11.185  12.980
57715W        W25933  22.017  38.452   4.046
57716W        W25934   2.327  33.176  12.974
57717W        W25935  23.208  13.913  13.907
57718W        W25936  18.861  27.016  13.472
57719W        W25937   0.784  28.156  14.037
57720W        W25938  38.900  11.194   3.713
57721W        W25939  17.361   6.337  12.976
57722W        W25940  28.389  11.268   2.739
57723W        W25941  20.316  37.938  12.152
57724W        W25942  11.681  21.278  13.842
57725W        W25943  40.942  38.912   4.291
57726W        W25944   5.414  30.704  13.379
57727W        W25945  23.522  24.086   4.556
57728W        W25946  24.160  28.375  11.178
57729W        W25947  10.762  14.763  13.401
57730W        W25948  20.053  10.036  10.794
57731W        W25949   4.973  19.888  13.354
57732W        W25950  36.555   2.301  14.430
57733W        W25951   0.785   6.164   2.453
57734W        W25952   1.011  21.907  14.837
57735W        W25953  26.691  22.047  11.288
57736W        W25954   2.625  10.512   1.236
57737W        W25955  37.848  29.080   3.399
57738W        W25956   2.818   5.865  13.900
57739W        W25957  15.075  17.197   1.630
57740W        W25958  43.268  19.216  13.934
57741W        W25959  18.164  42.515  11.944
57742W        W25960  34.434   5.471   0.288
57743W        W25961  43.547   2.831  13.119
57744W        W25962  22.765  28.311   4.433
57745W        W25963  31.548  27.936   0.849
57746W        W25964  20.203   5.139   9.995
57747W        W25965   3.190  18.040  14.823
57748W        W25966  39.418  42.428   3.388
57749W        W25967  19.814  31.352  11.610
57750W        W25968   3.500  12.790   3.313
57751W        W25969  44.043   5.809   1.287
57752W        W25970   5.473  23.503   1.719
57753W        W25971  24.971  13.737   2.736
57754W        W25972   6.257  34.446   4.826
57755W        W25973  29.677  28.560  11.968
57756W        W25974  19.463  41.171  11.924
57757W        W25975  33.644  40.259  10.124
57758W        W25976  10.218  25.969   1.853
57759W        W25977   5.103  12.045  11.971
57760W        W25978  27.959  38.580  11.510
57761W        W25979  23.011  33.327   3.305
57762W        W25980  19.550   2.673   1.317
57763W        W25981   6.708  27.179  14.487
57764W        W25982  20.118   1.921   4.808
57765W        W25983   3.302  28.612  14.483
57766W        W25984  26.055  34.824  10.900
57767W        W25985  21.185   4.229  12.314
57768W        W25986   4.699  20.565   4.093
57769W        W25987   6.060  25.974  12.054
57770W        W25988  34.853  19.686  13.786
57771W        W25989  17.122  12.809  12.013
57772W        W25990  27.092  13.610   4.652
57773W        W25991  40.811  43.939  13.333
57774W        W25992  39.917   0.794   4.623
57775W        W25993  34.412  19.873  12.823
57776W        W25994   7.165  15.624   3.771
57777W        W25995  21.281   7.077   0.273
57778W        W25996  17.956   4.702  12.006
57779W        W25997  25.084  18.601   2.421
57780W        W25998  25.875  40.951   3.096
57781W        W25999  39.572  16.037   2.162
57782W        W26000  16.335  28.080   4.545
57783W        W26001  31.287  11.321   4.585
57784W        W26002  36.400  29.882   1.476
57785W        W26003   0.167  44.493  14.556
57786W        W26004  11.540  30.612   0.882
57787W        W26005   2.437   1.893  10.323
57788W        W26006  30.006   2.241   0.244
57789W        W26007  34.514  22.293  12.684
57790W        W26008  32.595  17.605  11.526
57791W        W26009  22.482   6.356  13.552
57792W        W26010  13.293  11.261  14.730
57793W        W26011  33.512   9.280  14.396
57794W        W26012  20.956  17.337   2.502
57795W        W26013  16.860   6.868   1.414
57796W        W26014  38.177  18.829   1.492
57797W        W26015  36.107  19.263  14.921
57798W        W26016  38.755  14.864  13.490
57799W        W26017  36.409  36.031   3.819
57800W        W26018  11.371  26.945  13.979
57801W        W26019  20.070  29.329  10.706
57802W        W26020  24.942   5.317   2.706
57803W        W26021  18.002  12.507   5.665
57804W        W26022  26.340  35.338  12.287
57805W        W26023  17.315  35.181  13.362
57806W        W26024  41.910  36.010  14.782
57807W        W26025  20.575  15.347   1.409
57808W        W26026  11.120   9.689   2.795
57809W        W26027  44.880  38.037   2.805
57810W        W26028  29.386  43.635   1.360
57811W        W26029  16.187  10.127   3.850
57812W        W26030  43.507   0.269   2.620
57813W        W26031   1.962   6.437   3.686
57814W        W26032  17.325  23.022   0.672
57815W        W26033   7.883  21.257   5.010
57816W        W26034  30.380  11.786  10.701
57817W        W26035  20.629  38.273  14.827
57818W        W26036  21.533  17.047   3.221
57819W        W26037  13.296  14.674   2.256
57820W        W26038   0.474  34.860   0.770
57821W        W26039  37.911  25.618  11.299
57822W        W26040  44.878  42.744   1.274
57823W        W26041  12.036  26.427   1.286
57824W        W26042  11.241  39.809   3.623
57825W        W26043  21.467   7.412  11.466
57826W        W26044  34.382  32.556  11.144
57827W        W26045  39.988   7.308   1.902
57828W        W26046  37.786   1.553   3.386
57829W        W26047  40.917  32.069   4.600
57830W        W26048  44.966  37.161   2.594
57831W        W26049  32.329  14.691   2.791
57832W        W26050  10.726   3.546  10.670
57833W        W26051  13.822  10.862  12.868
57834W        W26052  36.491  30.166   3.673
57835W        W26053  15.989   9.475   3.237
57836W        W26054  33.515  15.346   3.414
57837W        W26055   5.647  42.990   3.409
57838W        W26056  18.540  21.607  13.844
57839W        W26057  13.322  19.456   1.851
57840W        W26058  29.542  18.443  11.211
57841W        W26059  36.313  36.582  12.928
57842W        W26060  36.541  28.751   1.908
57843W        W26061  43.971  33.039   2.663
57844W        W26062  27.666  12.724   1.304
57845W        W26063  31.370  39.303   0.924
57846W        W26064  32.809  40.846  14.554
57847W        W26065  20.777  34.852   1.314
57848W        W26066  43.259  12.375  12.489
57849W        W26067   6.950  15.541   1.289
57850W        W26068  24.072  30.945  12.980
57851W        W26069  11.784  10.316   4.129
57852W        W26070   6.749   6.044  13.285
57853W        W26071  15.850  25.505  12.503
57854W        W26072  19.844   4.241  14.786
57855W        W26073  14.573   7.015   4.058
57856W        W26074  36.058   6.816  14.768
57857W        W26075  37.646  27.388   1.809
57858W        W26076  16.431  37.762   3.188
57859W        W26077  40.950  44.487  13.749
57860W        W26078  19.118  30.614  14.361
57861W        W26079  32.727  18.307  11.020
57862W        W26080  27.419  34.641  13.429
57863W        W26081   5.082  24.091  10.239
57864W        W26082   8.104  40.045  10.759
57865W        W26083  28.673  21.603  13.922
57866W        W26084  30.667  43.467   0.446
57867W        W26085  43.832  15.076  12.043
57868W        W26086  41.031  20.585  13.021
57869W        W26087  27.184  40.679  11.589
57870W        W26088  18.002   8.663   3.715
57871W        W26089   5.806  32.318   2.025
57872W        W26090   6.566  21.493   4.243
57873W        W26091  28.641  42.345   3.230
57874W        W26092  26.477  33.571  12.204
57875W        W26093  38.647  13.780   1.769
57876W        W26094   1.298  38.586  12.439
57877W        W26095   6.959   8.456   0.895
57878W        W26096  27.431  21.998   4.570
57879W        W26097  27.691  40.250  14.830
57880W        W26098  41.040  14.237  10.736
57881W        W26099  18.685  40.485  13.956
57882W        W26100   2.199  14.536   3.232
57883W        W26101  12.284  16.054  11.406
57884W        W26102   9.613  21.685   3.918
57885W        W26103  40.766  30.857   3.304
57886W        W26104  37.899  40.825  13.304
57887W        W26105   7.352  10.254  11.965
57888W        W26106  31.855  11.224  14.089
57889W        W26107  29.570   6.687  10.699
57890W        W26108  12.094  16.002   2.223
57891W        W26109  25.811  42.848   4.053
57892W        W26110   2.161  21.182   1.237
57893W        W26111   2.465  17.307  14.461
57894W        W26112   8.407  23.307   2.814
57895W        W26113   6.204  44.068   3.805
57896W        W26114  42.443   8.401   1.148
57897W        W26115  35.474  40.048  11.241
57898W        W26116  43.558  31.625  12.133
57899W        W26117  28.960   1.336   0.302
57900W        W26118  32.599   2.577   3.103
57901W        W26119  22.987  26.481   3.949
57902W        W26120  20.623   6.769   0.070
57903W        W26121  41.773  40.877  14.912
57904W        W26122  14.832  27.892  11.561
57905W        W26123  19.071  31.633  11.530
57906W        W26124  24.215   6.300  13.897
57907W        W26125   0.395  25.118  12.192
57908W        W26126  41.403  12.796   2.000
57909W        W26127  40.603  11.203   4.204
57910W        W26128  36.554  30.049  14.989
57911W        W26129  20.654  10.192  14.304
57912W        W26130  39.439   2.758  13.093
57913W        W26131  32.103  39.980   4.559
57914W        W26132   9.141   0.062  11.207
57915W        W26133  18.641   0.517   3.162
57916W        W26134  38.575   9.444  14.346
57917W        W26135  18.783  31.668   3.181
57918W        W26136   0.692  11.621  11.587
57919W        W26137   4.445   0.478  11.657
57920W        W26138  31.102   6.800  14.788
57921W        W26139  26.033  41.506   0.851
57922W        W26140  15.282  21.663   4.143
57923W        W26141  25.485  41.802   4.188
57924W        W26142   8.829   4.936  11.610
57925W        W26143  20.085  28.572  11.128
57926W        W26144  18.325  24.209  12.420
57927W        W26145  20.967  37.245   9.913
57928W        W26146  31.419   0.722   1.901
57929W        W26147  31.422  17.725  12.342
57930W        W26148  41.525   0.888  13.500
57931W        W26149  10.822  26.967   3.874
57932W        W26150  24.549  11.789   3.944
57933W        W26151  16.787  31.177   1.388
57934W        W26152  41.039  18.122   2.798
57935W        W26153  10.094  18.347   4.370
57936W        W26154  24.495  33.384   0.249
57937W        W26155  33.550  26.907   2.228
57938W        W26156  15.404  32.605  12.363
57939W        W26157  39.377   6.881   1.330
57940W        W26158  41.241  24.449   2.214
57941W        W26159   7.579  27.711  14.601
57942W        W26160   9.334  35.493   2.536
57943W        W26161   1.759  26.635   4.607
57944W        W26162  19.567  20.428   4.050
57945W        W26163  24.144  32.591   4.695
57946W        W26164  43.554  42.822  13.825
57947W        W26165  17.212  23.360  14.394
57948W        W26166  16.094  43.022   2.717
57949W        W26167   0.765   8.082   1.312
57950W        W26168  22.509  21.741   3.794
57951W        W26169  23.555   6.283   3.306
57952W        W26170   9.325  14.537   4.086
57953W        W26171  36.415  33.528   0.989
57954W        W26172  19.087  14.698   3.716
57955W        W26173  27.526  34.644   3.775
57956W        W26174  11.101   4.426  10.699
57957W        W26175  10.298  43.195   0.218
57958W        W26176  26.260  38.587   1.250
57959W        W26177   9.742  35.360   1.814
57960W        W26178  14.265  30.649  11.452
57961W        W26179  37.428  26.297  13.338
57962W        W26180  24.131   9.458   3.269
57963W        W26181  10.196   4.767  13.583
57964W        W26182  18.275  25.437   3.752
57965W        W26183  10.968  16.766   4.356
57966W        W26184  10.386  18.530  14.471
57967W        W26185   6.240   2.978   4.077
57968W        W26186  22.497  38.159  13.803
57969W        W26187  39.068  10.242  12.981
57970W        W26188   2.043  11.075  10.663
57971W        W26189   1.186   2.086   3.877
57972W        W26190  36.415  44.356   0.839
57973W        W26191   4.412  38.239  11.188
57974W        W26192  44.841   7.213   2.223
57975W        W26193  24.505   3.407  13.886
57976W        W26194  42.517  33.368  10.886
57977W        W26195  32.026   8.123   3.181
57978W        W26196  16.453  21.036   3.076
57979W        W26197  25.867   4.781   3.728
57980W        W26198  14.897  10.309  10.721
57981W        W26199   1.253  29.590   4.128
57982W        W26200   6.121   6.635  13.297
57983W        W26201   9.795  22.201  10.404
57984W        W26202  44.950  23.355   1.302
57985W        W26203  38.687  15.581   0.291
57986W        W26204  10.720  16.552  12.580
57987W        W26205  16.716  21.573   1.399
57988W        W26206   1.658  11.294  12.676
57989W        W26207   5.814  22.996  12.584
57990W        W26208   8.144  24.256  12.829
57991W        W26209  29.080  35.042  13.488
57992W        W26210  13.539  27.926   1.739
57993W        W26211   9.829  20.881   4.235
57994W        W26212   0.107  28.070   4.774
57995W        W26213  22.481  26.906  14.800
57996W        W26214  18.324   6.160  14.949
57997W        W26215  44.866  10.876   4.654
57998W        W26216  21.211  33.539  12.552
57999W        W26217  36.281   6.494   3.759
58000W        W26218  32.368   0.934   1.951
58001W        W26219  39.623   4.845  11.585
58002W        W26220  31.654  29.060  10.516
58003W        W26221   4.630  31.004  13.046
58004W        W26222  37.592  39.272   3.203
58005W        W26223  30.647  12.778   4.961
58006W        W26224  12.044  10.684   3.845
58007W        W26225   8.210  15.447   2.301
58008W        W26226   6.741  13.671   4.645
58009W        W26227   1.896  24.144  13.976
58010W        W26228   5.346  12.121   4.519
58011W        W26229  28.480   8.165   4.551
58012W        W26230   3.505  43.527   3.430
58013W        W26231  28.474  26.689  13.339
58014W        W26232  21.467  34.860   3.618
58015W        W26233  28.534  13.858   0.371
58016W        W26234  27.038   8.402  13.589
58017W        W26235  12.824  30.608  11.656
58018W        W26236  42.043  29.072   1.401
58019W        W26237   4.881  40.921   3.111
58020W        W26238  12.522  29.130   4.904
58021W        W26239  21.658  26.820   4.538
58022W        W26240   3.771  27.860   4.632
58023W        W26241  34.054  37.441  14.713
58024W        W26242  23.714  36.587   2.308
58025W        W26243  12.616  31.145   4.294
58026W        W26244   8.731  18.593   0.217
58027W        W26245  15.109  42.498  10.834
58028W        W26246  25.932   2.848   3.232
58029W        W26247  20.154  37.465   1.721
58030W        W26248  11.616  21.522   0.752
58031W        W26249  26.557  43.132  11.637
58032W        W26250  34.503  36.917   1.024
58033W        W26251  19.122   3.429   1.250
58034W        W26252   1.950   9.873  11.328
58035W        W26253  28.927  20.522  11.619
58036W        W26254  42.480  35.335   4.559
58037W        W26255   4.565  38.948   2.026
58038W        W26256  37.998   5.824   1.667
58039W        W26257  35.451  18.622   4.222
58040W        W26258  44.189   9.759  13.906
58041W        W26259  19.037  25.930  12.125
58042W        W26260  32.366   2.709   4.455
58043W        W26261  36.260  38.988  11.438
58044W        W26262  22.079  38.873   1.690
58045W        W26263  37.438  19.847  14.092
58046W        W26264   0.320  43.910   2.233
58047W        W26265  20.821  20.813   3.595
58048W        W26266  31.656  30.963  11.126
58049W        W26267  18.662  41.523   3.293
58050W        W26268  23.527  37.516  13.931
58051W        W26269  18.484   8.766   3.084
58052W        W26270  40.248  18.721   3.657
58053W        W26271  39.750  30.009  11.134
58054W        W26272  17.387  27.757   2.087
58055W        W26273   3.846   2.600  10.553
58056W        W26274  37.695  13.376   4.132
58057W        W26275   6.263  33.185   2.844
58058W        W26276  37.963   3.643  14.421
58059W        W26277   4.281  23.621   3.783
58060W        W26278  44.069  38.500   3.686
58061W        W26279  28.050  12.243  11.008
58062W        W26280  18.056   6.073   1.340
58063W        W26281  27.739  26.192  13.402
58064W        W26282  25.588  31.910  11.217
58065W        W26283  36.451  23.049   2.476
58066W        W26284  26.584  29.475  13.811
58067W        W26285  23.278  12.281  13.320
58068W        W26286  12.310  11.845   1.795
58069W        W26287   7.796   2.927  12.017
58070W        W26288  39.182   1.995  14.362
58071W        W26289  28.874  17.240  12.008
58072W        W26290   3.217  36.816   2.322
58073W        W26291  40.457  42.890   0.460
58074W        W26292  25.607  15.657   1.777
58075W        W26293   6.167   6.239   2.413
58076W        W26294   0.306  21.214   4.981
58077W        W26295  40.190   1.051  13.925
58078W        W26296  28.707  44.633  14.498
58079W        W26297  36.900  31.904   4.177
58080W        W26298  34.367  32.953   3.048
58081W        W26299  23.990  29.618  14.863
58082W        W26300   3.447  42.787  13.328
58083W        W26301  32.014  19.941  11.161
58084W        W26302  21.203  17.080  12.140
58085W        W26303  11.866   3.288   1.278
58086W        W26304  37.448  35.136   2.816
58087W        W26305   1.031  18.523  12.586
58088W        W26306   0.813  42.902  12.275
58089W        W26307  33.138  24.132   4.918
58090W        W26308  38.061  34.762   0.724
58091W        W26309  10.219  37.897  11.493
58092W        W26310   1.304  16.599  11.411
58093W        W26311  27.523  37.272   3.386
58094W        W26312   5.935   0.261  11.413
58095W        W26313  21.073   5.207   1.871
58096W        W26314  36.134  16.379   0.946
58097W        W26315  18.785  25.558  10.694
58098W        W26316  31.715  17.649  14.105
58099W        W26317  20.200  37.084  12.952
58100W        W26318  41.969  38.197   4.531
58101W        W26319  15.532  21.342   0.686
58102W        W26320  12.440  34.715   0.107
58103W        W26321  17.260  24.251  14.190
58104W        W26322  33.701  16.325  12.866
58105W        W26323  15.810  44.390  14.435
58106W        W26324  30.366   5.210   1.399
58107W        W26325  18.533  44.746  10.917
58108W        W26326  20.761  20.002  13.111
58109W        W26327  28.706  12.747   1.864
58110W        W26328  21.213   3.213   3.529
58111W        W26329   4.328   4.134  10.583
58112W        W26330   4.299  23.595  12.939
58113W        W26331  36.041   8.559  14.032
58114W        W26332  10.839   1.830  13.716
58115W        W26333  19.227  38.941  12.977
58116W        W26334   7.685  39.077  11.575
58117W        W26335   4.217  17.877   3.701
58118W        W26336  15.389  43.399   3.548
58119W        W26337  20.864  12.285  13.142
58120W        W26338   6.194   5.773   3.245
58121W        W26339  16.729  18.064   1.677
58122W        W26340   4.329  39.910   4.102
58123W        W26341  20.243  37.451  10.647
58124W        W26342  21.002  13.820   2.350
58125W        W26343  29.582   4.647   1.754
58126W        W26344   9.895  42.084  12.030
58127W        W26345  30.105  24.648  11.569
58128W        W26346  34.171   8.308  12.015
58129W        W26347   7.815  37.608   2.345
58130W        W26348  19.716  25.568   3.619
58131W        W26349  26.052   6.401   4.472
58132W        W26350  24.840  20.984   1.594
58133W        W26351  22.412   5.630   2.673
58134W        W26352  37.281  34.386   3.182
58135W        W26353  40.718  32.639  14.324
58136W        W26354   4.689  17.870  14.827
58137W        W26355  43.695  34.644   1.177
58138W        W26356  17.671   8.620   3.103
58139W        W26357  37.291  12.359   2.810
58140W        W26358  44.931  37.620  12.921
58141W        W26359  38.069  42.081   3.788
58142W        W26360   7.646  21.305   3.197
58143W        W26361  18.618  44.238  10.995
58144W        W26362  40.434  39.887   5.004
58145W        W26363  43.249   9.263   4.436
58146W        W26364  33.214  12.126   2.365
58147W        W26365  10.502  33.892   0.071
58148W        W26366   7.844  18.819   2.772
58149W        W26367  35.879   9.061   3.400
58150W        W26368  28.720  44.551   4.499
58151W        W26369   0.554  40.472   1.490
58152W        W26370  21.413   1.782   1.843
58153W        W26371  21.315  25.932   3.270
58154W        W26372   6.635  13.691  14.411
58155W        W26373   1.638   2.847  11.128
58156W        W26374  21.894   3.496  14.372
58157W        W26375  23.047   9.280  13.055
58158W        W26376  38.342  28.713  11.590
58159W        W26377  38.531   5.710  14.955
58160W        W26378   2.426  25.704   4.203
58161W        W26379  25.004  36.181  11.103
58162W        W26380  37.465  27.605  14.236
58163W        W26381  15.578  14.694   0.843
58164W        W26382  38.022  36.547   3.239
58165W        W26383   2.868  24.268  14.888
58166W        W26384  42.518   9.256   0.476
58167W        W26385  20.288   2.299   2.746
58168W        W26386  41.948  35.937  10.710
58169W        W26387  10.946  34.833  12.984
58170W        W26388  42.597   3.510  11.722
58171W        W26389  22.481  10.872   3.189
58172W        W26390  19.552  40.388   1.238
58173W        W26391   9.881  24.554  14.978
58174W        W26392  12.972   6.905  12.236
58175W        W26393  42.011   4.786  14.844
58176W        W26394  26.394   6.631   2.446
58177W        W26395  18.563  40.081   3.024
58178W        W26396  18.831  13.240  13.556
58179W        W26397  42.406  34.359  14.931
58180W        W26398  31.063  37.107  12.479
58181W        W26399  29.488   9.049   0.011
58182W        W26400  31.930   6.825   4.386
58183W        W26401   9.595   1.214   2.651
58184W        W26402  32.233  30.667  14.561
58185W        W26403  39.305  12.124   3.696
58186W        W26404  22.730  33.353  12.987
58187W        W26405   2.061  10.814  11.585
58188W        W26406  44.389  24.277   4.077
58189W        W26407  39.000  18.121   2.358
58190W        W26408   4.724  21.530   0.319
58191W        W26409  34.656  16.064   3.388
58192W        W26410  40.230  35.699  10.558
58193W        W26411  43.135  41.503   0.395
58194W        W26412  28.495  44.954   0.680
58195W        W26413  35.220  36.571   0.800
58196W        W26414  16.111  24.361  11.126
58197W        W26415  16.999  34.483   3.308
58198W        W26416  20.625  24.866  14.885
58199W        W26417  27.100  16.319  13.537
58200W        W26418  34.074  20.864  12.896
58201W        W26419  36.577  27.976  12.985
58202W        W26420  28.200  38.397  13.770
58203W        W26421  27.460  34.629   4.425
58204W        W26422   2.736   0.389   3.234
58205W        W26423  29.888  18.172   4.080
58206W        W26424   4.009  39.086  14.901
58207W        W26425   1.540  44.948  14.860
58208W        W26426  43.515  11.404   1.492
58209W        W26427   5.395  28.623   3.644
58210W        W26428   8.075  38.940   3.131
58211W        W26429  32.881   2.306  13.912
58212W        W26430  44.387  37.807  13.932
58213W        W26431   7.308  33.760  13.821
58214W        W26432  15.113  15.041  11.096
58215W        W26433   9.053   5.957   2.228
58216W        W26434  10.804   8.865  13.491
58217W        W26435  42.478  44.036   1.983
58218W        W26436  31.892  39.118   4.530
58219W        W26437  21.175  15.150  13.079
58220W        W26438   9.313   0.645  13.942
58221W        W26439  28.423  37.504   1.957
58222W        W26440  28.082  28.153   2.208
58223W        W26441  21.535  28.115  14.326
58224W        W26442  14.802  28.609   4.110
58225W        W26443  20.983  22.606   2.411
58226W        W26444  20.693   4.331  12.139
58227W        W26445  36.479  36.546   3.691
58228W        W26446  28.265  35.526  14.302
58229W        W26447  43.520  32.739  12.982
58230W        W26448  10.270  16.894  13.379
58231W        W26449  12.066  29.468   3.271
58232W        W26450  27.957  22.503   9.919
58233W        W26451   2.803  41.178   0.449
58234W        W26452   0.974  13.676  14.296
58235W        W26453  37.093  37.371  11.591
58236W        W26454  12.739  29.355   2.762
58237W        W26455  20.133   8.390   4.723
58238W        W26456   0.246  38.553  11.177
58239W        W26457  42.698  36.755  11.221
58240W        W26458  29.992  33.359  11.416
58241W        W26459  16.523  40.198   3.260
58242W        W26460   3.772   1.757   3.239
58243W        W26461  18.193  18.163   2.674
58244W        W26462  18.800  22.083  10.667
58245W        W26463   5.955  23.013   4.219
58246W        W26464  23.008  31.482   5.010
58247W        W26465  41.036  39.530  10.656
58248W        W26466  44.926  37.656   1.407
58249W        W26467  42.219  42.088  13.331
58250W        W26468  19.815  41.800   2.330
58251W        W26469  38.817  23.513  14.468
58252W        W26470  10.716  31.859  12.877
58253W        W26471   9.712   9.415  12.476
58254W        W26472  29.815  26.457   4.079
58255W        W26473  32.531  13.287   4.109
58256W        W26474   0.320  15.310  13.025
58257W        W26475  30.986   7.409   2.696
58258W        W26476  22.431  14.066  13.320
58259W        W26477  18.558  32.720   3.135
58260W        W26478  24.368  42.312  13.623
58261W        W26479   0.964  16.322  11.709
58262W        W26480   1.385   5.414  12.810
58263W        W26481  35.375  22.527   2.322
58264W        W26482  24.032  22.537   1.933
58265W        W26483  17.536  38.514  11.304
58266W        W26484  41.098  26.653  14.938
58267W        W26485  44.368  27.198  14.611
58268W        W26486  39.895   0.024  12.862
58269W        W26487   7.955   2.871  13.391
58270W        W26488  41.442  17.222   0.702
58271W        W26489  29.184  41.398  14.607
58272W        W26490  42.922  30.413  13.958
58273W        W26491  30.550  39.142  12.778
58274W        W26492  11.924   1.945  11.963
58275W        W26493  41.574   4.938   2.173
58276W        W26494   3.944   2.016   3.674
58277W        W26495  35.321  31.656  11.652
58278W        W26496  36.498  26.538  14.627
58279W        W26497  21.399  16.896   4.796
58280W        W26498  31.269  11.563  12.579
58281W        W26499  32.778  31.482   2.780
58282W        W26500  19.592  39.157   4.123
58283W        W26501  28.453  15.681   4.500
58284W        W26502  35.825  27.930  11.007
58285W        W26503   0.046  41.744   2.350
58286W        W26504  26.799   9.236   4.057
58287W        W26505   5.904  14.524   2.397
58288W        W26506   1.376  15.056  11.081
58289W        W26507   1.798  31.340   0.735
58290W        W26508  17.260  42.114  10.635
58291W        W26509   4.975   3.288  14.735
58292W        W26510  25.629  19.767   3.718
58293W        W26511   0.509  14.718  13.810
58294W        W26512   5.091  27.645   3.043
58295W        W26513   1.212   0.390   1.948
58296W        W26514  15.339  32.832   3.182
58297W        W26515  23.006  17.001  12.890
58298W        W26516  41.244  23.010  12.964
58299W        W26517  37.101  23.587  11.194
58300W        W26518  43.782  13.378   3.265
58301W        W26519  36.076  10.675   3.398
58302W        W26520   1.167  36.762   1.037
58303W        W26521  15.937  32.853  14.015
58304W        W26522  23.975  15.623   2.185
58305W        W26523  20.545  35.845   3.745
58306W        W26524  41.795  30.905   3.268
58307W        W26525  13.240  44.498  13.831
58308W        W26526  30.695  40.342  10.737
58309W        W26527  10.294  20.977  12.736
58310W        W26528  24.518  23.608  12.884
58311W        W26529  37.262   7.954   0.031
58312W        W26530   3.846  22.530  12.126
58313W        W26531  32.144  27.881   1.768
58314W        W26532  39.926  21.930  14.697
58315W        W26533  14.695  13.200   0.623
58316W        W26534  33.121   3.650   0.189
58317W        W26535  34.608  44.872  12.017
58318W        W26536  29.007  30.461   3.357
58319W        W26537   2.537   6.735   2.882
58320W        W26538  29.672  33.669  14.477
58321W        W26539  44.845  12.423   1.379
58322W        W26540   2.419  31.919  12.963
58323W        W26541  38.569   1.258  13.955
58324W        W26542  44.073  16.053   3.280
58325W        W26543  18.050  32.892   3.135
58326W        W26544   8.409   9.204  12.885
58327W        W26545  28.935  10.809  12.968
58328W        W26546  25.516  16.273   1.088
58329W        W26547   9.733  28.811  11.181
58330W        W26548  43.355   6.867  14.956
58331W        W26549  30.601  28.215  12.805
58332W        W26550  38.236   6.242  10.594
58333W        W26551  22.295  34.587   2.243
58334W        W26552  40.251   5.716  14.272
58335W        W26553  30.013  36.373   0.180
58336W        W26554  16.841  43.482   4.307
58337W        W26555  36.445  17.774   3.273
58338W        W26556  28.858  16.796   5.050
58339W        W26557  19.932  32.970   2.887
58340W        W26558  28.526  22.004   4.131
58341W        W26559  37.797  44.422  11.125
58342W        W26560  16.351  44.324  14.485
58343W        W26561  17.073  36.080   1.614
58344W        W26562  23.260  30.216  11.659
58345W        W26563   3.294   1.806  10.736
58346W        W26564  28.124  31.252   3.743
58347W        W26565   2.399   0.650   0.645
58348W        W26566  34.669   4.997   4.301
58349W        W26567  11.276   1.284   1.979
58350W        W26568  40.104  29.445  10.950
58351W        W26569  34.989   0.332   2.112
58352W        W26570   1.127  44.344   3.384
58353W        W26571  37.019  18.744  13.424
58354W        W26572  23.223   6.134   2.735
58355W        W26573  25.775   5.430  14.727
58356W        W26574  13.903  25.515  12.481
58357W        W26575  29.685  36.558   2.625
58358W        W26576   2.522  34.881  12.332
58359W        W26577  29.052  14.072  10.795
58360W        W26578  20.498  32.484  12.035
58361W        W26579  21.321  22.521   4.175
58362W        W26580   0.237   0.894   3.672
58363W        W26581  42.901  21.517  10.320
58364W        W26582  44.861   4.288  14.833
58365W        W26583  38.432   1.251  12.592
58366W        W26584  20.167   5.205   2.926
58367W        W26585  24.969  13.321  13.866
58368W        W26586  36.409  32.878  11.515
58369W        W26587  15.057  38.192   2.374
58370W        W26588  34.586  37.223  10.374
58371W        W26589  30.636  26.007  13.388
58372W        W26590  16.190  30.613   2.719
58373W        W26591  24.880  14.409   0.910
58374W        W26592  41.258  22.394   1.765
58375W        W26593  29.664  12.813   1.718
58376W        W26594  36.411  14.636   2.749
58377W        W26595  39.024  15.129  10.508
58378W        W26596   4.920  41.283   2.647
58379W        W26597  25.645  30.932  12.168
58380W        W26598  20.134  19.785  10.524
58381W        W26599  32.422   8.446  14.877
58382W        W26600   7.652  20.131   0.280
58383W        W26601   3.382  34.499   0.488
58384W        W26602  19.554  37.730  11.933
58385W        W26603  35.972  29.907  10.074
58386W        W26604  17.191  12.675   0.454
58387W        W26605   2.510  41.966  14.327
58388W        W26606   1.345  36.981  14.458
58389W        W26607   4.782   9.646   2.150
58390W        W26608  41.087  13.847  13.002
58391W        W26609  44.588  33.909   1.783
58392W        W26610  44.635   5.537  13.438
58393W        W26611  38.827   9.123   2.693
58394W        W26612   5.792  35.785  12.878
58395W        W26613  28.207   9.806   4.639
58396W        W26614  15.103  27.428  12.664
58397W        W26615   6.443  17.729   5.432
58398W        W26616  25.624  34.428  14.495
58399W        W26617  19.188  11.920  14.985
58400W        W26618  32.811  28.463  13.538
58401W        W26619  18.355  28.079   3.058
58402W        W26620  29.547  38.070  11.122
58403W        W26621  37.463  35.533   0.972
58404W        W26622  30.578  19.471   2.799
58405W        W26623   8.642  39.328  11.510
58406W        W26624  10.181  34.941  12.544
58407W        W26625  32.371  18.110   2.046
58408W        W26626  19.592  22.327   1.732
58409W        W26627  19.179  24.507   4.581
58410W        W26628  42.763  22.312  12.072
58411W        W26629  28.253  12.408   2.681
58412W        W26630  12.800  43.292  13.558
58413W        W26631  25.523   5.320  14.304
58414W        W26632   1.742   1.744   0.820
58415W        W26633  33.478  11.422   0.544
58416W        W26634  13.740  34.388  12.328
58417W        W26635  41.560  23.740  10.471
58418W        W26636  36.498  29.904  10.717
58419W        W26637  10.264  20.648  11.122
58420W        W26638   8.258   0.263   4.654
58421W        W26639  26.705  38.245   4.462
58422W        W26640  33.051   5.729  11.404
58423W        W26641  43.058  34.265  14.264
58424W        W26642  34.288  29.894   0.756
58425W        W26643   6.146  35.371   2.098
58426W        W26644  27.253   1.157  14.321
58427W        W26645  13.077  26.399  14.395
58428W        W26646  40.872   4.673  11.970
58429W        W26647   0.352  28.193  13.336
58430W        W26648  13.757  14.582   1.392
58431W        W26649  41.723  38.523   4.221
58432W        W26650  17.011  42.421  10.970
58433W        W26651  25.939  21.823   1.275
58434W        W26652   6.819   2.841   4.882
58435W        W26653   3.205  19.743   4.066
58436W        W26654  27.039  30.434  12.057
58437W        W26655   9.144   7.354  13.872
58438W        W26656  28.454  15.388   3.666
58439W        W26657  10.394  10.325  13.401
58440W        W26658  18.342  36.034   0.821
58441W        W26659  16.876  14.735   0.319
58442W        W26660  39.533  17.597   1.453
58443W        W26661  28.189  26.124  13.109
58444W        W26662  36.143  15.805  13.067
58445W        W26663  27.757  35.012  13.992
58446W        W26664  29.369  24.601  14.258
58447W        W26665  21.314  29.887  13.981
58448W        W26666  35.165  11.127   2.778
58449W        W26667  12.873   3.826   1.876
58450W        W26668  12.076  11.442   3.701
58451W        W26669  16.047   9.112   1.239
58452W        W26670  29.291  26.357  14.464
58453W        W26671  29.468  17.964  14.853
58454W        W26672  41.406   5.931   2.268
58455W        W26673  42.532  32.519   3.859
58456W        W26674  24.159  21.647  12.145
58457W        W26675  33.035   3.728  11.664
58458W        W26676  18.498  13.938  14.523
58459W        W26677  30.972  12.556  10.370
58460W        W26678   0.297  42.949   0.379
58461W        W26679  11.912   4.574  11.266
58462W        W26680   3.698  33.019  14.428
58463W        W26681  37.764  22.575   2.489
58464W        W26682  44.125  18.515  14.081
58465W        W26683  26.251  23.191  10.898
58466W        W26684  21.526  31.766  10.819
58467W        W26685   3.870  15.174   2.742
58468W        W26686  41.930  38.078   0.773
58469W        W26687  29.434  13.840   0.755
58470W        W26688   7.175  28.102   1.295
58471W        W26689  12.330  28.914  12.986
58472W        W26690  21.126  13.922   5.302
58473W        W26691  12.590  31.298   4.793
58474W        W26692  36.880  40.995   3.553
58475W        W26693  25.052  15.406   3.130
58476W        W26694  20.216   7.656  12.185
58477W        W26695  32.597  11.206  13.511
58478W        W26696  17.373  33.491  12.011
58479W        W26697  16.648   5.197  13.848
58480W        W26698   0.208  35.408   0.074
58481W        W26699  34.457   7.902   3.824
58482W        W26700  35.868  19.111  13.273
58483W        W26701  24.997  37.676   1.986
58484W        W26702  30.957   9.185   3.425
58485W        W26703  13.519  18.971   2.823
58486W        W26704  21.603   4.677   2.472
58487W        W26705   9.198  29.517  11.476
58488W        W26706  35.168  11.559   0.831
58489W        W26707  43.529  33.595  13.312
58490W        W26708  18.860  22.579   4.417
58491W        W26709  36.909   5.813   2.204
58492W        W26710  16.920  36.326  12.949
58493W        W26711  18.018  19.833   0.196
58494W        W26712   7.761  21.254  11.073
58495W        W26713   8.731   0.323   3.288
58496W        W26714  28.525   4.925   0.102
58497W        W26715  10.289  34.803   0.418
58498W        W26716  25.431  42.938   0.074
58499W        W26717   6.877  14.699  14.378
58500W        W26718  11.969   6.776  10.626
58501W        W26719  28.200  11.245   1.883
58502W        W26720  14.542  32.140  12.140
58503W        W26721  12.336  38.408  13.487
58504W        W26722  35.693  43.430   2.721
58505W        W26723  41.778  39.064   2.838
58506W        W26724  13.654  41.156   2.283
58507W        W26725   8.927  20.681  11.092
58508W        W26726  37.521  33.497  11.988
58509W        W26727  19.297   8.340  11.684
58510W        W26728  44.641   7.896   2.681
58511W        W26729  15.691  10.845   4.820
58512W        W26730   9.676  38.969  14.113
58513W        W26731  41.893  43.454  14.837
58514W        W26732  26.555   7.437  12.003
58515W        W26733  16.333  29.655  14.739
58516W        W26734  32.803  39.861  12.415
58517W        W26735  38.863  23.145   3.114
58518W        W26736  22.533  20.718  11.521
58519W        W26737  15.331  16.755   1.707
58520W        W26738  39.095   6.671   2.835
58521W        W26739  41.265  39.076  14.423
58522W        W26740  33.414  10.610   1.810
58523W        W26741  27.722   6.933   2.837
58524W        W26742  38.610  36.974   2.768
58525W        W26743   9.090  29.737   3.318
58526W        W26744  41.647  30.698  13.418
58527W        W26745   1.401  39.049  11.550
58528W        W26746  13.749  39.774   4.451
58529W        W26747  42.566   6.604   2.835
58530W        W26748  18.105   3.717  11.081
58531W        W26749  20.782  22.206   0.693
58532W        W26750  12.765   3.610   4.422
58533W        W26751  35.923  21.498  11.108
58534W        W26752  20.316  19.969  13.848
58535W        W26753  40.438   3.890  13.051
58536W        W26754  32.880  40.323  13.129
58537W        W26755  44.492  38.425  10.714
58538W        W26756   6.609   7.332   2.227
58539W        W26757  29.365  28.575   3.299
58540W        W26758   0.362  41.270  12.502
58541W        W26759   4.523  19.821   1.655
58542W        W26760  38.518  24.817   2.352
58543W        W26761  16.063  16.753  13.013
58544W        W26762   0.703  13.186   4.836
58545W        W26763   3.722  29.189   3.784
58546W        W26764  44.505  23.778  11.881
58547W        W26765   8.732  40.865   1.298
58548W        W26766   3.173  33.767  13.091
58549W        W26767  25.088   7.841   4.275
58550W        W26768  31.569   9.705  11.591
58551W        W26769   3.718  35.972   4.581
58552W        W26770  10.220  32.485  12.542
58553W        W26771  44.738  33.514   3.200
58554W        W26772  32.961  12.656  11.198
58555W        W26773  42.965   7.436   2.917
58556W        W26774  15.108  41.006   1.802
58557W        W26775  10.179   4.817  14.111
58558W        W26776  22.481  43.377  12.422
58559W        W26777  12.091  14.082  11.571
58560W        W26778  25.530  29.611   0.782
58561W        W26779  21.251   4.138  14.218
58562W        W26780  24.868  13.883   0.852
58563W        W26781  21.192  18.867   4.771
58564W        W26782  35.169  18.286   0.117
58565W        W26783  20.954  11.251   0.866
58566W        W26784   4.265  19.189   1.049
58567W        W26785  19.673   4.410   2.896
58568W        W26786  18.172  32.709  11.379
58569W        W26787   9.955  15.509   0.515
58570W        W26788  38.483   6.941  11.849
58571W        W26789  27.138   4.344   4.954
58572W        W26790  39.320  12.299  14.569
58573W        W26791   3.610  19.002   1.875
58574W        W26792   5.088  24.445   4.663
58575W        W26793  43.282  36.809  13.909
58576W        W26794   7.751  28.043  13.751
58577W        W26795  35.888  20.272   0.872
58578W        W26796   0.569  32.058   4.850
58579W        W26797  25.066  43.394   0.322
58580W        W26798  38.868  23.010   0.561
58581W        W26799  32.685  40.956  11.484
58582W        W26800  11.485  34.050  12.907
58583W        W26801  27.551   7.261  11.547
58584W        W26802  35.914  20.498  14.495
58585W        W26803  29.770  42.135   0.343
58586W        W26804  38.156  25.561   2.292
58587W        W26805  22.564  19.138  10.835
58588W        W26806  27.084  15.860   0.388
58589W        W26807  16.192  43.551   2.626
58590W        W26808   5.391  39.253  14.833
58591W        W26809  33.715  40.654   1.372
58592W        W26810  33.279  13.169   4.006
58593W        W26811  27.426   5.329  14.078
58594W        W26812  12.203  37.515   2.304
58595W        W26813  39.852  32.454   3.232
58596W        W26814  24.855  25.668  14.212
58597W        W26815  19.100  21.287   0.250
58598W        W26816   0.899  23.226   4.186
58599W        W26817  31.938  32.398  13.681
58600W        W26818  11.630  15.217   3.543
58601W        W26819  14.884   8.012   3.996
58602W        W26820  20.621  22.151  12.561
58603W        W26821   6.630  23.464  12.979
58604W        W26822  18.130  27.684  13.495
58605W        W26823  44.954   4.222  10.501
58606W        W26824  35.578  33.588   4.723
58607W        W26825  32.483  21.733   3.183
58608W        W26826   9.863  40.265  10.946
58609W        W26827  17.335   2.896  11.901
58610W        W26828  32.722  26.040  11.810
58611W        W26829  38.664  24.080   4.328
58612W        W26830   6.313  37.005   1.794
58613W        W26831  19.568  16.771   1.265
58614W        W26832   8.005  33.547  11.510
58615W        W26833  31.173  22.108   3.482
58616W        W26834  41.091  33.518   4.253
58617W        W26835  23.224  44.948   1.900
58618W        W26836   2.240  42.512  13.366
58619W        W26837  40.391  21.263   0.805
58620W        W26838  18.084  34.170   4.577
58621W        W26839  13.239  24.589  11.536
58622W        W26840  14.483  19.763   1.382
58623W        W26841  36.570   5.474  13.454
58624W        W26842   2.004  33.086   3.995
58625W        W26843  10.172  44.307   0.972
58626W        W26844  21.022  42.593  11.259
58627W        W26845  27.332   9.867   3.697
58628W        W26846  27.898  20.810   2.884
58629W        W26847  23.601  20.264  13.406
58630W        W26848  13.827  22.242  12.735
58631W        W26849  30.070  39.074   3.794
58632W        W26850  33.005  28.022   1.921
58633W        W26851  20.320  35.708  10.664
58634W        W26852  41.958  26.102  10.366
58635W        W26853  12.490  23.160  13.130
58636W        W26854  34.514   1.896  13.966
58637W        W26855  11.353  15.661  12.499
58638W        W26856  39.067  18.299  14.442
58639W        W26857   7.390   6.378   2.142
58640W        W26858   9.350  21.993  10.595
58641W        W26859   0.907   2.340  12.577
58642W        W26860   6.235  41.520  13.441
58643W        W26861  34.148  44.711   3.460
58644W        W26862  33.045  21.486   2.370
58645W        W26863  38.133  43.506  12.497
58646W        W26864  17.510  33.647  13.558
58647W        W26865  33.519  24.568  10.610
58648W        W26866  15.233   4.393   3.752
58649W        W26867  16.860  42.070   2.144
58650W        W26868  24.167  37.400   2.020
58651W        W26869  23.171   3.456   3.190
58652W        W26870   9.395   7.969  11.678
58653W        W26871  11.851  28.356  11.532
58654W        W26872   6.634  14.231  13.326
58655W        W26873  21.975   9.923  13.255
58656W        W26874  31.907   1.975   4.972
58657W        W26875  22.296  12.764   1.954
58658W        W26876  14.307  22.038  12.725
58659W        W26877  40.853  14.732  13.408
58660W        W26878  31.382  18.526   4.133
58661W        W26879   2.846  23.933  12.193
58662W        W26880  30.662  17.944   1.630
58663W        W26881  33.893   6.937   2.101
58664W        W26882  25.288  29.226   3.154
58665W        W26883   3.932  13.099   3.308
58666W        W26884  10.400   8.347  11.225
58667W        W26885  21.596  43.687  14.333
58668W        W26886   3.277  15.556   1.820
58669W        W26887  25.378  16.269   4.120
58670W        W26888  21.739   4.986   0.776
58671W        W26889  22.249  15.606  12.058
58672W        W26890  24.538  42.384  10.893
58673W        W26891  28.058  25.266   4.169
58674W        W26892  43.723  37.048  10.781
58675W        W26893  33.866  17.251   4.593
58676W        W26894  12.444  21.997  12.262
58677W        W26895  21.202  21.514   3.358
58678W        W26896  40.063  24.929   1.839
58679W        W26897  20.494  44.470  12.367
58680W        W26898   8.847   9.187   3.261
58681W        W26899   9.566   5.933   2.315
58682W        W26900   4.356  35.136   0.024
58683W        W26901   8.889  31.240  10.766
58684W        W26902   9.350  14.624   3.227
58685W        W26903  11.665  37.495   2.272
58686W        W26904  17.256  17.559  10.499
58687W        W26905  38.521  36.843  12.743
58688W        W26906  26.009  20.966   3.077
58689W        W26907  37.335  33.370   1.662
58690W        W26908  43.235   9.880   2.675
58691W        W26909   9.610  38.166  11.768
58692W        W26910  36.706   3.020   1.950
58693W        W26911  34.072  28.173  13.500
58694W        W26912  23.188  32.763  11.097
58695W        W26913  17.342  28.041   3.262
58696W        W26914  24.789  33.021  13.907
58697W        W26915  37.022  23.105   3.145
58698W        W26916  23.586  43.386  10.485
58699W        W26917  32.154  18.349  14.768
58700W        W26918  36.853  24.630  10.706
58701W        W26919  26.354   5.847  11.663
58702W        W26920  33.384  16.240   3.179
58703W        W26921  38.298  10.841  12.112
58704W        W26922  29.439  13.184  13.670
58705W        W26923   3.822  27.276  13.154
58706W        W26924   7.311  22.281  13.295
58707W        W26925  23.178  28.490  12.149
58708W        W26926  36.479   7.825  10.709
58709W        W26927   2.244   0.936   4.225
58710W        W26928  33.656  38.044  12.794
58711W        W26929  29.589  32.621  10.739
58712W        W26930  33.156  42.366  11.288
58713W        W26931  14.239  42.312  13.702
58714W        W26932  26.712  22.999   3.279
58715W        W26933   9.759  23.929   3.293
58716W        W26934  19.249  39.491   4.850
58717W        W26935   7.725  23.177  14.706
58718W        W26936  22.875  13.810  10.675
58719W        W26937  22.669   2.958  13.674
58720W        W26938   8.114  23.344   1.346
58721W        W26939  26.582  14.638  12.938
58722W        W26940   7.591  19.111  12.993
58723W        W26941  38.954  18.601  12.125
58724W        W26942  24.735  23.337  14.522
58725W        W26943  38.437  20.549   3.851
58726W        W26944  21.269  25.354   4.467
58727W        W26945  43.473  20.741   2.236
58728W        W26946   3.727   6.961   1.415
58729W        W26947  44.367  12.690   0.689
58730W        W26948  14.073  34.116   1.414
58731W        W26949   2.888   9.154   3.627
58732W        W26950  26.890   3.428   5.164
58733W        W26951  42.705  18.086   1.367
58734W        W26952  41.986   4.728   1.954
58735W        W26953   6.188  23.501   5.069
58736W        W26954  25.956  42.848  11.162
58737W        W26955  37.971  30.893  12.104
58738W        W26956  27.783  42.281  11.078
58739W        W26957  11.338   9.574  13.773
58740W        W26958  32.450  37.288   3.865
58741W        W26959  23.966  36.632   2.809
58742W        W26960  17.720  22.342   0.158
58743W        W26961  19.119   5.329  11.680
58744W        W26962  34.496  26.014   3.659
58745W        W26963  22.184  43.958  11.125
58746W        W26964   3.320  11.277   4.030
58747W        W26965   9.636  11.656  12.639
58748W        W26966  12.154  10.311   1.744
58749W        W26967  28.155  41.363  14.362
58750W        W26968  27.328  20.248  14.593
58751W        W26969   2.864   5.342   1.207
58752W        W26970   2.797  13.345  12.995
58753W        W26971   2.872   6.984   4.532
58754W        W26972  17.388  44.517  12.374
58755W        W26973  23.439  37.231   1.389
58756W        W26974  43.956  44.537   3.546
58757W        W26975  37.103  33.680  14.792
58758W        W26976  26.427  41.271   0.350
58759W        W26977   3.244  39.085  14.864
58760W        W26978  13.758  36.018  12.962
58761W        W26979  36.141  43.065  14.735
58762W        W26980  19.718  31.462  10.752
58763W        W26981   7.634   9.066  13.813
58764W        W26982   1.707  29.827  12.056
58765W        W26983  25.235   4.910   2.913
58766W        W26984  20.338  26.397  11.647
58767W        W26985   7.832   6.511   2.371
58768W        W26986  20.861   6.321   3.606
58769W        W26987  44.025  15.145  14.938
58770W        W26988  41.458  12.158  12.739
58771W        W26989  23.648   1.775  10.618
58772W        W26990  36.874  31.758   1.347
58773W        W26991   3.097  18.842  13.255
58774W        W26992  22.963   2.275   2.832
58775W        W26993  39.955   9.946  12.090
58776W        W26994  10.496  38.771   5.381
58777W        W26995  37.395   5.232   0.006
58778W        W26996  39.306   2.685  12.605
58779W        W26997  14.526  22.463   0.843
58780W        W26998   1.029   0.913  12.862
58781W        W26999  27.922  34.044   0.455
58782W        W27000  11.057  38.106   4.177
58783W        W27001   5.218  36.693  11.731
58784W        W27002  36.955   5.985  14.794
58785W        W27003  14.397  18.543  13.012
58786W        W27004  16.256  43.867   5.064
58787W        W27005  29.049  42.539  12.554
58788W        W27006  33.619  24.812  13.417
58789W        W27007  37.899  36.788  12.496
58790W        W27008  40.591  16.667  13.957
58791W        W27009   3.003   4.349   3.155
58792W        W27010   3.455  33.626   2.237
58793W        W27011  11.811  31.443  13.022
58794W        W27012  17.581  42.072  11.057
58795W        W27013  26.215  35.532   4.726
58796W        W27014   9.052  26.515  14.499
58797W        W27015   1.792  20.633  14.252
58798W        W27016  36.842  27.056  11.452
58799W        W27017  43.022  44.814  14.454
58800W        W27018  19.137  30.400   0.984
58801W        W27019  34.067  39.275   2.799
58802W        W27020  29.295  30.663   2.629
58803W        W27021  18.973  33.016   4.482
58804W        W27022   9.287   1.646   2.688
58805W        W27023  12.196  37.616  10.152
58806W        W27024   9.698  12.713  13.967
58807W        W27025  19.698  31.596   2.742
58808W        W27026  19.724  13.050   3.839
58809W        W27027  27.890   7.329  12.989
58810W        W27028  40.113   2.753   4.250
58811W        W27029  39.309  26.584  10.728
58812W        W27030   6.262  27.055  10.583
58813W        W27031  14.810  16.700   0.430
58814W        W27032  24.458   0.832  11.009
58815W        W27033  33.387  24.008  14.855
58816W        W27034  42.032  34.045   2.404
58817W        W27035  24.675  14.102  13.024
58818W        W27036  38.928   3.745  13.591
58819W        W27037   4.482   2.185   4.899
58820W        W27038  14.835  29.980  13.900
58821W        W27039  34.025  11.810   2.753
58822W        W27040  21.989  43.219  13.437
58823W        W27041  35.527  15.843   0.874
58824W        W27042  20.572   1.664  11.632
58825W        W27043  26.280  12.261  14.052
58826W        W27044  35.456  32.224   3.256
58827W        W27045   9.470  28.539   0.780
58828W        W27046  40.478  32.229  14.543
58829W        W27047  13.840  41.369   0.902
58830W        W27048  12.389  39.359  13.888
58831W        W27049  19.675  41.779  11.115
58832W        W27050  18.760   7.499   2.690
58833W        W27051  37.849  40.838   3.306
58834W        W27052  22.124  38.507   2.460
58835W        W27053  13.579  10.643  14.678
58836W        W27054  29.995  18.247  11.391
58837W        W27055  29.534  35.073  13.246
58838W        W27056   7.786   5.180  10.669
58839W        W27057  30.036  23.103   0.316
58840W        W27058   0.961  24.546  10.553
58841W        W27059   3.717  11.747   0.757
58842W        W27060   3.393  32.858   1.762
58843W        W27061  14.646  14.796   2.741
58844W        W27062  30.399   8.873  13.102
58845W        W27063  12.413  41.415   0.372
58846W        W27064  36.141   2.474  13.601
58847W        W27065  25.949  14.384  11.907
58848W        W27066  14.634  42.989   2.660
58849W        W27067  29.002  15.296  14.439
58850W        W27068  26.222   5.452   3.132
58851W        W27069  18.875  43.335  13.576
58852W        W27070   8.383  44.289   1.204
58853W        W27071   7.596   6.351   3.201
58854W        W27072  36.040  29.932  12.901
58855W        W27073  44.414  19.736  10.782
58856W        W27074  41.388  12.237   4.072
58857W        W27075  38.110  36.048  11.285
58858W        W27076  22.273  24.405  12.394
58859W        W27077  36.604  43.724   4.547
58860W        W27078  28.082  36.658   4.925
58861W        W27079  16.552  16.586  14.385
58862W        W27080   0.213  20.320  11.153
58863W        W27081   3.423  22.794   4.076
58864W        W27082   5.183  29.171   4.705
58865W        W27083  30.435   8.852  13.657
58866W        W27084  14.567   3.836  14.687
58867W        W27085  33.683  30.612  13.876
58868W        W27086  39.090  17.574  10.924
58869W        W27087  15.837  34.589   0.014
58870W        W27088  43.523  24.875  12.981
58871W        W27089  19.732  31.935  11.038
58872W        W27090  38.892  30.674   1.632
58873W        W27091  12.692  26.542   2.331
58874W        W27092  40.362  10.804   0.924
58875W        W27093   6.830  18.433  13.626
58876W        W27094  10.826  18.529  12.389
58877W        W27095  27.559   4.653  12.355
58878W        W27096  33.106  29.979   4.120
58879W        W27097  28.457  32.422   3.877
58880W        W27098   2.305  35.567   1.755
58881W        W27099  13.174  34.868  11.665
58882W        W27100  22.554  44.793  13.572
58883W        W27101  43.429   0.678   4.518
58884W        W27102  10.114  17.304  13.828
58885W        W27103  31.527  42.455   4.133
58886W        W27104   7.152   0.315  10.807
58887W        W27105   9.929  24.383  13.724
58888W        W27106  42.070   1.583   2.330
58889W        W27107  35.934  21.181   3.320
58890W        W27108   9.071   8.723  12.608
58891W        W27109  26.955  42.490   1.309
58892W        W27110  24.020  39.746   1.886
58893W        W27111  39.367  39.830  11.898
58894W        W27112  14.142  36.627   3.092
58895W        W27113  25.943  31.190   4.282
58896W        W27114  44.403  42.958   0.487
58897W        W27115   6.901  42.789   1.866
58898W        W27116   5.682  34.123   1.742
58899W        W27117  27.292  13.663   2.899
58900W        W27118  34.581  16.069   1.862
58901W        W27119  38.452  44.469  12.096
58902W        W27120  17.346  12.615  13.954
58903W        W27121  13.788  15.539   3.180
58904W        W27122  33.859  18.618  10.692
58905W        W27123   8.785  22.733  14.532
58906W        W27124  16.344  27.928  12.632
58907W        W27125  10.683  12.136  13.425
58908W        W27126  25.557  16.071   2.125
58909W        W27127  33.649  34.469  12.100
58910W        W27128   4.069  12.789  11.222
58911W        W27129   8.289  42.397   1.817
58912W        W27130  16.881  41.514   0.919
58913W        W27131  15.483  12.064  12.939
58914W        W27132  42.997  34.405  11.107
58915W        W27133  41.839  15.794  14.424
58916W        W27134  12.008  30.176  14.364
58917W        W27135  43.346   5.100  13.580
58918W        W27136  33.157   6.963  12.889
58919W        W27137  44.643  25.221   2.278
58920W        W27138  22.798   1.496   3.206
58921W        W27139   7.556  35.914   5.303
58922W        W27140   2.928   6.143  14.362
58923W        W27141   9.610  32.396  13.278
58924W        W27142   3.267  22.031  11.259
58925W        W27143  10.370  44.546   4.509
58926W        W27144  26.528  21.652  10.032
58927W        W27145  44.752  19.829   4.058
58928W        W27146   4.997   6.344   1.717
58929W        W27147  10.099  32.538   4.037
58930W        W27148  37.399  10.065   0.573
58931W        W27149   1.356  19.826  12.976
58932W        W27150  43.889  27.370  10.561
58933W        W27151   3.281  23.892  11.470
58934W        W27152  15.281  38.338  12.870
58935W        W27153  18.618  12.314   1.867
58936W        W27154  21.819  16.818  14.771
58937W        W27155  13.120  14.196  12.921
58938W        W27156   2.476  36.947   1.196
58939W        W27157   9.215  42.899   2.310
58940W        W27158  15.669  33.373   3.010
58941W        W27159  32.840   5.283   1.295
58942W        W27160  26.098  21.648   2.137
58943W        W27161  18.121  41.118   0.909
58944W        W27162  33.897  26.082  14.243
58945W        W27163  34.631  10.296  14.515
58946W        W27164  37.349   5.066   2.681
58947W        W27165   8.199  39.557  14.111
58948W        W27166  36.857  15.887  13.735
58949W        W27167  22.050   5.306  11.542
58950W        W27168  40.717   4.734   4.243
58951W        W27169  16.866  43.934  11.073
58952W        W27170  43.768  14.530   1.353
58953W        W27171  10.173  33.463   2.403
58954W        W27172  18.094  43.359  11.426
58955W        W27173  30.856  12.338  11.699
58956W        W27174  13.306  33.992   2.824
58957W        W27175  38.963   1.737   0.324
58958W        W27176  11.757  12.171  10.644
58959W        W27177  18.726  28.122  13.450
58960W        W27178  44.909  15.260   4.630
58961W        W27179  35.750   4.832   2.858
58962W        W27180  18.257  37.126  12.910
58963W        W27181  27.988  16.375   1.254
58964W        W27182  23.720  23.551   4.669
58965W        W27183  15.703  19.952   0.421
58966W        W27184   2.943  33.495  13.487
58967W        W27185  31.910  21.308   2.639
58968W        W27186  18.558  37.811   0.333
58969W        W27187  42.475   6.736   0.033
58970W        W27188  32.695  35.664   4.111
58971W        W27189  26.684  12.318  14.422
58972W        W27190  44.748   3.627   0.753
58973W        W27191  44.489   1.247   0.952
58974W        W27192  11.443  30.661   2.157
58975W        W27193  11.812  24.513   3.234
58976W        W27194  35.165  25.745   0.465
58977W        W27195  24.739  32.576  14.782
58978W        W27196  17.287  35.074  13.875
58979W        W27197  31.437  26.826  14.960
58980W        W27198  38.807  25.418  12.412
58981W        W27199  23.971   1.982   1.820
58982W        W27200  13.752  38.433  12.548
58983W        W27201  23.194   9.191  10.750
58984W        W27202   8.687  12.830  13.754
58985W        W27203  31.712   6.404  12.282
58986W        W27204  29.962  10.546   4.508
58987W        W27205  25.504  29.997   1.124
58988W        W27206   5.753  19.393  12.883
58989W        W27207  26.116  20.367   5.016
58990W        W27208  17.085  23.901   0.880
58991W        W27209  44.147  31.936  14.976
58992W        W27210  30.887  33.438  12.594
58993W        W27211  43.340  33.286  10.410
58994W        W27212   5.642  34.105  11.475
58995W        W27213  29.128  41.571  13.468
58996W        W27214  38.514   6.270   2.887
58997W        W27215  36.066  11.762  13.048
58998W        W27216  35.252   4.911   1.576
58999W        W27217  25.738  32.793   0.852
59000W        W27218  40.430   3.646  13.522
59001W        W27219  39.410  42.744   4.132
59002W        W27220  14.848  10.272   4.571
59003W        W27221  33.459  25.079   2.783
59004W        W27222  17.812   3.257   1.644
59005W        W27223   5.018  32.441  14.412
59006W        W27224  21.810  32.376   0.681
59007W        W27225  32.168  38.732   2.245
59008W        W27226  14.134  35.952   1.366
59009W        W27227  35.931  44.784   1.346
59010W        W27228  12.266  39.416   0.313
59011W        W27229  12.144  19.755  13.471
59012W        W27230  24.750   0.824  13.401
59013W        W27231  26.175  29.671   0.475
59014W        W27232  38.142   4.340   0.612
59015W        W27233  25.122  16.932   3.149
59016W        W27234   7.394  10.777  14.560
59017W        W27235  11.886  38.563  12.157
59018W        W27236   7.198  30.390   1.708
59019W        W27237  40.910  25.754   2.418
59020W        W27238  36.387  38.912   2.921
59021W        W27239  32.030  30.343   1.747
59022W        W27240  27.993   3.746  13.491
59023W        W27241  18.639  11.546   2.420
59024W        W27242  21.982  32.472  14.337
59025W        W27243  36.805   6.289  12.629
59026W        W27244  23.359  44.420   1.312
59027W        W27245  16.544  37.914   3.683
59028W        W27246  17.189  30.357   2.667
59029W        W27247  35.465  34.888  12.173
59030W        W27248  26.801   8.691  12.343
59031W        W27249   6.346  37.924  10.616
59032W        W27250  18.569  17.468  11.723
59033W        W27251  37.033  33.003   2.562
59034W        W27252  24.279   7.299  13.041
59035W        W27253  42.813  15.598   2.445
59036W        W27254   7.127  15.268  13.152
59037W        W27255  26.775  20.260  14.528
59038W        W27256   3.245  14.257   3.336
59039W        W27257   0.478  14.211  13.920
59040W        W27258  10.540  18.281   2.155
59041W        W27259   4.968  12.189  11.496
59042W        W27260  36.358  40.547   2.894
59043W        W27261  34.568  12.233  14.668
59044W        W27262   6.260  39.798   5.471
59045W        W27263  28.137  33.647  11.343
59046W        W27264  37.605  38.366  13.087
59047W        W27265  44.195  34.311  11.566
59048W        W27266  31.067  10.203   1.883
59049W        W27267  33.637  35.776   0.741
59050W        W27268  33.971  19.813  14.016
59051W        W27269  36.762  32.726  14.850
59052W        W27270  38.835  26.259   1.088
59053W        W27271  41.398  29.449  11.576
59054W        W27272   3.776  12.684  14.847
59055W        W27273  25.490  25.698  12.416
59056W        W27274  12.334  28.715   2.193
59057W        W27275  40.932   2.891   1.735
59058W        W27276  38.044  20.817  13.043
59059W        W27277  15.050  22.733  14.745
59060W        W27278  34.848   8.410  12.991
59061W        W27279  37.798  12.360   2.734
59062W        W27280  23.188   8.559   1.870
59063W        W27281   8.156  24.766  12.001
59064W        W27282  29.487  25.264   4.988
59065W        W27283   0.772  22.400  14.020
59066W        W27284   9.869  11.628  13.129
59067W        W27285   4.439  19.565   3.281
59068W        W27286  27.653   9.811  13.540
59069W        W27287  35.551  39.563  14.375
59070W        W27288  30.006  31.894  11.579
59071W        W27289  34.581  33.096   2.148
59072W        W27290  18.700  14.579   2.200
59073W        W27291  24.249  43.339   3.966
59074W        W27292  44.602  28.411   1.261
59075W        W27293  40.301  28.041  10.837
59076W        W27294  42.071  42.573  13.367
59077W        W27295  30.083  13.032  12.142
59078W        W27296   9.681   5.939  13.531
59079W        W27297  10.384  17.626  10.317
59080W        W27298  34.858   0.480  11.069
59081W        W27299  37.418  27.812   2.731
59082W        W27300  44.531  17.467   2.447
59083W        W27301  21.775  25.035   3.398
59084W        W27302  22.669  36.933   2.275
59085W        W27303  14.366  16.360  10.768
59086W        W27304  23.630  19.963   0.103
59087W        W27305  32.337  16.069   3.731
59088W        W27306  15.174  19.686  11.536
59089W        W27307  23.255  24.336  14.511
59090W        W27308  29.626  34.218   0.221
59091W        W27309   1.406  14.176  13.805
59092W        W27310   3.916  30.705   2.792
59093W        W27311   2.766  36.589  11.683
59094W        W27312   4.321  19.385  13.024
59095W        W27313  13.551   0.836  14.003
59096W        W27314  23.494   7.183  11.413
59097W        W27315   5.442  38.944  11.402
59098W        W27316  15.693  41.679  11.477
59099W        W27317  24.424  38.601  13.811
59100W        W27318  32.410  11.667  14.847
59101W        W27319  35.516   6.645  10.698
59102W        W27320   0.469  31.792   0.110
59103W        W27321  37.220   8.411   2.408
59104W        W27322  34.080  16.841  10.827
59105W        W27323  10.293   7.438   5.013
59106W        W27324  19.794  12.535   5.158
59107W        W27325  37.579  23.229   3.053
59108W        W27326  43.764  12.468  10.705
59109W        W27327  30.457  12.701  10.439
59110W        W27328  23.670   8.637   0.791
59111W        W27329  24.118  30.498   3.882
59112W        W27330  40.449  24.084   1.936
59113W        W27331   4.347   3.157   1.366
59114W        W27332   6.643  13.361   2.826
59115W        W27333   1.200  43.344   1.449
59116W        W27334   4.733  17.675  13.046
59117W        W27335  17.331   8.846   2.240
59118W        W27336  42.494  22.658   1.374
59119W        W27337  42.968   0.184   0.385
59120W        W27338  44.420  19.832   3.289
59121W        W27339  44.226  34.072   1.441
59122W        W27340   6.890  11.167   0.780
59123W        W27341  35.403   4.617  13.870
59124W        W27342   7.253   2.765  14.264
59125W        W27343  21.268  16.686  13.430
59126W        W27344  24.224  28.054   2.723
59127W        W27345   7.627   7.048   1.991
59128W        W27346   9.178  40.361  12.641
59129W        W27347   4.449  24.641  13.860
59130W        W27348  16.841  19.572  12.151
59131W        W27349  27.310  16.631  12.638
59132W        W27350  32.125  28.510   0.274
59133W        W27351  25.193  34.626  11.600
59134W        W27352   0.052   4.786   4.658
59135W        W27353   5.817  44.870  10.307
59136W        W27354   1.920  42.937  11.930
59137W        W27355  26.522  21.530  14.910
59138W        W27356  37.648  20.729   1.768
59139W        W27357  37.773  34.860   4.575
59140W        W27358   0.409  19.269  14.355
59141W        W27359  26.306  27.066  14.308
59142W        W27360  20.709  24.233   0.547
59143W        W27361  44.293  28.554   0.035
59144W        W27362  43.997   8.863  10.623
59145W        W27363  13.483   7.106  11.114
59146W        W27364  14.132  34.462   2.207
59147W        W27365  14.096  31.483  11.049
59148W        W27366  24.197   9.709   3.717
59149W        W27367  27.631  14.300   0.502
59150W        W27368   5.380  31.600   0.408
59151W        W27369   7.898   3.985  10.982
59152W        W27370  19.543   5.659   0.166
59153W        W27371  10.896  15.364   3.038
59154W        W27372  33.550  32.882  11.085
59155W        W27373  10.641  21.210   1.344
59156W        W27374   9.972  35.011  13.857
59157W        W27375  35.581  18.352  10.693
59158W        W27376  44.492  36.124  12.910
59159W        W27377  31.226   8.891  10.106
59160W        W27378   1.542  25.807  10.808
59161W        W27379  31.227   2.727   3.230
59162W        W27380  27.329  28.479   2.513
59163W        W27381   2.466  20.060  13.880
59164W        W27382  33.382  19.107  11.535
59165W        W27383  36.846  21.199   3.609
59166W        W27384   3.939  23.193  11.449
59167W        W27385   9.723  33.402   3.109
59168W        W27386   8.366  32.410   2.245
59169W        W27387   8.668  28.502   3.350
59170W        W27388  26.507   2.522   4.840
59171W        W27389  17.108  20.279   4.185
59172W        W27390  19.311  31.368   3.055
59173W        W27391  37.491  35.025   2.319
59174W        W27392  35.028  39.978  12.913
59175W        W27393   4.839  29.116   0.978
59176W        W27394  11.745  15.715   1.000
59177W        W27395  24.628  28.489   2.778
59178W        W27396  13.074  39.048  14.345
59179W        W27397   8.428   0.113  13.857
59180W        W27398   5.527   0.045   2.773
59181W        W27399   6.240  35.545  12.810
59182W        W27400  17.679   0.967   0.159
59183W        W27401  43.537   6.700   1.913
59184W        W27402   0.254  44.983  13.762
59185W        W27403   5.606  28.695   4.830
59186W        W27404  29.692   3.370   2.818
59187W        W27405  23.135  25.116   3.444
59188W        W27406   6.497   1.923   9.885
59189W        W27407  38.972  40.969   3.165
59190W        W27408   8.959   6.001  11.164
59191W        W27409  32.385  15.759   1.155
59192W        W27410  12.853   8.658   4.070
59193W        W27411  44.724  30.964  11.538
59194W        W27412  19.833  10.125   0.921
59195W        W27413   2.145  37.564   1.455
59196W        W27414   5.368  32.256  13.575
59197W        W27415  13.691  35.137  10.595
59198W        W27416   5.862  13.672   3.214
59199W        W27417  24.551  11.066  13.490
59200W        W27418  21.551  35.416  11.964
59201W        W27419   2.186  17.244  13.025
59202W        W27420  44.202  15.259  14.469
59203W        W27421  39.003  30.737  10.447
59204W        W27422  31.905  32.584  10.720
59205W        W27423  39.354  11.021  13.861
59206W        W27424  20.869  15.754  11.557
59207W        W27425  44.253  27.748   4.621
59208W        W27426  11.216  39.926   3.097
59209W        W27427   3.469  34.837  11.915
59210W        W27428  16.302  14.201   2.487
59211W        W27429   3.944  18.105   1.699
59212W        W27430  10.850  27.633   0.844
59213W        W27431  24.451  27.591  12.985
59214W        W27432  25.077  32.873  13.486
59215W        W27433   6.772   8.909  11.105
59216W        W27434  44.444  32.181  13.452
59217W        W27435  12.349  26.170  13.555
59218W        W27436  38.823  41.818   0.775
59219W        W27437  34.198   5.951   0.424
59220W        W27438  39.226  43.992  12.646
59221W        W27439  18.603   9.373   2.424
59222W        W27440   1.736  21.036   3.247
59223W        W27441  37.676  23.640  11.421
59224W        W27442  31.864   1.076   1.180
59225W        W27443   8.252  36.827   2.251
59226W        W27444  10.788  34.528   3.676
59227W        W27445  10.819  42.819   2.330
59228W        W27446   4.773   1.267   3.977
59229W        W27447  42.792  43.997  14.809
59230W        W27448  21.856  44.033  12.149
59231W        W27449  15.257   5.387   1.873
59232W        W27450   8.280   6.196   1.449
59233W        W27451   7.784  21.777  11.076
59234W        W27452  15.414   3.913   0.417
59235W        W27453  40.117  41.019  13.413
59236W        W27454   9.826  21.256  13.495
59237W        W27455  30.594  19.730  14.782
59238W        W27456  30.579  26.255   4.224
59239W        W27457  30.527  19.016   1.440
59240W        W27458   7.721   0.420  12.113
59241W        W27459   2.906  43.125   3.738
59242W        W27460  21.315   2.319   3.590
59243W        W27461   5.569  22.275   4.674
59244W        W27462  31.394   4.299   2.209
59245W        W27463   4.170  33.386   4.108
59246W        W27464  23.167  28.219  13.501
59247W        W27465  11.075   0.647  11.018
59248W        W27466  25.082  40.448   0.180
59249W        W27467   0.753  33.503   3.988
59250W        W27468  35.201  12.605  10.820
59251W        W27469  14.239  13.073   4.673
59252W        W27470  25.711  44.904  13.882
59253W        W27471  28.960  10.856   4.619
59254W        W27472   4.970  25.042   2.706
59255W        W27473  43.319  29.871  11.086
59256W        W27474   3.810  13.076  10.462
59257W        W27475  41.760  38.017   4.980
59258W        W27476  41.005  26.655   4.725
59259W        W27477   8.264  20.936   1.797
59260W        W27478  39.529  37.513   2.570
59261W        W27479  37.399  14.367  13.684
59262W        W27480  22.749  15.092  12.547
59263W        W27481  43.707  30.487  13.809
59264W        W27482  41.467  27.528  13.465
59265W        W27483  21.623  10.544  13.946
59266W        W27484  31.572  24.795  12.427
59267W        W27485  11.243   8.354   0.343
59268W        W27486  24.548  27.085   3.379
59269W        W27487  29.904  27.239  12.040
59270W        W27488  31.113  14.612   3.298
59271W        W27489   8.804  34.799   3.717
59272W        W27490  31.835  41.819  11.129
59273W        W27491  30.611   6.790  11.999
59274W        W27492  19.819  36.471   1.660
59275W        W27493  34.992  25.970   0.891
59276W        W27494   6.674  34.360   4.029
59277W        W27495  35.191  24.605   3.298
59278W        W27496  33.605  40.119   3.191
59279W        W27497  21.453  38.940  12.409
59280W        W27498  31.802  11.724  14.268
59281W        W27499  12.143   1.222   3.320
59282W        W27500  23.794  29.897  13.602
59283W        W27501  39.961  29.851  10.636
59284W        W27502  40.583  37.354   3.820
59285W        W27503  31.399  42.402   1.049
59286W        W27504  42.498   6.107  11.562
59287W        W27505  21.222   1.199   2.505
59288W        W27506  38.892  41.418  13.871
59289W        W27507  25.178  15.232  12.859
59290W        W27508   9.632  28.932   2.782
59291W        W27509  11.209  10.196   0.190
59292W        W27510  16.142  28.255  13.046
59293W        W27511  20.625   0.077   4.708
59294W        W27512  39.595  35.426   1.288
59295W        W27513   3.384  17.701  12.070
59296W        W27514  14.227  12.661  14.270
59297W        W27515  43.694  14.042   4.561
59298W        W27516  41.099  38.363  12.958
59299W        W27517   6.338  28.197   5.000
59300W        W27518  18.719   5.509  13.754
59301W        W27519  27.427  10.937   2.905
59302W        W27520  20.796  15.816   5.072
59303W        W27521  43.196   8.671  14.967
59304W        W27522  18.534  30.666  12.135
59305W        W27523  11.141  17.778   0.785
59306W        W27524   3.373  14.181   4.361
59307W        W27525  12.067  27.645   3.715
59308W        W27526  12.806  27.415  14.337
59309W        W27527  18.809  39.348  11.354
59310W        W27528  11.887  30.354  12.665
59311W        W27529  22.092  20.007   4.696
59312W        W27530  19.082  12.175  14.547
59313W        W27531  32.109  17.693   1.877
59314W        W27532  17.277  41.344  13.828
59315W        W27533  37.902  14.078  14.463
59316W        W27534  20.494  42.581   0.822
59317W        W27535  20.281   1.712  12.607
59318W        W27536  44.828  41.358  12.450
59319W        W27537  29.996  38.620   1.499
59320W        W27538   8.946  33.275  13.620
59321W        W27539   7.646  35.416  11.968
59322W        W27540   1.226  30.527  10.551
59323W        W27541  32.390  44.414   1.670
59324W        W27542  32.468  24.064   4.530
59325W        W27543  23.410  27.619   0.251
59326W        W27544  13.280   6.142  11.874
59327W        W27545  24.718   8.378   0.352
59328W        W27546  33.127  34.487   2.688
59329W        W27547   2.405   3.170   3.198
59330W        W27548  28.746  25.750   4.571
59331W        W27549  35.226  26.474  13.228
59332W        W27550   9.886  23.020  12.337
59333W        W27551   9.630  18.658   0.732
59334W        W27552  21.153  40.460   4.056
59335W        W27553  16.023  10.768  12.385
59336W        W27554  34.453   0.129  14.511
59337W        W27555  22.618   0.278  12.627
59338W        W27556  27.448  36.372   3.298
59339W        W27557  15.691  37.432  12.020
59340W        W27558  23.645  22.626   9.805
59341W        W27559   4.395  39.813   5.611
59342W        W27560  31.512   5.322  11.067
59343W        W27561  10.888  32.994  11.971
59344W        W27562  28.288  37.184   4.031
59345W        W27563   5.668  21.551   0.265
59346W        W27564  17.190  10.838  12.996
59347W        W27565  14.220  43.964  12.422
59348W        W27566  36.968   4.967   4.596
59349W        W27567   6.082  26.751   2.154
59350W        W27568   6.970  39.541  11.633
59351W        W27569  10.754  15.052   4.996
59352W        W27570  37.300  36.048  10.330
59353W        W27571  19.153  24.560   2.310
59354W        W27572   9.418  41.924  11.897
59355W        W27573   2.044  38.591  12.038
59356W        W27574  21.643  32.256  10.687
59357W        W27575  10.954  30.636   1.947
59358W        W27576  12.426   7.231   2.436
59359W        W27577  12.728  16.181   4.060
59360W        W27578  26.701   2.862   4.494
59361W        W27579  17.041  37.928   2.522
59362W        W27580  28.646  23.043  14.544
59363W        W27581  42.776  14.718   0.516
59364W        W27582  16.356   8.207   4.372
59365W        W27583   5.951  12.703   0.266
59366W        W27584  29.105  13.286  10.113
59367W        W27585  26.548  24.491   0.974
59368W        W27586  30.972  26.226  10.788
59369W        W27587   1.253  32.484  12.526
59370W        W27588  40.790  38.795  11.667
59371W        W27589  19.145   0.880   4.197
59372W        W27590   1.780  16.677   2.763
59373W        W27591  14.775   9.308  14.509
59374W        W27592  26.372  41.744   2.220
59375W        W27593  29.245   6.103  12.446
59376W        W27594  20.172  44.224  13.352
59377W        W27595  25.752   7.324   2.781
59378W        W27596  35.776   1.727   0.570
59379W        W27597  32.578  43.217   2.740
59380W        W27598   0.424  17.189   2.948
59381W        W27599  23.013   4.905   4.500
59382W        W27600  26.021   8.091  11.376
59383W        W27601  44.532  22.384  11.144
59384W        W27602  25.000  42.606  11.039
59385W        W27603  29.924  17.044   0.874
59386W        W27604  22.468  11.190   1.978
59387W        W27605  28.037  14.897  12.361
59388W        W27606  26.662  25.150   0.167
59389W        W27607  27.879   7.428   1.728
59390W        W27608  19.457  22.176   0.101
59391W        W27609  28.588  28.930   3.830
59392W        W27610  44.397  40.764  14.343
59393W        W27611   4.921  11.534   2.806
59394W        W27612  42.909  32.288   3.302
59395W        W27613   5.510  32.666   2.340
59396W        W27614   7.135   6.892  13.377
59397W        W27615  24.616  41.307   1.103
59398W        W27616  41.107  31.781  12.856
59399W        W27617  42.358  36.569   1.888
59400W        W27618  36.681   1.396   3.824
59401W        W27619  16.223  31.022  13.735
59402W        W27620  20.343   3.293   0.791
59403W        W27621  35.420   5.210   4.757
59404W        W27622  15.425  12.783  11.600
59405W        W27623  10.570  29.774   3.424
59406W        W27624  25.014   4.494  11.047
59407W        W27625  29.452  32.563   4.142
59408W        W27626  33.172   2.851  12.877
59409W        W27627  14.709  30.453   0.255
59410W        W27628  39.045  38.995  12.448
59411W        W27629   1.650  29.650  10.820
59412W        W27630  32.815  21.487   1.421
59413W        W27631  13.660  36.467   3.268
59414W        W27632  15.793  38.038  13.490
59415W        W27633  14.093   6.296   0.484
59416W        W27634  42.993  24.621  13.756
59417W        W27635  23.285  17.694  11.895
59418W        W27636  28.135  43.529   3.260
59419W        W27637  26.192  29.456  14.590
59420W        W27638  26.404  28.001  14.027
59421W        W27639  32.947  17.127  14.878
59422W        W27640   3.885  10.055   4.995
59423W        W27641  27.559  15.364   0.745
59424W        W27642   1.989  43.845  13.469
59425W        W27643   1.269  36.337   0.457
59426W        W27644  22.764  12.275  12.016
59427W        W27645  35.085  12.316   1.357
59428W        W27646  29.646  24.214  14.572
59429W        W27647   3.199   1.670   1.801
59430W        W27648  17.708   1.574  13.350
59431W        W27649  38.528  16.174   2.362
59432W        W27650   2.451  40.821  11.150
59433W        W27651  38.529  19.189  13.003
59434W        W27652   2.795  22.201   1.635
59435W        W27653  34.539  11.807  14.376
59436W        W27654  10.203  44.996  11.937
59437W        W27655  36.655  17.132   2.841
59438W        W27656  37.065   9.595   2.799
59439W        W27657   1.124  14.067  12.031
59440W        W27658  22.178  17.368   3.172
59441W        W27659   2.735  43.824   0.849
59442W        W27660  27.184   5.872  13.596
59443W        W27661  27.478   2.809   0.043
59444W        W27662  42.539  19.687  11.101
59445W        W27663  11.344  34.088  14.782
59446W        W27664   9.176  11.436   2.258
59447W        W27665  20.315  36.635   4.230
59448W        W27666  35.957  36.726  12.567
59449W        W27667   5.375   0.383  12.816
59450W        W27668  41.060  21.253   4.194
59451W        W27669  35.764  26.697  11.779
59452W        W27670  34.497   5.901   4.012
59453W        W27671  41.329   4.168  13.511
59454W        W27672   1.261  25.584  11.161
59455W        W27673   5.982  13.867  12.349
59456W        W27674   8.968  39.911   2.263
59457W        W27675   6.297  19.849  11.165
59458W        W27676   1.705   0.049  12.078
59459W        W27677  15.807   9.320  13.834
59460W        W27678  24.149   0.804   4.524
59461W        W27679  14.621  38.976   2.553
59462W        W27680  11.353  14.083  13.305
59463W        W27681   2.949   3.190  13.999
59464W        W27682  33.095   3.895  12.149
59465W        W27683  16.284   8.069  14.742
59466W        W27684  43.424   7.848   0.440
59467W        W27685  17.929   9.515  14.970
59468W        W27686  42.438  26.706  14.846
59469W        W27687  14.176  22.186  10.433
59470W        W27688  17.050   6.197  11.581
59471W        W27689  23.224  25.614  13.300
59472W        W27690  19.236  40.890   2.326
59473W        W27691  20.144  43.526   3.735
59474W        W27692  39.345  43.588   2.446
59475W        W27693  10.350   2.619  14.309
59476W        W27694  39.639  20.818   4.297
59477W        W27695   0.418  20.163  10.703
59478W        W27696  40.979   8.677  13.036
59479W        W27697  22.623  18.803   2.327
59480W        W27698  21.745  13.272   4.648
59481W        W27699  26.567   1.066  12.546
59482W        W27700  27.988  10.720   4.847
59483W        W27701   0.127  37.580  12.071
59484W        W27702  12.627   2.616  14.148
59485W        W27703   5.677   1.853   1.363
59486W        W27704  13.334  43.228   3.303
59487W        W27705   4.905  44.511  11.565
59488W        W27706  29.513  18.635   2.281
59489W        W27707  42.004  26.426  14.699
59490W        W27708  20.275  40.457  14.067
59491W        W27709  28.933  12.115   4.090
59492W        W27710  27.205  42.413  13.880
59493W        W27711  18.229   8.403   2.294
59494W        W27712  15.713  36.813   0.670
59495W        W27713   3.658  37.786   3.765
59496W        W27714   3.726  18.851   3.207
59497W        W27715   2.326  40.025  10.721
59498W        W27716  28.430  24.075   2.738
59499W        W27717  27.490  36.866   3.079
59500W        W27718  32.360  13.773  14.042
59501W        W27719  28.437  32.914  10.668
59502W        W27720  11.779   4.580   0.801
59503W        W27721   8.440   6.656   3.651
59504W        W27722  20.183  38.749  13.841
59505W        W27723  17.044  43.685  10.642
59506W        W27724  14.059  35.926   1.872
59507W        W27725  42.372  39.116   2.744
59508W        W27726   3.733  10.115  10.138
59509W        W27727   3.795  31.392   1.839
59510W        W27728  22.182   4.669   3.550
59511W        W27729  18.138  27.032   2.813
59512W        W27730  32.488  31.342   2.371
59513W        W27731  36.537   6.055  14.419
59514W        W27732  43.527  28.031   1.939
59515W        W27733  27.248  15.397  13.741
59516W        W27734  11.303  33.610   3.048
59517W        W27735  16.243  43.250   2.192
59518W        W27736   9.867   0.030   3.335
59519W        W27737  40.430   3.648  12.581
59520W        W27738  28.929  27.647   0.899
59521W        W27739  35.445  23.807   2.815
59522W        W27740  14.038  42.814   0.831
59523W        W27741   3.458   0.292   2.720
59524W        W27742  20.179  41.774   3.201
59525W        W27743  20.774  31.952   3.726
59526W        W27744   3.356  23.525   4.325
59527W        W27745   8.660  14.850   2.765
59528W        W27746  23.133  28.561  11.113
59529W        W27747  34.337  39.042  12.227
59530W        W27748  20.927   3.152  12.753
59531W        W27749  40.270  35.056   0.904
59532W        W27750  12.312  25.628   1.808
59533W        W27751   5.331  10.155  13.402
59534W        W27752   8.272  32.586  14.432
59535W        W27753  19.173   9.961   2.890
59536W        W27754  19.480  16.535   0.135
59537W        W27755  18.546  16.207   4.623
59538W        W27756  42.881  32.141  14.862
59539W        W27757  22.829  41.945   3.428
59540W        W27758  12.191  33.454  13.953
59541W        W27759  38.962  27.930  11.162
59542W        W27760  38.324  28.066   2.176
59543W        W27761  10.867  11.970  14.470
59544W        W27762  18.035  21.047  13.419
59545W        W27763   6.660   6.330   5.126
59546W        W27764   6.054   1.598  11.588
59547W        W27765  14.357  41.398   4.000
59548W        W27766  20.481  33.932  11.880
59549W        W27767   1.811  42.339   0.824
59550W        W27768   1.217  35.334  11.139
59551W        W27769  32.327  39.474   4.600
59552W        W27770  35.271  10.056  11.643
59553W        W27771  32.701  16.422   3.804
59554W        W27772  25.990   4.676  14.750
59555W        W27773  17.753  34.043  14.208
59556W        W27774  37.218   1.838  12.671
59557W        W27775  17.201   1.554  13.990
59558W        W27776  43.509  26.661   4.139
59559W        W27777   0.190  25.357   1.814
59560W        W27778  30.184  11.260  12.946
59561W        W27779  30.255  24.682   0.870
59562W        W27780  32.147   5.293   0.322
59563W        W27781  12.147  29.482  13.944
59564W        W27782  20.489  22.090   4.077
59565W        W27783  31.052  22.468  11.611
59566W        W27784  41.324   7.248  11.703
59567W        W27785  36.680  37.592  14.828
59568W        W27786  36.286  29.375   4.196
59569W        W27787  33.674  32.951   3.906
59570W        W27788  20.893  18.474  11.585
59571W        W27789   0.300  11.179   1.892
59572W        W27790  22.221  31.658  11.088
59573W        W27791  22.781  44.034  13.918
59574W        W27792  41.719  16.307   0.422
59575W        W27793   8.147  41.973   4.202
59576W        W27794  30.146  26.104  13.418
59577W        W27795  11.859  38.960  13.873
59578W        W27796  40.602   7.424   1.460
59579W        W27797   2.991  25.236   0.714
59580W        W27798  14.602  33.875  12.525
59581W        W27799  24.117  38.051   5.028
59582W        W27800  43.851  39.176  13.038
59583W        W27801  42.395  44.516   1.052
59584W        W27802  20.671   7.859  12.290
59585W        W27803  19.075  32.902  12.980
59586W        W27804  40.893  17.936   4.733
59587W        W27805   6.601  37.955  11.059
59588W        W27806   5.125  34.126  11.432
59589W        W27807  37.560  27.163  11.878
59590W        W27808  22.609  35.628  13.576
59591W        W27809  36.105  15.699  12.060
59592W        W27810   6.838  27.605   0.615
59593W        W27811  29.967  14.083  13.610
59594W        W27812  22.786  21.984  10.710
59595W        W27813  38.234  40.842  12.858
59596W        W27814   1.933  36.141   2.300
59597W        W27815  34.431  13.879   0.915
59598W        W27816  17.688  33.892  11.654
59599W        W27817  17.517  21.717   2.717
59600W        W27818  24.752  19.564   2.427
59601W        W27819  31.503  33.506  13.694
59602W        W27820  42.965  37.295  13.190
59603W        W27821  32.856  44.387   3.134
59604W        W27822  28.223  42.013  11.570
59605W        W27823  25.499   9.659   4.124
59606W        W27824  27.998  12.874  12.841
59607W        W27825   7.405  11.244   2.846
59608W        W27826  35.705  34.082   1.470
59609W        W27827  40.996  41.494  14.807
59610W        W27828   2.783  31.838   1.187
59611W        W27829   5.241  26.075   0.673
59612W        W27830  13.654  28.907  14.833
59613W        W27831   4.254  19.568  14.330
59614W        W27832   2.471  22.625   0.252
59615W        W27833  25.950  32.203  13.993
59616W        W27834  43.846  37.572  14.937
59617W        W27835   6.948  23.764   0.856
59618W        W27836  36.549  30.039   1.012
59619W        W27837  26.686  34.828  13.014
59620W        W27838   0.240  39.821  11.569
59621W        W27839  35.437  33.682   3.350
59622W        W27840  19.109  43.587   1.674
59623W        W27841  34.205  28.982  13.568
59624W        W27842  35.873  14.593   1.832
59625W        W27843  38.018   9.283   2.974
59626W        W27844  31.096  11.752  13.592
59627W        W27845  35.696  17.072   2.373
59628W        W27846  41.374   4.701  11.205
59629W        W27847   4.773  38.207   2.351
59630W        W27848   3.304   8.252  13.046
59631W        W27849  13.030  43.149   4.069
59632W        W27850  14.723  36.283  12.450
59633W        W27851  33.611  11.403   2.712
59634W        W27852  40.850  19.071   0.011
59635W        W27853  34.812   3.265  11.528
59636W        W27854   9.589  42.592  14.764
59637W        W27855   3.752  13.363   3.798
59638W        W27856  26.431  28.603  12.434
59639W        W27857  33.430  41.781   0.382
59640W        W27858  22.910   5.736   2.807
59641W        W27859  17.141  38.658  14.954
59642W        W27860  39.128  22.046  11.566
59643W        W27861   6.453   3.404  14.390
59644W        W27862  19.096  15.289   0.446
59645W        W27863  43.878  26.166  13.862
59646W        W27864   5.957  22.081   0.986
59647W        W27865   4.363  39.098  12.979
59648W        W27866  31.343   7.019   3.376
59649W        W27867  17.991  29.181   2.317
59650W        W27868  18.339   1.405   1.695
59651W        W27869  39.459  18.592   1.258
59652W        W27870  38.396  27.647   3.372
59653W        W27871  18.185  32.845   4.123
59654W        W27872  16.624  33.519  10.808
59655W        W27873  37.042  18.159   4.844
59656W        W27874  33.957  16.290  12.430
59657W        W27875   6.181  44.712   5.497
59658W        W27876  14.341  36.954   4.214
59659W        W27877  15.542  14.909   1.728
59660W        W27878  30.698  43.827  14.252
59661W        W27879  33.021  25.003   4.653
59662W        W27880  34.967   4.440  14.215
59663W        W27881  42.315  39.436   2.237
59664W        W27882  12.264  43.335  14.263
59665W        W27883  40.943  27.708   3.843
59666W        W27884  18.563  39.049  10.537
59667W        W27885  18.476  21.121  10.317
59668W        W27886  38.922  13.933  11.929
59669W        W27887  42.962  26.951  10.641
59670W        W27888  16.773  12.709   3.160
59671W        W27889   5.424  29.512  10.648
59672W        W27890  42.894  38.488   0.806
59673W        W27891   6.765   4.953  10.662
59674W        W27892  38.267  33.566   1.829
59675W        W27893  12.660  41.879   2.173
59676W        W27894  30.127   0.708   3.504
59677W        W27895  44.884   1.984   1.449
59678W        W27896   6.873  38.028  10.564
59679W        W27897  17.574  16.345   2.290
59680W        W27898  29.344  14.290  11.147
59681W        W27899  37.764  20.240   3.777
59682W        W27900  32.944  42.364   3.647
59683W        W27901  18.623   6.533   0.320
59684W        W27902  34.929  11.868   1.770
59685W        W27903  33.142  37.323  14.984
59686W        W27904   8.787  23.198  10.936
59687W        W27905  12.721  35.132   0.833
59688W        W27906  38.219  13.243   2.464
59689W        W27907  21.445   5.373  12.961
59690W        W27908  33.617  36.477   2.590
59691W        W27909   8.830  12.127   0.470
59692W        W27910   4.665  34.429  13.988
59693W        W27911   5.744  31.504   1.257
59694W        W27912  43.250   0.601   0.354
59695W        W27913  33.922  25.178   4.881
59696W        W27914  28.860  16.844   2.262
59697W        W27915  42.820  44.499  13.512
59698W        W27916   9.627   7.074   0.821
59699W        W27917  21.829   2.077  14.333
59700W        W27918   8.994  25.463   3.124
59701W        W27919  15.803   1.703  14.370
59702W        W27920  42.336   4.451   1.177
59703W        W27921   5.214   3.436  13.498
59704W        W27922  35.401  33.252   3.707
59705W        W27923   7.194  17.269   0.434
59706W        W27924  43.994  26.680  12.982
59707W        W27925  22.168  21.690  14.534
59708W        W27926   7.575  40.816   4.201
59709W        W27927  21.068  17.235  10.620
59710W        W27928   3.075  13.001   5.205
59711W        W27929  18.268  22.393  14.387
59712W        W27930  31.073   0.969  14.778
59713W        W27931   2.357  20.610  11.664
59714W        W27932  22.258  16.359   0.915
59715W        W27933  33.658   3.013  11.442
59716W        W27934   8.181  25.532  12.948
59717W        W27935  41.457  16.297   1.801
59718W        W27936  32.428  28.714   1.648
59719W        W27937  30.795   5.659  11.704
59720W        W27938  36.030   5.446  10.541
59721W        W27939  41.102  15.831  13.356
59722W        W27940   0.431  25.478   1.348
59723W        W27941   2.198  26.730   1.808
59724W        W27942  27.463  31.967  11.381
59725W        W27943  16.273  18.997  10.577
59726W        W27944  27.913  30.987  12.330
59727W        W27945  14.647  41.802   3.218
59728W        W27946   8.715  32.828  12.393
59729W        W27947  37.839   7.662   2.724
59730W        W27948  11.135  35.779  13.945
59731W        W27949   9.800  13.883  10.566
59732W        W27950  28.421   2.219   3.415
59733W        W27951  30.208  15.703   4.126
59734W        W27952  10.463  32.910   1.271
59735W        W27953  41.379  14.237  12.078
59736W        W27954  41.677  36.510  14.942
59737W        W27955  33.805  16.512   3.289
59738W        W27956  19.299   5.662  12.433
59739W        W27957  34.422  30.089   4.352
59740W        W27958  33.565   0.701   4.892
59741W        W27959  17.397   8.411   4.957
59742W        W27960  18.193  20.740  10.680
59743W        W27961  22.997  22.298   0.788
59744W        W27962  35.190  41.597  10.442
59745W        W27963   0.919  20.940  13.494
59746W        W27964  19.617   0.761  14.501
59747W        W27965  14.291   9.231   3.861
59748W        W27966  32.604  37.607  10.423
59749W        W27967   6.382  32.599   4.231
59750W        W27968   5.234   8.701  13.852
59751W        W27969   5.632  12.665  12.502
59752W        W27970  15.757  43.748   0.922
59753W        W27971  11.366  26.623   4.229
59754W        W27972   6.045  26.643  13.803
59755W        W27973   7.664   6.405   0.853
59756W        W27974  43.968  10.279   4.393
59757W        W27975  26.188  38.116   3.237
59758W        W27976  36.419   9.976  12.445
59759W        W27977  32.106  11.880   2.730
59760W        W27978  34.623  30.396  13.827
59761W        W27979   1.286  10.874  10.692
59762W        W27980  13.889   3.927   1.920
59763W        W27981  29.974  16.332   2.752
59764W        W27982   6.902  43.858  14.723
59765W        W27983  34.942  42.464  12.883
59766W        W27984  10.396  39.887   4.598
59767W        W27985  14.880   4.207  13.897
59768W        W27986  29.100  17.117   0.463
59769W        W27987  38.895  18.626   2.312
59770W        W27988  17.047  35.731   1.255
59771W        W27989  18.276  24.250  10.689
59772W        W27990   6.127  36.196  10.724
59773W        W27991  10.659  29.393  13.057
59774W        W27992  31.190  38.302   1.872
59775W        W27993  11.729  44.811  14.948
59776W        W27994  25.073   8.902   2.651
59777W        W27995   4.819   5.409   3.775
59778W        W27996  13.619   6.858   1.466
59779W        W27997  12.309  20.059  12.178
59780W        W27998   6.063  13.232  13.437
59781W        W27999  38.590  23.921   1.252
59782W        W28000  31.811  15.070  13.284
59783W        W28001  32.322  32.128   1.691
59784W        W28002   7.596   5.282   0.453
59785W        W28003  13.153  30.659  12.653
59786W        W28004   3.321  12.072  14.419
59787W        W28005  39.380  29.085  14.927
59788W        W28006   5.369  12.703  13.122
59789W        W28007  14.543  26.028  14.974
59790W        W28008  30.174  33.523  13.795
59791W        W28009  35.064  16.945  10.235
59792W        W28010  13.898   2.783   2.683
59793W        W28011  16.609  43.311  12.938
59794W        W28012   9.700  11.248   2.376
59795W        W28013  41.495  18.664  12.344
59796W        W28014  29.218  26.096  11.675
59797W        W28015  44.848   1.713   4.254
59798W        W28016  17.204   3.317  10.107
59799W        W28017  31.503   4.356   1.163
59800W        W28018   3.640  29.811  11.289
59801W        W28019  30.998   3.472  11.198
59802W        W28020  17.236   3.921   0.698
59803W        W28021  30.112  18.273   4.522
59804W        W28022  22.140  25.244  11.356
59805W        W28023  38.868  31.123   0.542
59806W        W28024   5.885   9.603   1.340
59807W        W28025  16.231  34.135  11.040
59808W        W28026  21.585  39.906  11.013
59809W        W28027  21.614  31.490   2.639
59810W        W28028  20.506  33.016   1.932
59811W        W28029   6.423  18.312  10.311
59812W        W28030  26.522  26.589  13.613
59813W        W28031  36.415  38.039  14.913
59814W        W28032   9.334  10.617  11.585
59815W        W28033  28.084  25.819   3.292
59816W        W28034  12.395  26.014   1.390
59817W        W28035  42.478  38.138  12.986
59818W        W28036  40.994  36.551  11.897
59819W        W28037  28.611  29.662   4.481
59820W        W28038  13.767  29.624   0.565
59821W        W28039  31.174  32.042   4.414
59822W        W28040  12.882  32.028  13.571
59823W        W28041  19.548  15.627  14.245
59824W        W28042  26.222  36.416  13.905
59825W        W28043  29.688  19.281  12.431
59826W        W28044  43.664  31.767  14.879
59827W        W28045  10.280   3.886  12.063
59828W        W28046   8.939   2.218   0.473
59829W        W28047  15.087  22.206   4.707
59830W        W28048   6.893  19.675   1.369
59831W        W28049   8.679  26.217   4.310
59832W        W28050  30.820  32.501   3.677
59833W        W28051   0.746  24.009   3.596
59834W        W28052  44.183  24.982  11.548
59835W        W28053  40.605  16.497  14.881
59836W        W28054  13.481  34.335  10.199
59837W        W28055  39.410   2.410   0.315
59838W        W28056   8.763  13.751   3.207
59839W        W28057   0.879  25.530   0.394
59840W        W28058  32.464  18.458   0.217
59841W        W28059  15.296   6.408   4.853
59842W        W28060  23.146  13.696  13.442
59843W        W28061  37.735  26.657   2.359
59844W        W28062  39.418  24.695  11.016
59845W        W28063   2.700  10.848   2.126
59846W        W28064  34.036  29.444   1.770
59847W        W28065  32.678  31.956  13.443
59848W        W28066  44.516   4.022   0.974
59849W        W28067  25.449  10.266  14.447
59850W        W28068   8.676  34.881  12.428
59851W        W28069  18.754   0.983   4.522
59852W        W28070   5.747   8.186   2.344
59853W        W28071   9.787  24.466  12.414
59854W        W28072  10.798  24.499   3.998
59855W        W28073  23.632  21.260   3.608
59856W        W28074  40.760  33.193   1.854
59857W        W28075  36.920  42.986   1.496
59858W        W28076  27.510   3.527  13.406
59859W        W28077   8.402   4.637  12.959
59860W        W28078  43.217  33.077   4.080
59861W        W28079  15.634  22.501  12.535
59862W        W28080  40.870  11.288  12.515
59863W        W28081  41.980  24.602  10.626
59864W        W28082  16.128  17.237   2.613
59865W        W28083  15.524   9.644   3.403
59866W        W28084  42.278   4.823   0.318
59867W        W28085  12.145   3.212   0.836
59868W        W28086  26.359   5.740  14.187
59869W        W28087  41.430  17.777   2.737
59870W        W28088  34.381  36.562   3.725
59871W        W28089  41.426  14.265  13.006
59872W        W28090  23.498  35.917  11.109
59873W        W28091  29.470  31.773  13.543
59874W        W28092  42.954  44.455   2.613
59875W        W28093  18.792   2.267  14.925
59876W        W28094   9.211   9.983  13.191
59877W        W28095   1.355   8.350   2.180
59878W        W28096  17.141  19.173   3.708
59879W        W28097  13.166  32.181   1.705
59880W        W28098  37.464  23.586   1.057
59881W        W28099   6.110  43.331  13.725
59882W        W28100   6.490   5.730  12.929
59883W        W28101  42.463  15.079   3.207
59884W        W28102  22.551   1.229  13.603
59885W        W28103  35.658  21.218  14.512
59886W        W28104  38.459  42.061  12.419
59887W        W28105  19.071  42.533   3.698
59888W        W28106  10.781  28.726   1.432
59889W        W28107  10.750   9.859  10.401
59890W        W28108  31.973  41.411   1.655
59891W        W28109  33.111  25.479  11.023
59892W        W28110  41.128   8.410   2.239
59893W        W28111   4.186  28.045   2.469
59894W        W28112  28.194   2.692  11.140
59895W        W28113   8.469   9.800   4.873
59896W        W28114  19.252   8.531   1.299
59897W        W28115  23.943   1.052  12.964
59898W        W28116   7.654  35.920   4.615
59899W        W28117  10.343  37.952   2.182
59900W        W28118  27.123  21.657  11.892
59901W        W28119  30.117  18.193  14.070
59902W        W28120  22.517   4.240   4.873
59903W        W28121   0.380   9.776   1.260
59904W        W28122  29.607  19.530   4.161
59905W        W28123   2.417  36.579   3.233
59906W        W28124  27.393   4.568  11.082
59907W        W28125   7.236  28.500   4.112
59908W        W28126  14.622  39.950  11.161
59909W        W28127  13.664   2.975  11.489
59910W        W28128   3.372  34.924   4.809
59911W        W28129  36.467  41.732   0.950
59912W        W28130  14.158  40.489  13.878
59913W        W28131  21.020  22.060   4.173
59914W        W28132  23.118  35.534   3.293
59915W        W28133  29.573  14.915   1.415
59916W        W28134   1.423  20.945  13.713
59917W        W28135  14.678  43.323  12.077
59918W        W28136  44.517  15.283   2.599
59919W        W28137  25.103  19.090  13.274
59920W        W28138  29.105  10.696  14.895
59921W        W28139  24.562   5.151   1.135
59922W        W28140  37.718  32.314   1.014
59923W        W28141  13.909  27.934  12.591
59924W        W28142   0.410  33.566  11.316
59925W        W28143   1.195  15.051   1.868
59926W        W28144   3.747  44.310  12.053
59927W        W28145  36.028  19.000   4.553
59928W        W28146  14.087   4.779  12.176
59929W        W28147   7.906  34.051   2.800
59930W        W28148  23.661  13.204   4.740
59931W        W28149  14.268  39.281  11.326
59932W        W28150  11.739  14.078   2.761
59933W        W28151  30.463  43.539  11.763
59934W        W28152  16.671   2.201   4.238
59935W        W28153  21.238  13.690   2.826
59936W        W28154  11.661  31.181  10.993
59937W        W28155  17.455   8.180   1.084
59938W        W28156  20.731  20.792   4.544
59939W        W28157  26.676  34.516  11.457
59940W        W28158  33.121  42.872  13.882
59941W        W28159  33.593   9.133  12.127
59942W        W28160  31.224   6.865   2.759
59943W        W28161  36.898  32.781   1.193
59944W        W28162  13.087  13.010  13.298
59945W        W28163  21.988  36.985   4.137
59946W        W28164   6.858  38.040   3.779
59947W        W28165   6.802   5.229   4.327
59948W        W28166  12.909  25.795  11.646
59949W        W28167  17.256   7.121  14.372
59950W        W28168  37.821  43.015  14.027
59951W        W28169  28.906   3.698   3.922
59952W        W28170  36.922  14.732   0.467
59953W        W28171  34.992  28.817  13.809
59954W        W28172  12.293  17.619   1.979
59955W        W28173  30.640  38.331   2.675
59956W        W28174  35.428  42.566   0.311
59957W        W28175  38.365  30.646   1.376
59958W        W28176  44.462  35.579  11.238
59959W        W28177  26.728  34.452   2.214
59960W        W28178  43.458  29.020  10.975
59961W        W28179  21.293  42.743  12.408
59962W        W28180  30.031  41.849   4.311
59963W        W28181  22.697  10.040  11.164
59964W        W28182  33.994  25.042  10.139
59965W        W28183   1.039  32.544  14.066
59966W        W28184   6.870  30.008  14.055
59967W        W28185  21.174  19.370   2.532
59968W        W28186  26.400  42.894   0.805
59969W        W28187  10.000  38.214  13.984
59970W        W28188  21.827  33.021  13.090
59971W        W28189  16.147  23.995   1.867
59972W        W28190   4.465   3.267  11.028
59973W        W28191  36.053  16.270  13.809
59974W        W28192  39.427   0.460  13.847
59975W        W28193   6.768  37.786   0.336
59976W        W28194   7.417  31.035  14.296
59977W        W28195  43.975  25.634   5.072
59978W        W28196  14.058  24.275   4.587
59979W        W28197  16.242  25.027   0.249
59980W        W28198  36.834  33.409  12.499
59981W        W28199  26.672  22.451   1.832
59982W        W28200   0.721  17.686  14.873
59983W        W28201   6.421  37.887  12.683
59984W        W28202  17.730  12.474  14.287
59985W        W28203  18.857   5.900   1.909
59986W        W28204   3.494  43.156  14.352
59987W        W28205  35.091   7.561   0.683
59988W        W28206   3.390  30.890   4.989
59989W        W28207  19.543  41.996   2.730
59990W        W28208  24.986  28.938   1.865
59991W        W28209   7.689  42.321  14.768
59992W        W28210  44.280   7.514  10.488
59993W        W28211  38.410   1.872  11.929
59994W        W28212  14.174   3.169  11.517
59995W        W28213  21.670  36.806   0.511
59996W        W28214  20.260  41.345  13.947
59997W        W28215  33.980  43.261  14.892
59998W        W28216   1.761  43.320   2.327
59999W        W28217   9.290   0.134  14.043
60000W        W28218   9.776   1.573  12.572
60001W        W28219  40.826  20.333   3.250
60002W        W28220   6.371   6.746   4.847
60003W        W28221  35.127  13.296  13.594
60004W        W28222  36.112  24.911  13.887
60005W        W28223  18.634  12.408  12.880
60006W        W28224  14.749   3.282  10.848
60007W        W28225  29.180  39.167   3.641
60008W        W28226  20.276   1.238  13.327
60009W        W28227  35.460  30.083  13.998
60010W        W28228  34.772  37.363   4.106
60011W        W28229   7.733  44.863  12.909
60012W        W28230  25.981  44.786  11.060
60013W        W28231  22.483   9.971   4.146
60014W        W28232  14.995  26.730  10.979
60015W        W28233  42.372  44.579   1.942
60016W        W28234  25.064  18.568   4.647
60017W        W28235   9.385  30.085   3.591
60018W        W28236  20.162  42.084   3.652
60019W        W28237  32.945  44.018  10.735
60020W        W28238  16.250  27.696   3.982
60021W        W28239   8.738  40.858   0.364
60022W        W28240  19.210   6.672  11.579
60023W        W28241  33.270  16.074  13.037
60024W        W28242  23.696   2.884   2.686
60025W        W28243  24.494  41.724  14.965
60026W        W28244  43.184   2.270  11.028
60027W        W28245  37.979  25.553  14.507
60028W        W28246  27.181  16.176   2.252
60029W        W28247  21.282  12.911   2.229
60030W        W28248   7.172  44.012  13.123
60031W        W28249  38.050   3.888   4.531
60032W        W28250  42.398  37.190  11.320
60033W        W28251  38.091  44.916   1.934
60034W        W28252  35.297   1.360  11.668
60035W        W28253   4.342  19.954   4.745
60036W        W28254  14.311  39.991   0.982
60037W        W28255  23.074   7.923  13.767
60038W        W28256  14.641  36.991   1.393
60039W        W28257  34.568  18.920   3.884
60040W        W28258  13.855  16.202  14.764
60041W        W28259  10.018  37.093  11.004
60042W        W28260  22.605   6.860  13.607
60043W        W28261  33.993   7.810  11.878
60044W        W28262   5.794  27.509  11.124
60045W        W28263  29.677  29.234  11.615
60046W        W28264  20.579  25.131   1.428
60047W        W28265  19.194  26.597   3.849
60048W        W28266  20.537  41.806   3.883
60049W        W28267  26.844  41.754   4.266
60050W        W28268  18.700  43.288   0.455
60051W        W28269  14.685  11.604  14.011
60052W        W28270   6.897  36.814   3.123
60053W        W28271  41.040  34.881   3.860
60054W        W28272  43.710  31.651   3.693
60055W        W28273  32.434  13.349   0.383
60056W        W28274   1.778  14.230  12.578
60057W        W28275  17.183  24.142   4.080
60058W        W28276   2.552  37.902  11.960
60059W        W28277  19.611  33.063   1.034
60060W        W28278   6.010  10.125  10.166
60061W        W28279   5.529  11.273   0.678
60062W        W28280  17.580  25.714  14.710
60063W        W28281   8.270   8.045   1.880
60064W        W28282   4.344   0.998  10.511
60065W        W28283  42.105  38.509  14.458
60066W        W28284  14.523  33.175   3.890
60067W        W28285  20.442  27.148   4.910
60068W        W28286  25.627   5.911   1.635
60069W        W28287  27.941   6.774   0.070
60070W        W28288  19.515  10.435   5.006
60071W        W28289  10.378  38.086  13.041
60072W        W28290   8.892  31.995   1.309
60073W        W28291  31.692  42.882   2.681
60074W        W28292  20.556  41.259  11.112
60075W        W28293  32.893  38.803   4.049
60076W        W28294  43.042   3.181  14.036
60077W        W28295  41.435  16.343  13.848
60078W        W28296  20.294  22.402   0.622
60079W        W28297  15.274  21.531   3.593
60080W        W28298  14.755  18.355   2.752
60081W        W28299  24.031  41.313  13.023
60082W        W28300  34.908  21.168  12.941
60083W        W28301  25.262  25.041   2.090
60084W        W28302  39.793  10.143  14.243
60085W        W28303  20.145  42.267   2.284
60086W        W28304  23.959  16.649  13.754
60087W        W28305   4.111   2.783  13.738
60088W        W28306  43.362  36.302   1.920
60089W        W28307   6.146  15.210   2.765
60090W        W28308  38.917  44.981  14.480
60091W        W28309  24.431  28.659  11.496
60092W        W28310  30.568  38.097   3.223
60093W        W28311  22.057  23.800   0.441
60094W        W28312  28.080  20.175  12.423
60095W        W28313  12.432  13.574  12.514
60096W        W28314   6.456  40.069   0.441
60097W        W28315  36.802  34.728  10.999
60098W        W28316  34.472  26.031   0.947
60099W        W28317  18.022  22.710  12.049
60100W        W28318  24.863  24.653   5.205
60101W        W28319  10.213  29.850   0.805
60102W        W28320  31.094  16.388  13.485
60103W        W28321  22.163  30.111   1.732
60104W        W28322  25.871  31.719  11.812
60105W        W28323  24.212   2.911   2.697
60106W        W28324  23.979  42.462  11.967
60107W        W28325  22.621  39.344  14.566
60108W        W28326  21.148  10.756   2.123
60109W        W28327   1.138   6.389   4.024
60110W        W28328  18.682  20.763  13.760
60111W        W28329  24.281   8.127   4.880
60112W        W28330   7.659   2.884  13.823
60113W        W28331  15.234  36.620   0.591
60114W        W28332  40.524  29.486  12.445
60115W        W28333   9.601   4.246  14.488
60116W        W28334  37.794   9.912   4.114
60117W        W28335  42.266  44.569   0.565
60118W        W28336  24.095  22.738   4.131
60119W        W28337  17.494  23.972   2.303
60120W        W28338  16.668  33.080   4.185
60121W        W28339  21.282  37.906  13.941
60122W        W28340   1.574  33.541   3.661
60123W        W28341  19.444   9.116  11.577
60124W        W28342   4.718  16.775  10.442
60125W        W28343   2.692  12.147  13.144
60126W        W28344  28.775  21.669   1.674
60127W        W28345  40.584   0.968   4.555
60128W        W28346   0.588  32.121  10.631
60129W        W28347  25.007  12.908  11.806
60130W        W28348  32.986  44.577  13.460
60131W        W28349   5.772   0.581  11.780
60132W        W28350  23.924  21.112   4.628
60133W        W28351  24.857  40.545   4.702
60134W        W28352  26.772  16.773   3.130
60135W        W28353  40.365  18.011   2.211
60136W        W28354  16.266  36.763   3.055
60137W        W28355  30.121  17.719  13.905
60138W        W28356   4.460  31.092   1.342
60139W        W28357  42.552  37.410  13.526
60140W        W28358  19.197  29.394   3.059
60141W        W28359   8.795  12.171  13.325
60142W        W28360  35.598  17.742  13.557
60143W        W28361  32.058  19.691  14.960
60144W        W28362   4.262  18.775  11.627
60145W        W28363   4.839  41.358   3.982
60146W        W28364   0.900  37.370   9.925
60147W        W28365  20.334  32.584   1.635
60148W        W28366  34.051  39.241   1.277
60149W        W28367  17.256  41.898   1.789
60150W        W28368  39.093  17.524   0.745
60151W        W28369  11.425  13.581  12.470
60152W        W28370  27.121  41.747   0.936
60153W        W28371  26.506   3.376  10.752
60154W        W28372  26.938  28.471  11.554
60155W        W28373  18.719  35.821  12.946
60156W        W28374  25.774  22.172  11.632
60157W        W28375  35.139  22.431  11.178
60158W        W28376  27.187   9.944   2.761
60159W        W28377  17.197  25.751   0.333
60160W        W28378   9.370  37.442   1.090
60161W        W28379  29.572  19.237   1.302
60162W        W28380  18.155  42.030   1.248
60163W        W28381  22.774  23.270   0.854
60164W        W28382  23.159  31.314  14.284
60165W        W28383  16.736  35.871  14.717
60166W        W28384  24.306   9.817  12.916
60167W        W28385  25.951  42.737   1.548
60168W        W28386   4.933  16.329  10.577
60169W        W28387  35.626  28.131  12.869
60170W        W28388   5.321   8.192  14.000
60171W        W28389   8.404  20.692  12.909
60172W        W28390  15.801  39.056   3.223
60173W        W28391  17.915   9.796  12.443
60174W        W28392  42.533  29.843   1.435
60175W        W28393  11.821  41.899  14.967
60176W        W28394  38.581  28.072   3.624
60177W        W28395  23.084  27.466  10.549
60178W        W28396   1.350  34.094  14.782
60179W        W28397  41.505  25.484   2.297
60180W        W28398   1.935  30.853  13.420
60181W        W28399  10.896  34.918  14.178
60182W        W28400  31.342  23.609  11.128
60183W        W28401  23.700  25.930   2.337
60184W        W28402  41.573  16.558  10.617
60185W        W28403  41.968  10.430  10.217
60186W        W28404  34.398   0.533   3.232
60187W        W28405   9.189  10.159  14.732
60188W        W28406  39.806  26.203  13.911
60189W        W28407  24.141   5.436   3.223
60190W        W28408   2.824   3.545   1.142
60191W        W28409  20.219  31.728   4.599
60192W        W28410   4.971  31.365  13.282
60193W        W28411  41.977  33.132   0.525
60194W        W28412  24.684   2.266   2.222
60195W        W28413  21.646  12.193   4.463
60196W        W28414  40.296   1.706  10.777
60197W        W28415  41.980   0.899   5.399
60198W        W28416  31.918   6.834  12.515
60199W        W28417  43.607  36.024   4.715
60200W        W28418  38.420   5.286  11.833
60201W        W28419  21.458  34.948  12.201
60202W        W28420  18.606  27.585  14.914
60203W        W28421  34.121  14.424   1.366
60204W        W28422  11.578  17.501   0.838
60205W        W28423   9.945  31.243   3.897
60206W        W28424  13.097   4.676  10.950
60207W        W28425  24.188  38.146  14.312
60208W        W28426  26.940   3.668  10.855
60209W        W28427   2.601  43.954  13.517
60210W        W28428  12.133  35.113  14.965
60211W        W28429  38.397  40.507  13.494
60212W        W28430   8.215  20.550   0.853
60213W        W28431  11.231  28.623   4.200
60214W        W28432  38.160  17.240  14.980
60215W        W28433  33.502  42.689  11.609
60216W        W28434  32.612  42.958  13.813
60217W        W28435  19.221   0.800   4.712
60218W        W28436   3.351  23.686   3.307
60219W        W28437   2.973  34.108   1.754
60220W        W28438  43.593  10.439  11.727
60221W        W28439  14.522  19.766  14.296
60222W        W28440  41.514  15.292   0.657
60223W        W28441  10.710  12.615   4.705
60224W        W28442  42.982  17.979  12.459
60225W        W28443  41.273  32.884  12.831
60226W        W28444  16.856  10.616   4.462
60227W        W28445   4.036   6.886   0.982
60228W        W28446   7.007   3.361   4.207
60229W        W28447  10.319   2.240  13.589
60230W        W28448   3.026  30.687  13.661
60231W        W28449  23.626  14.644  11.446
60232W        W28450  19.589  39.618  12.163
60233W        W28451  39.287  37.083   3.298
60234W        W28452  42.763  33.081   3.798
60235W        W28453   3.128   2.773   0.230
60236W        W28454   2.400  29.106   1.240
60237W        W28455  23.597  37.250  13.057
60238W        W28456  37.183  11.741   4.980
60239W        W28457  43.986  21.772   2.120
60240W        W28458  18.785  22.946  11.760
60241W        W28459  33.477  38.738   1.331
60242W        W28460  43.348  35.546  13.473
60243W        W28461  28.195  40.548   1.450
60244W        W28462   6.730  11.298  11.998
60245W        W28463  35.117  26.553   3.308
60246W        W28464  26.528   6.521  14.585
60247W        W28465  28.571  13.379   5.492
60248W        W28466   2.819   7.174   0.054
60249W        W28467  43.514  42.414   1.407
60250W        W28468  17.759  33.502   4.854
60251W        W28469  21.089  16.125  12.245
60252W        W28470   1.821  20.780   2.813
60253W        W28471  44.175  28.962   3.724
60254W        W28472  29.732  29.592  12.597
60255W        W28473  37.975  35.379  12.984
60256W        W28474   2.409  35.449   1.248
60257W        W28475  19.032   9.835  14.930
60258W        W28476   6.147  19.297   4.941
60259W        W28477  23.461  33.934   2.153
60260W        W28478  18.945  22.954   1.363
60261W        W28479  41.519  23.466  12.347
60262W        W28480  29.535  38.481   1.747
60263W        W28481  43.330  28.732  13.648
60264W        W28482  28.089  38.529  14.780
60265W        W28483  24.100  30.642   1.394
60266W        W28484  18.830  24.646  14.812
60267W        W28485  22.704  44.951  11.700
60268W        W28486  32.187   9.641   0.192
60269W        W28487  39.206  26.504  13.614
60270W        W28488  40.018  34.843  10.705
60271W        W28489   6.483  14.280  12.572
60272W        W28490  24.656  34.317  11.443
60273W        W28491  13.602   0.333  14.760
60274W        W28492  18.710   6.483  13.950
60275W        W28493  14.157  34.982   1.588
60276W        W28494  33.404  23.272   0.891
60277W        W28495   3.245  14.760  13.859
60278W        W28496   7.618  11.258  12.012
60279W        W28497  38.074  32.879   3.328
60280W        W28498  41.409  39.789  13.311
60281W        W28499  30.503  19.769  11.280
60282W        W28500  21.353  22.151  14.818
60283W        W28501  39.023  35.103   0.486
60284W        W28502  29.252  20.934  11.693
60285W        W28503  37.758  18.599   4.701
60286W        W28504  32.879  42.536   4.126
60287W        W28505  10.632  27.161   1.436
60288W        W28506  10.178  25.987  14.431
60289W        W28507  12.588  40.972  14.525
60290W        W28508  24.535  31.076  12.792
60291W        W28509  32.956   5.445   5.288
60292W        W28510   9.558  10.851  12.015
60293W        W28511  42.157   7.797  12.082
60294W        W28512  12.914   2.548   9.631
60295W        W28513  16.591   3.772   3.767
60296W        W28514  24.150  33.144   3.839
60297W        W28515  23.248  10.460  12.003
60298W        W28516  15.899  36.958  12.025
60299W        W28517  36.166  26.925  14.686
60300W        W28518   8.816  10.422  12.044
60301W        W28519  12.286   0.286   5.046
60302W        W28520  28.076  41.873   0.474
60303W        W28521   7.740  13.725   0.266
60304W        W28522   8.120  25.306  14.893
60305W        W28523  27.909  15.305   1.226
60306W        W28524  35.854  14.621   2.750
60307W        W28525  10.615   5.774   0.717
60308W        W28526   5.493   9.386   2.981
60309W        W28527   9.167  18.291  12.944
60310W        W28528  11.323  12.100   4.252
60311W        W28529  37.405  44.585  11.947
60312W        W28530  11.687  17.265   4.067
60313W        W28531   4.400  21.213   3.598
60314W        W28532   7.914  14.796   1.829
60315W        W28533  16.326  12.107  12.525
60316W        W28534  40.253   5.422  12.922
60317W        W28535   3.261  31.519   2.700
60318W        W28536  40.877  31.350  11.664
60319W        W28537  26.689  31.603  13.929
60320W        W28538  10.367  16.129  14.436
60321W        W28539  19.913  13.364  14.889
60322W        W28540  32.671  24.290   3.190
60323W        W28541  29.547  19.192   0.378
60324W        W28542  11.234  43.808   3.689
60325W        W28543  30.900  20.234   4.254
60326W        W28544   5.729   3.164   3.683
60327W        W28545   7.728  27.740   1.382
60328W        W28546   6.027  31.848   3.644
60329W        W28547  36.822  25.088  13.429
60330W        W28548  21.921  27.056  11.227
60331W        W28549  42.523  23.669   3.795
60332W        W28550  27.901  22.284   3.540
60333W        W28551  26.739  43.814   2.373
60334W        W28552  20.620   3.755   0.928
60335W        W28553  29.172  27.151   2.222
60336W        W28554   7.721  25.047   0.680
60337W        W28555  22.937  34.579  11.388
60338W        W28556  26.074  15.301  10.671
60339W        W28557  40.873  31.950  11.634
60340W        W28558  28.412   8.694   3.748
60341W        W28559  34.983  27.556   3.955
60342W        W28560  38.979  29.861  11.455
60343W        W28561  39.066  17.654   1.250
60344W        W28562  20.491  19.186   0.761
60345W        W28563  38.364  35.048  14.236
60346W        W28564  15.597  42.754   1.047
60347W        W28565  44.275  33.264   2.287
60348W        W28566  18.214  40.756  13.231
60349W        W28567   5.771  17.313   4.151
60350W        W28568  17.711  30.481  11.524
60351W        W28569  34.929   3.719  13.597
60352W        W28570   4.880  42.764   1.379
60353W        W28571  19.609  43.185   0.455
60354W        W28572   6.086  21.078   3.162
60355W        W28573  27.032  12.686   2.428
60356W        W28574  36.901  15.820  11.541
60357W        W28575  17.000  28.679  12.349
60358W        W28576   9.137  33.671   1.811
60359W        W28577   1.050   6.897   4.864
60360W        W28578  32.829  38.074  12.548
60361W        W28579   4.595  38.205  13.332
60362W        W28580  34.077  37.877  13.029
60363W        W28581  18.654  18.112  14.496
60364W        W28582  43.883  40.760  14.423
60365W        W28583  29.394  39.437  10.185
60366W        W28584   6.134  32.458  12.890
60367W        W28585  36.017   7.088  11.716
60368W        W28586   3.417   5.802   3.602
60369W        W28587  29.689  15.274   4.100
60370W        W28588  37.621   2.543  13.029
60371W        W28589  14.605  14.300  10.581
60372W        W28590  15.159   5.735   1.488
60373W        W28591  35.906  27.176  11.528
60374W        W28592  12.654  26.049  14.560
60375W        W28593   6.732  12.240   4.060
60376W        W28594  16.267  22.296  12.169
60377W        W28595   7.579  33.915  14.545
60378W        W28596  38.897  26.262  10.695
60379W        W28597  33.438   8.649   0.078
60380W        W28598   4.359  15.081   0.917
60381W        W28599  30.057   1.935  13.512
60382W        W28600  14.194  11.703  10.709
60383W        W28601  15.560  22.722  11.230
60384W        W28602   5.885  15.119  11.488
60385W        W28603  41.430   9.137  12.991
60386W        W28604  19.325  19.848  12.383
60387W        W28605  15.233  37.735  11.107
60388W        W28606  44.009  23.005  13.185
60389W        W28607  11.650   2.772   2.435
60390W        W28608  18.601  18.118   0.309
60391W        W28609   9.890  25.846   3.908
60392W        W28610  26.508   2.201  13.775
60393W        W28611  39.743  33.577   3.661
60394W        W28612  20.208   6.712   4.800
60395W        W28613  24.867   9.306  13.552
60396W        W28614  22.205  33.210  10.337
60397W        W28615  16.564  13.839  11.191
60398W        W28616  32.733  39.809  14.695
60399W        W28617  29.537   9.258  13.989
60400W        W28618  12.889   4.471   4.559
60401W        W28619  36.748  35.650  13.449
60402W        W28620  41.447  37.321  12.573
60403W        W28621  12.776  24.276  12.115
60404W        W28622  38.101  31.060  14.991
60405W        W28623  32.223  26.958  12.468
60406W        W28624  39.355  23.117  11.985
60407W        W28625   6.761   0.902   1.737
60408W        W28626  34.321  42.055   0.788
60409W        W28627  15.771  29.282   3.623
60410W        W28628  29.643  37.285  11.601
60411W        W28629  23.508  10.050   3.406
60412W        W28630   8.149  31.055   0.698
60413W        W28631   0.379   6.012   1.262
60414W        W28632  30.996  34.860  11.269
60415W        W28633  31.308   6.757  13.413
60416W        W28634  43.692  21.410  14.485
60417W        W28635  20.538  14.837   1.429
60418W        W28636  16.660  25.172   1.987
60419W        W28637   1.039  12.165   3.181
60420W        W28638  23.394  24.863  14.485
60421W        W28639  23.135  16.269   4.151
60422W        W28640   7.743   9.732  12.617
60423W        W28641  37.989  44.941  12.890
60424W        W28642  26.942   6.198   1.291
60425W        W28643  23.729  20.859  11.607
60426W        W28644  26.653   8.037   2.660
60427W        W28645  36.273  31.656  12.023
60428W        W28646  39.459  11.037   4.637
60429W        W28647   2.027  42.373  12.495
60430W        W28648   7.811  21.544   1.281
60431W        W28649  35.312   2.688  10.451
60432W        W28650   7.772  39.576  11.480
60433W        W28651  34.448   7.918  12.170
60434W        W28652  26.640   6.254   4.237
60435W        W28653   2.685  17.014  13.045
60436W        W28654  20.959  20.670  13.090
60437W        W28655  29.434   7.643   3.230
60438W        W28656  13.628   5.978   3.638
60439W        W28657   9.168   7.732  10.787
60440W        W28658  19.269  18.458  14.765
60441W        W28659   5.804   2.787  12.143
60442W        W28660  35.550   7.732   3.214
60443W        W28661  23.277  16.347   3.177
60444W        W28662  31.877  13.665  10.922
60445W        W28663  19.652  11.661   4.177
60446W        W28664   2.127  42.563   0.456
60447W        W28665   2.150  29.218  11.597
60448W        W28666  22.071  24.389  11.923
60449W        W28667  19.164  17.225   4.411
60450W        W28668  35.730   3.693  12.979
60451W        W28669  17.118  44.341  11.496
60452W        W28670  38.096  33.155  11.490
60453W        W28671  27.055   6.680  11.955
60454W        W28672  41.681   3.868  12.509
60455W        W28673   1.660  11.557   0.821
60456W        W28674  35.021  40.665  11.592
60457W        W28675  39.882   6.215   2.766
60458W        W28676  44.829   9.885  13.144
60459W        W28677  15.197  26.146  10.889
60460W        W28678  14.114  36.931   4.689
60461W        W28679   0.069  19.329  12.717
60462W        W28680  16.704  28.554  14.948
60463W        W28681  23.678   5.925  13.416
60464W        W28682  38.061  13.518  12.247
60465W        W28683   4.244   7.295  12.486
60466W        W28684  30.946  23.582   2.754
60467W        W28685  43.983  32.243  13.064
60468W        W28686  20.804  36.886  10.273
60469W        W28687  33.527  28.225   0.450
60470W        W28688  13.286  35.118  11.203
60471W        W28689  32.431  33.448   1.273
60472W        W28690  23.066   9.085  13.542
60473W        W28691  23.627  16.318  14.005
60474W        W28692  27.448  11.957   0.102
60475W        W28693  40.201  29.039   3.191
60476W        W28694  22.598  35.104  13.512
60477W        W28695  37.128  15.026  11.097
60478W        W28696  19.339  24.246  11.687
60479W        W28697   4.903  34.353  14.844
60480W        W28698   3.463  33.498  14.419
60481W        W28699  37.396  14.229  14.521
60482W        W28700  39.398  26.750   3.324
60483W        W28701  21.593  36.526  12.094
60484W        W28702  42.260  16.610  12.096
60485W        W28703   5.978  40.527   4.503
60486W        W28704  22.089  14.065  12.862
60487W        W28705  25.130   1.283   1.011
60488W        W28706  24.460  36.345  13.496
60489W        W28707  39.602  14.066   2.191
60490W        W28708  32.941  28.807   3.155
60491W        W28709  16.017  36.325  14.980
60492W        W28710  38.549   7.412   0.289
60493W        W28711  14.691   0.915  14.469
60494W        W28712  12.987  20.756   0.395
60495W        W28713  17.263  33.933   4.422
60496W        W28714   6.676   3.892  14.031
60497W        W28715   4.789  41.769   2.787
60498W        W28716  29.619  12.638  12.844
60499W        W28717   3.756  30.495  12.050
60500W        W28718   1.785  13.251  12.959
60501W        W28719  43.894   6.079  13.540
60502W        W28720  32.356  22.640  11.397
60503W        W28721  34.749  39.027   1.676
60504W        W28722  37.997  37.053  11.548
60505W        W28723  15.074   9.344  12.630
60506W        W28724  36.870  40.107  14.888
60507W        W28725  23.308  24.351   1.042
60508W        W28726   1.239  36.150   3.635
60509W        W28727  18.661  41.129   2.213
60510W        W28728  14.906  40.110  12.978
60511W        W28729  40.998  14.498  14.118
60512W        W28730   5.909   9.173   0.432
60513W        W28731  19.500  28.967  11.475
60514W        W28732  39.809  33.601   1.868
60515W        W28733   8.292  35.488   3.638
60516W        W28734  42.071   8.146  13.038
60517W        W28735   0.574  34.833  12.966
60518W        W28736  10.223  11.051  10.676
60519W        W28737  43.242  20.185   2.719
60520W        W28738  33.653  24.293  13.453
60521W        W28739  13.584  33.433   1.575
60522W        W28740   2.942   2.245  13.953
60523W        W28741   9.867  42.909   2.145
60524W        W28742  43.595   4.771   1.889
60525W        W28743  17.757  17.404  10.452
60526W        W28744  13.493  17.655   0.168
60527W        W28745  15.802  39.016   1.259
60528W        W28746  20.324  18.784   1.036
60529W        W28747   7.036  22.054   0.400
60530W        W28748  26.364  25.685  14.463
60531W        W28749  32.072   5.706   4.946
60532W        W28750  27.710  19.290   2.307
60533W        W28751  29.296   5.873  11.965
60534W        W28752  34.914  21.427  10.957
60535W        W28753  28.545  26.751   4.634
60536W        W28754  40.139   9.972   4.144
60537W        W28755  31.429  30.686  12.940
60538W        W28756  32.864  32.500   0.366
60539W        W28757  34.054  22.288   1.813
60540W        W28758  20.037  20.251  10.721
60541W        W28759  27.053   4.728   1.223
60542W        W28760  28.915  26.168   0.821
60543W        W28761  30.161  29.920  13.023
60544W        W28762  41.340   5.867   0.796
60545W        W28763   3.730  33.475  10.794
60546W        W28764  19.249  32.907  11.065
60547W        W28765   6.700  40.349  10.217
60548W        W28766   1.447   1.689  12.190
60549W        W28767   9.593   3.472  12.418
60550W        W28768  41.396  26.219  13.657
60551W        W28769  18.580  32.444  14.396
60552W        W28770  40.839  38.005   2.738
60553W        W28771   9.439   2.228   0.434
60554W        W28772  39.270  28.778  11.429
60555W        W28773  22.544  39.555   3.314
60556W        W28774  12.439  16.875   2.272
60557W        W28775  20.112  22.092  14.331
60558W        W28776  31.389   8.239   0.848
60559W        W28777  32.133  18.492   0.634
60560W        W28778  39.510  36.655   0.433
60561W        W28779  23.512  13.709   0.969
60562W        W28780  11.241  40.983   0.034
60563W        W28781  38.579  36.060  13.133
60564W        W28782  24.002  16.749   2.087
60565W        W28783  18.472   2.368  14.522
60566W        W28784  43.025  38.512   9.918
60567W        W28785  38.279  31.473   3.319
60568W        W28786  31.512  30.094  10.215
60569W        W28787  39.246  21.126   2.444
60570W        W28788  21.957  14.226  13.384
60571W        W28789  41.847  25.453   1.323
60572W        W28790  13.308  35.411  11.618
60573W        W28791   1.795   0.925  12.426
60574W        W28792  21.950   6.651  11.141
60575W        W28793  20.035  30.591  12.558
60576W        W28794  16.815  18.594  13.861
60577W        W28795  23.664  34.199  13.310
60578W        W28796  36.613  11.650   3.555
60579W        W28797   8.808  19.643   4.321
60580W        W28798  26.449  11.638   3.686
60581W        W28799  37.320  39.799  12.764
60582W        W28800  33.585  26.169  10.717
60583W        W28801  19.077  12.283   2.096
60584W        W28802  24.418   1.879  11.150
60585W        W28803  26.406  25.132  14.716
60586W        W28804   2.966  15.109  11.113
60587W        W28805  43.501   1.841   4.700
60588W        W28806  43.800  33.161   1.707
60589W        W28807   5.222   1.743   4.574
60590W        W28808  20.643  35.367  10.431
60591W        W28809  39.440  38.657   3.863
60592W        W28810  33.387  25.921   4.574
60593W        W28811  41.033   6.966   2.421
60594W        W28812  26.497  37.065   0.870
60595W        W28813  12.739  33.637  13.130
60596W        W28814  26.902  35.092   3.668
60597W        W28815  38.367  39.156   0.344
60598W        W28816  36.880  22.153   1.701
60599W        W28817  25.259  38.388   0.954
60600W        W28818  27.734   5.032  13.818
60601W        W28819  18.741   6.437   3.578
60602W        W28820  21.332  12.622   1.777
60603W        W28821  13.399   2.298  14.387
60604W        W28822  32.831  31.996   2.898
60605W        W28823  44.767   1.069   1.463
60606W        W28824  44.941  13.648  12.927
60607W        W28825  30.690  25.733  10.785
60608W        W28826  14.191  37.831   0.386
60609W        W28827  10.484  38.365  13.912
60610W        W28828  42.508  17.028  13.617
60611W        W28829  25.665  19.656   2.753
60612W        W28830   9.749  42.879  11.289
60613W        W28831  25.427  17.287   4.387
60614W        W28832  40.961  19.916  10.737
60615W        W28833  15.177  12.826  13.888
60616W        W28834  22.201  37.862  14.106
60617W        W28835  16.118  21.157  11.109
60618W        W28836   0.175  33.096   1.340
60619W        W28837  44.367  18.646   2.861
60620W        W28838   4.741   3.724  10.488
60621W        W28839   7.881  40.928  14.489
60622W        W28840  20.066  38.403  12.749
60623W        W28841  32.598   2.413   0.349
60624W        W28842  18.032  41.597   4.561
60625W        W28843   8.831  28.884   0.482
60626W        W28844  27.695   5.404   0.470
60627W        W28845  32.220  25.482   3.805
60628W        W28846  34.392  12.637   4.282
60629W        W28847  23.644  43.812  10.772
60630W        W28848  24.463  43.248  14.831
60631W        W28849  33.570  13.597  11.961
60632W        W28850  20.594   2.189  13.393
60633W        W28851  13.029  14.232   2.372
60634W        W28852  21.924  15.527  13.574
60635W        W28853  20.712  12.529  10.009
60636W        W28854   5.936  23.549  14.978
60637W        W28855  22.032  34.647  13.872
60638W        W28856  30.964   7.722   4.095
60639W        W28857  14.043  11.863  11.177
60640W        W28858   3.555   0.672  11.169
60641W        W28859  22.979  41.080  14.626
60642W        W28860   5.893   6.336  10.397
60643W        W28861  35.332   6.457   2.158
60644W        W28862  40.796  32.911   0.700
60645W        W28863  15.412   8.278  10.652
60646W        W28864  42.785  33.389  13.999
60647W        W28865  37.988  40.950   4.636
60648W        W28866  13.126  41.755   1.263
60649W        W28867  32.472  24.167   0.875
60650W        W28868  35.160  21.028  12.497
60651W        W28869  36.413  37.923   5.015
60652W        W28870  11.740  11.910   0.958
60653W        W28871  13.397   4.974   4.094
60654W        W28872  33.090  25.825   0.985
60655W        W28873  40.368  26.170  12.276
60656W        W28874  22.492  11.218   3.763
60657W        W28875   9.882  29.955   1.757
60658W        W28876  38.426  20.550   2.396
60659W        W28877  39.391  16.116  12.606
60660W        W28878  18.470  28.218   1.326
60661W        W28879  19.119  12.115  11.821
60662W        W28880   5.469  20.065  13.342
60663W        W28881   2.879  11.803  14.409
60664W        W28882  32.825  12.207  13.363
60665W        W28883  15.226  30.140   1.652
60666W        W28884  12.529  14.822   0.592
60667W        W28885  10.602  34.055  10.849
60668W        W28886  40.502   2.869  12.109
60669W        W28887  31.585   1.445  12.078
60670W        W28888  38.598  27.389  10.387
60671W        W28889  13.587  15.738  14.473
60672W        W28890  22.982  44.521   2.773
60673W        W28891  26.960  13.288   1.144
60674W        W28892  34.487  37.801  14.880
60675W        W28893  32.409   1.822   4.904
60676W        W28894  36.276   0.670  11.145
60677W        W28895  23.572   1.557   4.923
60678W        W28896   8.277   0.978  14.308
60679W        W28897  19.007  44.264   0.837
60680W        W28898  19.044   0.438   0.921
60681W        W28899  44.469  41.829   1.569
60682W        W28900  25.667  11.681   0.540
60683W        W28901   2.945  37.036   3.975
60684W        W28902   7.331  26.792   2.422
60685W        W28903  23.934  41.271   4.744
60686W        W28904  15.212  27.771   2.344
60687W        W28905  27.593  33.988  13.195
60688W        W28906  28.099   6.326  12.845
60689W        W28907  39.950  14.429   4.749
60690W        W28908  30.843  27.843   1.368
60691W        W28909  21.746  17.561  13.489
60692W        W28910  25.620   5.216   4.329
60693W        W28911  40.005  33.476  13.754
60694W        W28912  44.529   1.297   4.169
60695W        W28913  16.043   2.689  11.593
60696W        W28914  38.871  14.885  10.952
60697W        W28915  33.094  13.591  14.463
60698W        W28916  18.153  21.406  12.259
60699W        W28917  26.990  17.571  11.494
60700W        W28918  37.833  35.835  12.757
60701W        W28919  40.618  19.796   0.095
60702W        W28920  38.044  16.687  10.367
60703W        W28921   6.369  41.754   0.685
60704W        W28922   6.768  10.266  14.429
60705W        W28923  39.636  17.079   4.728
60706W        W28924  28.016  44.956   3.679
60707W        W28925   4.295  13.432   2.428
60708W        W28926  25.994  13.190   3.759
60709W        W28927  10.426  43.614  14.726
60710W        W28928  26.551  42.562  14.852
60711W        W28929  22.009  25.056  12.929
60712W        W28930  32.142  10.890  11.111
60713W        W28931   7.269  44.328  13.559
60714W        W28932  32.679  27.442  13.065
60715W        W28933  27.162  26.644   2.726
60716W        W28934   7.503   4.932   0.810
60717W        W28935  31.099  28.598   1.659
60718W        W28936  20.639  25.548   3.177
60719W        W28937  39.922  15.836  14.337
60720W        W28938   6.911  25.638   1.409
60721W        W28939  12.657  17.243  14.875
60722W        W28940  13.189   0.426   4.089
60723W        W28941   1.314  29.152  12.425
60724W        W28942  26.749  24.712  10.798
60725W        W28943  29.717   9.428   4.231
60726W        W28944  18.108  29.986   3.319
60727W        W28945  22.787  10.608   0.317
60728W        W28946  30.558  11.073   4.134
60729W        W28947  17.896   6.574  13.413
60730W        W28948   1.257  13.572   2.772
60731W        W28949  27.374  19.339   4.511
60732W        W28950  20.188  43.048  13.358
60733W        W28951  39.541  40.914  10.501
60734W        W28952  17.021  37.124   2.680
60735W        W28953  36.600  24.096   0.871
60736W        W28954  37.015  31.997   1.776
60737W        W28955  16.819  43.995   0.332
60738W        W28956  29.437  32.412  12.100
60739W        W28957  26.645   8.331   4.490
60740W        W28958  35.106  16.190   0.775
60741W        W28959  16.820  18.506   0.788
60742W        W28960  37.519  26.644  12.963
60743W        W28961  15.845  23.063   2.851
60744W        W28962  23.463   7.589  13.854
60745W        W28963  43.515  39.504  14.855
60746W        W28964   3.454  16.856  12.383
60747W        W28965  33.088  19.796  12.650
60748W        W28966  17.997   5.250  12.021
60749W        W28967  14.324   4.764  12.649
60750W        W28968  43.965  44.369  10.245
60751W        W28969  15.079   2.704  14.370
60752W        W28970  41.203  27.496  14.987
60753W        W28971  42.137  13.738   4.717
60754W        W28972  23.282  27.382   1.970
60755W        W28973  25.591  41.963   2.171
60756W        W28974  44.513  34.980   2.246
60757W        W28975  18.472  18.293   4.993
60758W        W28976  43.180   1.875  10.694
60759W        W28977   4.286  27.169   2.343
60760W        W28978  44.368  32.689   4.662
60761W        W28979   9.933   2.195   0.355
60762W        W28980  35.551  44.359   2.698
60763W        W28981  43.731  15.804   3.800
60764W        W28982  16.983  33.537   4.191
60765W        W28983   6.451  13.783   1.388
60766W        W28984  23.362  17.184   1.676
60767W        W28985  10.260  18.581  10.363
60768W        W28986   9.657  13.798  14.828
60769W        W28987  30.550  20.358   1.917
60770W        W28988   1.458  18.493   3.864
60771W        W28989  14.705   2.314  12.086
60772W        W28990  36.519  20.195   0.606
60773W        W28991  43.875   4.693  12.575
60774W        W28992  29.531  40.734   1.333
60775W        W28993  25.440  24.074  12.919
60776W        W28994  21.094  26.597  12.332
60777W        W28995   9.292  43.288  14.785
60778W        W28996  34.558   0.311  13.266
60779W        W28997  29.574  27.454   2.220
60780W        W28998  43.385   5.978  13.084
60781W        W28999  43.498   3.719  13.469
60782W        W29000   2.312  41.477  14.315
60783W        W29001  43.549  17.798   0.320
60784W        W29002  16.365   7.455  14.062
60785W        W29003  14.023  17.298   4.497
60786W        W29004  22.100  31.960  14.477
60787W        W29005  32.914   3.371  13.929
60788W        W29006  34.287  39.313  11.375
60789W        W29007  42.587   9.308  11.236
60790W        W29008   7.305  40.290  12.811
60791W        W29009  32.770  36.080   0.038
60792W        W29010  14.776  42.810   1.198
60793W        W29011   9.379  14.684   4.569
60794W        W29012  42.460  17.990  11.951
60795W        W29013  26.413  27.637   4.916
60796W        W29014   6.298  42.037   1.475
60797W        W29015  37.574  16.070  12.993
60798W        W29016  32.683  39.492   0.421
60799W        W29017  13.359  19.840  10.763
60800W        W29018  38.920  41.440   2.288
60801W        W29019  12.728   0.471   0.113
60802W        W29020  28.633  17.769  11.928
60803W        W29021  30.940  38.395  14.018
60804W        W29022  19.560  22.615   0.908
60805W        W29023  34.872   4.299   2.171
60806W        W29024  18.847  14.653   1.248
60807W        W29025  40.612  17.096   4.769
60808W        W29026  28.934   0.421  14.890
60809W        W29027  17.741   6.329  11.840
60810W        W29028   0.185  17.613   2.718
60811W        W29029  16.378  28.505  11.528
60812W        W29030  18.106   5.516  13.285
60813W        W29031  15.199  32.177   4.549
60814W        W29032   9.882  14.318  10.875
60815W        W29033  38.060   0.903   2.907
60816W        W29034  25.108  16.270   1.960
60817W        W29035   2.528  26.185   4.360
60818W        W29036  35.689  21.266  14.001
60819W        W29037   4.690  21.781   4.578
60820W        W29038  17.752  21.269   0.920
60821W        W29039  44.524  13.499  12.603
60822W        W29040   0.243  37.908   0.835
60823W        W29041  11.457  26.481   2.705
60824W        W29042   1.177  44.319  13.591
60825W        W29043  12.128  18.139   1.045
60826W        W29044  16.674  22.079  13.076
60827W        W29045   5.960  40.091  10.995
60828W        W29046   2.420  23.077  13.526
60829W        W29047  28.525  30.784  13.980
60830W        W29048   5.305  43.047   3.797
60831W        W29049   2.210  39.850   2.234
60832W        W29050  39.569  15.493   0.487
60833W        W29051  40.028   0.373   4.125
60834W        W29052  27.617  11.662   1.368
60835W        W29053   9.888  27.026   0.202
60836W        W29054  24.492  21.093   3.077
60837W        W29055  11.901  23.940  11.173
60838W        W29056  44.844   0.737  12.476
60839W        W29057   6.307   1.437   1.331
60840W        W29058  28.582  39.011  13.250
60841W        W29059  40.924   8.096   0.750
60842W        W29060  30.788  39.812  11.284
60843W        W29061  25.034   0.024  11.210
60844W        W29062  21.201  23.588   4.589
60845W        W29063   9.687  10.402   0.743
60846W        W29064   2.271  39.923  14.112
60847W        W29065  29.046  23.920   4.278
60848W        W29066  23.703  43.943   2.905
60849W        W29067  15.727  19.928   4.126
60850W        W29068  11.396  26.794   2.110
60851W        W29069  31.505  28.124  13.476
60852W        W29070   8.677   7.555   3.573
60853W        W29071  28.363  25.406  12.068
60854W        W29072   1.233   8.399  11.930
60855W        W29073  16.163  29.128   0.862
60856W        W29074  30.979  20.386   0.755
60857W        W29075  17.464  20.106   0.511
60858W        W29076  25.845   6.625   0.895
60859W        W29077  35.507  33.764  13.651
60860W        W29078  26.957  13.066  11.508
60861W        W29079  13.635  35.175   5.152
60862W        W29080  14.675  15.377  11.004
60863W        W29081  25.031   1.468   2.559
60864W        W29082  36.504  23.483   3.771
60865W        W29083   6.652  14.897  14.800
60866W        W29084  42.764  21.840  11.836
60867W        W29085  23.338  28.841  10.719
60868W        W29086  29.570  35.581   1.668
60869W        W29087   2.681  12.576   1.236
60870W        W29088   3.862   1.263  12.638
60871W        W29089  13.763  24.182   0.821
60872W        W29090  28.227  42.958  11.563
60873W        W29091  35.955  27.456   1.003
60874W        W29092  17.751  28.515  12.866
60875W        W29093  10.568   0.813  11.494
60876W        W29094  15.890  27.508   3.316
60877W        W29095  12.789   5.143   1.395
60878W        W29096  27.279  18.800  11.590
60879W        W29097  27.584  20.102   2.799
60880W        W29098  23.928  18.096  10.360
60881W        W29099  31.656  16.080   4.080
60882W        W29100   7.842  32.917  10.891
60883W        W29101   7.141  41.557   2.241
60884W        W29102  44.699  19.033   1.231
60885W        W29103  21.455  13.621   3.331
60886W        W29104   0.498  24.415   3.782
60887W        W29105  17.766  33.846  13.165
60888W        W29106  25.964  42.833  13.882
60889W        W29107  39.412  14.116  12.021
60890W        W29108  10.411   8.697   4.425
60891W        W29109  36.496  27.140  12.971
60892W        W29110  14.110  27.255   4.655
60893W        W29111  40.923  18.591  14.790
60894W        W29112   5.127   8.903   4.992
60895W        W29113  31.160  14.177   0.966
60896W        W29114  11.246   5.953  12.972
60897W        W29115  13.684  37.843  14.510
60898W        W29116  16.330  33.172   1.298
60899W        W29117  36.566  13.597  10.707
60900W        W29118  11.934   9.290   1.168
60901W        W29119   9.963  23.631  12.071
60902W        W29120  14.092  31.062  14.784
60903W        W29121  40.111  44.879  11.247
60904W        W29122  33.445  13.121  11.796
60905W        W29123  25.730  10.118   4.128
60906W        W29124  32.686   5.302   4.389
60907W        W29125  36.400  19.659   1.335
60908W        W29126  26.736  38.504  13.520
60909W        W29127  37.224   4.250  14.032
60910W        W29128  43.861   8.828   4.942
60911W        W29129  34.744  15.388   1.236
60912W        W29130  32.127   9.719   4.829
60913W        W29131  14.816  18.073   3.216
60914W        W29132  42.171  20.803  13.306
60915W        W29133  41.479   5.915  14.765
60916W        W29134  18.614  44.081  11.484
60917W        W29135  36.176   9.707  13.284
60918W        W29136  24.202  43.382   4.479
60919W        W29137   1.185  23.461   3.829
60920W        W29138  23.937  25.563   4.698
60921W        W29139  36.098  38.540   2.649
60922W        W29140   9.778  37.312  14.417
60923W        W29141  21.091   5.690  14.482
60924W        W29142  32.045   1.851   0.525
60925W        W29143  40.845  25.200   4.637
60926W        W29144  35.317  11.851  12.531
60927W        W29145   7.249  24.876   0.454
60928W        W29146  26.118   3.378   2.377
60929W        W29147  14.283  32.497   1.271
60930W        W29148  37.761   5.320   1.769
60931W        W29149  25.595  36.554   1.276
60932W        W29150  24.477  15.287  14.946
60933W        W29151  20.596   2.952  12.110
60934W        W29152   6.560   2.213  14.555
60935W        W29153  14.170  26.243  11.660
60936W        W29154  14.552  34.475   3.615
60937W        W29155  32.161  40.496   2.739
60938W        W29156   8.731  22.017  13.908
60939W        W29157   0.750  36.600  10.861
60940W        W29158  16.769  14.112   3.847
60941W        W29159  11.787   4.340   3.169
60942W        W29160  13.656  41.456   3.531
60943W        W29161   4.980  15.154  11.097
60944W        W29162  10.347  38.623   2.765
60945W        W29163  11.908   8.361  14.760
60946W        W29164  40.084  20.212   4.498
60947W        W29165  26.357  14.860  10.665
60948W        W29166  32.089  11.351   2.756
60949W        W29167  17.222   2.260   4.976
60950W        W29168  27.975  30.119   2.806
60951W        W29169  42.022  16.006   3.972
60952W        W29170  32.941  39.971  11.918
60953W        W29171  44.044   4.999   3.712
60954W        W29172  18.552  10.738  13.377
60955W        W29173  31.618  26.687  11.226
60956W        W29174   0.529  38.471  12.881
60957W        W29175  32.918  24.533   4.058
60958W        W29176  35.382  39.872  14.767
60959W        W29177  43.363  33.826   1.489
60960W        W29178  23.606  27.184   1.520
60961W        W29179  13.040  44.826  11.168
60962W        W29180  24.161  35.555   9.954
60963W        W29181   3.465  32.284  10.319
60964W        W29182  43.009  14.303   0.797
60965W        W29183  32.734  25.678  10.433
60966W        W29184   6.907  31.195  11.734
60967W        W29185  41.384  18.084   0.934
60968W        W29186  19.014  13.379   1.702
60969W        W29187  27.594  44.231   2.612
60970W        W29188  27.521  33.615   3.625
60971W        W29189  13.999  21.580  14.051
60972W        W29190  43.281  31.184  12.130
60973W        W29191  34.584   5.052   3.122
60974W        W29192  39.800  37.379  10.594
60975W        W29193   9.202  40.323  12.088
60976W        W29194   9.866  15.825   0.968
60977W        W29195  42.781   4.340  13.450
60978W        W29196   0.931  19.487   0.064
60979W        W29197  22.702   4.975   0.971
60980W        W29198   5.369  44.343  14.223
60981W        W29199  35.542  39.108   3.685
60982W        W29200  26.458  18.022   4.766
60983W        W29201  41.552  40.799   3.184
60984W        W29202   3.152  29.239   0.631
60985W        W29203  10.731   6.143   4.621
60986W        W29204  34.638  37.079   1.480
60987W        W29205  42.939   6.401   1.295
60988W        W29206  27.990  36.938  14.573
60989W        W29207  44.688   4.754   0.426
60990W        W29208   8.348  22.765   2.842
60991W        W29209  26.032   2.264   4.916
60992W        W29210  19.322  32.311   5.075
60993W        W29211  40.987  32.854   3.133
60994W        W29212  24.970   9.685   4.132
60995W        W29213  20.706  30.992   3.004
60996W        W29214  44.899  22.577   3.829
60997W        W29215  17.574  17.233   2.249
60998W        W29216  28.036   0.249   0.668
60999W        W29217  33.218  41.426   2.310
61000W        W29218  31.486   0.474   3.814
61001W        W29219  11.145  12.630   2.488
61002W        W29220  24.300  19.232  10.607
61003W        W29221   8.636  23.603  12.971
61004W        W29222  27.057  29.865   1.945
61005W        W29223  25.220  30.552  13.763
61006W        W29224   6.972  27.248   0.228
61007W        W29225  25.663  27.048   3.286
61008W        W29226   3.934   5.048  14.845
61009W        W29227  12.365  20.606  10.519
61010W        W29228  18.874  21.987   2.339
61011W        W29229  39.013  22.606   4.614
61012W        W29230  27.730  28.609  12.095
61013W        W29231   3.268  20.270  12.594
61014W        W29232  44.411   3.733  11.529
61015W        W29233   7.970  20.992  12.868
61016W        W29234  22.212  19.178   3.237
61017W        W29235   9.754   5.530  11.637
61018W        W29236  33.090   2.986   1.693
61019W        W29237  21.997  23.505   2.314
61020W        W29238  21.053   9.112   2.846
61021W        W29239   4.773  16.186   4.163
61022W        W29240  27.156  10.930  14.862
61023W        W29241  26.825  37.605  14.155
61024W        W29242  14.008  15.793   4.186
61025W        W29243  39.500  15.108   3.651
61026W        W29244  44.964   2.655   2.400
61027W        W29245   3.819   9.246  12.307
61028W        W29246  13.723   2.622  12.358
61029W        W29247  25.688  41.358   4.322
61030W        W29248  42.072  17.049  11.275
61031W        W29249  35.868  19.990   3.722
61032W        W29250  29.431   4.199  12.505
61033W        W29251  14.559   0.930   1.826
61034W        W29252  31.871  10.727  10.722
61035W        W29253  27.363  37.434   2.485
61036W        W29254   8.824  42.531  12.107
61037W        W29255  16.141   5.926   1.294
61038W        W29256  17.982  21.108  11.082
61039W        W29257  32.476  38.776   1.018
61040W        W29258  36.976  31.435   4.572
61041W        W29259  21.128  40.544  14.473
61042W        W29260  31.477   2.474   4.103
61043W        W29261   7.838  20.741   2.513
61044W        W29262  39.011  29.426  13.870
61045W        W29263   9.950  36.052  10.169
61046W        W29264  28.949  28.843   3.163
61047W        W29265   4.898   3.395   3.246
61048W        W29266  12.135  11.096   0.786
61049W        W29267  21.827  25.322  14.827
61050W        W29268  11.617   5.824  12.075
61051W        W29269  36.668  32.949  14.365
61052W        W29270   3.662   9.140  10.917
61053W        W29271   9.358  27.935  12.843
61054W        W29272  32.284  44.739  10.624
61055W        W29273  36.755   9.432   1.937
61056W        W29274  12.954  30.962   1.715
61057W        W29275  34.156   2.917   4.756
61058W        W29276  43.280  10.757  10.974
61059W        W29277  42.947  27.344  12.504
61060W        W29278  27.493  17.052   4.139
61061W        W29279  15.970  43.034  12.483
61062W        W29280  18.090   9.274   2.342
61063W        W29281  22.041  11.705  10.793
61064W        W29282  36.512  38.425  14.485
61065W        W29283   7.132  36.022   4.584
61066W        W29284  31.622   3.837  12.191
61067W        W29285   3.754  43.225  13.379
61068W        W29286  19.165  33.047   4.953
61069W        W29287  22.512  12.682   2.895
61070W        W29288  32.612  11.657  13.844
61071W        W29289  33.443  24.231   4.210
61072W        W29290  40.387  24.043   0.322
61073W        W29291  18.970  40.450   4.514
61074W        W29292   6.208  44.493  10.493
61075W        W29293  24.140  38.036  10.845
61076W        W29294  12.053   0.975   1.805
61077W        W29295   5.409  25.257   0.435
61078W        W29296  25.671  39.602   0.393
61079W        W29297  36.976  26.801   2.690
61080W        W29298  42.204  37.348   1.341
61081W        W29299  18.885  12.445  10.544
61082W        W29300  39.330  24.023   4.632
61083W        W29301  20.328  10.295   1.830
61084W        W29302  34.735   7.397  11.933
61085W        W29303  11.800   8.778  12.452
61086W        W29304   0.561  30.469  14.024
61087W        W29305  34.118  19.257   1.293
61088W        W29306  20.744   5.391  10.872
61089W        W29307  30.557   1.507  12.983
61090W        W29308  22.250   7.996  13.387
61091W        W29309  32.851  37.015  13.143
61092W        W29310  33.836  11.117  13.202
61093W        W29311  17.271   5.577   4.122
61094W        W29312  31.997  31.945  13.984
61095W        W29313  29.953  16.453   4.651
61096W        W29314  18.617   7.293   4.538
61097W        W29315  13.865   9.645   0.198
61098W        W29316  24.146  25.550   0.277
61099W        W29317  40.889  29.953  12.545
61100W        W29318  14.140  28.452   3.814
61101W        W29319   9.955  35.665  10.733
61102W        W29320   8.759  34.458  14.841
61103W        W29321  30.666   5.248  14.589
61104W        W29322  26.131  35.507   1.937
61105W        W29323  10.593  25.279   4.223
61106W        W29324  23.078  39.811   4.031
61107W        W29325  21.532   4.317   4.781
61108W        W29326   9.295  26.882  14.773
61109W        W29327  37.847  30.628   1.459
61110W        W29328  33.039  32.984   0.343
61111W        W29329  14.085  13.562   4.556
61112W        W29330  35.436  23.790  13.359
61113W        W29331  13.328   9.899  13.541
61114W        W29332  35.622  10.786   3.184
61115W        W29333  33.089  34.317   0.231
61116W        W29334  14.300  32.471  10.900
61117W        W29335  15.418  26.017   4.694
61118W        W29336  40.378   1.142  12.558
61119W        W29337  39.361  15.824   0.046
61120W        W29338  37.650  18.129  11.421
61121W        W29339  27.645  17.897   0.868
61122W        W29340  31.935  22.668   3.088
61123W        W29341  27.844   2.396  13.386
61124W        W29342  32.336  22.512  14.838
61125W        W29343  37.326   8.732  12.495
61126W        W29344  28.087   2.711   3.117
61127W        W29345  24.131   7.015   2.551
61128W        W29346  26.993  20.037  12.810
61129W        W29347  30.925  27.028   2.371
61130W        W29348   5.740   4.551   2.437
61131W        W29349  38.399  35.938   4.474
61132W        W29350  25.802  24.056   4.226
61133W        W29351  19.648   7.240  11.101
61134W        W29352  12.206  28.410  12.981
61135W        W29353  37.480  23.716   3.726
61136W        W29354  34.014   5.248  10.156
61137W        W29355   1.402  22.440   0.441
61138W        W29356   6.212  28.915  13.423
61139W        W29357   5.971  37.912  12.448
61140W        W29358  29.905  16.281  13.843
61141W        W29359   9.856  40.943  11.504
61142W        W29360  11.804   6.314  12.010
61143W        W29361  21.682  26.447   3.583
61144W        W29362  23.764  10.420   0.461
61145W        W29363  41.989  17.148   5.103
61146W        W29364   0.878   4.472   1.399
61147W        W29365  29.905  38.056   1.509
61148W        W29366  37.916  17.630  11.516
61149W        W29367  41.511  27.143  10.751
61150W        W29368   0.814  16.370   0.876
61151W        W29369  35.926  37.516  14.318
61152W        W29370  11.312  32.048   4.561
61153W        W29371   5.271  15.813   1.445
61154W        W29372  27.099   3.925  13.611
61155W        W29373  17.298   9.246   4.538
61156W        W29374  26.166  35.843  14.265
61157W        W29375  15.129  30.645  12.376
61158W        W29376   0.720  31.591  10.722
61159W        W29377  12.768   5.863   2.125
61160W        W29378  18.872  25.774   4.053
61161W        W29379  13.978  39.297  10.549
61162W        W29380  42.284  17.704   4.627
61163W        W29381  10.698   2.653   0.309
61164W        W29382  19.689  17.532  13.867
61165W        W29383  18.804  26.878   1.395
61166W        W29384  13.235  39.751   4.199
61167W        W29385  35.119  23.755  14.458
61168W        W29386  39.172  22.737  14.276
61169W        W29387   9.213  43.845  10.418
61170W        W29388   8.704  41.269  14.002
61171W        W29389  22.641  43.036  13.764
61172W        W29390  35.019  12.850   1.449
61173W        W29391  21.893  41.566   2.273
61174W        W29392  24.604  40.511   3.921
61175W        W29393  12.411  40.536   2.264
61176W        W29394  19.571  40.371   1.737
61177W        W29395  14.490   1.834   3.284
61178W        W29396  29.927  39.872   4.793
61179W        W29397  28.032  23.567   0.757
61180W        W29398  13.690  11.877  12.986
61181W        W29399   0.783  34.913   3.295
61182W        W29400  30.559   1.302   1.876
61183W        W29401   9.801  20.368   4.149
61184W        W29402   3.989  41.371  14.528
61185W        W29403   2.917  26.136   1.857
61186W        W29404  26.784   2.920  12.923
61187W        W29405  28.998  39.037  11.898
61188W        W29406  39.751   4.401   4.913
61189W        W29407  21.578   5.457   0.603
61190W        W29408  20.768   3.921   4.278
61191W        W29409   0.261   1.986   1.805
61192W        W29410  35.761   7.628   1.875
61193W        W29411  27.576  43.503  13.958
61194W        W29412  18.642  33.489   2.860
61195W        W29413  35.626  26.679  13.981
61196W        W29414  13.766  26.747   2.649
61197W        W29415  23.570  40.855   2.279
61198W        W29416  13.148  36.466  10.721
61199W        W29417   8.150  13.523  14.761
61200W        W29418  18.690  44.754   3.653
61201W        W29419  30.174  44.829   0.069
61202W        W29420  21.159   6.402  11.679
61203W        W29421  42.981  24.622   2.812
61204W        W29422   0.690  35.363   0.980
61205W        W29423  37.885  21.478   2.273
61206W        W29424  16.694  28.482   2.939
61207W        W29425  10.250  12.716   1.513
61208W        W29426  10.765  13.606  14.328
61209W        W29427  10.255  20.364   3.597
61210W        W29428  30.605   5.414   3.229
61211W        W29429  20.370  43.051   2.709
61212W        W29430  13.686  23.536   4.670
61213W        W29431  31.569  14.271  10.330
61214W        W29432  38.270  11.234   3.237
61215W        W29433   8.174  37.882   0.786
61216W        W29434  33.165  32.142  13.543
61217W        W29435   7.349  35.620  10.737
61218W        W29436  10.693  14.501   5.026
61219W        W29437   8.421  27.392   2.282
61220W        W29438  42.744  13.217  11.999
61221W        W29439   2.321  25.410   0.337
61222W        W29440  24.117   8.323   3.367
61223W        W29441  25.170  39.363   1.836
61224W        W29442   2.192  13.006  12.099
61225W        W29443  32.496   5.201   5.253
61226W        W29444  39.597   3.453  13.500
61227W        W29445  29.381  31.747   0.530
61228W        W29446   0.742  19.721  11.993
61229W        W29447  18.974  20.128  12.071
61230W        W29448  37.552  18.490   0.747
61231W        W29449  21.061  26.153  11.481
61232W        W29450  31.586  15.770   2.431
61233W        W29451   4.805   0.285  12.635
61234W        W29452   7.918  29.162   2.216
61235W        W29453  34.392   5.398   3.436
61236W        W29454  39.361   5.842  12.470
61237W        W29455  38.876  33.701   0.930
61238W        W29456  24.565   6.305  10.398
61239W        W29457  44.620  10.968  12.630
61240W        W29458   0.290  16.168   0.880
61241W        W29459  29.181   8.852  11.560
61242W        W29460  12.817  11.204  12.441
61243W        W29461   8.976  10.005   1.280
61244W        W29462  28.091   4.895   2.253
61245W        W29463   5.685  20.564  11.602
61246W        W29464   7.308  20.008  14.476
61247W        W29465   2.524   2.903   0.446
61248W        W29466  39.520  42.941   3.119
61249W        W29467  15.665  36.135   2.435
61250W        W29468  10.584   8.212   4.620
61251W        W29469  22.202  13.251  14.411
61252W        W29470   0.410  42.730   4.137
61253W        W29471  43.503  19.072   1.713
61254W        W29472  39.974   1.149  11.946
61255W        W29473   1.379  30.027   1.948
61256W        W29474   2.825  36.460   1.619
61257W        W29475  10.668   7.448  10.673
61258W        W29476  13.696   4.223  14.002
61259W        W29477  41.368   1.804  14.125
61260W        W29478  32.864   4.347   2.398
61261W        W29479  22.680  16.580   3.191
61262W        W29480   4.371  28.618   1.757
61263W        W29481  10.094   9.337  14.707
61264W        W29482   5.286  35.350   2.339
61265W        W29483  29.285  29.813  14.452
61266W        W29484  21.178  11.248  11.539
61267W        W29485  26.446  13.237  14.799
61268W        W29486  11.302   9.964   2.383
61269W        W29487   4.961   6.457  14.876
61270W        W29488  12.792  41.984  14.029
61271W        W29489  40.334  20.962   0.224
61272W        W29490   4.562  42.389  13.569
61273W        W29491   0.472  29.906  12.807
61274W        W29492  38.506  19.709  13.049
61275W        W29493   2.224  32.198  12.513
61276W        W29494  10.032   4.639   1.338
61277W        W29495  17.174  44.040  12.473
61278W        W29496  17.273  35.132  11.525
61279W        W29497   3.247  13.994  11.173
61280W        W29498   5.296   5.675   3.141
61281W        W29499  38.043  19.536  11.419
61282W        W29500  22.682  26.683  13.874
61283W        W29501  35.610  30.581   4.860
61284W        W29502  25.119   0.553  11.224
61285W        W29503   4.420   4.192  12.063
61286W        W29504  31.692   5.648   9.895
61287W        W29505  25.353   8.954   5.082
61288W        W29506   1.839  21.251  13.870
61289W        W29507  30.184   4.394  14.870
61290W        W29508  39.279  38.844   1.820
61291W        W29509  26.796  10.632   3.795
61292W        W29510   8.447  29.181   2.191
61293W        W29511  34.478  33.889   2.785
61294W        W29512  31.879  24.417  13.282
61295W        W29513  23.736   1.787   3.356
61296W        W29514  42.254   1.013   2.268
61297W        W29515  28.463  10.669   1.171
61298W        W29516  34.815   2.451  11.064
61299W        W29517  37.887  37.425   4.722
61300W        W29518  17.705  10.701  10.654
61301W        W29519  42.470  29.731   3.274
61302W        W29520   3.492  36.890   0.699
61303W        W29521  28.217  36.582  12.605
61304W        W29522  24.496  41.978   0.417
61305W        W29523  40.086  15.465   9.985
61306W        W29524  12.202  23.209   3.742
61307W        W29525  16.077   6.719   4.163
61308W        W29526   6.919   3.190  11.124
61309W        W29527   1.469  44.730   4.234
61310W        W29528   7.851  15.585   4.536
61311W        W29529  10.198  15.289   1.770
61312W        W29530  28.125  34.110  12.940
61313W        W29531  40.093   5.019  11.505
61314W        W29532  23.222  14.928  11.333
61315W        W29533  25.002   4.985  11.132
61316W        W29534   8.267  21.800  11.625
61317W        W29535   0.284   6.204  12.322
61318W        W29536  43.550  39.730   2.733
61319W        W29537   1.448   9.669   2.676
61320W        W29538  21.111  17.669  14.269
61321W        W29539  43.230  18.272  13.537
61322W        W29540  35.891   6.066   4.625
61323W        W29541  32.365  30.356  14.935
61324W        W29542  33.303   3.782  13.014
61325W        W29543  14.461  44.812   4.125
61326W        W29544  23.006  11.393  11.907
61327W        W29545   5.920  16.527   2.861
61328W        W29546   6.862  10.715   1.486
61329W        W29547   6.443   0.819  12.026
61330W        W29548  15.112  36.978  12.969
61331W        W29549  36.557  42.461   3.863
61332W        W29550  10.863   8.883  10.770
61333W        W29551  30.706  18.651   2.655
61334W        W29552  13.752  44.753   2.822
61335W        W29553   2.474   5.405  12.839
61336W        W29554  35.564  28.580  11.127
61337W        W29555  26.150  22.996   3.865
61338W        W29556  30.939   8.890   0.416
61339W        W29557  14.096   0.979  12.656
61340W        W29558  21.722  22.922   4.127
61341W        W29559   5.838   9.405  14.514
61342W        W29560  16.775   0.018   0.350
61343W        W29561  35.082  17.116   1.049
61344W        W29562  20.255  35.360  11.606
61345W        W29563   6.838  34.958  10.442
61346W        W29564  11.321  42.530  14.448
61347W        W29565  37.740  27.591  13.449
61348W        W29566  20.587  32.849  14.533
61349W        W29567  42.115  11.855  13.639
61350W        W29568  25.121  16.307  12.043
61351W        W29569   9.301  28.898  12.074
61352W        W29570   1.829  15.270   1.793
61353W        W29571   2.346  21.089  14.786
61354W        W29572  20.035  27.189  14.030
61355W        W29573  14.848  20.250   4.167
61356W        W29574   6.911  11.210  14.550
61357W        W29575  21.193   0.292   3.069
61358W        W29576  13.671  10.706   3.567
61359W        W29577   6.864  40.354   0.323
61360W        W29578  26.336  37.321  14.267
61361W        W29579   6.329  41.891   1.961
61362W        W29580   6.300  11.749  12.983
61363W        W29581   1.980  11.763   4.678
61364W        W29582  23.224   7.602   4.224
61365W        W29583  22.882  14.928   2.672
61366W        W29584   0.913  40.428   3.619
61367W        W29585   0.555  35.406   4.836
61368W        W29586  31.358   1.094  10.264
61369W        W29587  28.675  31.257  14.060
61370W        W29588   0.724  30.006   3.914
61371W        W29589  25.343   7.272  14.078
61372W        W29590  17.206  38.116  14.956
61373W        W29591  40.830  19.682  11.200
61374W        W29592  15.842  19.213  12.597
61375W        W29593  32.837  23.051   1.378
61376W        W29594   6.449  44.194   1.884
61377W        W29595  25.731   0.869   3.333
61378W        W29596  39.108   3.467  12.799
61379W        W29597  25.398   9.781  11.965
61380W        W29598  42.347   5.762   1.778
61381W        W29599  25.726  38.524  10.568
61382W        W29600  28.974  29.899   1.402
61383W        W29601  24.649  20.630   4.371
61384W        W29602  40.665  29.089  13.007
61385W        W29603   0.312  37.678  11.243
61386W        W29604  32.165  23.795   0.351
61387W        W29605   8.143  38.548  14.024
61388W        W29606  37.802   8.448   0.338
61389W        W29607  20.749  24.706   0.359
61390W        W29608  40.801   8.622  14.835
61391W        W29609  11.247  30.079   4.530
61392W        W29610  30.851  25.428  11.189
61393W        W29611  27.913  42.472   3.737
61394W        W29612  25.010  17.073   4.099
61395W        W29613   8.151  12.800  12.427
61396W        W29614  23.742  42.503   4.264
61397W        W29615   1.850  35.981   4.670
61398W        W29616  20.177   8.460   5.270
61399W        W29617  17.863  23.460  13.578
61400W        W29618  11.238  17.058  14.406
61401W        W29619  29.096  44.703   0.442
61402W        W29620  38.199  33.424  10.226
61403W        W29621  10.610  10.301  11.143
61404W        W29622  39.022  24.479  14.601
61405W        W29623   8.700   8.467  11.210
61406W        W29624  10.569  30.647  11.580
61407W        W29625  35.835   0.321  14.426
61408W        W29626  30.275  40.884   2.825
61409W        W29627  41.031  15.104   4.085
61410W        W29628  15.254  43.781  14.987
61411W        W29629  34.924  10.315   0.386
61412W        W29630   3.863  40.903  14.363
61413W        W29631   6.287  42.001  12.766
61414W        W29632  23.005  33.900   2.416
61415W        W29633  27.577  11.280  10.714
61416W        W29634  21.240  18.697  12.845
61417W        W29635  13.759   8.676   1.412
61418W        W29636  15.316  40.479   4.103
61419W        W29637  18.143  39.587  14.516
61420W        W29638  21.837  35.107   2.838
61421W        W29639  39.506  37.849  14.912
61422W        W29640  11.671   1.533   9.933
61423W        W29641  41.309  14.746  12.173
61424W        W29642  20.088   3.504  12.433
61425W        W29643  19.207  22.220  11.571
61426W        W29644  14.148  26.760  11.670
61427W        W29645  26.379  17.617  10.111
61428W        W29646  14.907  26.141  13.116
61429W        W29647  27.468  25.725   3.890
61430W        W29648  10.506  27.846  11.615
61431W        W29649  26.087  25.223   2.941
61432W        W29650   4.540  14.020  14.293
61433W        W29651  18.295   3.372  14.954
61434W        W29652  42.486   2.773  11.969
61435W        W29653   0.133  14.172  12.069
61436W        W29654  36.881  26.468   3.346
61437W        W29655   4.936  39.485  14.058
61438W        W29656  33.068  10.384  13.960
61439W        W29657   8.437  35.456  11.531
61440W        W29658  21.304  34.120   1.705
61441W        W29659  37.306  33.890   1.698
61442W        W29660   5.552  27.990   9.821
61443W        W29661  44.339  29.225   4.110
61444W        W29662  21.676  23.013  14.729
61445W        W29663  14.855   6.671  13.569
61446W        W29664  38.633  24.648  11.228
61447W        W29665  26.912  43.980   2.840
61448W        W29666  11.405  37.064   3.523
61449W        W29667  27.211   0.050   0.501
61450W        W29668  41.016  28.667  13.896
61451W        W29669  20.270  34.652   1.443
61452W        W29670  16.675  20.156  10.507
61453W        W29671   3.495  11.168   3.131
61454W        W29672   9.759  15.292  13.431
61455W        W29673  44.931  29.043   4.370
61456W        W29674  12.076  30.502  11.130
61457W        W29675  21.696   2.222   1.776
61458W        W29676  28.880  41.981   1.312
61459W        W29677   1.063  26.596  12.550
61460W        W29678  39.457   0.774   0.708
61461W        W29679  22.306  30.558  14.502
61462W        W29680  44.265   3.362   2.341
61463W        W29681  10.140   7.346  13.811
61464W        W29682  26.757  18.301  13.933
61465W        W29683  32.587   9.524   3.521
61466W        W29684  34.951   1.014   2.854
61467W        W29685  16.392   9.828  14.812
61468W        W29686  40.537  33.763  11.787
61469W        W29687  35.123  36.106  11.400
61470W        W29688   5.981   1.462   3.120
61471W        W29689  24.309  31.399  13.116
61472W        W29690   7.826  19.574   0.179
61473W        W29691  41.329  22.073   0.308
61474W        W29692  26.959   6.646  12.468
61475W        W29693  16.299  11.069  10.155
61476W        W29694  36.363   1.646   3.049
61477W        W29695  28.447  22.722  11.429
61478W        W29696  18.033   7.962   2.137
61479W        W29697  36.880  39.371  14.429
61480W        W29698  30.212  26.659  14.555
61481W        W29699   3.715   8.591   2.901
61482W        W29700   3.126  28.962  12.639
61483W        W29701  12.297  33.469  12.840
61484W        W29702  17.884  11.516  14.554
61485W        W29703  16.205   7.131   2.481
61486W        W29704   7.952  34.448   3.151
61487W        W29705   5.725  31.423   3.696
61488W        W29706   5.042  14.219   0.877
61489W        W29707  38.328  11.004   1.779
61490W        W29708  26.191  32.918   1.135
61491W        W29709  18.103  41.696  12.523
61492W        W29710  15.546  19.877   3.671
61493W        W29711  38.769  38.506  12.082
61494W        W29712  31.220  34.862   2.774
61495W        W29713  32.934  31.413   4.540
61496W        W29714  24.645  16.588  12.175
61497W        W29715  10.870  27.601  12.074
61498W        W29716  23.992  27.077   4.587
61499W        W29717  10.210  20.313   1.769
61500W        W29718  12.254  13.085  13.835
61501W        W29719   9.334  25.095   1.463
61502W        W29720  16.676  22.449  13.891
61503W        W29721  20.724  21.731   3.558
61504W        W29722  36.431   6.459  13.081
61505W        W29723  12.362  10.061   3.018
61506W        W29724  16.339   2.235   0.447
61507W        W29725  41.972   3.666   5.351
61508W        W29726  20.055   4.871   4.547
61509W        W29727  15.520  10.974  11.712
61510W        W29728  34.973  42.495   4.882
61511W        W29729  10.248  16.804   2.720
61512W        W29730  32.424  36.470  11.947
61513W        W29731  13.824   7.258  12.958
61514W        W29732   4.378  28.512   2.666
61515W        W29733  21.983  21.433  10.529
61516W        W29734   0.303  16.767   3.611
61517W        W29735  26.584  20.640   4.888
61518W        W29736  24.532   7.197   0.612
61519W        W29737   6.447  42.913   3.641
61520W        W29738  11.492  33.028  12.458
61521W        W29739   4.941  11.661  12.633
61522W        W29740  41.006  20.686   0.507
61523W        W29741  20.789   3.194   2.799
61524W        W29742  34.558  28.558   1.619
61525W        W29743  14.836  35.485  12.934
61526W        W29744   9.270   9.693  11.641
61527W        W29745  33.537  16.791  11.740
61528W        W29746  32.576   2.830  11.664
61529W        W29747  19.427  32.653   1.315
61530W        W29748  19.713   9.169  12.451
61531W        W29749   1.526  27.936   4.922
61532W        W29750  17.371  35.478   1.677
61533W        W29751  22.144   3.312   0.267
61534W        W29752   5.954  34.289  14.326
61535W        W29753  31.166  36.645   0.769
61536W        W29754   4.224   7.290   2.327
61537W        W29755  35.987  13.050   3.814
61538W        W29756  42.491  23.545  11.398
61539W        W29757  37.252   7.430  11.275
61540W        W29758   2.729  27.878  12.148
61541W        W29759  31.326  42.962  11.235
61542W        W29760  36.258  27.736   1.791
61543W        W29761  33.593   0.034  11.626
61544W        W29762  39.472  37.153   3.789
61545W        W29763  41.290  39.319   4.337
61546W        W29764  27.141   2.357   3.218
61547W        W29765  11.685   0.190   0.847
61548W        W29766   2.700  21.859   0.798
61549W        W29767  31.414  30.379  10.643
61550W        W29768  10.827  19.076  12.247
61551W        W29769   7.517  32.481   3.554
61552W        W29770  30.112  33.956  12.577
61553W        W29771  20.497  27.618  14.909
61554W        W29772  17.112   5.917  12.000
61555W        W29773  29.000  35.104  14.451
61556W        W29774  25.699  39.202   0.028
61557W        W29775  19.116   8.783   0.848
61558W        W29776   7.708   0.791  11.560
61559W        W29777  15.665  30.838   4.662
61560W        W29778  39.950  39.799  11.394
61561W        W29779  44.092  34.902   4.667
61562W        W29780  39.536  33.628  13.005
61563W        W29781  27.567   7.232   2.177
61564W        W29782  33.113   8.029  14.308
61565W        W29783  11.424   0.930  10.764
61566W        W29784  30.599  36.939   3.126
61567W        W29785  28.124   3.508   4.080
61568W        W29786   8.408  40.005  12.785
61569W        W29787  44.953  19.184  11.683
61570W        W29788  30.486  13.070   1.949
61571W        W29789  43.180  41.175   1.759
61572W        W29790  42.836  21.435   2.650
61573W        W29791  19.279  27.115   1.070
61574W        W29792  23.343  26.710   2.601
61575W        W29793  35.270  27.164   4.199
61576W        W29794   7.789   6.564   1.845
61577W        W29795  22.620  30.923  13.747
61578W        W29796  14.067  11.592  11.600
61579W        W29797  43.182  24.441   0.238
61580W        W29798  36.395  17.120  10.690
61581W        W29799  12.886  23.465  12.420
61582W        W29800  11.172   7.224  14.360
61583W        W29801  29.510  11.825   3.070
61584W        W29802  37.881   5.989   0.027
61585W        W29803   4.124   0.658   2.185
61586W        W29804   2.002  12.554   3.310
61587W        W29805  14.206  21.096  14.063
61588W        W29806  31.658   6.818  11.982
61589W        W29807   3.225  23.922  13.875
61590W        W29808  27.205  44.696  13.590
61591W        W29809  42.289  39.706  12.533
61592W        W29810  39.002  37.141  10.658
61593W        W29811  19.082   3.774   2.886
61594W        W29812  28.151  21.621   4.283
61595W        W29813  31.534   8.738   0.732
61596W        W29814   6.685  29.644   0.751
61597W        W29815  34.365  16.271  10.545
61598W        W29816  42.061  34.449   1.626
61599W        W29817  31.075   3.866  14.953
61600W        W29818  42.615   5.736  12.445
61601W        W29819  28.671  23.271  12.478
61602W        W29820  35.815  29.109  11.488
61603W        W29821  12.739  11.103   1.342
61604W        W29822  41.079  17.550   1.910
61605W        W29823  44.432  18.028  13.024
61606W        W29824  11.571   4.104   0.882
61607W        W29825  38.827   7.456   0.988
61608W        W29826   7.064   0.368  14.226
61609W        W29827  15.073  32.520   1.785
61610W        W29828   4.319  36.920   0.704
61611W        W29829  33.680  34.550  13.899
61612W        W29830  43.831  16.352   2.925
61613W        W29831  40.914  25.542  14.511
61614W        W29832  27.652  29.434  13.430
61615W        W29833  34.319  35.526   1.731
61616W        W29834  20.143   8.219   0.233
61617W        W29835  16.499  11.171  11.508
61618W        W29836  10.655  29.696  11.427
61619W        W29837  16.002   9.109   1.763
61620W        W29838   4.211  18.097   2.168
61621W        W29839  41.894  41.422  12.797
61622W        W29840  43.442  36.267  10.312
61623W        W29841  15.182  38.828  13.003
61624W        W29842  14.225  42.296   2.867
61625W        W29843  36.117  21.288  12.435
61626W        W29844  42.005  31.071  13.518
61627W        W29845  37.062   9.717  11.006
61628W        W29846   3.824  13.897   3.845
61629W        W29847  19.089  42.929  13.352
61630W        W29848  15.777  29.076  11.145
61631W        W29849  25.688   6.916  13.960
61632W        W29850  17.724  23.048   3.734
61633W        W29851  21.568  33.537   0.242
61634W        W29852  14.699   8.700  11.247
61635W        W29853  35.480  39.680  11.600
61636W        W29854   9.519  17.617  11.699
61637W        W29855  26.008  40.827  13.814
61638W        W29856  34.652   8.411   0.830
61639W        W29857  20.509   3.967   2.320
61640W        W29858  10.133  18.321   0.859
61641W        W29859  27.038  11.147  14.387
61642W        W29860  26.680  27.640  11.102
61643W        W29861   7.275   6.982  14.230
61644W        W29862   4.543  29.188  10.336
61645W        W29863   5.837  26.556  11.117
61646W        W29864  29.271  18.318  14.503
61647W        W29865  12.396  22.685   2.918
61648W        W29866  18.169  12.096   2.090
61649W        W29867  19.694  23.256  13.015
61650W        W29868  19.689  10.662   0.908
61651W        W29869  38.561  40.344  14.424
61652W        W29870  24.063  21.492   0.234
61653W        W29871  19.667  12.690   4.206
61654W        W29872  21.506   7.707  12.051
61655W        W29873   5.197  44.922  11.407
61656W        W29874  18.421  23.032   0.459
61657W        W29875  19.944   8.355   3.219
61658W        W29876   0.089   6.604  11.039
61659W        W29877   5.001  25.748  11.666
61660W        W29878   6.893  25.382  13.398
61661W        W29879  31.188  42.512  14.280
61662W        W29880   8.801  18.251  12.578
61663W        W29881  29.600   9.986  14.745
61664W        W29882  42.941  20.965   4.082
61665W        W29883  27.652  17.104   2.331
61666W        W29884  15.358   2.965   0.702
61667W        W29885  26.334   6.753  13.285
61668W        W29886  29.348  13.662   3.551
61669W        W29887  42.664  18.554   0.876
61670W        W29888   5.271  14.812   3.090
61671W        W29889  34.931  27.430  13.332
61672W        W29890   4.216  44.972   3.719
61673W        W29891   5.744  29.830   0.675
61674W        W29892  33.939  17.494  11.481
61675W        W29893  37.395  39.996   4.935
61676W        W29894   9.364   7.656  11.274
61677W        W29895  20.583  15.859   1.310
61678W        W29896  25.188  32.093   1.997
61679W        W29897   7.178   1.757   0.918
61680W        W29898  26.131  10.129   1.565
61681W        W29899   8.606  27.255  13.415
61682W        W29900  11.783  17.769  11.517
61683W        W29901   2.362  44.655  12.045
61684W        W29902  39.620  42.443  12.298
61685W        W29903   3.797  18.612   0.507
61686W        W29904  40.928  16.314   0.792
61687W        W29905  17.710  12.076   9.670
61688W        W29906  15.014  14.411   2.785
61689W        W29907  26.150  27.458  11.951
61690W        W29908  40.953   1.471   0.979
61691W        W29909  28.667  22.152   0.802
61692W        W29910  38.021   8.817   0.669
61693W        W29911  37.984  13.216   4.535
61694W        W29912  34.585  41.280  11.049
61695W        W29913  28.669  28.057   3.867
61696W        W29914  32.805   8.925   2.218
61697W        W29915  44.086   0.023   2.227
61698W        W29916  29.324  40.604  13.373
61699W        W29917   8.042  34.122   3.812
61700W        W29918  38.288   2.705  11.662
61701W        W29919  13.937  16.835   4.105
61702W        W29920  26.696  39.771   4.249
61703W        W29921  42.982  13.264  10.633
61704W        W29922  25.570   7.479  14.867
61705W        W29923  29.403  44.354   3.776
61706W        W29924  22.123  36.812   1.265
61707W        W29925  17.258  22.700  10.296
61708W        W29926  34.141  37.643   3.138
61709W        W29927  14.585  20.131   0.968
61710W        W29928  44.495   1.943   3.242
61711W        W29929   6.624  33.533   4.562
61712W        W29930  20.558  32.698   3.357
61713W        W29931  17.130   9.157  10.892
61714W        W29932  35.613  14.171  11.175
61715W        W29933  35.341  10.854   2.335
61716W        W29934   8.994  17.639   1.323
61717W        W29935  18.961  16.826  10.116
61718W        W29936  40.417   5.362   4.410
61719W        W29937   0.965  19.921  11.545
61720W        W29938   6.673   1.154  11.235
61721W        W29939  32.779  30.460   3.510
61722W        W29940  24.221   6.245  11.714
61723W        W29941  23.484  33.839  10.676
61724W        W29942  41.683   8.357  12.491
61725W        W29943  41.050  33.153  14.472
61726W        W29944  16.633  23.775  13.542
61727W        W29945  15.232   8.448  14.042
61728W        W29946  39.503   8.790  10.736
61729W        W29947  19.119   6.221  13.781
61730W        W29948  31.965  24.751   4.978
61731W        W29949  35.974  10.211  11.145
61732W        W29950  23.575  14.989  14.433
61733W        W29951  24.208  19.285  12.168
61734W        W29952  38.602  28.586  11.159
61735W        W29953  15.225  37.419   1.765
61736W        W29954   9.392  11.801  13.102
61737W        W29955  23.421  39.912  14.174
61738W        W29956  33.983  38.814   3.041
61739W        W29957  44.206  39.915  13.893
61740W        W29958  28.222  22.820   1.783
61741W        W29959  41.904   3.425  12.252
61742W        W29960  38.120  22.951   2.271
61743W        W29961  37.536  27.127  10.959
61744W        W29962   0.904  20.311   4.605
61745W        W29963  36.884  21.572  13.952
61746W        W29964  28.180  19.220   0.801
61747W        W29965  31.580   6.183   5.508
61748W        W29966  35.090  15.178   2.629
61749W        W29967   1.996   1.937   4.183
61750W        W29968   7.116  13.237  13.278
61751W        W29969   4.668  13.285  10.451
61752W        W29970  33.962   9.658  14.756
61753W        W29971  32.389  38.952  13.427
61754W        W29972   3.120  18.128  12.007
61755W        W29973   7.858  21.580   2.453
61756W        W29974  16.298  15.845  11.390
61757W        W29975  34.665  26.518  11.396
61758W        W29976   0.386  17.192  12.545
61759W        W29977  43.585  30.955  12.470
61760W        W29978   6.784  17.074   3.716
61761W        W29979   0.261   2.782  14.411
61762W        W29980  36.252   2.004   2.663
61763W        W29981  30.194  35.044   2.777
61764W        W29982  25.477   6.983   0.802
61765W        W29983  38.428  31.716  12.879
61766W        W29984  44.986   4.932   1.785
61767W        W29985  39.057  33.398  12.989
61768W        W29986  29.790  17.303   0.372
61769W        W29987  27.842  10.353  13.413
61770W        W29988  30.940  19.976   1.674
61771W        W29989  44.447   5.249  13.945
61772W        W29990   4.005  24.132  12.604
61773W        W29991   4.692  28.164   2.381
61774W        W29992   9.523   0.240  12.534
61775W        W29993  38.993  30.234  10.592
61776W        W29994  42.989   8.638   4.853
61777W        W29995  30.571  19.273  12.501
61778W        W29996  32.686  27.956  12.469
61779W        W29997  16.107  31.173   0.191
61780W        W29998   2.037  10.440   4.698
61781W        W29999  37.309  17.702  14.796
61782W        W30000  27.606  37.287  10.189
61783W        W30001  38.983  31.890   2.273
61784W        W30002  24.794  15.228   2.692
61785W        W30003   4.210  13.117   2.858
61786W        W30004  34.812  19.351   2.332
61787W        W30005  20.549   1.364   2.880
61788W        W30006   3.179   2.172   1.766
61789W        W30007  19.311  13.396  13.540
61790W        W30008   1.736   2.336   4.430
61791W        W30009  28.939  26.545   4.959
61792W        W30010  16.833  11.852   0.970
61793W        W30011  18.542  43.817  10.663
61794W        W30012  39.382  20.297   4.070
61795W        W30013   9.317  35.555   2.022
61796W        W30014   5.411  32.846  11.972
61797W        W30015  21.586  40.333  14.355
61798W        W30016  15.248  10.829   3.061
61799W        W30017   0.496   2.371   2.813
61800W        W30018   9.686  23.029   0.017
61801W        W30019  33.479  21.446   0.970
61802W        W30020  18.736  12.000  10.229
61803W        W30021  15.383  34.460  14.777
61804W        W30022  28.753  22.763   0.029
61805W        W30023  14.042  19.082   2.742
61806W        W30024   3.502  40.001  12.045
61807W        W30025  29.397  12.407   4.117
61808W        W30026   0.690   7.908   2.872
61809W        W30027  24.942  20.559  11.125
61810W        W30028  29.508  23.902  13.754
61811W        W30029  28.418  20.822   1.477
61812W        W30030  37.627   0.980  12.386
61813W        W30031  27.191  35.044  10.755
61814W        W30032  17.264  37.836  14.512
61815W        W30033  32.441  29.965  12.149
61816W        W30034  10.927  41.938  12.134
61817W        W30035  42.483  32.169  12.587
61818W        W30036  19.505   3.949  13.768
61819W        W30037   6.443  43.289   4.052
61820W        W30038   9.600  39.973   4.142
61821W        W30039  34.203  42.367  11.090
61822W        W30040  27.421   3.040  13.563
61823W        W30041  14.269  13.707   0.624
61824W        W30042  34.052  40.259  10.834
61825W        W30043   0.570   4.707   0.758
61826W        W30044  22.524  35.849   0.823
61827W        W30045  13.899  43.560  12.510
61828W        W30046   7.860  12.186  11.609
61829W        W30047  29.448  32.994   0.019
61830W        W30048  35.217  31.819  11.163
61831W        W30049  26.741  21.528   1.688
61832W        W30050  19.435   9.527  13.072
61833W        W30051  13.530  29.109  11.261
61834W        W30052  30.235  40.495   4.052
61835W        W30053  27.680  41.810   0.156
61836W        W30054  41.742   5.163   4.600
61837W        W30055  16.783  31.001  12.389
61838W        W30056  26.762  38.900  11.665
61839W        W30057  29.591  30.116   0.805
61840W        W30058  43.432  24.306   0.690
61841W        W30059  26.502   1.869   4.647
61842W        W30060  36.434  14.268   4.973
61843W        W30061  38.494  24.738  13.515
61844W        W30062  17.280  12.215   9.923
61845W        W30063  41.402  43.653  11.707
61846W        W30064  44.803  43.430  12.120
61847W        W30065  35.805  29.683   0.909
61848W        W30066  27.073  18.644   0.695
61849W        W30067  35.995   4.439  13.497
61850W        W30068  12.116  18.375   3.146
61851W        W30069  24.289   2.207  13.973
61852W        W30070  34.586  43.054   3.690
61853W        W30071  15.699  24.253   1.773
61854W        W30072   5.902   9.079  10.495
61855W        W30073  14.801  33.365  11.222
61856W        W30074  28.522  12.853   2.819
61857W        W30075  39.605   6.873   4.296
61858W        W30076  37.377  26.474   4.569
61859W        W30077  19.691  15.154  10.726
61860W        W30078  43.826  39.401  11.685
61861W        W30079   7.754  42.258   0.894
61862W        W30080  39.868   3.331  14.258
61863W        W30081  11.763   9.471  11.944
61864W        W30082  16.679  42.800  12.991
61865W        W30083  20.716   0.717   0.432
61866W        W30084  15.659  21.973  10.748
61867W        W30085  43.527   5.375  10.654
61868W        W30086  27.856  27.937   1.379
61869W        W30087   3.699   6.560  14.472
61870W        W30088  25.435   6.678  14.411
61871W        W30089  27.354  30.926   2.769
61872W        W30090  25.976  18.216  13.546
61873W        W30091   1.854  22.384   2.617
61874W        W30092  21.801  15.241   2.796
61875W        W30093  16.361  28.154  14.852
61876W        W30094  41.899  13.626   0.656
61877W        W30095  31.675  25.546   0.276
61878W        W30096  25.959   1.914  10.027
61879W        W30097  29.638  10.838  12.104
61880W        W30098  10.843  37.506  12.383
61881W        W30099   4.783  34.910  10.791
61882W        W30100  16.219   9.416  12.148
61883W        W30101  35.865  27.448   0.463
61884W        W30102  39.837   7.961  12.098
61885W        W30103  33.266   0.285  11.906
61886W        W30104  24.676  41.074  13.969
61887W        W30105   3.771  26.426  11.186
61888W        W30106  32.652  15.431   3.197
61889W        W30107   0.088  33.982  10.692
61890W        W30108  29.728  38.127  13.348
61891W        W30109  39.452  33.088  13.278
61892W        W30110  32.623   6.969  12.059
61893W        W30111  33.600  19.352  11.941
61894W        W30112  10.094  27.009  14.487
61895W        W30113  14.254  14.989  12.252
61896W        W30114  37.867  34.966  14.350
61897W        W30115  22.404  40.572   0.899
61898W        W30116  30.426  10.895  13.882
61899W        W30117  13.217  13.328  11.199
61900W        W30118  43.903  42.044  13.800
61901W        W30119  14.151  12.109   0.243
61902W        W30120   5.726  11.803  10.713
61903W        W30121  23.960  44.513  11.294
61904W        W30122  35.088  38.391  12.461
61905W        W30123  37.933  40.843   0.909
61906W        W30124  27.481   2.977   0.550
61907W        W30125  21.088   4.309   2.031
61908W        W30126  32.474   2.273   2.697
61909W        W30127   6.335  22.223   2.536
61910W        W30128  20.569  38.784   2.000
61911W        W30129  16.128  23.738  13.810
61912W        W30130  27.536   8.886  14.873
61913W        W30131  33.097   9.234   2.539
61914W        W30132  40.330  26.752  10.589
61915W        W30133   9.178   8.734   4.114
61916W        W30134  14.172  29.460   3.189
61917W        W30135   3.986  31.419   3.244
61918W        W30136  24.720  15.746  11.575
61919W        W30137  17.342   7.930   0.577
61920W        W30138  33.536  25.590   2.302
61921W        W30139  24.055   4.233   4.552
61922W        W30140  25.982  19.423   1.166
61923W        W30141  41.291   8.902  12.522
61924W        W30142   4.393  19.713   1.118
61925W        W30143   0.120  18.576   4.010
61926W        W30144   8.279  43.022  14.848
61927W        W30145   9.379  24.564  10.627
61928W        W30146  26.052  21.798  10.307
61929W        W30147  29.867  36.437   1.004
61930W        W30148  15.364  37.013   0.299
61931W        W30149  33.906  25.291  13.580
61932W        W30150  35.774  12.599  11.657
61933W        W30151  21.787  32.881  11.973
61934W        W30152  13.969  34.113  11.921
61935W        W30153   3.348  28.034   1.885
61936W        W30154   3.936  13.584  13.873
61937W        W30155  22.959   8.445  14.948
61938W        W30156  17.702   1.122   9.720
61939W        W30157  37.488  34.904   0.872
61940W        W30158   8.689  36.204  13.030
61941W        W30159   9.624   8.186   2.652
61942W        W30160  36.691  28.457   0.515
61943W        W30161  22.969  14.123   4.145
61944W        W30162  17.076  33.128  10.252
61945W        W30163  26.359   8.412   2.459
61946W        W30164   3.054  10.860  14.852
61947W        W30165   8.866   3.732  11.000
61948W        W30166   3.391   4.311  12.054
61949W        W30167  27.955  35.483  13.898
61950W        W30168  40.965  16.048  12.023
61951W        W30169  29.660  30.908   2.353
61952W        W30170  32.615  36.444  11.458
61953W        W30171  14.661  17.256   3.653
61954W        W30172   1.969  43.001  11.426
61955W        W30173  38.324  44.547  11.156
61956W        W30174  27.539  41.096   0.889
61957W        W30175   9.363   3.847  12.046
61958W        W30176   0.813  26.533  10.652
61959W        W30177  44.719  40.995  14.683
61960W        W30178  19.586  21.377  11.552
61961W        W30179   0.384   4.425   1.158
61962W        W30180  43.338  16.279   4.626
61963W        W30181  29.568   5.015   4.065
61964W        W30182  26.393  21.925   1.828
61965W        W30183  44.692  13.769   4.198
61966W        W30184  35.415  40.990   1.713
61967W        W30185   4.516   9.614  13.456
61968W        W30186   1.993  29.626  14.309
61969W        W30187  14.388  10.156   4.386
61970W        W30188  13.791  28.077   3.102
61971W        W30189  25.210  24.387  11.575
61972W        W30190  14.252  14.346   1.817
61973W        W30191  17.758   5.929  13.924
61974W        W30192  19.606  22.219   4.265
61975W        W30193  40.872  34.356   2.213
61976W        W30194   3.140  33.021   2.214
61977W        W30195  23.721  27.990  13.844
61978W        W30196  16.955  35.321   3.664
61979W        W30197  19.762  12.594  10.426
61980W        W30198   1.675  38.375  13.384
61981W        W30199   4.356  35.610   3.640
61982W        W30200  31.610   0.178  11.390
61983W        W30201  37.111   1.587  10.269
61984W        W30202  18.124   2.668  13.099
61985W        W30203  25.115  37.899   2.441
61986W        W30204  32.538  13.869   1.412
61987W        W30205  44.096   4.276   0.789
61988W        W30206  13.374  23.617   2.812
61989W        W30207   3.838  30.339   1.923
61990W        W30208  33.142   2.522   1.470
61991W        W30209  44.892   4.228   4.370
61992W        W30210   8.396  43.740   1.446
61993W        W30211   1.990  16.797   3.259
61994W        W30212  32.468  19.958   3.141
61995W        W30213  23.348  11.897  14.472
61996W        W30214  31.645  33.875  11.087
61997W        W30215  29.988  43.305  13.566
61998W        W30216   3.220  27.555   1.739
61999W        W30217  20.829  41.509  12.888
62000W        W30218   7.464  36.926  14.120
62001W        W30219   4.256   8.801  13.053
62002W        W30220   4.302  24.334   4.298
62003W        W30221  35.250   7.920  11.130
62004W        W30222  30.474   4.932   3.112
62005W        W30223  21.285   4.188  11.081
62006W        W30224  12.508  24.317   1.287
62007W        W30225  16.867  35.385   0.922
62008W        W30226  39.973   4.793   2.101
62009W        W30227  29.758  33.439  14.984
62010W        W30228  12.865  38.021  14.111
62011W        W30229  39.820  29.399   3.180
62012W        W30230  39.926  34.989   3.263
62013W        W30231  39.951   4.352  13.325
62014W        W30232  37.764  31.861   2.822
62015W        W30233   2.823  44.730   2.180
62016W        W30234  43.831  21.569  11.331
62017W        W30235  18.752  19.506  10.667
62018W        W30236   0.913   1.518   2.234
62019W        W30237  29.584  11.883  11.237
62020W        W30238   5.942  10.895  14.503
62021W        W30239  12.879   3.327   0.223
62022W        W30240   9.398  26.629  12.530
62023W        W30241   5.166  14.738  10.591
62024W        W30242  17.190   9.189  14.249
62025W        W30243  37.371  36.955   3.446
62026W        W30244   5.680  21.413   3.190
62027W        W30245  44.913  10.822   3.055
62028W        W30246  26.470  26.641  14.638
62029W        W30247  36.370  29.681  11.169
62030W        W30248  39.844  34.838   4.259
62031W        W30249   6.521  32.464  12.531
62032W        W30250  24.551  19.213   2.753
62033W        W30251   8.448   2.900  13.411
62034W        W30252  10.774  39.957   3.374
62035W        W30253  20.480  22.518  11.034
62036W        W30254  38.952   0.428   4.176
62037W        W30255   5.536  28.608  12.941
62038W        W30256  27.249  14.093  14.033
62039W        W30257  18.521   2.790  11.097
62040W        W30258  41.233  39.563   4.787
62041W        W30259  41.769   3.951  13.946
62042W        W30260  12.721   3.861  14.938
62043W        W30261  19.121  16.247   4.040
62044W        W30262   9.269  41.524   2.939
62045W        W30263  23.149  36.805   1.409
62046W        W30264   8.589  19.115  12.057
62047W        W30265   3.744  26.501   5.099
62048W        W30266  20.979  35.477   5.415
62049W        W30267   2.812  14.881  14.134
62050W        W30268   1.847  28.964  12.590
62051W        W30269  11.614  20.055   2.235
62052W        W30270  29.262  32.618  11.664
62053W        W30271  41.234   0.957   3.136
62054W        W30272  10.279  40.797   4.658
62055W        W30273  24.687  43.553  11.523
62056W        W30274   0.876  44.020   9.575
62057W        W30275  27.302  17.786   4.648
62058W        W30276  34.284  23.591  12.931
62059W        W30277  41.805  11.834   3.405
62060W        W30278   0.302  34.594  11.190
62061W        W30279  12.364  27.757   1.904
62062W        W30280  13.685  39.291   3.833
62063W        W30281  26.583  37.422   4.512
62064W        W30282   0.524  24.240  11.113
62065W        W30283  34.412   9.237   4.503
62066W        W30284  13.939  35.517   4.911
62067W        W30285   5.144   9.825  12.435
62068W        W30286   8.862  12.599   3.687
62069W        W30287  17.841   2.916  11.685
62070W        W30288  25.777  20.695   0.524
62071W        W30289  10.429  12.812  11.051
62072W        W30290  17.316  30.635   3.595
62073W        W30291  32.651  20.698   3.800
62074W        W30292   3.848  39.988   9.960
62075W        W30293  28.175  41.256  10.313
62076W        W30294   6.231   8.254  13.801
62077W        W30295  29.312  24.123  10.287
62078W        W30296   0.969  14.269  11.270
62079W        W30297  21.844  31.368   4.201
62080W        W30298   3.881  11.112  12.469
62081W        W30299  20.642  28.004  12.498
62082W        W30300  32.699  35.196  11.671
62083W        W30301  40.791   9.215  11.198
62084W        W30302   7.862   1.390   3.374
62085W        W30303   6.662  27.950   1.276
62086W        W30304  22.607  31.876   1.817
62087W        W30305  43.641  41.653  11.084
62088W        W30306  43.473  29.766   4.236
62089W        W30307  34.970  24.774   2.852
62090W        W30308  19.772   1.347  13.168
62091W        W30309   6.846  43.614  12.977
62092W        W30310  30.956  10.723  12.916
62093W        W30311  13.589  44.828   1.878
62094W        W30312  18.297   6.293   4.516
62095W        W30313  26.556  43.591  12.916
62096W        W30314   0.988  41.696  13.412
62097W        W30315  38.861  11.669   2.385
62098W        W30316   9.806  35.487   0.788
62099W        W30317  30.765   4.097   4.205
62100W        W30318  35.894   2.963  14.446
62101W        W30319   0.325   1.974  10.605
62102W        W30320  43.533  32.145   4.665
62103W        W30321   4.523   4.513   1.985
62104W        W30322  11.176  19.889  14.316
62105W        W30323  18.045  42.707  12.421
62106W        W30324  30.951  15.881  13.342
62107W        W30325  39.013   4.966   0.789
62108W        W30326  39.377  29.611   1.282
62109W        W30327  44.551  13.066  11.592
62110W        W30328  44.202  23.465   2.786
62111W        W30329  10.560  17.794  14.689
62112W        W30330  19.494  13.520   1.564
62113W        W30331  16.868   6.877   1.950
62114W        W30332  24.758   4.207   2.279
62115W        W30333  35.504   6.387  11.502
62116W        W30334  15.223   6.969   2.270
62117W        W30335  40.548  42.917  14.213
62118W        W30336  28.653  17.604   1.745
62119W        W30337   1.882  11.343  13.779
62120W        W30338  43.021  31.160  14.210
62121W        W30339  14.642   8.920   4.243
62122W        W30340  19.779  40.078   4.260
62123W        W30341   8.625   4.441  11.612
62124W        W30342   5.841  18.758   3.767
62125W        W30343  24.044  17.263  14.545
62126W        W30344  39.198   8.546  11.120
62127W        W30345  30.138  18.169  10.569
62128W        W30346  36.823  25.355  12.199
62129W        W30347   3.323  30.189   0.726
62130W        W30348   9.248  23.176  13.584
62131W        W30349   4.763  10.788   4.563
62132W        W30350  41.252  44.444   0.874
62133W        W30351  14.899   2.162   3.360
62134W        W30352   5.296  20.277   1.204
62135W        W30353  10.026  43.953  14.745
62136W        W30354   3.430  41.687   2.805
62137W        W30355  13.907  31.189  13.931
62138W        W30356  17.116  34.916  12.390
62139W        W30357   5.170  28.006  11.504
62140W        W30358   4.250  39.799  10.216
62141W        W30359  43.876  21.611  11.837
62142W        W30360   6.215  27.514   3.851
62143W        W30361  18.245   7.839   0.686
62144W        W30362  23.192   9.667  12.432
62145W        W30363  11.215  40.840   0.933
62146W        W30364  34.338   7.745  12.695
62147W        W30365  21.049  44.177   2.853
62148W        W30366   7.261  24.119  14.037
62149W        W30367  36.607  39.470  12.461
62150W        W30368  22.143   1.670  14.302
62151W        W30369  12.263  43.229   3.439
62152W        W30370   0.253   0.758   2.275
62153W        W30371  42.981  11.797  10.794
62154W        W30372  34.593  36.326   3.317
62155W        W30373  11.387  20.593  10.789
62156W        W30374  34.076  34.601   2.864
62157W        W30375  26.084   1.057  13.333
62158W        W30376  25.148  25.006  10.739
62159W        W30377  23.820  20.708   1.721
62160W        W30378   7.270  34.518   3.334
62161W        W30379   4.645  43.390   0.507
62162W        W30380  12.705  31.930   1.683
62163W        W30381   8.856  19.168   4.578
62164W        W30382  25.964  29.851  11.591
62165W        W30383  35.388   0.450   0.755
62166W        W30384  42.028  22.043   4.566
62167W        W30385  25.505  33.387  12.925
62168W        W30386  24.167  42.760   2.714
62169W        W30387  24.210  21.963   3.669
62170W        W30388  12.338  42.256  14.108
62171W        W30389  41.073  43.028  14.954
62172W        W30390  26.030  32.456  13.535
62173W        W30391  36.355  12.830   4.086
62174W        W30392  14.374   2.710  13.734
62175W        W30393  30.157   5.431   0.944
62176W        W30394  12.627  22.004   4.165
62177W        W30395  37.914   7.172  10.567
62178W        W30396  30.485  40.705  11.047
62179W        W30397  13.461  17.899  13.226
62180W        W30398  32.738  25.391   3.778
62181W        W30399   7.471  41.421   3.675
62182W        W30400  30.151  39.306   2.832
62183W        W30401   4.167  15.851   3.324
62184W        W30402  28.779   1.360  13.480
62185W        W30403  16.859  27.122   4.104
62186W        W30404  39.373  12.231  11.421
62187W        W30405  34.609  43.802   3.206
62188W        W30406   0.847  32.931   0.731
62189W        W30407  28.213  19.335  12.349
62190W        W30408   2.624  10.905   1.614
62191W        W30409  14.492   7.889   4.824
62192W        W30410   3.831  16.318  14.904
62193W        W30411  41.368   0.266   3.692
62194W        W30412  19.034  18.304  10.695
62195W        W30413  15.168  24.266   2.351
62196W        W30414   2.739  31.510   1.938
62197W        W30415  32.070  23.703   4.240
62198W        W30416  38.447  43.971  11.971
62199W        W30417  35.128  26.019  12.911
62200W        W30418   0.962   4.456   0.472
62201W        W30419  24.621  27.089  11.657
62202W        W30420  34.377  38.321  12.004
62203W        W30421  17.042   6.595  12.449
62204W        W30422   6.973   3.253   1.271
62205W        W30423  12.398  16.269   0.488
62206W        W30424  11.255   2.767  12.706
62207W        W30425  22.503  20.751  12.385
62208W        W30426  16.353  29.412  10.697
62209W        W30427  23.452  19.055   0.422
62210W        W30428  19.384  44.601   0.904
62211W        W30429   9.291  16.030   0.040
62212W        W30430  23.666  26.781   3.651
62213W        W30431  40.226  44.901   4.156
62214W        W30432  19.029   1.331  12.384
62215W        W30433   5.594  26.444  13.983
62216W        W30434  19.757  35.934   1.845
62217W        W30435   6.840  20.174   1.546
62218W        W30436  37.269  41.512   0.726
62219W        W30437   5.666  29.413   4.582
62220W        W30438  15.828  17.466  12.070
62221W        W30439  11.315  10.216  11.436
62222W        W30440  33.689  30.869   4.458
62223W        W30441  27.811  26.424  13.899
62224W        W30442  36.417  30.486   3.219
62225W        W30443  17.712  41.799  10.610
62226W        W30444  44.830  34.057  14.324
62227W        W30445  27.082  31.194  12.466
62228W        W30446  26.634  15.598  14.275
62229W        W30447  21.777  37.311  13.551
62230W        W30448   7.826  33.824   1.388
62231W        W30449   6.753  12.804   4.315
62232W        W30450   6.488  43.392   2.758
62233W        W30451  11.345  29.558   3.781
62234W        W30452  40.058  37.816   1.876
62235W        W30453   9.280  42.922  11.034
62236W        W30454  31.522  14.622  10.700
62237W        W30455  31.390  30.653   4.130
62238W        W30456  42.918  30.935   3.137
62239W        W30457  10.844   4.865   0.872
62240W        W30458   9.264  13.690   3.113
62241W        W30459  13.357  17.555   4.078
62242W        W30460  18.771   3.501   1.646
62243W        W30461   2.026  29.782   2.766
62244W        W30462   4.692  37.179  12.459
62245W        W30463   1.981   2.951  14.443
62246W        W30464  32.819  15.107  10.488
62247W        W30465   8.354  12.595   3.552
62248W        W30466   3.799  17.561   3.539
62249W        W30467  24.029  41.779   4.641
62250W        W30468  38.450  18.695  12.094
62251W        W30469  15.202  23.292   1.195
62252W        W30470  29.090   1.090  14.462
62253W        W30471   1.922  19.716  10.698
62254W        W30472  13.606  13.874  10.720
62255W        W30473  25.201  24.251  14.015
62256W        W30474  31.428  12.726  14.234
62257W        W30475   9.467   8.391   3.120
62258W        W30476  44.163  36.579   2.269
62259W        W30477  17.472  42.689   2.080
62260W        W30478  30.658  23.707   4.333
62261W        W30479   7.785  14.275  10.284
62262W        W30480  35.015   2.271  10.620
62263W        W30481   5.686  21.352   1.505
62264W        W30482  44.014   2.726  14.390
62265W        W30483   4.674   6.181   1.340
62266W        W30484  35.450  40.898  13.471
62267W        W30485  40.006  43.853   4.885
62268W        W30486  17.140   7.686  10.264
62269W        W30487  41.812  10.722   3.091
62270W        W30488  24.861  26.412  10.526
62271W        W30489  27.930  19.931   5.000
62272W        W30490   5.904  29.566   1.173
62273W        W30491  29.645  42.356  14.500
62274W        W30492  32.202  36.843   4.128
62275W        W30493  27.110   8.910  13.643
62276W        W30494  10.101  15.158   3.397
62277W        W30495  27.516  16.017  13.443
62278W        W30496  20.808  36.043   1.701
62279W        W30497   9.364  44.473   0.389
62280W        W30498  36.554  42.232   4.866
62281W        W30499   8.009  34.614  12.535
62282W        W30500   4.983  28.518   4.009
62283W        W30501  43.087  37.624   3.349
62284W        W30502  36.524   3.716  10.699
62285W        W30503  43.284  41.851  12.374
62286W        W30504  33.421   1.609   3.027
62287W        W30505  15.233   0.986   3.701
62288W        W30506  11.754   5.912   4.610
62289W        W30507  34.027   0.853  11.434
62290W        W30508  34.051  21.767  14.694
62291W        W30509  35.832   4.222  13.021
62292W        W30510  31.377  15.539  10.869
62293W        W30511  43.239  23.797   3.147
62294W        W30512   6.914  31.937  13.389
62295W        W30513   4.390  21.834  14.374
62296W        W30514  17.356   4.196  13.387
62297W        W30515  37.042  13.676   3.392
62298W        W30516  23.054  18.277  13.818
62299W        W30517  36.001  24.553   4.338
62300W        W30518  30.860  44.988  12.927
62301W        W30519  23.706  16.563   3.353
62302W        W30520  23.650  21.009   4.079
62303W        W30521   8.958  39.940  11.044
62304W        W30522  26.529  36.507   2.908
62305W        W30523  18.727  19.614  10.151
62306W        W30524  16.782  44.018  13.479
62307W        W30525  29.010  42.365  14.537
62308W        W30526  21.508  15.845   1.271
62309W        W30527  43.951  29.392   2.275
62310W        W30528  39.397  30.152   2.216
62311W        W30529   7.891  33.460  13.212
62312W        W30530  39.596  34.578  12.345
62313W        W30531  27.467   6.720  12.301
62314W        W30532  27.012  24.501  12.205
62315W        W30533  36.027  24.074  12.548
62316W        W30534   3.745  32.178  13.810
62317W        W30535   8.874  11.032   3.002
62318W        W30536  30.324   7.814   3.164
62319W        W30537  14.808  42.754  11.434
62320W        W30538  30.524  11.978   3.033
62321W        W30539   7.751  34.079   1.839
62322W        W30540  40.896  42.662   1.476
62323W        W30541  18.618  27.722   1.778
62324W        W30542   3.445  37.756   2.399
62325W        W30543  22.127   6.110   3.999
62326W        W30544  23.138  34.997  11.173
62327W        W30545   3.921   5.355  12.857
62328W        W30546   1.887   7.242  13.759
62329W        W30547  29.594  22.127  11.216
62330W        W30548   9.192  28.541   1.249
62331W        W30549  15.788   3.796  12.463
62332W        W30550  32.988   2.545  10.513
62333W        W30551  28.241  30.520   1.239
62334W        W30552  15.576  40.885   4.347
62335W        W30553  13.766  31.077   3.749
62336W        W30554  31.589  43.384   0.501
62337W        W30555  44.216  29.879  12.045
62338W        W30556  35.088  12.355   2.870
62339W        W30557  13.310  40.813   2.488
62340W        W30558  11.667  19.720  14.482
62341W        W30559  23.567  36.589  13.667
62342W        W30560  24.610  30.908   0.127
62343W        W30561   0.377  16.181  14.026
62344W        W30562   9.459  19.720   3.678
62345W        W30563  11.273  11.492  13.857
62346W        W30564   3.971  33.399  13.430
62347W        W30565  29.527  42.010  14.888
62348W        W30566  41.505  27.239   2.763
62349W        W30567  30.398   2.361   4.153
62350W        W30568  34.039  26.404   5.051
62351W        W30569  12.086  15.362   3.749
62352W        W30570  13.380  22.330  14.042
62353W        W30571  31.142  10.879   2.831
62354W        W30572   8.961   6.910  11.067
62355W        W30573  35.874  28.506   0.886
62356W        W30574   5.108  43.268  13.408
62357W        W30575  28.018  39.578  11.561
62358W        W30576  10.392  12.157  14.416
62359W        W30577  20.288  20.700  10.689
62360W        W30578  13.367  22.487   4.050
62361W        W30579   9.807  22.276   1.287
62362W        W30580  32.753  23.763   4.831
62363W        W30581  11.253  25.867  14.003
62364W        W30582  14.384   4.317   4.190
62365W        W30583   2.894  21.258   1.744
62366W        W30584  34.857  19.742   0.177
62367W        W30585  23.591  34.158   0.832
62368W        W30586  26.864  26.138   4.565
62369W        W30587  12.785  35.444  11.017
62370W        W30588  24.403   3.279  11.601
62371W        W30589  24.176  20.691  11.930
62372W        W30590   8.426   1.276   4.629
62373W        W30591  18.273  31.923  14.041
62374W        W30592  31.850  25.621   0.828
62375W        W30593  18.695  33.678  14.797
62376W        W30594  42.784  28.990  14.782
62377W        W30595  41.745  16.479   4.073
62378W        W30596  20.972  19.649   3.476
62379W        W30597  12.564  39.318   1.897
62380W        W30598  17.581  11.782  14.899
62381W        W30599  42.723  34.782   2.234
62382W        W30600  43.022  22.955  10.953
62383W        W30601  18.840   4.527   1.876
62384W        W30602   1.448  40.492  11.841
62385W        W30603  43.931  18.811   1.841
62386W        W30604  29.172  27.673  13.765
62387W        W30605  37.265   8.965   2.728
62388W        W30606  15.091  36.516  12.190
62389W        W30607  23.109  28.661   2.801
62390W        W30608  30.745   8.422  10.879
62391W        W30609  38.338  40.512   0.987
62392W        W30610  33.879   5.858   0.012
62393W        W30611  29.138  20.143  11.922
62394W        W30612  27.618  13.695  13.989
62395W        W30613  15.821  39.908  12.042
62396W        W30614  33.097  14.756  14.848
62397W        W30615  38.023  26.273  12.920
62398W        W30616   1.523  29.625   4.586
62399W        W30617   5.750   0.795  10.558
62400W        W30618  31.511  17.584   3.697
62401W        W30619  31.617  32.487   4.838
62402W        W30620   9.048  22.511   1.881
62403W        W30621  42.459  16.300   0.779
62404W        W30622   3.384  13.280  12.415
62405W        W30623  13.608  16.662   0.021
62406W        W30624  17.099  31.199   0.468
62407W        W30625  37.943  36.447   0.807
62408W        W30626  14.131  21.746  11.888
62409W        W30627  17.697   4.166   0.754
62410W        W30628  25.169  25.670  13.808
62411W        W30629  34.033  14.029  11.963
62412W        W30630  32.093   7.898   0.597
62413W        W30631  10.239   4.194  12.513
62414W        W30632  28.016  43.053   3.077
62415W        W30633  30.272   0.920   0.454
62416W        W30634  44.666  11.083   2.599
62417W        W30635  37.605  28.123   4.609
62418W        W30636  24.780  38.795   0.778
62419W        W30637  43.924  34.733   0.694
62420W        W30638  11.627   9.178   2.180
62421W        W30639   3.015   1.717  12.915
62422W        W30640   9.979   5.730  13.156
62423W        W30641  31.915  33.113  10.689
62424W        W30642  11.369   0.902   0.764
62425W        W30643  27.361  14.010   0.836
62426W        W30644  27.477  42.591   1.311
62427W        W30645   2.716  11.044   4.485
62428W        W30646  32.201  39.769   3.280
62429W        W30647  40.730  40.314   0.499
62430W        W30648  27.993  33.382   4.549
62431W        W30649   9.695  12.018   3.127
62432W        W30650  23.981  32.701   0.925
62433W        W30651  32.323  34.068  12.129
62434W        W30652  30.642  22.883   3.611
62435W        W30653  26.015   3.038  13.406
62436W        W30654  19.796  36.056   4.176
62437W        W30655  16.935  24.564  14.487
62438W        W30656  20.795  24.016  12.446
62439W        W30657  28.509  41.726  14.952
62440W        W30658  20.964   5.151   4.146
62441W        W30659  30.230  29.678  12.372
62442W        W30660  22.434  10.259  14.071
62443W        W30661  14.247  29.966  10.994
62444W        W30662  26.960  28.691  13.278
62445W        W30663   7.010  31.990  11.584
62446W        W30664   0.793  29.680  14.189
62447W        W30665  41.509  11.931   2.554
62448W        W30666  39.747  35.150   1.923
62449W        W30667  36.164  13.251  11.194
62450W        W30668  35.113  44.018   2.279
62451W        W30669  37.424   3.787  11.020
62452W        W30670  20.962   7.982   5.016
62453W        W30671   1.041  30.668   0.107
62454W        W30672  33.359  35.653   1.387
62455W        W30673  38.975  15.221   1.411
62456W        W30674  28.261   3.860  12.006
62457W        W30675  29.097   2.998  13.776
62458W        W30676  24.052  32.642   3.759
62459W        W30677  36.294  22.584  14.699
62460W        W30678   1.347   4.507  12.357
62461W        W30679   7.907  13.271  12.388
62462W        W30680   2.693  41.583   0.853
62463W        W30681  29.307  31.431  11.138
62464W        W30682  31.916  19.074   1.836
62465W        W30683  11.105   5.735  12.117
62466W        W30684  22.155  13.586  12.689
62467W        W30685  15.809  19.841  10.662
62468W        W30686   2.389  39.946  12.718
62469W        W30687   5.385  44.613   4.549
62470W        W30688  21.959  19.762  14.389
62471W        W30689  27.514  23.909  13.974
62472W        W30690  29.925  42.867  12.357
62473W        W30691   4.201   2.514  14.602
62474W        W30692  28.025  37.459   3.293
62475W        W30693  36.096  31.059   4.658
62476W        W30694  15.572  34.695  11.193
62477W        W30695  28.393  28.667  13.488
62478W        W30696   5.798  31.654   3.207
62479W        W30697  32.458   0.134  11.133
62480W        W30698  17.140  33.543  10.550
62481W        W30699  42.928   2.265   0.550
62482W        W30700  28.865  14.555  13.696
62483W        W30701  37.456  10.556   0.741
62484W        W30702   3.447  30.942   4.092
62485W        W30703  13.746  27.702  13.023
62486W        W30704  33.594  22.990   1.834
62487W        W30705   5.408  37.452  10.691
62488W        W30706  18.077  24.475  11.102
62489W        W30707  31.311  11.682  14.434
62490W        W30708  20.346   7.359   0.950
62491W        W30709  37.638  13.679  10.482
62492W        W30710  33.468  17.757  11.364
62493W        W30711   1.019  29.957  13.481
62494W        W30712   5.379  36.806   4.100
62495W        W30713   0.358  43.822  13.563
62496W        W30714  33.502  30.112   1.429
62497W        W30715   1.284  25.308   4.786
62498W        W30716  35.936  43.033   1.748
62499W        W30717   2.144  13.092  14.324
62500W        W30718  15.354   1.283   1.697
62501W        W30719  27.164  27.179   2.757
62502W        W30720  11.349   5.807   1.235
62503W        W30721  14.421  41.534  10.771
62504W        W30722  42.753   5.710  10.664
62505W        W30723  37.112  28.041  11.661
62506W        W30724  16.210  35.111   4.192
62507W        W30725  35.970  37.809  14.746
62508W        W30726  33.342  14.826   0.309
62509W        W30727  29.307   0.490   1.385
62510W        W30728  15.862  10.770  14.820
62511W        W30729   4.132  29.356   0.238
62512W        W30730   0.918  17.977  10.895
62513W        W30731  44.026  43.823  10.987
62514W        W30732  22.706  11.669  11.547
62515W        W30733   9.361  20.095   1.762
62516W        W30734  13.551   2.479  13.424
62517W        W30735  20.192   2.981   0.292
62518W        W30736  29.675   4.281  14.874
62519W        W30737  21.006   9.101   1.429
62520W        W30738  16.750  39.818  13.008
62521W        W30739   7.657  14.488  11.569
62522W        W30740   0.828   8.810  13.854
62523W        W30741  42.388   8.911  13.744
62524W        W30742  17.145  22.091   2.888
62525W        W30743  12.740  44.334  13.616
62526W        W30744  28.012  40.008  12.675
62527W        W30745   4.288  19.287  11.637
62528W        W30746  25.589  15.754   3.381
62529W        W30747  14.637   6.325  12.108
62530W        W30748  38.231  14.920  13.447
62531W        W30749   6.557  11.082   1.550
62532W        W30750  31.320  38.094  11.519
62533W        W30751  28.438   2.783  10.654
62534W        W30752  41.434  33.974  12.936
62535W        W30753  29.551   0.921   1.169
62536W        W30754  34.392  33.092   1.668
62537W        W30755  12.668  10.287   2.662
62538W        W30756  19.117  44.306  13.529
62539W        W30757  10.643  34.688  12.494
62540W        W30758  35.079  11.773  11.567
62541W        W30759  19.839  25.001  14.304
62542W        W30760  19.435  25.397  11.340
62543W        W30761  15.106   9.537  11.251
62544W        W30762  26.035  16.681  13.793
62545W        W30763  15.285  18.213   4.109
62546W        W30764   6.266  26.075  10.809
62547W        W30765  30.996  17.230  13.112
62548W        W30766  43.688  20.345  11.240
62549W        W30767  43.075  22.198  13.029
62550W        W30768  36.453  27.129   3.309
62551W        W30769  41.892  15.923  11.886
62552W        W30770  39.524  27.174  12.428
62553W        W30771   8.720  20.720   1.934
62554W        W30772  31.456   9.982  14.849
62555W        W30773  42.847  41.089   0.992
62556W        W30774   6.591  15.136   3.624
62557W        W30775  24.522  37.815  13.023
62558W        W30776  29.224  38.773  11.513
62559W        W30777  40.802  41.920   3.989
62560W        W30778  35.862  14.610  11.179
62561W        W30779   1.835  33.445  11.339
62562W        W30780  11.397  31.529   2.939
62563W        W30781  27.212   6.865   4.868
62564W        W30782   7.281   5.368  13.438
62565W        W30783   0.311  11.862  12.619
62566W        W30784  40.759   6.037  13.311
62567W        W30785  33.172  24.046   1.226
62568W        W30786  35.366   9.202  13.634
62569W        W30787  33.154  44.788  11.743
62570W        W30788  11.220   1.515  14.141
62571W        W30789  13.406  32.599   3.238
62572W        W30790  22.044  38.799   0.346
62573W        W30791  38.675  44.579   5.115
62574W        W30792   7.805   4.464   2.788
62575W        W30793  26.470   4.287   4.259
62576W        W30794  33.211  21.967  13.945
62577W        W30795  34.840  16.670   0.732
62578W        W30796  34.116   7.989  10.531
62579W        W30797   0.555  22.360   1.019
62580W        W30798  21.758   8.193  13.426
62581W        W30799  23.025  25.236  14.533
62582W        W30800  11.898  39.371   3.291
62583W        W30801  42.301  44.962  12.977
62584W        W30802  15.094  17.534   3.644
62585W        W30803  29.383   7.226   1.367
62586W        W30804   7.293  18.633  13.483
62587W        W30805  20.372   6.149   2.329
62588W        W30806   6.048  29.426  11.935
62589W        W30807   4.210  17.688  14.412
62590W        W30808  32.631  41.963   3.857
62591W        W30809  35.695  19.103   1.784
62592W        W30810  19.460  37.174  12.522
62593W        W30811  35.502  41.494   2.870
62594W        W30812  19.242   1.170   3.225
62595W        W30813   6.011  27.439  12.017
62596W        W30814  31.387  43.013  14.349
62597W        W30815  33.132   7.828  13.324
62598W        W30816  23.697   3.745  10.518
62599W        W30817  40.401  12.195   0.704
62600W        W30818  35.085  44.462  11.919
62601W        W30819   9.947  41.896  14.371
62602W        W30820  14.681  22.825  12.796
62603W        W30821  27.083  22.698  13.970
62604W        W30822  42.283  18.586   3.093
62605W        W30823  15.896  39.067  13.543
62606W        W30824  10.368  16.234  14.950
62607W        W30825  13.285  17.765  14.482
62608W        W30826  17.201  11.326  14.801
62609W        W30827  33.852  25.212  14.641
62610W        W30828   3.268  23.706   0.428
62611W        W30829  37.802  10.358   0.415
62612W        W30830  17.878   1.253   3.159
62613W        W30831   4.728   7.448   3.050
62614W        W30832   8.871  29.564  12.207
62615W        W30833  30.730  35.492   0.992
62616W        W30834  18.225  21.656   0.696
62617W        W30835   7.238  37.370  11.010
62618W        W30836  43.082  17.764  10.729
62619W        W30837  29.395  21.284   4.551
62620W        W30838  40.348  17.065  14.236
62621W        W30839  11.878  33.417  14.400
62622W        W30840  41.543  32.885  13.789
62623W        W30841   4.299  29.519  10.699
62624W        W30842  37.907  17.673  13.910
62625W        W30843  12.594  28.451   1.380
62626W        W30844  14.030   2.676  11.624
62627W        W30845  20.842  21.244  11.806
62628W        W30846  14.524   0.506  14.942
62629W        W30847  27.876  21.109   4.233
62630W        W30848  14.200  26.663  10.497
62631W        W30849  18.879  18.633   0.715
62632W        W30850   1.331  19.308  13.004
62633W        W30851  43.915  44.213  14.400
62634W        W30852   9.411  43.058   0.515
62635W        W30853   5.767  15.208  12.937
62636W        W30854  21.600  26.090   1.764
62637W        W30855  43.210  10.787  11.483
62638W        W30856  19.749   4.747  14.713
62639W        W30857  11.989  18.574   3.618
62640W        W30858   7.345  43.765   3.457
62641W        W30859  38.298  14.312  14.227
62642W        W30860   3.995  38.788  13.139
62643W        W30861  31.424  34.060   1.188
62644W        W30862  11.313  41.896  14.878
62645W        W30863  17.802  31.618   3.715
62646W        W30864   9.660   5.393   4.028
62647W        W30865  31.412  11.506   3.213
62648W        W30866  26.672   3.802   2.887
62649W        W30867  11.130   9.288  13.394
62650W        W30868  19.302   6.388   3.593
62651W        W30869  42.390  35.195  14.504
62652W        W30870  44.509  15.099   2.123
62653W        W30871  39.484  38.830   2.305
62654W        W30872  30.041  34.837   3.225
62655W        W30873  10.108   1.776  13.399
62656W        W30874  23.236  18.227  11.981
62657W        W30875  26.997  34.849  13.672
62658W        W30876  14.385  31.990   1.460
62659W        W30877  21.755  21.573   4.272
62660W        W30878  33.529  18.618  13.847
62661W        W30879   7.675  35.648  11.132
62662W        W30880  10.215   7.233  10.448
62663W        W30881  17.552  42.948   3.207
62664W        W30882  27.899  27.014  12.101
62665W        W30883  39.035   6.811  10.621
62666W        W30884  15.565   9.809  13.792
62667W        W30885  41.177  42.444   1.890
62668W        W30886   6.325  42.769  14.944
62669W        W30887  29.165  16.642  14.841
62670W        W30888  34.104  21.654  10.671
62671W        W30889  38.851   9.451  14.862
62672W        W30890   9.658  30.524  14.820
62673W        W30891  31.222  15.812   4.169
62674W        W30892  15.239  11.249   4.801
62675W        W30893   9.997  30.912  13.552
62676W        W30894   4.523  25.147  13.887
62677W        W30895  15.160   0.954   0.858
62678W        W30896   6.571  27.452  10.752
62679W        W30897  10.899   3.372  13.201
62680W        W30898   3.715   9.623  13.867
62681W        W30899  26.594  38.332   2.998
62682W        W30900  42.334  26.217  10.693
62683W        W30901  38.529  39.955  13.867
62684W        W30902   0.400  20.155   4.672
62685W        W30903  27.261  42.835   1.726
62686W        W30904   3.756  20.116  11.494
62687W        W30905   6.174  42.780   3.203
62688W        W30906   7.011   0.285  11.337
62689W        W30907  20.796  15.013  14.936
62690W        W30908  20.549   6.436   1.403
62691W        W30909  37.768  39.786  10.735
62692W        W30910  23.064   2.369   4.115
62693W        W30911  17.654   5.434  12.974
62694W        W30912  29.016   7.398  11.583
62695W        W30913  36.639  33.609   2.869
62696W        W30914  15.258  34.812   0.627
62697W        W30915  17.626  35.838  11.192
62698W        W30916  40.134   9.703   4.568
62699W        W30917  26.243  37.543  10.881
62700W        W30918   8.176  19.688   4.621
62701W        W30919   0.021  10.092  12.729
62702W        W30920  35.484  37.798  14.921
62703W        W30921   6.187  30.152   2.453
62704W        W30922  42.978   5.839  11.561
62705W        W30923  15.084  20.753   4.102
62706W        W30924  14.352  20.625  10.379
62707W        W30925  12.618  39.694  13.516
62708W        W30926   8.412  24.764   3.722
62709W        W30927  23.276  24.558   4.659
62710W        W30928  38.069  16.339   2.156
62711W        W30929   1.845  23.090  14.817
62712W        W30930  37.651  23.506   1.528
62713W        W30931  33.991  12.143  12.309
62714W        W30932  24.978  21.101  11.226
62715W        W30933   6.420   8.876  14.314
62716W        W30934  36.632  11.861   2.340
62717W        W30935  21.296  17.222  14.106
62718W        W30936   2.699  28.731   4.687
62719W        W30937   7.938  34.328   1.294
62720W        W30938  24.724  41.978   1.858
62721W        W30939   6.907  24.670  11.042
62722W        W30940  34.142  16.803   4.566
62723W        W30941  20.370  35.395   4.609
62724W        W30942  21.308   5.578  11.926
62725W        W30943  33.917  25.705  13.893
62726W        W30944  43.808  22.732  12.771
62727W        W30945  30.154   1.999   2.914
62728W        W30946  13.207  27.419  12.125
62729W        W30947  14.285  14.604  10.289
62730W        W30948   6.757  15.528   2.223
62731W        W30949  26.956  29.640   1.501
62732W        W30950  33.660   3.012  10.123
62733W        W30951  17.577  31.897  10.380
62734W        W30952   4.699  24.415  12.863
62735W        W30953   7.415  39.818  12.625
62736W        W30954   7.260  16.784  14.260
62737W        W30955  29.810  21.214  10.736
62738W        W30956  30.085  26.451  12.154
62739W        W30957  11.580  20.853   4.006
62740W        W30958  11.660  15.351  11.077
62741W        W30959  26.551   9.671   4.179
62742W        W30960   8.926   7.936  11.202
62743W        W30961  39.366  16.955  12.155
62744W        W30962  18.343   2.206  13.155
62745W        W30963  39.595  27.958   2.760
62746W        W30964  36.162  40.795  14.030
62747W        W30965  31.564  44.924   1.496
62748W        W30966  37.989  31.423  12.036
62749W        W30967  35.364  12.885   4.051
62750W        W30968  24.882  37.523   3.713
62751W        W30969  24.026  22.112   1.658
62752W        W30970   4.877  37.441  10.737
62753W        W30971  10.387  31.472  14.865
62754W        W30972   8.982  16.581   1.848
62755W        W30973   5.446  44.483  11.495
62756W        W30974  19.546  41.316   2.200
62757W        W30975  16.598  28.990   0.217
62758W        W30976  32.978  16.376  12.641
62759W        W30977  25.968  13.720  10.630
62760W        W30978  31.109  13.126   2.812
62761W        W30979  34.230  44.236  14.537
62762W        W30980  29.171  38.044  10.719
62763W        W30981  17.738  26.422   0.870
62764W        W30982  21.161  23.755  11.480
62765W        W30983  17.081  30.555   3.132
62766W        W30984  13.798  26.656   2.142
62767W        W30985  43.093   3.707   2.509
62768W        W30986  36.471  28.621  14.122
62769W        W30987   9.322  18.563   2.853
62770W        W30988  32.170  27.224   3.814
62771W        W30989  17.822  13.795   1.430
62772W        W30990  14.702  33.579   3.090
62773W        W30991  27.937   6.274   4.466
62774W        W30992   7.280  20.477  13.447
62775W        W30993   3.439  28.334   2.949
62776W        W30994  18.960  34.363   2.812
62777W        W30995  27.151  27.687  11.974
62778W        W30996  23.891  34.104  13.757
62779W        W30997  40.342   7.920  11.921
62780W        W30998  17.180   2.966  10.942
62781W        W30999  36.633  29.182  14.411
62782W        W31000  13.721  11.373  14.446
62783W        W31001  15.280  18.188   0.258
62784W        W31002  44.844  16.356  11.571
62785W        W31003  21.462  23.752  13.098
62786W        W31004   1.969  16.463  13.089
62787W        W31005   6.127  36.519   4.329
62788W        W31006  29.436  26.183  14.971
62789W        W31007  15.788  11.342  13.428
62790W        W31008  10.142  31.750  13.572
62791W        W31009   7.886   1.928  14.431
62792W        W31010  34.595  37.773   2.317
62793W        W31011  37.589  13.069  11.185
62794W        W31012   3.267  13.209   1.493
62795W        W31013  20.226  32.329  14.760
62796W        W31014  36.528  16.337   1.890
62797W        W31015   3.831  37.591   0.328
62798W        W31016  22.033  43.922   3.024
62799W        W31017   0.867  13.631  12.040
62800W        W31018  39.053   0.332  14.835
62801W        W31019  29.940  12.293  14.944
62802W        W31020  27.492  27.961  14.907
62803W        W31021  14.675  33.482   0.722
62804W        W31022  25.648   7.896  12.885
62805W        W31023  13.785  13.784   0.413
62806W        W31024   0.257  25.568   2.760
62807W        W31025  28.691  13.388   0.803
62808W        W31026  27.480  11.819  14.095
62809W        W31027  27.590   2.893  14.039
62810W        W31028  22.075  44.004  14.464
62811W        W31029   2.586  17.102  12.541
62812W        W31030  23.832  25.446   3.867
62813W        W31031   5.797  42.056   1.868
62814W        W31032  18.445  20.342  13.984
62815W        W31033  32.021  23.728   2.387
62816W        W31034  27.251  10.176   1.828
62817W        W31035  38.093  24.668  11.100
62818W        W31036  30.531  15.997  13.016
62819W        W31037  38.318  40.296   4.141
62820W        W31038   2.440   8.890  10.714
62821W        W31039   5.699  22.606  14.028
62822W        W31040  24.216  42.555  14.691
62823W        W31041  27.844  34.977  11.985
62824W        W31042   0.235  25.009  10.633
62825W        W31043   4.888   8.355  13.195
62826W        W31044  25.990   5.676   3.603
62827W        W31045  24.116  31.656  14.894
62828W        W31046  26.079   5.714   1.410
62829W        W31047   5.219  17.131  13.548
62830W        W31048  30.658  11.577  12.136
62831W        W31049  32.853  15.680   0.239
62832W        W31050  42.028  36.931  11.645
62833W        W31051  42.877  26.190   1.840
62834W        W31052  42.304  10.638   0.476
62835W        W31053  22.542  27.488  14.046
62836W        W31054  27.251  11.828  12.020
62837W        W31055  22.029   7.788   3.701
62838W        W31056  34.769  27.942   2.250
62839W        W31057  37.004  42.407  12.342
62840W        W31058  22.032   6.834   2.292
62841W        W31059   2.855   8.630   3.868
62842W        W31060  37.517  35.099  10.705
62843W        W31061   6.356  12.746   1.665
62844W        W31062  12.591  31.025   0.229
62845W        W31063  31.710  28.440  14.899
62846W        W31064   7.573   1.930  10.196
62847W        W31065  31.475  12.638   4.359
62848W        W31066  35.952  34.987  12.027
62849W        W31067  16.606   3.426   1.376
62850W        W31068  17.770   3.219   2.150
62851W        W31069  30.191  17.917  11.022
62852W        W31070  19.195   7.848   2.751
62853W        W31071  22.094   1.742  11.513
62854W        W31072  25.057  40.979  14.342
62855W        W31073  14.364  34.930  13.511
62856W        W31074  39.372  29.199   0.435
62857W        W31075  19.967  39.501   0.902
62858W        W31076  25.332  13.629   4.107
62859W        W31077   8.389  22.460   0.438
62860W        W31078  22.443  13.681   0.186
62861W        W31079  13.247  11.119  14.254
62862W        W31080  23.585  11.297  11.967
62863W        W31081  34.262  14.477  14.371
62864W        W31082  20.778  40.461  14.850
62865W        W31083   9.138  10.895  11.157
62866W        W31084   4.790  36.938  14.910
62867W        W31085   1.236  29.675  13.905
62868W        W31086  42.410  16.753   1.056
62869W        W31087  41.278  13.780  13.484
62870W        W31088  30.549   6.788  13.840
62871W        W31089  44.949  39.512   0.854
62872W        W31090  16.346  44.240   0.371
62873W        W31091  21.093  20.543   1.657
62874W        W31092   2.807   8.718  12.611
62875W        W31093  43.038  20.081  11.658
62876W        W31094  42.922  14.615  13.761
62877W        W31095  28.786  27.531  14.706
62878W        W31096   9.125  21.760  12.482
62879W        W31097   9.692  18.106   1.794
62880W        W31098  42.295  34.637   2.749
62881W        W31099  13.258  24.348   4.843
62882W        W31100  41.717  42.369   0.777
62883W        W31101  28.458  21.924   0.352
62884W        W31102  26.838  33.537  13.040
62885W        W31103  35.774  16.798   1.756
62886W        W31104  30.226  23.079   3.416
62887W        W31105  21.980  12.879  11.193
62888W        W31106  39.993  29.946  13.540
62889W        W31107  18.193   8.978   1.815
62890W        W31108  15.097  37.738   2.667
62891W        W31109   4.761  23.111  11.355
62892W        W31110   2.248  10.151  13.543
62893W        W31111  14.375  25.071   3.851
62894W        W31112  27.426   3.055   3.188
62895W        W31113  36.596  14.183  12.119
62896W        W31114  38.330  17.978  14.851
62897W        W31115  27.836  17.681   0.425
62898W        W31116  13.738   9.832  10.684
62899W        W31117  17.736  18.170  11.124
62900W        W31118  12.537  27.965  13.357
62901W        W31119  25.963   0.061   0.901
62902W        W31120   7.435  29.020   2.325
62903W        W31121  10.803  42.222  11.028
62904W        W31122  30.435  14.620   5.490
62905W        W31123  33.720  12.244  10.910
62906W        W31124  35.326  10.671   4.503
62907W        W31125  40.975  28.475  13.376
62908W        W31126  24.596  29.932  13.608
62909W        W31127  12.572  25.422  13.366
62910W        W31128  29.064  36.727  11.144
62911W        W31129   5.446  44.496  12.857
62912W        W31130  12.186  26.370  14.011
62913W        W31131  20.239  12.127   3.602
62914W        W31132   2.422  19.934   0.876
62915W        W31133  25.788  15.268  14.788
62916W        W31134   1.528   5.353   4.054
62917W        W31135  19.180  38.734  13.988
62918W        W31136   9.671  35.878   1.782
62919W        W31137  27.990  29.696   2.412
62920W        W31138  36.807  15.648   1.270
62921W        W31139   5.242  28.569  13.744
62922W        W31140  40.114  40.279   5.116
62923W        W31141  44.359  38.438  12.901
62924W        W31142  27.986  41.786  13.037
62925W        W31143  18.743   4.840   3.283
62926W        W31144  17.273   1.848  13.550
62927W        W31145  13.409  36.405  12.951
62928W        W31146  20.729  19.339  13.769
62929W        W31147  16.323  32.177   2.185
62930W        W31148   5.016   2.264   4.679
62931W        W31149   4.643  36.741   4.647
62932W        W31150  27.393  16.069  14.966
62933W        W31151   0.301  30.919   0.534
62934W        W31152  34.975  13.392   0.333
62935W        W31153  38.887  42.865   2.885
62936W        W31154  39.558  18.483  12.814
62937W        W31155  27.448  30.547  14.366
62938W        W31156  21.189   0.703   2.697
62939W        W31157   8.065  34.146   0.834
62940W        W31158   9.590  33.613   3.566
62941W        W31159  34.618  43.291   1.304
62942W        W31160   3.380  14.114  14.488
62943W        W31161   1.788  32.524  12.502
62944W        W31162  41.943   6.952   2.313
62945W        W31163  36.817   7.044   3.703
62946W        W31164  12.735   6.264   0.405
62947W        W31165  13.593  28.223   4.600
62948W        W31166  29.952  41.206  13.900
62949W        W31167  14.574   3.243  11.836
62950W        W31168   7.788  14.278  13.138
62951W        W31169   9.818  22.039  13.886
62952W        W31170   6.698   8.986  12.924
62953W        W31171  13.008  14.704  12.951
62954W        W31172  40.779  42.983  12.399
62955W        W31173  19.217  11.499   9.720
62956W        W31174  31.003  30.208   4.715
62957W        W31175  19.157   5.146   4.683
62958W        W31176   5.120  30.198   2.394
62959W        W31177  18.116  17.285   4.180
62960W        W31178  37.518  13.891  13.466
62961W        W31179  16.976  34.362  13.526
62962W        W31180  44.829   3.756   4.191
62963W        W31181   9.263  14.220  12.606
62964W        W31182  37.075  23.152   2.177
62965W        W31183  34.057  28.914  11.589
62966W        W31184  29.907  26.966   4.410
62967W        W31185  34.974  15.192  11.416
62968W        W31186   5.803  34.569   0.460
62969W        W31187  33.615  41.528   0.967
62970W        W31188  44.288  28.226  12.473
62971W        W31189  29.658  32.117   1.796
62972W        W31190   8.736  20.469   2.957
62973W        W31191  43.960   9.397  11.677
62974W        W31192   3.715  36.480   4.407
62975W        W31193  22.268   0.666   0.330
62976W        W31194  34.989   1.311   4.150
62977W        W31195  44.623   7.285  13.992
62978W        W31196   3.242  37.418   1.451
62979W        W31197   4.750  20.239  14.738
62980W        W31198  43.903   7.867   3.709
62981W        W31199  36.841  23.983   0.366
62982W        W31200  10.787  15.771   4.270
62983W        W31201  44.459  20.771   1.043
62984W        W31202  11.160  38.396   1.427
62985W        W31203   8.805  33.642  13.248
62986W        W31204  34.065  10.459  13.699
62987W        W31205  30.610  33.443  13.473
62988W        W31206   7.263  26.104  14.011
62989W        W31207  35.926  27.016   4.225
62990W        W31208  15.714  10.279   4.015
62991W        W31209  41.256   3.926   1.787
62992W        W31210   9.886   5.777  12.644
62993W        W31211   2.782  18.637  11.544
62994W        W31212  26.263   8.463   0.350
62995W        W31213  40.151   6.625  10.798
62996W        W31214  33.832  19.237   0.860
62997W        W31215  12.737  29.705  12.891
62998W        W31216  27.397  44.241   0.796
62999W        W31217  22.205  31.307  12.539
63000W        W31218  31.265  42.985  10.526
63001W        W31219  29.180  15.731   3.960
63002W        W31220  16.311  33.618   0.276
63003W        W31221   3.277  28.253   3.450
63004W        W31222   6.820  33.492   1.696
63005W        W31223   3.865  13.131   2.438
63006W        W31224  34.281  40.240  12.540
63007W        W31225   0.550  19.421  12.897
63008W        W31226  10.785  39.695   3.820
63009W        W31227  28.958  14.389  12.395
63010W        W31228   6.823  28.932  10.793
63011W        W31229  40.379   9.688   3.328
63012W        W31230  38.296  18.655   3.779
63013W        W31231  24.491  36.625   3.314
63014W        W31232  18.602  37.940  11.168
63015W        W31233   2.517  25.030  11.086
63016W        W31234  27.702  43.737   1.728
63017W        W31235  37.219  42.260   1.144
63018W        W31236  21.605  26.172   0.871
63019W        W31237  20.170  20.205   3.244
63020W        W31238  23.518  10.222  11.630
63021W        W31239  37.612  23.087   2.323
63022W        W31240   9.551   6.749  14.994
63023W        W31241   1.713  32.447   4.319
63024W        W31242   6.955   6.611  12.513
63025W        W31243  27.977  23.632   1.303
63026W        W31244  30.449  41.734  11.120
63027W        W31245  24.213  15.761  12.437
63028W        W31246  10.337  42.518   0.987
63029W        W31247   2.456  19.349   3.232
63030W        W31248  17.777  37.877   0.732
63031W        W31249  43.034  39.031   0.851
63032W        W31250  38.907  39.933   2.129
63033W        W31251  31.133  40.734  14.436
63034W        W31252  10.851  40.866   1.457
63035W        W31253  22.705  25.742   2.976
63036W        W31254   0.925  43.757   0.262
63037W        W31255  29.577   1.954   0.379
63038W        W31256  41.740   6.406  12.114
63039W        W31257  33.179  16.070   2.177
63040W        W31258  29.166  25.983   1.351
63041W        W31259  36.109  43.798   4.724
63042W        W31260  26.021   1.308   3.222
63043W        W31261   1.661  23.308  13.215
63044W        W31262  34.550  28.001   2.723
63045W        W31263  33.546  23.782  12.511
63046W        W31264  26.512  23.777   3.638
63047W        W31265   1.373  31.861   0.295
63048W        W31266   2.836  28.231   3.145
63049W        W31267  27.918  17.666  10.646
63050W        W31268  26.058  18.233   2.104
63051W        W31269  16.754  42.440   1.380
63052W        W31270  15.666  27.515   2.417
63053W        W31271  39.851   8.683   1.933
63054W        W31272  17.088  33.918  14.378
63055W        W31273   5.745  26.264   3.463
63056W        W31274  29.472   0.374  12.067
63057W        W31275   5.004   2.990  13.129
63058W        W31276  13.590  20.037  11.700
63059W        W31277   7.993  44.380  13.055
63060W        W31278  23.115  34.464  12.394
63061W        W31279  17.824  39.494  14.091
63062W        W31280   4.711  11.762   2.390
63063W        W31281  37.873   7.673   2.194
63064W        W31282  30.998  33.935  11.708
63065W        W31283   3.925  43.241   1.931
63066W        W31284  20.242   6.713   4.256
63067W        W31285   6.202  38.920   0.909
63068W        W31286  43.508  31.957  14.240
63069W        W31287  12.384  20.449  14.394
63070W        W31288   7.551  14.922  11.874
63071W        W31289  15.200  41.899   3.473
63072W        W31290  36.920  38.341   2.288
63073W        W31291  36.835  12.917  12.494
63074W        W31292  13.662  31.972   3.277
63075W        W31293  29.203  18.499  11.617
63076W        W31294   4.434  24.491   3.184
63077W        W31295  25.920  30.028   0.778
63078W        W31296  32.151  17.574  14.377
63079W        W31297   9.395  41.780   4.749
63080W        W31298   4.938  21.751  12.502
63081W        W31299  11.301  44.745   4.591
63082W        W31300   0.783  15.146   1.547
63083W        W31301  19.252   8.877  14.385
63084W        W31302  15.405  11.466   2.235
63085W        W31303  27.319  23.726   0.303
63086W        W31304  42.770  26.100  10.469
63087W        W31305   9.568  25.349  11.979
63088W        W31306   4.042  28.190  14.256
63089W        W31307   9.364  12.650   3.619
63090W        W31308  36.966  17.824  10.701
63091W        W31309   9.196  18.804   4.717
63092W        W31310  13.993  23.165  14.779
63093W        W31311  44.324   1.866  11.290
63094W        W31312  29.649  34.974  10.661
63095W        W31313  14.571   3.870   3.195
63096W        W31314  32.653  22.355  14.012
63097W        W31315   3.703  31.162  10.870
63098W        W31316  35.365   8.163  13.898
63099W        W31317  38.433  12.756  14.261
63100W        W31318  17.277  37.258  12.082
63101W        W31319  20.580  25.450   3.694
63102W        W31320  38.663  29.484  11.613
63103W        W31321  26.676  38.224  14.388
63104W        W31322  43.350  24.650  14.270
63105W        W31323  34.925   0.983  14.390
63106W        W31324  28.463  14.651   4.281
63107W        W31325  24.985  36.061   3.728
63108W        W31326  10.339  40.056   1.238
63109W        W31327  20.018   3.339   2.146
63110W        W31328  15.820  19.497  13.902
63111W        W31329  24.095  13.033  13.439
63112W        W31330  29.425  20.055   3.317
63113W        W31331  12.694  40.985   3.112
63114W        W31332  19.216  41.372  11.005
63115W        W31333   0.279  24.671  12.457
63116W        W31334  41.271  17.524   0.153
63117W        W31335  39.260  28.063  11.540
63118W        W31336  17.030  32.152  11.019
63119W        W31337  32.066   6.357  12.656
63120W        W31338   9.720  42.558  12.129
63121W        W31339   2.027  27.638  13.680
63122W        W31340  26.487  18.003  13.551
63123W        W31341  12.620  38.950   2.643
63124W        W31342  28.685   2.974   3.628
63125W        W31343  15.658  16.643   4.580
63126W        W31344  42.669  37.407   2.184
63127W        W31345  30.142  32.995  11.781
63128W        W31346  26.258   9.799   4.599
63129W        W31347   9.286   1.800   3.645
63130W        W31348  36.906  15.263  11.532
63131W        W31349  42.492   1.905  14.252
63132W        W31350  43.897  38.192   4.907
63133W        W31351  10.135  37.330  10.127
63134W        W31352   3.803   3.416  14.734
63135W        W31353  20.517   2.513   3.171
63136W        W31354  29.706  44.793  11.584
63137W        W31355  19.727   4.911   9.880
63138W        W31356  40.294  30.248   9.853
63139W        W31357  37.553  32.507  10.636
63140W        W31358  38.909  41.300   9.777
63141W        W31359  10.192  17.208   1.773
63142W        W31360  40.250   9.244  11.186
63143W        W31361  27.221   5.793   3.175
63144W        W31362  27.896  28.130  12.345
63145W        W31363   8.219  30.558   0.554
63146W        W31364  38.885   6.101  12.114
63147W        W31365  21.743   4.642  10.679
63148W        W31366  32.152  11.257   0.047
63149W        W31367   8.100   9.281  13.754
63150W        W31368  26.721  17.234  12.526
63151W        W31369  23.627  16.032  14.454
63152W        W31370  32.707  36.467  13.898
63153W        W31371  28.733  34.685  10.616
63154W        W31372  33.947  20.966  13.380
63155W        W31373  14.237  30.414   2.706
63156W        W31374  29.873  44.153   3.990
63157W        W31375  27.153  41.329   4.195
63158W        W31376   2.410  22.746  11.830
63159W        W31377  30.398  10.820   1.737
63160W        W31378  29.447  21.128  12.918
63161W        W31379   3.376  16.651  11.572
63162W        W31380  21.756   7.315  11.044
63163W        W31381   6.994   9.407  13.053
63164W        W31382  24.909  22.071  11.330
63165W        W31383  34.099   2.715  10.236
63166W        W31384  42.192  43.395   3.426
63167W        W31385  40.416   1.207  11.183
63168W        W31386  26.691  29.459  12.323
63169W        W31387   4.875  23.931  14.881
63170W        W31388   8.691   5.689   3.397
63171W        W31389  27.751  29.318  14.911
63172W        W31390  40.321  10.298  14.772
63173W        W31391  40.978  29.242   0.363
63174W        W31392  38.530   3.172   3.319
63175W        W31393   0.479  14.201   4.104
63176W        W31394   4.761  22.618  11.228
63177W        W31395   6.849   7.422  12.876
63178W        W31396   3.265  22.718   2.146
63179W        W31397  12.330   6.710   4.673
63180W        W31398  26.088  36.542   2.633
63181W        W31399   2.541  29.760   4.246
63182W        W31400  35.010  23.279   2.533
63183W        W31401  18.784  20.869   4.399
63184W        W31402  33.638  44.796   1.784
63185W        W31403   3.863  16.697   0.916
63186W        W31404  32.937  16.144  12.181
63187W        W31405   0.472  10.816   0.284
63188W        W31406  38.597  33.427   2.847
63189W        W31407  40.920   6.954  11.592
63190W        W31408  33.137  15.754   3.340
63191W        W31409  39.273  33.336  11.151
63192W        W31410   3.268   1.494  14.816
63193W        W31411   8.582  36.482   3.210
63194W        W31412  26.463   9.852  11.557
63195W        W31413  37.955  14.401  11.529
63196W        W31414  17.612  12.081   2.709
63197W        W31415  35.998  13.014   4.704
63198W        W31416  27.637   9.139  11.045
63199W        W31417  16.726   1.466  10.108
63200W        W31418   1.985  28.100   2.730
63201W        W31419  16.648   2.313  14.987
63202W        W31420  12.391   4.826  12.481
63203W        W31421   5.687   8.430   4.017
63204W        W31422   1.074  40.386   3.128
63205W        W31423  42.490  28.606  14.911
63206W        W31424  14.675  31.952   2.845
63207W        W31425  25.511  25.927  14.627
63208W        W31426  26.967  34.446  12.693
63209W        W31427   2.173   7.556  14.536
63210W        W31428  40.220  16.466   3.303
63211W        W31429  19.344  44.769  13.670
63212W        W31430  35.069  19.297  10.758
63213W        W31431  11.137  36.267   4.157
63214W        W31432  36.825  11.720  10.703
63215W        W31433  25.713   6.975  13.073
63216W        W31434  39.547  24.264  12.571
63217W        W31435  38.950  10.659   1.436
63218W        W31436  24.560  44.638   2.831
63219W        W31437  13.573  29.464  12.477
63220W        W31438  35.157  24.176   1.991
63221W        W31439   8.294  42.980  13.756
63222W        W31440  26.512  21.601  10.538
63223W        W31441  43.766  33.931   3.194
63224W        W31442  33.269  12.370  12.972
63225W        W31443   8.618  11.938   3.481
63226W        W31444  12.336   1.842   0.752
63227W        W31445  24.999  38.354  12.974
63228W        W31446  43.454  38.277   2.821
63229W        W31447  34.091  12.563  12.911
63230W        W31448  29.484  10.195   0.740
63231W        W31449   7.465  42.423   2.728
63232W        W31450  21.313  22.143   2.153
63233W        W31451  26.409  42.731  10.338
63234W        W31452  37.177  41.840  13.022
63235W        W31453  14.037  22.519  12.131
63236W        W31454  27.428  14.535  14.288
63237W        W31455  19.353  37.158   2.290
63238W        W31456  42.516   5.070   1.160
63239W        W31457  16.053  12.744  13.290
63240W        W31458  16.525  10.358   4.150
63241W        W31459  25.109   6.804   4.513
63242W        W31460  31.183  38.907   2.413
63243W        W31461  16.075   9.791  13.827
63244W        W31462  34.882  26.084  14.508
63245W        W31463  23.183  26.981  10.388
63246W        W31464  23.957   7.915   2.059
63247W        W31465  25.661  23.430   0.894
63248W        W31466  11.224  12.861   4.812
63249W        W31467   7.193  23.101   3.686
63250W        W31468  31.376   4.922  13.360
63251W        W31469  26.056   3.922   4.250
63252W        W31470  27.489   2.279   2.837
63253W        W31471   8.174  12.131   3.681
63254W        W31472  42.797   1.018  11.102
63255W        W31473  31.381   0.915   1.414
63256W        W31474  34.146  26.895  13.050
63257W        W31475  44.011  23.407  12.680
63258W        W31476   6.469  11.327   4.124
63259W        W31477  41.304  12.147   0.722
63260W        W31478   8.656  18.301   5.019
63261W        W31479  18.143  38.123  11.337
63262W        W31480  32.223   2.492   1.854
63263W        W31481  13.784  19.624   4.896
63264W        W31482  22.456   6.687  13.134
63265W        W31483  15.427  16.466  12.017
63266W        W31484  33.993  44.039   1.783
63267W        W31485  26.180  29.827  14.964
63268W        W31486  37.273  35.267   0.547
63269W        W31487  33.057  31.556   0.344
63270W        W31488  10.393  11.500  13.826
63271W        W31489   0.769  24.061  14.822
63272W        W31490  20.089   6.767   1.294
63273W        W31491  44.089  23.507  14.505
63274W        W31492   2.940  42.990   1.956
63275W        W31493  13.494  23.541   4.186
63276W        W31494  37.479   3.319   0.242
63277W        W31495   2.450  36.793  13.323
63278W        W31496  28.381   4.101  12.788
63279W        W31497   7.436   0.395  14.604
63280W        W31498  10.205  39.134   2.741
63281W        W31499  40.757   3.705  13.923
63282W        W31500  38.899  41.388  12.096
63283W        W31501  29.871   2.371  12.153
63284W        W31502  17.007  31.829   2.816
63285W        W31503  23.815  33.211  14.085
63286W        W31504  39.627  38.973   0.916
63287W        W31505   4.717  26.056   0.375
63288W        W31506   4.365  18.739   2.786
63289W        W31507  43.803  15.578  11.967
63290W        W31508   2.344  36.611   1.741
63291W        W31509   1.405  39.347   3.078
63292W        W31510  16.761  31.736  13.980
63293W        W31511   3.540  39.767  14.414
63294W        W31512   8.203  15.721  13.934
63295W        W31513  28.173  19.776   0.053
63296W        W31514  19.664  42.987   0.930
63297W        W31515  38.262  34.377  10.737
63298W        W31516  21.600  34.424   0.528
63299W        W31517  17.400  25.412  13.437
63300W        W31518  29.135  27.029  10.716
63301W        W31519  37.658   8.842   5.032
63302W        W31520  37.164   3.586  10.047
63303W        W31521  14.201  39.766  12.050
63304W        W31522  17.756   0.470  12.779
63305W        W31523  16.339  19.339  13.843
63306W        W31524  13.857   7.414  12.017
63307W        W31525  39.289  41.361   1.422
63308W        W31526  39.362  43.317   3.463
63309W        W31527  30.563  26.959   3.776
63310W        W31528   4.305  34.639  10.819
63311W        W31529   8.326  32.844  10.693
63312W        W31530  10.104  15.606   4.006
63313W        W31531   2.968  13.236  14.910
63314W        W31532  30.620  29.948  13.913
63315W        W31533   9.750   0.317  13.862
63316W        W31534  11.253   7.485  11.118
63317W        W31535  44.234  10.563  11.165
63318W        W31536   0.989   1.675   5.158
63319W        W31537  42.316  25.230   5.011
63320W        W31538  16.724  38.756  11.050
63321W        W31539  28.688  19.139   0.902
63322W        W31540  10.797  43.745  11.101
63323W        W31541  41.849  40.437   3.478
63324W        W31542  28.376  11.481  14.157
63325W        W31543  44.283   6.427  11.314
63326W        W31544  25.160  33.666   0.480
63327W        W31545  23.590  42.072  11.170
63328W        W31546  27.161  30.199  11.313
63329W        W31547  22.703  42.224  11.630
63330W        W31548  44.731  27.932  12.541
63331W        W31549  22.722  10.717  12.824
63332W        W31550  11.242   8.374  13.858
63333W        W31551  28.588  15.653   0.890
63334W        W31552   3.615   4.281   2.309
63335W        W31553  24.599  44.293   3.666
63336W        W31554  33.427  17.089   0.865
63337W        W31555  12.318  32.034  12.336
63338W        W31556  25.375  23.467   1.359
63339W        W31557  27.041   7.293   1.465
63340W        W31558  33.521  29.015  13.303
63341W        W31559  23.613  42.531  12.838
63342W        W31560  25.964  36.141   3.438
63343W        W31561  29.513  21.824  14.219
63344W        W31562  33.617   4.382   4.742
63345W        W31563   3.842  15.549   1.556
63346W        W31564  34.750  20.559  11.060
63347W        W31565   3.819  16.687  11.194
63348W        W31566  28.438  40.498  12.087
63349W        W31567  33.614  15.757   2.413
63350W        W31568  20.814  29.542   5.258
63351W        W31569  28.116  11.227  10.572
63352W        W31570   7.633  11.827  12.461
63353W        W31571  13.549  11.681   3.804
63354W        W31572  39.369   4.735   3.755
63355W        W31573  11.901  29.375  12.613
63356W        W31574  32.461  32.812   0.202
63357W        W31575  19.741  20.451   1.666
63358W        W31576  13.229  41.241   1.177
63359W        W31577   0.424   1.893   0.487
63360W        W31578  22.507  18.624  12.466
63361W        W31579  16.618  30.073   2.787
63362W        W31580  10.874  21.970  13.373
63363W        W31581  22.298  38.289  10.179
63364W        W31582  13.077  28.635   0.439
63365W        W31583  34.850  34.375  14.454
63366W        W31584  23.609   3.672   4.603
63367W        W31585  35.260  19.169   2.036
63368W        W31586  24.130   7.749  14.767
63369W        W31587   9.764  13.495  12.920
63370W        W31588  13.668  37.585   2.361
63371W        W31589  11.012  34.893   0.784
63372W        W31590   9.839  38.045   2.283
63373W        W31591  10.871   6.343  14.963
63374W        W31592   7.194  16.916   0.869
63375W        W31593  43.039  41.899  12.806
63376W        W31594  44.732  30.982   1.806
63377W        W31595  22.204  20.553   0.992
63378W        W31596  29.691  42.956   2.433
63379W        W31597  37.518  31.554  13.345
63380W        W31598   6.505  22.295   4.523
63381W        W31599   6.304  28.443  12.126
63382W        W31600  31.922   6.885  10.093
63383W        W31601   3.889  10.562  13.825
63384W        W31602  35.555  17.570  12.921
63385W        W31603  27.163  35.885   0.356
63386W        W31604  33.573   7.140   1.368
63387W        W31605   0.923  44.597  14.946
63388W        W31606  30.445  24.504  12.991
63389W        W31607  32.531  30.016   3.401
63390W        W31608  16.088  25.681  12.026
63391W        W31609   3.353  26.035   5.005
63392W        W31610  32.325  10.394   0.913
63393W        W31611  35.838  34.377   1.965
63394W        W31612  17.051  42.407  11.486
63395W        W31613  15.247  30.235   4.647
63396W        W31614  18.369   5.227  12.361
63397W        W31615  15.468   3.438   3.282
63398W        W31616   2.354  18.337   2.426
63399W        W31617   8.531  24.014  13.678
63400W        W31618  35.617  34.965   1.745
63401W        W31619  37.010   8.685  13.466
63402W        W31620  27.068   4.039   2.673
63403W        W31621  16.762  31.425  10.802
63404W        W31622  12.828  43.481  11.187
63405W        W31623   8.259  44.296  12.605
63406W        W31624  14.811  42.047  12.394
63407W        W31625  12.883  14.085   0.020
63408W        W31626  32.302  35.027  14.511
63409W        W31627  40.423  43.711  13.005
63410W        W31628  33.545  14.323  10.805
63411W        W31629  38.980  22.223   4.241
63412W        W31630  13.305  34.636   1.621
63413W        W31631  37.904  26.369  13.823
63414W        W31632   5.223  13.245  12.560
63415W        W31633   4.475   7.994   4.262
63416W        W31634  36.591  36.578   2.242
63417W        W31635  27.639   1.853  11.751
63418W        W31636  42.272   5.261  13.992
63419W        W31637   8.471  13.764  13.425
63420W        W31638   0.906  42.546   4.036
63421W        W31639  36.976  30.186   0.243
63422W        W31640   1.550  14.663  11.387
63423W        W31641  31.999  24.676   0.741
63424W        W31642  32.606  11.535   3.577
63425W        W31643  40.453  31.150   1.146
63426W        W31644  28.455  27.433  11.636
63427W        W31645  30.536  32.901  10.361
63428W        W31646   6.164  33.892  14.612
63429W        W31647  40.282  13.799  13.523
63430W        W31648  13.388  26.112   3.738
63431W        W31649  35.085  42.015  10.747
63432W        W31650   9.403  33.706   4.050
63433W        W31651  29.584  25.401  11.650
63434W        W31652  38.656  44.751   1.596
63435W        W31653  37.473  16.206   1.289
63436W        W31654  34.031  38.897   3.540
63437W        W31655   8.266  36.583   4.182
63438W        W31656  17.628  42.150   3.797
63439W        W31657  26.148   5.504  13.773
63440W        W31658  37.588  43.057  10.300
63441W        W31659  15.808  27.015  11.187
63442W        W31660  14.761  41.562  12.530
63443W        W31661  34.067  23.919   0.324
63444W        W31662  38.457  15.655  14.823
63445W        W31663  44.703  12.589  14.351
63446W        W31664   6.858   0.710   4.152
63447W        W31665  15.992  40.858   2.263
63448W        W31666   1.283  23.143   0.910
63449W        W31667   3.590  35.442   2.489
63450W        W31668  29.475  27.136   4.634
63451W        W31669  26.641  33.039   1.378
63452W        W31670  19.741   6.699   4.102
63453W        W31671  28.048  35.096  12.895
63454W        W31672  38.893  42.255   4.657
63455W        W31673   3.482   8.692  11.107
63456W        W31674  21.646  29.221   4.923
63457W        W31675   5.073  41.504   3.534
63458W        W31676  15.481  13.119  14.878
63459W        W31677  24.931  11.165  12.347
63460W        W31678  37.280   1.971   2.802
63461W        W31679  28.616   9.321   3.408
63462W        W31680  30.954  27.507   5.430
63463W        W31681  26.272  35.711   3.443
63464W        W31682  10.854  20.724  10.834
63465W        W31683  40.071  15.117  10.374
63466W        W31684  34.284  25.413  14.913
63467W        W31685  32.012  22.152   3.306
63468W        W31686  22.121  36.879   0.250
63469W        W31687  26.999  26.896   4.983
63470W        W31688  16.816   5.334  10.648
63471W        W31689  34.470  34.849  11.933
63472W        W31690  38.823  25.079  14.939
63473W        W31691  12.649   7.300   3.860
63474W        W31692  38.638  11.961  10.541
63475W        W31693  19.153  24.480  11.234
63476W        W31694  32.282   1.246  14.006
63477W        W31695  25.255  29.496   4.537
63478W        W31696   0.601  41.820  14.826
63479W        W31697  19.278  15.069   9.861
63480W        W31698  12.440  37.607   1.383
63481W        W31699   8.359  17.756  12.274
63482W        W31700  21.561   1.389   3.872
63483W        W31701   2.885  17.775   0.240
63484W        W31702  35.556  44.682  11.116
63485W        W31703  42.758  30.577   2.270
63486W        W31704  43.708  33.228  12.976
63487W        W31705  17.167  20.507  13.384
63488W        W31706  37.830  36.149  13.608
63489W        W31707  22.725  17.619   4.825
63490W        W31708  33.393   5.302  12.039
63491W        W31709  16.133  15.244   2.693
63492W        W31710   4.424  25.162   2.742
63493W        W31711  34.479  38.292   2.111
63494W        W31712  34.994  20.655   0.509
63495W        W31713  44.284   4.394   4.658
63496W        W31714   0.451   8.118  12.917
63497W        W31715   0.307  31.678   4.513
63498W        W31716  34.112  21.754  13.828
63499W        W31717  44.576  18.539  13.840
63500W        W31718  14.833   3.257   1.922
63501W        W31719  19.200   4.273  10.686
63502W        W31720   9.122  37.278  13.815
63503W        W31721  27.238  18.560  12.540
63504W        W31722  23.056   6.236   2.244
63505W        W31723  25.931  32.422   2.437
63506W        W31724  11.290  17.058  11.981
63507W        W31725  13.206   5.143   3.635
63508W        W31726  37.878  10.132  10.608
63509W        W31727   2.349  18.022  12.551
63510W        W31728  38.434  38.314   0.521
63511W        W31729  35.439  16.293  14.927
63512W        W31730   3.439  18.664  14.009
63513W        W31731  12.834  17.247   2.296
63514W        W31732  36.929  41.324   4.703
63515W        W31733  23.157  17.644   4.520
63516W        W31734  10.661   8.327   4.115
63517W        W31735  30.010  26.932   1.945
63518W        W31736   2.718  27.103   0.883
63519W        W31737   7.876   4.922   3.051
63520W        W31738  44.719  31.496   3.632
63521W        W31739  36.612  37.040   4.605
63522W        W31740  35.071   6.588   0.540
63523W        W31741  38.351  44.794   4.701
63524W        W31742  28.969   0.074  14.514
63525W        W31743  42.561  12.810   1.443
63526W        W31744  18.693  38.847  13.147
63527W        W31745   2.369  38.692  11.633
63528W        W31746  18.390  22.517   4.643
63529W        W31747  23.161  38.543  13.288
63530W        W31748  14.620  17.852   2.794
63531W        W31749  41.619  42.320   4.074
63532W        W31750  44.769  16.574  10.232
63533W        W31751  16.003  38.539  14.223
63534W        W31752   8.285   3.441  11.098
63535W        W31753   1.634  15.500  11.059
63536W        W31754  20.214  16.872   3.739
63537W        W31755  13.044  15.678  10.106
63538W        W31756  24.754  28.577  14.941
63539W        W31757  22.002  30.736  12.085
63540W        W31758  39.257  44.592   1.518
63541W        W31759  22.775  13.234  11.185
63542W        W31760  23.281   8.148   2.785
63543W        W31761  27.133   9.200   1.756
63544W        W31762   7.156   2.182   1.199
63545W        W31763  26.848  40.329   4.398
63546W        W31764  23.429  16.667  12.966
63547W        W31765  38.073  30.224  11.674
63548W        W31766  44.719   0.022  13.961
63549W        W31767  20.515  42.302   1.272
63550W        W31768  40.351  30.013   2.691
63551W        W31769  21.439  39.809  10.523
63552W        W31770  26.420  38.522  11.127
63553W        W31771  36.832  27.200  12.492
63554W        W31772   1.467  18.283   4.853
63555W        W31773  33.617  39.910   0.371
63556W        W31774  16.001   0.805  11.476
63557W        W31775  36.512   9.877   0.762
63558W        W31776  23.756  17.773   3.632
63559W        W31777   8.444  14.763   1.858
63560W        W31778  15.330   5.453  12.971
63561W        W31779  14.349   1.792  10.063
63562W        W31780  16.770   9.880  14.371
63563W        W31781  26.894  38.609   2.686
63564W        W31782   7.261  42.911   4.599
63565W        W31783  26.070  13.270   1.292
63566W        W31784  39.650  37.701   1.276
63567W        W31785  11.370  38.543   3.173
63568W        W31786   4.762  17.010  12.477
63569W        W31787  30.877  26.467  13.414
63570W        W31788   4.760  21.512  14.045
63571W        W31789   4.861  32.611   3.237
63572W        W31790  30.212   1.759   3.387
63573W        W31791   8.733  21.978   3.930
63574W        W31792  29.269  16.331   4.205
63575W        W31793  25.697  23.941   1.127
63576W        W31794  20.348  10.291  10.445
63577W        W31795   8.774  24.970  13.038
63578W        W31796   4.903   5.366  12.359
63579W        W31797  32.104  36.926   2.270
63580W        W31798  29.089  32.488  11.210
63581W        W31799   4.439  11.149   1.504
63582W        W31800  21.556  11.521  12.975
63583W        W31801  17.128  33.037   2.228
63584W        W31802  36.014   4.412   2.994
63585W        W31803   1.724  10.833  12.426
63586W        W31804   9.172  19.173  14.481
63587W        W31805  21.991   6.761  12.918
63588W        W31806  42.325   2.287  12.069
63589W        W31807  41.837  16.955  12.069
63590W        W31808  18.174  10.094  14.462
63591W        W31809   0.853  17.304  14.475
63592W        W31810  27.722  22.940   3.259
63593W        W31811  32.534  17.069  13.849
63594W        W31812  41.239   5.156   4.748
63595W        W31813  31.185  21.957  11.154
63596W        W31814  23.764  14.758   3.147
63597W        W31815  21.531   6.692  10.469
63598W        W31816  28.475  22.517   4.179
63599W        W31817  25.997  40.847  14.709
63600W        W31818  24.023  14.658  13.208
63601W        W31819  40.815  33.571   3.833
63602W        W31820  18.436   9.339   0.220
63603W        W31821   4.426  21.973   2.243
63604W        W31822  27.490  20.994   2.129
63605W        W31823  27.269  31.348  12.005
63606W        W31824  17.202   0.918  10.759
63607W        W31825  37.856  38.596   3.947
63608W        W31826  28.138  38.947  14.497
63609W        W31827  32.491  44.851  14.885
63610W        W31828  26.272  27.701  13.519
63611W        W31829  35.554  26.899  10.270
63612W        W31830  23.054  30.154  14.713
63613W        W31831  39.105  25.164  10.726
63614W        W31832  22.445  14.663  13.968
63615W        W31833  14.266   1.321   5.269
63616W        W31834  39.015   1.134  10.944
63617W        W31835  31.407  31.114   1.824
63618W        W31836  21.391  31.611   5.450
63619W        W31837  24.881  40.059   0.462
63620W        W31838  36.074  10.681   3.901
63621W        W31839   3.495  25.698  13.326
63622W        W31840  34.533  37.083   3.693
63623W        W31841  38.286  28.130   2.689
63624W        W31842  20.063  35.926  14.289
63625W        W31843  37.298  43.371   3.996
63626W        W31844   2.023  30.560  12.920
63627W        W31845  20.356  25.852  14.279
63628W        W31846  29.185   3.989   2.098
63629W        W31847  17.113  21.920  10.749
63630W        W31848  15.378  40.305   2.818
63631W        W31849   9.893   6.867   0.388
63632W        W31850  12.495  20.739  14.831
63633W        W31851   5.199   3.268  11.689
63634W        W31852  23.280   6.427  11.579
63635W        W31853  34.918   1.593   4.700
63636W        W31854   1.959   9.312   0.716
63637W        W31855  20.778  21.028   2.368
63638W        W31856  36.678  43.512   1.334
63639W        W31857  11.148   8.058  12.451
63640W        W31858  27.570  38.477  12.647
63641W        W31859   0.338   8.844  14.036
63642W        W31860   6.423  29.487   0.291
63643W        W31861  37.996  41.918   4.578
63644W        W31862  41.613  37.596  10.740
63645W        W31863  29.570  34.003   1.792
63646W        W31864  28.245  31.369   3.040
63647W        W31865  41.776  39.372   0.538
63648W        W31866  32.976  34.672   3.244
63649W        W31867  21.600  20.395   2.341
63650W        W31868   0.977   8.824  13.055
63651W        W31869   3.206  35.065   1.714
63652W        W31870  21.761  43.476  10.518
63653W        W31871  33.267  21.806  10.228
63654W        W31872  38.408   9.194   4.169
63655W        W31873  34.469  10.089   4.206
63656W        W31874   5.363   6.446  14.422
63657W        W31875   8.065  42.762   4.911
63658W        W31876   0.313  35.686  11.166
63659W        W31877  29.191  17.098  11.636
63660W        W31878  39.727  33.472  14.176
63661W        W31879  44.517  26.462   1.762
63662W        W31880   3.308  40.340  12.469
63663W        W31881  41.754   1.473   2.725
63664W        W31882  36.569  26.159   3.636
63665W        W31883   1.475  21.031  11.386
63666W        W31884  25.336  40.838   0.950
63667W        W31885  25.761  25.416   4.357
63668W        W31886  40.975  26.277   2.439
63669W        W31887  15.851  31.582   0.398
63670W        W31888  41.743  18.284   1.250
63671W        W31889  20.905  42.933   1.792
63672W        W31890  16.358  10.653  13.882
63673W        W31891   4.419  16.697   4.592
63674W        W31892   1.787  19.737   1.395
63675W        W31893  13.327   8.893   1.213
63676W        W31894   8.589  27.527   2.759
63677W        W31895  12.364  18.813  10.982
63678W        W31896  41.197  30.594  14.534
63679W        W31897  30.488  13.139   3.666
63680W        W31898  28.276  36.408  13.120
63681W        W31899  43.454  38.875  13.167
63682W        W31900  18.281  26.484  10.255
63683W        W31901  36.686  19.218  14.989
63684W        W31902  37.319  29.849   0.467
63685W        W31903  25.294   8.265  12.062
63686W        W31904  33.133   3.841   4.112
63687W        W31905  10.383  39.116  13.907
63688W        W31906  26.585  41.242  14.614
63689W        W31907   0.207  38.567  13.265
63690W        W31908  27.152  24.044  11.473
63691W        W31909  21.644  33.509  13.769
63692W        W31910   6.625  12.879  12.494
63693W        W31911  17.710  31.942   2.391
63694W        W31912  36.821  29.943   2.357
63695W        W31913  18.893  43.050   1.792
63696W        W31914  24.674  34.528   4.374
63697W        W31915  41.827  21.584   4.444
63698W        W31916  16.246  34.416   1.881
63699W        W31917  33.109  38.249  13.362
63700W        W31918  24.659   0.796   3.790
63701W        W31919  16.902  18.741   2.268
63702W        W31920  38.974  14.444  11.885
63703W        W31921   1.938  11.717   1.693
63704W        W31922  28.122  31.857   3.150
63705W        W31923  20.894  21.739   4.573
63706W        W31924   6.018   3.212  12.309
63707W        W31925  28.473  12.679  14.128
63708W        W31926   1.969  19.703  11.621
63709W        W31927  36.112   8.203  14.408
63710W        W31928  30.617   7.509   3.438
63711W        W31929   8.747  10.790  13.617
63712W        W31930  24.051  42.829  10.319
63713W        W31931  30.440  38.559   1.778
63714W        W31932  43.439  20.777   0.180
63715W        W31933   9.835   9.486   4.247
63716W        W31934  27.612  29.387   3.183
63717W        W31935  40.014  24.617  10.341
63718W        W31936  21.185   4.776  14.775
63719W        W31937  39.295  37.787  11.816
63720W        W31938  15.691  19.819  11.990
63721W        W31939  40.874  18.328  10.780
63722W        W31940  42.972  28.980   3.071
63723W        W31941  26.167   3.842   1.428
63724W        W31942  22.195  24.245   4.050
63725W        W31943  40.613   2.508   3.549
63726W        W31944  29.278   8.399   2.855
63727W        W31945  25.759  40.906  12.444
63728W        W31946  21.493   1.872  13.214
63729W        W31947  29.383  12.896   0.906
63730W        W31948  44.179  35.060  10.470
63731W        W31949  31.568  16.771  10.693
63732W        W31950  12.311   0.605   4.082
63733W        W31951  30.508  39.778   0.885
63734W        W31952  37.943  17.167   4.154
63735W        W31953   2.818  16.740   0.926
63736W        W31954   4.282   0.476  14.403
63737W        W31955  13.087  22.874   3.848
63738W        W31956  38.879  23.129  14.100
63739W        W31957  44.909  40.815   2.940
63740W        W31958  39.180   1.493   4.566
63741W        W31959  11.157   7.285   1.174
63742W        W31960  18.695  10.312  11.203
63743W        W31961  20.538  19.711  11.303
63744W        W31962  43.918   8.055   0.401
63745W        W31963   9.523  28.430   1.680
63746W        W31964   8.054   1.870   1.491
63747W        W31965  30.384  10.614   3.978
63748W        W31966  29.630  29.458  11.080
63749W        W31967  16.719  15.656   4.600
63750W        W31968  13.919  41.938  13.992
63751W        W31969  11.647   0.748  12.414
63752W        W31970  16.454  25.131  12.838
63753W        W31971  42.463  15.077  13.519
63754W        W31972  38.376   2.994  13.430
63755W        W31973  17.161  23.261   2.983
63756W        W31974  42.453  35.493   1.862
63757W        W31975   5.835  17.697   2.837
63758W        W31976   3.825  30.186   2.770
63759W        W31977  44.495  40.101   0.796
63760W        W31978  41.183  41.698  11.052
63761W        W31979  11.194   3.312  14.884
63762W        W31980  23.939  33.610   3.826
63763W        W31981  25.703  36.521   4.897
63764W        W31982  43.515   6.186   1.831
63765W        W31983  35.492   5.300   0.538
63766W        W31984  37.445  12.587  11.103
63767W        W31985  23.653  30.500   4.616
63768W        W31986  40.915   7.188   1.874
63769W        W31987   5.897  43.749   3.552
63770W        W31988  38.314  10.665   2.176
63771W        W31989   7.117  32.166   3.363
63772W        W31990  24.862   1.792  13.312
63773W        W31991  44.533  29.012   0.219
63774W        W31992  13.660  31.405  13.540
63775W        W31993  28.553  24.157   4.967
63776W        W31994  15.321  22.627   4.920
63777W        W31995   7.975  17.526  12.700
63778W        W31996  26.033  22.274   3.145
63779W        W31997  21.480  13.110  13.994
63780W        W31998  24.993   0.230  12.601
63781W        W31999  13.029  23.246   2.930
63782W        W32000  15.470  11.653   0.165
63783W        W32001  27.697  23.375  14.945
63784W        W32002   2.013  17.504   0.224
63785W        W32003   3.794   2.763   3.161
63786W        W32004   1.153  17.665   4.285
63787W        W32005  26.033  24.256   0.834
63788W        W32006  14.032  21.317   3.007
63789W        W32007  44.839   7.862  11.628
63790W        W32008  21.787  14.599   4.168
63791W        W32009   8.429  20.557  14.932
63792W        W32010  29.527  35.107   5.104
63793W        W32011  12.475   9.137  14.566
63794W        W32012  17.223   5.754  12.869
63795W        W32013   4.680   1.586   3.181
63796W        W32014  33.381  13.836   2.878
63797W        W32015  11.326  16.491   0.375
63798W        W32016  39.595  11.943   1.700
63799W        W32017  37.568   5.674   4.936
63800W        W32018  27.942  32.306  10.068
63801W        W32019  24.781  21.032   4.960
63802W        W32020  35.530  19.222  14.278
63803W        W32021  13.397  37.321  12.971
63804W        W32022  22.222   7.984   0.609
63805W        W32023  20.078  36.603  12.618
63806W        W32024  23.687  24.140  14.740
63807W        W32025   6.820  40.528   1.846
63808W        W32026   4.731  16.244   2.706
63809W        W32027  29.883  30.512  13.851
63810W        W32028   8.359  10.076   0.758
63811W        W32029  15.387  37.000  11.998
63812W        W32030  33.661  17.790   4.866
63813W        W32031  15.822  37.268  13.768
63814W        W32032  13.296  27.988   0.872
63815W        W32033   4.492  32.990  14.906
63816W        W32034  30.874  33.554  10.969
63817W        W32035  31.019  23.938   4.071
63818W        W32036   8.424  26.730  14.191
63819W        W32037  39.538  43.794   3.297
63820W        W32038  44.953  35.552  14.115
63821W        W32039  34.606  38.270  14.724
63822W        W32040  42.924  24.092  13.920
63823W        W32041   8.745  16.118  13.516
63824W        W32042  22.001  11.124   3.710
63825W        W32043  28.951  10.114  11.180
63826W        W32044  31.948   5.657   3.236
63827W        W32045  42.420  27.761   2.646
63828W        W32046  18.210  41.761   3.183
63829W        W32047  17.035  20.743   0.299
63830W        W32048  33.348  34.495   2.190
63831W        W32049   4.691  26.131  14.419
63832W        W32050  26.080  29.833  10.736
63833W        W32051   5.557  11.744  13.523
63834W        W32052  25.086  42.946   1.307
63835W        W32053  19.833   8.271   2.688
63836W        W32054  35.338  41.321  12.265
63837W        W32055  16.321  38.596  10.396
63838W        W32056  34.542  32.626   3.442
63839W        W32057  23.625  36.259  14.640
63840W        W32058  19.884  42.537   0.733
63841W        W32059   3.115  27.127   2.885
63842W        W32060  32.013  26.234   2.665
63843W        W32061  25.967  37.608  14.521
63844W        W32062  43.761  41.780  13.359
63845W        W32063  11.805  42.734   5.053
63846W        W32064  33.922  33.994   1.746
63847W        W32065  25.205  33.588  10.267
63848W        W32066   6.954  23.055  13.090
63849W        W32067  14.846  26.626   4.482
63850W        W32068   5.840  39.382  10.618
63851W        W32069  14.353  38.091   1.757
63852W        W32070  23.424   3.336  13.991
63853W        W32071  38.099   4.890  10.984
63854W        W32072   7.646  37.489  14.084
63855W        W32073  23.771  25.075  10.171
63856W        W32074   6.501  43.999   1.358
63857W        W32075  44.976  22.134  13.454
63858W        W32076  27.904   3.673   0.929
63859W        W32077   4.978   4.378  11.590
63860W        W32078  18.009   1.797   3.656
63861W        W32079  41.391  22.245  13.394
63862W        W32080  30.871  32.469   4.225
63863W        W32081  36.446  31.212   2.791
63864W        W32082   3.062  13.586   2.794
63865W        W32083   0.005  29.596   3.611
63866W        W32084   5.341  19.682   3.209
63867W        W32085  36.088  16.081  11.194
63868W        W32086   3.844  38.889   0.914
63869W        W32087  19.241  43.517  14.555
63870W        W32088  44.635  10.574  13.547
63871W        W32089   0.819  41.302   0.365
63872W        W32090  36.964  26.625  14.812
63873W        W32091  36.362  11.570   2.683
63874W        W32092  14.805  28.220   1.780
63875W        W32093  12.747  21.037   4.114
63876W        W32094   1.517  31.549   4.125
63877W        W32095  10.192   6.360  11.022
63878W        W32096  38.356  20.359   4.339
63879W        W32097   4.870  13.904  14.662
63880W        W32098  43.375  28.538  11.177
63881W        W32099  34.086  35.643   1.028
63882W        W32100   6.266  40.665  11.508
63883W        W32101  28.908  20.809   1.719
63884W        W32102  38.574  27.206   3.577
63885W        W32103  15.174  16.178  10.143
63886W        W32104  32.398  35.091  10.141
63887W        W32105  35.224  30.945  11.174
63888W        W32106   8.514  10.280   5.089
63889W        W32107  12.715  34.001  13.706
63890W        W32108   0.449  30.573   4.919
63891W        W32109  15.615   9.801  14.750
63892W        W32110  11.255  19.343   0.833
63893W        W32111  29.114  25.061   3.615
63894W        W32112  21.436  20.972   3.626
63895W        W32113  17.859   9.375   1.883
63896W        W32114   4.832  41.853   3.839
63897W        W32115  31.853   5.293   1.261
63898W        W32116  21.034  22.699   3.773
63899W        W32117   9.603  27.606   2.791
63900W        W32118  23.154  19.631  11.280
63901W        W32119  26.843  23.572   0.189
63902W        W32120  19.113   9.208  12.114
63903W        W32121  41.558  39.386  10.677
63904W        W32122  40.580  11.798  11.152
63905W        W32123   3.249  19.482   2.788
63906W        W32124  25.132  44.628   1.832
63907W        W32125  12.704   1.734  12.882
63908W        W32126  12.880   9.451  14.595
63909W        W32127  23.855  34.806  13.106
63910W        W32128  38.818  13.226   1.164
63911W        W32129  20.842  38.758   4.670
63912W        W32130  41.334  37.275  13.556
63913W        W32131  29.586  30.269  11.401
63914W        W32132  44.423  11.165   4.761
63915W        W32133   1.845  29.555   4.995
63916W        W32134   1.943  40.321  12.697
63917W        W32135  40.916  38.323  11.528
63918W        W32136   8.754   9.945  14.935
63919W        W32137  38.494  35.811   3.260
63920W        W32138  16.895  20.535   4.602
63921W        W32139  18.607  38.832   4.112
63922W        W32140  26.188  24.749   0.703
63923W        W32141  37.255  26.994   1.367
63924W        W32142  43.602  23.731  11.701
63925W        W32143  41.048   9.849   4.398
63926W        W32144  35.746  18.091  11.105
63927W        W32145  23.455  34.540  12.868
63928W        W32146  34.930   9.868   4.026
63929W        W32147  21.761  24.224  10.729
63930W        W32148  21.838  37.341  10.287
63931W        W32149  32.236  27.677  12.965
63932W        W32150  26.632   2.936   3.643
63933W        W32151  34.489   3.728   2.426
63934W        W32152  22.536  20.553   3.136
63935W        W32153   9.923  27.465   0.483
63936W        W32154   9.585  39.507  11.408
63937W        W32155  14.240  16.311   3.030
63938W        W32156   6.792  27.749   4.399
63939W        W32157  12.426  40.243  13.649
63940W        W32158  34.176  33.562   1.902
63941W        W32159  21.669  23.032   0.235
63942W        W32160   5.341   0.765  13.909
63943W        W32161   1.003  30.114  10.799
63944W        W32162  44.963  42.857  13.515
63945W        W32163  11.283   8.318   3.960
63946W        W32164   0.485  31.935  11.097
63947W        W32165   6.709   5.196   4.821
63948W        W32166  11.153  39.900   1.736
63949W        W32167   1.647   8.532   1.358
63950W        W32168  11.827   8.368   4.836
63951W        W32169  42.852   0.505  11.192
63952W        W32170  39.359  30.459  11.973
63953W        W32171  39.923  26.031   3.751
63954W        W32172  28.578   5.320   5.047
63955W        W32173  26.712  37.643   0.350
63956W        W32174  37.863  12.359   0.931
63957W        W32175  28.420  18.802   3.974
63958W        W32176  26.693  14.267   4.484
63959W        W32177  16.296   8.776   0.243
63960W        W32178   7.196  37.594  10.505
63961W        W32179   2.254  30.522   2.195
63962W        W32180  15.855  11.310  14.854
63963W        W32181  19.714   0.944   2.671
63964W        W32182  12.001  16.521   2.180
63965W        W32183  32.815  30.106  13.969
63966W        W32184   9.838  14.843  11.133
63967W        W32185  36.377   2.973   2.804
63968W        W32186  42.551  23.282   1.728
63969W        W32187  26.694  43.484   2.831
63970W        W32188  39.574   3.187   0.028
63971W        W32189  37.792  25.128  14.758
63972W        W32190  20.231  28.049   4.621
63973W        W32191  33.362  16.603   4.181
63974W        W32192  24.253   2.013   2.661
63975W        W32193  13.029  24.987   2.628
63976W        W32194  14.373  19.160  11.680
63977W        W32195  42.372  19.529  12.917
63978W        W32196  10.170  12.679   3.492
63979W        W32197  41.859  20.138   3.938
63980W        W32198  34.071  10.007  12.028
63981W        W32199   1.969  25.432  14.960
63982W        W32200  18.772  20.089   1.920
63983W        W32201  18.175  41.442   4.082
63984W        W32202  28.641   9.114   0.161
63985W        W32203   4.611   9.987   1.768
63986W        W32204  29.527  17.015  11.258
63987W        W32205  12.514  42.906  11.968
63988W        W32206  36.331  23.034  14.954
63989W        W32207  32.000  33.192  12.914
63990W        W32208  32.955  24.544  11.338
63991W        W32209  42.038  27.074   0.917
63992W        W32210  24.223  34.176   1.375
63993W        W32211  12.722  18.061  12.513
63994W        W32212  19.821  22.218  13.842
63995W        W32213  43.401  11.849   4.702
63996W        W32214  34.880   3.874   4.301
63997W        W32215  27.998  32.932   0.832
63998W        W32216  15.727   0.152   4.068
63999W        W32217  28.486  22.438   0.397
64000W        W32218  15.983  27.842  14.546
64001W        W32219  15.706   0.801  11.047
64002W        W32220   1.192   9.514   4.183
64003W        W32221   6.942  23.608   4.755
64004W        W32222  27.632  32.504  10.757
64005W        W32223  23.994   5.695   1.873
64006W        W32224   1.041  29.185  12.985
64007W        W32225   5.722  25.758   3.414
64008W        W32226   5.358  20.531   1.891
64009W        W32227  29.392  28.612  11.534
64010W        W32228  43.957  13.615  12.418
64011W        W32229  35.431   1.244  14.513
64012W        W32230  40.364  14.211  11.942
64013W        W32231  35.322  31.890  12.121
64014W        W32232  10.293  30.365   0.806
64015W        W32233  42.334  38.918  11.487
64016W        W32234  30.456  28.512  11.506
64017W        W32235  13.061  19.094   4.187
64018W        W32236  23.260  16.730   3.541
64019W        W32237   4.427   1.393   1.809
64020W        W32238  14.077  22.102   3.775
64021W        W32239  28.642  11.271  12.812
64022W        W32240  11.672  31.763   4.134
64023W        W32241   5.470  10.752   0.767
64024W        W32242  28.550   4.178  10.471
64025W        W32243   0.673  44.237   2.886
64026W        W32244   9.836  42.342   1.204
64027W        W32245   7.419  16.252   2.921
64028W        W32246  17.569  13.669   0.978
64029W        W32247  22.770  33.807   4.603
64030W        W32248  27.181  22.238   4.052
64031W        W32249  43.836  33.602  11.161
64032W        W32250  15.053  37.926  11.929
64033W        W32251  18.489  23.151   3.107
64034W        W32252  33.499   6.304  13.546
64035W        W32253  44.071   1.745  12.515
64036W        W32254  24.044  27.521   1.384
64037W        W32255  11.832   8.290  12.337
64038W        W32256  30.875   7.165   2.271
64039W        W32257  40.953   9.600   1.786
64040W        W32258  43.106  35.999   0.127
64041W        W32259  37.417  20.377  11.536
64042W        W32260   3.453  22.997   0.946
64043W        W32261   2.550  12.365   4.908
64044W        W32262  38.979  22.150  13.736
64045W        W32263  19.117  40.729  12.865
64046W        W32264  40.343  36.094   4.290
64047W        W32265  13.249   2.905  13.856
64048W        W32266  21.713  21.442   2.349
64049W        W32267  14.757  42.465   2.937
64050W        W32268  27.070  17.675  12.378
64051W        W32269  25.086  13.143   4.052
64052W        W32270  36.222   2.918   1.785
64053W        W32271  22.612  36.106   1.273
64054W        W32272   2.959  36.624   2.721
64055W        W32273  43.738  40.169  13.999
64056W        W32274   7.251  43.863  11.688
64057W        W32275  40.661  14.750   4.139
64058W        W32276  40.574  16.102   3.174
64059W        W32277  19.049  39.926   3.701
64060W        W32278  44.923  15.668   4.936
64061W        W32279   5.789  25.361   1.088
64062W        W32280  11.843  41.598  14.526
64063W        W32281  18.536  34.084  10.424
64064W        W32282  28.949  22.688  12.166
64065W        W32283  21.221  41.250  11.644
64066W        W32284   8.973   2.366  14.034
64067W        W32285  22.212  39.912   3.434
64068W        W32286  33.150  25.485   4.803
64069W        W32287  12.793  12.060  14.786
64070W        W32288  20.612  33.432  11.945
64071W        W32289  23.954  22.213  11.162
64072W        W32290  21.698  17.962   2.469
64073W        W32291  32.828   5.363  14.777
64074W        W32292  40.618  20.038   2.461
64075W        W32293  25.050  26.112  14.478
64076W        W32294  44.267  21.787   0.399
64077W        W32295   2.955   4.497   0.763
64078W        W32296  24.660  21.530  12.008
64079W        W32297  38.098  34.153  14.100
64080W        W32298  43.370   0.037  11.370
64081W        W32299  28.016   5.917   4.847
64082W        W32300  44.886   2.947   2.850
64083W        W32301   5.238  20.472  10.528
64084W        W32302  32.859  44.597  12.532
64085W        W32303  35.100  44.809   0.898
64086W        W32304  44.408  22.029  14.498
64087W        W32305  14.030   1.854   4.066
64088W        W32306  25.227  37.510  14.885
64089W        W32307  40.108  26.194  13.490
64090W        W32308  20.449  38.144  10.778
64091W        W32309  36.802   4.433  11.683
64092W        W32310  19.744   1.265   3.236
64093W        W32311  27.446   5.867   0.590
64094W        W32312  35.137  14.382  11.122
64095W        W32313  31.332  37.040  14.990
64096W        W32314   7.038  29.554  12.080
64097W        W32315   4.826  35.879  11.390
64098W        W32316  43.683  39.653  13.161
64099W        W32317   9.262  16.178  13.592
64100W        W32318   4.845  16.691   1.915
64101W        W32319  28.059   9.736   0.902
64102W        W32320   1.719  25.711   1.830
64103W        W32321  35.450  24.574   2.130
64104W        W32322  39.217  13.646   0.514
64105W        W32323  35.141  32.595   1.816
64106W        W32324   4.959  22.870  14.392
64107W        W32325  10.224  42.498   1.493
64108W        W32326  35.963  16.668  14.431
64109W        W32327  43.384  41.075   3.075
64110W        W32328   8.313  37.753   3.611
64111W        W32329   8.293  22.005  12.128
64112W        W32330   3.586  20.540   2.023
64113W        W32331   9.391  19.962  12.365
64114W        W32332  15.447   6.657  12.610
64115W        W32333  40.740  11.598   5.354
64116W        W32334  29.363  39.994   1.898
64117W        W32335  19.120  35.109  12.890
64118W        W32336  40.537  27.679   2.485
64119W        W32337  30.851  41.244   4.065
64120W        W32338  18.008   4.363  13.854
64121W        W32339  21.112  35.407   2.695
64122W        W32340  25.719  33.998  13.797
64123W        W32341  33.931  19.026   1.773
64124W        W32342  34.526  16.597   2.635
64125W        W32343  32.006   2.868   4.790
64126W        W32344   7.650  19.877  11.098
64127W        W32345  29.951  36.780  11.371
64128W        W32346  10.918  33.561   3.789
64129W        W32347  11.295  35.570  13.052
64130W        W32348  40.241  41.232   2.353
64131W        W32349  27.505  14.614   3.958
64132W        W32350   6.669  29.990   1.285
64133W        W32351  37.300  36.063   3.572
64134W        W32352  10.468  33.217  13.333
64135W        W32353   2.764  17.150  13.885
64136W        W32354  26.139  40.287   2.256
64137W        W32355   2.863  33.427  14.384
64138W        W32356   2.465  33.099  11.468
64139W        W32357  17.338   2.033   0.763
64140W        W32358   7.741   1.188  14.386
64141W        W32359  16.029   4.507  10.799
64142W        W32360  33.098  27.104  14.751
64143W        W32361  11.128  28.483  11.112
64144W        W32362  18.476   5.311   2.453
64145W        W32363  33.655  26.026   2.629
64146W        W32364   3.575  20.869   0.318
64147W        W32365   9.979  15.308  10.946
64148W        W32366  10.229   4.769   4.558
64149W        W32367  30.429   7.264   0.897
64150W        W32368  25.993  15.528   3.652
64151W        W32369  23.294  11.841  12.591
64152W        W32370  27.382  35.651   0.922
64153W        W32371  38.691  41.508   4.320
64154W        W32372   1.139  24.565  14.124
64155W        W32373  24.755   6.717  11.637
64156W        W32374  34.399   5.082   1.327
64157W        W32375   5.221  35.351   0.308
64158W        W32376  10.610  38.492  12.842
64159W        W32377  17.848  16.837   0.886
64160W        W32378  15.552  25.548   0.268
64161W        W32379  33.148   4.419  13.040
64162W        W32380  28.441  34.386   3.721
64163W        W32381  32.961   9.260   4.619
64164W        W32382  34.841  44.337   4.108
64165W        W32383   9.975  32.721   4.502
64166W        W32384  25.894  39.418   1.997
64167W        W32385  41.491  22.753  10.641
64168W        W32386   2.852  24.021   0.348
64169W        W32387  27.040  29.405  10.761
64170W        W32388  29.642   8.038  11.732
64171W        W32389  34.333  41.975   4.512
64172W        W32390  16.625  41.665  14.913
64173W        W32391  37.460  17.098   0.719
64174W        W32392   4.781  35.070   0.279
64175W        W32393   7.195  32.088   4.225
64176W        W32394   8.881  10.925  14.099
64177W        W32395  17.117   1.837   2.895
64178W        W32396  23.757   8.608  12.374
64179W        W32397   4.773   5.305   1.382
64180W        W32398  31.857  32.048   4.986
64181W        W32399  27.091   9.842  13.705
64182W        W32400  22.005  14.008  10.583
64183W        W32401  42.399  20.205   1.791
64184W        W32402  11.369  37.413  12.461
64185W        W32403  24.690  16.775  14.841
64186W        W32404   9.851  21.825   4.521
64187W        W32405   2.783  35.323  12.016
64188W        W32406   7.721  23.798   3.367
64189W        W32407  44.554  20.902  12.325
64190W        W32408  21.614  18.622   1.143
64191W        W32409  37.264   7.801   4.417
64192W        W32410  27.959  12.684  14.360
64193W        W32411  21.688  11.774  13.987
64194W        W32412  38.849  34.012   3.411
64195W        W32413  19.684  29.896   0.775
64196W        W32414  26.895  32.586  12.957
64197W        W32415  18.518   1.201   4.921
64198W        W32416   3.477  41.996   3.734
64199W        W32417  42.370   2.478   4.586
64200W        W32418  15.229  26.706  14.784
64201W        W32419   6.956  14.763   0.760
64202W        W32420  31.976   2.207  10.682
64203W        W32421  27.215  19.993  11.908
64204W        W32422  41.753  40.597   1.760
64205W        W32423   1.074  19.389  10.400
64206W        W32424  41.266  32.033   4.994
64207W        W32425   0.567  18.469  13.533
64208W        W32426  37.715  44.970  10.509
64209W        W32427  12.478   2.296   4.169
64210W        W32428  33.584  17.491   0.351
64211W        W32429  22.475   5.178  14.741
64212W        W32430  37.737  35.495  13.464
64213W        W32431   9.339  16.602   3.103
64214W        W32432  17.795  11.843  12.978
64215W        W32433  32.067  30.736   0.809
64216W        W32434  43.858   8.399  14.961
64217W        W32435  25.550  19.017   1.449
64218W        W32436   0.249  34.416   4.228
64219W        W32437  11.042   2.536   3.976
64220W        W32438   6.698  16.342   3.211
64221W        W32439  23.755  27.590  14.893
64222W        W32440  18.295   3.889  14.839
64223W        W32441  33.072  37.911   4.298
64224W        W32442  43.371  41.580  14.410
64225W        W32443  40.333  32.036   0.493
64226W        W32444  38.954  21.559  11.611
64227W        W32445  43.821  27.473  13.435
64228W        W32446   8.942   7.296   0.293
64229W        W32447   6.915  41.098   2.249
64230W        W32448  29.994  36.740   4.292
64231W        W32449  33.641  21.569  14.958
64232W        W32450  23.019  30.182   3.942
64233W        W32451   9.741   2.654   2.142
64234W        W32452  10.708  12.181  12.386
64235W        W32453  12.115  38.888   3.284
64236W        W32454  42.354  42.830   1.391
64237W        W32455  44.703  25.050  14.407
64238W        W32456   7.167   9.690  11.342
64239W        W32457  21.297   2.316   4.116
64240W        W32458  38.708  17.928   4.166
64241W        W32459   7.378   4.319   3.685
64242W        W32460  16.980  36.589  14.910
64243W        W32461  42.432  12.270  13.838
64244W        W32462   2.270   1.825   2.684
64245W        W32463  12.837  31.047  11.360
64246W        W32464  11.675   8.131   0.142
64247W        W32465  38.065   7.243  11.923
64248W        W32466  20.533  26.628  14.584
64249W        W32467  38.098  34.243   0.705
64250W        W32468  33.463  27.710   0.488
64251W        W32469  18.785  28.962  12.186
64252W        W32470  38.785  17.929  13.847
64253W        W32471  37.489  23.593   0.546
64254W        W32472  10.097  10.392  11.094
64255W        W32473  44.236  34.456  14.740
64256W        W32474   3.226  42.920   4.115
64257W        W32475   8.453  28.325  13.031
64258W        W32476  23.718  33.956   0.347
64259W        W32477  21.577  17.382   3.702
64260W        W32478  41.317  33.097   3.891
64261W        W32479  28.984  31.042   1.647
64262W        W32480  33.479   6.171  14.867
64263W        W32481  37.831  17.563   3.418
64264W        W32482  17.090  25.753   4.185
64265W        W32483  41.051  39.571   1.718
64266W        W32484  19.257  35.398   0.715
64267W        W32485  11.413   4.779  10.479
64268W        W32486  36.006  41.912  14.244
64269W        W32487  14.529  32.563  11.861
64270W        W32488  42.824  14.050  14.931
64271W        W32489  11.309  16.809  13.075
64272W        W32490   0.863  25.366   3.627
64273W        W32491  42.447  26.089  14.648
64274W        W32492  33.607   1.915   2.132
64275W        W32493  19.557   7.863   1.266
64276W        W32494  21.881  38.934  13.319
64277W        W32495  44.685   2.459   4.687
64278W        W32496  12.756  32.493   1.615
64279W        W32497   3.220  20.332   4.546
64280W        W32498  25.702  28.991  11.621
64281W        W32499  41.250   0.480  12.471
64282W        W32500  42.851  40.051  12.911
64283W        W32501  30.593   7.867  13.883
64284W        W32502  20.008   3.799  13.833
64285W        W32503   3.787  26.942  11.089
64286W        W32504  35.164  26.548   5.218
64287W        W32505   6.877  31.355   3.922
64288W        W32506  44.291  21.661  11.568
64289W        W32507  37.084   6.729  13.807
64290W        W32508  22.200  27.142  10.770
64291W        W32509  31.114   2.818   4.642
64292W        W32510   9.139  30.506  11.461
64293W        W32511  11.795   2.451   3.266
64294W        W32512  11.645  18.256   3.351
64295W        W32513  40.863   9.606   0.775
64296W        W32514  10.295  21.068   4.395
64297W        W32515  16.095  19.920   3.725
64298W        W32516  36.522  22.246   4.251
64299W        W32517   5.121  42.276   4.037
64300W        W32518   6.114  42.444  12.596
64301W        W32519   2.139  36.786   5.096
64302W        W32520   1.232  11.787   1.223
64303W        W32521  38.155  15.145   4.110
64304W        W32522  24.888  22.142  11.901
64305W        W32523  42.953  30.066   1.637
64306W        W32524  21.083  19.612   3.978
64307W        W32525  40.069  44.666   2.750
64308W        W32526  21.940  40.252   3.671
64309W        W32527  40.546  44.930  13.594
64310W        W32528  17.428  23.285   0.251
64311W        W32529  20.147  34.845  12.467
64312W        W32530  32.495   6.869   1.853
64313W        W32531   4.505  16.952  14.992
64314W        W32532  26.688  33.406   1.777
64315W        W32533   7.233  12.484  11.584
64316W        W32534  17.156  18.286   1.486
64317W        W32535  24.942  11.550   0.118
64318W        W32536  19.660  19.588   3.753
64319W        W32537  17.173  27.736   4.045
64320W        W32538  35.696   9.764   1.267
64321W        W32539  13.033  39.348  13.517
64322W        W32540  38.699  35.450   0.311
64323W        W32541  21.518  14.644   1.252
64324W        W32542  18.117  34.915  14.736
64325W        W32543   4.902   2.048  11.989
64326W        W32544  29.050   8.249   2.432
64327W        W32545  25.968  21.768  14.367
64328W        W32546  23.078  21.844  13.417
64329W        W32547  12.111  27.091   3.625
64330W        W32548   2.052  10.132  10.636
64331W        W32549  19.370  21.078  12.185
64332W        W32550  12.661  24.064   0.418
64333W        W32551  17.076  37.916   1.978
64334W        W32552  17.107   8.329  11.890
64335W        W32553  13.433  41.027  11.623
64336W        W32554  32.374  33.209   2.901
64337W        W32555  20.206  33.579   4.251
64338W        W32556  25.451  10.066  10.309
64339W        W32557  40.330  27.248  10.393
64340W        W32558   3.613  28.987  14.270
64341W        W32559  16.771   0.024   2.416
64342W        W32560   3.481   2.229   3.839
64343W        W32561  31.496  16.781   0.271
64344W        W32562  29.659  33.327   9.965
64345W        W32563  34.938  11.649   2.759
64346W        W32564  26.189  24.708   3.022
64347W        W32565  26.613  44.567  12.887
64348W        W32566  21.097   9.710  13.346
64349W        W32567  21.996   7.826  14.215
64350W        W32568   3.910  16.588   3.581
64351W        W32569   4.851  12.068   3.228
64352W        W32570  23.985  14.335   0.883
64353W        W32571  19.543  11.158   0.833
64354W        W32572  35.361   2.041  14.424
64355W        W32573  29.223  35.504  13.295
64356W        W32574  25.453  10.539   4.267
64357W        W32575  41.854   7.044   0.951
64358W        W32576  38.442  37.760  12.979
64359W        W32577  26.718  39.041  12.160
64360W        W32578  27.730  43.018  11.502
64361W        W32579  14.173  38.642  11.266
64362W        W32580  41.447  36.277  13.739
64363W        W32581   2.126  20.182  10.751
64364W        W32582  40.963   8.355   1.337
64365W        W32583  34.127  40.344  10.335
64366W        W32584  25.067  21.070  14.330
64367W        W32585  25.304  22.031  10.992
64368W        W32586  24.734  18.982   0.031
64369W        W32587  12.399  12.029  13.488
64370W        W32588   0.311  10.062  11.423
64371W        W32589  10.225  29.105  11.082
64372W        W32590  30.325  27.948   1.269
64373W        W32591  19.360  33.354  12.883
64374W        W32592  15.907  31.031   1.910
64375W        W32593   0.282  35.694   1.906
64376W        W32594  13.658   6.150   0.259
64377W        W32595  11.219   0.266  12.104
64378W        W32596  23.206  38.340  12.032
64379W        W32597   3.785  11.630  10.380
64380W        W32598  38.937  27.627   4.643
64381W        W32599  26.632   8.335  12.015
64382W        W32600  18.024   6.886   4.049
64383W        W32601   9.768  34.888   2.768
64384W        W32602  12.795  25.635   2.009
64385W        W32603  38.818  11.461  10.757
64386W        W32604   8.393  41.496   4.191
64387W        W32605  44.899  18.616   2.998
64388W        W32606  33.187  13.913  12.107
64389W        W32607  31.092  13.653   3.185
64390W        W32608  24.104  16.082  12.839
64391W        W32609  20.675  19.081  13.319
64392W        W32610  24.677  17.747  13.125
64393W        W32611   5.214  37.940   2.318
64394W        W32612  35.483  23.480  12.952
64395W        W32613  42.900   8.903   0.772
64396W        W32614  43.486  11.379   3.289
64397W        W32615  43.249   8.956   3.311
64398W        W32616  30.900  30.092  12.550
64399W        W32617  34.853  30.272  13.398
64400W        W32618  44.384   7.732  10.950
64401W        W32619  15.046   3.226  14.179
64402W        W32620  27.720  37.715   3.624
64403W        W32621   1.240  29.793  14.452
64404W        W32622  39.433  14.745   2.736
64405W        W32623   4.273  43.959  14.918
64406W        W32624  14.255  12.377  12.472
64407W        W32625  29.183  36.355  12.459
64408W        W32626  42.754   8.234  11.042
64409W        W32627  27.919  37.575  12.355
64410W        W32628  18.073  34.441   3.376
64411W        W32629  40.335   1.531   4.945
64412W        W32630  18.106  43.443   3.741
64413W        W32631  35.504  14.245  12.611
64414W        W32632   2.991  29.361  13.069
64415W        W32633  28.355  28.578   2.416
64416W        W32634  30.598   7.665  10.623
64417W        W32635  14.835  37.468   0.861
64418W        W32636  14.237  37.986   3.956
64419W        W32637  12.644  22.689   1.960
64420W        W32638   7.207  33.523   3.700
64421W        W32639  40.608  36.484  10.444
64422W        W32640   8.773  21.504   0.868
64423W        W32641  24.721  42.357  14.434
64424W        W32642  32.907  16.720   0.543
64425W        W32643  34.037  30.509  14.927
64426W        W32644  13.168  34.513   0.308
64427W        W32645  22.122  30.186   3.870
64428W        W32646  33.918  31.238   4.147
64429W        W32647  40.684  26.670   3.257
64430W        W32648  18.433  25.282  10.979
64431W        W32649   6.631  13.328  11.054
64432W        W32650   6.771   6.495  10.724
64433W        W32651   0.410  23.540  13.222
64434W        W32652  30.421  31.374  14.708
64435W        W32653   3.239  20.770   2.361
64436W        W32654  18.271   5.902   2.199
64437W        W32655  29.861  12.348   0.825
64438W        W32656  21.147   4.745   4.978
64439W        W32657   2.428  39.573   0.888
64440W        W32658  20.845  11.527  11.204
64441W        W32659  36.953  27.688  12.431
64442W        W32660  24.098  27.329   4.125
64443W        W32661  43.560  31.422  14.205
64444W        W32662  32.104  34.068  12.597
64445W        W32663  26.485   5.882  12.832
64446W        W32664  35.470  29.591   1.863
64447W        W32665  12.872  36.830   4.104
64448W        W32666  32.368  39.834   1.878
64449W        W32667  31.425  13.751   0.246
64450W        W32668  26.534  39.959   4.724
64451W        W32669  21.518  35.786  10.462
64452W        W32670  28.552   4.834  14.582
64453W        W32671  14.124   1.225  14.630
64454W        W32672  26.792   4.279   1.308
64455W        W32673  33.392  39.633   1.304
64456W        W32674  16.124  42.285   3.226
64457W        W32675  43.425  26.145   4.106
64458W        W32676  15.051  42.857  12.605
64459W        W32677  23.036  11.531   0.507
64460W        W32678   0.539  36.144   1.957
64461W        W32679   7.798  14.754  10.576
64462W        W32680   1.569  43.462  13.034
64463W        W32681  43.763  42.968   4.064
64464W        W32682  28.493  29.471  14.599
64465W        W32683   1.256   1.214  13.444
64466W        W32684  22.565  19.006  12.135
64467W        W32685   6.036   6.413   3.375
64468W        W32686  40.471   4.838   1.878
64469W        W32687   0.030  12.478  13.951
64470W        W32688  44.432  41.235  10.213
64471W        W32689  37.973  26.407   1.968
64472W        W32690  15.296  44.519   2.294
64473W        W32691  37.090  38.082  11.981
64474W        W32692  32.852  40.445  11.214
64475W        W32693   2.115   0.264  10.899
64476W        W32694   2.444  17.186   4.543
64477W        W32695  20.856  36.367  10.302
64478W        W32696   9.975  19.692  10.845
64479W        W32697  15.564  29.445   4.429
64480W        W32698  13.778  21.616  10.479
64481W        W32699   3.760  12.314   0.781
64482W        W32700   0.703   3.937  14.794
64483W        W32701   6.747  11.232   4.568
64484W        W32702   6.983  20.997  11.667
64485W        W32703  15.414   3.305  12.969
64486W        W32704   8.330   1.738  14.793
64487W        W32705  43.882  10.330  13.498
64488W        W32706  20.705   6.201  11.589
64489W        W32707  21.997  17.643  11.613
64490W        W32708   6.724  22.248  14.984
64491W        W32709  26.312  18.782  14.476
64492W        W32710  22.148  18.045   0.825
64493W        W32711  42.805   6.981  10.594
64494W        W32712  10.585   1.349  10.730
64495W        W32713  12.849  29.202   1.446
64496W        W32714   1.183  25.489   0.832
64497W        W32715   7.317  30.351   3.203
64498W        W32716  12.107  35.899   1.797
64499W        W32717  30.948  27.451  11.587
64500W        W32718  30.021   6.596   4.044
64501W        W32719  26.207  42.004   3.469
64502W        W32720  29.012  34.143  14.800
64503W        W32721   6.917  37.337   0.573
64504W        W32722  42.073  19.717   4.160
64505W        W32723  10.439  23.096  10.786
64506W        W32724  20.985  33.910   3.518
64507W        W32725   0.279  39.962   3.274
64508W        W32726  37.038  16.699  12.491
64509W        W32727   7.784  29.294  14.174
64510W        W32728  17.423  22.969  11.573
64511W        W32729  19.572  15.476   3.756
64512W        W32730  16.085  37.385  14.271
64513W        W32731  23.539  15.798  13.970
64514W        W32732  34.904  15.785   3.779
64515W        W32733  35.558  43.399  12.504
64516W        W32734  17.030  18.691  14.331
64517W        W32735   3.483  30.576  11.443
64518W        W32736  16.533  18.575  14.342
64519W        W32737  15.293   1.735  14.479
64520W        W32738  15.307  40.030   0.827
64521W        W32739   4.432   3.708  14.058
64522W        W32740  19.966  37.775  10.955
64523W        W32741  41.916  34.817   4.164
64524W        W32742  24.985  26.961  11.232
64525W        W32743  22.474  12.789  12.910
64526W        W32744  41.870  40.282   2.434
64527W        W32745  33.650   2.686  11.049
64528W        W32746  32.932  11.648   0.556
64529W        W32747   2.887   3.966  14.841
64530W        W32748  37.012  11.945  12.552
64531W        W32749  16.393  17.661   1.809
64532W        W32750  11.828  26.976  12.836
64533W        W32751  34.232  39.345   3.711
64534W        W32752   8.717  43.434   5.107
64535W        W32753  42.350   2.446   1.300
64536W        W32754   3.515  17.147   0.290
64537W        W32755  21.156  44.931   4.639
64538W        W32756  35.515  18.061   0.448
64539W        W32757   0.837   1.247  12.513
64540W        W32758  24.465  30.592  12.990
64541W        W32759  26.812  39.948  13.362
64542W        W32760  32.564  30.066  11.204
64543W        W32761  41.784   4.884   3.340
64544W        W32762  23.015   9.632  13.470
64545W        W32763   6.040   6.223   1.614
64546W        W32764  13.297  44.007   0.308
64547W        W32765  28.096  28.623   1.985
64548W        W32766  35.438  30.937   3.240
64549W        W32767  32.881   9.804  12.209
64550W        W32768  34.698  26.586  13.277
64551W        W32769  37.995  15.544   2.244
64552W        W32770  18.954  36.990   4.053
64553W        W32771  35.168  15.224  10.956
64554W        W32772   6.193  44.063  14.516
64555W        W32773  33.861  42.522  10.702
64556W        W32774   8.686  37.953   4.590
64557W        W32775  13.880  38.505  10.486
64558W        W32776  41.869  18.382   0.198
64559W        W32777  22.143  16.627   1.353
64560W        W32778   9.967  42.604  12.830
64561W        W32779  10.611   4.701   1.326
64562W        W32780  35.939  10.602  14.802
64563W        W32781  15.769  32.907  12.581
64564W        W32782  40.866  24.648   4.642
64565W        W32783  26.474  22.644  12.444
64566W        W32784  10.902  31.961   1.373
64567W        W32785   5.871  25.768  11.622
64568W        W32786  25.476   6.428   1.219
64569W        W32787  38.047   5.571  12.079
64570W        W32788   0.857  36.912  14.274
64571W        W32789  31.565  35.350   1.424
64572W        W32790  42.438  20.765   4.099
64573W        W32791  33.489   0.746  13.971
64574W        W32792  35.155  29.793  14.895
64575W        W32793  22.456   1.841  11.151
64576W        W32794  37.298   3.143  10.981
64577W        W32795   5.469  10.195   4.143
64578W        W32796   5.861   6.820   4.355
64579W        W32797  22.448  33.368  14.425
64580W        W32798  39.571  19.029  12.897
64581W        W32799  28.668  34.811   0.446
64582W        W32800  13.173  23.173   3.444
64583W        W32801  15.068   0.288   2.422
64584W        W32802   0.615  38.883  11.082
64585W        W32803  23.211  39.482   4.598
64586W        W32804  21.339  10.342   3.829
64587W        W32805  36.421  36.961   3.100
64588W        W32806  39.241  28.647  13.266
64589W        W32807  34.134  20.622   0.981
64590W        W32808   3.934  35.794   2.659
64591W        W32809   1.984  44.414  13.937
64592W        W32810  25.853   6.623   3.794
64593W        W32811  32.572  26.952  14.301
64594W        W32812  35.711  33.654   0.309
64595W        W32813  14.164  16.342   0.629
64596W        W32814  10.193  17.308   0.821
64597W        W32815  44.148  22.241   3.282
64598W        W32816  40.362  18.673  13.444
64599W        W32817  28.107   8.644   2.276
64600W        W32818  20.484  17.886   1.334
64601W        W32819  22.237  32.336   1.436
64602W        W32820  12.719  28.644   4.344
64603W        W32821  31.039  27.618   0.465
64604W        W32822  42.011  16.103   0.011
64605W        W32823  28.519  37.600  13.437
64606W        W32824  43.874   9.371  14.557
64607W        W32825  43.508  12.729   4.054
64608W        W32826  20.088  44.403   2.639
64609W        W32827  37.099  12.670  14.883
64610W        W32828  30.371  22.957   4.033
64611W        W32829  11.691  44.811  14.430
64612W        W32830  27.579  36.502   1.000
64613W        W32831   7.871  29.636   2.702
64614W        W32832  26.844  36.280  11.524
64615W        W32833  32.650  36.967   0.855
64616W        W32834  10.714  33.103   3.683
64617W        W32835  18.727  33.917   4.014
64618W        W32836   8.918   3.861  13.504
64619W        W32837  38.055   8.260   4.175
64620W        W32838  25.354   0.024   3.598
64621W        W32839  16.225   1.944   1.415
64622W        W32840   9.616  22.586  11.707
64623W        W32841  22.006  14.218  14.805
64624W        W32842  35.125  18.594  11.429
64625W        W32843  22.041   9.265   4.614
64626W        W32844  20.620  35.543   4.158
64627W        W32845  20.771  17.347   4.288
64628W        W32846  31.204  13.212   3.412
64629W        W32847  23.285  32.759  13.438
64630W        W32848  36.940  39.954   4.060
64631W        W32849  35.322   0.666   2.924
64632W        W32850   3.710  24.041   3.167
64633W        W32851  17.705  27.005  12.203
64634W        W32852  44.449  27.114  13.118
64635W        W32853  32.554  40.449   4.570
64636W        W32854  34.815  38.791  10.754
64637W        W32855  43.933  14.817  14.529
64638W        W32856  27.138  25.255  14.526
64639W        W32857   3.847  39.903  10.937
64640W        W32858  38.918   9.462  12.607
64641W        W32859  32.413  11.785   0.884
64642W        W32860  17.321  23.104  13.929
64643W        W32861  42.504   4.702  11.133
64644W        W32862  23.272   3.837  12.885
64645W        W32863  16.950  42.209   4.356
64646W        W32864   8.440   1.945  12.592
64647W        W32865   9.125   5.010   2.169
64648W        W32866  24.602  32.094  12.564
64649W        W32867  12.286  11.312   1.925
64650W        W32868  39.511  31.710   4.039
64651W        W32869  26.777  34.056  11.695
64652W        W32870  15.337  13.115   3.672
64653W        W32871   1.015   8.384  12.412
64654W        W32872  44.076  25.513   0.240
64655W        W32873  42.864  30.914  13.781
64656W        W32874  32.362  25.860  13.852
64657W        W32875  21.311  21.514  13.623
64658W        W32876   0.015  43.350  12.968
64659W        W32877  42.824  40.265   1.388
64660W        W32878   1.268  37.934   3.036
64661W        W32879  37.906  30.113  14.285
64662W        W32880  43.999   2.918  11.630
64663W        W32881  25.520  13.855   9.874
64664W        W32882  35.832   1.230  14.853
64665W        W32883  19.630  19.503   1.832
64666W        W32884  21.014  11.396  12.895
64667W        W32885  37.207   1.450   3.742
64668W        W32886  26.528   1.884  10.703
64669W        W32887   6.206   7.548   2.742
64670W        W32888  37.918  42.285  12.130
64671W        W32889  44.951  17.140  12.930
64672W        W32890  19.405   6.362  14.742
64673W        W32891  11.248  15.862   4.675
64674W        W32892  18.460  34.557   1.648
64675W        W32893  39.948  13.538   4.340
64676W        W32894  18.018  18.597  12.388
64677W        W32895  28.716  15.170   1.983
64678W        W32896  34.876   6.274   3.401
64679W        W32897  28.791  36.541  12.748
64680W        W32898  38.824   2.238  13.534
64681W        W32899  24.446   6.554   2.914
64682W        W32900  43.283  28.042   3.817
64683W        W32901  37.389  21.626   2.310
64684W        W32902  32.564  31.923  14.816
64685W        W32903  19.092  14.405   4.136
64686W        W32904  39.305  44.510   2.312
64687W        W32905  23.591  44.003  11.719
64688W        W32906   4.317  22.419  12.853
64689W        W32907  36.280  31.441  11.546
64690W        W32908  22.102  19.065  13.783
64691W        W32909   8.731  16.842  12.022
64692W        W32910  37.132  19.632   2.629
64693W        W32911  24.005  13.426   2.051
64694W        W32912  23.547   0.373   3.817
64695W        W32913  42.773  20.761  11.396
64696W        W32914  41.800  14.652   2.801
64697W        W32915   8.386   5.694   3.793
64698W        W32916  33.796   5.950  13.243
64699W        W32917  19.137   9.957   4.565
64700W        W32918  38.534  29.942   1.657
64701W        W32919  30.461  30.474  14.642
64702W        W32920  31.393  30.434  14.194
64703W        W32921  33.360  19.819   5.034
64704W        W32922  13.002  40.442   3.844
64705W        W32923  11.390   4.256   3.731
64706W        W32924  42.747  16.547  13.780
64707W        W32925   2.071  12.281   4.659
64708W        W32926  27.261  22.483  13.519
64709W        W32927  23.184  13.967   2.832
64710W        W32928   6.223   9.849   3.608
64711W        W32929  33.671   3.242  14.400
64712W        W32930   4.937  15.779   2.672
64713W        W32931  41.063  10.706  14.875
64714W        W32932  26.296   5.960   3.212
64715W        W32933  29.492  18.277   5.007
64716W        W32934  11.639   7.145  11.318
64717W        W32935  23.638  37.216   0.453
64718W        W32936  18.786  38.431   3.182
64719W        W32937  30.637  39.834   2.264
64720W        W32938  26.080  12.044  13.377
64721W        W32939  31.896  22.058  11.884
64722W        W32940  17.545   6.158   3.105
64723W        W32941   3.271   5.022  12.343
64724W        W32942  33.128  22.595  14.316
64725W        W32943  27.641  31.908   2.416
64726W        W32944  29.210  33.195  13.612
64727W        W32945  17.029  37.057  10.757
64728W        W32946   3.940  10.401   1.255
64729W        W32947  31.937  25.099   1.526
64730W        W32948  14.770  31.453   2.366
64731W        W32949  29.388  13.688  12.861
64732W        W32950  33.976   2.237   0.267
64733W        W32951  27.554  30.324   4.252
64734W        W32952  22.148  37.972  12.500
64735W        W32953  39.064   7.618   3.631
64736W        W32954  23.190   0.321  13.992
64737W        W32955  21.683  39.387  13.243
64738W        W32956  31.527   3.666  14.766
64739W        W32957   9.249   6.443  11.032
64740W        W32958  24.243  35.617   2.715
64741W        W32959  13.656   5.687  11.173
64742W        W32960   0.499  22.001   0.625
64743W        W32961  28.763   5.004   3.431
64744W        W32962   8.903   1.974  11.480
64745W        W32963  20.974  34.376  13.039
64746W        W32964  44.768  31.644   2.277
64747W        W32965  23.098  13.349  13.952
64748W        W32966   7.308  16.243  12.565
64749W        W32967  25.135  13.609   1.187
64750W        W32968  16.802  39.044  13.254
64751W        W32969  12.395  17.933   3.234
64752W        W32970  44.695   6.304  10.968
64753W        W32971  26.697  12.189   0.553
64754W        W32972  15.669  38.205  14.902
64755W        W32973   0.519  44.500  10.894
64756W        W32974  26.974  22.083  13.314
64757W        W32975   4.938  40.018   0.444
64758W        W32976  15.023  13.599   5.440
64759W        W32977  25.161  23.292  12.445
64760W        W32978  43.322  44.328   3.252
64761W        W32979  15.715  41.016  12.595
64762W        W32980  32.128  35.492  14.326
64763W        W32981  34.880  25.077  10.093
64764W        W32982  21.962  31.216  11.099
64765W        W32983  34.007  41.850  11.763
64766W        W32984  34.223   7.279   3.284
64767W        W32985  43.506   3.767   4.363
64768W        W32986   3.820  28.708   2.955
64769W        W32987  14.672  38.447   4.640
64770W        W32988  21.650  37.584   9.495
64771W        W32989  25.223   2.373   0.319
64772W        W32990  14.869   0.929  13.961
64773W        W32991   9.366  33.269  11.853
64774W        W32992  11.490  34.787   4.170
64775W        W32993  41.746  12.079  11.614
64776W        W32994  12.894   5.774  13.719
64777W        W32995  12.782  40.538   3.368
64778W        W32996  39.106  24.508   3.768
64779W        W32997  21.405   5.051  11.969
64780W        W32998  17.548  21.198  10.743
64781W        W32999   5.405  39.488  13.804
64782W        W33000  37.473  26.953   4.304
64783W        W33001  21.713  34.613   1.375
64784W        W33002   3.530  14.779   3.657
64785W        W33003  20.894  43.873  11.602
64786W        W33004  12.671   5.951  11.939
64787W        W33005  36.074  24.455  13.534
64788W        W33006  15.193  18.301  14.738
64789W        W33007  43.961  20.079  13.406
64790W        W33008  25.183   9.790   2.362
64791W        W33009   2.673  26.687   2.563
64792W        W33010  23.216  19.994  13.097
64793W        W33011  16.472  38.271  13.063
64794W        W33012   9.051  20.496  12.599
64795W        W33013  30.480   4.460  12.238
64796W        W33014  36.560  36.833   1.243
64797W        W33015   9.013  23.543   4.623
64798W        W33016  34.015  11.090  14.524
64799W        W33017   9.785  26.973  11.651
64800W        W33018   7.284  13.842  13.916
64801W        W33019  31.967  36.303   1.053
64802W        W33020   5.720  22.566   2.193
64803W        W33021  12.460  42.120   5.091
64804W        W33022  20.649  28.460  11.936
64805W        W33023  25.218  19.176  14.939
64806W        W33024   5.452   3.000  14.260
64807W        W33025  22.011  34.650   2.679
64808W        W33026  22.076  13.719  11.738
64809W        W33027  28.446  17.683   1.265
64810W        W33028   3.726  29.820  12.613
64811W        W33029  38.879  20.953  12.431
64812W        W33030   9.751  37.335  13.525
64813W        W33031   5.747   3.841   0.870
64814W        W33032  17.762  30.998  11.453
64815W        W33033   4.299   2.021  14.432
64816W        W33034  20.511  10.745  10.654
64817W        W33035  44.745   2.374  12.030
64818W        W33036   3.419   0.253  13.596
64819W        W33037  15.594  15.256   1.348
64820W        W33038   9.146   2.835  13.891
64821W        W33039  18.527   6.276   1.177
64822W        W33040  32.050   5.104  11.681
64823W        W33041  30.516  39.854   4.550
64824W        W33042  35.317  29.419   4.293
64825W        W33043   6.215  27.147  13.770
64826W        W33044  44.264   4.807  13.023
64827W        W33045  37.390  10.206   4.364
64828W        W33046  25.730   5.373   4.825
64829W        W33047   9.098   0.307  10.761
64830W        W33048  12.324  18.967   4.837
64831W        W33049  32.698  41.538  11.064
64832W        W33050   5.433  22.183   2.384
64833W        W33051  18.762   9.791  14.423
64834W        W33052   7.154   8.979   3.963
64835W        W33053   7.781  32.894  13.864
64836W        W33054   6.494   2.670   0.832
64837W        W33055   5.706  23.057  14.886
64838W        W33056  27.560  31.622  10.527
64839W        W33057  36.414  20.608   0.935
64840W        W33058   5.006  17.547  13.892
64841W        W33059  43.102  43.064   1.816
64842W        W33060   1.893  26.351  13.806
64843W        W33061  10.536  34.811   1.017
64844W        W33062  30.439  43.952   0.255
64845W        W33063  32.081  41.732  11.946
64846W        W33064   8.162   9.436  13.290
64847W        W33065  39.807  28.990   0.189
64848W        W33066   4.329  11.386  14.513
64849W        W33067  32.866   2.820   0.128
64850W        W33068  39.541  26.959  10.425
64851W        W33069  25.159  41.277  12.069
64852W        W33070  16.361  37.068  12.945
64853W        W33071  40.032  22.439   2.266
64854W        W33072  23.941  19.392  10.939
64855W        W33073  34.609  14.617   1.393
64856W        W33074  36.400   2.763   2.292
64857W        W33075  17.771  14.258  13.505
64858W        W33076   3.814  25.554   2.854
64859W        W33077  42.900  33.219  11.541
64860W        W33078   2.322   9.609   4.106
64861W        W33079  27.167  32.310   2.670
64862W        W33080   2.320   4.519  13.134
64863W        W33081   9.002  18.414  14.723
64864W        W33082  31.870  43.505   4.201
64865W        W33083  17.176  12.718  13.036
64866W        W33084  16.338   7.285  12.921
64867W        W33085  32.127  29.566  12.369
64868W        W33086  12.408   5.499   3.331
64869W        W33087   1.549   3.777   0.730
64870W        W33088  33.124  43.044  11.657
64871W        W33089   2.968  21.935  14.827
64872W        W33090   6.541  18.830  11.042
64873W        W33091  39.155  35.401  14.443
64874W        W33092   4.272   2.398  11.250
64875W        W33093  18.926   9.719   4.139
64876W        W33094  15.129  34.152   1.271
64877W        W33095  41.469  18.258  12.016
64878W        W33096  26.403  15.075   3.203
64879W        W33097   4.099  16.200  11.218
64880W        W33098  13.129  38.681  11.908
64881W        W33099  38.150  41.810  12.099
64882W        W33100  36.957   5.648  12.489
64883W        W33101  22.346  33.533   0.922
64884W        W33102  38.809  17.760   3.666
64885W        W33103  33.620  39.855  13.083
64886W        W33104  24.466  32.881  10.908
64887W        W33105  31.143  16.092   1.206
64888W        W33106  21.173  32.165   9.998
64889W        W33107  36.060  32.906  10.659
64890W        W33108  25.749  24.633  12.653
64891W        W33109  19.167  32.036   3.308
64892W        W33110   7.699  25.151  14.670
64893W        W33111  21.032  42.337   4.627
64894W        W33112  28.161  24.253   4.650
64895W        W33113  21.037  20.652   4.029
64896W        W33114  31.804   3.128  14.380
64897W        W33115  20.789  44.190  13.927
64898W        W33116  17.301  26.248   0.309
64899W        W33117  36.042   2.412  14.121
64900W        W33118  27.982  18.961   2.625
64901W        W33119   4.188  22.220  13.772
64902W        W33120  12.168  31.365   1.907
64903W        W33121  27.344  13.340   5.433
64904W        W33122  13.604   0.795   1.711
64905W        W33123   6.201   9.683  13.397
64906W        W33124  41.871  39.815   2.282
64907W        W33125  33.163  34.860  11.192
64908W        W33126  41.482  38.272  12.146
64909W        W33127   2.258  20.118  14.849
64910W        W33128  19.841  21.673  11.179
64911W        W33129  43.325  12.096  10.158
64912W        W33130  31.441  12.192   2.940
64913W        W33131  41.487  16.122   3.247
64914W        W33132  14.866  32.680  11.486
64915W        W33133  30.596  33.019  12.568
64916W        W33134   6.512  25.523   4.542
64917W        W33135  12.372   3.937  14.326
64918W        W33136   8.410  27.459  11.148
64919W        W33137  12.234  24.725  11.128
64920W        W33138  16.544  28.492  12.531
64921W        W33139  31.080  31.495   0.394
64922W        W33140  19.244  11.834   3.848
64923W        W33141  12.902  31.627   2.877
64924W        W33142   4.204   1.715  12.995
64925W        W33143   6.759  18.682   4.131
64926W        W33144  30.999  39.991   0.831
64927W        W33145   0.166  34.887  10.767
64928W        W33146  36.092  31.127  11.946
64929W        W33147  18.518  11.781  13.804
64930W        W33148  25.541  33.902   0.219
64931W        W33149  12.347  21.257  13.557
64932W        W33150  39.052  41.594  13.040
64933W        W33151  31.113  11.889  11.988
64934W        W33152  15.573  10.383   0.865
64935W        W33153  37.348   9.887  10.595
64936W        W33154  19.198  37.095  12.974
64937W        W33155   2.049  41.063  14.533
64938W        W33156  39.846   2.993   3.346
64939W        W33157  19.460  40.340   4.551
64940W        W33158  25.611  21.755   3.594
64941W        W33159   1.368  10.758   4.081
64942W        W33160  39.736  43.148   4.186
64943W        W33161  29.980  43.101  11.072
64944W        W33162  23.287   5.722  10.518
64945W        W33163  22.213   0.666   4.130
64946W        W33164  34.598   6.291   4.339
64947W        W33165  41.407  41.632   0.554
64948W        W33166   7.001  32.163  10.876
64949W        W33167  24.180  37.573   0.841
64950W        W33168  43.187  44.421   4.131
64951W        W33169  16.820  44.924   1.210
64952W        W33170  15.885  36.738  14.701
64953W        W33171   6.697  29.484  11.223
64954W        W33172  18.501  26.454  12.570
64955W        W33173   8.830  20.091  10.283
64956W        W33174  14.046  22.062  13.196
64957W        W33175  32.096  17.098   4.024
64958W        W33176  41.483  10.582   2.701
64959W        W33177  12.522  44.602   0.433
64960W        W33178  34.821   8.334  14.965
64961W        W33179  26.235  33.132  12.407
64962W        W33180  19.793  13.608  13.553
64963W        W33181  13.198  24.006   1.724
64964W        W33182  41.829   0.682   2.269
64965W        W33183  29.630   2.468  11.122
64966W        W33184  43.885  16.183   4.682
64967W        W33185   4.506  33.545  12.542
64968W        W33186  34.185  21.050  14.257
64969W        W33187  38.445   9.936  14.299
64970W        W33188   8.538  20.170   0.713
64971W        W33189   3.305  26.987  14.937
64972W        W33190  43.530  31.438   2.620
64973W        W33191   5.342   5.229  13.510
64974W        W33192  27.441   0.536   4.137
64975W        W33193  16.585   9.872  11.092
64976W        W33194  20.714  39.209  12.935
64977W        W33195  44.583   8.760   1.701
64978W        W33196  33.883  37.346  11.810
64979W        W33197  40.462  40.057  11.757
64980W        W33198  15.713  22.156   4.852
64981W        W33199  20.608  13.738   9.807
64982W        W33200  25.201   2.348   0.847
64983W        W33201  23.165  12.280  11.106
64984W        W33202  10.821  36.981  14.075
64985W        W33203  30.013  24.476  10.554
64986W        W33204  40.313  21.183  11.523
64987W        W33205  19.432  35.466   1.972
64988W        W33206  13.913   1.523   0.984
64989W        W33207  15.419  42.102   3.893
64990W        W33208   0.947  31.176  12.561
64991W        W33209  21.092  28.479  11.044
64992W        W33210  30.470  41.996  11.557
64993W        W33211  10.681  16.031  11.392
64994W        W33212  30.948  20.707  13.825
64995W        W33213  43.710  34.089  10.343
64996W        W33214  25.040  13.748   4.531
64997W        W33215  22.990  18.687   3.239
64998W        W33216  27.080  37.866  11.967
64999W        W33217   1.689  19.700   4.354
65000W        W33218  40.137  37.144  14.305
65001W        W33219  42.998   3.341   0.643
65002W        W33220  27.545  17.480   3.261
65003W        W33221  22.323   2.062   3.174
65004W        W33222  32.279  13.641  10.592
65005W        W33223  44.316  29.882  14.957
65006W        W33224   1.516  23.224  10.720
65007W        W33225   9.203  28.549   2.229
65008W        W33226   5.509   5.221   3.283
65009W        W33227  14.273   8.709  13.353
65010W        W33228  31.460  28.042  12.006
65011W        W33229  27.855  31.039   2.899
65012W        W33230   7.619  42.047  12.478
65013W        W33231  22.222  42.888  11.899
65014W        W33232   9.381  13.155  12.473
65015W        W33233  11.659   9.020  11.716
65016W        W33234  26.016   3.521   2.895
65017W        W33235  39.762   5.388  11.590
65018W        W33236  13.802  40.162   4.115
65019W        W33237  23.962  10.665   4.928
65020W        W33238   7.361  11.722  12.010
65021W        W33239  11.624  37.108   0.477
65022W        W33240  13.384  42.470  13.369
65023W        W33241   5.592  34.408   1.322
65024W        W33242  27.443  38.953  12.786
65025W        W33243  40.088  30.461   2.338
65026W        W33244  27.538  34.046  10.686
65027W        W33245  42.120   0.306  14.430
65028W        W33246  14.659   0.985  12.533
65029W        W33247   5.761  38.712   2.293
65030W        W33248  29.207  44.568  12.376
65031W        W33249  25.805  39.785  13.435
65032W        W33250  27.924  35.088  14.841
65033W        W33251  20.261  23.474   1.869
65034W        W33252  28.934   5.775  12.833
65035W        W33253  44.592  15.294  12.458
65036W        W33254  12.311  31.242   2.382
65037W        W33255  29.712   3.789   0.325
65038W        W33256  42.193  15.107   1.871
65039W        W33257  25.649  24.019  13.390
65040W        W33258  42.273  13.139  11.399
65041W        W33259  16.691  44.955  11.043
65042W        W33260  31.452   1.408   1.262
65043W        W33261  19.582  11.437   1.276
65044W        W33262  12.183  27.152  10.799
65045W        W33263  29.864   1.555  12.381
65046W        W33264  35.871   7.856   0.234
65047W        W33265  39.386  30.846  12.326
65048W        W33266  18.523  34.672  11.871
65049W        W33267   1.669   9.290   0.259
65050W        W33268  12.975  43.478  12.507
65051W        W33269  12.562  43.923   0.859
65052W        W33270  25.068  25.239  13.555
65053W        W33271   8.946  31.495  13.026
65054W        W33272  36.033  17.668   4.122
65055W        W33273  38.450   8.963  10.666
65056W        W33274  22.167   4.682  13.827
65057W        W33275  30.649   1.401  10.720
65058W        W33276  27.249  34.499   0.816
65059W        W33277  10.628  38.118  14.822
65060W        W33278  43.726  38.877   3.756
65061W        W33279  16.089   5.779   2.133
65062W        W33280  36.111  24.010  14.043
65063W        W33281  33.394  17.379   3.811
65064W        W33282  18.798  26.565   4.616
65065W        W33283  31.865  38.770  11.070
65066W        W33284  41.751  37.738  12.526
65067W        W33285  35.756  43.731   1.479
65068W        W33286  29.640  24.518   4.078
65069W        W33287  13.832  42.907   2.253
65070W        W33288   3.944  25.182  14.847
65071W        W33289  33.151  24.282  13.587
65072W        W33290  30.678  17.211  13.525
65073W        W33291  23.627  26.682   4.542
65074W        W33292  22.853  38.546   1.892
65075W        W33293  43.916   8.705   4.429
65076W        W33294  16.085  44.877  14.502
65077W        W33295   9.189   1.971  11.898
65078W        W33296  28.011  13.772   1.252
65079W        W33297  16.246  23.855   3.924
65080W        W33298  14.112  43.398   1.409
65081W        W33299  11.279  32.420   1.046
65082W        W33300  31.856  38.000   3.754
65083W        W33301   2.193  21.855  12.315
65084W        W33302  34.321   5.359   2.769
65085W        W33303  26.691   5.957  12.354
65086W        W33304  27.164  41.316  14.757
65087W        W33305  22.164   2.868  11.008
65088W        W33306  41.023   0.315   2.401
65089W        W33307  41.603  34.826   0.726
65090W        W33308  32.558  38.976   2.436
65091W        W33309  22.510  25.544  10.389
65092W        W33310  10.168  19.681  12.496
65093W        W33311   5.247   6.185   2.837
65094W        W33312  42.958  38.644  12.461
65095W        W33313  25.059  14.854   2.468
65096W        W33314  28.036  16.337  14.239
65097W        W33315  29.871  42.097   2.332
65098W        W33316  32.279  30.422   3.656
65099W        W33317   7.170  42.384   3.181
65100W        W33318   4.616  18.408   3.134
65101W        W33319  41.556  29.917  11.417
65102W        W33320  11.824  23.575   3.618
65103W        W33321   0.633  18.563   4.151
65104W        W33322  27.062  21.441  13.029
65105W        W33323  11.083  32.372  14.755
65106W        W33324   3.013  24.727  11.566
65107W        W33325  39.811  18.532   2.764
65108W        W33326  38.123  25.191  11.516
65109W        W33327  42.401  27.233   0.009
65110W        W33328  34.453  39.683   2.193
65111W        W33329  30.500  43.102  11.540
65112W        W33330  42.395  37.171  12.807
65113W        W33331  34.019  13.518  14.339
65114W        W33332  28.444  39.106   4.077
65115W        W33333   3.807  24.745  10.574
65116W        W33334  13.486  13.198   3.995
65117W        W33335  35.961  42.024  10.840
65118W        W33336  39.236   5.921   3.318
65119W        W33337  20.022   0.015  12.957
65120W        W33338  18.659  27.080   0.337
65121W        W33339  32.971  42.534  11.717
65122W        W33340  33.693  42.846  12.065
65123W        W33341  11.515   7.162  13.428
65124W        W33342   2.795  40.282   3.157
65125W        W33343  25.106  18.603  13.083
65126W        W33344   5.869  17.826   4.201
65127W        W33345   9.727   2.833  12.968
65128W        W33346  28.723  13.688  10.782
65129W        W33347   9.720   4.678  10.661
65130W        W33348  10.976  13.083   2.231
65131W        W33349  36.878  24.239   2.948
65132W        W33350  41.451  32.508   1.638
65133W        W33351   2.685  19.016  13.924
65134W        W33352  41.472  32.062  14.256
65135W        W33353  32.968  36.066   0.520
65136W        W33354  33.232  27.616  13.925
65137W        W33355   5.852  13.169  10.718
65138W        W33356  13.869  44.753   0.002
65139W        W33357  29.530  44.613  14.122
65140W        W33358   8.097  15.754   4.981
65141W        W33359   8.907   4.233  12.857
65142W        W33360  30.469  44.733  11.042
65143W        W33361  16.179  16.217   0.320
65144W        W33362  41.124  16.889  13.248
65145W        W33363  16.844  43.516  11.356
65146W        W33364  30.641  12.339   2.668
65147W        W33365  22.574  19.256   1.368
65148W        W33366  11.400  17.535  14.379
65149W        W33367  34.648  44.244  14.192
65150W        W33368  25.714  24.664  10.764
65151W        W33369   9.230  27.218   1.932
65152W        W33370  21.188  28.263   1.686
65153W        W33371  21.395  11.725   4.256
65154W        W33372   6.405  22.308  11.178
65155W        W33373  18.970  24.041   3.615
65156W        W33374  37.869  14.367   1.195
65157W        W33375  36.977   3.498  10.823
65158W        W33376  12.373  44.574  11.722
65159W        W33377  32.210  21.687  10.579
65160W        W33378  38.856  24.987   4.658
65161W        W33379   9.801  29.664   4.650
65162W        W33380  16.709  24.383   4.174
65163W        W33381  21.523  39.896  12.028
65164W        W33382  16.789   3.943   2.263
65165W        W33383   7.338  20.384   1.963
65166W        W33384  31.712  36.598   1.929
65167W        W33385   1.216  31.146   4.323
65168W        W33386  41.244  17.886  11.663
65169W        W33387  44.541  42.001  11.203
65170W        W33388  25.573  15.546  12.855
65171W        W33389  16.068   3.723   4.546
65172W        W33390  13.715  11.260  13.859
65173W        W33391   3.943  42.367   4.580
65174W        W33392  42.376  40.019   1.557
65175W        W33393  27.478  42.363  13.393
65176W        W33394  16.562  38.825   2.833
65177W        W33395  24.268  16.972  11.181
65178W        W33396  20.219   0.503  13.885
65179W        W33397  33.422  35.139   1.381
65180W        W33398  24.539  44.353  13.446
65181W        W33399  43.340  18.500   3.172
65182W        W33400  14.606  10.369   2.406
65183W        W33401   1.841  26.817  13.968
65184W        W33402   2.942  27.360  10.997
65185W        W33403   2.046  35.874  14.336
65186W        W33404  21.506  28.329  12.458
65187W        W33405  44.391  27.049   2.868
65188W        W33406  13.235  30.819  14.835
65189W        W33407  40.948  21.615  11.200
65190W        W33408   1.999  36.595  13.011
65191W        W33409  38.937   6.155  12.617
65192W        W33410  18.622  34.037   1.629
65193W        W33411  12.803  23.529  13.312
65194W        W33412  24.951  43.824  14.423
65195W        W33413  12.472  42.827   0.548
65196W        W33414  42.256  12.505   3.758
65197W        W33415  20.103  18.425  10.710
65198W        W33416  13.102   8.695   0.786
65199W        W33417  10.266  24.008  11.882
65200W        W33418  17.994   4.592  12.963
65201W        W33419  18.596  29.341   2.862
65202W        W33420  37.270  22.532   4.333
65203W        W33421  44.428  42.906  13.566
65204W        W33422  32.507  43.706  14.842
65205W        W33423   9.167  14.421  13.058
65206W        W33424  43.285   4.892   1.468
65207W        W33425  27.016   9.137   3.563
65208W        W33426  14.039  11.771   2.456
65209W        W33427  28.874  42.701   4.107
65210W        W33428   9.167  36.924  10.750
65211W        W33429  36.661  14.154   2.665
65212W        W33430   9.239   3.335   3.713
65213W        W33431  17.121  16.729  13.850
65214W        W33432  12.370  19.003  13.525
65215W        W33433  24.505   4.676   2.405
65216W        W33434  13.640  17.661  12.411
65217W        W33435  33.891  41.510  10.616
65218W        W33436   4.529   3.656   5.206
65219W        W33437  36.935  28.419  13.783
65220W        W33438  18.206   3.757  12.417
65221W        W33439   8.193  21.691  12.518
65222W        W33440  24.722  16.794   3.714
65223W        W33441  20.942  16.412  10.310
65224W        W33442  42.721  34.354   2.685
65225W        W33443  35.874   1.934  14.290
65226W        W33444  44.959  38.184   2.171
65227W        W33445   2.987  30.916   0.302
65228W        W33446  23.714  42.230  14.486
65229W        W33447  44.937  37.066  12.082
65230W        W33448   1.871  24.549  12.539
65231W        W33449   0.739  17.830   3.630
65232W        W33450  17.581  39.282  14.504
65233W        W33451  18.124  42.532   1.423
65234W        W33452  29.730  14.274   4.117
65235W        W33453   4.507  19.756   3.741
65236W        W33454  27.289  11.943   3.598
65237W        W33455   7.197  13.701  13.017
65238W        W33456   3.245  15.529   5.262
65239W        W33457  10.128   9.234   0.199
65240W        W33458  27.724  44.722  13.550
65241W        W33459  13.694  20.240   4.277
65242W        W33460  39.916  25.568   3.481
65243W        W33461  28.219  35.318  12.460
65244W        W33462  43.837  37.080  11.717
65245W        W33463   4.627  23.240  14.473
65246W        W33464  25.586  13.187   4.212
65247W        W33465  31.783  26.957   5.051
65248W        W33466  42.464  40.958   2.878
65249W        W33467  24.980  40.718  12.152
65250W        W33468  44.705  17.783   2.814
65251W        W33469  20.057  17.674   4.024
65252W        W33470  21.104  12.085  10.729
65253W        W33471   5.769  14.388   1.365
65254W        W33472   9.366  11.131  11.588
65255W        W33473  33.135  25.379  10.524
65256W        W33474   8.288  40.952  10.500
65257W        W33475   3.512  32.187   3.249
65258W        W33476  20.032  29.770  11.509
65259W        W33477  23.723  40.303  12.539
65260W        W33478  10.753  32.093  13.841
65261W        W33479   8.161  32.128   0.784
65262W        W33480  15.879  29.052  10.657
65263W        W33481  22.062  19.067  11.997
65264W        W33482   3.164   4.957  11.074
65265W        W33483   0.491  35.928  14.340
65266W        W33484  38.981  10.459  12.498
65267W        W33485  25.259  13.548   3.115
65268W        W33486  15.531  12.299   0.840
65269W        W33487   4.903  18.716  10.576
65270W        W33488  39.514  14.884  13.058
65271W        W33489  26.904  20.175   2.294
65272W        W33490  44.822  27.660  12.997
65273W        W33491  10.305  38.281   3.169
65274W        W33492  36.653  28.431   2.305
65275W        W33493   5.074  31.387   2.729
65276W        W33494  26.926   5.833   3.603
65277W        W33495   7.573   1.351   2.953
65278W        W33496  43.496  12.892  13.902
65279W        W33497  27.693  12.237  14.320
65280W        W33498  33.069   1.312   4.420
65281W        W33499  17.036  21.334  11.383
65282W        W33500  35.979  15.289  10.704
65283W        W33501  37.010  20.584   1.584
65284W        W33502  28.613  21.715   4.551
65285W        W33503  44.384  16.627  11.548
65286W        W33504  37.722  29.847  12.136
65287W        W33505  40.429  25.685   2.211
65288W        W33506  39.361   3.241  11.617
65289W        W33507  26.360  31.501   4.122
65290W        W33508  38.401  12.902   2.133
65291W        W33509  40.759  25.478   1.732
65292W        W33510  44.193  37.114  12.905
65293W        W33511  30.101  16.093  10.572
65294W        W33512  27.785  11.641  14.804
65295W        W33513  36.878  31.451   2.634
65296W        W33514   0.784  27.213   0.743
65297W        W33515   5.923  20.200   2.697
65298W        W33516   4.187  23.695   2.382
65299W        W33517  44.648  19.568   1.172
65300W        W33518  42.889  30.921   4.169
65301W        W33519  31.542   6.828   4.733
65302W        W33520  15.636   8.609  11.974
65303W        W33521  29.160   4.444   0.747
65304W        W33522   1.709  20.999  14.664
65305W        W33523   5.705  16.067   1.339
65306W        W33524  43.282  32.922  11.721
65307W        W33525  42.612  34.532   3.154
65308W        W33526  19.785  42.103   3.196
65309W        W33527  20.721  17.359   0.824
65310W        W33528  26.088  31.068   1.237
65311W        W33529  15.498  25.585  11.137
65312W        W33530  43.997  39.341   1.855
65313W        W33531   0.933  33.584   0.076
65314W        W33532   4.767  37.766   2.649
65315W        W33533  31.156  42.673   4.472
65316W        W33534  23.239   8.859   0.057
65317W        W33535  20.017  27.290  11.510
65318W        W33536   0.339  39.350  12.429
65319W        W33537  23.190  15.968   2.820
65320W        W33538   1.954  21.412  14.871
65321W        W33539  34.270   5.791   1.831
65322W        W33540  38.998  19.726  12.799
65323W        W33541  22.660  38.007   4.630
65324W        W33542  10.579  20.652   1.878
65325W        W33543  40.324  11.833  10.728
65326W        W33544  13.408  24.831   4.866
65327W        W33545   4.136  15.001   0.443
65328W        W33546  24.377  40.472   4.925
65329W        W33547  38.896   6.501   0.701
65330W        W33548  42.691   8.556  14.884
65331W        W33549  32.103  43.769  14.052
65332W        W33550  31.842  28.984  14.402
65333W        W33551  35.407  42.508   2.525
65334W        W33552  32.540  43.857  10.421
65335W        W33553  30.695  41.428  14.167
65336W        W33554  21.143  10.056  14.376
65337W        W33555   4.590  37.247  13.449
65338W        W33556  24.500  38.358  11.109
65339W        W33557  36.784  27.116   1.786
65340W        W33558   1.133  23.081   4.633
65341W        W33559  40.877  19.544  12.093
65342W        W33560   7.380  29.473   2.545
65343W        W33561   6.591  19.782   1.805
65344W        W33562  39.046  41.239   4.550
65345W        W33563  38.770  41.325   1.413
65346W        W33564   5.512  14.725   2.085
65347W        W33565  30.939  37.563  12.692
65348W        W33566  43.538  27.720   4.206
65349W        W33567  14.808  33.148  10.740
65350W        W33568   8.736  25.053   4.501
65351W        W33569  36.365  22.173  11.946
65352W        W33570  22.316  35.293   9.343
65353W        W33571  32.400  34.113   0.797
65354W        W33572  39.644  36.540   4.538
65355W        W33573  20.134  35.969  12.811
65356W        W33574   6.266  39.425  10.317
65357W        W33575  13.766   2.364   3.245
65358W        W33576  20.281  39.965   4.258
65359W        W33577   7.859   7.346   1.653
65360W        W33578   1.553  40.328   2.857
65361W        W33579  39.134  35.850  11.131
65362W        W33580  25.043  33.165   0.422
65363W        W33581  28.130  23.109  13.776
65364W        W33582  39.349  42.918   2.636
65365W        W33583  39.143  13.529  11.589
65366W        W33584  29.387  44.487   0.046
65367W        W33585  23.732  38.372  10.749
65368W        W33586  28.909   3.838   0.007
65369W        W33587  29.580  10.083   2.320
65370W        W33588  32.289  38.924   4.804
65371W        W33589  22.562   8.274  12.586
65372W        W33590   5.785  31.512   4.603
65373W        W33591   2.913  26.442  12.408
65374W        W33592  39.455   1.321   4.989
65375W        W33593  13.152  14.113   3.754
65376W        W33594  18.611   1.780  14.830
65377W        W33595  41.443  13.245  11.110
65378W        W33596  29.122  14.781  14.537
65379W        W33597  28.145  12.981  10.330
65380W        W33598  13.303  18.076   4.094
65381W        W33599  26.433  21.658   1.279
65382W        W33600  30.843  35.308  11.049
65383W        W33601  23.116   7.993   1.680
65384W        W33602  27.877  31.835   1.827
65385W        W33603  12.853  38.021  11.719
65386W        W33604  39.359  26.064  12.354
65387W        W33605  40.731  24.380   2.251
65388W        W33606  38.477  23.473   3.103
65389W        W33607  24.713  11.563  10.718
65390W        W33608  25.743   7.904   1.128
65391W        W33609  32.632  21.179   2.376
65392W        W33610   9.581  30.642  14.272
65393W        W33611  38.094  24.974  13.805
65394W        W33612  35.542  18.623  11.129
65395W        W33613  33.667  18.174   1.437
65396W        W33614  17.267   9.213  13.737
65397W        W33615  44.371  10.487  14.670
65398W        W33616  35.189  22.060  13.230
65399W        W33617  25.967  21.178  13.033
65400W        W33618  10.138  41.225   4.951
65401W        W33619   3.204  22.080  12.417
65402W        W33620  31.053  36.122  14.978
65403W        W33621  32.294   1.226   3.710
65404W        W33622   3.598  41.941   1.364
65405W        W33623  20.565  10.220   4.723
65406W        W33624   2.249   2.776   0.018
65407W        W33625   7.585   1.854  12.517
65408W        W33626  34.583  11.285  12.141
65409W        W33627  15.507   3.701  13.557
65410W        W33628  40.742   7.467  11.612
65411W        W33629  42.242   1.870  12.876
65412W        W33630  40.015  12.814  13.856
65413W        W33631  31.887  30.543   4.850
65414W        W33632  21.031  41.467  13.384
65415W        W33633  41.629  21.205   2.207
65416W        W33634  30.012  21.071  11.201
65417W        W33635  20.216  28.046   4.114
65418W        W33636  15.593  20.785   4.069
65419W        W33637  25.638  43.856   1.165
65420W        W33638   4.444  17.124   0.944
65421W        W33639  37.819   5.471   9.827
65422W        W33640  27.956  16.479  11.887
65423W        W33641  21.663   9.291   1.877
65424W        W33642  40.906  17.090   3.299
65425W        W33643  43.846   4.504   3.810
65426W        W33644   7.790  12.221  13.507
65427W        W33645  16.505  22.353   1.704
65428W        W33646  38.795  18.916   4.152
65429W        W33647  26.490  43.911   0.963
65430W        W33648  32.702  33.490   3.191
65431W        W33649  21.530  42.296  12.431
65432W        W33650  17.711  39.485   0.570
65433W        W33651  44.641  36.855   5.032
65434W        W33652   1.379   6.041  10.660
65435W        W33653  22.189  12.723  14.302
65436W        W33654  40.031  17.297   3.495
65437W        W33655  40.373  20.472   2.325
65438W        W33656  13.237   4.489   2.812
65439W        W33657  44.917  15.319  10.759
65440W        W33658  12.617   3.822  11.405
65441W        W33659   1.363  22.870   1.369
65442W        W33660  13.392   7.627  12.065
65443W        W33661  30.167  14.854   4.750
65444W        W33662   6.163  27.350  13.298
65445W        W33663  40.885  29.766   1.813
65446W        W33664  22.026  11.157   1.714
65447W        W33665   0.497  38.928   1.316
65448W        W33666   4.265   3.039   4.911
65449W        W33667  26.608  27.832   2.921
65450W        W33668  31.822  20.810   4.128
65451W        W33669  35.058  29.980   1.236
65452W        W33670  39.769  40.886   0.874
65453W        W33671  27.751  36.325   0.272
65454W        W33672  36.683  21.879  11.698
65455W        W33673  42.575  36.303   2.295
65456W        W33674   8.279   5.037  12.494
65457W        W33675   7.958  29.940   0.025
65458W        W33676  22.080  26.093  11.540
65459W        W33677  44.035  32.626  11.129
65460W        W33678   6.714  24.058   1.347
65461W        W33679   3.255  31.608  13.605
65462W        W33680  22.363  36.931  12.824
65463W        W33681  27.749   9.139   3.130
65464W        W33682  32.302  31.433  10.135
65465W        W33683   9.776  34.586   4.742
65466W        W33684  31.616  37.911   1.217
65467W        W33685   3.861  32.957   3.024
65468W        W33686  25.752  11.388  12.499
65469W        W33687  41.429  11.919   1.470
65470W        W33688  35.656  44.414   3.876
65471W        W33689  19.753   8.137  11.611
65472W        W33690  41.417  42.306   4.542
65473W        W33691  13.662  35.326  14.772
65474W        W33692  43.447  21.554  12.098
65475W        W33693  16.075  25.519   0.279
65476W        W33694   5.192  17.036   4.268
65477W        W33695  35.119   9.204  11.917
65478W        W33696  10.793   9.385  11.167
65479W        W33697   6.608  39.231  14.550
65480W        W33698   2.817  27.575   0.352
65481W        W33699   4.526   2.672   1.959
65482W        W33700  39.700  39.233  11.897
65483W        W33701  27.084   9.690  12.324
65484W        W33702  30.530  32.096   3.852
65485W        W33703  34.121  39.316   2.290
65486W        W33704  31.804  40.279   2.323
65487W        W33705   0.543  15.227  13.820
65488W        W33706  38.942  21.267   9.891
65489W        W33707  14.231   2.015  14.830
65490W        W33708  37.393   1.219   2.453
65491W        W33709   6.917  26.303  11.617
65492W        W33710  40.285  14.743  13.431
65493W        W33711   3.412  40.838   4.153
65494W        W33712  20.800  38.502   0.700
65495W        W33713  44.169  40.743  12.569
65496W        W33714  27.771  17.100   0.432
65497W        W33715   2.019  34.003   1.773
65498W        W33716   7.430  28.634  10.720
65499W        W33717  13.092  21.145   1.386
65500W        W33718   3.843   3.254   0.222
65501W        W33719   0.231  43.506  14.500
65502W        W33720  22.553   8.280  13.097
65503W        W33721  43.292  15.254   2.651
65504W        W33722  44.245  39.518  12.950
65505W        W33723  37.815   3.034  11.691
65506W        W33724  12.810  43.934  13.985
65507W        W33725  15.770  25.738   2.160
65508W        W33726  41.865   3.440   4.145
65509W        W33727  28.098  25.974   1.072
65510W        W33728  20.211  11.070   3.723
65511W        W33729  42.350  37.096   4.316
65512W        W33730   0.447  23.616   2.098
65513W        W33731   3.318  38.377   0.203
65514W        W33732  29.858  22.978  12.961
65515W        W33733  31.874   4.760  13.480
65516W        W33734  19.002  27.505   3.312
65517W        W33735   4.705  14.966  10.705
65518W        W33736  34.665   3.237   2.222
65519W        W33737  37.593  27.184  14.772
65520W        W33738  36.901  21.244  10.651
65521W        W33739   4.026  28.528  14.983
65522W        W33740  24.899  32.448   1.739
65523W        W33741  21.752  27.693   1.663
65524W        W33742  11.747  12.451   4.181
65525W        W33743  32.022  44.892   0.675
65526W        W33744  20.249   1.023   4.580
65527W        W33745  36.796   0.818   0.376
65528W        W33746  19.853  27.516  14.412
65529W        W33747  42.552  10.339   3.285
65530W        W33748   1.402  26.504  12.965
65531W        W33749  21.447  28.998  14.494
65532W        W33750  33.859  14.097   4.148
65533W        W33751  10.427  32.022   2.313
65534W        W33752  34.135  26.958   1.001
65535W        W33753  34.499  25.330  12.434
65536W        W33754  32.367   2.856   0.289
65537W        W33755   3.723   5.131   1.737
65538W        W33756  16.715  25.748  13.805
65539W        W33757  40.580  42.812  13.322
65540W        W33758  19.715  11.776   5.239
65541W        W33759  12.354  35.599  14.962
65542W        W33760  39.482  28.429   2.642
65543W        W33761   7.348  44.425  14.471
65544W        W33762  29.215   1.742   4.942
65545W        W33763  14.556  15.951  11.083
65546W        W33764  14.842  22.804  13.840
65547W        W33765  28.976   9.944   2.812
65548W        W33766  41.487   3.387  11.928
65549W        W33767  24.098  25.778  14.824
65550W        W33768  26.108  29.634  12.515
65551W        W33769  44.399   0.225  14.853
65552W        W33770  12.346   7.383   0.402
65553W        W33771  34.411  18.668  11.193
65554W        W33772  26.812  15.080   3.947
65555W        W33773  21.062  25.021  11.171
65556W        W33774   2.503  32.122  12.081
65557W        W33775  35.225   1.492  11.164
65558W        W33776   0.286  17.308  12.036
65559W        W33777  13.524  30.616  10.893
65560W        W33778  28.530  24.117   5.482
65561W        W33779  38.027  42.266  12.621
65562W        W33780   8.845  38.324   3.805
65563W        W33781   2.394  39.359   0.406
65564W        W33782  33.411  34.618   1.326
65565W        W33783  28.309  44.102  13.659
65566W        W33784   1.071  15.496  14.968
65567W        W33785   1.354   2.398   0.269
65568W        W33786  31.294   5.692  11.918
65569W        W33787   8.331  21.215   9.846
65570W        W33788  41.796  15.772   1.323
65571W        W33789  26.788  11.294  10.220
65572W        W33790  14.495   5.540  11.201
65573W        W33791   7.245  14.312   1.451
65574W        W33792  19.017   0.966   2.267
65575W        W33793  33.673   1.017  11.809
65576W        W33794  15.170  31.435  13.080
65577W        W33795  33.634  19.305   4.163
65578W        W33796  29.748  26.173   3.636
65579W        W33797  31.963  27.602   2.825
65580W        W33798  39.605  31.621   4.542
65581W        W33799  20.176  43.049   3.990
65582W        W33800  32.090  44.627  13.712
65583W        W33801  37.746   8.938  11.081
65584W        W33802   9.766   3.557   4.485
65585W        W33803  18.740  43.606  12.439
65586W        W33804  41.883  21.618  10.735
65587W        W33805  19.173  17.020   1.921
65588W        W33806  11.602  37.461   4.536
65589W        W33807   5.985  40.361  12.202
65590W        W33808  25.724  21.321   4.969
65591W        W33809  42.987  17.665   1.211
65592W        W33810  10.805  25.496   2.868
65593W        W33811  36.620  10.933  11.063
65594W        W33812  34.340  35.856  12.042
65595W        W33813  16.023  14.233   1.353
65596W        W33814  11.101   2.736   3.248
65597W        W33815   4.967  26.084  13.448
65598W        W33816   3.309  29.173   4.107
65599W        W33817  43.418  36.098  14.730
65600W        W33818  36.403  37.043  12.704
65601W        W33819  30.527  28.126   3.634
65602W        W33820  23.175  12.843  12.475
65603W        W33821  23.103  20.118   0.047
65604W        W33822  40.073  14.081  12.381
65605W        W33823  35.859  11.650  12.042
65606W        W33824   6.826  26.661  11.267
65607W        W33825  20.088  20.509   0.801
65608W        W33826  10.744  37.685   9.954
65609W        W33827  27.960  11.274  14.433
65610W        W33828  26.786  27.953   4.313
65611W        W33829  27.422  22.066   2.690
65612W        W33830  16.698  34.421  10.471
65613W        W33831  29.861   1.259   4.303
65614W        W33832  34.994   3.363  11.057
65615W        W33833  15.096   9.355   1.656
65616W        W33834  14.755  28.185  12.479
65617W        W33835  38.712  21.016  10.980
65618W        W33836  11.191  29.779   0.796
65619W        W33837  27.264   1.406  14.810
65620W        W33838   0.273   6.187  13.338
65621W        W33839  24.744  35.459   2.805
65622W        W33840  35.005  20.270   2.617
65623W        W33841   0.050  32.258   1.312
65624W        W33842  43.383  12.233   0.414
65625W        W33843  30.116  23.999  12.144
65626W        W33844   7.875  11.172  10.727
65627W        W33845  32.184  25.134  11.635
65628W        W33846  15.661   6.746  13.875
65629W        W33847   5.214  21.666  12.939
65630W        W33848  17.538  25.204   0.537
65631W        W33849  18.482   2.699  13.971
65632W        W33850  43.853  15.582   3.331
65633W        W33851  17.365  41.309  10.982
65634W        W33852   3.983  28.227   2.901
65635W        W33853   9.790   5.588   2.664
65636W        W33854   7.828   2.404  13.952
65637W        W33855   8.213  28.786  12.901
65638W        W33856  37.997  12.338   1.429
65639W        W33857  41.974  36.908  14.736
65640W        W33858   5.137  37.414   2.838
65641W        W33859  43.792  31.833   4.190
65642W        W33860  24.416  20.200   0.141
65643W        W33861  15.305  38.914   4.144
65644W        W33862  12.866   0.557  14.600
65645W        W33863  30.885  30.430   4.057
65646W        W33864  23.085   0.831   4.459
65647W        W33865  19.635   5.004  11.007
65648W        W33866   3.540   3.861  14.269
65649W        W33867  10.600   0.895   0.253
65650W        W33868  14.672  17.116  11.034
65651W        W33869  32.182  24.120   2.077
65652W        W33870  42.655  18.041  12.838
65653W        W33871  41.241   5.837  13.401
65654W        W33872  27.206  18.045  13.933
65655W        W33873  24.379  12.771   3.679
65656W        W33874   9.978  23.502   4.646
65657W        W33875   3.281  28.123  14.746
65658W        W33876  23.828  18.688   0.924
65659W        W33877  35.754  15.522  12.717
65660W        W33878   0.387  18.103  13.038
65661W        W33879  29.013  44.740  14.092
65662W        W33880  30.222   7.978   0.265
65663W        W33881  17.533  33.463  11.380
65664W        W33882  43.110  26.275  13.516
65665W        W33883  26.424  25.675  10.681
65666W        W33884  41.299  25.718   0.899
65667W        W33885  40.963   2.374   1.653
65668W        W33886  13.352   3.244  11.787
65669W        W33887  35.101  18.507  14.248
65670W        W33888   5.875  10.395  14.502
65671W        W33889   3.788  15.630  11.932
65672W        W33890   6.846  41.736   4.167
65673W        W33891   6.220  10.312   4.557
65674W        W33892  39.072   1.248  13.949
65675W        W33893   8.948   4.229  12.341
65676W        W33894  34.869  36.158   2.907
65677W        W33895  16.225  36.493  13.461
65678W        W33896  30.833  40.997   1.734
65679W        W33897  15.753  20.662  10.661
65680W        W33898   7.318  42.049  11.683
65681W        W33899  17.382  10.378   5.018
65682W        W33900  10.154  24.118  12.370
65683W        W33901   0.777   3.414  11.832
65684W        W33902  32.690  17.080  11.334
65685W        W33903  18.983  27.878  11.165
65686W        W33904  24.073   0.556   4.978
65687W        W33905   1.533  40.343  14.287
65688W        W33906  39.135  17.246   4.638
65689W        W33907  10.579  31.097   3.274
65690W        W33908  27.619  40.317  11.117
65691W        W33909  31.837  22.570  14.768
65692W        W33910  20.327  27.511  12.859
65693W        W33911  11.227  26.698   3.680
65694W        W33912  25.633  13.211  14.575
65695W        W33913  20.939  16.532  10.923
65696W        W33914  17.992  20.712   3.110
65697W        W33915   5.753   3.912   4.164
65698W        W33916   4.883  24.217   1.824
65699W        W33917  14.161  24.620   0.290
65700W        W33918  26.283  27.521   2.234
65701W        W33919  16.403   9.742   2.048
65702W        W33920  23.070  24.994   4.881
65703W        W33921  13.207   7.627   1.747
65704W        W33922  18.790  12.251  13.797
65705W        W33923  22.450  31.749  11.522
65706W        W33924  34.018  40.908  11.487
65707W        W33925   7.075   1.437  13.080
65708W        W33926  28.127   2.321   0.296
65709W        W33927  29.024  17.718  14.985
65710W        W33928   9.356  42.984   4.626
65711W        W33929  20.768  29.925  11.951
65712W        W33930  20.086  32.326   0.733
65713W        W33931  21.587  43.153   0.027
65714W        W33932   5.153  18.109  14.823
65715W        W33933  19.532   1.480   4.938
65716W        W33934  39.359   2.187  14.835
65717W        W33935  24.556  16.896   0.390
65718W        W33936  20.044   5.508  14.732
65719W        W33937  29.504  17.552  14.436
65720W        W33938  24.918  33.162  10.193
65721W        W33939  27.020  20.810  10.683
65722W        W33940  41.406  43.535  13.395
65723W        W33941   8.402  11.681  14.967
65724W        W33942  13.797  38.330  14.346
65725W        W33943   3.611   3.427  11.977
65726W        W33944  25.486  13.592   2.129
65727W        W33945  36.571  31.221  12.929
65728W        W33946  32.814  28.895  14.393
65729W        W33947   6.824  21.115  11.203
65730W        W33948  35.156   1.258  12.517
65731W        W33949  29.640  39.301   2.817
65732W        W33950  29.546  16.262   3.765
65733W        W33951  36.850  22.311  14.313
65734W        W33952  15.823   6.786  10.741
65735W        W33953  23.512   3.982   1.196
65736W        W33954  44.055  19.095  13.395
65737W        W33955  15.237  44.993   3.242
65738W        W33956  26.057   4.685  12.099
65739W        W33957   1.449  32.795   3.175
65740W        W33958   5.315  15.988   1.933
65741W        W33959   4.520  24.054  11.035
65742W        W33960  31.978   2.970   3.595
65743W        W33961  26.722   3.221   0.161
65744W        W33962  36.669   6.561  14.477
65745W        W33963  44.823  17.184   1.245
65746W        W33964  43.995   1.009   3.747
65747W        W33965  33.764   0.332  12.070
65748W        W33966  38.027  38.037  13.060
65749W        W33967  18.300  28.784   2.201
65750W        W33968  20.874  33.020  10.735
65751W        W33969   2.623  43.769  13.019
65752W        W33970  28.131  42.442   3.270
65753W        W33971  33.374  42.987  14.372
65754W        W33972  41.033  26.499   1.983
65755W        W33973  23.868  20.277  11.063
65756W        W33974  17.393  44.558   3.724
65757W        W33975   6.361   3.298  10.166
65758W        W33976   5.152  30.108  12.967
65759W        W33977  15.808  36.069  12.177
65760W        W33978  19.116   6.127   2.336
65761W        W33979   2.921  20.736  12.441
65762W        W33980   0.648  23.062  11.027
65763W        W33981  28.338  34.529   1.659
65764W        W33982  43.124  31.657  14.043
65765W        W33983  40.407  41.104  11.525
65766W        W33984  14.233  19.703   4.617
65767W        W33985  19.442  32.345  11.185
65768W        W33986  12.499  44.484   4.509
65769W        W33987  35.833  15.952   0.032
65770W        W33988  31.510  29.744   3.643
65771W        W33989  29.912  14.168   1.831
65772W        W33990   7.886  32.393  10.773
65773W        W33991  11.263   1.702   4.644
65774W        W33992  18.327   9.714  13.407
65775W        W33993   3.414  44.431   0.969
65776W        W33994  33.959   5.519   5.038
65777W        W33995   9.142  40.755   9.942
65778W        W33996  15.716  23.670   1.216
65779W        W33997  41.457  43.235  14.676
65780W        W33998  38.834  19.843   0.344
65781W        W33999  17.686  19.165  12.108
65782W        W34000  41.348  10.341  11.774
65783W        W34001  31.797  12.440  13.527
65784W        W34002  36.459  18.817   0.721
65785W        W34003  19.206  35.893   0.966
65786W        W34004   5.603  18.183  11.501
65787W        W34005   0.429  39.822   1.761
65788W        W34006  17.810  26.363   0.317
65789W        W34007   9.437   1.776  10.232
65790W        W34008  36.036  30.888   2.902
65791W        W34009  38.858   2.533   3.061
65792W        W34010  29.731   5.400  10.799
65793W        W34011  18.495  11.258   4.987
65794W        W34012  18.133  12.508  14.863
65795W        W34013  12.681  31.842  14.008
65796W        W34014  36.609  18.955  11.493
65797W        W34015  27.473  30.670   3.902
65798W        W34016  35.591  34.496  14.121
65799W        W34017  29.679  25.798  10.937
65800W        W34018  41.389  35.919  12.460
65801W        W34019  35.323  15.669  12.502
65802W        W34020   0.867  37.434   2.135
65803W        W34021   7.378  34.984  12.092
65804W        W34022  12.362   0.364  10.233
65805W        W34023  12.605   3.372  14.783
65806W        W34024  20.537  23.536   3.443
65807W        W34025   1.856  33.649   1.432
65808W        W34026  28.896   6.346  12.092
65809W        W34027  12.688  18.237   4.402
65810W        W34028  23.194  26.159   4.298
65811W        W34029  19.055  32.318   4.266
65812W        W34030   3.290  27.073   4.733
65813W        W34031  19.700  26.041   4.373
65814W        W34032  37.616  25.246  13.938
65815W        W34033  32.489  34.900   3.229
65816W        W34034   5.778  44.432   4.899
65817W        W34035  19.163  12.834   4.194
65818W        W34036  26.565  18.509   4.673
65819W        W34037   8.331  21.809   2.625
65820W        W34038  43.714   7.862   0.866
65821W        W34039  22.733  41.893   0.748
65822W        W34040  44.735  43.248  13.793
65823W        W34041  44.011  10.702   4.085
65824W        W34042  43.567  13.238  13.505
65825W        W34043  26.546   0.613   3.004
65826W        W34044  20.254  31.301   2.309
65827W        W34045   6.484  20.306   1.899
65828W        W34046  41.937  20.864   0.016
65829W        W34047  10.228  35.062  13.395
65830W        W34048  29.827  37.516  14.344
65831W        W34049  30.129  44.741   1.819
65832W        W34050   6.248  44.016  13.115
65833W        W34051  38.166  36.295  13.987
65834W        W34052  28.460  34.009  11.186
65835W        W34053  15.029  23.277   0.723
65836W        W34054  32.624   5.279  13.477
65837W        W34055  37.829  42.815   1.589
65838W        W34056  42.005  14.681  14.083
65839W        W34057  40.003  11.307   2.371
65840W        W34058  10.359   5.394  12.860
65841W        W34059  24.947  42.366  12.385
65842W        W34060  26.556  38.507  13.026
65843W        W34061  16.156  34.911   1.683
65844W        W34062  35.888  41.300   0.389
65845W        W34063  10.831   4.180   4.709
65846W        W34064  27.802  29.425   3.820
65847W        W34065  32.368  30.030   0.377
65848W        W34066  14.120   6.951  13.812
65849W        W34067   7.539   0.284  11.606
65850W        W34068  11.135  27.224   2.128
65851W        W34069  31.498  40.719   1.038
65852W        W34070  43.223  42.068   4.723
65853W        W34071  19.786  35.641  12.483
65854W        W34072  27.866  21.641  14.350
65855W        W34073  29.518  19.814  13.288
65856W        W34074  42.318  15.570   4.151
65857W        W34075  40.009  34.966   2.359
65858W        W34076  30.597   7.305  13.158
65859W        W34077  39.097  12.869   4.827
65860W        W34078  25.006  33.467   3.819
65861W        W34079   6.885  26.426   0.736
65862W        W34080   2.940   1.264  12.614
65863W        W34081  12.687  28.435  10.592
65864W        W34082  38.983  32.962   0.567
65865W        W34083  37.545  21.146   5.090
65866W        W34084  32.570   7.341   1.656
65867W        W34085  13.711  14.305   1.850
65868W        W34086  37.324  31.485   1.331
65869W        W34087  38.811  17.725   3.123
65870W        W34088  28.918  40.441  14.707
65871W        W34089  38.616   3.292   4.171
65872W        W34090  12.386  14.326   4.132
65873W        W34091   0.997  42.972   3.687
65874W        W34092  16.574  23.743   0.931
65875W        W34093  22.041   8.773  14.826
65876W        W34094  27.089  13.755  14.378
65877W        W34095  44.255  23.087   0.017
65878W        W34096  34.890  44.793  12.447
65879W        W34097   7.714  36.677  12.911
65880W        W34098  27.044  14.998  11.185
65881W        W34099  23.740   0.057   4.243
65882W        W34100  17.119  10.706   2.936
65883W        W34101  33.442  18.275  14.323
65884W        W34102  40.193  35.219   0.390
65885W        W34103  32.757  25.093   4.211
65886W        W34104   6.886  27.672   3.394
65887W        W34105  16.052  26.510   1.473
65888W        W34106  22.680  38.823  11.483
65889W        W34107  34.383  43.583  14.906
65890W        W34108  15.133  21.020   1.616
65891W        W34109  25.613  35.079  13.896
65892W        W34110  20.302   0.443  12.899
65893W        W34111  34.126  40.759  10.659
65894W        W34112  39.488  17.093   1.235
65895W        W34113  41.853  10.202  11.642
65896W        W34114  25.528  13.519   4.599
65897W        W34115  41.599  26.596  14.970
65898W        W34116   4.707  24.919  12.937
65899W        W34117  15.721  35.555  14.662
65900W        W34118  19.322  25.066   3.158
65901W        W34119  19.608   2.006   1.807
65902W        W34120   3.411  43.826  10.743
65903W        W34121  22.498  33.734   0.445
65904W        W34122  37.115  29.586   2.578
65905W        W34123  40.292  19.557  10.355
65906W        W34124  35.872  43.142   4.183
65907W        W34125  44.391   3.140   2.826
65908W        W34126  30.587  23.935   2.007
65909W        W34127  19.512   3.984   0.106
65910W        W34128  28.167  26.753  10.665
65911W        W34129   4.270  27.606   2.723
65912W        W34130  13.868  32.269  14.270
65913W        W34131  41.596  21.254   0.029
65914W        W34132  24.981   8.330   2.241
65915W        W34133   8.787  39.829   4.634
65916W        W34134   1.786  13.989   3.579
65917W        W34135  36.440  10.894   2.253
65918W        W34136   8.216  16.187   0.318
65919W        W34137  24.017  13.302   0.727
65920W        W34138  41.482  26.479   4.602
65921W        W34139   7.951   7.433  12.961
65922W        W34140  42.902  33.529  10.574
65923W        W34141   6.713   4.427   1.727
65924W        W34142  42.011  34.597  11.042
65925W        W34143  22.453   3.429  13.757
65926W        W34144  44.024   6.238   1.877
65927W        W34145   0.440   3.922   1.006
65928W        W34146  10.904  23.194   3.001
65929W        W34147  17.212  23.902   3.619
65930W        W34148   4.906  28.612   2.622
65931W        W34149  40.277  22.434  11.163
65932W        W34150   5.184  28.151   4.550
65933W        W34151  19.781  42.411  13.503
65934W        W34152   7.129  10.922   1.908
65935W        W34153  35.403   6.650  12.571
65936W        W34154   1.695  42.334   2.658
65937W        W34155   0.811   0.322  14.605
65938W        W34156  17.193   3.432   0.893
65939W        W34157  43.429   6.584  13.991
65940W        W34158   0.987  41.463  14.895
65941W        W34159  17.757  19.104  11.133
65942W        W34160  39.104  29.468   3.697
65943W        W34161  24.078  27.011  10.836
65944W        W34162   8.311   6.419   1.918
65945W        W34163  42.469  22.647  12.372
65946W        W34164  12.204   7.114   2.896
65947W        W34165  30.592  29.703  12.816
65948W        W34166  22.762  24.246   0.246
65949W        W34167  18.013  32.077  13.637
65950W        W34168  20.478  10.654  14.463
65951W        W34169  30.005  39.294   4.249
65952W        W34170  29.169   7.032   0.844
65953W        W34171  36.434   6.942   2.838
65954W        W34172   1.295   2.031   4.902
65955W        W34173  21.845   8.658  13.649
65956W        W34174  34.537  25.059   4.361
65957W        W34175  39.085   5.506   4.188
65958W        W34176   5.213  17.766   5.056
65959W        W34177   8.766  22.497   0.803
65960W        W34178  38.765  25.533  11.027
65961W        W34179  41.268  31.743   3.740
65962W        W34180   5.389   6.318   0.820
65963W        W34181  24.135  28.053  14.487
65964W        W34182   4.324  41.945   5.248
65965W        W34183  18.770  35.612  10.739
65966W        W34184  39.496  21.087  10.564
65967W        W34185  19.037  43.044  14.418
65968W        W34186   2.358   7.243   2.903
65969W        W34187   3.404  43.006   3.625
65970W        W34188   9.448  25.082  12.450
65971W        W34189  40.781   3.459   4.658
65972W        W34190  37.482   0.689  13.142
65973W        W34191  38.925  21.010  14.830
65974W        W34192  38.337  23.121  12.769
65975W        W34193  38.921  19.086   3.234
65976W        W34194   4.897  36.264   5.247
65977W        W34195  19.991  39.087  13.492
65978W        W34196  25.601  21.005  12.709
65979W        W34197  24.282  34.103  10.609
65980W        W34198  26.861  31.352  11.660
65981W        W34199  14.111  26.445  13.498
65982W        W34200   1.501  22.668  12.404
65983W        W34201  30.170  34.970   1.319
65984W        W34202  40.918   1.878  13.252
65985W        W34203  27.476  31.124   0.407
65986W        W34204  15.866   8.874   4.623
65987W        W34205  39.939  19.264  10.611
65988W        W34206   2.370  11.278  12.613
65989W        W34207  41.515   8.137  12.956
65990W        W34208  27.137  22.064  11.011
65991W        W34209   0.002  35.253   3.501
65992W        W34210  13.113   3.815   2.328
65993W        W34211   7.443  32.079   4.685
65994W        W34212  25.528  33.590   1.174
65995W        W34213  32.104  34.605  12.019
65996W        W34214  29.614  28.259   1.724
65997W        W34215   7.799  38.071   0.451
65998W        W34216  44.412  22.307  12.042
65999W        W34217   2.364   1.447   4.175
66000W        W34218  20.623  39.013   0.015
66001W        W34219   6.147  15.707   3.500
66002W        W34220  13.648  32.989  12.269
66003W        W34221   6.000   5.748  13.139
66004W        W34222  31.648  28.529  13.005
66005W        W34223   2.344  21.822  14.853
66006W        W34224  28.476  14.167   1.847
66007W        W34225  24.900   0.813   1.080
66008W        W34226  12.650  28.133   4.338
66009W        W34227  20.920  13.318   9.794
66010W        W34228  28.971  14.309  11.564
66011W        W34229  10.336  23.825   4.431
66012W        W34230  40.393  24.061   2.470
66013W        W34231  37.394  18.690  10.709
66014W        W34232  21.980  42.233  12.179
66015W        W34233  29.919  20.523   2.587
66016W        W34234  38.513  35.059  11.123
66017W        W34235  37.637  21.165   4.131
66018W        W34236  22.499  35.310   0.839
66019W        W34237   3.315  16.304   3.090
66020W        W34238   8.737  42.942   3.937
66021W        W34239  23.056  30.116   2.072
66022W        W34240  15.832   1.973   2.625
66023W        W34241  30.011   8.422   1.011
66024W        W34242  28.102   4.876  11.506
66025W        W34243  41.365  36.149  14.758
66026W        W34244  28.174   8.887  14.411
66027W        W34245   1.196  20.121   2.618
66028W        W34246  43.070  36.481   0.377
66029W        W34247  24.599  18.089   3.747
66030W        W34248  21.832  43.493   3.728
66031W        W34249  27.401  14.279   2.775
66032W        W34250  35.726  22.702  13.831
66033W        W34251  42.519  31.905   3.220
66034W        W34252  11.766  35.093   2.410
66035W        W34253  29.942  34.125   3.639
66036W        W34254   4.469  29.841  11.984
66037W        W34255  34.924  17.269   4.668
66038W        W34256  44.371  13.282  11.145
66039W        W34257  28.684  21.920   5.020
66040W        W34258  25.570   6.005   4.884
66041W        W34259  15.493   7.841  11.499
66042W        W34260  34.450  43.944  13.392
66043W        W34261  40.809  26.857   1.706
66044W        W34262  19.541  16.523   3.964
66045W        W34263  10.381  42.880   2.832
66046W        W34264  19.156  23.443   1.317
66047W        W34265  35.001  17.620   1.208
66048W        W34266  14.599  37.672  11.818
66049W        W34267  37.180  27.989   3.626
66050W        W34268   3.555  44.784   4.614
66051W        W34269   4.527  42.906   4.922
66052W        W34270   4.728  27.908   0.314
66053W        W34271   3.176  37.097   2.772
66054W        W34272   7.921  35.539   1.924
66055W        W34273  28.652  16.682  14.763
66056W        W34274  13.550  37.568  13.394
66057W        W34275  37.914  36.923   3.603
66058W        W34276  22.690  38.157   1.580
66059W        W34277  35.060  15.088   4.144
66060W        W34278  24.651  17.296   4.968
66061W        W34279  12.447   1.627   5.014
66062W        W34280  28.013  12.777  11.112
66063W        W34281  41.070   5.908   1.273
66064W        W34282  43.372  22.030  13.429
66065W        W34283   2.693  27.538  10.520
66066W        W34284  23.269  31.979  11.633
66067W        W34285  27.084  15.082   0.850
66068W        W34286  29.062  21.570   3.750
66069W        W34287  25.172  32.350   2.863
66070W        W34288  20.814  14.351   0.543
66071W        W34289  44.274  39.358  12.464
66072W        W34290  20.435  15.234   0.264
66073W        W34291  17.103  21.994  11.653
66074W        W34292  34.127  39.011  11.006
66075W        W34293  17.346  27.274   2.260
66076W        W34294   0.158   2.229   4.793
66077W        W34295  36.055  40.987   0.757
66078W        W34296  23.084   7.709   1.199
66079W        W34297  41.480  27.071  14.256
66080W        W34298   3.239  40.424  14.714
66081W        W34299  35.585  27.712  13.893
66082W        W34300  26.755   1.547   2.924
66083W        W34301   5.862  39.140  11.579
66084W        W34302  21.370  37.379   0.303
66085W        W34303   6.958  33.854   9.804
66086W        W34304   5.990  39.045  12.881
66087W        W34305  23.539  16.371  12.533
66088W        W34306  42.840  10.068   3.625
66089W        W34307  12.143  14.395   3.655
66090W        W34308  18.153  13.601   1.781
66091W        W34309   4.240   2.448   4.520
66092W        W34310   3.214   4.582   2.212
66093W        W34311  21.759  43.024   2.727
66094W        W34312   9.283   7.663   1.214
66095W        W34313  21.332  39.236  11.515
66096W        W34314  18.725   3.096  10.739
66097W        W34315  42.385  24.205   2.783
66098W        W34316  17.051  32.412   1.779
66099W        W34317  32.568  35.584  10.908
66100W        W34318  13.775  43.300   0.737
66101W        W34319  24.076   0.873   0.309
66102W        W34320  24.408   8.688  10.838
66103W        W34321   5.885  28.609  12.550
66104W        W34322  30.647  21.630  13.060
66105W        W34323  44.432  10.645  12.997
66106W        W34324  17.170  38.379   3.357
66107W        W34325   6.801  44.442   1.224
66108W        W34326  13.769   6.280   4.857
66109W        W34327  39.546  20.974   2.025
66110W        W34328   3.690   0.804  11.673
66111W        W34329  27.504  18.270   4.682
66112W        W34330  14.730   2.580   2.175
66113W        W34331  23.232   8.305  10.581
66114W        W34332   0.770   6.450  14.494
66115W        W34333   2.755  32.838   0.386
66116W        W34334  44.199  40.294  14.235
66117W        W34335  35.564   1.808   4.298
66118W        W34336   4.780   6.407   3.530
66119W        W34337  43.325  44.208  14.808
66120W        W34338   8.176   5.116  13.040
66121W        W34339   6.471  44.490   0.254
66122W        W34340  21.450  28.792   5.154
66123W        W34341  40.091  31.583   0.355
66124W        W34342  33.607  31.049   3.624
66125W        W34343  36.303  37.305  11.248
66126W        W34344  22.665  20.243   0.337
66127W        W34345  41.415  38.596  12.548
66128W        W34346  33.503  17.291  11.617
66129W        W34347  35.729   2.990  10.566
66130W        W34348  33.896   2.505   4.607
66131W        W34349   3.906   8.763  12.491
66132W        W34350   5.804  40.523  11.734
66133W        W34351  15.130  33.504   1.842
66134W        W34352  31.015  29.743  13.097
66135W        W34353  32.235  34.027  10.499
66136W        W34354   6.369  21.707  12.513
66137W        W34355  39.093   7.116   3.650
66138W        W34356   4.857  13.603  12.888
66139W        W34357   9.373  39.555   1.792
66140W        W34358   1.770  19.523   2.330
66141W        W34359  20.853  11.239   4.669
66142W        W34360   4.864  38.298  10.498
66143W        W34361  13.548  18.686   2.390
66144W        W34362   6.827   8.650  10.652
66145W        W34363  32.085  26.685  11.518
66146W        W34364   0.678  32.577   4.115
66147W        W34365   3.719  36.502  11.643
66148W        W34366   3.673  11.579  13.933
66149W        W34367  31.124   4.347  13.816
66150W        W34368  39.155  34.312  10.433
66151W        W34369   1.452  43.215   4.486
66152W        W34370  30.949   8.131  12.964
66153W        W34371  20.301  42.853   1.233
66154W        W34372  10.809  29.274   4.347
66155W        W34373   4.294  20.282  13.044
66156W        W34374  20.061  41.700   1.004
66157W        W34375  10.781  16.775  13.117
66158W        W34376  34.418  19.116  11.485
66159W        W34377  34.437  35.094   0.384
66160W        W34378   5.216  16.042  14.785
66161W        W34379  29.901   9.306  14.848
66162W        W34380   6.494  34.480   1.710
66163W        W34381   1.009  43.448   2.765
66164W        W34382  14.817  44.190   3.574
66165W        W34383   8.379   7.852  11.924
66166W        W34384  23.636   8.680   4.604
66167W        W34385  23.470   4.164   0.710
66168W        W34386   8.391  41.362  10.768
66169W        W34387   1.039  41.978  10.993
66170W        W34388  31.678  22.597   0.853
66171W        W34389  12.308  29.156   1.449
66172W        W34390  25.459   0.932  11.274
66173W        W34391  16.682  25.988   3.105
66174W        W34392   3.182  11.131  11.445
66175W        W34393  17.700  32.356   4.150
66176W        W34394  25.022  15.796  12.030
66177W        W34395  36.425  27.169   0.942
66178W        W34396  11.186  44.716  14.789
66179W        W34397   5.751  41.455   0.786
66180W        W34398  21.953   3.932   1.453
66181W        W34399  39.020   2.452  13.072
66182W        W34400   4.641  41.302   4.456
66183W        W34401   3.960  32.698   0.820
66184W        W34402  41.584  30.447   0.872
66185W        W34403  27.422  12.874  11.480
66186W        W34404  42.360  42.943  13.580
66187W        W34405  41.605  11.391  14.484
66188W        W34406   0.721   9.154  14.214
66189W        W34407   0.536  44.385   2.202
66190W        W34408  32.592  25.445  11.670
66191W        W34409  39.290   1.581   2.413
66192W        W34410  36.146  31.996  11.618
66193W        W34411  43.878  21.991  13.323
66194W        W34412  34.913   1.321   3.292
66195W        W34413  17.310  22.245  14.428
66196W        W34414  17.987  25.509  11.145
66197W        W34415  18.162  41.378   2.297
66198W        W34416  14.102  41.519   4.430
66199W        W34417  27.870  16.809   0.011
66200W        W34418  31.514   8.641  14.730
66201W        W34419  42.556   1.459  13.992
66202W        W34420  17.709   3.768  10.757
66203W        W34421  42.121   8.751   0.914
66204W        W34422  38.947  33.139   0.089
66205W        W34423  25.557  40.907   4.123
66206W        W34424  10.120   6.977  14.212
66207W        W34425  16.106  40.298  11.572
66208W        W34426  44.211  17.879  14.729
66209W        W34427  31.384  32.114  12.925
66210W        W34428  40.461  32.694  13.409
66211W        W34429   0.778  13.267  13.298
66212W        W34430  18.644  40.549  12.103
66213W        W34431  25.696  17.631   3.115
66214W        W34432   6.147  12.798  14.299
66215W        W34433   3.691  31.816  10.155
66216W        W34434  29.101  37.428  11.564
66217W        W34435  14.068  26.043  12.523
66218W        W34436   0.612  15.649  11.189
66219W        W34437   2.331   0.528   3.867
66220W        W34438  17.211  14.213   4.087
66221W        W34439  13.258  16.808   3.572
66222W        W34440  24.474   9.431   2.852
66223W        W34441  12.893  18.826  14.398
66224W        W34442  36.447  19.716  13.859
66225W        W34443  18.616   8.192   4.376
66226W        W34444   5.275  39.308  12.822
66227W        W34445  28.524  26.529   4.163
66228W        W34446   5.718   5.242  11.153
66229W        W34447   0.718  22.140   0.178
66230W        W34448  30.344  30.959  12.419
66231W        W34449  26.625  25.766   4.144
66232W        W34450  33.613  27.097  13.856
66233W        W34451   1.409  24.126   0.850
66234W        W34452  43.578  20.287  12.560
66235W        W34453  25.467  28.993  10.265
66236W        W34454  26.450  39.557   0.834
66237W        W34455  33.958   6.164   2.583
66238W        W34456  14.231  31.360   3.105
66239W        W34457  26.734   1.308  10.991
66240W        W34458  20.707  10.553  12.823
66241W        W34459  33.886  23.137  13.751
66242W        W34460  39.054   3.900  13.093
66243W        W34461   5.890  43.430   3.154
66244W        W34462  28.043  42.803   4.100
66245W        W34463  42.216   4.160   3.761
66246W        W34464  19.595  27.470   0.286
66247W        W34465  23.806  15.177   2.862
66248W        W34466  38.528   0.804  11.668
66249W        W34467  43.314  16.119  12.433
66250W        W34468  10.927  33.787   3.330
66251W        W34469  13.392  35.637   5.041
66252W        W34470  16.624  42.050  11.014
66253W        W34471  30.009  41.494   3.561
66254W        W34472  12.078  32.911  14.515
66255W        W34473  29.989  16.138  11.065
66256W        W34474  15.736  11.438   1.835
66257W        W34475  18.829  15.840  14.959
66258W        W34476  13.195  22.976  10.708
66259W        W34477  13.501  27.489  13.428
66260W        W34478   7.752  29.131   2.741
66261W        W34479   2.319  27.437  14.186
66262W        W34480   2.552  24.635  11.411
66263W        W34481  31.494  44.354  10.666
66264W        W34482   8.415  11.893   0.891
66265W        W34483  24.760   8.404  10.617
66266W        W34484  26.930  17.647  13.739
66267W        W34485   9.853  42.902   2.714
66268W        W34486  33.001  35.813  13.942
66269W        W34487  31.902  41.490   1.133
66270W        W34488  25.135  39.578   0.412
66271W        W34489  44.990  25.149  11.096
66272W        W34490  17.231   1.507   9.776
66273W        W34491  30.864   9.137   2.416
66274W        W34492   4.735  10.785   1.248
66275W        W34493  33.693  43.407   1.580
66276W        W34494  34.455  31.093   2.419
66277W        W34495   4.995  37.126  14.261
66278W        W34496  18.858  13.118   0.850
66279W        W34497  40.753  25.246   2.433
66280W        W34498  37.385   8.759   4.068
66281W        W34499  41.048  43.145  11.125
66282W        W34500  26.688  40.360  14.747
66283W        W34501  21.728   4.657  13.539
66284W        W34502  42.904  16.573  14.788
66285W        W34503  32.446  22.064  13.613
66286W        W34504   1.495  19.161   4.503
66287W        W34505  34.851  30.195   2.906
66288W        W34506  43.701  17.737  14.685
66289W        W34507  10.099  11.860  14.093
66290W        W34508   9.273  28.637  14.820
66291W        W34509   8.841  22.683   5.056
66292W        W34510  26.257  42.937   4.309
66293W        W34511  29.903  41.128  12.904
66294W        W34512  10.208  36.856  11.414
66295W        W34513  32.477  35.394  14.809
66296W        W34514   6.633  19.521  13.774
66297W        W34515  34.004  26.717   2.355
66298W        W34516  10.162  12.916  14.800
66299W        W34517  13.979   6.685   2.300
66300W        W34518  40.046  38.952  11.052
66301W        W34519   7.305  19.618  14.983
66302W        W34520  37.597  11.291  13.008
66303W        W34521  32.468   2.358  12.407
66304W        W34522  22.566  23.113   1.310
66305W        W34523  11.369  40.774   3.756
66306W        W34524   3.504  21.090  13.017
66307W        W34525  28.037  14.049   9.822
66308W        W34526  10.431   8.227  14.225
66309W        W34527  41.041  26.312   3.298
66310W        W34528  33.045  31.443   2.336
66311W        W34529  39.352  16.047  11.216
66312W        W34530  34.097  19.717   2.078
66313W        W34531  37.811  17.109   0.350
66314W        W34532   4.439  43.784   3.137
66315W        W34533  16.417  19.466   3.810
66316W        W34534  12.739  36.525  10.398
66317W        W34535  43.275  19.216   0.344
66318W        W34536  35.312  31.585  14.861
66319W        W34537  15.714  42.411  12.822
66320W        W34538   4.840  20.465  14.139
66321W        W34539  40.401   8.324   0.487
66322W        W34540  37.502  11.819   0.353
66323W        W34541  32.159  40.813   3.619
66324W        W34542  10.598  35.812  13.969
66325W        W34543  15.081  14.163  13.517
66326W        W34544  12.021  14.914   0.391
66327W        W34545  16.813   1.229  13.984
66328W        W34546  25.592  16.322  13.293
66329W        W34547  23.549  19.311  11.255
66330W        W34548   9.702  14.662  12.126
66331W        W34549   5.870  24.016  10.990
66332W        W34550  22.467  31.478   4.108
66333W        W34551   4.786   4.512   1.514
66334W        W34552  16.335  11.643   1.818
66335W        W34553  19.816  21.590  13.595
66336W        W34554  23.569  29.242  11.361
66337W        W34555   8.003   5.592  13.137
66338W        W34556  36.596  39.303   4.506
66339W        W34557  33.744  27.188   3.224
66340W        W34558  27.533   5.388  10.562
66341W        W34559  25.031   2.492   2.715
66342W        W34560   8.916  16.444  13.899
66343W        W34561  22.160  33.563  10.737
66344W        W34562   9.234  30.540  12.888
66345W        W34563  34.846  15.143  10.555
66346W        W34564   6.829   6.986   0.771
66347W        W34565  23.620   7.117   1.404
66348W        W34566  36.541  11.064   4.563
66349W        W34567  36.447  25.479  10.509
66350W        W34568  43.054  30.556   1.834
66351W        W34569  30.552  28.240   1.630
66352W        W34570  32.196   4.726   2.303
66353W        W34571  13.948  43.357  11.591
66354W        W34572  31.210  20.124   0.335
66355W        W34573  12.037  39.783   2.844
66356W        W34574  18.725  24.229  12.738
66357W        W34575   1.781  12.633  10.794
66358W        W34576   6.411  43.574  10.381
66359W        W34577  30.536  32.835  12.089
66360W        W34578  29.553  20.838   3.500
66361W        W34579  30.936  27.718   2.882
66362W        W34580  28.496  30.023   1.233
66363W        W34581   2.339   8.571   1.768
66364W        W34582  25.224  13.688  11.126
66365W        W34583  36.033  14.123  13.378
66366W        W34584  39.090  38.936   4.613
66367W        W34585  15.024  44.371  11.530
66368W        W34586  18.330  11.111   3.682
66369W        W34587  15.043  29.427   4.297
66370W        W34588  26.089  34.897  13.918
66371W        W34589  39.297  43.309  13.134
66372W        W34590   5.873  33.675   1.932
66373W        W34591   0.889  23.970  13.943
66374W        W34592  44.780  17.853   4.088
66375W        W34593  33.139  35.532   2.839
66376W        W34594  38.473  14.234   3.026
66377W        W34595  41.553  26.153  14.670
66378W        W34596   2.985  15.554  12.461
66379W        W34597   9.464  16.539  13.289
66380W        W34598  12.782   5.164  13.563
66381W        W34599   4.102   3.273  13.325
66382W        W34600  31.593  16.577   1.149
66383W        W34601   1.631  39.913   3.665
66384W        W34602  23.477  20.711  12.583
66385W        W34603  25.098  32.110  11.156
66386W        W34604  26.808  40.605  10.770
66387W        W34605   5.668   0.965   1.721
66388W        W34606   2.726  32.457   4.850
66389W        W34607   5.255  22.605  12.410
66390W        W34608  34.363  16.132   4.676
66391W        W34609  26.402   3.269  12.488
66392W        W34610  39.808  32.828   4.095
66393W        W34611  18.703   3.323  12.902
66394W        W34612  32.813  11.887   1.825
66395W        W34613  12.355  16.839  13.135
66396W        W34614  11.669  26.004   2.883
66397W        W34615  14.416  35.206   2.823
66398W        W34616  24.667  13.249   2.789
66399W        W34617  30.531  26.597   2.814
66400W        W34618  40.071  33.083   0.440
66401W        W34619   8.737  14.107  12.054
66402W        W34620  40.041  40.039   1.029
66403W        W34621   4.733  29.846   4.525
66404W        W34622  10.718  24.816  13.368
66405W        W34623  22.075   5.348   1.242
66406W        W34624   0.345  35.479   1.379
66407W        W34625  24.094  33.836   9.643
66408W        W34626  32.166  42.459  14.345
66409W        W34627  29.512  25.457  13.905
66410W        W34628   1.521  32.934   4.127
66411W        W34629  11.182  34.254  10.749
66412W        W34630   3.246   9.229   2.701
66413W        W34631   8.166  20.143  14.159
66414W        W34632   7.839  10.604  11.569
66415W        W34633   1.277  14.580   3.180
66416W        W34634  30.381   5.276   4.489
66417W        W34635   7.333  36.897   2.171
66418W        W34636   4.829  43.434  12.005
66419W        W34637  35.987   2.192   0.649
66420W        W34638  37.462  10.135  13.750
66421W        W34639  24.482  38.557   4.506
66422W        W34640   8.658  18.969   9.814
66423W        W34641  15.260  15.481   5.023
66424W        W34642   0.963   0.160   1.345
66425W        W34643  38.436  11.377  11.153
66426W        W34644  33.611   5.490  13.375
66427W        W34645   0.905  27.157   3.347
66428W        W34646  30.591  42.450   1.655
66429W        W34647  14.176  37.984   2.953
66430W        W34648  13.342   0.990   4.837
66431W        W34649   5.065  15.173   3.722
66432W        W34650  39.549  24.622   0.309
66433W        W34651  37.620  21.715  10.939
66434W        W34652  40.913   7.779  13.478
66435W        W34653  27.073  26.415  12.298
66436W        W34654   7.270   1.947  11.098
66437W        W34655  12.664  32.507   0.648
66438W        W34656   9.212  33.071  12.644
66439W        W34657  21.658   1.016  12.189
66440W        W34658  18.858  29.772   2.962
66441W        W34659  10.270  24.587   3.892
66442W        W34660  10.397  31.717  14.009
66443W        W34661  36.320   3.754   4.569
66444W        W34662  23.876  36.846  11.152
66445W        W34663  31.942  19.721  10.662
66446W        W34664  26.561  21.661   3.688
66447W        W34665  28.630  39.004   2.366
66448W        W34666  12.849  17.513   3.937
66449W        W34667  42.825  15.634   0.294
66450W        W34668  35.020  35.903  10.754
66451W        W34669  15.083  19.587   1.414
66452W        W34670  14.380  36.785  12.002
66453W        W34671  38.833  10.139   1.449
66454W        W34672   4.026  38.161   1.896
66455W        W34673  19.733   4.789  13.742
66456W        W34674  21.714   7.913   1.919
66457W        W34675   5.102   6.625   3.167
66458W        W34676  36.864  37.868  11.574
66459W        W34677  19.048  29.860  13.997
66460W        W34678   4.914  39.443  11.550
66461W        W34679  34.368   7.206  13.977
66462W        W34680   6.344  37.022  10.743
66463W        W34681  29.370  39.388  10.705
66464W        W34682   0.613   5.682   0.762
66465W        W34683  23.657  23.656   2.648
66466W        W34684  21.690  18.806   4.196
66467W        W34685  30.811  22.264   3.095
66468W        W34686  12.669   5.580   1.680
66469W        W34687  31.508   6.706   3.751
66470W        W34688  16.785  18.117   3.549
66471W        W34689  11.691  28.601   1.179
66472W        W34690  19.968  26.096   2.251
66473W        W34691   1.293  36.005  13.887
66474W        W34692  42.214   9.970  13.508
66475W        W34693   8.648  29.691   4.173
66476W        W34694  36.959   2.366  11.910
66477W        W34695   3.363  11.343  10.303
66478W        W34696  38.466  32.975   0.300
66479W        W34697  44.684   1.840  14.954
66480W        W34698  29.103  36.373  14.745
66481W        W34699   6.690  21.635   3.245
66482W        W34700  17.086   9.426  13.298
66483W        W34701  27.702  26.191   0.826
66484W        W34702  31.501  26.018   3.789
66485W        W34703   6.883  40.027   0.748
66486W        W34704  43.513   8.243  12.825
66487W        W34705  22.056   1.896   3.588
66488W        W34706  22.771   3.312  12.446
66489W        W34707  41.809  37.078  13.876
66490W        W34708  13.593  27.262   4.804
66491W        W34709  10.695   3.500   1.883
66492W        W34710  13.636  41.324  12.293
66493W        W34711  40.096  29.576   0.659
66494W        W34712   8.205   2.960  12.906
66495W        W34713   9.407  17.319   1.322
66496W        W34714  28.049  14.748   4.568
66497W        W34715   1.485  41.513   0.874
66498W        W34716   9.043  38.895   3.025
66499W        W34717   4.376  20.257  10.731
66500W        W34718  14.685   1.707   1.392
66501W        W34719  33.280  24.831   3.271
66502W        W34720  25.434   0.213   2.673
66503W        W34721  42.859  14.286  12.840
66504W        W34722  36.853  12.628  14.416
66505W        W34723  31.612  21.748  13.244
66506W        W34724   3.830   5.683  11.084
66507W        W34725  10.729  19.841   0.939
66508W        W34726   9.164  15.487   0.863
66509W        W34727  31.663  33.171   1.636
66510W        W34728  12.708  35.684  10.547
66511W        W34729   8.347   3.643  11.977
66512W        W34730  30.941  38.526  13.065
66513W        W34731  10.884  33.657  12.501
66514W        W34732  18.944  37.931  13.578
66515W        W34733  25.510  30.603   0.534
66516W        W34734  40.557   1.762  14.120
66517W        W34735  13.250  36.257   2.330
66518W        W34736   3.877  21.198  11.992
66519W        W34737   9.562  12.644   0.363
66520W        W34738   4.262  41.090   1.244
66521W        W34739   3.685  23.618  11.320
66522W        W34740   1.036  25.793  13.636
66523W        W34741  23.445   6.476  10.593
66524W        W34742  32.910  17.077  13.009
66525W        W34743  44.975  20.780   0.914
66526W        W34744  44.715   2.841   0.279
66527W        W34745   3.995   8.346   1.913
66528W        W34746  29.070  38.118   3.626
66529W        W34747  44.686   0.437  14.489
66530W        W34748  24.115  12.784  13.947
66531W        W34749  15.654  21.107  10.881
66532W        W34750  40.355   2.379  12.925
66533W        W34751  24.664  11.316   1.808
66534W        W34752  37.147  20.461  14.771
66535W        W34753  10.980  31.702   4.754
66536W        W34754  28.413  23.503   3.109
66537W        W34755  29.356  34.448   9.824
66538W        W34756  31.116  33.043   2.909
66539W        W34757  14.206   1.394  11.949
66540W        W34758  31.424  12.899  11.996
66541W        W34759   4.685  37.768   4.656
66542W        W34760  41.175  10.871   2.996
66543W        W34761  30.926   5.150  12.921
66544W        W34762  33.315  25.390   0.747
66545W        W34763   6.870   0.410  13.277
66546W        W34764   0.929  14.168   0.303
66547W        W34765  14.198  37.023   1.697
66548W        W34766  14.773   9.862   2.352
66549W        W34767  22.628  12.954  14.447
66550W        W34768  44.338  14.844  14.203
66551W        W34769  21.661  43.844   0.531
66552W        W34770   8.265  37.370  12.524
66553W        W34771   4.233   2.419  14.098
66554W        W34772  25.460  27.669   3.949
66555W        W34773  30.197   3.748  13.915
66556W        W34774  28.946  18.450   0.488
66557W        W34775  13.678   9.305   2.035
66558W        W34776  23.249  22.607  10.213
66559W        W34777  31.588  39.715  11.047
66560W        W34778  25.429  44.034   3.850
66561W        W34779  41.387  34.802   2.853
66562W        W34780  10.884  30.498  13.461
66563W        W34781  33.559  25.139   0.340
66564W        W34782  10.325  23.581   2.728
66565W        W34783   5.345   0.912  11.599
66566W        W34784  13.926  34.634  10.205
66567W        W34785   1.689  15.070   4.106
66568W        W34786  32.761  37.915   4.731
66569W        W34787   3.269  25.133   0.266
66570W        W34788  15.675   4.849   4.061
66571W        W34789  23.990  39.357   2.351
66572W        W34790  32.908  43.251   1.011
66573W        W34791  33.982  11.331   0.425
66574W        W34792  31.672   9.135  12.468
66575W        W34793  14.538  34.134  11.705
66576W        W34794  31.236  40.859   4.020
66577W        W34795  19.675  38.071   0.059
66578W        W34796  40.989  16.797  12.466
66579W        W34797  19.146  23.258  14.265
66580W        W34798  33.666  21.022  11.653
66581W        W34799  20.132  33.579  13.338
66582W        W34800  41.850  12.445  11.172
66583W        W34801  28.212  10.280  10.630
66584W        W34802  44.465  14.499  11.586
66585W        W34803  24.562  26.340  14.360
66586W        W34804  13.837  18.264  11.075
66587W        W34805  22.137  20.073  10.650
66588W        W34806  28.224  23.730   1.756
66589W        W34807  14.864   9.417   4.992
66590W        W34808   6.287  39.421  14.002
66591W        W34809  20.890   2.312   4.474
66592W        W34810  41.465   9.905  13.951
66593W        W34811   9.816  38.060   3.725
66594W        W34812   9.388  11.901   1.837
66595W        W34813  15.258  44.762   2.763
66596W        W34814  39.065  29.540   0.816
66597W        W34815  31.464  32.631  12.901
66598W        W34816  35.613  35.869   3.097
66599W        W34817  25.580  10.749  10.742
66600W        W34818  28.439   2.776   2.736
66601W        W34819   6.807   1.995  13.239
66602W        W34820  20.541   9.185   2.719
66603W        W34821   2.823  17.620  12.528
66604W        W34822  14.245   4.198  13.274
66605W        W34823  25.832  21.482   4.076
66606W        W34824  28.508  17.136  14.469
66607W        W34825  33.188  36.653  13.849
66608W        W34826  17.729  18.116  10.281
66609W        W34827   2.842  23.421  12.098
66610W        W34828   0.265   3.675  11.692
66611W        W34829  23.469  11.000  13.515
66612W        W34830   3.476  23.713   1.379
66613W        W34831   6.202  31.411   0.012
66614W        W34832  30.035  44.805  11.979
66615W        W34833  14.628  37.872  14.604
66616W        W34834  36.860  28.448  11.430
66617W        W34835  13.356  35.759   0.706
66618W        W34836  39.396  35.446  12.867
66619W        W34837   6.196   0.705  12.521
66620W        W34838  16.193  42.281  11.180
66621W        W34839  40.522  28.925  13.913
66622W        W34840   6.613   8.737   1.992
66623W        W34841  32.424  42.525  11.678
66624W        W34842  13.369  20.170   0.379
66625W        W34843  10.413  16.753  14.932
66626W        W34844  28.547  13.653  11.259
66627W        W34845  30.629  42.963   4.534
66628W        W34846   3.982  14.226   0.936
66629W        W34847   9.898  43.390  13.389
66630W        W34848  22.649   6.966  14.513
66631W        W34849  40.486   3.449   2.181
66632W        W34850  30.928   4.673  13.277
66633W        W34851  38.187  41.350   0.972
66634W        W34852  10.231   6.687  11.576
66635W        W34853  17.575  17.103   1.283
66636W        W34854  38.645  10.618  10.689
66637W        W34855  38.159   6.466   0.395
66638W        W34856  28.898  17.109   9.821
66639W        W34857  39.519  20.716   3.784
66640W        W34858  23.717  24.497  14.341
66641W        W34859  28.629  17.313   2.192
66642W        W34860  41.840  28.385   3.694
66643W        W34861  35.943   6.138  13.054
66644W        W34862  34.945  32.969  14.786
66645W        W34863  21.406   2.418   4.616
66646W        W34864   0.264  11.215  10.678
66647W        W34865  34.672  36.809  10.975
66648W        W34866   8.644  25.017  11.289
66649W        W34867  43.749  20.111   2.592
66650W        W34868  25.065  13.612   3.593
66651W        W34869  39.927  13.416  13.524
66652W        W34870  42.321   3.882  11.522
66653W        W34871  42.955  41.306  13.800
66654W        W34872  35.672  13.451  14.832
66655W        W34873  37.571  42.875  13.585
66656W        W34874  26.594  41.094  10.798
66657W        W34875  30.939   7.213   3.160
66658W        W34876  33.002  14.121   4.166
66659W        W34877  18.293  20.606   0.117
66660W        W34878   7.000   2.766   3.627
66661W        W34879  14.315  16.936  13.063
66662W        W34880   7.384   3.664   3.999
66663W        W34881   1.976  40.535  14.460
66664W        W34882  21.587  28.904  13.427
66665W        W34883  19.075  36.118   2.348
66666W        W34884  18.339  43.341  13.623
66667W        W34885   9.984  35.696   2.164
66668W        W34886  19.755   0.083  11.589
66669W        W34887  13.175  30.723   1.325
66670W        W34888  39.023   8.156  13.745
66671W        W34889  20.080   6.809   0.254
66672W        W34890  12.933   7.816  12.146
66673W        W34891  27.472   3.138  12.404
66674W        W34892  13.310  38.619  10.998
66675W        W34893  24.599  15.238  10.622
66676W        W34894  31.117  32.963  11.684
66677W        W34895   1.922   3.886  10.770
66678W        W34896  23.908  26.046  13.905
66679W        W34897  20.994  42.382   0.883
66680W        W34898  34.554  27.649   3.117
66681W        W34899  14.782  42.515  14.860
66682W        W34900  38.890   9.392   4.067
66683W        W34901  30.463  15.684  13.477
66684W        W34902  41.062  28.499   2.377
66685W        W34903   8.844  20.639   1.405
66686W        W34904  23.940  29.234   1.682
66687W        W34905  13.586  27.425   4.283
66688W        W34906  20.503  13.984   2.412
66689W        W34907   8.383  18.787   4.932
66690W        W34908   3.229   8.728   2.906
66691W        W34909   9.644   1.749  12.016
66692W        W34910   8.173  26.854  13.217
66693W        W34911   9.097  43.812  10.994
66694W        W34912   2.171  20.211   2.745
66695W        W34913  31.916   9.119  11.083
66696W        W34914  25.236  33.834  10.739
66697W        W34915  36.148  14.667   3.200
66698W        W34916  32.233  39.869  13.319
66699W        W34917  43.441  23.492   3.505
66700W        W34918  17.710   5.419  12.452
66701W        W34919  15.247  17.306   2.148
66702W        W34920  10.621  36.002  14.995
66703W        W34921  23.696   9.630   3.631
66704W        W34922  24.954  18.539   3.785
66705W        W34923  16.608  44.921  14.465
66706W        W34924  38.089   6.689  13.712
66707W        W34925  13.589  39.474  13.549
66708W        W34926   4.585  31.409  10.683
66709W        W34927  27.765  27.399   1.741
66710W        W34928   6.452  36.497  11.412
66711W        W34929   1.431  44.485  12.417
66712W        W34930  19.538  42.741   1.374
66713W        W34931  27.888  19.081   0.376
66714W        W34932  19.551  22.980  13.454
66715W        W34933  38.415   1.141   4.151
66716W        W34934  40.271  31.203  13.274
66717W        W34935  24.397  39.632  13.885
66718W        W34936  39.101  33.559   1.381
66719W        W34937  18.187   0.286   3.192
66720W        W34938  39.502   3.935   5.033
66721W        W34939  39.487  31.118  11.906
66722W        W34940  18.576  18.701  11.258
66723W        W34941  38.183   3.950  12.725
66724W        W34942   0.153   9.887  14.882
66725W        W34943   0.783  10.795   4.380
66726W        W34944  32.340   7.932  14.755
66727W        W34945  21.501   9.337  11.593
66728W        W34946   3.977  20.400  11.024
66729W        W34947  31.362  31.431  13.608
66730W        W34948  31.074  26.116   2.550
66731W        W34949   9.986   2.093   4.522
66732W        W34950   8.762  10.108  11.609
66733W        W34951  37.776   0.978  10.293
66734W        W34952  17.759  42.905  13.051
66735W        W34953  16.765  39.826  12.033
66736W        W34954  30.086  30.096   0.925
66737W        W34955  15.761  38.578  13.585
66738W        W34956  15.076  18.579  10.727
66739W        W34957  23.966   3.402   2.069
66740W        W34958  36.097  27.865  14.193
66741W        W34959  27.465  24.791  12.021
66742W        W34960  41.763  15.272  14.321
66743W        W34961  28.837  29.771   0.920
66744W        W34962   0.859  43.110   4.989
66745W        W34963  27.697   9.674   2.478
66746W        W34964  42.769  41.479   1.800
66747W        W34965   7.887   4.383   3.772
66748W        W34966  19.144  10.475   4.617
66749W        W34967  19.679  39.364  10.351
66750W        W34968  28.375  30.620  14.804
66751W        W34969   8.175  43.900   3.378
66752W        W34970  12.879   4.640  11.636
66753W        W34971  32.418   7.687  11.652
66754W        W34972  27.688   9.116  14.420
66755W        W34973  40.570  26.694  14.891
66756W        W34974  36.944  16.091   4.053
66757W        W34975   4.170  44.847  13.027
66758W        W34976  18.499  38.454  11.065
66759W        W34977  39.370   7.251  10.758
66760W        W34978  23.465  11.444   3.692
66761W        W34979  15.121   8.949  14.016
66762W        W34980  26.143   6.889  12.802
66763W        W34981  31.981  33.100  12.013
66764W        W34982  37.584  32.118  11.593
66765W        W34983  23.653  33.945   3.538
66766W        W34984   1.048   6.579   3.430
66767W        W34985   7.744  43.766   3.100
66768W        W34986   8.645  44.055   2.432
66769W        W34987  33.636  15.599  11.133
66770W        W34988  16.318  14.764  13.318
66771W        W34989  13.350  18.474   2.818
66772W        W34990  42.424   7.314   2.219
66773W        W34991   8.667  30.487  11.195
66774W        W34992   9.237  42.137  12.854
66775W        W34993  34.281   8.939   2.826
66776W        W34994  42.431  14.954   1.434
66777W        W34995   2.699  44.917  13.967
66778W        W34996  12.106  26.992   3.065
66779W        W34997  16.587   8.802  12.077
66780W        W34998   5.839   1.433  12.505
66781W        W34999  32.982  27.813  11.894
66782W        W35000  32.754  14.535  11.194
66783W        W35001  12.892  18.097   3.278
66784W        W35002  37.280   0.919   3.785
66785W        W35003  40.997  27.452  11.611
66786W        W35004  17.542   6.600   4.109
66787W        W35005  12.275   8.138  12.970
66788W        W35006  21.378  32.402   5.255
66789W        W35007  12.271  14.092   2.776
66790W        W35008   7.019  11.817   1.737
66791W        W35009  40.944   1.838   3.600
66792W        W35010  15.199  13.393  12.960
66793W        W35011  23.560  39.623   0.673
66794W        W35012   7.225   8.361  11.754
66795W        W35013  43.090  27.160  12.004
66796W        W35014   5.206   3.984   4.679
66797W        W35015  14.977  42.279   2.301
66798W        W35016   4.646  31.367  12.337
66799W        W35017  25.234  10.276  12.161
66800W        W35018  21.566  31.747  11.722
66801W        W35019  42.391  13.144   4.272
66802W        W35020   2.918  42.500  14.961
66803W        W35021   8.219  35.830   4.587
66804W        W35022  27.865  43.778   3.630
66805W        W35023  37.554  15.183  14.778
66806W        W35024  12.131  43.921  12.577
66807W        W35025   4.992  23.894   3.626
66808W        W35026  15.118  27.367   0.820
66809W        W35027   6.833  34.391  11.141
66810W        W35028  12.915  12.639   3.664
66811W        W35029  36.703  23.485   4.708
66812W        W35030  28.045  41.300  12.841
66813W        W35031  27.322  26.474  14.118
66814W        W35032  28.273  18.592  11.663
66815W        W35033  39.898  18.185   2.407
66816W        W35034  38.521  13.319  14.349
66817W        W35035  24.427   9.467  13.787
66818W        W35036  26.254  15.791   1.144
66819W        W35037  38.738  17.442  11.277
66820W        W35038   9.273  37.294   3.915
66821W        W35039  34.202  12.201   4.039
66822W        W35040  32.869  17.700   1.162
66823W        W35041  14.230  41.521   0.291
66824W        W35042  23.445  16.463  11.057
66825W        W35043  21.707  37.648  13.188
66826W        W35044  19.662  19.584   0.927
66827W        W35045  22.131  31.922   4.775
66828W        W35046   0.822  17.353  12.765
66829W        W35047  30.445  20.557   0.760
66830W        W35048  10.292   1.561   4.586
66831W        W35049  13.228  26.571  13.911
66832W        W35050  34.577  33.592  12.426
66833W        W35051   9.998  12.100   4.101
66834W        W35052  41.595  13.764  13.915
66835W        W35053  17.147  34.315   4.740
66836W        W35054   0.502  40.175  10.762
66837W        W35055  32.974  32.962   1.942
66838W        W35056  40.701  40.988   2.247
66839W        W35057  25.728  13.100   0.924
66840W        W35058  20.533  39.777  13.946
66841W        W35059  35.681  31.630  13.092
66842W        W35060  22.050  26.663  11.922
66843W        W35061  24.514  21.215   0.235
66844W        W35062  11.302  44.057   0.429
66845W        W35063   7.265   2.488  12.944
66846W        W35064  23.463   3.288  11.636
66847W        W35065  22.192  37.129   2.279
66848W        W35066  29.710  41.927   3.629
66849W        W35067  10.491  29.074  14.442
66850W        W35068  37.365  32.127   4.142
66851W        W35069  44.737  23.441   0.831
66852W        W35070   4.698  22.033  14.004
66853W        W35071  38.322   0.762   1.199
66854W        W35072  34.985  31.215  14.474
66855W        W35073   4.222  23.905   0.162
66856W        W35074  33.583  10.737  11.960
66857W        W35075  27.880  24.681   4.580
66858W        W35076  15.188  16.069   3.993
66859W        W35077  24.212  11.037  13.868
66860W        W35078   9.880   0.420  14.818
66861W        W35079  30.180   0.377   3.098
66862W        W35080   7.806  27.991   0.925
66863W        W35081  26.154  31.407  10.503
66864W        W35082  40.861  23.058   3.264
66865W        W35083   6.801  29.372  12.526
66866W        W35084  33.609  20.328   4.142
66867W        W35085  31.855  14.764  12.877
66868W        W35086  36.085  42.040   4.968
66869W        W35087  10.191  26.531   0.840
66870W        W35088   6.361   7.635  12.956
66871W        W35089  38.918  36.101  11.529
66872W        W35090  18.094   0.979  14.469
66873W        W35091  29.602  10.525  14.799
66874W        W35092  11.654  19.320   0.486
66875W        W35093  43.829   9.434  12.161
66876W        W35094  27.524   4.787   1.454
66877W        W35095  23.200  33.615   5.078
66878W        W35096  43.336  15.102  13.047
66879W        W35097  16.074  28.011  13.520
66880W        W35098  35.537  36.220   0.578
66881W        W35099  31.602  11.711   2.771
66882W        W35100  30.131  15.092   3.892
66883W        W35101  29.528  19.261  13.926
66884W        W35102  16.242  13.394  10.250
66885W        W35103  34.847  29.044   2.256
66886W        W35104  16.606  44.525  11.366
66887W        W35105   8.948  33.913   4.209
66888W        W35106  44.275   5.048  13.506
66889W        W35107  10.209  39.403   4.518
66890W        W35108  10.901  18.712  11.912
66891W        W35109  14.211  39.473   1.166
66892W        W35110  27.015  35.440   2.317
66893W        W35111  36.771  34.082   1.614
66894W        W35112  25.218  37.112   1.318
66895W        W35113  29.769   2.957   4.591
66896W        W35114  36.315   3.862   3.645
66897W        W35115   0.817   6.206   1.516
66898W        W35116  33.188  42.920  12.160
66899W        W35117   8.289  15.145   0.441
66900W        W35118  26.752  20.095   1.389
66901W        W35119   6.180  39.117   3.359
66902W        W35120  10.847  11.245   2.337
66903W        W35121  43.304  29.472  11.701
66904W        W35122   4.337   5.329  13.133
66905W        W35123  34.854  37.958   4.780
66906W        W35124  15.404  43.854   0.471
66907W        W35125  30.926  42.902   1.507
66908W        W35126  19.019   5.255   0.698
66909W        W35127   4.412  17.897   0.402
66910W        W35128  42.212  25.475   3.519
66911W        W35129  26.273  14.652   9.893
66912W        W35130  30.930  34.836   1.763
66913W        W35131  44.379  26.249  10.066
66914W        W35132  22.897  18.059   3.628
66915W        W35133  23.151   4.566  13.364
66916W        W35134  14.848  20.158  14.423
66917W        W35135  18.547  21.563   3.673
66918W        W35136  11.327  37.772  14.312
66919W        W35137  20.131   2.915  11.534
66920W        W35138  31.092  26.994   0.757
66921W        W35139  40.744   6.753  13.760
66922W        W35140  34.844  16.108  11.464
66923W        W35141  23.479   2.351  13.043
66924W        W35142  12.976  34.724  14.878
66925W        W35143   9.929  25.267  13.389
66926W        W35144  43.252  41.463   4.164
66927W        W35145  42.950   1.785  14.506
66928W        W35146  34.101  18.754  12.421
66929W        W35147  13.223  26.593   3.650
66930W        W35148  32.237   3.259  13.116
66931W        W35149  43.598  40.694  11.713
66932W        W35150  26.097  35.030   2.241
66933W        W35151  19.602   3.501  13.539
66934W        W35152  21.169  42.385   4.120
66935W        W35153  32.530  44.128  11.256
66936W        W35154  35.073  18.149  12.972
66937W        W35155   6.675  32.041   2.188
66938W        W35156  35.552  42.254  12.479
66939W        W35157  19.783  22.539  14.900
66940W        W35158  12.566  31.459  13.666
66941W        W35159  29.881  16.977   2.687
66942W        W35160  30.111  25.439  14.906
66943W        W35161  18.737  38.353  14.831
66944W        W35162  31.453  42.222  13.918
66945W        W35163   6.918   3.146   2.197
66946W        W35164  39.910   9.121   2.247
66947W        W35165  26.365  44.085  14.960
66948W        W35166  37.367   1.223   3.309
66949W        W35167  16.614   8.289  12.035
66950W        W35168  43.159   0.739  12.500
66951W        W35169  13.697  26.219  14.364
66952W        W35170  13.219  22.769   3.136
66953W        W35171   3.746   0.434  14.444
66954W        W35172  30.164  25.749   2.748
66955W        W35173  44.981  28.077   4.288
66956W        W35174  19.191   3.744  12.054
66957W        W35175  15.247   3.418  10.675
66958W        W35176   5.018  23.258  13.537
66959W        W35177  23.091   7.770  14.789
66960W        W35178  37.565  33.627   2.602
66961W        W35179  39.854  31.390  13.502
66962W        W35180   4.987  24.946  13.824
66963W        W35181   6.914  14.667  11.068
66964W        W35182  12.795  37.464  14.831
66965W        W35183  16.534  18.683  10.911
66966W        W35184   9.882  12.183   1.307
66967W        W35185  36.794  40.017   2.264
66968W        W35186  30.805  14.341   4.110
66969W        W35187  16.720  24.624  13.577
66970W        W35188  28.152  11.726  11.811
66971W        W35189  16.141  32.161  11.186
66972W        W35190  34.546  34.405   2.710
66973W        W35191  29.767  37.424   4.360
66974W        W35192  43.851  39.801   3.649
66975W        W35193  31.909   1.478  11.245
66976W        W35194  21.791   8.816   4.442
66977W        W35195  40.966  19.720   1.342
66978W        W35196  15.691  12.913  12.020
66979W        W35197   8.422   5.829   4.612
66980W        W35198  13.828   9.147  13.061
66981W        W35199  13.783  20.697   1.692
66982W        W35200  10.448  12.314  11.135
66983W        W35201  17.176  23.729  11.131
66984W        W35202  40.461  15.507   1.494
66985W        W35203  14.642  36.979   2.852
66986W        W35204  40.830  31.160   0.292
66987W        W35205   5.665  32.170   3.151
66988W        W35206   1.385  28.675   3.213
66989W        W35207  16.713  20.592   2.929
66990W        W35208  28.546  34.143   0.851
66991W        W35209  39.092  19.682   1.593
66992W        W35210   9.190  14.066   3.933
66993W        W35211  42.581  34.782   3.652
66994W        W35212   4.112  44.245  11.188
66995W        W35213  20.005  12.594   3.122
66996W        W35214  35.524   6.102  12.728
66997W        W35215  16.770  24.476   1.455
66998W        W35216  41.356  15.569  14.311
66999W        W35217  10.749  19.616  11.626
67000W        W35218  43.783  16.871   0.720
67001W        W35219  28.075   5.326  11.250
67002W        W35220   8.494  31.959  12.389
67003W        W35221  40.595  20.528  13.930
67004W        W35222  26.422  16.954   1.730
67005W        W35223   2.503  34.420  12.051
67006W        W35224   9.755  40.696   4.861
67007W        W35225   2.986   9.127  11.596
67008W        W35226  23.201  41.413   1.220
67009W        W35227  25.875  15.971   0.811
67010W        W35228  40.418  24.104   1.296
67011W        W35229   2.943   6.396  13.923
67012W        W35230   1.829  16.347  12.010
67013W        W35231  43.978  29.069  13.415
67014W        W35232  15.809  25.257   2.013
67015W        W35233  16.249   2.230   2.796
67016W        W35234   8.472  44.193  13.055
67017W        W35235   7.270  19.613   0.987
67018W        W35236  22.947  10.685   0.789
67019W        W35237  18.827  33.003  13.439
67020W        W35238  17.491  21.542   3.734
67021W        W35239  38.488  27.638   3.882
67022W        W35240   5.651   8.136  11.233
67023W        W35241   4.346   6.473  12.340
67024W        W35242  27.325   5.922  11.220
67025W        W35243  33.946  23.013   0.168
67026W        W35244  44.278  25.212  10.469
67027W        W35245  12.138  15.039   2.832
67028W        W35246  16.751  33.371   0.521
67029W        W35247  38.377  34.958   4.611
67030W        W35248  39.360  24.213   2.345
67031W        W35249  31.213   0.290   1.773
67032W        W35250  19.557   8.931  12.034
67033W        W35251  17.216  38.806   4.563
67034W        W35252  33.384  32.877  10.238
67035W        W35253  14.405  18.080  13.922
67036W        W35254  24.909  19.081   2.322
67037W        W35255  14.087   8.658  11.571
67038W        W35256  18.458  17.255  12.484
67039W        W35257  36.831  28.826   3.626
67040W        W35258  19.171  24.673   0.962
67041W        W35259  15.053   7.121  13.431
67042W        W35260  20.607  17.769  14.237
67043W        W35261  28.364  10.205   0.919
67044W        W35262  37.344  13.848  12.554
67045W        W35263   7.029  28.633  11.638
67046W        W35264  34.634  40.889  10.690
67047W        W35265  37.467  42.364  13.782
67048W        W35266  33.389  41.179   3.250
67049W        W35267   3.350  41.980  10.819
67050W        W35268  40.965  18.794   2.372
67051W        W35269  19.746  30.720   0.405
67052W        W35270   8.481   5.209   0.767
67053W        W35271  13.004  19.080  11.890
67054W        W35272  11.731  11.403   0.753
67055W        W35273   5.275  24.698   0.416
67056W        W35274  42.349   1.757  11.986
67057W        W35275  21.221  21.485  12.045
67058W        W35276  24.421  43.492  13.807
67059W        W35277  15.590   3.533   4.579
67060W        W35278  12.223  39.910   3.306
67061W        W35279  15.299   8.824  10.663
67062W        W35280   7.116  37.859  10.992
67063W        W35281   5.329  22.187   2.872
67064W        W35282  38.896  19.468   3.733
67065W        W35283   3.391  40.724  14.291
67066W        W35284  20.838  39.037   2.372
67067W        W35285  10.074  18.760  10.846
67068W        W35286  13.252   2.043   0.704
67069W        W35287   8.231  20.112  13.655
67070W        W35288  34.106  22.382   0.840
67071W        W35289  21.821  20.165   0.961
67072W        W35290  40.928  43.448   2.795
67073W        W35291  42.569   7.444   3.272
67074W        W35292  32.223  34.470  11.212
67075W        W35293  30.524  27.513  14.436
67076W        W35294   7.310  33.390   2.794
67077W        W35295  31.484  40.224  11.075
67078W        W35296  31.116  23.100   0.281
67079W        W35297  11.272   0.660   3.299
67080W        W35298  29.033  23.483  14.409
67081W        W35299  37.483   0.694   4.201
67082W        W35300  12.324   2.321   0.543
67083W        W35301  43.220   8.674   2.847
67084W        W35302  11.509  20.407   0.737
67085W        W35303  11.118  14.816  14.696
67086W        W35304   9.534  27.502  14.285
67087W        W35305   1.012  44.102   4.868
67088W        W35306  36.536  23.300   5.175
67089W        W35307  20.801  18.616   1.898
67090W        W35308  25.735  17.675  14.468
67091W        W35309  27.090   7.179   3.402
67092W        W35310  30.085  15.178  11.229
67093W        W35311   8.108  35.272  13.906
67094W        W35312  12.685  15.173   1.566
67095W        W35313  15.278   7.650   1.283
67096W        W35314  25.451   0.448  12.563
67097W        W35315  14.325  18.007  12.973
67098W        W35316  25.424  17.257  10.813
67099W        W35317  22.237  30.575   0.399
67100W        W35318  14.883  29.552   3.833
67101W        W35319  30.896   8.053  12.063
67102W        W35320  10.330  33.798  14.581
67103W        W35321  26.112   1.975   0.439
67104W        W35322  23.589  12.661  14.981
67105W        W35323  29.981  15.229  13.094
67106W        W35324  12.573  39.920  12.936
67107W        W35325   4.301  41.997   4.727
67108W        W35326   6.609  12.653   3.145
67109W        W35327  16.074   3.407   1.374
67110W        W35328   2.877  31.150  13.880
67111W        W35329  13.180   2.034  10.621
67112W        W35330   5.952  24.737  11.659
67113W        W35331  43.774  23.203   2.220
67114W        W35332  15.193  38.865   0.383
67115W        W35333  26.735  27.667  10.259
67116W        W35334  27.458  34.597  13.941
67117W        W35335  36.599  17.841  12.044
67118W        W35336  43.843   0.946  13.013
67119W        W35337   1.118  34.893   1.419
67120W        W35338  19.017  44.554  10.850
67121W        W35339  30.451  32.834  13.075
67122W        W35340  20.637   5.479   0.741
67123W        W35341  23.268  27.227  11.437
67124W        W35342  38.778  33.259   2.355
67125W        W35343  17.590  32.485  12.033
67126W        W35344  41.491   3.361  10.186
67127W        W35345  39.994   0.513  14.910
67128W        W35346  34.364   4.588   4.181
67129W        W35347  22.685  28.606  12.098
67130W        W35348   9.877  39.750  10.856
67131W        W35349  29.926  11.852   1.843
67132W        W35350  30.050  19.042  10.783
67133W        W35351  33.088  26.598  13.457
67134W        W35352  36.966  29.980   4.270
67135W        W35353  11.215  18.117  11.215
67136W        W35354  31.099  16.713  14.915
67137W        W35355   4.476  15.622  11.577
67138W        W35356  13.937  44.450  12.473
67139W        W35357   8.237  21.970  10.844
67140W        W35358  44.084  26.136   1.358
67141W        W35359  38.053   4.881  13.843
67142W        W35360  22.166   0.253   2.241
67143W        W35361   5.250  43.785   4.147
67144W        W35362  21.621  25.688   2.097
67145W        W35363  25.655  14.402  14.867
67146W        W35364  23.095  43.210  14.831
67147W        W35365  32.026  30.091  11.025
67148W        W35366  15.767  34.828  10.722
67149W        W35367  41.972  33.798  14.180
67150W        W35368  29.237  42.317   4.093
67151W        W35369  44.346  24.810   4.085
67152W        W35370   4.119  33.492  14.971
67153W        W35371  34.842  42.996  12.943
67154W        W35372  39.875  38.190   4.709
67155W        W35373   3.728  35.163   1.293
67156W        W35374  31.364  38.511   0.516
67157W        W35375   6.309  25.583  12.617
67158W        W35376  40.018  43.395  12.313
67159W        W35377  36.941  12.480  11.226
67160W        W35378   9.307  11.275   1.334
67161W        W35379  18.175  26.587   1.397
67162W        W35380  14.346  37.504  14.995
67163W        W35381  26.527  18.658  11.108
67164W        W35382  42.323  12.270  11.067
67165W        W35383   5.618  16.059   2.346
67166W        W35384  16.275  20.938  12.081
67167W        W35385  37.331  21.656   4.093
67168W        W35386   8.872   6.210  14.202
67169W        W35387   5.809  16.837   0.861
67170W        W35388  42.268   8.338  10.969
67171W        W35389   7.845   8.349   1.940
67172W        W35390  13.079   1.415  14.409
67173W        W35391   4.906  44.759   4.373
67174W        W35392  33.538  14.332  12.991
67175W        W35393  37.439  39.563   4.637
67176W        W35394   8.339  24.015   2.207
67177W        W35395  32.211  34.582  13.815
67178W        W35396   0.015  15.799   0.337
67179W        W35397  18.268   3.438  14.420
67180W        W35398  34.131  29.726  10.496
67181W        W35399  41.051  41.095  12.570
67182W        W35400  36.069   7.702  14.243
67183W        W35401  12.165  10.326  13.134
67184W        W35402  27.077  37.109   2.833
67185W        W35403  30.489  35.620  14.237
67186W        W35404  17.973  22.827   4.539
67187W        W35405  38.415  28.422  14.765
67188W        W35406   1.842   6.191  14.538
67189W        W35407  28.712  11.482   0.855
67190W        W35408   3.527  42.390  12.473
67191W        W35409  38.641  36.630   0.881
67192W        W35410  32.485   4.956  12.842
67193W        W35411  34.304  18.212   4.393
67194W        W35412  13.358  19.660   2.322
67195W        W35413   7.782   7.219  14.532
67196W        W35414  44.036  35.487   0.215
67197W        W35415  44.954  30.513   3.233
67198W        W35416  29.029  34.272  12.777
67199W        W35417  28.327   4.447   1.142
67200W        W35418  19.096  35.784   3.698
67201W        W35419  41.816  16.121  10.461
67202W        W35420   7.661  22.766   1.972
67203W        W35421  22.213  33.663   0.016
67204W        W35422  24.937  22.768  12.460
67205W        W35423  15.137  29.265  13.014
67206W        W35424  32.386  30.043   1.372
67207W        W35425   1.217  33.174   3.768
67208W        W35426  12.875   4.257   1.242
67209W        W35427  19.613   2.111   0.395
67210W        W35428  38.502  13.082  13.871
67211W        W35429  40.391  19.623   3.685
67212W        W35430  10.441  37.503   1.909
67213W        W35431  19.016  29.381   0.655
67214W        W35432   1.304  10.330  10.691
67215W        W35433  30.435  14.084   1.932
67216W        W35434  15.576   9.178   1.457
67217W        W35435  25.138   6.974   2.236
67218W        W35436  13.373  17.287   2.362
67219W        W35437   3.345  22.657  12.042
67220W        W35438  38.778  27.428  11.284
67221W        W35439  26.828  36.979  13.561
67222W        W35440  10.159   9.954   2.821
67223W        W35441   5.406  17.419   2.936
67224W        W35442  24.898   5.969   0.818
67225W        W35443  35.941  39.110   1.005
67226W        W35444  26.488   1.268   0.514
67227W        W35445  41.962  29.373   0.954
67228W        W35446  43.949  29.144   2.742
67229W        W35447  29.760  25.425   0.307
67230W        W35448  37.552   3.406   1.446
67231W        W35449  23.619  38.339  14.767
67232W        W35450  20.642  36.470   1.970
67233W        W35451  29.534  21.312   3.699
67234W        W35452  43.097  11.136  14.332
67235W        W35453   6.709  31.164  10.689
67236W        W35454   8.709  33.559   4.502
67237W        W35455  29.080  21.047   3.620
67238W        W35456   5.412  13.942  14.058
67239W        W35457  27.535   1.958   5.038
67240W        W35458  34.904  20.134   0.517
67241W        W35459  20.386  29.574   2.793
67242W        W35460  38.133   5.330   2.149
67243W        W35461  31.371  41.753   3.198
67244W        W35462  25.483  27.175   1.979
67245W        W35463  22.437  26.162  14.073
67246W        W35464  11.218  25.127  14.574
67247W        W35465  37.556  12.185   3.214
67248W        W35466  31.683  42.395   2.411
67249W        W35467  14.555  11.403  11.637
67250W        W35468   8.363   9.737   2.749
67251W        W35469  32.181  39.559  14.579
67252W        W35470  33.087  19.120  10.999
67253W        W35471  20.087  28.077  10.204
67254W        W35472  23.548  12.163   2.217
67255W        W35473  35.223  26.466   3.807
67256W        W35474   2.343  28.882  13.332
67257W        W35475  36.474  44.800  10.945
67258W        W35476  16.701  19.488  14.893
67259W        W35477  36.399  21.577   2.381
67260W        W35478  19.395  28.688   3.603
67261W        W35479  44.990  29.499  12.489
67262W        W35480  33.128  33.431   1.778
67263W        W35481  14.067  11.629   3.771
67264W        W35482  35.650  17.228  11.184
67265W        W35483  14.218  44.019   1.900
67266W        W35484  16.787  42.996   0.213
67267W        W35485   2.785  13.358   4.854
67268W        W35486  31.410  13.345  14.292
67269W        W35487  43.898   1.361  14.801
67270W        W35488   2.967  37.778   3.418
67271W        W35489  11.813  35.455  12.398
67272W        W35490   6.646  18.261  11.581
67273W        W35491  22.282   0.272  11.256
67274W        W35492  20.723  23.065  12.953
67275W        W35493  16.123  42.090  10.702
67276W        W35494   0.759  24.239   4.559
67277W        W35495  10.197  37.036  13.632
67278W        W35496  24.232   3.163   1.242
67279W        W35497  24.537  40.868  14.446
67280W        W35498  30.143   8.914   1.197
67281W        W35499   4.604  44.413   2.266
67282W        W35500  33.875  41.557  12.273
67283W        W35501  38.635  31.469  14.266
67284W        W35502  24.962  36.657  13.437
67285W        W35503  33.442  15.591  14.291
67286W        W35504  30.998  35.693   4.603
67287W        W35505  43.546  40.684  14.016
67288W        W35506   2.629  12.852  12.933
67289W        W35507  37.419   7.424   2.259
67290W        W35508  37.145  19.214   2.296
67291W        W35509  11.589  27.201   2.367
67292W        W35510  29.205  24.609   1.762
67293W        W35511   7.710  38.024   3.386
67294W        W35512  23.609  33.422   4.683
67295W        W35513   7.262   9.311  12.121
67296W        W35514  19.942  30.519   2.703
67297W        W35515  29.699  31.021  14.027
67298W        W35516  12.202  41.762   3.096
67299W        W35517   9.896  20.707  10.734
67300W        W35518  14.239  40.273  12.100
67301W        W35519  23.517  18.214   4.621
67302W        W35520  38.461   2.988   1.412
67303W        W35521  38.508  42.270  12.877
67304W        W35522  26.455  20.006   2.754
67305W        W35523  44.788  24.746   2.201
67306W        W35524   7.099  18.585   3.365
67307W        W35525  25.583  35.084   1.310
67308W        W35526  34.437   6.277   0.766
67309W        W35527  24.601  37.068  13.769
67310W        W35528  23.279  23.256  13.565
67311W        W35529  15.968   7.778   1.920
67312W        W35530   3.153   9.200   4.156
67313W        W35531   1.209  18.350  14.511
67314W        W35532  30.518  13.598   0.714
67315W        W35533  23.081   6.999   0.331
67316W        W35534   8.691  43.078   0.776
67317W        W35535  39.722  28.795  12.028
67318W        W35536  19.106  10.805  12.541
67319W        W35537  42.685  14.229   0.388
67320W        W35538  21.128  30.049   0.857
67321W        W35539  19.468  12.789   0.409
67322W        W35540  26.300  27.116   2.585
67323W        W35541  43.466  16.556  10.682
67324W        W35542  32.895  41.880  11.443
67325W        W35543  23.289   2.827  11.927
67326W        W35544  27.496  29.153  10.600
67327W        W35545   7.373  44.379   2.214
67328W        W35546  10.913  23.527   4.159
67329W        W35547  13.168   2.776   3.433
67330W        W35548  17.293  39.737   1.706
67331W        W35549   4.170  36.557   1.931
67332W        W35550  38.640  21.015   0.693
67333W        W35551  21.211  32.302   3.145
67334W        W35552  12.900   6.201  14.001
67335W        W35553  17.800  28.691   2.265
67336W        W35554  24.247  15.000   4.276
67337W        W35555  39.601  33.031   3.263
67338W        W35556  15.381   9.471  11.691
67339W        W35557  12.699  28.114   4.885
67340W        W35558  42.899   0.172  12.628
67341W        W35559  10.369  18.261  14.953
67342W        W35560  36.033  42.091  10.325
67343W        W35561   4.910   0.296   4.571
67344W        W35562  39.550   4.682   1.820
67345W        W35563  26.615  19.473  12.918
67346W        W35564  32.347  33.577   0.384
67347W        W35565  23.703  36.313  11.730
67348W        W35566  37.548  20.079   0.874
67349W        W35567  12.094  17.631   0.771
67350W        W35568  11.881  42.452   1.385
67351W        W35569  13.647  42.879  13.980
67352W        W35570  18.890  15.822   4.667
67353W        W35571   2.720   2.485  12.879
67354W        W35572  13.851  34.971  13.440
67355W        W35573  29.177  16.759  12.052
67356W        W35574   3.366  32.429  12.066
67357W        W35575  37.139   4.944   2.209
67358W        W35576   7.663  41.888  13.000
67359W        W35577   7.965  37.535   0.414
67360W        W35578   5.452  14.711  14.335
67361W        W35579  16.640  25.940  12.412
67362W        W35580  42.944  36.364  14.582
67363W        W35581  30.822   8.663   4.249
67364W        W35582  15.071  36.640  14.074
67365W        W35583  33.361  19.501   2.733
67366W        W35584   7.381  28.550   2.098
67367W        W35585   9.992   2.927  13.387
67368W        W35586  10.598   3.361  14.054
67369W        W35587  21.177  36.177   2.830
67370W        W35588  35.124  41.840   1.872
67371W        W35589  16.884  40.415   0.899
67372W        W35590   8.781  33.187  11.431
67373W        W35591  31.865  35.181   1.867
67374W        W35592  13.421  27.197   0.198
67375W        W35593  38.250  13.604  13.056
67376W        W35594  12.926  27.443  12.564
67377W        W35595  41.957  17.807   2.852
67378W        W35596   9.148  38.834  10.019
67379W        W35597  32.556   5.696  11.537
67380W        W35598  18.595  19.550  11.384
67381W        W35599  36.990  11.399  14.195
67382W        W35600  11.952  35.014  12.005
67383W        W35601  20.759  15.523  14.982
67384W        W35602  15.873  30.138  12.951
67385W        W35603   7.402  34.217  14.953
67386W        W35604  27.465  34.413   2.728
67387W        W35605  34.998  32.670  11.102
67388W        W35606  28.033   3.581   1.717
67389W        W35607  16.215  41.087  12.620
67390W        W35608  27.100  23.630   2.689
67391W        W35609  36.248  44.333   3.272
67392W        W35610  42.919  20.050  10.642
67393W        W35611  24.687  16.657  10.558
67394W        W35612   5.749  31.543  10.937
67395W        W35613   8.342  30.116   3.876
67396W        W35614  32.639  34.390   4.434
67397W        W35615  21.653  13.910  11.971
67398W        W35616  10.887  34.309   1.854
67399W        W35617  31.691  35.877   1.323
67400W        W35618  27.748  42.149   2.716
67401W        W35619   2.874   1.589   4.254
67402W        W35620  14.264  19.032   1.456
67403W        W35621   8.948   4.729   3.137
67404W        W35622   9.479   0.742  12.425
67405W        W35623  42.785  38.820   2.611
67406W        W35624  30.172  21.749  12.320
67407W        W35625  38.838  39.033   2.688
67408W        W35626  35.474  32.751  11.323
67409W        W35627  40.240  10.318   3.772
67410W        W35628  36.669  34.035  12.826
67411W        W35629   8.182  35.939  12.641
67412W        W35630  38.392   8.928   3.687
67413W        W35631   5.693  36.443  11.624
67414W        W35632  30.650   8.610  14.554
67415W        W35633  40.920  14.839   4.562
67416W        W35634  36.623  34.390   0.828
67417W        W35635  31.885  12.635   4.044
67418W        W35636  32.145  21.115  12.104
67419W        W35637  40.775  20.680  13.467
67420W        W35638  23.981  25.604   1.635
67421W        W35639  14.914  19.594  12.356
67422W        W35640  17.290  30.182  11.596
67423W        W35641  12.461  18.807   3.582
67424W        W35642  28.011  15.338   2.477
67425W        W35643  24.027  23.647  14.198
67426W        W35644   4.544  10.280  11.032
67427W        W35645  25.001   6.433  14.263
67428W        W35646  19.733   0.658  13.967
67429W        W35647  39.798  13.138   1.420
67430W        W35648  19.965  36.375  14.074
67431W        W35649  19.033  18.472   1.203
67432W        W35650  17.815  10.560  11.987
67433W        W35651  38.035   6.701  13.200
67434W        W35652   8.267  21.986   0.256
67435W        W35653  10.101  36.115  10.977
67436W        W35654  11.671   9.162   3.848
67437W        W35655  29.970  16.506   0.916
67438W        W35656  16.894   3.801  12.097
67439W        W35657  39.816   1.281  13.481
67440W        W35658  29.958  21.727  14.854
67441W        W35659  11.565  33.732  12.144
67442W        W35660  33.155   5.408  10.665
67443W        W35661  39.814  43.990   4.423
67444W        W35662   6.890  37.620   2.220
67445W        W35663  22.574  13.823  12.874
67446W        W35664  20.648  37.412   1.870
67447W        W35665  36.432  40.954   3.813
67448W        W35666  10.744  43.949   4.603
67449W        W35667  32.300   6.137  10.308
67450W        W35668  30.562  23.547   3.313
67451W        W35669  24.660  35.346  11.659
67452W        W35670  27.910  14.594  10.796
67453W        W35671  43.981   8.215  13.954
67454W        W35672   9.415  10.345  12.867
67455W        W35673   2.471  13.167   2.134
67456W        W35674  29.081  12.640   3.221
67457W        W35675  38.924  20.820  14.349
67458W        W35676  44.293  42.504  12.133
67459W        W35677   9.132  37.487   2.909
67460W        W35678  32.746  28.676   1.249
67461W        W35679   3.469   6.955   1.866
67462W        W35680   3.436   7.437  12.621
67463W        W35681   2.307  12.400   2.831
67464W        W35682  32.497  26.406   5.033
67465W        W35683   7.314  17.741   2.224
67466W        W35684  15.704  18.089  12.836
67467W        W35685  12.743  37.121  11.116
67468W        W35686  10.749   7.838  13.442
67469W        W35687  39.783  25.438  11.332
67470W        W35688   1.837  20.033   2.305
67471W        W35689  30.216  17.066   2.319
67472W        W35690  42.201  11.469   3.563
67473W        W35691   1.258  15.613   0.876
67474W        W35692  20.217  23.738   4.741
67475W        W35693  26.680  14.254  11.124
67476W        W35694  40.112   8.227   2.228
67477W        W35695  40.580  38.635   3.253
67478W        W35696  36.037  26.386   1.849
67479W        W35697  25.603  19.239  13.058
67480W        W35698  34.055   5.900  11.560
67481W        W35699   3.014  25.399   2.421
67482W        W35700  30.559  28.557   2.904
67483W        W35701  11.098   3.552  13.993
67484W        W35702   4.184  15.576  10.654
67485W        W35703   0.753  21.401   4.008
67486W        W35704  31.102  25.071   3.274
67487W        W35705   0.708  10.715  14.838
67488W        W35706  35.390  39.070  14.357
67489W        W35707  10.085   0.327   1.749
67490W        W35708  21.671  38.518   0.894
67491W        W35709  35.376  14.638   0.089
67492W        W35710  18.985  30.622   2.421
67493W        W35711   8.716  23.121   4.801
67494W        W35712  28.533  14.638   2.094
67495W        W35713  23.925  34.346  12.874
67496W        W35714  11.294  24.998   0.579
67497W        W35715  37.850   8.664  12.385
67498W        W35716  34.013  24.262   1.541
67499W        W35717   5.980  34.326  13.441
67500W        W35718  20.167  16.367  13.871
67501W        W35719  25.941   9.703   0.831
67502W        W35720  18.778  38.649   2.715
67503W        W35721  15.669  28.582  14.193
67504W        W35722   0.024   0.453  14.128
67505W        W35723  18.741  23.752  14.968
67506W        W35724   5.859  13.286   1.946
67507W        W35725   7.770  33.089  12.375
67508W        W35726  39.371   5.230  12.894
67509W        W35727  37.029  22.088   4.204
67510W        W35728  34.942  11.501  14.482
67511W        W35729  22.653  30.865   3.349
67512W        W35730  12.735  31.331   3.817
67513W        W35731  15.164   2.177  12.343
67514W        W35732  39.009  17.476  14.795
67515W        W35733  38.585   4.791  13.863
67516W        W35734  35.505  24.064  14.811
67517W        W35735  16.686  31.442  11.360
67518W        W35736  40.011  10.645   2.702
67519W        W35737  35.463  32.554   0.544
67520W        W35738  22.759   9.465   0.845
67521W        W35739  14.037   7.910  12.627
67522W        W35740  41.258   4.723  12.617
67523W        W35741   6.598  14.371   0.667
67524W        W35742   5.756  42.244  11.665
67525W        W35743  29.688  31.620   1.898
67526W        W35744   7.876  14.772   2.941
67527W        W35745  31.818  34.921  11.539
67528W        W35746  26.533  37.658  12.861
67529W        W35747  26.165   8.846  14.489
67530W        W35748  10.247  21.303   2.623
67531W        W35749  27.891  34.415   1.886
67532W        W35750   3.884  14.264   4.207
67533W        W35751  26.152  39.327   2.443
67534W        W35752  15.604  16.286   3.181
67535W        W35753  44.734  23.511   2.822
67536W        W35754  31.745  42.272   1.448
67537W        W35755  25.485   3.984  13.297
67538W        W35756  31.414  18.706   0.471
67539W        W35757  38.044  32.464  13.482
67540W        W35758  26.560  21.749  13.811
67541W        W35759  13.474   0.742  13.402
67542W        W35760  41.388   1.019  10.705
67543W        W35761  17.416  41.568  12.990
67544W        W35762  44.331   7.650  14.184
67545W        W35763  19.470  43.322  10.750
67546W        W35764  19.646  44.738  14.073
67547W        W35765  32.570   0.971  10.695
67548W        W35766  14.534  35.386  13.333
67549W        W35767  24.458  30.556  10.436
67550W        W35768  26.338  15.170  14.125
67551W        W35769  27.710  15.733  13.829
67552W        W35770  39.910   9.690   2.702
67553W        W35771   9.476  14.763   1.680
67554W        W35772   4.183   3.600   0.042
67555W        W35773  11.231  14.064   2.649
67556W        W35774  41.987   8.192   1.352
67557W        W35775  42.049  15.119   4.114
67558W        W35776  22.890   6.924   0.846
67559W        W35777  35.387  27.336  14.367
67560W        W35778   5.867  37.317   4.709
67561W        W35779  11.861  36.523   4.607
67562W        W35780  36.061  21.269   0.656
67563W        W35781  15.525   5.590  11.601
67564W        W35782  37.443  15.656  14.963
67565W        W35783  40.463  20.347  13.193
67566W        W35784   1.202  38.652   0.114
67567W        W35785   1.877  21.141  11.031
67568W        W35786  13.641   0.798  12.495
67569W        W35787  35.423  37.693  14.343
67570W        W35788   7.893  42.482   3.584
67571W        W35789  15.468   2.990   5.548
67572W        W35790  41.564  19.768   4.134
67573W        W35791  26.510  36.136  11.124
67574W        W35792  27.701  13.791   1.740
67575W        W35793   9.697   7.575   1.759
67576W        W35794  14.673  41.864  10.418
67577W        W35795   8.376  10.725   3.125
67578W        W35796  40.938  28.788  14.417
67579W        W35797  24.727  15.320   3.625
67580W        W35798   5.212  32.677   0.674
67581W        W35799   0.652  19.080   2.044
67582W        W35800  24.263  36.031  12.200
67583W        W35801  37.278  30.134  12.087
67584W        W35802  20.654  11.582   2.755
67585W        W35803  37.860  31.184  12.509
67586W        W35804   0.518  19.174   4.516
67587W        W35805  30.069  18.209  13.562
67588W        W35806  24.195  32.965   3.339
67589W        W35807  27.932  37.472  12.862
67590W        W35808  17.878  36.386   1.888
67591W        W35809  32.383  12.600   2.808
67592W        W35810  25.534   4.430   4.717
67593W        W35811   6.086  40.392   1.696
67594W        W35812  29.039  33.662   3.696
67595W        W35813  40.945  40.794   4.106
67596W        W35814  12.134  12.717   2.857
67597W        W35815  32.094  40.741  12.180
67598W        W35816  11.052   7.355   1.664
67599W        W35817  22.586  36.963   3.720
67600W        W35818  37.101  16.977   3.045
67601W        W35819  16.758  22.652  11.007
67602W        W35820   3.347  38.510   3.950
67603W        W35821  22.626   5.231   0.541
67604W        W35822  19.586   1.788  11.098
67605W        W35823  21.993  36.483  10.359
67606W        W35824  28.463   8.465  13.533
67607W        W35825  32.591  44.241  14.794
67608W        W35826   7.155  31.719   3.147
67609W        W35827  37.481  40.507   3.092
67610W        W35828  37.215  15.778   3.754
67611W        W35829  32.400  25.155   3.384
67612W        W35830  21.005  11.736  11.633
67613W        W35831   9.325  10.224   4.387
67614W        W35832  12.852  36.418  12.925
67615W        W35833  30.527  40.286  12.098
67616W        W35834  43.742  24.415  10.641
67617W        W35835  10.369   5.285   3.152
67618W        W35836  19.303  20.169   3.198
67619W        W35837  17.203  19.119  12.278
67620W        W35838  36.949  36.607  14.614
67621W        W35839   9.875   5.758   4.863
67622W        W35840   7.998  27.215  12.344
67623W        W35841  35.421  43.520   0.010
67624W        W35842   6.208  15.040  10.683
67625W        W35843  23.664  38.794   4.283
67626W        W35844  23.460  23.980  12.456
67627W        W35845  14.000  10.148   2.408
67628W        W35846  38.125  11.823   4.982
67629W        W35847  43.176  33.096  13.166
67630W        W35848  36.459  26.993   0.465
67631W        W35849  15.672   0.862  12.077
67632W        W35850  22.730  26.134  14.503
67633W        W35851  13.023  30.160  12.841
67634W        W35852  32.447   8.889   0.866
67635W        W35853  20.845  31.351   4.198
67636W        W35854  42.448  15.247  14.821
67637W        W35855  12.158  42.399  11.172
67638W        W35856  14.551  21.147  11.061
67639W        W35857   3.048  17.705   0.887
67640W        W35858  14.272   3.832  12.866
67641W        W35859  31.438  40.875  14.020
67642W        W35860  24.531  39.053  14.902
67643W        W35861  37.352   9.755  14.085
67644W        W35862  14.341  36.364  11.443
67645W        W35863  29.849  25.682   5.048
67646W        W35864  22.552  16.642  13.946
67647W        W35865  30.062  41.929   1.009
67648W        W35866   1.300  43.774  14.795
67649W        W35867  16.638   2.900   4.175
67650W        W35868  23.735  15.297   0.936
67651W        W35869  37.574  14.192   0.058
67652W        W35870   0.519   2.777   3.163
67653W        W35871  16.847  10.825  13.926
67654W        W35872   0.935  43.266   1.882
67655W        W35873  38.723   0.421   1.269
67656W        W35874  22.580  31.131  10.690
67657W        W35875  21.318   8.811  11.729
67658W        W35876  38.601  16.244   4.636
67659W        W35877  33.402  17.239  13.129
67660W        W35878  15.347  23.019   2.107
67661W        W35879  31.124   9.646   3.252
67662W        W35880   1.712   8.173   1.008
67663W        W35881  35.165  39.348   1.894
67664W        W35882  40.750  34.635  12.079
67665W        W35883   3.991  25.493   2.364
67666W        W35884  15.827   6.898   2.806
67667W        W35885  38.566   7.443  11.981
67668W        W35886  36.018  26.506  14.990
67669W        W35887  21.803  22.208   0.809
67670W        W35888  33.880  37.602   4.321
67671W        W35889  43.474  36.733  11.590
67672W        W35890  17.749  34.550   3.752
67673W        W35891  19.245   9.656  11.199
67674W        W35892  15.828   7.377  12.809
67675W        W35893  15.804  21.446   9.937
67676W        W35894   2.300   1.838  13.471
67677W        W35895  12.681  39.710   2.222
67678W        W35896  34.542  17.734   0.273
67679W        W35897  18.809  15.490  11.029
67680W        W35898  30.877   9.933  12.048
67681W        W35899  24.532   5.687  13.053
67682W        W35900  17.641  12.737  11.781
67683W        W35901  31.475  19.328  13.145
67684W        W35902  18.520  29.677   0.902
67685W        W35903  35.171  10.351   2.210
67686W        W35904   5.384   7.625   1.796
67687W        W35905  12.296   4.175  13.823
67688W        W35906  15.318  12.896   1.207
67689W        W35907   3.654  35.994   3.144
67690W        W35908  10.785  27.929   1.873
67691W        W35909   0.275  43.960   4.691
67692W        W35910  10.862  44.810  10.974
67693W        W35911  14.972  15.051  13.382
67694W        W35912  11.036  24.506   2.951
67695W        W35913  14.848  34.552   3.170
67696W        W35914  14.995  22.087  14.336
67697W        W35915   3.302  18.557  14.930
67698W        W35916  13.871  17.726  12.874
67699W        W35917   3.786  32.018  14.797
67700W        W35918  42.586  16.081  13.626
67701W        W35919   6.913  18.792   2.907
67702W        W35920   9.248  31.788   2.874
67703W        W35921  40.811  39.458   4.436
67704W        W35922   6.987  11.296   4.101
67705W        W35923  29.957  39.827  12.533
67706W        W35924  28.664  22.572   1.862
67707W        W35925   8.318   2.254  14.825
67708W        W35926  25.557  16.878  13.844
67709W        W35927  15.144   0.502   3.437
67710W        W35928   2.956  14.769   0.748
67711W        W35929  28.660  20.477   4.089
67712W        W35930  24.011   3.298   4.117
67713W        W35931  35.036  10.460   4.906
67714W        W35932   8.345  30.370   1.902
67715W        W35933  41.926  17.665   1.198
67716W        W35934   9.882   4.485   2.203
67717W        W35935  13.901   2.301   4.566
67718W        W35936  22.782  26.706  13.363
67719W        W35937  36.731  10.660  13.852
67720W        W35938  25.238   7.915  12.577
67721W        W35939  38.012  26.377  14.757
67722W        W35940   2.801  19.603  13.089
67723W        W35941  43.099  19.174   2.006
67724W        W35942  16.226  40.952   3.594
67725W        W35943   2.725  10.324  13.496
67726W        W35944  39.363  35.384  11.148
67727W        W35945  21.792  39.977  11.563
67728W        W35946  20.709  16.276  13.987
67729W        W35947  30.681  27.659   3.333
67730W        W35948  12.503  38.381  14.021
67731W        W35949  17.290  40.273  11.470
67732W        W35950  16.273  23.319   3.021
67733W        W35951  26.110   2.534  13.919
67734W        W35952   6.511  42.125  14.498
67735W        W35953  26.513  42.344  13.475
67736W        W35954  37.430  24.729  13.969
67737W        W35955  26.158   0.898   0.323
67738W        W35956  39.667  22.237  14.995
67739W        W35957  27.494  10.223   1.314
67740W        W35958  14.654  10.281   0.526
67741W        W35959  34.872  23.354   1.497
67742W        W35960  19.192   0.846   1.772
67743W        W35961  19.707  32.405   2.251
67744W        W35962  10.879  35.587  14.349
67745W        W35963  25.904  20.082  14.750
67746W        W35964   4.925  27.506   2.170
67747W        W35965  26.586  17.707  12.633
67748W        W35966   2.003  39.845  12.383
67749W        W35967  23.069   7.514   0.259
67750W        W35968  37.015  11.730   0.533
67751W        W35969  19.780  33.853  13.815
67752W        W35970  38.354  12.442   3.584
67753W        W35971  40.227  31.854   2.165
67754W        W35972  32.009  43.543  10.753
67755W        W35973  36.895   0.750   1.205
67756W        W35974  21.795  41.043   0.542
67757W        W35975  38.482  32.083   1.502
67758W        W35976  10.236  41.123   3.720
67759W        W35977  21.172  11.913  12.075
67760W        W35978  43.937  16.319  10.699
67761W        W35979  23.187  11.788   4.556
67762W        W35980  31.518  14.003  10.785
67763W        W35981  30.129  28.103   4.527
67764W        W35982   2.845   2.925   2.979
67765W        W35983   6.467   3.432  11.080
67766W        W35984   6.274   2.253  12.717
67767W        W35985  10.234  20.879  12.071
67768W        W35986  22.693   8.227  11.616
67769W        W35987  12.845  38.943  11.003
67770W        W35988  28.387   1.460   4.086
67771W        W35989  44.948   6.202   1.535
67772W        W35990  13.879  35.152   1.199
67773W        W35991  33.049  36.170  11.598
67774W        W35992  29.490  37.791  11.549
67775W        W35993  10.692  28.458   0.123
67776W        W35994  10.568  29.750   4.175
67777W        W35995  24.717  17.108  12.328
67778W        W35996  24.327  17.504   2.765
67779W        W35997   2.912  40.227  13.616
67780W        W35998  10.710  38.075   2.832
67781W        W35999  34.994  37.940   2.907
67782W        W36000   6.249  19.219  11.562
67783W        W36001  33.001  35.416   2.352
67784W        W36002  35.614  37.879   1.460
67785W        W36003  34.511   9.862  11.037
67786W        W36004  21.259  33.381  10.831
67787W        W36005  42.570   0.661   1.765
67788W        W36006  29.447  10.775   3.398
67789W        W36007  13.253  32.444   0.327
67790W        W36008  21.694  24.939  11.557
67791W        W36009  21.693  41.359   4.659
67792W        W36010  38.799  23.956   3.835
67793W        W36011   9.621  20.834  14.366
67794W        W36012  30.582  33.366   3.765
67795W        W36013  28.232  16.188   2.245
67796W        W36014  30.348  44.788   3.341
67797W        W36015  22.237  10.135   9.993
67798W        W36016  43.118  19.504   0.839
67799W        W36017  19.974  40.160  14.821
67800W        W36018   7.484  27.724   2.271
67801W        W36019  40.568  32.482   4.641
67802W        W36020  34.127  17.696  14.403
67803W        W36021   6.820  26.188  14.286
67804W        W36022  42.938  11.155   0.792
67805W        W36023   5.627   1.188  12.928
67806W        W36024  23.322  15.476  11.938
67807W        W36025  27.125  16.293   3.616
67808W        W36026  17.613   3.859   2.791
67809W        W36027  19.665  44.501   2.902
67810W        W36028  40.984  38.961  14.876
67811W        W36029  34.086  22.535   1.358
67812W        W36030  36.988  23.726   2.882
67813W        W36031  34.562  13.706   1.919
67814W        W36032  33.564   7.864  11.584
67815W        W36033  13.233   8.357   1.182
67816W        W36034  21.220  41.203   4.465
67817W        W36035  43.476   6.280   0.444
67818W        W36036  10.610   5.283  11.603
67819W        W36037  27.954  32.609   0.339
67820W        W36038  41.324  31.123   2.820
67821W        W36039  29.238   8.721  14.692
67822W        W36040   4.631  35.091   3.291
67823W        W36041  27.525  22.025   0.254
67824W        W36042  15.281  44.599  13.274
67825W        W36043  41.956  15.326   0.371
67826W        W36044  28.942  29.652  12.761
67827W        W36045  20.093  17.062  13.045
67828W        W36046  24.901  28.277  12.797
67829W        W36047   5.285  26.190   2.114
67830W        W36048   2.243  37.530  14.986
67831W        W36049   7.982  13.077  14.527
67832W        W36050  17.119  40.825   3.069
67833W        W36051  17.058  43.911   9.797
67834W        W36052  31.880   7.323  14.888
67835W        W36053  29.857  31.367   3.214
67836W        W36054   4.792  24.673   9.890
67837W        W36055  18.648  32.102  11.179
67838W        W36056  39.427  26.511  14.082
67839W        W36057  14.248  28.051   1.282
67840W        W36058   1.871  33.482   0.414
67841W        W36059  34.406  16.786  11.251
67842W        W36060   8.585  30.069  13.443
67843W        W36061  31.060  18.141  11.490
67844W        W36062  37.149  21.081  12.601
67845W        W36063  27.049   0.557  12.036
67846W        W36064  17.142  21.080   3.708
67847W        W36065  31.540  15.323   3.642
67848W        W36066  32.199   3.305   0.466
67849W        W36067  25.556  34.408   4.636
67850W        W36068  13.709   9.397   3.035
67851W        W36069  28.072  38.975  10.477
67852W        W36070  17.019  41.054   0.754
67853W        W36071  40.709  13.579   2.840
67854W        W36072  31.198  26.675  12.115
67855W        W36073  37.877  41.364   2.374
67856W        W36074   5.020  32.956  10.688
67857W        W36075  37.989  39.287   2.159
67858W        W36076  40.980  11.535   4.247
67859W        W36077   0.610  20.247   1.912
67860W        W36078  16.579  18.704   4.402
67861W        W36079  21.858  11.800   1.734
67862W        W36080   5.595  13.800   2.794
67863W        W36081  21.188  25.745  13.329
67864W        W36082  38.356  31.514   1.295
67865W        W36083   6.013   0.199   2.628
67866W        W36084  14.607  38.540   2.268
67867W        W36085  24.565  38.846   4.073
67868W        W36086  24.324  35.118   2.774
67869W        W36087  25.625   4.202  13.980
67870W        W36088  33.370   9.887  12.362
67871W        W36089   1.945  42.056   2.288
67872W        W36090  22.013  28.845   2.177
67873W        W36091  41.008  24.955   1.166
67874W        W36092  10.065  10.692  13.542
67875W        W36093  32.639  29.125   4.725
67876W        W36094  42.315  35.372   0.269
67877W        W36095  31.454  31.970  14.458
67878W        W36096  10.121  39.462  12.799
67879W        W36097  21.734  37.867   4.993
67880W        W36098  28.393  23.344   1.109
67881W        W36099  17.119   7.404  11.131
67882W        W36100   1.297  42.054   0.725
67883W        W36101  10.602   1.930  13.280
67884W        W36102  40.292   8.235  12.550
67885W        W36103  36.063  44.214  12.177
67886W        W36104  44.015  38.895   4.196
67887W        W36105   9.222   7.922   0.751
67888W        W36106  15.520  41.368   4.154
67889W        W36107  18.254  42.027  13.837
67890W        W36108  33.122  18.305  13.903
67891W        W36109  44.321   5.810   1.881
67892W        W36110   0.372  33.533  11.832
67893W        W36111  19.180   6.447  14.241
67894W        W36112  38.878   9.120   3.601
67895W        W36113  11.540  43.791   0.826
67896W        W36114  37.057  44.969   4.220
67897W        W36115  19.794  15.778   0.869
67898W        W36116  24.747  21.536   3.240
67899W        W36117  41.493  28.555  13.434
67900W        W36118  21.047   8.744  12.956
67901W        W36119   2.982   7.582  14.088
67902W        W36120   2.945  29.063   2.754
67903W        W36121  28.230  35.978  13.933
67904W        W36122  14.871   5.840   0.740
67905W        W36123   4.720  26.585   4.178
67906W        W36124  18.091  14.326   4.412
67907W        W36125   4.398  16.861  12.145
67908W        W36126  30.331  24.268   4.601
67909W        W36127  35.163   4.314   0.727
67910W        W36128  16.774  38.392   3.680
67911W        W36129  31.181  22.780   4.604
67912W        W36130  37.353  16.678  14.743
67913W        W36131  22.577  27.709  10.330
67914W        W36132  14.762  29.426   3.119
67915W        W36133  44.512  11.176   3.111
67916W        W36134  20.262  12.304  11.632
67917W        W36135  37.841  22.131  13.411
67918W        W36136  29.180  21.673  13.861
67919W        W36137   9.788   1.865  11.144
67920W        W36138  13.785   2.350   2.179
67921W        W36139  20.067  34.974  13.910
67922W        W36140   8.899  26.107  14.864
67923W        W36141  31.516  27.179  13.523
67924W        W36142  43.740  11.826   4.323
67925W        W36143  21.604  37.168  10.709
67926W        W36144  37.082  18.277   3.490
67927W        W36145  12.233   2.882  14.364
67928W        W36146   2.657   5.677  14.351
67929W        W36147  35.869   9.910  12.355
67930W        W36148   6.057   3.883   1.288
67931W        W36149  37.981  19.207  11.042
67932W        W36150  17.531  40.797  14.003
67933W        W36151  43.894   6.773  12.956
67934W        W36152  19.707  30.902   1.876
67935W        W36153  37.847  37.285   2.338
67936W        W36154  24.083  28.294  14.048
67937W        W36155  33.046  13.557  11.136
67938W        W36156  14.133  14.617  14.462
67939W        W36157  33.175  39.158   1.399
67940W        W36158   2.446  12.160   0.754
67941W        W36159   4.958  42.455   2.730
67942W        W36160  43.464  35.470   0.743
67943W        W36161  44.978   2.464  12.865
67944W        W36162   7.190  16.050   4.107
67945W        W36163  21.738  37.382   1.817
67946W        W36164  44.402  30.296   5.099
67947W        W36165  37.028   2.938  13.935
67948W        W36166  20.319  17.677   3.179
67949W        W36167  17.341  44.900   1.188
67950W        W36168  14.289  30.429  14.081
67951W        W36169  38.123  33.085  12.396
67952W        W36170  34.890  39.637  14.945
67953W        W36171  10.223  28.855  11.982
67954W        W36172  34.544   7.131   1.383
67955W        W36173  34.654  11.226  13.017
67956W        W36174   7.113  33.545   0.371
67957W        W36175  29.525  44.287  12.650
67958W        W36176  10.232  20.006   2.317
67959W        W36177  23.050  44.413  11.180
67960W        W36178   4.502  17.277  12.834
67961W        W36179  40.898  39.335  14.165
67962W        W36180  40.843  18.809  13.391
67963W        W36181  10.886  35.323   4.118
67964W        W36182   1.906  21.541   0.363
67965W        W36183  33.924   4.746  11.535
67966W        W36184   4.159  32.699   4.704
67967W        W36185  11.107   4.474  11.203
67968W        W36186  40.481  10.812  10.597
67969W        W36187   1.218  41.144  14.017
67970W        W36188  20.250  31.890   3.738
67971W        W36189   0.491  29.917  13.826
67972W        W36190   7.130  17.393  12.394
67973W        W36191  28.716  11.804   0.396
67974W        W36192   7.099  27.131   3.889
67975W        W36193  44.928  44.434   1.422
67976W        W36194  36.002  34.852   2.720
67977W        W36195  24.217  21.236   0.664
67978W        W36196  42.770   8.745   2.603
67979W        W36197  13.820  36.418  12.627
67980W        W36198  40.992  43.690  11.089
67981W        W36199  18.658  22.718   0.043
67982W        W36200  12.165  11.005   3.450
67983W        W36201   8.249  16.762   1.392
67984W        W36202  32.841  38.575   0.319
67985W        W36203   3.745   5.907  12.890
67986W        W36204  42.458   9.756   4.050
67987W        W36205  27.252  21.737   4.102
67988W        W36206   4.780  27.716   2.632
67989W        W36207  22.428  17.812   3.291
67990W        W36208  36.478  39.758  12.948
67991W        W36209  31.134  25.921  13.359
67992W        W36210  26.978  31.442   3.613
67993W        W36211  24.528  18.468  12.392
67994W        W36212  18.028  28.677  12.434
67995W        W36213  24.994  43.282  14.364
67996W        W36214   4.035   8.208   4.117
67997W        W36215  26.068   7.397   2.367
67998W        W36216  25.536  16.574   1.926
67999W        W36217   9.575  15.066   2.681
68000W        W36218  35.348  41.005   0.340
68001W        W36219  33.819  43.068   1.984
68002W        W36220  40.277  26.423   4.982
68003W        W36221  20.516  23.524  14.151
68004W        W36222  44.469  44.211  10.278
68005W        W36223  10.735   2.279  14.481
68006W        W36224   7.297  39.373   3.795
68007W        W36225   5.824  19.744   3.397
68008W        W36226  24.190  33.383   1.973
68009W        W36227  29.154  30.726   0.764
68010W        W36228  18.312  33.785  10.763
68011W        W36229   6.891   4.285   1.237
68012W        W36230  39.135   7.269   2.235
68013W        W36231  10.580  29.147  12.546
68014W        W36232  14.219  40.546  11.639
68015W        W36233  11.385   7.076  12.346
68016W        W36234  29.851   1.749   1.966
68017W        W36235   5.607  25.141   5.075
68018W        W36236  31.492  21.507   1.229
68019W        W36237  20.344  18.237   3.798
68020W        W36238  26.431  18.248   1.698
68021W        W36239   8.200   5.722  11.388
68022W        W36240   7.573  19.460   1.978
68023W        W36241  32.471  33.821   2.221
68024W        W36242  22.918  29.073   0.761
68025W        W36243  20.637   7.850  14.812
68026W        W36244  12.709  34.692   3.659
68027W        W36245   0.473  21.165   0.349
68028W        W36246  43.922  19.767  10.462
68029W        W36247  21.588   2.468  11.602
68030W        W36248   9.760   0.001   1.481
68031W        W36249   2.901   3.451  11.146
68032W        W36250  10.756  39.535   4.325
68033W        W36251  44.030  11.607  11.556
68034W        W36252  31.455  40.087  12.900
68035W        W36253  23.650  32.155  12.542
68036W        W36254  15.997  16.661   4.955
68037W        W36255  16.356   0.965  14.854
68038W        W36256  43.802  35.853  12.485
68039W        W36257  12.886  15.060  10.671
68040W        W36258  35.560  35.837   1.145
68041W        W36259   6.906  25.934   3.660
68042W        W36260  26.124   0.535  13.381
68043W        W36261  17.703  11.273  14.964
68044W        W36262   0.537   6.699   3.292
68045W        W36263   8.337  24.304   0.739
68046W        W36264   2.716  23.480   2.116
68047W        W36265  15.197  21.729  10.444
68048W        W36266  16.526  28.451  10.466
68049W        W36267  40.497  26.141   1.236
68050W        W36268  42.832   9.277  14.299
68051W        W36269  38.467  12.759  14.780
68052W        W36270  10.608   7.279   3.141
68053W        W36271  10.121  14.098   0.411
68054W        W36272  44.177  21.788  13.669
68055W        W36273  20.612  13.124  14.377
68056W        W36274  16.172  43.506   5.441
68057W        W36275  33.508   7.665  13.042
68058W        W36276  28.630  31.897   4.732
68059W        W36277  39.566   9.892  11.179
68060W        W36278  25.416   4.836   5.041
68061W        W36279  20.513  39.518  14.903
68062W        W36280  26.151  26.985  12.450
68063W        W36281  14.603  26.329  10.139
68064W        W36282  29.080  35.405   1.689
68065W        W36283   6.729  17.357   3.171
68066W        W36284  29.706  13.872  11.996
68067W        W36285   3.277   7.226   4.824
68068W        W36286   5.092  26.975   2.688
68069W        W36287  14.302  30.051   4.205
68070W        W36288  37.256   5.777   1.201
68071W        W36289  23.519  30.695  13.959
68072W        W36290   6.341   1.297  14.833
68073W        W36291   4.421   7.247  12.975
68074W        W36292   0.376  14.246  11.576
68075W        W36293   3.799  12.103   4.545
68076W        W36294  19.056  44.752   3.240
68077W        W36295  42.496  22.237   0.845
68078W        W36296  33.387  21.437   5.155
68079W        W36297   3.579  18.489   1.847
68080W        W36298  39.036  30.361   3.692
68081W        W36299  35.058   6.740   3.207
68082W        W36300  33.639  28.603   1.385
68083W        W36301  12.508  39.925   2.682
68084W        W36302  40.424  13.663   2.267
68085W        W36303  23.151  22.347  11.649
68086W        W36304  19.564  41.434  13.356
68087W        W36305  34.966  28.912   1.355
68088W        W36306   1.286  23.650  13.279
68089W        W36307  28.452  15.284   0.517
68090W        W36308  15.827  26.016   4.363
68091W        W36309  17.635  33.534   1.750
68092W        W36310   5.006  44.457  12.586
68093W        W36311  27.079  32.185   1.764
68094W        W36312  27.502  37.599  12.058
68095W        W36313  35.974  13.654   1.424
68096W        W36314  21.102  24.990  12.851
68097W        W36315  25.017  36.665   1.959
68098W        W36316   1.415  38.710  14.642
68099W        W36317  24.429  18.362  11.379
68100W        W36318  19.778  22.735  13.862
68101W        W36319   6.015  35.448   4.355
68102W        W36320  37.978   4.994  14.848
68103W        W36321   8.795  40.538   3.951
68104W        W36322   1.400  44.639  11.052
68105W        W36323   0.727  44.758  11.460
68106W        W36324  32.083  43.282   2.879
68107W        W36325  20.019  21.973   1.830
68108W        W36326   2.820  12.862   2.353
68109W        W36327  14.316  21.205  12.130
68110W        W36328  24.582  15.323  13.577
68111W        W36329   9.856  38.518   4.455
68112W        W36330  22.549  17.565   0.473
68113W        W36331  19.068  40.876   3.202
68114W        W36332  30.094  37.174   4.057
68115W        W36333  30.538   8.199   4.997
68116W        W36334  39.928  38.378   0.207
68117W        W36335  14.599  14.618   0.971
68118W        W36336  43.571   9.840   3.669
68119W        W36337  16.250  18.638   1.789
68120W        W36338  14.995  30.024   0.214
68121W        W36339   0.876  43.908  12.509
68122W        W36340   6.395  12.576  10.567
68123W        W36341   6.884   4.970  12.564
68124W        W36342  12.937  13.136  12.819
68125W        W36343  24.951  15.660  11.122
68126W        W36344  42.930   9.930   3.123
68127W        W36345  26.787   7.747  10.673
68128W        W36346   4.533  17.152  14.330
68129W        W36347  13.672  29.192   0.274
68130W        W36348  14.588  15.571   2.367
68131W        W36349  41.837  42.280  12.205
68132W        W36350  33.887   6.882   3.339
68133W        W36351   4.720   0.831  13.482
68134W        W36352  10.141  21.095   3.896
68135W        W36353  41.895  41.742   2.149
68136W        W36354  17.807  26.696   3.662
68137W        W36355  12.994  19.312   1.451
68138W        W36356  39.838   7.736   1.556
68139W        W36357  19.924  11.908   1.370
68140W        W36358   2.509  17.408   0.293
68141W        W36359  18.725   7.621  13.140
68142W        W36360  15.976   3.694  13.367
68143W        W36361  28.021  19.218   3.074
68144W        W36362  14.309  39.394   2.151
68145W        W36363  25.451  22.722  14.924
68146W        W36364   9.615  41.694   3.910
68147W        W36365  25.788  39.086  11.194
68148W        W36366   6.850  33.420  14.774
68149W        W36367  14.098   5.649   2.602
68150W        W36368  27.904  35.002   3.671
68151W        W36369  24.497  11.602   2.378
68152W        W36370  31.460  19.235   2.677
68153W        W36371   0.895   1.339   4.426
68154W        W36372  32.639  20.501   2.686
68155W        W36373  29.636  15.095  11.493
68156W        W36374  11.563  32.012   3.129
68157W        W36375   5.184  34.860   0.509
68158W        W36376  34.298  30.525  11.995
68159W        W36377  10.617   1.529   1.466
68160W        W36378  27.744  30.411  13.975
68161W        W36379  37.258  28.891   1.750
68162W        W36380  13.035   7.037  10.914
68163W        W36381  39.956  25.102   3.700
68164W        W36382   1.226  41.172   2.900
68165W        W36383  34.151  25.983  12.106
68166W        W36384  30.616  36.166  10.925
68167W        W36385  40.806   5.986  10.637
68168W        W36386  34.027  35.400   0.567
68169W        W36387  11.265  29.676   0.311
68170W        W36388  29.151  35.005   3.918
68171W        W36389  29.137  14.999  13.997
68172W        W36390  26.948  13.749   2.501
68173W        W36391   8.077  28.699  14.477
68174W        W36392  26.449  38.413  13.948
68175W        W36393  11.241  31.864   3.548
68176W        W36394  21.822  14.698  11.601
68177W        W36395  16.139  13.167  11.979
68178W        W36396  36.643  19.267  10.693
68179W        W36397  36.867   2.255   4.025
68180W        W36398  42.852  36.335   1.838
68181W        W36399  31.990   4.478  13.993
68182W        W36400  31.692  25.530   3.791
68183W        W36401  27.161   8.628   3.596
68184W        W36402  20.681  35.617  11.470
68185W        W36403  12.689  24.067  10.772
68186W        W36404  18.131  16.687  11.703
68187W        W36405  32.038  44.496  11.893
68188W        W36406  39.322  11.484   3.805
68189W        W36407  12.478  13.791   1.759
68190W        W36408  43.102   0.975   3.630
68191W        W36409   0.788  30.920   4.130
68192W        W36410  29.954  23.448  11.094
68193W        W36411   3.498  11.254  14.790
68194W        W36412  29.135  34.061   0.338
68195W        W36413   3.263  10.337  11.904
68196W        W36414   3.307  15.765  12.822
68197W        W36415  14.286   7.863   0.118
68198W        W36416  38.436   7.196   4.162
68199W        W36417   9.299   8.914   1.854
68200W        W36418   0.268  14.298  14.388
68201W        W36419  41.655  32.145   3.826
68202W        W36420  36.052  17.307  12.888
68203W        W36421  28.918  10.764   0.385
68204W        W36422  20.786  18.797  11.186
68205W        W36423  21.576  40.821  14.639
68206W        W36424  40.319  40.433  12.673
68207W        W36425  25.727  38.814  11.887
68208W        W36426  26.068  22.212   2.218
68209W        W36427  37.619   5.090   0.856
68210W        W36428  39.876  36.404   0.717
68211W        W36429  42.813   7.914  13.193
68212W        W36430  32.200  33.550  10.737
68213W        W36431  11.853  34.824   0.309
68214W        W36432  32.367  10.586   1.825
68215W        W36433  43.988  36.194  12.892
68216W        W36434   3.329   6.765  11.415
68217W        W36435  17.839   6.996  13.951
68218W        W36436  30.273   6.854  14.291
68219W        W36437   2.676   3.614  13.913
68220W        W36438  32.831  19.188  14.452
68221W        W36439  39.596  11.423  11.989
68222W        W36440  23.715   6.667   1.666
68223W        W36441  11.929  22.905   0.399
68224W        W36442  11.736   0.161   2.717
68225W        W36443   7.412  27.240  14.928
68226W        W36444  38.326  12.175  13.572
68227W        W36445  28.502  37.339  13.890
68228W        W36446  36.817  16.774   1.796
68229W        W36447  35.547   4.017  10.645
68230W        W36448  20.632  30.416   4.877
68231W        W36449  38.675  42.842  11.513
68232W        W36450  35.303  33.387  10.688
68233W        W36451   8.694   5.293   2.174
68234W        W36452  32.441   1.315  12.417
68235W        W36453  37.278  17.672   1.827
68236W        W36454  23.573  29.340  12.378
68237W        W36455  19.253  33.979  13.627
68238W        W36456  36.441  38.528  13.532
68239W        W36457  16.817  29.470  11.254
68240W        W36458  38.157  39.485  13.354
68241W        W36459  22.855  15.032  13.375
68242W        W36460  36.670  21.372  11.655
68243W        W36461  19.841  27.969   2.697
68244W        W36462  41.982  42.245   3.285
68245W        W36463  25.872  20.944   2.591
68246W        W36464  38.120  20.136   0.885
68247W        W36465  21.314  25.463  12.895
68248W        W36466   4.010  35.525  13.017
68249W        W36467   1.935   0.417   0.701
68250W        W36468  10.359  15.235   5.332
68251W        W36469   6.663  10.239   1.471
68252W        W36470  35.670  42.346  12.987
68253W        W36471  19.050  24.588   3.290
68254W        W36472   5.617  20.540  13.568
68255W        W36473  21.278   6.218   2.668
68256W        W36474  23.743  37.374  14.935
68257W        W36475  35.400  30.309  13.483
68258W        W36476   1.456  39.837  14.379
68259W        W36477  13.071  18.691  12.740
68260W        W36478  30.979  11.585   0.459
68261W        W36479   2.228   8.095   1.895
68262W        W36480  17.901  39.980  12.365
68263W        W36481  18.277   9.883  10.713
68264W        W36482  20.190  23.484  12.389
68265W        W36483  28.930   6.377  10.733
68266W        W36484   8.293  30.813   3.262
68267W        W36485  11.105  16.379   2.200
68268W        W36486  40.851  27.035   3.594
68269W        W36487  41.872  31.193  11.585
68270W        W36488  33.967  10.277   0.625
68271W        W36489  41.634  31.940   0.984
68272W        W36490  25.926  15.198   0.323
68273W        W36491  12.392  43.678   0.414
68274W        W36492  31.223   1.918   3.452
68275W        W36493  21.349   7.701   1.592
68276W        W36494  43.501  24.642   2.826
68277W        W36495  38.098  32.424   1.406
68278W        W36496  33.112  13.767   0.891
68279W        W36497  28.693   0.257   3.527
68280W        W36498  16.075  25.208  10.718
68281W        W36499   8.525  33.621  11.535
68282W        W36500  38.416  10.976  14.516
68283W        W36501  38.778  16.157  11.169
68284W        W36502  33.906  15.839  14.331
68285W        W36503   5.984  36.453  11.179
68286W        W36504   7.752  15.265   2.004
68287W        W36505  33.380  21.960   0.754
68288W        W36506   4.789  18.483   2.651
68289W        W36507  13.041  13.089   4.657
68290W        W36508  32.888  34.166   3.004
68291W        W36509  24.636  16.150  14.170
68292W        W36510  33.153  23.084  14.476
68293W        W36511  19.259   0.503  14.203
68294W        W36512  36.453  30.040  13.488
68295W        W36513  38.514  33.171  14.798
68296W        W36514  29.671  10.454   1.310
68297W        W36515   1.332  11.069   0.056
68298W        W36516  14.091   6.385  11.484
68299W        W36517  42.004   4.265  10.615
68300W        W36518  12.760  13.839  12.798
68301W        W36519  24.860  33.417   3.307
68302W        W36520  32.418  42.790   4.175
68303W        W36521  23.041  30.050  11.234
68304W        W36522  30.259  31.003   3.393
68305W        W36523  35.058  22.252   5.048
68306W        W36524  18.975  41.896   3.615
68307W        W36525  28.989  31.142  11.432
68308W        W36526  27.710  14.174   1.394
68309W        W36527  15.387   8.719   4.495
68310W        W36528   4.901  16.750  13.411
68311W        W36529  34.024  13.016   1.000
68312W        W36530   7.314   9.298  11.625
68313W        W36531  23.738  35.370  10.219
68314W        W36532  17.250  35.121   2.462
68315W        W36533  13.802   9.167   0.016
68316W        W36534   3.334  17.763  14.382
68317W        W36535  19.978   6.380  14.862
68318W        W36536  44.904  26.696   3.102
68319W        W36537  24.073   8.319  13.075
68320W        W36538  40.002   4.628  13.756
68321W        W36539  39.886   3.627   4.748
68322W        W36540  13.299   7.228  13.952
68323W        W36541   0.026  12.197  10.663
68324W        W36542  14.205   4.480   0.021
68325W        W36543  41.747  13.161  11.568
68326W        W36544  36.050  37.418  10.786
68327W        W36545  17.292   5.756   0.288
68328W        W36546  18.696  37.116   3.612
68329W        W36547   0.800  41.460  12.982
68330W        W36548   8.870  31.046  14.865
68331W        W36549   8.254  30.444  14.542
68332W        W36550  26.424  32.173  13.314
68333W        W36551  36.010  27.915   1.331
68334W        W36552   0.861  29.192  14.041
68335W        W36553  35.533  30.386   0.395
68336W        W36554   0.071   9.409   4.476
68337W        W36555  15.395   2.842   2.619
68338W        W36556   6.788  10.889  11.120
68339W        W36557  21.066   2.354  12.549
68340W        W36558  35.415  15.952   2.186
68341W        W36559   6.614   4.975   0.818
68342W        W36560  13.398  26.344   2.834
68343W        W36561  12.036  13.562  12.949
68344W        W36562   3.295  36.429  10.416
68345W        W36563  19.882  38.660   2.844
68346W        W36564  14.384  39.491  10.866
68347W        W36565  36.248   6.188  11.104
68348W        W36566  22.597  10.839  14.891
68349W        W36567   6.024  15.810   2.112
68350W        W36568  25.143  19.450   1.738
68351W        W36569  13.853  30.452   0.288
68352W        W36570  20.449  13.350   4.079
68353W        W36571   5.407  17.198   3.806
68354W        W36572  22.132  23.802  11.743
68355W        W36573   6.801  30.445  11.094
68356W        W36574  44.948  23.855   1.411
68357W        W36575  12.421  24.702  10.645
68358W        W36576  34.874  35.385  14.472
68359W        W36577   2.300   9.199   2.869
68360W        W36578  16.197  34.104   4.560
68361W        W36579  20.254  24.198   1.401
68362W        W36580  38.925  29.878   3.398
68363W        W36581  13.312   5.014  13.625
68364W        W36582  18.160  34.173   3.819
68365W        W36583  22.550  33.647   4.110
68366W        W36584  39.255   8.747  14.720
68367W        W36585  20.551  42.559   2.098
68368W        W36586   4.945  12.443  14.947
68369W        W36587  34.014  40.409   4.598
68370W        W36588  31.353  26.532   0.836
68371W        W36589   6.749  40.638   2.345
68372W        W36590  15.509  40.863   2.445
68373W        W36591  24.145   2.435  14.405
68374W        W36592  18.229  40.410  10.605
68375W        W36593  38.248  20.059   3.919
68376W        W36594  32.074  25.490  12.572
68377W        W36595  16.382  29.046  11.960
68378W        W36596  14.566  25.894   0.876
68379W        W36597   6.468  10.189  12.465
68380W        W36598   8.987  12.839  11.211
68381W        W36599  23.343   6.684  11.106
68382W        W36600  22.265  12.418  12.042
68383W        W36601  27.368  37.752  12.539
68384W        W36602  40.848   0.834  10.725
68385W        W36603  16.517  15.197  12.930
68386W        W36604  10.881  19.346   1.204
68387W        W36605  41.576  36.258  12.029
68388W        W36606  20.739   2.452   0.874
68389W        W36607   3.951  32.567  14.523
68390W        W36608  38.045  16.253   2.664
68391W        W36609  33.090   0.524   1.363
68392W        W36610  22.996   9.433  11.151
68393W        W36611  31.532   4.986  12.578
68394W        W36612  43.448  30.486  12.647
68395W        W36613  43.515  43.366  14.479
68396W        W36614  35.416  13.883   3.749
68397W        W36615  35.305   2.913  13.588
68398W        W36616  15.040  34.605  11.200
68399W        W36617  25.195  19.240  14.281
68400W        W36618  20.609  19.598   1.460
68401W        W36619   5.251  22.850  13.950
68402W        W36620  37.480  17.592   0.896
68403W        W36621  33.053  29.094   3.909
68404W        W36622  13.675  40.274   4.624
68405W        W36623  13.973  12.518   1.168
68406W        W36624   6.420  15.618   1.846
68407W        W36625  22.657  17.575   1.920
68408W        W36626   3.379  21.434   2.667
68409W        W36627  22.164   2.792  10.493
68410W        W36628  36.036  41.219  14.901
68411W        W36629  32.056  37.335  12.584
68412W        W36630  10.847  23.193   1.686
68413W        W36631   6.670   8.873   3.847
68414W        W36632  35.114  42.517  14.317
68415W        W36633  29.583  22.150  13.512
68416W        W36634  12.214  29.550  11.067
68417W        W36635   4.045  42.320   5.484
68418W        W36636  22.596  33.695   3.214
68419W        W36637  43.671  15.648   2.813
68420W        W36638  29.441  29.589  13.979
68421W        W36639  33.936  41.788   3.605
68422W        W36640  38.008  17.754   0.942
68423W        W36641  10.829  40.600   0.190
68424W        W36642  19.556  15.816   3.353
68425W        W36643  38.545  37.619   1.637
68426W        W36644  11.201  29.650   2.121
68427W        W36645  21.922  35.644   5.654
68428W        W36646  24.477  40.482   0.904
68429W        W36647   7.096   3.969  13.073
68430W        W36648  13.076  38.792   3.338
68431W        W36649  17.776   0.739   2.720
68432W        W36650  10.081  40.225  14.790
68433W        W36651  43.697  40.909  13.566
68434W        W36652   1.236   1.730   1.872
68435W        W36653  26.757   7.837  14.952
68436W        W36654   4.025  15.148   1.863
68437W        W36655  27.735  25.225  10.577
68438W        W36656  33.165  17.603   2.115
68439W        W36657  36.804  37.591   5.084
68440W        W36658  28.405  14.362  10.204
68441W        W36659  31.751  17.536   4.164
68442W        W36660  37.951   0.450   4.245
68443W        W36661  30.391  43.297   0.868
68444W        W36662   2.261  17.815  10.795
68445W        W36663  32.506  20.817  14.720
68446W        W36664  17.832  37.546   2.829
68447W        W36665   9.688  42.520   0.252
68448W        W36666  30.634   3.503  14.754
68449W        W36667   0.758   3.804   3.720
68450W        W36668  38.395   9.174   0.724
68451W        W36669  16.099  31.718   3.147
68452W        W36670  10.323  14.782  11.187
68453W        W36671  18.923  43.915   2.276
68454W        W36672  42.505  40.287  11.932
68455W        W36673   6.063  32.681  12.420
68456W        W36674  36.475  13.180   4.478
68457W        W36675  19.568   0.507  14.994
68458W        W36676  35.534  24.959   1.725
68459W        W36677   6.880  20.093  11.524
68460W        W36678  23.304  41.456  13.569
68461W        W36679  25.741   2.721  14.254
68462W        W36680  26.266  32.063   2.809
68463W        W36681  25.392  28.058   1.311
68464W        W36682   8.813   5.209   3.268
68465W        W36683  41.797  19.503   0.915
68466W        W36684  19.231  28.620   4.086
68467W        W36685   6.855  41.482  10.604
68468W        W36686  41.621  10.518   2.074
68469W        W36687  28.463  31.848   0.412
68470W        W36688  36.568   9.459   1.458
68471W        W36689   9.205  37.080   5.029
68472W        W36690  23.434  20.410   0.297
68473W        W36691  31.085   8.955  12.266
68474W        W36692  42.448  31.304   1.677
68475W        W36693   0.186   2.841  11.187
68476W        W36694  13.593  38.720   0.301
68477W        W36695  10.076  23.142   3.966
68478W        W36696  18.937   6.311  10.578
68479W        W36697  26.677   0.589  12.743
68480W        W36698   9.613   8.928   2.294
68481W        W36699  13.841  14.796  12.546
68482W        W36700  20.197  17.785   0.017
68483W        W36701  21.735   7.922  12.492
68484W        W36702  27.027  37.756  13.250
68485W        W36703  22.934  32.143   9.966
68486W        W36704  25.658  44.825   1.672
68487W        W36705   4.119  21.662  10.775
68488W        W36706  22.111  40.027   2.958
68489W        W36707  28.706  35.384  13.341
68490W        W36708  31.102  34.496  10.911
68491W        W36709  19.372  23.627  12.031
68492W        W36710  33.173  31.707  13.296
68493W        W36711  11.703  27.647  11.110
68494W        W36712  41.482  40.275   2.076
68495W        W36713  25.206  26.117  10.822
68496W        W36714  39.317  28.502  14.249
68497W        W36715  26.958  26.690  13.365
68498W        W36716   2.792  36.849   1.970
68499W        W36717  36.157  21.690  10.686
68500W        W36718  32.006  22.166  14.245
68501W        W36719  22.150   5.491  12.516
68502W        W36720  19.546   6.774  14.464
68503W        W36721   2.795  14.675   1.694
68504W        W36722  30.376   6.098   0.415
68505W        W36723   9.461  44.134   5.065
68506W        W36724   6.759  43.079  14.303
68507W        W36725  22.541   0.293   0.004
68508W        W36726   9.294  38.547  10.460
68509W        W36727  28.850  33.953  11.985
68510W        W36728  24.437  26.235  13.361
68511W        W36729  13.413  44.882  12.096
68512W        W36730  30.881   1.294  10.268
68513W        W36731  15.464  27.105  10.780
68514W        W36732  39.138  13.833   3.236
68515W        W36733  29.911  39.141   1.644
68516W        W36734  21.978  21.720   1.393
68517W        W36735  34.560  24.064  13.834
68518W        W36736  11.805   6.737  13.333
68519W        W36737  39.744  15.827   1.711
68520W        W36738  19.227   9.863  12.087
68521W        W36739  27.601  37.260  14.617
68522W        W36740  38.926  36.586   4.210
68523W        W36741  36.918  22.566  10.531
68524W        W36742  41.249   7.653  12.019
68525W        W36743  41.937  21.439  12.184
68526W        W36744  35.501  29.649   3.844
68527W        W36745  10.445  30.586   2.090
68528W        W36746  21.945  10.858   4.152
68529W        W36747   9.891  40.000  14.382
68530W        W36748  23.372   9.948  12.033
68531W        W36749  22.528  33.789  11.145
68532W        W36750  20.784  19.190   1.195
68533W        W36751  33.825   4.263   2.496
68534W        W36752  42.517  23.597   4.360
68535W        W36753  34.004  24.992  11.241
68536W        W36754  17.862   2.448   0.147
68537W        W36755  31.932   6.235   1.720
68538W        W36756  35.001   1.799  13.372
68539W        W36757  28.176  13.653   5.307
68540W        W36758  21.646  19.323   1.346
68541W        W36759  30.254  27.165  13.822
68542W        W36760   7.841  17.385  13.837
68543W        W36761   1.380  42.426   4.891
68544W        W36762  22.537  44.544   3.700
68545W        W36763  21.492  41.790  12.470
68546W        W36764  16.126  23.269   4.869
68547W        W36765  28.193  40.071  12.212
68548W        W36766  24.096  28.661   4.888
68549W        W36767   8.641   8.454   1.450
68550W        W36768  15.627  32.705   0.890
68551W        W36769  21.167  28.786   1.709
68552W        W36770  38.944  32.636  11.019
68553W        W36771  41.858   5.199   1.761
68554W        W36772  16.323  42.277   0.421
68555W        W36773   6.162  40.744  12.511
68556W        W36774  31.033  13.644  11.524
68557W        W36775  43.800  11.942  10.630
68558W        W36776  44.977  40.322   1.378
68559W        W36777   1.390  34.882  11.314
68560W        W36778  26.428  16.691  12.845
68561W        W36779  10.822  10.721   2.728
68562W        W36780  19.210  11.861   2.849
68563W        W36781  17.842  28.393  11.534
68564W        W36782  29.919   8.734   2.182
68565W        W36783  40.902  19.565   4.555
68566W        W36784  15.328  38.310  12.369
68567W        W36785  42.039  31.593  14.747
68568W        W36786  33.395  30.370  14.819
68569W        W36787  18.952  39.252   1.927
68570W        W36788  35.607  42.631   3.530
68571W        W36789   8.740   2.426  13.367
68572W        W36790  28.880  12.863  12.701
68573W        W36791  27.715  27.118  14.388
68574W        W36792  26.019  36.582  12.561
68575W        W36793  14.146  16.029   4.793
68576W        W36794   1.018   5.956  14.475
68577W        W36795  28.698   8.748   4.245
68578W        W36796  42.088   3.662   3.710
68579W        W36797  33.625   8.318  10.331
68580W        W36798  25.656   2.342   0.031
68581W        W36799   3.731  32.447   4.191
68582W        W36800  37.326  44.871   3.755
68583W        W36801  17.728  36.505  14.371
68584W        W36802  38.347   0.966  11.201
68585W        W36803  27.078  41.326  13.857
68586W        W36804  42.336  31.658  12.495
68587W        W36805  20.702  13.262  12.075
68588W        W36806   6.969  25.419   3.714
68589W        W36807   8.332  36.295   1.008
68590W        W36808  42.775  41.866   3.777
68591W        W36809   5.439  27.502  14.743
68592W        W36810  21.732  10.853  14.359
68593W        W36811   3.423  23.479  12.911
68594W        W36812   6.824  22.164   1.760
68595W        W36813  10.778  30.082  13.760
68596W        W36814   3.506  41.929  12.698
68597W        W36815  17.986  30.028   0.255
68598W        W36816  39.415  34.505   4.043
68599W        W36817  29.779  37.856  11.973
68600W        W36818   0.407   9.902  13.616
68601W        W36819  28.526  33.557  10.987
68602W        W36820   9.082  30.439   5.019
68603W        W36821   4.749  42.216   4.586
68604W        W36822  34.137  18.607   0.769
68605W        W36823  22.548  23.565   0.439
68606W        W36824  42.531  21.843  12.382
68607W        W36825   8.898   5.801   3.862
68608W        W36826  44.873  33.392  12.021
68609W        W36827  37.983  13.704   4.690
68610W        W36828  38.554   9.109  12.615
68611W        W36829   9.687  20.326  14.517
68612W        W36830   4.197  27.484   1.800
68613W        W36831  43.545  19.514   3.197
68614W        W36832   6.162  40.763   0.888
68615W        W36833   9.692  40.045  10.483
68616W        W36834  28.633  22.785   3.758
68617W        W36835  26.051  25.117   1.426
68618W        W36836   4.005  29.047  14.811
68619W        W36837  34.493   3.961  13.482
68620W        W36838  32.126  32.570   1.187
68621W        W36839   3.037   9.639   3.416
68622W        W36840   7.256  36.376   0.486
68623W        W36841  37.774  33.181  10.447
68624W        W36842  26.076  24.798   4.949
68625W        W36843  41.018  13.554   1.983
68626W        W36844  29.725  11.150   3.616
68627W        W36845  14.685  16.062  14.410
68628W        W36846  15.346  32.061   1.926
68629W        W36847  22.077  27.575  14.709
68630W        W36848  16.769   3.426  12.515
68631W        W36849  20.277  20.559   4.454
68632W        W36850  23.109   2.949   4.524
68633W        W36851  12.148  27.172  13.528
68634W        W36852  31.445  41.753   1.773
68635W        W36853  14.660  39.244  13.878
68636W        W36854  23.073  41.503  12.596
68637W        W36855  37.392  14.316  11.630
68638W        W36856  39.891  22.414  13.256
68639W        W36857  42.247  26.002  11.153
68640W        W36858  21.301  38.041  12.966
68641W        W36859   7.743  25.471  11.003
68642W        W36860  29.992  11.649  11.024
68643W        W36861  27.000  21.310  10.695
68644W        W36862  34.441  12.808   3.052
68645W        W36863  12.345  10.308   0.787
68646W        W36864  21.094  18.205   4.602
68647W        W36865  23.117  40.946   0.996
68648W        W36866   5.563  13.553   0.340
68649W        W36867  14.333  18.075  10.658
68650W        W36868  13.996  17.862   0.212
68651W        W36869   2.292   0.894   2.775
68652W        W36870  16.305  18.099   0.384
68653W        W36871  22.521  14.388   4.236
68654W        W36872  26.139  16.674  11.955
68655W        W36873  41.355  33.101  13.290
68656W        W36874  20.827  26.845   5.042
68657W        W36875   6.397  37.585   1.341
68658W        W36876  22.797  10.839   3.641
68659W        W36877  27.477  37.510   1.009
68660W        W36878  22.622   5.996  11.181
68661W        W36879  10.771  22.884   3.389
68662W        W36880  37.430   2.379   0.086
68663W        W36881  13.986  38.384  13.852
68664W        W36882   3.983  19.930   1.765
68665W        W36883  20.047  27.459   1.883
68666W        W36884   4.436  42.388  12.575
68667W        W36885  25.634  15.799  12.397
68668W        W36886  42.058  35.078  10.450
68669W        W36887  14.885   1.907   2.893
68670W        W36888  16.363  20.651  11.442
68671W        W36889  29.023  43.234   0.199
68672W        W36890  22.886  10.763   1.802
68673W        W36891  22.978  31.516   1.813
68674W        W36892  16.111  30.569  14.007
68675W        W36893  34.064  37.990   0.467
68676W        W36894  32.083  33.655   4.111
68677W        W36895  32.101  13.867  14.531
68678W        W36896  32.779   3.820  14.842
68679W        W36897  26.100  43.133  14.291
68680W        W36898  16.106  29.969   3.936
68681W        W36899   6.824  24.270  11.346
68682W        W36900   1.953  19.633   3.761
68683W        W36901  42.417   9.771   0.876
68684W        W36902  23.221  32.402   2.690
68685W        W36903  10.255  28.107  14.305
68686W        W36904  42.871  20.594   9.721
68687W        W36905  43.407   8.143  14.843
68688W        W36906  18.814  36.182   0.822
68689W        W36907  30.846  43.859   1.684
68690W        W36908  39.973  42.895   1.925
68691W        W36909  33.859  10.962  10.461
68692W        W36910  13.694  30.759   4.131
68693W        W36911   1.545  12.732   3.500
68694W        W36912  42.862  26.660   2.765
68695W        W36913  29.580  38.589  11.099
68696W        W36914  26.671  39.855   0.398
68697W        W36915  37.485  30.356   2.839
68698W        W36916  29.983   7.448  14.790
68699W        W36917  13.291  10.135  11.520
68700W        W36918  13.337  17.002  14.269
68701W        W36919  37.853  38.073   2.688
68702W        W36920  24.091  43.281   2.774
68703W        W36921  16.455  37.320   4.573
68704W        W36922  42.389  21.712   3.113
68705W        W36923  39.005  24.589  14.091
68706W        W36924  20.252   1.760   3.127
68707W        W36925   9.986  28.531   2.833
68708W        W36926  20.963   1.409   4.769
68709W        W36927  20.139  37.085   4.543
68710W        W36928  39.444  25.705   2.663
68711W        W36929   3.025  16.610   3.834
68712W        W36930  34.673  22.600   3.052
68713W        W36931  25.454   4.115   0.922
68714W        W36932  39.466  15.386  12.930
68715W        W36933  13.772  41.830  12.104
68716W        W36934  26.457  34.915  12.022
68717W        W36935  40.546  24.496  12.485
68718W        W36936  31.857   5.898  12.599
68719W        W36937  17.388  28.130  11.572
68720W        W36938  19.486  17.980  14.786
68721W        W36939  28.037   5.420   1.340
68722W        W36940   4.120  40.954  12.602
68723W        W36941  23.492  36.806   2.721
68724W        W36942   6.411  22.661  13.581
68725W        W36943  23.637  44.454  14.966
68726W        W36944  31.460  24.576   0.379
68727W        W36945   2.825  40.276   1.720
68728W        W36946  33.313  28.905   0.716
68729W        W36947   4.310  29.024  11.612
68730W        W36948  24.026   9.624  13.357
68731W        W36949  43.262  38.481  13.957
68732W        W36950   7.673  42.974  11.594
68733W        W36951  44.154  24.149  12.531
68734W        W36952  42.800  24.197   0.507
68735W        W36953  40.713  17.149   4.173
68736W        W36954  10.723  14.826   3.595
68737W        W36955   1.502  27.522   0.677
68738W        W36956  40.843  26.150   4.723
68739W        W36957  31.444  43.866   0.353
68740W        W36958   8.426   8.243   3.252
68741W        W36959  20.145  22.349   2.686
68742W        W36960  11.897  37.976  13.827
68743W        W36961  28.326   6.470  13.307
68744W        W36962  10.344  30.931   2.841
68745W        W36963  39.330  39.233  14.488
68746W        W36964  41.976  15.905  12.895
68747W        W36965   5.494  37.474   0.857
68748W        W36966   3.832  28.115   0.213
68749W        W36967  43.726  22.029  11.133
68750W        W36968  17.031  17.015   1.864
68751W        W36969  37.842  26.790   3.205
68752W        W36970   4.938   6.716  14.389
68753W        W36971  43.694  17.209   2.307
68754W        W36972  38.062   6.809  11.580
68755W        W36973   7.433   0.841   1.518
68756W        W36974  29.710  18.745  12.494
68757W        W36975  17.533   8.814   3.569
68758W        W36976  25.433  27.494   0.678
68759W        W36977  19.658   4.027   0.831
68760W        W36978  19.548  36.967   0.418
68761W        W36979   4.832  21.475   1.253
68762W        W36980  26.299  13.299   2.119
68763W        W36981  38.291  38.330   4.262
68764W        W36982  23.462   8.288  14.997
68765W        W36983   8.854  16.351  11.938
68766W        W36984   2.449  31.453   1.256
68767W        W36985  23.672  26.649  13.363
68768W        W36986   2.855  16.106   4.683
68769W        W36987   5.373  12.525  13.753
68770W        W36988  35.603   9.103   2.408
68771W        W36989  17.083  29.505   1.675
68772W        W36990  29.598  12.309  12.075
68773W        W36991  31.373  42.485   2.805
68774W        W36992  23.235  27.506   4.967
68775W        W36993   0.981  39.917   4.257
68776W        W36994  33.381  43.716  10.628
68777W        W36995  33.809  29.095   4.593
68778W        W36996  25.688  44.580  14.393
68779W        W36997  15.178  28.671  12.981
68780W        W36998  40.570  34.885  10.766
68781W        W36999  32.206  31.116  12.930
68782W        W37000  27.172  30.994   2.268
68783W        W37001  19.310  25.645  14.951
68784W        W37002  12.960  26.248  11.366
68785W        W37003  32.420   4.277   3.576
68786W        W37004   0.771  26.180  12.416
68787W        W37005  21.299   4.751  13.247
68788W        W37006  19.700  12.677  10.929
68789W        W37007  36.965  22.365   2.571
68790W        W37008  43.252  16.819   0.677
68791W        W37009  20.282  15.953   0.837
68792W        W37010  18.681  18.979   5.223
68793W        W37011  11.096  25.338   2.477
68794W        W37012  16.293  43.031  10.797
68795W        W37013  21.820   5.372  11.998
68796W        W37014  33.483  35.651  11.914
68797W        W37015  18.089  31.910   0.933
68798W        W37016  10.277  18.278   2.607
68799W        W37017   4.925  11.561   4.121
68800W        W37018  39.135  20.123  11.047
68801W        W37019  28.536  16.334   0.290
68802W        W37020   6.566  38.956   5.301
68803W        W37021  24.451   2.849   0.440
68804W        W37022  41.657  37.567  13.865
68805W        W37023  24.355  32.305   4.298
68806W        W37024   5.657  35.511   4.729
68807W        W37025  16.480   4.394   2.263
68808W        W37026  28.556  34.088   1.795
68809W        W37027  26.107  39.002  10.431
68810W        W37028  20.592  33.874  14.324
68811W        W37029  42.962  25.015   1.491
68812W        W37030  28.498  39.238   0.238
68813W        W37031  12.243  11.231   1.384
68814W        W37032   3.941  26.327   2.161
68815W        W37033   1.980  14.288   2.748
68816W        W37034   7.462  15.727   2.738
68817W        W37035  34.425  24.412   2.452
68818W        W37036  17.175  42.179  12.442
68819W        W37037   6.807  11.111   0.250
68820W        W37038   5.427   2.967  14.794
68821W        W37039   3.277  32.703  12.531
68822W        W37040  28.706  14.533  11.944
68823W        W37041  32.888  16.173  10.601
68824W        W37042  41.588  36.538   4.559
68825W        W37043  17.651   5.921  13.145
68826W        W37044   8.472  18.599   1.029
68827W        W37045   5.108   1.140  12.019
68828W        W37046  41.571  14.492  12.566
68829W        W37047  35.345  28.952   4.082
68830W        W37048   2.504   9.308  11.639
68831W        W37049  33.439  25.298  13.325
68832W        W37050  29.606  23.856  11.158
68833W        W37051  35.726   0.177   5.067
68834W        W37052  11.857  28.032  14.904
68835W        W37053   4.954   9.803  13.284
68836W        W37054   6.764   3.430  10.661
68837W        W37055  14.854   1.370   1.772
68838W        W37056  19.225  37.987  14.535
68839W        W37057  20.449  18.769  11.609
68840W        W37058  38.348  29.907  14.079
68841W        W37059  38.152  15.350   4.576
68842W        W37060  27.676  12.999   0.827
68843W        W37061   6.374   6.188  14.920
68844W        W37062  32.970  30.705   0.724
68845W        W37063   9.098  43.453   2.705
68846W        W37064  19.173   8.997  13.005
68847W        W37065  22.537  19.767   1.369
68848W        W37066  26.186  19.703   3.723
68849W        W37067  36.650  22.174  14.772
68850W        W37068  28.121   4.026  14.461
68851W        W37069   2.391   5.819  13.389
68852W        W37070   6.710  43.405  12.147
68853W        W37071  18.299   4.738  11.156
68854W        W37072  13.267  23.178   1.249
68855W        W37073  16.880  41.129   1.278
68856W        W37074  16.279  19.809  14.837
68857W        W37075   1.711  44.953  11.317
68858W        W37076  19.901  26.221  11.873
68859W        W37077  22.515  13.857  11.990
68860W        W37078  18.231  39.504   0.313
68861W        W37079   8.829  28.245  12.629
68862W        W37080   2.882   9.793   4.733
68863W        W37081  20.147   1.867  14.046
68864W        W37082  43.764  37.061  13.983
68865W        W37083  10.171   6.659   3.136
68866W        W37084  13.626  31.682   0.084
68867W        W37085  19.089  31.887  13.669
68868W        W37086  42.296   3.133  12.655
68869W        W37087  44.284  41.742  13.430
68870W        W37088  41.355  18.788   4.771
68871W        W37089  20.608  30.081   3.452
68872W        W37090  28.544  10.039  11.478
68873W        W37091  29.580  12.435  13.538
68874W        W37092   6.131  42.742   2.198
68875W        W37093  26.505  29.800   4.478
68876W        W37094   9.903  29.435  13.586
68877W        W37095  15.382   1.330   3.227
68878W        W37096  10.787  28.558  10.683
68879W        W37097   9.408   0.228  11.612
68880W        W37098  31.400   0.859  10.713
68881W        W37099  27.193  11.939   1.426
68882W        W37100  26.732  44.694   4.982
68883W        W37101   7.284  22.984   1.706
68884W        W37102  26.211  27.750   1.243
68885W        W37103   2.303  14.070  14.037
68886W        W37104  15.783   7.284  12.294
68887W        W37105   5.193  24.663   1.293
68888W        W37106  15.686   6.909  13.054
68889W        W37107  24.309   7.898  11.925
68890W        W37108  20.245  14.231   3.181
68891W        W37109   0.741  36.350   3.682
68892W        W37110  43.337  15.620   4.107
68893W        W37111  12.804  16.239   1.826
68894W        W37112  33.444   2.376  10.693
68895W        W37113  26.806  20.236  11.781
68896W        W37114  40.565  38.103   3.258
68897W        W37115   2.250   5.768   3.384
68898W        W37116  24.439  27.185   2.177
68899W        W37117  11.595  25.197   0.944
68900W        W37118  16.698  36.646  11.658
68901W        W37119   0.913  43.743   1.622
68902W        W37120   4.657  23.917   5.121
68903W        W37121  11.185   6.699  11.876
68904W        W37122  37.352  14.712  13.326
68905W        W37123  20.067   2.065  14.977
68906W        W37124  10.781  25.487  13.879
68907W        W37125  18.166  11.604   3.762
68908W        W37126  16.331  36.081   4.250
68909W        W37127  32.581  36.009  11.703
68910W        W37128  11.394  19.528  12.970
68911W        W37129  44.202  41.065  14.743
68912W        W37130   5.686  28.127  13.093
68913W        W37131  15.325   9.578   4.854
68914W        W37132   2.279   9.170   4.387
68915W        W37133  38.952  24.535   2.348
68916W        W37134   9.026   3.532   4.985
68917W        W37135  26.733  28.545  14.779
68918W        W37136  15.616  23.778  10.319
68919W        W37137  32.106  18.490   4.640
68920W        W37138   6.426   0.276  13.479
68921W        W37139  30.419   2.161   9.793
68922W        W37140  35.770  24.719  11.665
68923W        W37141  37.373  20.763  14.367
68924W        W37142   6.069  39.856   3.854
68925W        W37143  30.171   9.255  13.421
68926W        W37144  44.101  18.870   3.224
68927W        W37145  19.562  14.947   3.669
68928W        W37146  31.520  24.239   1.347
68929W        W37147  27.979  17.519   2.396
68930W        W37148  43.408  42.937  12.174
68931W        W37149  11.581   2.393   2.785
68932W        W37150  16.661  44.263   0.801
68933W        W37151  26.996  39.553   3.889
68934W        W37152  35.955  35.573   1.414
68935W        W37153  17.205  38.517   3.955
68936W        W37154   5.471  26.501   3.825
68937W        W37155  40.827  26.632  10.715
68938W        W37156  26.522  33.485   3.318
68939W        W37157  38.575  42.238   0.952
68940W        W37158  42.351  31.017  13.892
68941W        W37159  31.972  20.994  11.160
68942W        W37160   7.705  24.986  12.123
68943W        W37161  10.046  13.706   3.934
68944W        W37162  33.248  28.742   3.573
68945W        W37163  39.056  41.878   3.685
68946W        W37164  20.665   8.280  12.568
68947W        W37165  30.697   3.991  12.393
68948W        W37166  21.032  22.804   2.894
68949W        W37167  41.029  30.314  11.606
68950W        W37168  35.175  19.392   0.439
68951W        W37169  31.586  37.082   2.282
68952W        W37170   8.659  41.431  14.478
68953W        W37171  24.340  13.371  10.693
68954W        W37172  16.842  27.117  11.243
68955W        W37173  18.073  13.897   2.174
68956W        W37174  17.363  11.070   1.283
68957W        W37175  15.763  31.370   4.522
68958W        W37176  18.088  25.527   2.403
68959W        W37177  35.657  15.974  12.931
68960W        W37178   5.695  41.826  11.277
68961W        W37179   2.433   1.380  10.658
68962W        W37180  21.331  19.315   3.628
68963W        W37181  39.916  14.266   3.865
68964W        W37182  20.323  30.059  13.356
68965W        W37183   9.296  39.827   1.341
68966W        W37184   6.257  35.653  14.231
68967W        W37185  29.631   9.324   2.857
68968W        W37186  11.893  20.019   0.827
68969W        W37187  32.625  29.094   2.877
68970W        W37188   4.815  42.459   5.054
68971W        W37189  28.183   7.256   0.264
68972W        W37190  40.908  30.902  12.919
68973W        W37191   5.943  43.562  13.299
68974W        W37192  30.520  32.449  11.137
68975W        W37193  25.035  33.464  14.047
68976W        W37194  37.829   8.112   1.712
68977W        W37195   1.046   0.098   0.043
68978W        W37196   3.795   2.397  11.025
68979W        W37197  13.241  13.133  13.838
68980W        W37198  34.590  25.070   3.825
68981W        W37199  11.217   0.008   4.118
68982W        W37200  25.545  30.435   2.425
68983W        W37201  30.697  20.096  12.601
68984W        W37202   3.037  33.585   0.987
68985W        W37203  33.684  30.373   4.267
68986W        W37204  34.354  11.594   1.240
68987W        W37205  41.314  15.095  11.687
68988W        W37206   5.701  25.257   3.226
68989W        W37207  30.066  19.531  13.999
68990W        W37208   9.354  19.494  12.108
68991W        W37209   9.337  31.356   3.833
68992W        W37210  39.305   3.972  14.416
68993W        W37211  14.751  13.791  11.889
68994W        W37212   4.023  23.650  13.909
68995W        W37213  17.687  43.792   1.364
68996W        W37214  18.017  22.635  14.741
68997W        W37215  30.896  32.568  12.935
68998W        W37216  18.305   9.094  14.789
68999W        W37217  36.825  30.491   1.128
69000W        W37218  39.965  21.010   3.670
69001W        W37219   5.368  27.170  14.340
69002W        W37220  33.551  35.452  14.860
69003W        W37221  33.793   4.225   1.993
69004W        W37222  31.888  30.535  10.744
69005W        W37223  41.826  12.359   0.776
69006W        W37224   9.432  32.913   4.468
69007W        W37225   5.192  29.443  13.804
69008W        W37226  42.800  16.198  12.398
69009W        W37227  34.520  22.028   4.235
69010W        W37228   3.870  30.057  14.803
69011W        W37229   0.921   1.957   9.870
69012W        W37230  10.395  12.722  11.910
69013W        W37231   8.900  41.869  11.488
69014W        W37232  10.319  15.599  14.403
69015W        W37233  19.518  41.067  12.877
69016W        W37234  41.297  15.258   1.927
69017W        W37235   9.906  34.480   0.262
69018W        W37236   9.215   1.344   2.259
69019W        W37237   4.733   1.885   1.741
69020W        W37238   4.221  22.599   0.645
69021W        W37239  22.693  17.158   4.579
69022W        W37240  12.115  18.016   4.548
69023W        W37241   8.214  25.116   4.065
69024W        W37242   8.484   4.271  13.398
69025W        W37243   6.121  40.572  11.008
69026W        W37244  42.234  34.638  12.963
69027W        W37245  12.780  42.495  14.242
69028W        W37246  11.674  19.582  10.692
69029W        W37247  20.051  16.245  11.552
69030W        W37248  39.278  32.423  14.012
69031W        W37249  25.116  24.172  14.517
69032W        W37250   5.374  11.632  11.045
69033W        W37251  35.424  37.003   1.831
69034W        W37252   4.657  24.683   1.801
69035W        W37253  17.010  36.979   1.761
69036W        W37254   0.505  19.051   2.546
69037W        W37255  34.802  18.537  12.122
69038W        W37256  18.653   5.933  10.739
69039W        W37257   6.916  15.825  14.377
69040W        W37258  39.527  25.664   2.140
69041W        W37259  17.675  41.319  12.610
69042W        W37260  26.145  25.157   1.931
69043W        W37261  24.094  44.623  14.818
69044W        W37262   3.324  11.760  10.649
69045W        W37263  26.721  33.802  14.988
69046W        W37264  17.722  37.461  10.032
69047W        W37265  41.869  30.076   4.132
69048W        W37266  36.858  30.448  12.017
69049W        W37267  31.076  12.230   4.959
69050W        W37268  15.830  43.527  12.505
69051W        W37269   4.444   4.831  13.215
69052W        W37270  30.662  12.246   0.388
69053W        W37271  44.900  25.688  13.802
69054W        W37272  11.202  16.438   4.006
69055W        W37273  10.724  34.108  14.509
69056W        W37274  42.113  18.150   4.818
69057W        W37275  23.598  22.690   4.859
69058W        W37276  13.841  41.756   0.582
69059W        W37277  27.936  18.826   1.239
69060W        W37278  13.215  43.878   4.415
69061W        W37279  29.417  16.639  14.296
69062W        W37280  38.611  18.163   4.627
69063W        W37281  16.536  14.212   1.246
69064W        W37282   1.989  41.571  14.698
69065W        W37283   9.856  20.637  12.940
69066W        W37284  28.674  20.078   2.784
69067W        W37285  16.574  10.740  14.340
69068W        W37286  11.839  34.063  12.433
69069W        W37287  22.220  39.755   4.409
69070W        W37288  19.330  22.417  14.629
69071W        W37289  24.699  19.365   1.040
69072W        W37290  40.843  14.385   3.768
69073W        W37291  43.075  27.903   4.250
69074W        W37292  44.080   2.231  14.351
69075W        W37293  21.564   3.961   3.632
69076W        W37294  12.602  29.701  13.818
69077W        W37295  20.186  35.147  14.936
69078W        W37296  20.601  36.765   2.809
69079W        W37297  26.591  11.357   3.071
69080W        W37298  24.503  11.780  12.871
69081W        W37299  32.061  13.117  12.041
69082W        W37300  34.408  37.600  10.688
69083W        W37301  30.526  32.443  10.619
69084W        W37302  19.557   5.637  10.455
69085W        W37303   3.964  10.615  11.837
69086W        W37304   0.791  30.427  13.551
69087W        W37305  39.576   2.419  11.978
69088W        W37306  43.392   0.859  13.306
69089W        W37307   7.874  27.965   1.829
69090W        W37308   4.144   3.696   1.833
69091W        W37309  24.417  37.928   2.912
69092W        W37310  14.714  11.169   0.319
69093W        W37311  27.567  27.068  14.897
69094W        W37312  23.219  19.028  13.423
69095W        W37313   5.939  22.465   1.345
69096W        W37314  11.122  27.196   0.731
69097W        W37315  28.364  36.444   4.457
69098W        W37316   6.734   9.678  10.652
69099W        W37317   5.189   6.149   3.356
69100W        W37318  24.584  37.241   0.142
69101W        W37319  18.028   2.226  12.705
69102W        W37320   1.558   5.757   1.688
69103W        W37321  18.723  28.543   0.316
69104W        W37322   9.572  39.399  10.597
69105W        W37323  41.617   2.504   5.019
69106W        W37324  37.701  36.962   4.866
69107W        W37325  25.323   5.790  14.454
69108W        W37326  13.913  30.442  11.173
69109W        W37327  34.133   3.969   1.715
69110W        W37328  16.320  25.670   0.738
69111W        W37329   4.271  25.596  13.887
69112W        W37330  26.018   9.127  12.238
69113W        W37331  20.584  19.911  14.543
69114W        W37332  16.859  25.514   2.910
69115W        W37333  26.276  44.961   0.497
69116W        W37334  26.111  10.159   3.325
69117W        W37335   2.971   1.846  11.162
69118W        W37336  13.492  38.442   1.498
69119W        W37337  18.099  33.473   2.172
69120W        W37338  24.744  14.200   4.521
69121W        W37339  19.721  22.016   2.795
69122W        W37340  31.550   4.369  10.840
69123W        W37341  43.165  26.084  14.014
69124W        W37342  23.546   5.226  11.758
69125W        W37343  23.646  15.695   0.449
69126W        W37344  42.866  13.010   5.236
69127W        W37345  43.433  14.885  13.985
69128W        W37346  39.614  33.643  11.603
69129W        W37347   6.399   5.839   1.673
69130W        W37348  34.057  33.016   1.262
69131W        W37349  33.528  28.961   2.802
69132W        W37350  13.156  20.934   0.889
69133W        W37351  31.410  24.504   2.438
69134W        W37352  11.220   9.778  11.179
69135W        W37353  29.498  14.571   5.074
69136W        W37354  38.953  23.703   3.324
69137W        W37355  10.105  23.271   2.337
69138W        W37356  18.630  30.119   4.721
69139W        W37357  21.338  33.631   4.746
69140W        W37358   4.585  28.688   0.830
69141W        W37359   3.843  43.494   4.665
69142W        W37360   9.678  26.451   1.805
69143W        W37361  40.120  44.790  12.407
69144W        W37362  17.233  15.670   1.962
69145W        W37363  21.167  27.923  12.479
69146W        W37364  36.138  37.457   3.057
69147W        W37365  19.506  31.474  14.992
69148W        W37366  18.926  23.461   4.517
69149W        W37367  30.185   8.916   0.685
69150W        W37368  31.992   9.222   3.074
69151W        W37369  10.610  20.507  12.091
69152W        W37370  38.444   2.478  14.372
69153W        W37371  15.885  44.959   0.441
69154W        W37372  22.992  39.521  11.451
69155W        W37373  30.412  33.888  12.060
69156W        W37374  25.457  22.786  10.868
69157W        W37375   8.227  17.046   4.480
69158W        W37376  42.433  33.821  13.928
69159W        W37377  30.737  31.443  11.037
69160W        W37378  26.495  30.393  13.361
69161W        W37379  44.082  40.268   3.742
69162W        W37380   6.359   4.529  11.557
69163W        W37381  20.932  42.526  12.110
69164W        W37382  19.247  23.109   0.809
69165W        W37383   9.944  18.177   3.045
69166W        W37384  41.371  24.155   2.864
69167W        W37385  34.810   7.167  14.260
69168W        W37386   3.235  11.532   1.883
69169W        W37387  18.531  41.030   1.726
69170W        W37388   6.825  21.343   5.035
69171W        W37389   9.086  27.631   2.863
69172W        W37390   0.865  33.499   4.511
69173W        W37391  21.658  41.241  10.738
69174W        W37392  28.878  20.182  14.298
69175W        W37393  29.688  22.983  11.009
69176W        W37394  44.847   8.932   3.722
69177W        W37395  12.422   2.166  11.201
69178W        W37396   8.328  28.737  10.716
69179W        W37397  33.696   4.743   3.334
69180W        W37398  11.375  36.383   4.618
69181W        W37399   0.822  38.530   2.819
69182W        W37400  12.303   5.255   4.591
69183W        W37401  23.791   2.971  13.129
69184W        W37402  41.020   9.355   4.129
69185W        W37403  32.087  28.781  11.047
69186W        W37404   4.418  25.690  14.803
69187W        W37405   9.816  33.088   2.278
69188W        W37406  26.738  34.299   0.850
69189W        W37407  10.731  24.948  10.568
69190W        W37408   6.690  21.962   1.308
69191W        W37409  10.038  34.392   2.076
69192W        W37410  37.580  18.622  11.605
69193W        W37411  30.166  35.331  12.406
69194W        W37412  15.703  32.869  14.700
69195W        W37413   6.200  32.986  14.075
69196W        W37414  34.423  21.521   4.199
69197W        W37415  21.297   1.000   4.631
69198W        W37416  35.490  31.384  11.222
69199W        W37417  43.833   1.961   1.534
69200W        W37418  13.904  13.405  13.051
69201W        W37419  14.009   1.478   2.756
69202W        W37420  23.999  36.031   4.083
69203W        W37421  36.840  39.589  14.901
69204W        W37422   8.649  28.164  13.494
69205W        W37423  16.769  21.052   4.584
69206W        W37424   5.807  17.642  11.088
69207W        W37425  12.193  30.495   2.813
69208W        W37426  12.832  24.073  14.450
69209W        W37427   9.187  37.390   3.408
69210W        W37428  22.105  40.871  13.453
69211W        W37429  40.761  10.340   3.722
69212W        W37430   5.319  17.084   5.033
69213W        W37431  12.695   8.642  13.372
69214W        W37432  40.714  41.563  10.872
69215W        W37433  34.089  38.359   1.770
69216W        W37434  22.267  25.908  14.521
69217W        W37435   4.962   0.493   1.821
69218W        W37436   6.006  13.510   1.481
69219W        W37437  17.190  40.605  10.468
69220W        W37438  28.616  26.032  13.834
69221W        W37439  19.820  22.685   4.131
69222W        W37440   9.006  20.346   5.541
69223W        W37441  33.340   9.164  13.459
69224W        W37442  39.961  30.409   4.686
69225W        W37443  37.362  38.594   3.779
69226W        W37444  30.517  36.373   1.492
69227W        W37445  20.776  44.487  14.870
69228W        W37446  10.862   5.801  11.661
69229W        W37447  44.714  34.493   2.367
69230W        W37448  41.540   2.968   4.280
69231W        W37449  29.198  41.993  11.431
69232W        W37450  35.896   2.854   2.330
69233W        W37451  33.546  40.896   3.658
69234W        W37452   9.390   3.614  13.359
69235W        W37453   7.285  32.576   4.612
69236W        W37454  31.895  12.595   2.227
69237W        W37455  10.389  11.208   2.054
69238W        W37456  23.004   8.707  10.832
69239W        W37457  13.695  11.898   0.456
69240W        W37458   2.635  22.364   0.715
69241W        W37459  31.028  30.425   3.254
69242W        W37460  36.538  21.122   2.148
69243W        W37461  12.584  30.971  13.332
69244W        W37462  11.985  40.447  11.787
69245W        W37463  37.456  24.192   4.566
69246W        W37464  15.898  28.858   3.049
69247W        W37465  35.555  41.949  10.544
69248W        W37466  10.708  10.327  10.638
69249W        W37467  39.373   5.189  14.006
69250W        W37468  12.451   0.936   3.647
69251W        W37469  11.866  28.189   4.432
69252W        W37470   3.377  12.898   2.325
69253W        W37471  29.234   3.008   1.435
69254W        W37472   8.203  22.796   1.368
69255W        W37473  41.313  21.705   4.147
69256W        W37474  41.564  44.651   1.263
69257W        W37475  38.591  11.765  14.987
69258W        W37476  37.279  36.643   2.936
69259W        W37477   0.067  26.101   3.896
69260W        W37478  43.374  29.598  14.862
69261W        W37479   8.295   1.758   4.767
69262W        W37480  15.783  32.935   3.885
69263W        W37481   0.770  16.637   2.916
69264W        W37482  23.554  43.697  12.560
69265W        W37483   8.278   1.530  13.471
69266W        W37484  41.282  40.180   4.632
69267W        W37485  16.755  11.237  13.491
69268W        W37486  22.628  36.629  13.546
69269W        W37487   7.402   2.730  14.751
69270W        W37488   5.375  37.044   2.099
69271W        W37489  16.098   9.107  11.265
69272W        W37490  29.536  22.709   3.087
69273W        W37491  26.338   6.514   3.915
69274W        W37492   8.217  13.885   0.169
69275W        W37493  16.308  17.654   2.351
69276W        W37494  34.862  34.055   0.827
69277W        W37495  14.827  17.794  10.089
69278W        W37496  32.477  25.437  14.742
69279W        W37497  10.346  21.474  13.465
69280W        W37498  10.715  11.195  10.632
69281W        W37499  38.235  21.726   4.100
69282W        W37500  21.630  22.256  13.474
69283W        W37501  25.400  43.903  11.069
69284W        W37502   3.801  38.407   1.108
69285W        W37503  37.410  40.732   1.359
69286W        W37504  21.343   3.683  13.435
69287W        W37505   6.346  32.371  14.936
69288W        W37506  41.503  38.949  14.917
69289W        W37507  37.130  30.012   1.867
69290W        W37508  18.708  36.022  14.768
69291W        W37509  18.130  30.667  10.607
69292W        W37510  27.515  37.988   1.767
69293W        W37511  33.917  33.017  14.767
69294W        W37512  20.691  39.495   2.679
69295W        W37513  41.603   6.044  10.560
69296W        W37514   3.877  24.660   2.335
69297W        W37515  41.935  31.169  13.013
69298W        W37516  18.344  36.358   2.723
69299W        W37517  14.847  21.947  12.367
69300W        W37518  42.559  19.818  11.591
69301W        W37519  33.832  43.453  10.803
69302W        W37520   3.354  10.801   0.710
69303W        W37521  41.313  15.278  13.031
69304W        W37522  19.065  21.534   3.639
69305W        W37523   5.920   3.388   1.255
69306W        W37524  22.760  18.847  10.046
69307W        W37525  36.562  10.204  12.899
69308W        W37526  22.547   2.563  10.755
69309W        W37527  19.239  30.852   3.794
69310W        W37528  11.219   8.752  11.659
69311W        W37529   2.032  30.068  10.740
69312W        W37530  37.005  30.114   0.784
69313W        W37531  20.105  36.621   3.764
69314W        W37532   2.756  30.231   3.431
69315W        W37533  31.338  13.209  11.460
69316W        W37534  36.983  31.662  12.612
69317W        W37535   8.916  26.433   3.106
69318W        W37536  21.143  33.343  10.328
69319W        W37537  35.894  33.343   2.613
69320W        W37538  30.452  33.592  11.560
69321W        W37539  22.571  26.615  11.998
69322W        W37540  40.319  33.147   4.139
69323W        W37541  26.038   8.557   1.678
69324W        W37542  40.596  32.904  12.429
69325W        W37543  15.246  42.059   4.877
69326W        W37544  20.062  38.581  13.326
69327W        W37545  37.473  26.761  10.596
69328W        W37546  35.520   2.816  12.179
69329W        W37547   9.251  12.330   3.116
69330W        W37548  33.584  31.772  13.619
69331W        W37549  13.341  29.080   4.516
69332W        W37550  31.927  14.721   3.763
69333W        W37551  25.659  28.897   0.583
69334W        W37552  41.550  23.354   4.618
69335W        W37553   9.324   5.486   2.195
69336W        W37554  19.546   7.896  11.189
69337W        W37555  31.893  34.075   0.848
69338W        W37556   0.266  35.066  13.329
69339W        W37557  23.279  38.008  12.428
69340W        W37558   4.333  34.067   2.961
69341W        W37559   8.149   0.232  12.344
69342W        W37560   3.442  35.396  14.990
69343W        W37561   2.363   4.829  14.954
69344W        W37562  18.801  15.315   0.875
69345W        W37563  23.098  10.382  12.869
69346W        W37564  33.408  37.177  11.930
69347W        W37565  36.148  26.593   0.496
69348W        W37566  40.898  33.364  14.035
69349W        W37567  41.435  40.912   4.289
69350W        W37568   9.112  36.039  13.363
69351W        W37569   4.813  28.479   1.256
69352W        W37570  25.457  15.641  11.148
69353W        W37571  16.745  12.222  11.491
69354W        W37572  15.294  40.984   3.420
69355W        W37573  12.538   5.070  10.753
69356W        W37574  24.065   3.991  13.486
69357W        W37575  18.766  31.050   3.857
69358W        W37576   3.318  36.362   0.967
69359W        W37577   6.236  41.622   1.180
69360W        W37578  39.044  12.175   2.319
69361W        W37579  14.720   0.139  10.353
69362W        W37580  27.146   8.235   1.767
69363W        W37581  12.980   1.917   3.106
69364W        W37582   7.377  22.095  11.967
69365W        W37583   1.354  38.181   4.021
69366W        W37584  20.278  22.590  12.586
69367W        W37585  10.107  41.469  13.782
69368W        W37586   3.827  38.882  10.230
69369W        W37587  20.327  12.510   5.001
69370W        W37588  36.639  25.246   2.384
69371W        W37589  29.644  14.175  12.833
69372W        W37590  10.334  27.719   0.267
69373W        W37591   3.110   8.256   4.093
69374W        W37592  30.419  18.246   4.087
69375W        W37593  27.163   7.210   0.421
69376W        W37594   8.333  27.219   1.791
69377W        W37595  36.837  19.590   4.588
69378W        W37596  10.562  23.935  11.466
69379W        W37597   9.788  10.225   3.662
69380W        W37598  27.924  10.254   4.600
69381W        W37599  38.076  40.095  12.100
69382W        W37600  29.686   5.794   4.559
69383W        W37601  10.385  28.336  11.607
69384W        W37602  26.007  26.766  12.898
69385W        W37603   7.718   2.325  13.444
69386W        W37604  10.075   1.360  10.750
69387W        W37605  18.060  44.126   1.807
69388W        W37606  27.683  41.012  10.747
69389W        W37607  24.643  41.394  11.245
69390W        W37608  15.754   7.775   2.786
69391W        W37609  31.195   2.054   5.240
69392W        W37610   0.723  21.043  14.902
69393W        W37611  19.922  38.151  14.085
69394W        W37612  39.511  41.029  12.667
69395W        W37613  11.833  24.694  12.371
69396W        W37614  44.613  32.214  14.914
69397W        W37615   2.334   3.462   2.785
69398W        W37616  28.391   8.626  10.669
69399W        W37617   8.606  10.652   2.661
69400W        W37618  31.905  29.570   2.703
69401W        W37619  36.135  43.974   0.045
69402W        W37620  18.383  16.875  12.115
69403W        W37621   2.241  38.440   2.114
69404W        W37622  20.287   4.317   0.613
69405W        W37623   2.493  41.524  13.842
69406W        W37624   0.398   3.521  14.883
69407W        W37625   4.285  31.598  12.599
69408W        W37626   6.975   4.225  11.118
69409W        W37627  11.091  22.517  11.107
69410W        W37628  12.067   2.639   4.222
69411W        W37629  26.107   0.072  12.067
69412W        W37630  38.600  28.621   0.823
69413W        W37631   4.355  11.610   3.887
69414W        W37632  35.445  22.109  14.096
69415W        W37633  12.526   8.633   3.139
69416W        W37634  29.448  41.512   0.035
69417W        W37635  30.046  43.814  13.430
69418W        W37636  17.215   1.479   4.628
69419W        W37637  15.194  38.805   1.278
69420W        W37638  11.886  33.517  12.513
69421W        W37639  36.852   9.145   1.168
69422W        W37640  39.393   4.145  10.715
69423W        W37641  41.883  36.354  12.467
69424W        W37642   1.223  34.991  10.405
69425W        W37643  21.133  21.079  10.193
69426W        W37644   1.924  18.800   3.915
69427W        W37645  39.015  41.790   1.272
69428W        W37646  36.633  16.960   3.338
69429W        W37647   6.076  28.188   4.523
69430W        W37648  38.534  41.549  12.487
69431W        W37649  33.634   5.346   4.597
69432W        W37650   0.485   1.550   0.883
69433W        W37651  41.319  27.481   0.929
69434W        W37652  43.853  10.173   2.339
69435W        W37653  32.826  27.654  11.178
69436W        W37654  23.164  11.271   1.439
69437W        W37655  10.656  24.978  13.859
69438W        W37656   0.539  41.866  10.887
69439W        W37657  44.386  43.746  12.915
69440W        W37658  22.877  38.985  13.297
69441W        W37659  25.072   0.844  11.639
69442W        W37660   8.894  35.864   2.684
69443W        W37661  25.509   3.861   2.166
69444W        W37662  39.695  19.169   4.034
69445W        W37663  16.557   1.546   5.266
69446W        W37664  23.991   3.656   3.746
69447W        W37665  11.183  25.998  14.955
69448W        W37666   4.728  41.728  14.945
69449W        W37667  23.136  29.433  12.991
69450W        W37668  30.436  37.760   0.417
69451W        W37669  10.845  43.304   1.424
69452W        W37670  16.874  20.125  11.359
69453W        W37671   9.711  15.012   1.288
69454W        W37672  17.731  39.050   1.387
69455W        W37673  27.028  23.048  12.929
69456W        W37674  28.703  42.070  11.382
69457W        W37675   5.046   1.355  14.336
69458W        W37676  18.343  37.603  13.047
69459W        W37677  37.758  14.754  13.653
69460W        W37678  17.567  25.104   0.033
69461W        W37679  30.859  25.937  11.255
69462W        W37680  39.865  22.692   0.119
69463W        W37681   1.382  18.787   2.063
69464W        W37682  17.307  33.247   2.697
69465W        W37683   4.448  21.204  13.775
69466W        W37684  12.142  38.811   4.155
69467W        W37685   6.729   7.257  13.357
69468W        W37686  27.012  26.084   0.462
69469W        W37687  35.828  23.656   1.836
69470W        W37688   1.251  26.621   2.737
69471W        W37689  12.148  33.574  14.828
69472W        W37690  24.106  16.197   0.835
69473W        W37691  19.109   8.492  13.175
69474W        W37692  43.302  21.084  14.291
69475W        W37693   2.801  22.927  13.889
69476W        W37694   6.780  21.067   4.019
69477W        W37695   6.713   9.673   3.321
69478W        W37696  21.618   8.912   2.680
69479W        W37697  26.047  38.785  10.894
69480W        W37698   4.874  32.843  12.884
69481W        W37699  37.234   9.620   1.876
69482W        W37700   4.682  11.396  13.995
69483W        W37701  36.454   0.869   0.955
69484W        W37702   0.061  24.730   0.976
69485W        W37703  35.505  41.730  12.535
69486W        W37704  12.562   2.138   4.999
69487W        W37705  38.396   3.371  13.811
69488W        W37706  44.500  23.222  14.574
69489W        W37707  42.104  37.927   4.080
69490W        W37708  15.519   4.737  11.578
69491W        W37709  29.598  11.905  13.567
69492W        W37710  41.255  16.571   3.076
69493W        W37711  43.498  12.963  10.667
69494W        W37712  26.803   1.536  13.067
69495W        W37713  27.011  23.407   3.171
69496W        W37714  32.555  27.172   0.229
69497W        W37715  14.730   2.838  14.724
69498W        W37716  23.564   3.315   1.768
69499W        W37717   6.954  18.300   0.279
69500W        W37718  24.611  42.149   2.334
69501W        W37719  10.797  37.508  11.864
69502W        W37720  30.449  37.578  11.248
69503W        W37721  19.778  37.446   0.436
69504W        W37722  30.687   8.705  12.560
69505W        W37723   6.324  34.601   1.218
69506W        W37724  39.953   4.208   0.415
69507W        W37725  42.564   7.366  12.028
69508W        W37726  14.864  14.914   0.023
69509W        W37727  35.151  26.687   0.293
69510W        W37728   4.507   0.236  13.070
69511W        W37729   2.372   3.637   1.397
69512W        W37730  35.189  21.302   4.594
69513W        W37731   5.250  44.046   2.731
69514W        W37732  11.375  34.905  11.255
69515W        W37733  33.740   4.885  14.814
69516W        W37734  16.691   7.669  12.925
69517W        W37735  36.549  43.239  11.546
69518W        W37736  29.721  41.470  14.592
69519W        W37737  35.663  18.245   2.764
69520W        W37738  34.828   4.396   4.184
69521W        W37739  13.928  23.812   4.198
69522W        W37740  32.003  34.011   2.641
69523W        W37741  40.827  20.998   0.962
69524W        W37742  42.474   5.172  10.570
69525W        W37743  40.361  39.421   4.135
69526W        W37744  31.439  32.453  13.602
69527W        W37745  26.114  12.274  11.867
69528W        W37746  29.031  21.445   1.290
69529W        W37747   6.834  41.856  11.813
69530W        W37748   8.236  44.496  14.895
69531W        W37749  12.222   8.577  13.626
69532W        W37750  30.200  29.466  11.878
69533W        W37751  12.281   0.917   0.818
69534W        W37752   2.317  32.638  11.749
69535W        W37753  18.141  35.138  11.322
69536W        W37754  39.766  37.553  11.078
69537W        W37755   6.687  35.334  14.924
69538W        W37756  20.438  32.165  12.452
69539W        W37757  29.053  43.969   3.651
69540W        W37758   9.418  26.654   1.372
69541W        W37759  31.217   3.386   3.664
69542W        W37760  11.325  40.579  10.587
69543W        W37761  13.633  40.993   3.316
69544W        W37762   2.060  37.014   4.645
69545W        W37763  37.399  14.809   2.622
69546W        W37764  41.816   5.900  12.112
69547W        W37765  37.605  38.838   1.770
69548W        W37766   0.950   9.827  14.412
69549W        W37767  16.711  26.600   0.886
69550W        W37768  25.757  40.513   1.883
69551W        W37769  32.687  20.052  12.466
69552W        W37770  17.465  42.574  11.205
69553W        W37771  21.561  27.980   3.893
69554W        W37772  14.301  39.072  14.246
69555W        W37773  29.503  35.073   1.771
69556W        W37774  27.129   4.380  14.970
69557W        W37775  35.631  44.891   0.053
69558W        W37776  11.865  44.409   4.680
69559W        W37777  15.278   7.225  10.734
69560W        W37778  32.364  14.262  14.254
69561W        W37779  44.524   4.244   0.482
69562W        W37780   7.595   4.297  13.315
69563W        W37781  28.712  40.454   3.199
69564W        W37782  29.689  17.514  13.006
69565W        W37783  10.445  18.732  12.134
69566W        W37784  21.569  12.333  11.388
69567W        W37785  32.786  17.076  10.801
69568W        W37786  19.590  22.865   1.801
69569W        W37787  31.820  36.581  12.621
69570W        W37788   3.797  23.950  13.062
69571W        W37789  12.983  21.238   3.675
69572W        W37790  20.470  22.947  11.323
69573W        W37791  39.844  42.294  14.408
69574W        W37792  24.594  23.574   3.067
69575W        W37793   7.735  38.970  10.189
69576W        W37794   4.734  20.634   4.602
69577W        W37795  36.989  42.229  11.060
69578W        W37796   2.182   5.858  12.904
69579W        W37797  13.365  30.432   2.785
69580W        W37798   7.101  41.842   3.414
69581W        W37799  39.947  25.033  12.168
69582W        W37800  23.232  42.279   3.103
69583W        W37801  27.481  37.374  13.641
69584W        W37802  37.679   1.942  14.358
69585W        W37803  42.487  24.732  10.646
69586W        W37804  27.416  39.339   3.671
69587W        W37805  12.468   6.729  10.810
69588W        W37806  14.831  32.599  13.334
69589W        W37807  43.200  31.356   3.016
69590W        W37808   6.682  13.666  10.681
69591W        W37809  12.130   3.689  13.939
69592W        W37810   0.576  37.679  14.323
69593W        W37811  26.196  30.571   1.282
69594W        W37812  14.344   1.439   1.810
69595W        W37813  27.881  32.151  13.014
69596W        W37814  12.239  17.446   3.277
69597W        W37815  27.575  35.852   2.326
69598W        W37816  42.795  17.579  11.096
69599W        W37817  13.076   0.173  12.548
69600W        W37818   7.528  44.490   4.616
69601W        W37819   3.691  39.724   1.792
69602W        W37820  25.042  23.514   0.515
69603W        W37821  14.830  24.185   2.737
69604W        W37822  18.290  14.817   0.550
69605W        W37823  34.462  17.739   3.562
69606W        W37824  13.706  16.859  13.487
69607W        W37825  21.312  36.432   0.603
69608W        W37826  43.953   3.980  11.541
69609W        W37827   5.914  20.406  14.511
69610W        W37828  11.339  18.480   1.281
69611W        W37829  22.554   7.496  14.887
69612W        W37830  23.102  26.644   4.435
69613W        W37831   0.512  13.596  12.467
69614W        W37832  44.528  25.993  11.701
69615W        W37833  32.877  35.320  13.841
69616W        W37834  19.767  30.172  13.177
69617W        W37835  37.436  37.385  13.405
69618W        W37836  16.355  32.011  14.924
69619W        W37837  35.115   5.280  10.438
69620W        W37838   1.487  31.166  12.149
69621W        W37839  43.469   5.926  11.639
69622W        W37840  16.616  15.367   4.161
69623W        W37841  16.793  17.198   4.581
69624W        W37842  37.155   6.680  11.894
69625W        W37843   8.953  29.853  11.748
69626W        W37844  28.004  12.863   2.736
69627W        W37845  42.986  32.939  14.209
69628W        W37846  14.095   1.974   0.339
69629W        W37847  16.011  33.479   3.862
69630W        W37848  22.807  42.377  14.513
69631W        W37849  30.765   7.740   5.020
69632W        W37850  38.977   7.938  12.508
69633W        W37851  23.580  20.168   4.516
69634W        W37852  28.504  40.235   0.017
69635W        W37853  34.564  37.884   0.408
69636W        W37854  21.754  35.316   3.646
69637W        W37855  32.532  31.625   4.292
69638W        W37856  28.118  34.662   4.042
69639W        W37857   4.903   4.785   0.711
69640W        W37858  16.739  41.916  13.370
69641W        W37859  43.295  44.095   2.763
69642W        W37860   5.391  34.074  11.928
69643W        W37861  16.012  15.000   4.709
69644W        W37862   4.183  32.078   1.320
69645W        W37863   8.393  41.328   2.798
69646W        W37864  18.846  34.486  14.432
69647W        W37865  27.752  26.251  12.877
69648W        W37866  31.127  42.876   3.437
69649W        W37867  11.955   2.620  14.743
69650W        W37868  12.408  44.255   9.707
69651W        W37869  12.741  20.795  12.520
69652W        W37870  32.194  32.116   2.175
69653W        W37871  37.127   8.366   3.772
69654W        W37872  29.927  19.176   4.402
69655W        W37873  13.610  42.723  14.470
69656W        W37874   4.706  27.339  11.729
69657W        W37875  12.136  17.096   2.859
69658W        W37876   2.525  14.045   4.105
69659W        W37877  32.128   2.294  12.866
69660W        W37878  14.197  15.654   1.510
69661W        W37879  21.582  41.701   3.510
69662W        W37880  22.331  32.947  12.994
69663W        W37881  25.236  15.204   0.673
69664W        W37882   0.211  40.344   4.152
69665W        W37883  26.155  10.212  14.918
69666W        W37884  33.131   0.874  13.170
69667W        W37885   1.897  19.236  11.886
69668W        W37886  35.531  16.674  12.270
69669W        W37887  11.088   8.599   5.305
69670W        W37888  15.808   1.008   2.299
69671W        W37889  15.706   0.814  14.508
69672W        W37890  23.389  44.411  12.132
69673W        W37891  28.413  21.469  12.058
69674W        W37892  39.987   5.245   1.370
69675W        W37893  30.466  11.801   1.099
69676W        W37894  11.596  11.609   3.585
69677W        W37895   0.582  39.975   2.803
69678W        W37896  44.509  42.888  14.077
69679W        W37897  20.227   5.647   3.172
69680W        W37898   0.681   7.288  10.696
69681W        W37899  12.247  36.305   4.904
69682W        W37900  11.910   5.432   3.296
69683W        W37901  25.640   6.469  13.101
69684W        W37902  42.921   6.703  14.757
69685W        W37903  20.325  18.543   4.875
69686W        W37904  12.099  40.285   2.600
69687W        W37905  37.098  21.986   1.179
69688W        W37906   7.790  22.052  13.082
69689W        W37907  38.042  29.410  13.928
69690W        W37908   0.914  33.528   1.511
69691W        W37909  30.451  12.791   0.733
69692W        W37910   9.120  40.583   1.049
69693W        W37911  24.945   5.107  11.665
69694W        W37912  13.107  42.463   4.670
69695W        W37913  44.786   0.177   1.800
69696W        W37914  36.116  25.157   3.191
69697W        W37915  40.763  20.759   1.429
69698W        W37916  35.822  23.215  12.313
69699W        W37917  35.479  27.146   0.283
69700W        W37918  34.571   6.720  13.965
69701W        W37919   9.261   7.839   4.842
69702W        W37920  21.171  38.621  14.294
69703W        W37921   0.314  25.535   4.638
69704W        W37922   5.346   0.054  14.965
69705W        W37923  25.248  18.271  13.922
69706W        W37924  23.028  32.157  12.046
69707W        W37925  34.698  22.068   2.953
69708W        W37926  42.357  41.432   2.146
69709W        W37927   9.482  19.224   4.744
69710W        W37928  15.423  15.930   2.818
69711W        W37929  10.791  41.763  10.754
69712W        W37930  37.617  26.114  11.152
69713W        W37931  26.169  41.077  14.263
69714W        W37932   9.802   1.831  14.334
69715W        W37933  29.229   7.261  12.888
69716W        W37934  32.355   4.084  13.137
69717W        W37935  14.147  42.779   2.645
69718W        W37936  44.682   2.773  11.117
69719W        W37937  37.922  39.585   2.733
69720W        W37938   2.242   9.410  11.201
69721W        W37939  24.541  21.136   2.014
69722W        W37940  38.821   5.358   4.609
69723W        W37941   3.231  12.865  14.017
69724W        W37942   2.338  29.018  12.834
69725W        W37943  27.016  23.649  13.928
69726W        W37944  40.501  12.333   4.140
69727W        W37945  37.310  14.374   0.481
69728W        W37946   8.370  33.315  13.077
69729W        W37947  31.011  37.882   4.829
69730W        W37948   7.871  30.163   3.610
69731W        W37949  35.432   4.167  12.099
69732W        W37950  21.227  39.883   0.705
69733W        W37951  10.325  11.567   4.195
69734W        W37952  16.505  10.277  14.568
69735W        W37953  37.793   2.014   0.266
69736W        W37954  23.268  28.234   0.294
69737W        W37955  37.242  19.971  11.833
69738W        W37956  24.033  24.807   3.355
69739W        W37957   1.714  22.163   3.585
69740W        W37958  32.833  38.061   2.515
69741W        W37959  28.264  42.815  13.114
69742W        W37960   6.445  15.226  13.593
69743W        W37961  10.379  13.269   5.274
69744W        W37962  38.812  30.634   0.676
69745W        W37963   7.757   6.222  10.695
69746W        W37964  33.789   5.286   2.655
69747W        W37965  33.718  12.707  11.660
69748W        W37966  33.327  11.820   1.754
69749W        W37967  17.067  41.456  11.734
69750W        W37968   1.170  19.729   1.323
69751W        W37969   2.296  29.166   0.698
69752W        W37970  17.068  18.975   0.826
69753W        W37971  32.342  44.581   1.183
69754W        W37972  17.283  14.041  13.481
69755W        W37973   4.280  12.326   1.774
69756W        W37974   0.256  18.179  11.525
69757W        W37975  14.285  21.168  12.689
69758W        W37976   3.324  19.216  11.426
69759W        W37977  34.554   8.184   0.380
69760W        W37978  26.239  26.773   1.421
69761W        W37979  34.637  35.912  12.954
69762W        W37980  19.722  44.316  11.243
69763W        W37981   7.232   6.759   1.815
69764W        W37982  20.157  44.336  10.015
69765W        W37983  30.852  44.812  12.431
69766W        W37984  22.615  20.247  13.866
69767W        W37985  12.141  21.507   2.163
69768W        W37986   1.251   3.579   3.798
69769W        W37987  39.092  44.404  14.942
69770W        W37988   8.855  24.584  10.861
69771W        W37989  14.294  41.128   2.766
69772W        W37990  14.077  24.732   4.937
69773W        W37991  16.002  31.144   3.796
69774W        W37992   6.899  13.370  11.496
69775W        W37993  43.946  20.607  13.432
69776W        W37994  37.986  19.667   2.310
69777W        W37995  21.283  40.769   2.318
69778W        W37996   3.730  36.285   1.867
69779W        W37997  15.237  40.268  12.607
69780W        W37998  31.533  44.048  13.464
69781W        W37999  10.104   4.293   1.786
69782W        W38000   5.979  20.729   4.264
69783W        W38001  44.661  26.031  10.464
69784W        W38002   8.292  11.616   3.747
69785W        W38003  34.439  33.858   4.565
69786W        W38004  41.074  36.986   2.858
69787W        W38005  41.577  15.242   1.173
69788W        W38006  17.840  11.802   4.717
69789W        W38007  33.603  12.737  13.177
69790W        W38008  25.524  33.036  14.881
69791W        W38009  31.572  20.750  11.457
69792W        W38010  19.060  11.560   1.399
69793W        W38011  13.643   9.763   4.672
69794W        W38012  13.529  29.460  10.483
69795W        W38013  14.256   0.363   0.404
69796W        W38014  13.876  16.498  11.003
69797W        W38015  36.346  26.112  14.887
69798W        W38016  32.941  37.568  12.606
69799W        W38017  15.323  10.655   1.675
69800W        W38018   9.213   0.257   1.245
69801W        W38019  20.019  35.493  13.550
69802W        W38020  21.095  14.607  11.979
69803W        W38021  23.573   6.373   4.613
69804W        W38022  44.383   5.395   1.176
69805W        W38023  32.499   5.282   0.918
69806W        W38024  22.283  33.609   4.679
69807W        W38025  30.413   1.193  12.462
69808W        W38026   9.385   5.023  12.987
69809W        W38027  38.538   8.392  11.951
69810W        W38028  10.873  27.064  14.999
69811W        W38029  26.205   2.390   3.320
69812W        W38030  25.274  31.465   3.284
69813W        W38031  37.952  29.407  11.420
69814W        W38032   7.869  16.340   0.786
69815W        W38033  25.500  32.864   0.375
69816W        W38034  30.682  28.394  14.659
69817W        W38035   5.505  36.053   2.724
69818W        W38036  12.180   0.002   0.754
69819W        W38037   8.112  29.803   3.344
69820W        W38038  27.520  35.730   4.453
69821W        W38039  19.049  39.454  13.389
69822W        W38040  33.912  29.965   1.732
69823W        W38041  40.761  21.157   0.454
69824W        W38042  36.984  15.228   2.279
69825W        W38043  26.640  38.738  14.436
69826W        W38044  35.323  44.415   4.262
69827W        W38045   9.466  18.482  13.339
69828W        W38046  12.655  37.680  10.382
69829W        W38047  24.039   7.226  14.827
69830W        W38048  28.832   2.187  11.434
69831W        W38049  25.324  14.093   0.799
69832W        W38050  20.086  26.940   1.347
69833W        W38051   2.612   0.279   0.270
69834W        W38052  18.453  19.826   3.572
69835W        W38053   2.094  33.359   3.550
69836W        W38054   4.807  33.087   0.309
69837W        W38055  10.551  16.299   0.835
69838W        W38056   6.851  22.477  11.379
69839W        W38057  43.770   4.125  11.082
69840W        W38058  38.268  21.095  11.202
69841W        W38059  41.555  34.929   3.805
69842W        W38060   5.186   6.159   1.272
69843W        W38061  18.637  33.932  14.352
69844W        W38062  12.299  41.593  12.647
69845W        W38063  10.322  43.068  10.597
69846W        W38064   0.717  34.265  13.737
69847W        W38065  36.500  26.656   4.497
69848W        W38066   1.775  17.537   2.285
69849W        W38067  27.132  16.729  11.957
69850W        W38068   4.700   9.256  11.910
69851W        W38069   1.382  42.000  13.523
69852W        W38070   7.435  39.999  14.154
69853W        W38071  37.493  24.235  14.156
69854W        W38072   1.047  12.167  12.514
69855W        W38073  29.601  32.622  11.260
69856W        W38074  42.221  43.401   2.619
69857W        W38075  23.841  22.869  11.598
69858W        W38076  37.908  14.709   3.932
69859W        W38077  42.652   5.691   0.468
69860W        W38078   6.450  43.846  14.989
69861W        W38079  13.391   3.368   2.251
69862W        W38080   0.762  22.304  11.935
69863W        W38081  13.950  10.204   4.649
69864W        W38082  14.763  14.322  12.785
69865W        W38083  36.360   5.414   3.628
69866W        W38084  36.644  19.773   0.887
69867W        W38085  11.688  35.588  13.908
69868W        W38086   2.526  10.634   0.285
69869W        W38087  34.153  30.953   0.705
69870W        W38088   7.190  24.550   1.740
69871W        W38089  15.919  15.079  13.853
69872W        W38090  27.654   3.209   3.677
69873W        W38091   5.518  19.556   3.786
69874W        W38092  19.994  33.907   0.034
69875W        W38093  18.885  33.445   3.800
69876W        W38094  30.867  24.587  14.213
69877W        W38095   0.193  25.563  12.342
69878W        W38096  28.910  16.653   0.793
69879W        W38097  16.582  33.407   1.812
69880W        W38098   0.729  36.743   4.009
69881W        W38099  15.870   2.981   0.654
69882W        W38100   6.244  16.575  14.661
69883W        W38101   6.322  15.085   1.856
69884W        W38102   2.107  22.452  10.630
69885W        W38103  30.616  24.657  14.840
69886W        W38104  23.198  21.695   0.325
69887W        W38105  12.351  22.041   3.211
69888W        W38106  25.430  42.861  12.070
69889W        W38107  38.774   7.209  14.532
69890W        W38108  19.165  10.992  11.497
69891W        W38109   0.377  26.412  11.363
69892W        W38110  22.721  14.349   0.581
69893W        W38111   8.582  28.861   1.797
69894W        W38112  22.990  10.003   4.148
69895W        W38113  32.597   4.798   4.094
69896W        W38114  22.800   9.139  14.389
69897W        W38115   6.464  36.053   2.680
69898W        W38116  25.234   1.256   3.552
69899W        W38117   0.219   4.876   0.388
69900W        W38118  16.638  37.012   3.634
69901W        W38119  21.959  39.727  10.679
69902W        W38120  14.350  40.404  12.828
69903W        W38121  30.666  24.211  14.526
69904W        W38122  41.328   8.115   4.380
69905W        W38123  31.268  13.748  12.037
69906W        W38124  11.815   0.946   1.219
69907W        W38125   4.976  38.988   4.164
69908W        W38126  35.409   5.244   2.811
69909W        W38127   0.415   6.924   4.178
69910W        W38128  14.853  40.632   0.087
69911W        W38129  43.463  25.908   0.495
69912W        W38130  20.526  20.772   4.037
69913W        W38131  35.509  13.265   0.779
69914W        W38132  34.867  39.935  12.224
69915W        W38133   1.258  12.621   3.095
69916W        W38134   2.032   7.340  12.426
69917W        W38135   5.743  17.763  14.349
69918W        W38136  36.534   0.988  10.824
69919W        W38137  42.601  40.104  12.413
69920W        W38138  41.209  17.292   4.146
69921W        W38139  33.418  31.262   4.132
69922W        W38140  44.134  16.133  14.818
69923W        W38141  17.302  43.142  12.099
69924W        W38142   8.601   6.608  14.362
69925W        W38143  17.549   3.207   1.212
69926W        W38144  21.256   0.369  13.909
69927W        W38145  34.632   4.447  12.515
69928W        W38146   6.366  13.890  13.981
69929W        W38147   3.173  26.832  12.023
69930W        W38148  36.510  28.274   4.834
69931W        W38149  10.714  30.179   1.865
69932W        W38150   0.474  27.084   3.047
69933W        W38151  27.006  21.803  10.588
69934W        W38152  40.266  37.449   4.193
69935W        W38153   7.211   7.721   4.426
69936W        W38154   4.602  15.788  14.996
69937W        W38155   0.933  32.151   0.314
69938W        W38156  31.197   0.011  13.844
69939W        W38157  36.126  19.354  10.684
69940W        W38158  11.833  25.679  10.671
69941W        W38159   4.332   5.396  14.558
69942W        W38160  25.186  17.523  11.179
69943W        W38161   7.762  33.594   0.074
69944W        W38162  35.182   8.812   5.090
69945W        W38163  12.663  34.156  11.510
69946W        W38164  32.442  14.698  13.960
69947W        W38165  37.018   3.045   4.142
69948W        W38166  29.437  27.131  14.938
69949W        W38167   2.936  12.912   0.934
69950W        W38168  16.808  13.209   3.329
69951W        W38169  42.338  19.706   1.885
69952W        W38170   0.862  25.105  11.969
69953W        W38171  21.656   5.932  13.880
69954W        W38172  26.524  14.053   1.313
69955W        W38173  16.088  34.328  13.509
69956W        W38174  42.254  22.711   0.918
69957W        W38175  35.414   7.892  14.958
69958W        W38176  12.432  19.335   3.541
69959W        W38177  34.899  36.743  13.212
69960W        W38178   4.994  24.640  11.633
69961W        W38179   4.717  26.968  14.937
69962W        W38180   2.002  31.664  13.843
69963W        W38181  11.291  11.640   0.871
69964W        W38182  24.786   0.122   0.271
69965W        W38183  40.844  23.310   1.501
69966W        W38184  14.736  24.996  11.413
69967W        W38185  34.035  22.832   4.093
69968W        W38186  22.097  14.286  11.030
69969W        W38187  12.124   2.937  11.462
69970W        W38188  15.209  31.164  14.974
69971W        W38189  18.051  40.327  12.930
69972W        W38190   5.413  13.776   0.814
69973W        W38191  37.223   0.269   5.094
69974W        W38192  16.787  20.004  14.816
69975W        W38193  42.226  38.808  13.358
69976W        W38194  24.242  33.111   4.735
69977W        W38195  26.234   8.685  12.045
69978W        W38196  25.481  34.867   3.961
69979W        W38197   7.498  17.364   0.850
69980W        W38198  27.209  41.584   0.298
69981W        W38199  27.772  30.115  14.418
69982W        W38200   7.389  37.085  14.987
69983W        W38201  10.727  30.611  11.097
69984W        W38202  21.600   5.158  10.673
69985W        W38203  43.929  16.876   1.841
69986W        W38204  12.677  22.735   0.709
69987W        W38205   0.345   0.447  10.886
69988W        W38206  23.963  12.734  11.078
69989W        W38207   3.208  37.624   2.842
69990W        W38208   5.651  17.161  10.946
69991W        W38209   5.554   1.570   4.919
69992W        W38210   6.965  31.294  14.358
69993W        W38211   4.794   6.449  12.659
69994W        W38212  37.163  37.679  11.192
69995W        W38213  21.988  12.173  10.582
69996W        W38214  43.242  17.321   0.397
69997W        W38215  19.667  38.616  12.282
69998W        W38216   0.335  30.040   2.558
69999W        W38217   4.176   1.414  12.025
70000W        W38218  20.270  31.960  11.076
70001W        W38219  15.775  44.916  14.021
70002W        W38220  42.782  35.000   1.754
70003W        W38221   8.617  14.734   3.641
70004W        W38222   8.895  23.934   3.704
70005W        W38223  13.948   7.296  11.134
70006W        W38224  26.509   0.272  13.713
70007W        W38225  11.672  36.964   4.365
70008W        W38226  29.182   6.945   3.558
70009W        W38227  35.548  19.206  12.384
70010W        W38228  34.107  17.823  13.351
70011W        W38229  26.426  32.496   2.249
70012W        W38230  16.122   4.017  11.472
70013W        W38231  26.238  12.250   4.323
70014W        W38232  15.745   5.530   1.823
70015W        W38233   8.701  24.644   3.281
70016W        W38234  40.474  28.246  11.801
70017W        W38235  18.958  38.553   0.292
70018W        W38236   9.327  16.766  13.755
70019W        W38237  42.967  29.206   4.672
70020W        W38238  30.942  21.769   3.170
70021W        W38239  10.177  20.507   2.251
70022W        W38240  40.875  31.442   1.082
70023W        W38241  15.243  13.135  13.451
70024W        W38242  27.503  37.531   1.999
70025W        W38243   7.878  12.990  12.842
70026W        W38244  43.395  34.175   0.014
70027W        W38245   6.167  41.951   0.243
70028W        W38246   0.832   2.302   4.685
70029W        W38247  38.378  28.206  11.530
70030W        W38248   4.473  44.515  13.268
70031W        W38249  31.173  44.782  13.294
70032W        W38250  21.190  22.429  13.717
70033W        W38251  42.834  18.332  12.128
70034W        W38252  14.688  44.302   1.705
70035W        W38253   1.928  15.364   0.724
70036W        W38254  23.154  33.388   0.191
70037W        W38255   7.947  22.559  10.680
70038W        W38256  25.967  36.989   4.102
70039W        W38257  15.743  41.213   3.723
70040W        W38258  18.515  12.591   1.455
70041W        W38259  22.108  30.947  11.549
70042W        W38260  30.006  39.959  11.620
70043W        W38261  22.902  13.936   3.668
70044W        W38262   9.227  12.024   4.517
70045W        W38263  42.951   4.240   0.506
70046W        W38264  31.719  15.300  11.571
70047W        W38265  11.098  18.758  13.791
70048W        W38266  20.202  19.328  10.766
70049W        W38267  26.141  20.799  10.294
70050W        W38268  32.272  12.393  12.759
70051W        W38269  13.307  26.929  12.040
70052W        W38270  13.224  18.309  12.434
70053W        W38271  38.250   1.658  14.039
70054W        W38272  14.374  27.574  11.460
70055W        W38273  36.378   6.009   2.912
70056W        W38274  18.066  43.524  14.033
70057W        W38275   9.384  41.186  11.604
70058W        W38276  20.203  27.296  10.596
70059W        W38277  30.910  21.729  12.125
70060W        W38278  34.870  42.175  12.069
70061W        W38279   3.829  10.591  10.369
70062W        W38280   1.888  44.509  14.872
70063W        W38281   0.770  38.999  13.882
70064W        W38282  10.670   4.662   3.632
70065W        W38283  38.641  15.172   4.370
70066W        W38284  39.409   7.695   2.855
70067W        W38285  25.465  15.328   1.286
70068W        W38286   4.828   3.710  12.550
70069W        W38287  43.311   3.225   2.612
70070W        W38288  36.054  24.211  10.689
70071W        W38289   4.888  28.391   4.951
70072W        W38290  16.404   5.965  12.954
70073W        W38291  34.711  31.502   3.303
70074W        W38292  42.315   1.870  11.122
70075W        W38293   1.387   0.906  10.659
70076W        W38294   1.722  22.022   0.376
70077W        W38295  19.042  43.819   3.266
70078W        W38296  10.335   5.950  14.260
70079W        W38297  35.654   1.452   3.655
70080W        W38298  41.801  13.302   0.273
70081W        W38299  31.682  40.485  11.461
70082W        W38300   9.346  44.959  12.968
70083W        W38301   9.439  40.130   2.229
70084W        W38302  44.746  21.940   1.915
70085W        W38303   3.405  10.248  13.110
70086W        W38304  14.436   1.485   0.980
70087W        W38305  13.074  44.261   3.232
70088W        W38306   4.481  28.541  12.340
70089W        W38307  20.067  21.216  14.315
70090W        W38308  16.683  43.406   2.855
70091W        W38309   4.772  32.187  13.380
70092W        W38310  24.483  38.094  12.553
70093W        W38311  41.140  31.749  12.002
70094W        W38312   1.220  32.498   4.112
70095W        W38313  18.086  11.971  14.925
70096W        W38314  43.394  17.024  13.010
70097W        W38315  25.981  22.728  10.990
70098W        W38316  27.473  30.209   1.929
70099W        W38317  10.807  35.089   3.671
70100W        W38318  11.332  40.934  11.570
70101W        W38319   0.088  22.090   0.927
70102W        W38320  19.229  38.495   2.911
70103W        W38321  16.943  23.431  13.765
70104W        W38322   0.918   2.907   3.481
70105W        W38323   4.721  42.920   2.884
70106W        W38324  26.693  36.968   4.765
70107W        W38325  34.415  14.435  11.185
70108W        W38326   1.864  10.874  11.122
70109W        W38327  18.071  27.028   1.758
70110W        W38328   9.438  33.117  13.929
70111W        W38329   5.962  21.463  12.719
70112W        W38330  17.399   2.311  14.267
70113W        W38331  25.027  21.575  14.396
70114W        W38332   1.769   9.166   2.231
70115W        W38333  40.877  18.670   4.578
70116W        W38334   9.244  14.174   4.460
70117W        W38335   9.216  22.307  11.906
70118W        W38336  19.530  15.019  11.547
70119W        W38337  43.093  42.324  13.510
70120W        W38338  44.538  12.211  10.502
70121W        W38339  31.011  22.001   2.703
70122W        W38340  18.860  25.104  14.415
70123W        W38341  16.786  18.190  11.267
70124W        W38342  27.129  24.563   0.690
70125W        W38343  31.208  30.479  11.639
70126W        W38344  14.221  20.119   3.344
70127W        W38345  11.245  20.031  10.912
70128W        W38346  24.949  25.703   3.590
70129W        W38347  41.061  40.348  12.870
70130W        W38348  43.933   0.446  14.841
70131W        W38349   9.442  11.899   0.921
70132W        W38350  18.544   6.405  12.507
70133W        W38351  32.825  26.128   0.094
70134W        W38352  39.178  23.917  12.557
70135W        W38353  35.243  16.885   4.471
70136W        W38354  27.003  30.414   1.842
70137W        W38355  29.150  41.496  11.256
70138W        W38356  14.572  18.562   4.117
70139W        W38357  12.293  16.884  11.744
70140W        W38358  44.202  41.750  10.219
70141W        W38359  43.899  25.096   0.496
70142W        W38360   2.284   8.715   0.095
70143W        W38361   9.191  37.942   1.039
70144W        W38362   9.190  21.880  13.047
70145W        W38363  37.927  28.361  13.142
70146W        W38364  10.301  22.565   0.490
70147W        W38365  19.243  21.509  14.337
70148W        W38366  35.964   6.506   4.942
70149W        W38367   8.412  34.929  11.178
70150W        W38368  15.539  16.657  14.031
70151W        W38369  29.554  21.691  11.477
70152W        W38370  41.493  15.591   0.216
70153W        W38371  38.887  34.072  14.735
70154W        W38372  42.772  19.208  12.134
70155W        W38373  22.559  39.286  11.660
70156W        W38374   8.591  44.311  10.491
70157W        W38375  41.242  39.085   0.352
70158W        W38376   1.248   9.671  13.084
70159W        W38377  21.916  40.903   3.361
70160W        W38378  25.638  23.007   1.182
70161W        W38379  22.421  27.069   4.180
70162W        W38380   8.697  36.585   4.589
70163W        W38381  30.899   5.731  13.832
70164W        W38382  17.549  13.560  13.984
70165W        W38383  17.014  40.316  13.421
70166W        W38384   6.933  14.722  12.023
70167W        W38385   2.419  18.715  11.196
70168W        W38386  16.739  37.869  13.849
70169W        W38387  21.343   4.697  11.048
70170W        W38388  20.558   2.810   3.637
70171W        W38389  15.996   8.763   2.697
70172W        W38390   8.604   8.380   2.759
70173W        W38391  42.412  41.966  10.381
70174W        W38392  18.765  10.092  10.746
70175W        W38393   1.280   4.837   2.807
70176W        W38394  35.629  26.355  14.398
70177W        W38395  40.021  39.889  12.660
70178W        W38396  25.434  39.450   0.853
70179W        W38397  33.112  20.595  12.185
70180W        W38398  37.030  11.544   1.397
70181W        W38399  10.232  32.900  14.825
70182W        W38400  40.294  30.642  10.518
70183W        W38401   0.940  22.585   1.368
70184W        W38402   3.337   6.668   2.281
70185W        W38403   6.964  40.023  12.459
70186W        W38404  25.041  44.033  14.900
70187W        W38405   7.203   1.068   4.282
70188W        W38406  38.940  22.625   0.191
70189W        W38407  41.331  20.184   3.208
70190W        W38408   6.318   6.694  14.925
70191W        W38409   0.871  41.785   1.972
70192W        W38410  39.339  20.195  10.584
70193W        W38411  26.019   1.773   3.418
70194W        W38412  18.413   4.242   1.972
70195W        W38413  15.605  21.427  12.483
70196W        W38414   6.438  43.430  13.263
70197W        W38415   2.791  23.989   2.206
70198W        W38416   7.668  20.809  14.318
70199W        W38417  13.132  15.046   2.600
70200W        W38418  20.913  15.825   3.278
70201W        W38419   2.631  21.165   3.388
70202W        W38420  15.915  24.654   0.369
70203W        W38421  12.648  44.445  12.599
70204W        W38422  19.704  26.504   4.623
70205W        W38423   2.885  35.506   4.182
70206W        W38424   3.405   5.718  10.484
70207W        W38425  28.986  24.772  12.995
70208W        W38426  18.023  19.146  13.398
70209W        W38427  28.622  16.154  11.519
70210W        W38428   9.203  42.036   2.789
70211W        W38429  36.987   9.311  11.289
70212W        W38430  28.469  21.548   3.179
70213W        W38431  43.938  44.981  13.402
70214W        W38432  43.787  26.048   3.193
70215W        W38433  12.133  21.589  13.899
70216W        W38434  18.729  41.205  10.104
70217W        W38435  19.221  22.802   2.838
70218W        W38436  41.297  27.984   4.632
70219W        W38437  27.580  30.982  11.211
70220W        W38438   2.200  38.415  12.513
70221W        W38439  25.700  27.157   1.027
70222W        W38440  26.959  24.566   1.284
70223W        W38441  15.996   9.574   0.704
70224W        W38442  15.066  31.634   1.887
70225W        W38443  22.810   0.850   1.481
70226W        W38444   8.670  22.122   3.437
70227W        W38445   7.077  21.523   0.445
70228W        W38446  38.888  31.541   1.286
70229W        W38447  13.687  39.332   1.010
70230W        W38448  15.194  13.388   0.745
70231W        W38449  41.650   8.636   1.255
70232W        W38450  25.611  24.663  13.968
70233W        W38451  21.129  29.578  12.542
70234W        W38452  14.599  41.347   1.395
70235W        W38453   9.252   7.609  14.327
70236W        W38454  17.656  38.566   2.282
70237W        W38455   8.293  40.046   2.833
70238W        W38456  34.449  30.017   1.631
70239W        W38457  33.802   6.983   0.928
70240W        W38458  19.679  17.884   4.326
70241W        W38459  20.061   3.686   3.946
70242W        W38460  17.833  15.871  10.627
70243W        W38461  37.997  39.005  13.501
70244W        W38462   3.492  18.526  10.793
70245W        W38463  15.275  42.902  13.469
70246W        W38464   1.854  32.481  11.543
70247W        W38465  11.275  17.183   4.363
70248W        W38466   3.653  12.838  12.402
70249W        W38467  26.634  32.348   3.764
70250W        W38468  39.307  27.145   4.202
70251W        W38469  16.951   5.976   4.034
70252W        W38470  37.323  41.317   5.077
70253W        W38471  25.632  23.616  11.501
70254W        W38472  15.949  28.188   2.869
70255W        W38473  42.449  36.597  12.105
70256W        W38474  41.889  10.692  10.680
70257W        W38475  10.768  13.707   4.346
70258W        W38476   8.918   8.208   4.783
70259W        W38477  34.770  26.133  13.996
70260W        W38478  39.922  42.712  13.384
70261W        W38479  37.863  12.101   3.624
70262W        W38480  43.060   5.905  13.742
70263W        W38481   8.070  27.861  13.061
70264W        W38482  18.281  20.030  11.221
70265W        W38483  26.002  17.327   1.768
70266W        W38484  36.900  22.446  11.038
70267W        W38485  42.698   1.019   0.953
70268W        W38486  40.388  33.621   1.042
70269W        W38487  36.190  23.541  11.080
70270W        W38488  14.350  11.895   1.738
70271W        W38489  42.224  33.558   0.326
70272W        W38490  39.408  35.829   0.028
70273W        W38491  15.076  36.999  10.715
70274W        W38492  12.845   4.434   4.051
70275W        W38493  20.286  26.795  10.601
70276W        W38494  24.054   3.369  12.957
70277W        W38495  42.929  21.803   4.601
70278W        W38496   0.908   1.717  10.931
70279W        W38497  24.640  19.267  13.071
70280W        W38498  19.609   6.662   0.484
70281W        W38499   4.452  13.658  13.834
70282W        W38500   0.970  28.195   1.738
70283W        W38501  36.834  33.492  10.058
70284W        W38502  20.932  23.156   4.525
70285W        W38503  23.044  20.560  11.383
70286W        W38504  30.875  38.473   1.463
70287W        W38505  15.927   4.284  14.780
70288W        W38506  35.041   7.889   1.332
70289W        W38507  19.194  19.659  10.409
70290W        W38508  43.882  41.452   4.662
70291W        W38509   9.443  18.050   2.731
70292W        W38510   8.668  40.182  14.806
70293W        W38511   8.228   2.253   1.192
70294W        W38512  24.661  22.608   2.683
70295W        W38513  39.934  12.617  10.684
70296W        W38514  15.743  14.400   1.774
70297W        W38515   6.667  14.309   2.777
70298W        W38516  31.425   7.881  12.929
70299W        W38517   9.029  13.748  11.099
70300W        W38518  14.916  31.362   0.713
70301W        W38519  40.114  23.660   0.017
70302W        W38520  17.767  37.390   3.838
70303W        W38521  14.041  34.861   5.092
70304W        W38522  37.037  40.927   2.543
70305W        W38523  27.185  22.155  12.003
70306W        W38524   0.395  20.312   3.351
70307W        W38525  31.188  40.412   4.280
70308W        W38526   4.569   8.227  12.280
70309W        W38527  16.271  16.251  11.718
70310W        W38528  42.005  14.544   0.868
70311W        W38529  37.607  30.405   1.887
70312W        W38530  20.670  15.348  12.991
70313W        W38531  10.087  20.659  14.430
70314W        W38532  27.999  23.223   2.365
70315W        W38533   5.238   3.309   1.972
70316W        W38534  21.533  22.157  11.132
70317W        W38535   9.379  32.958  14.455
70318W        W38536  23.380  41.495   2.735
70319W        W38537   8.346  23.974  14.718
70320W        W38538  27.083  22.217   0.810
70321W        W38539  21.044  26.719  14.541
70322W        W38540  22.659   7.127  11.699
70323W        W38541  33.889  29.941  12.472
70324W        W38542   9.253   2.697   4.926
70325W        W38543  40.721  11.323  11.412
70326W        W38544   6.239  40.270  14.997
70327W        W38545  40.596  30.696   0.340
70328W        W38546   8.347  35.955   3.328
70329W        W38547  11.418   1.847  11.934
70330W        W38548  18.146  15.870  11.637
70331W        W38549   4.902  10.223  12.046
70332W        W38550  19.180  17.506  13.885
70333W        W38551  34.533  24.033  12.936
70334W        W38552   6.950  41.915  14.343
70335W        W38553  38.671  34.236   2.394
70336W        W38554  28.939   1.160  13.948
70337W        W38555  15.238   0.381  12.886
70338W        W38556   0.356   5.928  10.656
70339W        W38557  25.018  38.410   2.424
70340W        W38558  44.020  35.565   3.607
70341W        W38559  11.387   9.720   0.102
70342W        W38560  15.287   1.848   4.615
70343W        W38561  36.601  44.280   4.140
70344W        W38562   4.687   0.863  12.136
70345W        W38563  40.801  13.605  13.567
70346W        W38564   0.344  19.730  13.801
70347W        W38565  41.746  32.913   1.842
70348W        W38566  41.776  30.253   5.013
70349W        W38567  22.494  23.862  14.518
70350W        W38568  26.368  27.996   3.385
70351W        W38569   3.837  34.507  12.593
70352W        W38570  11.344  35.569   0.075
70353W        W38571  14.645   5.106   0.836
70354W        W38572  14.325  34.189   0.959
70355W        W38573  27.859  35.983   2.885
70356W        W38574  38.526  37.315   4.604
70357W        W38575   8.837   3.782  12.070
70358W        W38576   8.901   0.804  10.836
70359W        W38577  43.883  12.127   2.696
70360W        W38578   9.355  44.440  13.106
70361W        W38579  33.304  19.621   3.261
70362W        W38580   9.767  33.609   2.115
70363W        W38581  29.418  43.439   4.268
70364W        W38582   6.450  34.629  14.280
70365W        W38583  12.366  36.349  11.171
70366W        W38584  33.458  32.650   0.952
70367W        W38585  43.757  16.593  11.112
70368W        W38586  12.924   5.926  14.494
70369W        W38587  32.110   3.150   4.341
70370W        W38588  34.692  32.034   4.073
70371W        W38589   2.877  11.166   3.587
70372W        W38590  23.676  35.296  14.984
70373W        W38591  31.446  20.733  13.543
70374W        W38592   7.392  17.486   2.680
70375W        W38593  38.926   8.213  13.211
70376W        W38594  12.804  44.888  13.523
70377W        W38595  29.239   1.093   2.860
70378W        W38596  35.169  40.520   0.489
70379W        W38597  24.585  36.503   1.690
70380W        W38598  42.866  42.833   1.417
70381W        W38599   8.173  12.991  10.673
70382W        W38600  10.129  24.310   4.487
70383W        W38601  30.158  25.720   0.536
70384W        W38602  12.235   0.278  12.329
70385W        W38603  27.002  29.570   2.401
70386W        W38604  28.002   6.861  13.536
70387W        W38605  42.068   9.880  11.113
70388W        W38606  19.612  39.147  14.392
70389W        W38607   2.976  36.723  14.825
70390W        W38608  10.736  18.131  14.348
70391W        W38609  36.457  43.248  12.934
70392W        W38610  44.818  19.531   3.131
70393W        W38611   0.275  20.508  14.983
70394W        W38612  14.392   9.631  13.133
70395W        W38613  17.481  22.124   3.324
70396W        W38614   4.351  24.636  13.189
70397W        W38615  34.934  36.336  12.890
70398W        W38616  27.205  38.805  13.553
70399W        W38617  22.816  25.650   2.156
70400W        W38618  20.045  17.118  14.714
70401W        W38619   5.639  42.304  13.531
70402W        W38620  13.377   0.308   1.727
70403W        W38621  32.626  18.663   0.701
70404W        W38622  42.849  23.949   4.152
70405W        W38623  35.896  26.151   0.483
70406W        W38624   6.736  38.469   4.657
70407W        W38625  36.806   7.484  14.996
70408W        W38626  41.197  21.523   2.175
70409W        W38627  27.897  41.757   4.904
70410W        W38628  35.374  23.962  11.159
70411W        W38629  41.583  32.448  10.768
70412W        W38630  31.866  31.124   2.056
70413W        W38631  39.524  16.551   3.573
70414W        W38632  31.918  31.931   3.137
70415W        W38633  36.937  33.636  11.575
70416W        W38634  12.746  10.313  14.069
70417W        W38635  38.993  23.001   2.114
70418W        W38636  24.736  18.504   4.241
70419W        W38637  24.427  32.177  12.035
70420W        W38638  39.061  32.085   1.768
70421W        W38639  18.605  27.260   3.537
70422W        W38640  26.572  36.790  12.467
70423W        W38641  24.274  39.952  11.316
70424W        W38642  14.781  23.689  12.865
70425W        W38643  34.145  43.939   0.634
70426W        W38644  13.242  21.137   4.139
70427W        W38645  39.983  32.400   1.194
70428W        W38646  11.603   3.676  13.933
70429W        W38647  27.490  32.646   3.715
70430W        W38648  33.486   3.600   4.483
70431W        W38649  23.018  27.102  12.383
70432W        W38650  41.147   2.742  12.957
70433W        W38651  34.511  36.251   2.441
70434W        W38652  35.210   8.237   4.255
70435W        W38653  37.058  18.886   0.723
70436W        W38654  10.535   3.160   3.396
70437W        W38655  33.921  22.965  12.412
70438W        W38656  17.335  16.452   4.209
70439W        W38657  36.041  17.987   4.518
70440W        W38658  20.658  15.096   2.467
70441W        W38659  39.271  35.521  11.868
70442W        W38660  30.927  12.140  13.890
70443W        W38661   4.864  13.110   3.265
70444W        W38662  27.223   0.537   4.622
70445W        W38663   1.886  20.039  12.981
70446W        W38664  39.880  17.252   3.003
70447W        W38665   0.293  22.460   4.106
70448W        W38666   9.580  20.506  12.519
70449W        W38667  32.349  39.681   0.052
70450W        W38668  18.816  44.025   1.764
70451W        W38669  13.550  16.617  13.972
70452W        W38670  39.450  10.717  11.421
70453W        W38671  14.338  14.180   0.834
70454W        W38672  20.176  25.415  12.344
70455W        W38673  13.619   3.499  12.175
70456W        W38674  41.881  13.971  11.278
70457W        W38675  14.040   8.252  13.459
70458W        W38676  14.852  13.303   3.626
70459W        W38677   8.268  44.877  10.654
70460W        W38678  25.410   5.726  12.605
70461W        W38679  26.490  29.584   1.199
70462W        W38680  41.759   7.716  14.941
70463W        W38681  37.801  16.542  12.988
70464W        W38682  24.955  30.959  13.114
70465W        W38683  32.991   0.545  12.459
70466W        W38684   0.232  42.977  14.507
70467W        W38685  29.665  15.414   3.283
70468W        W38686   2.267  17.372   2.450
70469W        W38687  23.023  17.834   0.539
70470W        W38688   7.645   2.236   0.316
70471W        W38689   1.947  31.074  12.946
70472W        W38690  10.821  12.642  12.186
70473W        W38691  21.915  39.653  13.913
70474W        W38692   9.637   2.018  13.318
70475W        W38693  27.545  26.959   0.414
70476W        W38694   9.787   3.925  13.853
70477W        W38695  21.720  36.425  11.160
70478W        W38696  33.084  24.024  12.601
70479W        W38697   4.375  11.604   4.387
70480W        W38698  37.029   5.000  10.657
70481W        W38699  35.776  35.644   4.395
70482W        W38700  29.889  10.981   0.400
70483W        W38701  21.131   9.037   0.007
70484W        W38702  11.102  37.576  13.804
70485W        W38703  36.482   1.745   2.263
70486W        W38704  31.925  29.649   4.321
70487W        W38705  40.454  43.340  14.517
70488W        W38706   7.607  38.734  13.963
70489W        W38707  38.731  29.075   3.654
70490W        W38708   8.787  27.404  10.415
70491W        W38709  34.353   3.708  14.947
70492W        W38710  18.224  10.879  12.947
70493W        W38711  43.873  40.073   4.531
70494W        W38712  29.043  25.071   1.601
70495W        W38713  35.363  14.341   1.799
70496W        W38714  25.985  11.332   2.328
70497W        W38715  39.907  43.751   1.428
70498W        W38716  32.512   0.736   3.875
70499W        W38717  24.623  32.728   4.606
70500W        W38718  22.730  32.097   3.672
70501W        W38719   3.875  40.753  10.388
70502W        W38720  22.955   7.419  13.885
70503W        W38721   2.311  19.970   9.847
70504W        W38722  12.415  39.928   3.774
70505W        W38723  15.844  37.762  11.651
70506W        W38724   7.409  30.410  10.522
70507W        W38725  23.644  25.859  14.496
70508W        W38726  39.310  32.554   0.012
70509W        W38727  43.143  32.789   2.939
70510W        W38728  30.678   4.519  14.972
70511W        W38729  13.891  36.360   1.151
70512W        W38730  31.514  22.109   0.957
70513W        W38731  42.554  19.864   1.442
70514W        W38732  22.035  44.940  13.015
70515W        W38733  42.579  19.615   0.230
70516W        W38734  40.284   8.144  14.427
70517W        W38735  36.170  25.636  11.541
70518W        W38736   0.364  24.963  13.204
70519W        W38737   7.837  29.024  13.357
70520W        W38738   7.973  19.174   0.508
70521W        W38739  26.614  10.388   3.241
70522W        W38740  25.141  27.455  11.145
70523W        W38741  21.422  38.734  10.111
70524W        W38742  13.873  30.550   3.683
70525W        W38743  15.267  11.036  13.129
70526W        W38744  15.287  20.745  11.586
70527W        W38745  11.737   6.130   3.686
70528W        W38746   8.921  10.924   0.085
70529W        W38747   7.848  40.755  10.710
70530W        W38748  23.120  30.575  11.223
70531W        W38749  39.363  33.078  14.247
70532W        W38750   8.791  30.933  11.455
70533W        W38751  39.414  20.468   0.440
70534W        W38752   8.835  21.759   4.522
70535W        W38753  36.014  43.254  11.288
70536W        W38754  38.839  21.280   2.109
70537W        W38755  18.176  24.491   4.554
70538W        W38756  19.949  25.679  14.009
70539W        W38757  19.418  18.679  10.702
70540W        W38758  24.548  22.952  13.572
70541W        W38759  26.024  11.195  10.757
70542W        W38760  11.264   9.063   2.596
70543W        W38761  16.684  36.457   3.669
70544W        W38762   1.373  39.751  13.008
70545W        W38763  30.264   9.348  12.180
70546W        W38764  21.512   0.998  11.280
70547W        W38765   0.845   2.800   3.968
70548W        W38766   4.306   0.474  12.586
70549W        W38767   9.238  38.935   2.116
70550W        W38768  16.972   2.249  13.327
70551W        W38769  11.960  33.880  12.899
70552W        W38770  22.936  38.352   3.749
70553W        W38771  12.573   4.668   1.413
70554W        W38772  14.052  43.927   1.414
70555W        W38773  38.606  31.489   0.803
70556W        W38774  30.543   4.890  13.943
70557W        W38775  25.394  25.676  10.637
70558W        W38776  14.932  29.031  13.785
70559W        W38777  19.668  13.284  13.164
70560W        W38778  27.506   5.646  12.617
70561W        W38779  32.465  32.429  11.553
70562W        W38780  28.632  27.547   2.208
70563W        W38781  39.177   4.921   2.611
70564W        W38782  22.360  27.919  12.430
70565W        W38783  12.867  35.625  14.987
70566W        W38784  17.531  10.600  13.481
70567W        W38785  10.342  15.726  11.127
70568W        W38786   9.603   4.496   4.098
70569W        W38787  17.143   0.394  12.424
70570W        W38788  10.648  41.925   0.453
70571W        W38789  38.363  30.051  12.488
70572W        W38790  13.261  44.635   2.274
70573W        W38791  25.949  15.003  13.510
70574W        W38792  44.784  20.724  14.259
70575W        W38793  22.656  14.101   2.906
70576W        W38794  40.855  33.953   3.112
70577W        W38795  22.718   3.918   1.843
70578W        W38796  44.967  11.605  14.333
70579W        W38797  22.319  28.970  14.858
70580W        W38798  33.034  18.176   3.760
70581W        W38799  30.673   7.756   0.438
70582W        W38800  16.158   7.206  14.969
70583W        W38801  14.668   9.246  11.158
70584W        W38802  40.448  13.373   0.274
70585W        W38803  44.409  18.348   0.727
70586W        W38804   5.756  29.118  14.263
70587W        W38805  43.611  17.756  11.937
70588W        W38806  11.827  24.132  12.975
70589W        W38807  22.670  33.966  14.964
70590W        W38808   0.554  38.343   3.797
70591W        W38809   7.991  10.193   4.249
70592W        W38810  19.755  41.220   3.646
70593W        W38811  16.739   6.903   3.421
70594W        W38812  10.406  35.809  11.665
70595W        W38813   3.394  34.972   2.754
70596W        W38814   1.981   1.950  14.802
70597W        W38815  28.160  41.449   2.345
70598W        W38816  11.160   0.901  12.472
70599W        W38817   2.544  34.554   2.605
70600W        W38818  17.908  18.021  11.567
70601W        W38819  38.763  33.651   3.807
70602W        W38820  22.919  19.133  10.453
70603W        W38821   3.321  14.559   0.417
70604W        W38822  32.210   5.932   2.875
70605W        W38823  26.682  42.071  14.945
70606W        W38824   1.588  34.510  11.024
70607W        W38825   8.665  11.778  12.495
70608W        W38826   4.804  17.043  13.889
70609W        W38827  36.837  26.192   1.346
70610W        W38828  14.117  36.856  12.606
70611W        W38829  42.791  41.883   1.422
70612W        W38830  16.057  35.422   0.070
70613W        W38831  36.063  14.370  14.030
70614W        W38832  18.585  41.538  14.899
70615W        W38833  35.121  44.900   0.013
70616W        W38834  16.009   2.613   3.114
70617W        W38835  41.443   2.686  14.655
70618W        W38836  39.907  16.767  14.226
70619W        W38837  41.237  19.636   2.636
70620W        W38838  36.028  40.294   3.183
70621W        W38839  26.394  19.290   0.299
70622W        W38840   1.056  18.607  10.947
70623W        W38841  22.730   0.066  13.975
70624W        W38842   2.428  43.238  11.267
70625W        W38843   8.771  36.846  12.522
70626W        W38844  40.305  26.617   0.840
70627W        W38845  34.976  33.720   2.865
70628W        W38846   4.455   8.518   4.156
70629W        W38847  22.287  26.068   4.157
70630W        W38848  43.001   2.806  13.132
70631W        W38849  37.811   4.170  11.649
70632W        W38850  13.401   7.128  14.847
70633W        W38851  40.103  36.829  13.210
70634W        W38852  16.783  39.582   2.591
70635W        W38853  41.126  44.045  14.467
70636W        W38854  43.489  24.961   4.638
70637W        W38855  30.456   7.844   4.157
70638W        W38856  26.026  44.788   4.565
70639W        W38857   5.536   4.420   3.304
70640W        W38858  34.939  27.366   1.475
70641W        W38859  32.426  42.904   1.701
70642W        W38860  15.700  18.522   1.832
70643W        W38861  44.261  17.507   4.788
70644W        W38862   8.772   6.320  11.513
70645W        W38863  30.057  42.317  11.509
70646W        W38864  25.022  15.465  14.833
70647W        W38865  17.061  40.901  10.903
70648W        W38866   8.982  11.562   2.749
70649W        W38867  31.668  44.411   4.616
70650W        W38868  14.825  25.204   0.042
70651W        W38869  33.000   2.874  11.969
70652W        W38870  43.733   3.909   0.696
70653W        W38871  44.450  41.301  10.727
70654W        W38872   2.559  25.697  12.959
70655W        W38873  41.513  27.955   0.869
70656W        W38874  25.678  43.810  13.767
70657W        W38875  38.649  25.048  11.590
70658W        W38876  32.206  18.990   0.691
70659W        W38877   6.655  37.282   3.101
70660W        W38878  33.069  15.243  14.051
70661W        W38879  14.246  29.973   3.176
70662W        W38880  42.970  33.016  13.654
70663W        W38881  15.673  34.519   0.497
70664W        W38882  19.555  40.673  11.975
70665W        W38883  30.268   2.473  12.503
70666W        W38884  19.582   2.264   4.141
70667W        W38885  10.955  11.163  11.075
70668W        W38886   8.791  32.566  12.849
70669W        W38887   7.650  11.763  13.319
70670W        W38888  39.454  23.126   3.932
70671W        W38889   3.271  16.821   2.936
70672W        W38890   1.921   1.595  14.429
70673W        W38891  16.131   2.883   1.245
70674W        W38892  19.880   8.913   4.123
70675W        W38893  21.719   0.431   4.485
70676W        W38894  30.581  32.408   4.706
70677W        W38895  15.717  37.957   4.297
70678W        W38896  18.792  21.113   0.788
70679W        W38897  13.114  21.137  14.252
70680W        W38898  15.345  24.359   2.832
70681W        W38899   0.172  36.970  12.992
70682W        W38900  35.443  20.314  12.086
70683W        W38901   9.358  19.966  14.731
70684W        W38902  33.925  38.008   0.955
70685W        W38903  23.985  14.877  11.743
70686W        W38904  13.076  34.382   1.182
70687W        W38905  25.083   2.625   3.540
70688W        W38906  44.509  28.866  11.176
70689W        W38907  19.190   8.345   0.501
70690W        W38908   3.731  40.441  14.577
70691W        W38909  15.066  23.878  13.257
70692W        W38910   5.854  18.959   2.339
70693W        W38911  27.528  11.779   4.248
70694W        W38912  18.705  30.145   0.777
70695W        W38913  32.737  27.014  12.402
70696W        W38914   9.615  10.752   2.609
70697W        W38915   4.808   8.109   2.377
70698W        W38916  27.567   8.985   3.653
70699W        W38917  20.533  25.297   1.901
70700W        W38918  22.359  32.757  13.485
70701W        W38919  23.657   2.526   2.286
70702W        W38920   6.366   7.115  13.005
70703W        W38921  33.968  40.894  14.115
70704W        W38922  42.546  41.602  13.962
70705W        W38923  10.633  28.728   3.246
70706W        W38924  19.959   6.889  12.779
70707W        W38925  41.103  38.496  10.692
70708W        W38926  35.067  28.027   2.673
70709W        W38927  23.630   7.137   1.917
70710W        W38928  13.690   3.413   4.301
70711W        W38929  36.061  41.629  13.200
70712W        W38930  29.599  31.939  10.602
70713W        W38931  43.888   0.861  14.040
70714W        W38932  30.160  12.462   0.410
70715W        W38933   2.956  44.371  14.317
70716W        W38934   3.190  20.108   5.027
70717W        W38935  33.430  14.218  13.499
70718W        W38936  28.896   7.779  13.988
70719W        W38937  25.446  42.814  11.152
70720W        W38938  31.485  12.038  13.385
70721W        W38939  10.131  32.120   0.896
70722W        W38940  11.186  17.501   1.227
70723W        W38941  37.607   0.207  13.928
70724W        W38942  24.946  25.198  14.997
70725W        W38943  26.466  21.609   4.455
70726W        W38944  27.211  23.719   9.782
70727W        W38945   0.052  33.812   3.515
70728W        W38946  17.016  38.380   4.927
70729W        W38947   1.748   8.413  11.742
70730W        W38948  22.643   4.655  14.047
70731W        W38949  13.648  14.239   3.848
70732W        W38950  43.113   4.376  10.693
70733W        W38951  41.472  30.032  10.548
70734W        W38952  20.891  40.379  11.543
70735W        W38953  43.347   2.288  13.823
70736W        W38954  31.411   1.025  11.233
70737W        W38955   9.194  18.841   3.806
70738W        W38956   8.346  22.428  14.550
70739W        W38957  38.477  18.201   2.272
70740W        W38958  18.074  17.259  11.088
70741W        W38959  36.659  24.667  14.379
70742W        W38960  16.022  32.786   0.109
70743W        W38961  30.875   9.348   4.382
70744W        W38962  41.859  17.575   4.331
70745W        W38963  20.821   0.462  11.996
70746W        W38964  43.949  11.869   4.814
70747W        W38965  10.200   5.395   3.763
70748W        W38966  43.028  29.128  10.653
70749W        W38967  44.886  23.602  14.109
70750W        W38968  36.095  30.367   2.825
70751W        W38969   3.413  20.258   0.936
70752W        W38970  40.160  43.008   4.425
70753W        W38971  18.988  21.180  10.724
70754W        W38972  23.426  29.223   1.713
70755W        W38973   7.257   7.336   2.562
70756W        W38974   2.397  33.670   0.361
70757W        W38975  41.692  35.488  11.177
70758W        W38976  38.884  16.762  10.479
70759W        W38977  14.956  43.685   3.499
70760W        W38978  37.478  30.845   4.963
70761W        W38979  33.641  29.621   1.383
70762W        W38980  25.226  16.123  11.118
70763W        W38981  25.509  40.569   5.006
70764W        W38982   7.443  44.351  11.606
70765W        W38983  13.014  11.629  11.531
70766W        W38984  22.684  12.478  14.206
70767W        W38985   9.196  26.160   4.344
70768W        W38986  43.451  23.978   4.721
70769W        W38987  14.182  17.885  11.122
70770W        W38988  31.085  13.599  13.947
70771W        W38989  31.700   5.678   0.477
70772W        W38990  42.515  26.258   2.671
70773W        W38991  30.603   7.136  10.689
70774W        W38992  41.262  31.635  11.473
70775W        W38993  34.830  25.521   3.723
70776W        W38994  12.893  31.614   0.519
70777W        W38995   7.197  15.115  11.095
70778W        W38996  39.639  40.021  14.263
70779W        W38997  36.980  34.367   3.872
70780W        W38998  12.428   3.002   4.246
70781W        W38999  24.485  19.985  14.675
70782W        W39000  32.824  29.664  12.330
70783W        W39001   9.794  10.855  11.556
70784W        W39002  25.098  34.324   1.298
70785W        W39003  38.521  35.260  11.597
70786W        W39004  23.577  35.195  12.545
70787W        W39005  17.613  29.487  12.886
70788W        W39006  24.374  26.373   4.991
70789W        W39007  27.802   0.742   3.321
70790W        W39008  44.432  36.825   1.462
70791W        W39009  31.132  23.804   2.315
70792W        W39010  38.429  34.497   0.404
70793W        W39011  27.764  44.386  14.379
70794W        W39012   4.780  22.482   1.376
70795W        W39013   0.276   5.771  14.784
70796W        W39014   4.574   1.041  10.971
70797W        W39015   7.244  25.280   2.208
70798W        W39016  14.252  31.872   3.868
70799W        W39017  16.065  31.462   2.709
70800W        W39018  27.701  21.097  11.425
70801W        W39019   5.686  34.002  14.750
70802W        W39020   1.812  44.022  10.521
70803W        W39021   6.016  38.451  12.761
70804W        W39022  44.342   1.199   0.065
70805W        W39023  21.715  12.783  12.291
70806W        W39024  42.904  44.704  11.656
70807W        W39025  14.085   3.929  14.996
70808W        W39026   9.684  27.212  14.707
70809W        W39027  26.967  24.000   3.623
70810W        W39028  33.516  40.283  13.720
70811W        W39029   3.480  37.353  10.568
70812W        W39030   9.224  15.509   3.255
70813W        W39031   1.716  11.807  13.970
70814W        W39032  27.506   2.347  14.781
70815W        W39033  34.335  40.811   4.104
70816W        W39034  37.851  40.483  12.950
70817W        W39035  12.615   2.106  14.205
70818W        W39036  32.638   6.743   0.016
70819W        W39037  12.622  14.742  14.311
70820W        W39038   1.003  29.456   4.564
70821W        W39039  42.982  28.379   2.356
70822W        W39040  16.045  41.461   1.207
70823W        W39041  35.426  30.032   5.154
70824W        W39042  38.527  35.884  12.145
70825W        W39043  36.975  18.818  13.962
70826W        W39044   4.054  30.093  12.209
70827W        W39045  20.900   3.398  14.908
70828W        W39046  12.641  44.814   0.891
70829W        W39047  22.229  25.732  11.211
70830W        W39048  29.438   9.574   3.291
70831W        W39049  18.334  40.518  14.817
70832W        W39050  18.829  30.267   4.278
70833W        W39051  33.728  29.586  10.178
70834W        W39052  22.522  10.609  10.060
70835W        W39053   9.539  27.126   0.640
70836W        W39054  22.282   3.770  12.006
70837W        W39055  14.756  30.451   2.802
70838W        W39056  37.066  29.697  11.666
70839W        W39057  10.753  25.200   1.872
70840W        W39058   5.423  16.633   4.528
70841W        W39059   6.137  19.241   4.423
70842W        W39060  36.580   1.422  11.142
70843W        W39061  11.170  44.881   1.699
70844W        W39062  11.117  18.210   2.189
70845W        W39063   4.766  24.146   4.079
70846W        W39064  13.353   6.254   4.310
70847W        W39065   8.926  26.604   0.025
70848W        W39066  26.298  18.473   1.224
70849W        W39067  39.795  26.611   4.104
70850W        W39068  23.099  24.117   3.190
70851W        W39069   5.676  44.495  10.618
70852W        W39070  29.099  23.636   3.622
70853W        W39071   0.097   9.105   0.312
70854W        W39072   7.811  44.306  11.217
70855W        W39073  30.586  12.583   1.824
70856W        W39074   9.490  36.308  11.531
70857W        W39075  30.098  41.978   5.178
70858W        W39076  18.679   5.998   3.259
70859W        W39077  23.564  39.620   2.173
70860W        W39078   6.002  33.177   1.761
70861W        W39079  32.104  29.607   0.266
70862W        W39080   7.308  27.492   3.121
70863W        W39081  30.380  44.440   2.236
70864W        W39082  12.058  30.926   0.230
70865W        W39083  40.630  16.835  13.444
70866W        W39084  23.563  24.294   5.024
70867W        W39085  31.102  26.470   4.596
70868W        W39086   6.651  44.025  14.295
70869W        W39087  19.847  31.885   2.283
70870W        W39088  21.516  23.574   3.232
70871W        W39089   0.050   6.979  13.957
70872W        W39090   2.164  26.560   2.307
70873W        W39091   6.700  23.521   2.235
70874W        W39092  14.663  35.122   1.826
70875W        W39093  34.877  24.894   1.498
70876W        W39094  37.876  30.451   4.516
70877W        W39095  42.512  23.171   0.835
70878W        W39096  41.473  13.126  12.406
70879W        W39097  24.904  21.722  13.522
70880W        W39098   2.338  27.443   2.753
70881W        W39099   2.389   6.303   3.195
70882W        W39100  39.051  16.632  11.877
70883W        W39101  36.531   7.104   0.236
70884W        W39102  20.481   2.952   1.569
70885W        W39103  22.590   6.754   0.451
70886W        W39104  44.290   6.808   1.326
70887W        W39105  42.238  39.348  13.387
70888W        W39106  26.924  35.033  12.200
70889W        W39107  44.421  16.831   3.120
70890W        W39108   8.802  10.095   2.224
70891W        W39109  37.933  38.516  14.798
70892W        W39110  33.215  26.624   1.963
70893W        W39111   7.174  14.336  11.623
70894W        W39112  20.287  12.121  11.167
70895W        W39113  14.745  43.568  10.264
70896W        W39114  37.588  32.081  14.990
70897W        W39115   2.180  29.974   1.377
70898W        W39116  41.759  15.751  11.129
70899W        W39117  37.621  22.278  11.622
70900W        W39118  31.620  20.626  10.954
70901W        W39119  18.386  29.649   3.612
70902W        W39120  37.994   6.200  13.370
70903W        W39121   0.360  10.802   1.252
70904W        W39122   0.320  34.031  12.038
70905W        W39123   5.928  14.746   0.764
70906W        W39124  38.464  31.386   1.846
70907W        W39125  11.836  35.543  14.905
70908W        W39126  44.226  24.633   1.367
70909W        W39127  17.525  29.680   1.405
70910W        W39128   6.070  14.335  11.728
70911W        W39129   3.837  40.753  13.408
70912W        W39130   5.441   0.587   1.984
70913W        W39131  34.109  23.131   3.674
70914W        W39132  38.879   1.303   2.323
70915W        W39133   0.989   6.440   4.614
70916W        W39134  29.401  30.044   2.863
70917W        W39135  14.199  14.296  13.962
70918W        W39136  39.249  12.827  12.588
70919W        W39137   1.944  23.603   3.638
70920W        W39138  21.729  44.523   2.328
70921W        W39139  26.178  16.185   2.419
70922W        W39140  21.930  25.604   3.872
70923W        W39141  16.118  18.209  13.114
70924W        W39142  16.053  39.553  13.535
70925W        W39143  12.297  42.257  13.588
70926W        W39144  10.121   0.762  14.477
70927W        W39145  33.434  13.520  11.475
70928W        W39146  42.342  22.559   3.733
70929W        W39147  23.706  17.963  11.995
70930W        W39148  19.515   7.649  11.649
70931W        W39149  10.599  22.703  13.167
70932W        W39150  19.897  13.515   4.003
70933W        W39151  10.233  43.650  13.080
70934W        W39152   3.322  22.574  13.023
70935W        W39153   7.606  40.633   2.623
70936W        W39154  31.387   9.793  12.958
70937W        W39155  18.128  26.555   4.142
70938W        W39156   3.798  38.259   3.863
70939W        W39157  11.338  15.102   3.107
70940W        W39158  44.938  20.504   3.181
70941W        W39159   6.242  23.868   3.122
70942W        W39160  34.114  27.724  14.838
70943W        W39161  28.421  35.323  14.781
70944W        W39162   8.779   5.292   1.213
70945W        W39163  11.607  26.585  11.846
70946W        W39164  20.264  13.982  11.053
70947W        W39165  41.718  32.231  10.152
70948W        W39166  13.208  43.203   4.898
70949W        W39167   3.295   7.723   1.517
70950W        W39168  25.521   2.817   0.361
70951W        W39169  28.374  17.615  12.372
70952W        W39170  30.857  42.746  13.523
70953W        W39171   4.599  36.625  10.045
70954W        W39172  17.843  14.732  14.762
70955W        W39173  28.433   3.295   4.475
70956W        W39174   8.310  36.947   4.578
70957W        W39175   0.947   5.934   0.375
70958W        W39176  38.973  15.821   1.404
70959W        W39177  15.841  21.325   2.222
70960W        W39178  28.164   1.346  14.316
70961W        W39179  21.665  31.317  13.869
70962W        W39180  37.703  19.065   1.434
70963W        W39181   5.164  40.834   2.686
70964W        W39182  10.957  31.067   0.970
70965W        W39183   6.632  37.759   2.813
70966W        W39184   5.331  29.644  12.897
70967W        W39185  10.947  32.032   2.313
70968W        W39186  36.357   1.006  11.987
70969W        W39187  13.263  33.092  11.244
70970W        W39188  12.650  37.197   3.846
70971W        W39189  42.712  10.957  11.564
70972W        W39190  40.494  24.963   2.827
70973W        W39191  22.901  18.050   1.935
70974W        W39192  22.482   9.080   4.279
70975W        W39193  24.220  32.834   4.248
70976W        W39194  23.221  29.041  12.632
70977W        W39195  17.645   4.236   3.135
70978W        W39196  20.459  25.271  10.340
70979W        W39197  37.566  17.070   2.241
70980W        W39198  15.762  37.271   1.830
70981W        W39199  16.499  31.742   2.780
70982W        W39200  11.177  26.731  14.405
70983W        W39201   2.570   8.967  11.229
70984W        W39202   6.390   5.781   3.719
70985W        W39203  39.687  14.987   2.213
70986W        W39204   4.844  42.747  14.907
70987W        W39205  35.874  44.883   3.716
70988W        W39206   9.383  40.354  10.199
70989W        W39207  36.942   3.798   2.822
70990W        W39208  37.446  19.460   0.831
70991W        W39209  24.675  22.903  12.052
70992W        W39210  27.146  24.726  13.991
70993W        W39211   3.384  13.748   4.076
70994W        W39212  22.599  19.670   4.609
70995W        W39213  28.549   1.175  11.526
70996W        W39214  22.143  11.411  14.802
70997W        W39215  24.943   6.712  14.734
70998W        W39216  14.596  23.556   0.777
70999W        W39217  36.492  10.984  12.404
71000W        W39218  28.708   7.920  14.488
71001W        W39219  38.637  22.695  14.291
71002W        W39220  42.424  13.825   1.928
71003W        W39221   3.686  44.493   5.028
71004W        W39222  21.277  33.831  10.593
71005W        W39223  18.767  27.079  14.822
71006W        W39224  17.197  17.241  14.004
71007W        W39225  14.010  10.655   0.003
71008W        W39226  11.407  40.396  11.070
71009W        W39227  20.968   5.536  12.763
71010W        W39228   0.243  29.934  11.125
71011W        W39229  17.066  28.774   4.938
71012W        W39230  10.641  27.651  14.408
71013W        W39231   9.609  10.557  11.143
71014W        W39232  17.183  19.683  13.062
71015W        W39233   7.358  11.790   0.740
71016W        W39234  40.404  13.321   3.195
71017W        W39235  37.985  15.130   3.113
71018W        W39236   2.157  10.865   0.004
71019W        W39237   6.833  18.508   2.466
71020W        W39238  31.102  33.537   2.764
71021W        W39239  20.827  23.007  14.743
71022W        W39240  21.567  30.629  13.453
71023W        W39241  21.495   7.146  14.808
71024W        W39242  20.250  33.461  14.906
71025W        W39243  38.371  38.831   2.882
71026W        W39244  39.506  35.044  10.760
71027W        W39245   6.359  35.322   4.775
71028W        W39246  11.352   1.537   2.414
71029W        W39247  19.576   1.937  14.878
71030W        W39248  38.456  35.444  12.452
71031W        W39249  11.075  36.961  12.456
71032W        W39250  11.419  39.284  14.884
71033W        W39251  31.631  30.220   3.452
71034W        W39252  16.193   4.721  14.902
71035W        W39253  19.217  20.595  10.453
71036W        W39254  10.055  30.967   3.406
71037W        W39255  30.685  38.374  12.198
71038W        W39256  29.402  20.515  12.150
71039W        W39257  13.653  44.141   2.840
71040W        W39258  27.466  11.987   0.993
71041W        W39259  35.436  10.149   0.419
71042W        W39260  33.077  18.039  11.950
71043W        W39261  30.390  30.643   3.823
71044W        W39262  41.990  37.872   0.262
71045W        W39263  21.215  12.807  10.659
71046W        W39264   4.799  15.752   1.650
71047W        W39265  39.466  17.922   2.328
71048W        W39266  40.351  24.163  11.176
71049W        W39267  27.527  42.524  11.544
71050W        W39268  44.424   3.515  14.455
71051W        W39269  40.892   3.229   0.390
71052W        W39270  41.086  26.176  13.239
71053W        W39271  29.962  31.399  11.464
71054W        W39272  34.656  19.712  14.600
71055W        W39273   8.208  28.403  11.105
71056W        W39274  20.061  11.165  11.642
71057W        W39275   2.502  34.004   1.911
71058W        W39276  36.193   6.363   1.991
71059W        W39277  29.294   5.082   1.779
71060W        W39278  36.229  21.672  13.207
71061W        W39279  36.463  16.772  14.436
71062W        W39280  20.050  33.140  12.556
71063W        W39281  38.475  40.591   0.392
71064W        W39282   8.500  34.116  11.690
71065W        W39283   7.289  16.063  11.238
71066W        W39284   3.126   0.034   3.158
71067W        W39285  29.883  43.624   4.119
71068W        W39286   2.664  32.504   2.828
71069W        W39287  33.579   6.648  12.971
71070W        W39288  16.764  44.489   2.219
71071W        W39289  22.548  28.935   1.129
71072W        W39290  16.775  18.898  10.501
71073W        W39291  24.795  26.369  11.032
71074W        W39292  31.493   4.936   2.826
71075W        W39293   4.718  38.834  13.273
71076W        W39294  36.977   6.129   4.492
71077W        W39295  11.010  36.630  11.687
71078W        W39296   8.779  22.707   4.507
71079W        W39297  20.788  14.301   5.516
71080W        W39298  29.415  13.619  12.350
71081W        W39299  15.416  21.689   1.119
71082W        W39300   1.581  18.667  10.794
71083W        W39301  43.730  41.461   3.260
71084W        W39302  21.685   8.867   5.028
71085W        W39303   2.400  30.875  13.123
71086W        W39304  14.775  33.945   4.997
71087W        W39305  15.749  31.021  12.104
71088W        W39306   1.376  41.350   3.363
71089W        W39307  23.215  25.115   1.452
71090W        W39308  43.408  13.677  10.297
71091W        W39309   4.524   2.501   0.776
71092W        W39310  37.304  29.040   3.594
71093W        W39311  11.884   8.177   3.581
71094W        W39312  32.428  26.943  11.986
71095W        W39313  42.510   4.720  10.258
71096W        W39314   1.487  34.555  10.519
71097W        W39315  29.845  43.905  12.940
71098W        W39316   8.199  24.978  10.644
71099W        W39317   0.405   4.320   3.537
71100W        W39318  20.160  19.678   1.174
71101W        W39319   3.819  33.606   0.370
71102W        W39320  30.736  44.329  11.312
71103W        W39321  13.974  26.952   1.368
71104W        W39322  24.779   0.961   3.310
71105W        W39323  16.035  24.127  11.918
71106W        W39324  43.780  13.253   1.663
71107W        W39325  11.795   1.712   0.725
71108W        W39326  36.435  21.153  12.048
71109W        W39327  11.167   5.286   4.737
71110W        W39328  25.195  34.232  14.958
71111W        W39329   8.503   9.668  14.532
71112W        W39330  28.558  40.460  14.323
71113W        W39331  19.491  40.353  10.950
71114W        W39332  16.132  18.851   3.305
71115W        W39333  11.726  24.545  13.319
71116W        W39334   2.825  14.311  11.756
71117W        W39335   5.431   5.969  12.087
71118W        W39336  41.019  25.272   3.421
71119W        W39337   3.865  10.569   2.685
71120W        W39338  28.487  41.225  14.838
71121W        W39339   1.253   9.768   3.593
71122W        W39340   3.097  20.029  11.114
71123W        W39341  21.491  21.226  10.572
71124W        W39342  20.638  33.539  13.477
71125W        W39343  29.359  10.893  14.485
71126W        W39344   2.649   6.248  13.535
71127W        W39345  36.156  33.068  12.874
71128W        W39346  20.243  37.308   2.295
71129W        W39347   4.091  24.103   3.903
71130W        W39348  41.816  37.836   3.571
71131W        W39349   3.191  28.171   0.939
71132W        W39350  43.705  23.781   2.863
71133W        W39351   4.420   1.002   4.492
71134W        W39352  23.600   6.979   4.636
71135W        W39353   1.961  23.626  11.167
71136W        W39354  26.198   6.267   0.854
71137W        W39355  23.169  32.065  14.924
71138W        W39356   8.639  24.123  10.411
71139W        W39357  39.322  41.799   3.212
71140W        W39358   3.425  26.137   2.054
71141W        W39359  25.143  30.723   1.314
71142W        W39360  43.995  13.159   3.665
71143W        W39361  21.809  44.449  13.071
71144W        W39362  32.269  23.734   1.089
71145W        W39363  43.512  24.125   1.161
71146W        W39364  34.660  11.198   2.713
71147W        W39365   5.421  12.211  14.208
71148W        W39366  37.390  33.430   3.287
71149W        W39367   4.898  27.957   4.136
71150W        W39368  22.529   5.312  10.653
71151W        W39369   0.755  28.716   0.866
71152W        W39370  41.281  12.151   3.573
71153W        W39371  44.851  41.083  11.567
71154W        W39372  18.683  37.403   3.188
71155W        W39373  33.043  12.343  13.859
71156W        W39374  31.516  11.311  14.726
71157W        W39375  19.773  24.146   1.245
71158W        W39376  17.726  39.325   2.736
71159W        W39377   4.997  18.795   0.030
71160W        W39378   0.034   6.444   2.792
71161W        W39379   1.804   2.744   4.759
71162W        W39380  40.511  34.169  11.470
71163W        W39381  41.820   3.845  11.472
71164W        W39382   7.841   3.916   2.847
71165W        W39383  32.524  23.980  13.056
71166W        W39384  10.329   8.639  12.610
71167W        W39385  13.058   2.524   0.811
71168W        W39386  22.676  41.147   2.224
71169W        W39387  34.352  37.024   0.009
71170W        W39388  27.640  42.481   4.185
71171W        W39389  19.553  31.865   4.926
71172W        W39390  42.504  18.486   2.629
71173W        W39391   0.457  11.575   4.713
71174W        W39392  19.467  16.776  10.170
71175W        W39393   8.228   8.187   3.745
71176W        W39394  15.672  18.623  14.831
71177W        W39395  35.621  12.932  14.805
71178W        W39396  16.702   1.999  10.985
71179W        W39397  18.146  31.120  14.462
71180W        W39398  37.412   7.158   0.928
71181W        W39399   2.004  10.111   3.328
71182W        W39400  15.353   4.941  13.911
71183W        W39401  34.465   7.367   1.840
71184W        W39402   9.860   3.248   1.373
71185W        W39403  32.538  37.056   2.733
71186W        W39404  29.516  20.761  14.379
71187W        W39405  13.235  24.094   3.526
71188W        W39406   1.698  14.094  13.318
71189W        W39407  41.422  26.053   2.230
71190W        W39408  33.594  17.810  14.484
71191W        W39409  39.472  40.860  11.797
71192W        W39410  32.234  42.993  11.504
71193W        W39411  28.889  36.870   1.953
71194W        W39412   4.278   7.458  14.390
71195W        W39413  42.445  32.933  11.585
71196W        W39414  34.380  38.759   5.063
71197W        W39415  32.587   3.308  12.450
71198W        W39416   0.314  22.829   3.061
71199W        W39417  16.282  17.219   0.190
71200W        W39418   1.599  39.776   1.264
71201W        W39419  17.725  35.232   2.302
71202W        W39420   7.400  23.008   4.161
71203W        W39421  14.120  29.174   4.171
71204W        W39422  18.604  40.329   0.370
71205W        W39423  22.325  44.324  12.198
71206W        W39424  44.908  26.472  10.611
71207W        W39425  16.988  42.574  10.475
71208W        W39426   9.367   9.205  11.492
71209W        W39427  26.856  17.278   1.857
71210W        W39428  34.827  17.991   2.467
71211W        W39429   2.286  36.905  10.614
71212W        W39430  12.421  27.507  11.085
71213W        W39431  19.077  31.635   0.274
71214W        W39432  29.069  40.721   1.044
71215W        W39433  15.164  39.008   4.650
71216W        W39434  18.780  35.631  12.039
71217W        W39435   8.353   6.417  12.678
71218W        W39436  21.486  19.230  10.770
71219W        W39437  20.668  39.571   3.219
71220W        W39438  10.023  35.028   4.191
71221W        W39439  17.207  31.096  11.849
71222W        W39440  10.238   6.150   3.157
71223W        W39441   6.296   3.126  14.995
71224W        W39442  24.821   1.674  12.819
71225W        W39443   1.828  42.565   3.889
71226W        W39444   9.767   2.617  12.469
71227W        W39445  14.353   4.214  10.647
71228W        W39446   6.312  20.329   0.440
71229W        W39447  19.525  10.778  10.593
71230W        W39448  29.723  22.589  10.088
71231W        W39449   0.124  30.335   4.587
71232W        W39450   4.551  22.683  14.646
71233W        W39451  20.627   5.294   2.124
71234W        W39452   0.474   0.873   1.703
71235W        W39453  44.254  18.282  13.427
71236W        W39454  13.818  29.440   1.475
71237W        W39455  28.152   0.707   4.243
71238W        W39456  25.026  25.794  12.813
71239W        W39457  29.192   0.829  12.804
71240W        W39458  40.808   0.495   4.531
71241W        W39459  38.468  26.171   3.907
71242W        W39460  30.763   9.759  14.122
71243W        W39461  42.099  23.082  10.967
71244W        W39462  22.812  36.006  13.928
71245W        W39463  38.954   1.080  11.675
71246W        W39464  17.655  25.010  11.515
71247W        W39465  19.656  16.652  10.676
71248W        W39466  11.684   1.474  13.875
71249W        W39467  38.578  36.319   0.462
71250W        W39468   2.095  23.333  11.589
71251W        W39469   5.036   5.944  10.797
71252W        W39470  14.581  13.679  12.355
71253W        W39471  28.492  39.134  11.160
71254W        W39472  29.378   0.003  13.800
71255W        W39473  19.601  43.886  13.311
71256W        W39474  30.664   0.160  13.805
71257W        W39475  18.751  34.784  13.990
71258W        W39476  44.226  42.897   4.283
71259W        W39477  35.076   0.789  14.894
71260W        W39478  26.747  31.681   3.245
71261W        W39479  19.317  21.519  11.120
71262W        W39480  14.793   7.461  12.521
71263W        W39481  35.093   6.388   4.188
71264W        W39482   2.203  26.935  14.320
71265W        W39483  35.018   2.451   1.463
71266W        W39484   8.394  21.350   2.858
71267W        W39485   8.140  20.193   2.478
71268W        W39486  12.210   2.970   1.739
71269W        W39487  43.240  25.527   2.017
71270W        W39488  29.193  28.834  14.515
71271W        W39489   5.689   8.184  14.765
71272W        W39490   1.478  32.867  11.583
71273W        W39491  25.104  30.074  13.601
71274W        W39492   9.949  21.206   2.188
71275W        W39493  25.051  26.415  12.701
71276W        W39494  34.318  41.247   1.402
71277W        W39495  16.599  24.519  11.184
71278W        W39496  12.533  24.539   2.452
71279W        W39497  17.015   8.905   0.912
71280W        W39498  29.423  35.946  13.460
71281W        W39499   7.876  40.667   0.929
71282W        W39500  43.082   9.745   0.899
71283W        W39501  21.821  11.416  12.530
71284W        W39502   2.821   7.232   0.723
71285W        W39503  35.486  16.510   2.632
71286W        W39504  11.097   6.919  12.743
71287W        W39505   3.975  27.614   0.864
71288W        W39506   2.208  19.646   4.278
71289W        W39507  17.152  21.492  13.885
71290W        W39508  30.004   9.016   4.449
71291W        W39509  31.644   3.313   3.361
71292W        W39510  13.525  14.666  12.938
71293W        W39511   9.396   9.264  10.747
71294W        W39512   6.471  31.690   3.961
71295W        W39513  44.280  22.086   1.324
71296W        W39514   2.376  27.007   4.039
71297W        W39515  22.813  23.058   2.232
71298W        W39516  23.884  36.078   1.404
71299W        W39517   1.249  33.547   4.135
71300W        W39518   5.443  40.795   3.111
71301W        W39519  44.838   6.444  12.442
71302W        W39520  27.614   1.830  12.254
71303W        W39521  15.515  39.919  14.814
71304W        W39522  15.878  10.784  10.258
71305W        W39523  29.792  18.171  14.489
71306W        W39524  31.376   5.932  12.374
71307W        W39525  41.296  33.621  12.405
71308W        W39526  17.987  13.894  13.830
71309W        W39527  16.712   0.490   5.105
71310W        W39528  21.224  31.971   2.340
71311W        W39529  22.725  42.337   3.117
71312W        W39530   2.789  24.565  12.663
71313W        W39531   2.476  10.173  14.906
71314W        W39532  14.586  32.558  13.815
71315W        W39533  12.612  43.001  14.428
71316W        W39534   8.537  30.528  12.222
71317W        W39535  36.306   6.351  12.105
71318W        W39536  11.611  42.012   1.286
71319W        W39537  39.455   0.550   2.376
71320W        W39538  10.376  18.116  11.575
71321W        W39539  16.817  39.800   3.049
71322W        W39540  18.111  10.639  14.354
71323W        W39541  44.854  43.998  10.593
71324W        W39542  26.548   2.609   1.389
71325W        W39543  43.115   1.261   2.339
71326W        W39544  14.332  15.922  13.867
71327W        W39545  44.491  30.302   3.384
71328W        W39546  10.934   0.875   3.628
71329W        W39547  14.139  16.200   1.630
71330W        W39548  36.438  31.146   1.853
71331W        W39549  44.366   7.330   1.277
71332W        W39550  14.678  29.824   3.441
71333W        W39551  31.306  14.178  11.254
71334W        W39552  25.391  26.131  13.007
71335W        W39553  31.880   8.285  14.831
71336W        W39554  44.980   3.008  12.835
71337W        W39555   5.759  28.064   0.761
71338W        W39556  15.476   8.243   2.757
71339W        W39557  17.600  29.045   0.191
71340W        W39558  17.674  43.296   4.388
71341W        W39559  40.039  17.241   2.521
71342W        W39560  25.197  23.364  11.536
71343W        W39561  31.990  15.009   1.480
71344W        W39562  14.537  21.684   3.111
71345W        W39563   3.166  21.173  12.613
71346W        W39564  39.874  20.992   5.067
71347W        W39565  38.821  27.205  14.784
71348W        W39566  35.079  18.565  13.741
71349W        W39567  29.474   1.911  12.004
71350W        W39568  31.590  34.145   3.891
71351W        W39569   8.129  40.405  11.148
71352W        W39570  30.045  34.430   4.089
71353W        W39571  11.857  19.451  11.438
71354W        W39572  28.171  10.053   4.155
71355W        W39573  17.761  30.071  12.394
71356W        W39574  13.741  35.655  13.323
71357W        W39575  42.401  37.903   2.161
71358W        W39576  26.528  10.752  10.965
71359W        W39577   0.785  37.507   2.653
71360W        W39578  18.774  10.237  12.693
71361W        W39579  29.114  31.405   3.190
71362W        W39580   7.865  37.091  13.806
71363W        W39581  14.537  15.265   1.383
71364W        W39582   0.822  18.573  14.917
71365W        W39583  14.411  24.246  12.600
71366W        W39584  44.936   0.455   0.516
71367W        W39585   0.320  31.957  14.111
71368W        W39586  22.507  38.757  10.046
71369W        W39587   2.245  43.385  12.572
71370W        W39588  25.551  43.144   2.859
71371W        W39589  33.290  24.531  13.135
71372W        W39590   1.763  13.875   0.901
71373W        W39591   4.939  29.750  14.329
71374W        W39592   7.579  19.852  10.093
71375W        W39593  10.720  25.695   0.096
71376W        W39594  24.584   5.128   2.131
71377W        W39595  18.282  31.436   0.735
71378W        W39596  19.122   0.675   3.137
71379W        W39597  43.481  42.581  11.512
71380W        W39598  18.758  22.678   4.970
71381W        W39599   3.554   8.664   4.689
71382W        W39600  32.441  38.914  14.362
71383W        W39601   8.187  37.467  13.043
71384W        W39602  44.568  32.614  13.711
71385W        W39603  19.019   1.854  10.836
71386W        W39604   7.406  26.565   3.374
71387W        W39605  33.020  29.026  14.998
71388W        W39606  15.343  39.776   2.921
71389W        W39607  41.996  43.924   0.386
71390W        W39608  43.399  39.273  12.833
71391W        W39609  43.955  35.693   2.315
71392W        W39610  36.399  22.999   1.490
71393W        W39611   6.322   3.308  13.553
71394W        W39612  12.370   3.325   1.320
71395W        W39613  31.881  33.413  11.119
71396W        W39614  42.722  43.423   2.723
71397W        W39615  32.104  27.505   0.260
71398W        W39616  31.065  33.386   1.730
71399W        W39617  26.259   4.980  13.798
71400W        W39618  43.771   8.232   4.252
71401W        W39619   4.800  24.649  13.424
71402W        W39620  22.517  44.043   3.675
71403W        W39621  39.274  41.464   2.706
71404W        W39622   3.275  20.254   2.338
71405W        W39623  22.537  22.454  11.160
71406W        W39624   5.860  44.497  14.267
71407W        W39625  43.912  22.895  10.944
71408W        W39626  27.306   3.880   0.372
71409W        W39627  35.824  30.566   1.564
71410W        W39628  13.233   2.264  11.630
71411W        W39629  14.249  38.723   4.534
71412W        W39630  16.692  19.713   4.791
71413W        W39631  14.902  34.866   4.136
71414W        W39632   2.723  19.041   2.114
71415W        W39633  36.908  40.246   1.784
71416W        W39634  11.152  35.620   3.637
71417W        W39635  15.376   1.210  11.076
71418W        W39636   7.438   4.928   3.791
71419W        W39637   9.706  17.152   1.953
71420W        W39638  39.529   1.197   1.007
71421W        W39639   5.235  28.841   2.957
71422W        W39640  18.383   5.731   1.099
71423W        W39641  30.938  21.729   4.661
71424W        W39642  10.695  17.310   1.870
71425W        W39643  38.897  34.412  11.671
71426W        W39644  30.212  31.788  14.051
71427W        W39645  38.939   0.772   2.469
71428W        W39646  41.075  32.890  14.008
71429W        W39647  39.832  39.343  14.261
71430W        W39648  27.362  31.754   1.768
71431W        W39649   6.927   6.435  13.557
71432W        W39650   8.675   4.703  12.505
71433W        W39651  12.021  24.718  11.588
71434W        W39652  14.749  17.224   1.217
71435W        W39653  20.393  19.266   2.825
71436W        W39654  23.125  16.838  13.360
71437W        W39655  15.559   1.272  13.413
71438W        W39656  42.201  24.682   3.123
71439W        W39657  22.864  26.569  14.744
71440W        W39658   5.796   8.871   3.712
71441W        W39659   9.640  38.860  10.704
71442W        W39660  33.381   3.457   2.759
71443W        W39661   7.821  32.559   4.741
71444W        W39662   7.818  38.915  13.532
71445W        W39663  40.154   4.056   4.661
71446W        W39664  22.979  21.059  12.007
71447W        W39665  43.140  36.579   3.302
71448W        W39666  21.070  26.201  10.612
71449W        W39667  18.189   3.508   4.242
71450W        W39668  43.061   2.448  12.756
71451W        W39669  20.573  31.289   0.238
71452W        W39670  26.083  43.484  14.701
71453W        W39671  44.303  27.327   3.313
71454W        W39672   2.620  23.134  12.985
71455W        W39673  39.424  31.380  12.377
71456W        W39674  34.726  15.053   2.062
71457W        W39675  34.360  40.116  13.510
71458W        W39676  19.589  34.411   3.214
71459W        W39677  31.364  33.890  12.058
71460W        W39678   0.898  14.903  12.395
71461W        W39679  35.331  31.420   3.936
71462W        W39680  41.397   8.541  12.073
71463W        W39681  14.368  30.388   3.743
71464W        W39682  21.415  19.624   3.200
71465W        W39683  24.411  29.095  11.792
71466W        W39684   9.166  32.488  14.548
71467W        W39685  13.604  36.826   1.400
71468W        W39686  28.433  31.895  14.457
71469W        W39687  14.204  29.415   1.833
71470W        W39688   2.546  24.638  14.198
71471W        W39689   3.944  32.508   3.297
71472W        W39690  28.052  19.258  11.464
71473W        W39691   8.909  40.044  14.360
71474W        W39692  11.993  12.705  14.934
71475W        W39693  37.555  35.071  12.976
71476W        W39694  42.875  35.500   1.514
71477W        W39695  34.609  14.014  13.535
71478W        W39696  17.652  44.484  11.179
71479W        W39697  39.139  21.207   3.611
71480W        W39698  13.164   7.789   4.879
71481W        W39699  16.842  29.021   1.691
71482W        W39700  25.915   8.338  12.872
71483W        W39701   8.652   2.751  11.920
71484W        W39702   2.177  36.432   3.712
71485W        W39703  32.904  14.123   3.195
71486W        W39704  30.696   4.984   0.215
71487W        W39705  38.454  42.710   2.215
71488W        W39706  29.724  17.130   2.179
71489W        W39707  17.654  38.744   3.816
71490W        W39708  29.919  14.267   0.058
71491W        W39709  21.929  34.458   0.924
71492W        W39710  44.783  27.701  14.839
71493W        W39711   7.636  29.544   0.084
71494W        W39712   1.446  21.921  13.478
71495W        W39713  20.478  12.947  11.048
71496W        W39714  19.094   9.748   1.700
71497W        W39715  25.659  29.553   1.873
71498W        W39716  14.799   4.434   2.628
71499W        W39717  10.990  23.423   1.239
71500W        W39718  28.155   8.784   0.697
71501W        W39719  34.252  17.819   4.030
71502W        W39720  38.420   0.832   4.630
71503W        W39721  33.344  19.692   1.569
71504W        W39722  38.864  35.094  13.978
71505W        W39723  19.986  17.835  12.511
71506W        W39724  29.100  32.604  14.893
71507W        W39725  20.818  27.716  13.779
71508W        W39726  17.087  43.442   0.751
71509W        W39727  13.311  11.357   5.325
71510W        W39728   7.665   7.867   0.768
71511W        W39729  26.843  15.183  14.002
71512W        W39730  18.798  32.100  12.179
71513W        W39731  36.436  37.874   2.419
71514W        W39732   9.595  28.332  11.299
71515W        W39733  34.273  33.938  12.998
71516W        W39734  27.002  37.299   0.901
71517W        W39735  11.820  32.191   4.543
71518W        W39736   0.452  16.569   1.685
71519W        W39737  20.565   4.345  11.635
71520W        W39738  29.135   5.632   2.581
71521W        W39739  16.372  40.125  10.766
71522W        W39740   0.276  36.581   0.455
71523W        W39741  24.473  38.429   2.775
71524W        W39742  29.139  28.614  11.062
71525W        W39743  40.346   8.814  11.814
71526W        W39744  37.236   0.038   2.325
71527W        W39745  41.506  29.645   4.740
71528W        W39746  23.059  16.895   2.558
71529W        W39747   8.289  15.328   4.149
71530W        W39748  20.184  37.521   3.881
71531W        W39749  30.231  13.086   4.555
71532W        W39750  24.501   2.461   2.701
71533W        W39751  29.572  32.192  11.563
71534W        W39752  20.949  25.650  11.552
71535W        W39753  15.396  11.510   4.342
71536W        W39754  15.350  35.151   4.159
71537W        W39755  24.044  43.137  13.892
71538W        W39756  27.518  39.321  11.238
71539W        W39757  15.212  31.874   0.970
71540W        W39758  37.437  32.878   1.776
71541W        W39759  32.081  43.421   3.729
71542W        W39760  39.655  25.105   4.198
71543W        W39761   2.373  37.307  13.318
71544W        W39762  28.955  25.947  14.438
71545W        W39763  19.957   4.127   3.674
71546W        W39764  39.392  33.454   0.053
71547W        W39765  20.644  10.576   2.817
71548W        W39766  24.298  18.197   4.157
71549W        W39767  29.572  22.154  14.889
71550W        W39768  41.779  10.994   0.290
71551W        W39769  36.059  42.751  13.899
71552W        W39770  36.412  38.004   1.916
71553W        W39771  14.905  38.532  12.151
71554W        W39772  12.490  33.898   3.965
71555W        W39773  11.731  30.218   2.956
71556W        W39774  18.626  16.959  11.669
71557W        W39775  24.155   7.384  12.020
71558W        W39776  30.654  11.400   4.545
71559W        W39777  26.920  13.088  13.928
71560W        W39778  23.495   1.013  11.084
71561W        W39779  20.339  10.163   3.885
71562W        W39780  36.191  26.708   2.243
71563W        W39781   9.627   5.553  10.690
71564W        W39782  20.959  37.870  14.790
71565W        W39783  16.524   0.757   3.733
71566W        W39784  13.148  44.460  12.804
71567W        W39785  23.627   6.810   3.243
71568W        W39786  28.916  42.816  13.431
71569W        W39787  36.796   5.524  12.981
71570W        W39788  32.842  29.146   1.012
71571W        W39789   0.644  25.617  12.685
71572W        W39790  14.322  15.699  14.743
71573W        W39791  42.470  44.685  11.141
71574W        W39792  39.731  43.332   1.726
71575W        W39793  43.286   9.198   0.062
71576W        W39794  43.018   3.033   1.847
71577W        W39795   6.915  30.289   4.106
71578W        W39796  12.581  26.523  14.315
71579W        W39797  44.902  15.554  12.800
71580W        W39798  25.745   7.763   3.052
71581W        W39799  42.021   3.262   0.901
71582W        W39800  11.878  11.086   0.311
71583W        W39801  21.567   8.401   1.897
71584W        W39802   6.668  37.384   1.787
71585W        W39803  25.119   4.272  13.946
71586W        W39804  27.161  44.676   0.988
71587W        W39805  12.719  18.833   0.858
71588W        W39806  25.078  43.926   3.017
71589W        W39807  27.981  15.174  10.824
71590W        W39808   1.288  37.346   2.615
71591W        W39809  40.560  10.735  14.972
71592W        W39810  27.158  23.433  10.750
71593W        W39811  22.590  13.288   0.792
71594W        W39812  28.942  40.440   0.233
71595W        W39813  25.520  44.271  14.921
71596W        W39814  19.422  40.711   2.777
71597W        W39815  15.288  31.139   4.454
71598W        W39816  15.074  44.989   0.708
71599W        W39817  22.021  44.717  13.489
71600W        W39818  11.444  14.115  14.279
71601W        W39819  19.784   4.853  12.236
71602W        W39820  15.756  14.311  11.376
71603W        W39821  42.005  14.057   1.682
71604W        W39822  22.305  18.803  14.667
71605W        W39823  12.161  44.426   2.596
71606W        W39824   9.899  12.809   0.751
71607W        W39825   4.698  10.554   4.091
71608W        W39826  26.653  41.333  13.568
71609W        W39827  23.053  10.182  12.405
71610W        W39828  29.369   0.203  11.591
71611W        W39829  37.408  44.348   0.078
71612W        W39830  17.153  16.250   4.694
71613W        W39831   5.256  42.005   3.602
71614W        W39832  39.948  13.375   0.032
71615W        W39833  44.470  24.550   4.498
71616W        W39834  33.707   6.644   2.485
71617W        W39835  13.751   9.172   1.534
71618W        W39836  10.501  12.035   4.035
71619W        W39837   9.246  20.128  13.307
71620W        W39838   0.203   8.352  13.380
71621W        W39839  39.008   2.975  12.954
71622W        W39840  44.267   6.081  10.884
71623W        W39841  25.356   4.818   3.637
71624W        W39842  12.668   2.024  14.789
71625W        W39843  11.356  33.495   3.542
71626W        W39844  43.513  31.272  13.323
71627W        W39845  39.042  19.768  10.530
71628W        W39846   6.849  27.292   3.016
71629W        W39847   3.311  22.739   3.264
71630W        W39848  12.660  32.558   4.302
71631W        W39849   1.027   5.487  13.539
71632W        W39850  17.146  14.120  11.296
71633W        W39851  10.876  40.377  10.705
71634W        W39852  44.107   4.864  12.147
71635W        W39853  20.672   0.486   4.393
71636W        W39854  16.017  28.022   3.603
71637W        W39855   3.836   9.779  12.344
71638W        W39856  41.601   2.993  12.918
71639W        W39857  25.542  42.666   2.725
71640W        W39858  26.543  40.000  11.639
71641W        W39859  10.467   9.068  10.485
71642W        W39860  40.447  38.946  12.622
71643W        W39861  26.461  13.282   1.631
71644W        W39862  25.581  35.390   4.471
71645W        W39863  20.750  15.694   1.778
71646W        W39864  12.928  14.271  11.239
71647W        W39865   0.002  35.602  11.923
71648W        W39866   8.663  43.361   1.716
71649W        W39867   7.903  27.227  11.853
71650W        W39868  23.723  13.145   2.404
71651W        W39869  33.670  22.647  13.077
71652W        W39870   0.930  13.962  13.854
71653W        W39871   2.346  19.014  11.629
71654W        W39872  22.116  39.291  12.010
71655W        W39873  11.140  37.364   3.174
71656W        W39874  22.511  33.177   3.165
71657W        W39875  34.361   9.882   3.733
71658W        W39876  35.067  39.469  14.494
71659W        W39877  21.558  27.966   0.310
71660W        W39878  29.067  19.501   4.786
71661W        W39879  26.139  38.036  14.819
71662W        W39880  13.600  27.543   3.763
71663W        W39881  40.975   1.314   2.802
71664W        W39882   2.480   6.139  11.235
71665W        W39883  43.952  24.272   3.725
71666W        W39884   3.353  25.001  10.708
71667W        W39885   4.819  39.371  12.562
71668W        W39886   4.297   6.225  13.836
71669W        W39887  36.504  23.589  11.924
71670W        W39888   9.301  26.691  13.445
71671W        W39889  11.440  19.607  11.167
71672W        W39890  11.837  39.128   0.217
71673W        W39891  27.272  15.110   1.697
71674W        W39892   4.413  15.737  12.518
71675W        W39893  34.452  40.042   0.933
71676W        W39894  16.805   1.823   9.715
71677W        W39895  35.136  25.120   3.227
71678W        W39896   0.550  35.028  12.474
71679W        W39897  32.298  17.704   2.960
71680W        W39898  35.228  42.294   0.711
71681W        W39899  39.128  33.307   2.712
71682W        W39900  42.397  16.791  14.055
71683W        W39901  12.783  18.389   1.801
71684W        W39902  12.561   0.305   2.437
71685W        W39903  30.759  16.149  12.568
71686W        W39904  14.231  35.729  13.549
71687W        W39905  27.157  20.633   2.288
71688W        W39906  32.020  34.913  11.015
71689W        W39907   9.824  22.790   1.351
71690W        W39908  43.973  26.155   3.718
71691W        W39909  33.833  10.346   1.169
71692W        W39910  22.500   8.914   3.240
71693W        W39911   0.202   9.613  12.894
71694W        W39912  17.963  43.758  12.968
71695W        W39913  39.265  23.049   3.422
71696W        W39914   2.692  18.292  11.147
71697W        W39915  30.517  32.001   3.246
71698W        W39916   0.343  15.013   4.804
71699W        W39917  21.419  17.856   0.819
71700W        W39918  13.888  19.929   0.430
71701W        W39919  28.927  18.252   5.064
71702W        W39920  17.848  25.450  12.986
71703W        W39921  31.197   3.854   4.050
71704W        W39922  35.625  38.471  12.940
71705W        W39923  35.268  36.612   4.649
71706W        W39924  20.921  42.796  10.465
71707W        W39925   9.723  12.815   4.722
71708W        W39926  14.861  25.178   4.191
71709W        W39927  42.700  11.629   2.858
71710W        W39928   4.895  44.437   2.681
71711W        W39929  20.080  39.096   4.346
71712W        W39930  10.190  25.726   0.415
71713W        W39931  26.697  16.605  13.332
71714W        W39932  32.032  21.842   0.296
71715W        W39933  30.371   4.430   4.110
71716W        W39934  14.620  29.702  14.294
71717W        W39935   4.531  33.207  10.692
71718W        W39936  11.313  40.956  13.583
71719W        W39937  12.640  35.054   1.936
71720W        W39938   9.855   9.763  14.931
71721W        W39939  15.669  34.226   2.237
71722W        W39940  35.951  23.965   0.101
71723W        W39941  43.498  27.427  13.027
71724W        W39942  18.442  14.532   1.510
71725W        W39943  38.221  30.475  12.717
71726W        W39944   3.471  19.524   0.074
71727W        W39945  28.422  12.734   4.164
71728W        W39946  35.289  40.068  12.501
71729W        W39947  18.787  35.034  14.455
71730W        W39948  31.345  18.095  12.668
71731W        W39949   6.240   9.411  11.688
71732W        W39950  40.787  24.470   0.426
71733W        W39951   2.696  17.063   1.303
71734W        W39952  39.420   4.658   0.935
71735W        W39953   1.332   4.187  11.969
71736W        W39954   3.240  16.859  10.407
71737W        W39955  19.806  14.124   0.704
71738W        W39956  43.414  17.810  13.693
71739W        W39957  44.835  17.882  11.518
71740W        W39958  14.683   5.152   4.087
71741W        W39959  27.118  12.350  14.734
71742W        W39960  11.668  15.737   4.385
71743W        W39961  25.495   9.498   1.018
71744W        W39962  34.941   3.088   3.724
71745W        W39963  12.448  18.111  10.703
71746W        W39964  35.556   0.233  11.985
71747W        W39965  36.189  39.972  14.534
71748W        W39966   8.699  24.420   1.871
71749W        W39967   6.451  18.860   3.142
71750W        W39968  11.098   4.519  13.688
71751W        W39969  31.946   7.304  14.373
71752W        W39970  11.328  21.771   0.380
71753W        W39971  14.326  15.190  11.451
71754W        W39972  44.326  27.994   1.349
71755W        W39973  29.975  12.244  12.677
71756W        W39974  25.384   3.673   0.148
71757W        W39975  25.271  41.763  11.952
71758W        W39976  21.697  33.707  12.337
71759W        W39977  26.967  35.346   0.828
71760W        W39978  39.376   8.824   0.766
71761W        W39979  35.541  14.517  13.966
71762W        W39980  27.583  21.131   3.619
71763W        W39981  43.270  32.465  14.281
71764W        W39982  28.162   0.371   3.415
71765W        W39983   3.696  10.348   1.931
71766W        W39984  10.329  26.182  11.244
71767W        W39985   8.373  40.539   1.076
71768W        W39986  42.444  15.779  14.859
71769W        W39987   1.657  36.886   0.908
71770W        W39988  14.700  31.862   0.811
71771W        W39989  39.895  11.276   0.029
71772W        W39990  34.223  16.135   2.717
71773W        W39991  17.815  43.032  13.560
71774W        W39992  30.540  14.866  10.496
71775W        W39993   9.039  30.646   4.197
71776W        W39994  11.857  17.012  12.489
71777W        W39995   9.602  43.320   4.040
71778W        W39996  37.311  41.612   1.658
71779W        W39997  42.058  22.105  10.654
71780W        W39998  33.339  44.213   0.734
71781W        W39999  40.976  20.451  10.811
71782W        W40000  35.598  31.938   4.089
71783W        W40001  35.536  30.492  12.399
71784W        W40002  31.558  16.158   0.231
71785W        W40003  15.063   1.990   4.198
71786W        W40004   0.356  19.036   4.060
71787W        W40005  14.854   8.264  14.374
71788W        W40006  14.197   8.726   4.023
71789W        W40007  15.685  16.386  13.093
71790W        W40008  26.194  36.520   2.108
71791W        W40009   8.067  32.312   1.810
71792W        W40010  36.355  34.421  12.919
71793W        W40011  37.150  41.985  12.048
71794W        W40012  36.617  15.972   4.978
71795W        W40013  34.690  33.053  11.210
71796W        W40014   9.748  41.634  12.880
71797W        W40015  13.368  24.544   0.843
71798W        W40016  10.258  36.328  11.401
71799W        W40017  20.882   8.933   2.409
71800W        W40018  22.767  11.246   2.389
71801W        W40019  26.896   4.317  13.896
71802W        W40020  36.312  29.163  14.848
71803W        W40021   4.832  35.245   2.139
71804W        W40022  16.618  11.285  13.986
71805W        W40023  32.486   6.755  14.101
71806W        W40024  20.786  42.415   5.088
71807W        W40025  30.456  37.314  10.427
71808W        W40026  14.528   7.655  12.979
71809W        W40027  14.601  31.548   1.699
71810W        W40028   3.455  33.109   5.197
71811W        W40029  20.056  20.538  12.547
71812W        W40030  21.227  18.655  14.745
71813W        W40031  39.495  24.003   1.273
71814W        W40032  31.146  35.829  13.455
71815W        W40033  43.858   2.066   1.028
71816W        W40034  15.229  40.257   1.291
71817W        W40035   6.319  24.162   2.188
71818W        W40036   9.274  42.680  12.364
71819W        W40037  29.048  33.761  14.433
71820W        W40038  19.632  23.669   1.432
71821W        W40039  30.669  30.261  11.730
71822W        W40040  20.034   8.466  13.819
71823W        W40041  12.190  21.605  12.425
71824W        W40042  26.471  12.372  13.567
71825W        W40043  26.264  36.965   2.913
71826W        W40044  36.506  39.977   3.727
71827W        W40045  32.360  32.324   3.756
71828W        W40046   2.339  12.218  12.412
71829W        W40047  39.494  29.977   4.619
71830W        W40048  33.746  12.881   2.368
71831W        W40049   4.134  17.596  13.048
71832W        W40050   5.699  11.234   3.713
71833W        W40051   8.225  23.540   2.372
71834W        W40052  16.829   1.848   0.795
71835W        W40053  44.830  42.429  13.801
71836W        W40054  35.268   7.608  13.980
71837W        W40055  27.772  28.079   4.154
71838W        W40056  17.398   9.769  12.445
71839W        W40057  33.706  10.647  13.360
71840W        W40058  32.918   7.324  13.993
71841W        W40059   9.740  34.608  10.575
71842W        W40060  13.835  38.574   3.293
71843W        W40061  16.584  12.148   3.800
71844W        W40062  33.477  39.454  12.814
71845W        W40063  41.424   8.872   3.244
71846W        W40064   7.407  28.034  11.473
71847W        W40065  22.611  19.522  12.082
71848W        W40066  39.357  13.866  12.490
71849W        W40067  10.183   6.319  10.477
71850W        W40068  26.131  28.218  13.553
71851W        W40069  33.330  38.011  11.080
71852W        W40070  16.841  33.894   2.700
71853W        W40071  37.995  23.475   3.729
71854W        W40072   4.428  39.557  13.278
71855W        W40073  42.315  12.320   2.331
71856W        W40074  11.433  26.998  12.128
71857W        W40075  22.189  25.164   3.140
71858W        W40076   5.813  11.814  11.214
71859W        W40077  26.349   6.898   3.239
71860W        W40078  13.558   3.906   4.120
71861W        W40079  34.269  10.095   1.102
71862W        W40080  36.362  26.446  10.451
71863W        W40081  28.336  21.090  10.566
71864W        W40082  36.152  44.037  13.778
71865W        W40083   4.129   2.964  14.304
71866W        W40084  42.557  21.138   4.885
71867W        W40085  25.248  20.765  14.739
71868W        W40086  15.154   3.420   1.483
71869W        W40087  38.423   9.827   1.351
71870W        W40088   0.752  10.445   2.789
71871W        W40089  11.697  36.539   3.617
71872W        W40090  19.674  33.238   4.918
71873W        W40091  27.144  23.070   2.352
71874W        W40092   2.223  22.048   0.864
71875W        W40093  12.858  22.251  14.133
71876W        W40094  14.102  42.439  14.692
71877W        W40095  42.352  42.568  13.950
71878W        W40096  20.895  35.437  14.707
71879W        W40097  17.721  19.136   0.496
71880W        W40098  25.691  13.118  12.272
71881W        W40099  32.646  18.353  10.491
71882W        W40100  18.066  26.030  13.996
71883W        W40101  21.294   5.197  11.078
71884W        W40102  41.927  43.045   3.739
71885W        W40103   8.427  42.264   1.314
71886W        W40104  39.068  31.531  13.319
71887W        W40105  31.039  34.313   1.742
71888W        W40106  23.623   3.487   3.417
71889W        W40107  16.080   8.610   4.241
71890W        W40108  10.249  16.825  13.911
71891W        W40109   2.740  26.112  14.667
71892W        W40110  34.437  41.036   1.870
71893W        W40111  30.861  42.022  11.126
71894W        W40112  14.462   1.320  14.242
71895W        W40113  13.720  37.910   4.722
71896W        W40114  26.169  18.628  12.396
71897W        W40115  12.531  43.578   3.700
71898W        W40116  26.584  27.138   1.578
71899W        W40117  43.547  25.098   3.124
71900W        W40118  10.196  25.220   2.371
71901W        W40119  29.018   6.094   2.774
71902W        W40120   2.251  42.344   1.777
71903W        W40121  23.090   4.999  14.268
71904W        W40122  26.667  25.143   4.475
71905W        W40123   8.494   5.960  13.947
71906W        W40124  31.246   9.427  12.331
71907W        W40125   4.144  42.498  14.494
71908W        W40126  10.869  43.731   2.697
71909W        W40127  34.744   4.882   1.747
71910W        W40128  15.666  17.595   4.739
71911W        W40129  28.715  24.915   4.886
71912W        W40130   5.536  38.139  12.001
71913W        W40131  41.274   9.646  13.536
71914W        W40132  25.124  21.839   2.127
71915W        W40133  15.703  23.682   0.332
71916W        W40134   1.242   2.106   4.399
71917W        W40135  26.440   8.844   1.481
71918W        W40136  34.568  43.086  14.955
71919W        W40137  15.120  26.361  11.341
71920W        W40138  23.407  31.511   4.697
71921W        W40139  40.431   0.733   0.933
71922W        W40140   5.618  13.220   1.044
71923W        W40141  38.824   1.596  11.733
71924W        W40142   1.835  37.840   0.007
71925W        W40143  18.391  12.116  13.426
71926W        W40144  41.784  35.452  10.689
71927W        W40145  11.986  15.124  14.822
71928W        W40146   5.658  44.775   3.668
71929W        W40147  14.772  23.923   3.205
71930W        W40148  21.779  14.485   2.116
71931W        W40149   9.407  27.136   4.189
71932W        W40150  41.820   1.739   3.318
71933W        W40151  23.932  13.127   3.820
71934W        W40152   7.791  38.887   1.679
71935W        W40153  21.287  39.298   4.732
71936W        W40154  18.978  38.729  11.196
71937W        W40155  37.101  14.019  14.899
71938W        W40156   1.529  32.209  12.157
71939W        W40157   6.101  10.353   2.245
71940W        W40158  36.623  34.038   2.429
71941W        W40159  21.312   0.361   3.563
71942W        W40160  15.295   8.357   1.814
71943W        W40161  19.151  29.489   1.696
71944W        W40162   0.486  19.645  12.416
71945W        W40163  39.358  33.868   1.711
71946W        W40164  33.142  38.288   2.155
71947W        W40165  31.068   5.980   0.891
71948W        W40166   8.175  22.789   3.704
71949W        W40167  23.008   2.775  10.661
71950W        W40168  17.699  39.845   2.797
71951W        W40169  35.808  13.812   4.299
71952W        W40170   1.504   1.159  12.951
71953W        W40171  19.469  11.815  11.557
71954W        W40172   3.620  28.970  10.606
71955W        W40173  27.657  27.713   2.167
71956W        W40174  25.685  41.280  12.831
71957W        W40175  40.680  12.363  14.357
71958W        W40176   5.491  25.211   2.725
71959W        W40177  36.082  36.424  14.788
71960W        W40178  32.562   9.000  14.959
71961W        W40179  33.947  21.529  14.254
71962W        W40180  17.295  21.158  10.297
71963W        W40181  16.274  41.318  12.113
71964W        W40182  17.671  13.688  13.453
71965W        W40183  14.256   1.352  10.448
71966W        W40184  14.751  13.253  12.604
71967W        W40185  32.892   7.340   0.463
71968W        W40186  25.401  29.133  12.011
71969W        W40187  12.353  31.803   4.789
71970W        W40188  24.387  20.140  13.120
71971W        W40189  38.915  18.864   0.350
71972W        W40190  28.046   3.072   1.884
71973W        W40191  43.494  37.864   3.837
71974W        W40192  25.226  31.033  10.745
71975W        W40193  35.451  27.237  12.990
71976W        W40194  42.311  16.372   3.712
71977W        W40195  21.477  29.477  14.278
71978W        W40196  12.170   5.186   3.710
71979W        W40197  42.274   1.311   2.711
71980W        W40198  10.106  24.764   4.777
71981W        W40199  27.279  15.078  14.887
71982W        W40200  20.644  34.639   3.164
71983W        W40201   8.913   7.729   2.146
71984W        W40202  22.742  26.118  12.156
71985W        W40203  35.909  36.822   0.092
71986W        W40204  17.027  10.361  13.246
71987W        W40205  27.609   8.616  12.944
71988W        W40206  29.943  34.630  14.961
71989W        W40207  32.933   7.189   2.763
71990W        W40208  44.987  39.547  11.213
71991W        W40209  44.102   9.380   5.064
71992W        W40210   9.207  30.582  13.401
71993W        W40211  28.807  13.104   4.266
71994W        W40212  23.053  27.699  11.540
71995W        W40213  10.856  10.736   0.291
71996W        W40214  22.009  39.782   1.487
71997W        W40215  32.081  24.892  14.382
71998W        W40216  27.453   1.361   4.073
71999W        W40217  23.412  17.223   3.779
72000W        W40218  34.290  28.483   0.666
72001W        W40219   1.159  43.425  13.370
72002W        W40220  40.020   5.979   2.264
72003W        W40221  31.409  11.836   4.024
72004W        W40222  24.936  27.704   3.997
72005W        W40223  43.795  15.911   0.768
72006W        W40224  28.115  18.785   4.425
72007W        W40225   3.656  10.134   2.865
72008W        W40226   8.379  17.355   4.012
72009W        W40227   9.971  33.451  12.561
72010W        W40228  25.052   3.453   0.937
72011W        W40229  18.278  22.927  13.764
72012W        W40230   1.475  36.386  11.977
72013W        W40231  37.017  13.300   4.520
72014W        W40232  25.295  23.817  12.489
72015W        W40233   5.847  14.541   0.275
72016W        W40234  18.151  44.033   1.262
72017W        W40235  32.396  18.737   1.160
72018W        W40236  32.530  41.076   3.241
72019W        W40237  21.489  13.256  14.809
72020W        W40238  37.354  11.781  12.930
72021W        W40239   8.177  38.382  12.132
72022W        W40240   6.510  20.864  13.869
72023W        W40241  35.792   7.767   3.703
72024W        W40242  43.234  39.788  11.103
72025W        W40243  33.160  15.855  11.376
72026W        W40244  39.920  40.779   0.376
72027W        W40245   1.213  20.177  14.749
72028W        W40246  27.120  37.310  11.803
72029W        W40247  36.982  29.863   4.774
72030W        W40248  18.671   2.776   3.164
72031W        W40249  38.010  31.029   3.295
72032W        W40250  12.809  17.056  14.346
72033W        W40251  10.751  12.420   3.795
72034W        W40252  32.718  22.637  12.909
72035W        W40253  25.356   4.418  13.508
72036W        W40254  21.620  30.606   4.682
72037W        W40255  22.754   4.782  13.057
72038W        W40256   4.509   7.969   2.992
72039W        W40257  36.374  16.419  13.239
72040W        W40258  37.015   7.248   0.416
72041W        W40259   5.717   4.052   2.277
72042W        W40260   5.974  25.582  13.003
72043W        W40261  27.580  24.597   3.097
72044W        W40262   8.328   8.245  12.679
72045W        W40263  22.810  10.939  11.027
72046W        W40264  27.095  41.557  13.399
72047W        W40265  17.068   0.714  11.960
72048W        W40266  12.304   0.867   1.331
72049W        W40267  37.176  34.218  13.004
72050W        W40268  32.376  12.864   2.332
72051W        W40269  42.847   4.820  12.384
72052W        W40270  34.592  10.841  14.579
72053W        W40271  23.405  35.577   5.093
72054W        W40272  41.536  10.771  13.415
72055W        W40273  16.515  23.009  12.528
72056W        W40274  11.228  35.295   2.666
72057W        W40275  41.842  16.847   3.720
72058W        W40276  14.722  27.505   2.399
72059W        W40277   6.248  32.327   5.021
72060W        W40278  14.660  34.126   0.086
72061W        W40279  17.226   9.205  14.764
72062W        W40280   5.560   9.649  14.904
72063W        W40281  32.333  19.956   1.997
72064W        W40282  33.061   6.107   0.711
72065W        W40283  27.478  20.073  10.654
72066W        W40284  43.262  16.558  12.817
72067W        W40285  34.159   3.203   2.362
72068W        W40286   0.315  22.899   3.843
72069W        W40287  27.113   3.288   3.513
72070W        W40288  18.260   5.961   4.114
72071W        W40289  20.035  42.826  13.806
72072W        W40290  33.098   8.619   3.329
72073W        W40291  16.272  31.483   1.281
72074W        W40292  23.998  42.029  11.492
72075W        W40293  16.242  39.393   3.786
72076W        W40294   6.774  34.504   0.970
72077W        W40295  36.520   8.366  14.131
72078W        W40296  42.287  19.763  13.929
72079W        W40297  26.725  42.756  12.477
72080W        W40298  11.747  41.540  12.935
72081W        W40299  17.561  38.840  12.157
72082W        W40300   8.600  21.276   1.993
72083W        W40301   7.116  35.428  11.977
72084W        W40302  16.198  23.637  11.840
72085W        W40303   3.757  33.520   3.146
72086W        W40304  22.952  18.132  13.329
72087W        W40305  42.364   2.909   0.547
72088W        W40306   2.810  33.994  11.943
72089W        W40307  23.554   8.188   1.887
72090W        W40308   3.787  14.097   4.692
72091W        W40309  40.166  29.167   2.171
72092W        W40310  38.805  32.074  12.014
72093W        W40311  19.076  28.513   1.131
72094W        W40312   5.367  16.843  14.527
72095W        W40313  21.053  44.890  14.681
72096W        W40314   9.400  13.332  14.950
72097W        W40315   1.656  43.258   0.527
72098W        W40316  25.481  36.425  11.654
72099W        W40317  20.622   4.725  12.797
72100W        W40318   1.237   6.508  13.768
72101W        W40319  14.172  41.939   0.931
72102W        W40320  26.147  39.632  12.661
72103W        W40321   0.964   3.884  13.465
72104W        W40322  25.871  21.007   1.498
72105W        W40323  30.785  35.443   0.121
72106W        W40324   5.839  44.036  13.445
72107W        W40325  20.083  36.102   3.741
72108W        W40326  20.945  23.215   3.658
72109W        W40327  25.219  39.922   0.833
72110W        W40328  30.120  12.206  11.096
72111W        W40329  43.355  33.620   2.803
72112W        W40330  35.323  19.459   2.462
72113W        W40331  38.980  36.073   0.786
72114W        W40332  26.475  32.581   0.457
72115W        W40333  18.665  15.768   3.613
72116W        W40334  35.978  17.626  11.211
72117W        W40335  31.956  20.820   2.825
72118W        W40336   1.890   5.259  13.977
72119W        W40337  10.070  20.684   5.041
72120W        W40338  21.431  40.279  13.509
72121W        W40339  23.209  43.113   2.864
72122W        W40340   6.174  10.577   5.018
72123W        W40341  32.428  32.012   0.831
72124W        W40342  44.922  32.589   1.703
72125W        W40343  34.415  43.217  12.696
72126W        W40344  26.747  15.399  11.369
72127W        W40345  32.391  15.641  14.329
72128W        W40346  22.625   0.792  13.341
72129W        W40347  19.681  27.262   3.227
72130W        W40348  41.629   1.271  14.845
72131W        W40349  22.310   5.190  12.033
72132W        W40350   9.367  25.218   2.773
72133W        W40351  24.933   8.307  12.459
72134W        W40352   0.868  12.429  11.180
72135W        W40353  30.674  26.681  12.112
72136W        W40354   9.830  20.793  14.863
72137W        W40355  15.772  26.192  12.118
72138W        W40356  32.899  24.158   2.716
72139W        W40357   0.202  15.307  14.210
72140W        W40358   4.821  37.921  12.939
72141W        W40359  37.406  29.641  13.017
72142W        W40360  14.900  24.100  13.685
72143W        W40361  44.578   1.326   2.356
72144W        W40362  42.816  19.994  14.085
72145W        W40363  35.585   4.664  12.040
72146W        W40364  41.548   0.962   1.785
72147W        W40365  28.496  41.602  12.990
72148W        W40366   2.767  26.141  13.227
72149W        W40367   9.703  32.888   3.143
72150W        W40368   5.669  19.112  13.305
72151W        W40369  25.150  25.638   0.226
72152W        W40370   4.782  30.489   0.112
72153W        W40371  13.076  15.692   2.177
72154W        W40372  18.596  40.300  11.417
72155W        W40373  14.100   9.105   2.293
72156W        W40374  34.622  21.603  13.525
72157W        W40375  21.506  39.950   3.743
72158W        W40376  44.036  13.382  13.355
72159W        W40377  29.674  42.269  12.137
72160W        W40378  19.662  14.740   2.514
72161W        W40379  19.343  36.874  12.079
72162W        W40380  15.305   9.761  10.835
72163W        W40381  37.223  12.925   1.256
72164W        W40382  13.887  22.378   1.221
72165W        W40383   9.702  44.887  13.364
72166W        W40384  25.718  40.455   3.011
72167W        W40385  39.605   8.655   3.389
72168W        W40386  26.939  11.111   2.755
72169W        W40387  43.722  26.086   4.964
72170W        W40388  29.296  16.275  12.447
72171W        W40389  28.498  10.798  12.698
72172W        W40390  29.194  34.676  13.085
72173W        W40391  29.774   5.669  11.662
72174W        W40392  42.932   6.837  11.417
72175W        W40393  19.044  38.951   0.838
72176W        W40394   3.281  30.417  11.862
72177W        W40395  40.370   5.190  13.408
72178W        W40396  35.265   8.352  14.703
72179W        W40397  16.783  20.224   1.096
72180W        W40398  37.456  11.242  14.412
72181W        W40399  39.629  18.627   1.782
72182W        W40400  28.826  13.798   3.382
72183W        W40401   0.876  19.776   4.667
72184W        W40402  31.570  44.473  13.156
72185W        W40403  18.201   6.853   0.515
72186W        W40404  26.886  25.704  14.564
72187W        W40405  29.485  32.516   0.257
72188W        W40406  33.829  22.098   0.471
72189W        W40407   0.814   9.914   4.938
72190W        W40408  42.499  28.928   1.832
72191W        W40409   3.161  26.301  11.986
72192W        W40410  43.279   5.890   2.700
72193W        W40411  19.578  14.218  12.816
72194W        W40412  30.944  15.942   3.693
72195W        W40413  33.505  40.917  12.783
72196W        W40414  12.101  25.714   2.716
72197W        W40415  32.192  12.632  11.599
72198W        W40416  26.401   2.975  12.001
72199W        W40417  13.861  22.601  10.574
72200W        W40418  42.342   3.369   1.332
72201W        W40419  26.371  27.116   4.203
72202W        W40420   6.902  17.345   0.875
72203W        W40421  36.585  14.266   4.034
72204W        W40422  37.023  22.205  13.002
72205W        W40423   1.516  18.108  14.854
72206W        W40424  27.197  36.022   1.262
72207W        W40425   3.797  12.056  10.714
72208W        W40426  20.951  19.132  12.894
72209W        W40427  19.080  19.223  12.626
72210W        W40428   3.756  31.812  12.541
72211W        W40429  20.810   2.357   3.572
72212W        W40430  29.930  26.740   0.577
72213W        W40431  16.871  31.675   5.129
72214W        W40432  31.553  10.890   0.711
72215W        W40433  27.961  15.505   3.087
72216W        W40434  33.830  27.931  10.739
72217W        W40435  24.961  39.967  12.520
72218W        W40436  25.940  33.086  12.838
72219W        W40437   4.152  31.871  13.910
72220W        W40438  17.041  20.182  12.968
72221W        W40439  16.460  14.945  13.781
72222W        W40440   4.740  36.003   1.966
72223W        W40441  29.989  38.045   0.495
72224W        W40442  27.426   0.962   2.188
72225W        W40443  17.587  28.760   1.218
72226W        W40444  32.705  19.524   3.305
72227W        W40445   5.972  17.815   0.789
72228W        W40446  40.758  12.300   4.636
72229W        W40447  23.725  42.452   2.736
72230W        W40448  28.220   7.771   3.263
72231W        W40449  33.732  13.342  12.712
72232W        W40450  11.824   7.897  12.974
72233W        W40451  20.754   9.739   0.334
72234W        W40452  40.574  33.276  11.622
72235W        W40453   1.473  41.454   4.799
72236W        W40454  27.673   8.366  12.029
72237W        W40455  22.190  44.796  12.508
72238W        W40456  10.273  11.064   4.080
72239W        W40457  24.057  25.767   4.202
72240W        W40458  13.353  10.593  12.845
72241W        W40459  30.356   8.824   4.082
72242W        W40460  19.467  17.871  12.485
72243W        W40461   1.005   9.292  13.310
72244W        W40462  21.565  25.924   2.807
72245W        W40463   3.217  21.560  10.339
72246W        W40464   5.154  21.195   2.325
72247W        W40465  29.738  13.734  10.344
72248W        W40466   6.471   2.142  14.044
72249W        W40467  21.313  18.596   1.964
72250W        W40468  21.019  10.559  14.451
72251W        W40469  44.465  14.520  10.741
72252W        W40470  20.655  11.693   3.878
72253W        W40471  12.457  22.462   0.055
72254W        W40472  36.032  26.946  10.087
72255W        W40473   6.872  20.649   3.229
72256W        W40474   6.126   8.161   0.682
72257W        W40475  42.962  29.147   1.687
72258W        W40476   2.292  29.016   4.921
72259W        W40477  30.911  42.784  12.440
72260W        W40478  40.861   0.245  11.138
72261W        W40479  42.895  39.782  14.448
72262W        W40480  38.738  21.765   4.247
72263W        W40481  15.952  11.361   0.898
72264W        W40482  18.622  32.824  12.551
72265W        W40483  42.061  42.520   5.100
72266W        W40484  24.282  41.226   1.517
72267W        W40485  23.746   1.982   2.326
72268W        W40486   4.795  27.907  12.180
72269W        W40487  24.110  39.143   2.834
72270W        W40488   4.912  23.027  13.062
72271W        W40489  16.228   8.179   0.819
72272W        W40490   1.958  10.560  12.019
72273W        W40491  39.870   7.367   3.276
72274W        W40492  37.100  33.890  12.593
72275W        W40493   3.805   3.147  11.573
72276W        W40494  28.188  36.515  14.368
72277W        W40495   5.930  29.586  14.377
72278W        W40496  27.034  13.240  13.397
72279W        W40497   7.114  39.486   0.415
72280W        W40498  30.615  29.927  14.445
72281W        W40499  25.229  41.352   2.833
72282W        W40500  11.208  34.696  11.703
72283W        W40501  10.323   1.002  12.945
72284W        W40502  23.450  19.954   4.065
72285W        W40503   3.098   9.115   1.279
72286W        W40504   7.239  23.510  14.060
72287W        W40505  39.930  19.764  12.993
72288W        W40506  35.280  24.510   1.611
72289W        W40507   1.903  17.713  11.685
72290W        W40508  28.109  42.495  12.749
72291W        W40509  35.589  40.672   1.334
72292W        W40510  15.272   7.377   1.980
72293W        W40511  36.539  40.462  11.141
72294W        W40512   6.940  30.784  14.265
72295W        W40513  27.699  39.465   0.983
72296W        W40514   1.612  42.678  12.564
72297W        W40515   6.363  37.407  12.935
72298W        W40516   1.569  15.868   2.380
72299W        W40517   1.701  36.409  12.588
72300W        W40518  17.291  17.051  10.547
72301W        W40519  27.489  14.069  14.519
72302W        W40520  22.739  33.898   3.702
72303W        W40521  28.143  38.870   5.164
72304W        W40522  21.055  34.908  11.275
72305W        W40523  37.890  13.237   0.837
72306W        W40524   2.831  17.382  13.444
72307W        W40525  35.581  22.635   1.846
72308W        W40526  21.022  34.625  10.813
72309W        W40527   7.115  22.544  12.881
72310W        W40528   8.775  43.205  14.872
72311W        W40529   9.161  36.304  13.823
72312W        W40530  43.991   0.709   0.563
72313W        W40531  10.707  40.109   2.875
72314W        W40532  33.596  25.648   5.018
72315W        W40533   5.597  26.679  13.028
72316W        W40534  16.651  44.811   4.384
72317W        W40535  16.669  44.315  13.042
72318W        W40536   7.677  16.204   0.329
72319W        W40537  36.382  14.043  11.652
72320W        W40538  23.866  34.970  11.668
72321W        W40539  21.959  23.543  14.506
72322W        W40540   8.646  10.404   1.340
72323W        W40541  35.801   3.719   3.665
72324W        W40542  21.688  14.625   3.296
72325W        W40543  10.679  14.446  12.027
72326W        W40544  20.484  37.792   0.010
72327W        W40545  25.656  40.425  12.250
72328W        W40546   2.657  43.553   3.877
72329W        W40547  17.492  27.777  12.425
72330W        W40548  41.225  36.009   4.516
72331W        W40549   4.895  16.775  12.021
72332W        W40550  29.908   7.168   1.451
72333W        W40551  13.593  42.816   1.683
72334W        W40552  18.597  27.043  11.158
72335W        W40553  40.803  26.618   0.932
72336W        W40554  37.602  11.646   3.898
72337W        W40555   3.854   1.979  10.095
72338W        W40556   3.279  29.825  13.913
72339W        W40557  28.434  17.674  10.684
72340W        W40558   9.651  28.179  11.814
72341W        W40559  23.749  24.129   0.757
72342W        W40560  36.104  13.981  12.070
72343W        W40561  32.070  33.133   0.368
72344W        W40562   1.483  41.844  14.391
72345W        W40563  24.101  11.163   0.120
72346W        W40564  10.113  31.547  11.659
72347W        W40565  29.854   5.299   4.536
72348W        W40566   2.624   2.509   4.922
72349W        W40567  13.606  41.476  10.312
72350W        W40568   2.321   3.020  10.644
72351W        W40569  16.063   2.665  12.586
72352W        W40570  37.529   6.826  14.997
72353W        W40571  10.524   6.518  13.451
72354W        W40572   7.151  28.415   3.590
72355W        W40573  10.188  26.527  12.933
72356W        W40574   6.373   1.736   4.596
72357W        W40575  16.982  24.083   0.136
72358W        W40576   0.988  35.589  14.055
72359W        W40577  35.300   5.687  14.878
72360W        W40578  22.285  30.423  12.869
72361W        W40579   7.880  13.852   1.813
72362W        W40580  32.471  36.973  10.923
72363W        W40581  22.909  16.253   0.212
72364W        W40582  24.585  11.055   0.821
72365W        W40583  43.558  35.891  12.956
72366W        W40584  30.272  30.094   3.254
72367W        W40585   5.909  26.596  12.617
72368W        W40586  14.058  25.201  14.596
72369W        W40587   3.757  11.566   4.123
72370W        W40588  23.993  22.948  12.877
72371W        W40589  33.673  37.898   1.424
72372W        W40590  34.759  32.999  13.856
72373W        W40591  22.759  44.274   0.498
72374W        W40592  43.886   9.377  14.025
72375W        W40593  21.686   5.332   3.731
72376W        W40594   7.693  27.659   0.094
72377W        W40595  24.117  15.663  14.675
72378W        W40596  37.196   2.438   1.259
72379W        W40597  23.700  21.445   2.314
72380W        W40598  16.153   0.278  12.569
72381W        W40599   7.208  25.193  12.108
72382W        W40600  38.627  43.480  12.373
72383W        W40601   6.032  37.058   0.431
72384W        W40602   9.996  33.310  13.525
72385W        W40603  12.204   9.684  10.853
72386W        W40604   2.667  35.044   4.127
72387W        W40605  39.461  37.274  11.653
72388W        W40606  38.735  43.100  11.969
72389W        W40607  26.109   2.339   1.327
72390W        W40608  20.795  25.589  10.641
72391W        W40609  19.122  39.444   0.984
72392W        W40610  40.013  17.280  13.913
72393W        W40611  11.907   5.761   2.843
72394W        W40612  40.849  10.445   3.176
72395W        W40613   8.346   8.559   1.895
72396W        W40614   9.680  16.240   2.409
72397W        W40615  40.586  43.248   0.020
72398W        W40616  23.326  33.680  13.348
72399W        W40617  19.596  32.212   4.087
72400W        W40618  31.082   7.706   3.166
72401W        W40619  38.277  31.464   0.339
72402W        W40620   7.123  16.289  14.307
72403W        W40621  28.323  41.880  10.734
72404W        W40622  35.860  19.034  10.999
72405W        W40623   2.883  21.774  11.003
72406W        W40624  12.225  33.087  13.591
72407W        W40625  32.465  22.859  14.003
72408W        W40626  27.601  36.167   4.721
72409W        W40627  35.020  18.707   3.697
72410W        W40628  14.803  12.735  13.517
72411W        W40629  20.064  17.309  12.506
72412W        W40630  31.611  44.768   3.468
72413W        W40631   7.998  34.998  13.034
72414W        W40632   9.255  12.150  11.656
72415W        W40633   8.781  15.176   0.169
72416W        W40634  44.810  31.214  14.710
72417W        W40635   8.866  38.007   0.051
72418W        W40636  15.209  35.455  14.516
72419W        W40637  42.430  37.464   5.123
72420W        W40638  26.708  39.508  14.843
72421W        W40639  44.808   2.859   1.947
72422W        W40640  16.702  24.247   0.948
72423W        W40641  12.620  27.665   4.608
72424W        W40642   6.500   9.421   3.772
72425W        W40643  26.842  19.614   4.299
72426W        W40644  29.055   3.364   0.124
72427W        W40645   2.641  28.876  10.803
72428W        W40646  35.425  31.571   1.994
72429W        W40647  16.302  17.590  11.887
72430W        W40648  44.929   4.425  11.865
72431W        W40649  14.714  35.054   3.215
72432W        W40650   9.125  30.446  14.262
72433W        W40651  43.975   1.512   3.794
72434W        W40652  37.292  30.190   3.296
72435W        W40653   3.040  44.094  10.470
72436W        W40654  16.775   6.264   0.805
72437W        W40655  15.800  12.811   2.159
72438W        W40656  41.895  31.167   0.407
72439W        W40657  36.220  10.248   3.639
72440W        W40658   5.750  32.528  11.212
72441W        W40659  22.511  20.666   0.574
72442W        W40660  26.169  20.614  13.763
72443W        W40661  41.489  44.395  11.144
72444W        W40662   8.256  10.430  13.322
72445W        W40663  19.760  23.989   0.755
72446W        W40664  39.094   7.881   4.070
72447W        W40665  40.863  23.285  14.683
72448W        W40666  18.277   6.189   3.544
72449W        W40667  34.615  16.287  13.071
72450W        W40668  29.946  29.010  11.226
72451W        W40669  31.473   2.557  12.501
72452W        W40670  28.760  33.492  14.809
72453W        W40671  20.035  29.463  14.113
72454W        W40672  21.523  33.877  14.409
72455W        W40673  16.830  14.874  11.014
72456W        W40674  44.353  19.928   4.521
72457W        W40675  18.070  35.857  12.489
72458W        W40676   1.605  27.909  12.754
72459W        W40677  37.444  10.701   4.229
72460W        W40678  12.295  28.850   0.048
72461W        W40679  34.865   3.952  12.798
72462W        W40680  35.238  11.571  12.050
72463W        W40681  21.013  28.071   0.313
72464W        W40682  39.426  26.102  13.377
72465W        W40683  39.830   1.505  14.789
72466W        W40684   9.875   7.374   0.437
72467W        W40685  30.883  25.463   4.233
72468W        W40686  16.526   0.371   2.784
72469W        W40687  13.819   0.748   1.216
72470W        W40688  11.625  25.403   3.596
72471W        W40689  29.954  21.589   3.821
72472W        W40690  29.415  23.393  11.024
72473W        W40691  42.226  30.189  11.884
72474W        W40692  34.729  23.360  11.127
72475W        W40693   0.980   3.028   2.999
72476W        W40694  23.548   4.495  14.887
72477W        W40695  42.029   6.889   1.415
72478W        W40696   7.226   4.655  13.828
72479W        W40697  16.761   3.226   2.771
72480W        W40698  11.090  32.418  11.173
72481W        W40699  35.318  31.890   3.665
72482W        W40700  34.268  35.365   3.339
72483W        W40701   9.224  33.794   2.315
72484W        W40702  39.853   3.822  10.779
72485W        W40703  41.478   1.468   4.579
72486W        W40704  43.993  29.595   3.619
72487W        W40705  31.639   9.460   1.887
72488W        W40706  17.284  31.107  14.861
72489W        W40707  10.792  15.328  10.649
72490W        W40708  23.425  15.695   4.646
72491W        W40709  33.328  40.928   4.640
72492W        W40710  21.830   4.459   4.375
72493W        W40711  26.490  35.916  11.597
72494W        W40712  26.034  29.534   0.959
72495W        W40713  33.507  35.883  10.554
72496W        W40714  19.860  14.668  10.599
72497W        W40715   8.187   9.135   1.005
72498W        W40716   7.253  16.027  12.094
72499W        W40717  37.507  42.237  12.437
72500W        W40718  38.640  25.443  12.961
72501W        W40719  34.576  38.904  11.223
72502W        W40720  35.878  35.846  12.053
72503W        W40721  44.372  34.844   0.932
72504W        W40722  30.140  44.260   3.568
72505W        W40723  14.394  32.111   2.434
72506W        W40724  22.634   3.980   4.361
72507W        W40725  19.617  35.848   3.729
72508W        W40726  38.550   6.843   0.459
72509W        W40727  25.945   2.727  12.069
72510W        W40728  31.154  20.803  10.774
72511W        W40729   7.256  40.004  10.789
72512W        W40730  10.635  43.918   2.258
72513W        W40731  36.869  25.650  12.664
72514W        W40732   3.914  21.350   2.771
72515W        W40733  37.267  24.468   1.320
72516W        W40734  40.699  38.759   1.865
72517W        W40735   2.975  18.207   4.828
72518W        W40736  40.482  21.991   1.338
72519W        W40737  33.956   6.425  14.868
72520W        W40738  14.334   9.053  14.343
72521W        W40739  36.667  17.029  11.139
72522W        W40740   1.199  20.378  11.577
72523W        W40741   3.524  24.710  14.330
72524W        W40742  16.627   2.688  14.028
72525W        W40743  15.276  27.681  11.418
72526W        W40744  34.240  29.398   2.725
72527W        W40745   2.438  23.060   0.535
72528W        W40746  25.769   5.137  13.861
72529W        W40747  18.089  31.684  11.621
72530W        W40748  24.692   7.332   1.124
72531W        W40749  36.847   2.713   3.783
72532W        W40750  21.338  29.686   3.745
72533W        W40751  16.105  31.659  12.486
72534W        W40752  22.855   1.083  13.990
72535W        W40753   8.989  35.407  11.553
72536W        W40754  11.054   2.504   2.785
72537W        W40755  21.388   1.320   0.292
72538W        W40756  30.610  10.915   1.169
72539W        W40757   4.302   9.923  13.070
72540W        W40758  33.813  40.484   0.301
72541W        W40759  12.498   4.653  13.774
72542W        W40760  40.335  28.415   0.163
72543W        W40761   0.563   3.731  13.010
72544W        W40762   4.025  17.084   2.261
72545W        W40763  37.895  10.651  10.768
72546W        W40764  40.830  29.060  12.521
72547W        W40765  26.683  44.062   4.087
72548W        W40766   9.439  43.889   2.807
72549W        W40767  24.274  17.215   0.699
72550W        W40768  11.520  32.478   0.064
72551W        W40769   7.250  37.366  14.387
72552W        W40770  17.139  20.769   1.365
72553W        W40771  43.486  42.680  12.621
72554W        W40772  18.827  11.236  12.401
72555W        W40773  27.414   9.448   0.336
72556W        W40774  23.163  27.569  11.046
72557W        W40775   0.751  37.852   0.868
72558W        W40776   7.749  18.964  11.508
72559W        W40777  19.896  15.741  11.485
72560W        W40778  12.208  13.126   3.164
72561W        W40779  16.542  27.080   0.943
72562W        W40780  42.554  19.865   4.249
72563W        W40781  12.345  36.090   2.243
72564W        W40782  27.999   6.420  11.107
72565W        W40783   3.896  28.533  10.510
72566W        W40784  15.143  16.263   2.469
72567W        W40785  36.912  38.512   0.856
72568W        W40786   0.862   8.738  12.054
72569W        W40787  17.608  27.717   3.739
72570W        W40788  19.497  38.281   3.721
72571W        W40789  15.757  14.634   3.151
72572W        W40790  36.310  25.440   2.751
72573W        W40791  21.290  20.029   0.908
72574W        W40792  26.451  11.541   4.993
72575W        W40793  18.725  15.095  12.147
72576W        W40794  39.983  27.735  12.827
72577W        W40795  23.620  32.383   0.135
72578W        W40796  15.831  39.537   1.204
72579W        W40797  42.805  43.876   0.599
72580W        W40798   7.210  27.152  13.603
72581W        W40799  34.477  22.630   2.153
72582W        W40800  29.626  27.680  11.893
72583W        W40801  41.610  10.072  12.111
72584W        W40802  44.239  27.316   1.839
72585W        W40803  19.945  32.733   1.298
72586W        W40804  14.305  12.779   4.167
72587W        W40805  41.852   6.294   1.384
72588W        W40806  38.903  13.843   4.563
72589W        W40807  38.069  28.198  14.406
72590W        W40808  18.573  30.878  14.272
72591W        W40809   4.800  10.902   0.271
72592W        W40810  19.666  10.044  14.810
72593W        W40811  13.624  17.009  12.012
72594W        W40812  29.100  23.721  11.251
72595W        W40813  23.579  16.279   0.779
72596W        W40814  44.687   1.659  14.357
72597W        W40815  19.559  26.677  11.191
72598W        W40816   6.737   2.993  12.894
72599W        W40817  17.338  24.202   0.516
72600W        W40818  11.666   2.801   1.393
72601W        W40819   5.840  33.508  14.826
72602W        W40820  37.064  42.948   2.012
72603W        W40821  26.579  23.445   0.919
72604W        W40822  34.415  15.140   2.464
72605W        W40823  24.077  25.340   3.424
72606W        W40824  42.539  26.981  10.936
72607W        W40825  11.024   5.881  14.305
72608W        W40826  31.420   0.528  12.387
72609W        W40827  43.521  20.719  13.885
72610W        W40828  12.064  15.500   4.611
72611W        W40829  15.571  38.315   5.109
72612W        W40830  39.487  29.905  13.556
72613W        W40831  26.231  30.652  12.430
72614W        W40832   8.607  27.663   1.426
72615W        W40833  25.137  27.831  12.630
72616W        W40834   2.288   2.822  13.545
72617W        W40835  33.325  17.826   4.064
72618W        W40836  38.892   6.733   1.489
72619W        W40837  23.473   9.696  14.985
72620W        W40838  27.433  20.131  13.118
72621W        W40839  30.401  42.111  14.038
72622W        W40840  32.969   1.673  11.536
72623W        W40841  23.448  30.500   2.619
72624W        W40842  37.263  40.453   4.106
72625W        W40843  24.277   6.285  13.071
72626W        W40844  36.131  11.476  11.585
72627W        W40845  34.059  24.142  11.225
72628W        W40846  30.154   4.473  13.529
72629W        W40847   7.379  18.127   3.339
72630W        W40848  35.632   9.420  12.673
72631W        W40849  22.609  29.407  14.934
72632W        W40850  37.253  21.693  14.886
72633W        W40851  11.923  21.048   4.549
72634W        W40852  25.654   4.127  14.994
72635W        W40853  26.764  32.387   0.044
72636W        W40854  40.511   0.531   0.471
72637W        W40855  37.035  23.906   4.731
72638W        W40856  18.801  19.522  12.960
72639W        W40857   0.406  41.692   2.722
72640W        W40858  13.505   5.726   4.077
72641W        W40859  24.501   3.371   2.795
72642W        W40860  39.104  23.605  11.667
72643W        W40861  36.979  42.004   4.993
72644W        W40862  29.448  16.794  12.487
72645W        W40863  27.013  40.494   3.789
72646W        W40864   7.722  18.530  14.840
72647W        W40865   3.240  30.205   1.254
72648W        W40866  21.659   7.917  12.999
72649W        W40867   9.831   7.198   3.584
72650W        W40868  43.769  28.600   3.015
72651W        W40869   2.696   9.941   4.250
72652W        W40870  19.467   8.802  11.157
72653W        W40871   9.259  31.552  10.544
72654W        W40872  17.703  18.259   2.790
72655W        W40873  26.202  26.156   5.320
72656W        W40874   9.874  34.117  13.948
72657W        W40875  15.089  20.268   0.890
72658W        W40876  23.209  13.628   4.101
72659W        W40877  32.145  41.757   0.747
72660W        W40878  27.000  19.261  11.537
72661W        W40879  37.103  42.360  13.334
72662W        W40880   6.271  18.535   3.602
72663W        W40881  17.118  25.214   1.736
72664W        W40882  31.021  23.808   0.856
72665W        W40883  27.489  32.544  11.644
72666W        W40884  29.889   8.427  11.040
72667W        W40885  39.875  11.451  12.423
72668W        W40886  16.544   4.163  12.099
72669W        W40887  15.654  44.094   0.028
72670W        W40888  32.764  21.834   1.819
72671W        W40889  23.528  30.074   3.835
72672W        W40890  33.719   2.459  12.071
72673W        W40891  11.592  22.314  11.072
72674W        W40892  34.834  17.385  13.409
72675W        W40893  28.590  17.558  14.755
72676W        W40894  20.198  32.606  14.290
72677W        W40895  20.183  27.583   4.374
72678W        W40896   9.331  29.623   0.561
72679W        W40897  14.241  23.583   2.504
72680W        W40898  30.878   1.363  12.601
72681W        W40899  37.369  37.885   3.376
72682W        W40900  11.781   0.042  10.760
72683W        W40901  21.299  28.957  14.989
72684W        W40902  21.030  10.805   3.100
72685W        W40903  40.541  23.799  13.003
72686W        W40904  44.294  12.363   3.461
72687W        W40905  18.047  32.651   2.691
72688W        W40906  15.272  15.596  13.872
72689W        W40907  35.142  13.748  12.825
72690W        W40908   3.143   8.600  11.478
72691W        W40909  39.407  15.291   0.027
72692W        W40910  23.286  29.554  14.494
72693W        W40911  36.713  20.690   2.402
72694W        W40912  16.942  35.479   4.553
72695W        W40913  26.133  21.472   1.649
72696W        W40914  34.779  10.142  12.463
72697W        W40915  26.447  27.592  11.567
72698W        W40916  21.162   6.908  14.474
72699W        W40917   7.378  36.066  13.559
72700W        W40918  41.295   6.911   1.663
72701W        W40919  26.025   4.381   4.533
72702W        W40920  31.509  26.304   2.326
72703W        W40921  21.096  28.629   2.724
72704W        W40922   1.778  14.480   2.243
72705W        W40923  25.247  36.777  14.539
72706W        W40924  35.240  36.360  10.550
72707W        W40925   7.890  13.424  10.761
72708W        W40926  10.049  37.443  13.940
72709W        W40927  22.441   3.806   2.413
72710W        W40928  36.462  21.002   3.180
72711W        W40929  13.751  10.792   2.627
72712W        W40930  31.881  23.232   3.624
72713W        W40931  25.051  44.886   3.200
72714W        W40932  34.158  12.764   4.747
72715W        W40933  39.044  10.697   2.737
72716W        W40934  26.230  34.811   4.968
72717W        W40935  30.260  33.609   2.335
72718W        W40936   7.508   2.393   4.085
72719W        W40937  31.975  14.838  11.576
72720W        W40938   2.369   7.061  14.459
72721W        W40939  22.234  15.347   1.755
72722W        W40940  43.478  24.829   0.834
72723W        W40941  13.868  36.159  11.394
72724W        W40942  42.650  40.986  12.633
72725W        W40943  31.624  36.383   1.452
72726W        W40944  43.826   7.570   2.478
72727W        W40945  24.029  38.825  11.477
72728W        W40946  15.535  18.795  13.336
72729W        W40947  42.811   8.384   2.945
72730W        W40948   5.138  13.097   2.656
72731W        W40949   8.089   0.393  10.426
72732W        W40950  41.469  18.783   2.177
72733W        W40951  39.506   7.754   3.356
72734W        W40952   6.494  42.608  11.152
72735W        W40953   7.200   1.924   3.889
72736W        W40954   6.394  24.749  11.133
72737W        W40955  16.550  40.028   2.136
72738W        W40956  16.649  21.332  12.044
72739W        W40957  30.177  35.872  13.115
72740W        W40958   5.663  34.046   2.257
72741W        W40959  29.134   3.478   5.304
72742W        W40960  13.090  21.886  13.864
72743W        W40961  30.003   1.693   4.598
72744W        W40962   0.042  20.116  11.579
72745W        W40963  39.254  15.742   1.839
72746W        W40964  34.138  15.374   4.327
72747W        W40965  28.373  36.826  14.922
72748W        W40966  15.852  22.446  10.892
72749W        W40967  38.905  23.985  13.392
72750W        W40968  16.584  11.698  11.512
72751W        W40969   4.398  18.073  13.072
72752W        W40970  13.640  40.877   1.840
72753W        W40971   4.077  41.541   0.449
72754W        W40972   0.865  29.713  12.150
72755W        W40973  21.359  38.993  13.334
72756W        W40974  43.270   0.816  11.180
72757W        W40975  32.469  35.507   1.273
72758W        W40976  34.101   2.818  11.994
72759W        W40977  30.157  38.365   2.828
72760W        W40978  19.243  27.728   3.743
72761W        W40979  21.702  12.860   5.010
72762W        W40980  10.208   2.891   2.342
72763W        W40981  27.567  25.214   0.401
72764W        W40982   3.560  29.976   0.227
72765W        W40983   4.016  36.970   3.840
72766W        W40984  35.541   6.091   4.149
72767W        W40985  41.977   6.150   4.544
72768W        W40986  30.492  19.445  14.302
72769W        W40987  43.434  36.477   4.046
72770W        W40988  14.650  22.249   4.429
72771W        W40989  30.417  33.067   2.100
72772W        W40990  21.553   1.846   3.583
72773W        W40991   1.787   9.845   0.923
72774W        W40992   1.398  44.930   1.189
72775W        W40993  27.738  25.708   0.503
72776W        W40994  20.757   9.304  12.351
72777W        W40995  37.780  17.565   2.395
72778W        W40996  22.522  20.757  13.939
72779W        W40997   4.485  38.863   4.101
72780W        W40998  21.578  13.624  10.602
72781W        W40999  30.938  18.802   0.641
72782W        W41000  19.764  39.327   0.214
72783W        W41001  43.837  15.768   2.324
72784W        W41002  23.120  40.076   0.009
72785W        W41003   9.937  41.418  10.753
72786W        W41004  17.571   4.935  14.518
72787W        W41005  37.100   1.441   2.873
72788W        W41006   2.372   6.717   3.855
72789W        W41007  19.369  29.392  11.075
72790W        W41008  20.240  41.715  12.957
72791W        W41009   5.065  17.237  14.306
72792W        W41010  35.622  14.152   2.622
72793W        W41011  20.947  13.282  14.786
72794W        W41012  18.594  44.518   0.672
72795W        W41013   5.791   0.420   1.012
72796W        W41014  40.763   0.342  14.340
72797W        W41015  37.285  22.680   2.323
72798W        W41016  24.667  18.985   4.117
72799W        W41017  14.345  33.962   1.853
72800W        W41018   2.548   9.794  13.294
72801W        W41019   0.952   1.171   2.949
72802W        W41020  44.907  41.008   0.979
72803W        W41021  43.407  10.291  13.259
72804W        W41022   0.311  44.487  11.375
72805W        W41023  38.351   5.856   1.273
72806W        W41024  43.301  36.831   2.754
72807W        W41025  22.284   6.113   0.723
72808W        W41026   5.958  44.196  11.434
72809W        W41027   8.114  15.585  12.014
72810W        W41028   9.759  14.805   0.806
72811W        W41029  30.441  23.757   2.842
72812W        W41030   2.724  26.839  13.945
72813W        W41031  20.358  22.122   3.573
72814W        W41032  19.789  20.631  10.448
72815W        W41033  42.383   7.158  13.365
72816W        W41034  33.414  16.658  12.620
72817W        W41035  39.462  35.069  13.640
72818W        W41036  36.296  30.834   4.171
72819W        W41037  10.233  34.858   2.342
72820W        W41038  22.756  27.874   2.703
72821W        W41039  16.097  26.050   1.776
72822W        W41040  22.383  41.486  11.207
72823W        W41041  23.221   5.469   3.620
72824W        W41042   6.429  22.918   3.364
72825W        W41043  18.077   3.766   3.826
72826W        W41044  43.084  25.613  13.754
72827W        W41045  22.241  41.945   2.157
72828W        W41046  10.628   7.919   3.779
72829W        W41047  16.703  39.929   0.837
72830W        W41048  43.935  30.099   0.844
72831W        W41049  12.990   1.667  13.291
72832W        W41050  33.997  15.324   0.839
72833W        W41051   5.665  34.928   4.207
72834W        W41052  18.871  12.347   0.862
72835W        W41053  29.554  24.220   1.868
72836W        W41054  26.055  12.799   0.625
72837W        W41055   8.680  43.575   0.802
72838W        W41056  10.109  18.963  14.380
72839W        W41057  23.062  41.054   1.536
72840W        W41058   9.611  13.261   0.879
72841W        W41059   0.038  19.285  13.217
72842W        W41060  42.791  29.401  12.093
72843W        W41061  19.185  33.221   0.769
72844W        W41062  35.747   3.237   1.761
72845W        W41063  26.896  15.954   3.999
72846W        W41064  22.465  19.631   3.168
72847W        W41065   3.431  13.409   2.490
72848W        W41066   1.987  27.063  12.546
72849W        W41067  40.540  42.412  14.979
72850W        W41068  42.470  40.129   4.326
72851W        W41069  41.410  20.109  14.298
72852W        W41070   6.819  41.823  14.843
72853W        W41071   2.756  42.482  11.269
72854W        W41072  10.131  22.497  13.053
72855W        W41073  32.884  20.530  11.599
72856W        W41074  31.518   2.318   4.954
72857W        W41075   2.223  37.044   3.217
72858W        W41076  19.993   3.213  14.868
72859W        W41077  21.469  40.511   2.704
72860W        W41078  25.462  23.005  13.083
72861W        W41079  35.150  22.092   2.551
72862W        W41080  25.540   0.597  13.881
72863W        W41081  33.943  27.650   4.116
72864W        W41082  28.772   2.763   2.346
72865W        W41083  17.826  31.872  14.762
72866W        W41084  11.200  38.820   1.106
72867W        W41085  39.366  35.385   3.709
72868W        W41086  34.866  41.560  14.560
72869W        W41087  24.622   3.772  14.487
72870W        W41088  37.168   4.853   3.683
72871W        W41089   4.355  30.423   2.792
72872W        W41090   1.929  22.206   3.113
72873W        W41091  39.496  38.511   3.372
72874W        W41092  34.474   0.020   0.868
72875W        W41093  40.489  19.335   0.276
72876W        W41094  14.377   1.589   3.749
72877W        W41095  31.520   3.820   2.741
72878W        W41096  31.405  34.035   0.665
72879W        W41097   5.721  22.675  10.745
72880W        W41098   0.473  33.640   2.223
72881W        W41099   7.392  31.024  12.547
72882W        W41100  10.955  39.094   4.104
72883W        W41101  16.943   0.350  14.438
72884W        W41102   7.854  15.879  12.921
72885W        W41103  10.118  13.189   1.713
72886W        W41104  37.566  16.782   4.074
72887W        W41105  14.430  31.531   4.204
72888W        W41106  27.729  22.769   5.187
72889W        W41107   8.184  39.511  13.604
72890W        W41108  36.334   9.964   4.378
72891W        W41109  21.760  27.920  11.643
72892W        W41110  41.564  32.637   3.661
72893W        W41111   5.696  27.869  12.067
72894W        W41112  21.786  44.541  12.185
72895W        W41113  41.925   2.227  13.122
72896W        W41114  30.239  20.696   2.172
72897W        W41115  30.090  15.151   3.376
72898W        W41116   2.174  20.531   4.217
72899W        W41117  10.193  29.915  11.027
72900W        W41118   2.144  28.119  12.902
72901W        W41119  17.610  19.972   1.383
72902W        W41120   3.876  42.677   5.137
72903W        W41121  26.602  41.752  14.553
72904W        W41122  25.659  25.088   1.765
72905W        W41123  23.141  36.902  13.467
72906W        W41124   2.501  44.978   2.592
72907W        W41125  25.823  26.428   0.474
72908W        W41126   2.447  20.544  12.526
72909W        W41127  23.490   8.460   2.316
72910W        W41128  27.472  12.595   2.101
72911W        W41129  37.045  33.707  12.088
72912W        W41130  44.532  17.708  12.392
72913W        W41131  11.133  39.941   4.143
72914W        W41132  11.200  42.582  10.766
72915W        W41133   1.503  42.839  11.233
72916W        W41134  15.168   4.234   4.656
72917W        W41135  42.323  40.066  12.900
72918W        W41136  32.561  41.561  12.087
72919W        W41137  33.248   0.472   0.881
72920W        W41138   7.417  43.579  10.982
72921W        W41139  24.601  15.785  14.871
72922W        W41140  41.878  23.230  14.794
72923W        W41141  25.067  25.398  12.471
72924W        W41142  40.068   5.732   4.541
72925W        W41143  38.830  37.112   2.319
72926W        W41144  17.759  15.649   0.102
72927W        W41145  24.537  29.836  14.125
72928W        W41146  16.092   7.721   0.076
72929W        W41147  32.641   6.468  12.005
72930W        W41148  37.253  14.818   4.091
72931W        W41149  39.047  39.983  13.812
72932W        W41150   4.776  22.243   0.918
72933W        W41151  44.454  38.574   2.404
72934W        W41152  35.606  40.012   3.082
72935W        W41153   9.319  35.864   0.230
72936W        W41154   4.225   6.745   4.722
72937W        W41155  44.452  44.209   1.279
72938W        W41156  41.509  31.551   3.261
72939W        W41157  31.261  13.662   1.685
72940W        W41158  42.966  34.999  13.852
72941W        W41159   4.164  44.748   5.016
72942W        W41160  26.568   7.352   3.730
72943W        W41161  36.476  18.643  12.391
72944W        W41162   6.448  41.081  12.812
72945W        W41163  30.556   0.854   2.116
72946W        W41164  16.405  18.708   2.909
72947W        W41165  26.327  19.679   2.339
72948W        W41166  27.520  17.611   4.225
72949W        W41167  42.397  21.751  11.452
72950W        W41168  30.543   0.928   2.636
72951W        W41169  15.872  17.111   4.756
72952W        W41170  40.588  43.065   2.627
72953W        W41171  39.548  41.384   1.878
72954W        W41172   8.647   5.149  12.847
72955W        W41173  17.924  24.940  13.051
72956W        W41174  21.172  41.071  14.391
72957W        W41175  20.339   6.563  11.897
72958W        W41176   2.732  20.271  11.411
72959W        W41177  23.039  29.782   3.599
72960W        W41178   2.125  26.404   0.423
72961W        W41179  10.444  27.517   1.774
72962W        W41180  20.624   4.417   4.232
72963W        W41181   1.415   2.908  12.439
72964W        W41182   2.726   5.279  10.960
72965W        W41183  16.482   8.467  12.512
72966W        W41184  22.684  38.610  14.995
72967W        W41185  43.803  15.307  13.149
72968W        W41186  22.795  44.552  13.958
72969W        W41187   7.682  17.053   2.758
72970W        W41188   6.207  38.927  14.187
72971W        W41189  32.990  14.333  12.385
72972W        W41190  26.280  13.877   0.007
72973W        W41191   2.879   7.843   4.244
72974W        W41192  39.256  14.673  10.613
72975W        W41193  22.018   6.140  11.196
72976W        W41194  16.065   0.569  13.928
72977W        W41195  23.242  19.772   1.884
72978W        W41196  44.529  13.467   4.590
72979W        W41197  16.367  42.758  12.087
72980W        W41198  20.298   7.861  11.287
72981W        W41199  27.275   3.094  14.483
72982W        W41200  32.445  12.596  11.140
72983W        W41201  19.527  28.418  11.785
72984W        W41202  35.134  42.870  13.930
72985W        W41203  22.586  21.167   2.720
72986W        W41204  16.339  25.663  14.404
72987W        W41205  42.506   8.121  12.307
72988W        W41206   7.240   4.053   2.227
72989W        W41207   7.936  44.982  11.910
72990W        W41208  29.819  10.375  12.326
72991W        W41209  27.424  26.275   2.258
72992W        W41210  37.445  10.345  12.053
72993W        W41211  40.689   1.000   3.089
72994W        W41212  17.565  39.241   3.684
72995W        W41213   4.387  35.421  14.603
72996W        W41214   4.145   8.476  12.154
72997W        W41215  13.690   7.288  10.685
72998W        W41216  41.954  13.141   2.560
72999W        W41217  21.716   4.842  11.594
73000W        W41218  35.544  16.104   3.997
73001W        W41219  27.216   4.266  13.025
73002W        W41220  42.435  16.276  14.089
73003W        W41221  28.267  13.036   9.829
73004W        W41222  19.837  39.779   0.485
73005W        W41223   3.782  35.801   1.720
73006W        W41224  26.323  20.234  11.663
73007W        W41225  16.330  17.187  12.811
73008W        W41226   2.248   5.077   0.409
73009W        W41227  11.480  42.349  13.648
73010W        W41228  44.845   3.549   3.727
73011W        W41229  20.521  36.781   5.442
73012W        W41230  19.709   0.260  14.310
73013W        W41231   6.417   1.504   2.218
73014W        W41232  13.430   3.657  11.433
73015W        W41233  15.200   8.319   0.453
73016W        W41234  43.538   2.750   3.683
73017W        W41235  22.320  26.487   2.405
73018W        W41236  25.281  39.363  13.170
73019W        W41237  31.725  10.725  14.038
73020W        W41238   2.878   3.396   3.227
73021W        W41239  31.252  21.214  14.416
73022W        W41240  29.452  40.567   0.402
73023W        W41241  25.200  22.437   2.933
73024W        W41242  42.502  26.350   0.535
73025W        W41243   4.757  22.770  11.722
73026W        W41244  17.813  16.297   0.876
73027W        W41245  28.761  18.356  14.598
73028W        W41246  44.245  24.261  10.673
73029W        W41247  15.715   7.823  11.044
73030W        W41248   4.053  26.652  10.744
73031W        W41249   4.191  15.053  10.776
73032W        W41250  42.539  30.858  11.672
73033W        W41251  26.390  11.878  14.451
73034W        W41252  15.331  32.992   3.656
73035W        W41253  12.661   5.043   0.502
73036W        W41254  23.270  22.787  14.445
73037W        W41255  32.084  20.208  10.715
73038W        W41256  22.049  33.938  11.132
73039W        W41257  40.617  23.526  11.652
73040W        W41258  19.982  11.637  12.378
73041W        W41259  41.516   2.238   3.657
73042W        W41260   6.190  21.563   3.285
73043W        W41261  24.168  16.686   0.665
73044W        W41262  28.728  33.629   1.919
73045W        W41263  39.580  43.390  14.870
73046W        W41264  34.169  38.021   3.537
73047W        W41265  26.430  13.035   3.490
73048W        W41266  22.488   8.896   1.366
73049W        W41267  41.487  15.098   3.248
73050W        W41268  35.634  35.986  11.408
73051W        W41269  10.629  30.354   3.721
73052W        W41270  41.997   2.754   0.955
73053W        W41271  29.488   3.209   0.961
73054W        W41272   2.390  35.555  10.837
73055W        W41273  36.430  14.365  12.566
73056W        W41274  41.570  25.125  11.895
73057W        W41275   3.498  12.541  11.993
73058W        W41276   8.252  30.297   3.247
73059W        W41277   5.579  24.151  10.601
73060W        W41278  38.056  12.378   4.021
73061W        W41279  25.740  40.020   2.011
73062W        W41280  32.002  12.697  14.445
73063W        W41281   8.964   4.605  10.779
73064W        W41282  41.026  43.159   2.378
73065W        W41283  29.196  24.432  11.713
73066W        W41284  26.231  29.902   3.825
73067W        W41285  43.358  32.774  13.889
73068W        W41286  11.923  24.328   2.445
73069W        W41287  15.616  26.774  12.048
73070W        W41288  13.343  27.378  14.314
73071W        W41289  17.680  43.680  11.521
73072W        W41290   3.736  37.933  11.691
73073W        W41291  18.604  33.463  13.481
73074W        W41292  43.492  17.246   0.900
73075W        W41293   4.854  12.683  13.645
73076W        W41294  39.377  16.138  13.508
73077W        W41295  14.872  41.365  10.678
73078W        W41296  42.242   0.971  12.386
73079W        W41297   6.959  37.956  14.871
73080W        W41298   7.000  34.485   1.507
73081W        W41299   0.874  13.853   0.929
73082W        W41300  13.681  28.210  13.019
73083W        W41301  31.122  43.895  10.591
73084W        W41302   0.043  32.839  11.362
73085W        W41303  33.736  20.705  13.966
73086W        W41304   8.795  35.328   4.392
73087W        W41305  34.355   0.773   4.050
73088W        W41306  37.637  29.472  12.561
73089W        W41307  35.379   0.725  14.470
73090W        W41308   1.715  14.327  10.567
73091W        W41309   2.748   9.329   4.928
73092W        W41310   4.190  44.363   4.147
73093W        W41311  40.190   5.286   2.740
73094W        W41312  33.610  44.726  14.776
73095W        W41313   6.245  38.332  11.009
73096W        W41314   9.423   4.541   3.017
73097W        W41315  26.216  15.779   0.471
73098W        W41316  20.065  22.733   0.929
73099W        W41317  28.139  23.708   3.852
73100W        W41318  20.123  16.898  10.713
73101W        W41319   7.490  40.455   3.543
73102W        W41320  32.938  14.860  12.474
73103W        W41321  35.395  31.513   0.813
73104W        W41322  10.572   5.994  12.062
73105W        W41323  25.015   2.577  11.158
73106W        W41324   1.129  39.429  12.663
73107W        W41325  34.913  13.684  13.883
73108W        W41326  40.041   4.914   3.099
73109W        W41327   5.716  24.245  13.865
73110W        W41328  19.201   0.565  10.706
73111W        W41329  41.796   3.892   1.720
73112W        W41330  34.043  25.670   2.429
73113W        W41331   1.310  35.863   0.743
73114W        W41332  28.512  41.568  11.549
73115W        W41333  24.145  22.474   3.693
73116W        W41334  12.145  38.030   1.233
73117W        W41335   9.640  43.851   2.335
73118W        W41336  28.585  17.036   0.682
73119W        W41337   4.784  22.769   4.860
73120W        W41338  34.302  19.246   2.226
73121W        W41339   9.302  36.579  14.232
73122W        W41340  17.350  19.488  14.051
73123W        W41341  20.712  40.700  14.219
73124W        W41342  22.219  44.367  10.798
73125W        W41343   7.198   7.661  10.573
73126W        W41344  29.459   1.366  12.064
73127W        W41345  34.519  33.476  12.963
73128W        W41346   6.510  18.457   1.279
73129W        W41347  44.885  10.313   4.275
73130W        W41348   1.291  31.882  11.502
73131W        W41349  11.760  23.497  11.790
73132W        W41350  12.249  17.337   2.400
73133W        W41351   4.879   3.648  14.370
73134W        W41352  21.696  38.978  11.960
73135W        W41353  36.026  28.512  13.592
73136W        W41354   5.694  26.174  12.345
73137W        W41355  38.329  41.577  11.198
73138W        W41356  24.383  36.037   5.021
73139W        W41357  13.218  16.531   1.881
73140W        W41358  41.385  11.794  14.215
73141W        W41359  17.582   6.917   2.306
73142W        W41360  26.468  26.023   0.269
73143W        W41361  28.010  20.749  10.758
73144W        W41362  30.863   4.017   1.844
73145W        W41363   7.096   8.335  14.064
73146W        W41364   0.430   1.399   3.606
73147W        W41365  37.412   5.746  14.874
73148W        W41366  25.202  36.348  13.855
73149W        W41367  33.402  10.746  10.529
73150W        W41368  17.632  40.943   3.223
73151W        W41369  15.029   0.430  13.896
73152W        W41370   4.355  17.648   4.165
73153W        W41371  26.842   5.024  10.893
73154W        W41372  20.197  12.661  10.703
73155W        W41373  43.410  43.439   4.242
73156W        W41374  38.915  44.754   2.902
73157W        W41375  42.798  43.992  13.474
73158W        W41376  14.302  27.381  10.983
73159W        W41377  32.368  21.494   1.717
73160W        W41378  42.068  15.923   3.458
73161W        W41379  39.837   9.175   1.753
73162W        W41380  43.824  19.561  14.997
73163W        W41381  17.265  24.785  10.394
73164W        W41382  13.696  33.924  12.542
73165W        W41383  32.882  11.359  11.382
73166W        W41384  29.292  15.799   1.364
73167W        W41385  39.841  15.560   3.014
73168W        W41386  22.488  35.979  12.041
73169W        W41387  12.855  18.607  11.140
73170W        W41388  42.306  34.326  13.921
73171W        W41389  28.586   1.243   2.116
73172W        W41390   7.436   2.394   2.132
73173W        W41391   6.725  26.258  12.847
73174W        W41392  24.897  10.162   2.183
73175W        W41393  14.913  44.756   0.266
73176W        W41394  18.175  41.619  14.455
73177W        W41395  35.533  39.870  13.898
73178W        W41396  39.095  19.321  14.333
73179W        W41397  38.438  28.421  10.677
73180W        W41398   5.351  35.075  12.568
73181W        W41399   3.521  18.271  10.339
73182W        W41400  26.286   0.781   4.676
73183W        W41401  32.304  21.605   4.186
73184W        W41402  20.214  42.785  11.613
73185W        W41403  13.177  35.209  14.948
73186W        W41404  38.118  13.666   4.193
73187W        W41405   6.776  11.194  10.706
73188W        W41406  38.992  26.753  14.923
73189W        W41407  33.713  22.200  11.097
73190W        W41408  28.965  11.462  12.433
73191W        W41409   1.499  38.861   1.286
73192W        W41410  28.684  34.365   3.248
73193W        W41411   2.485   9.158  14.782
73194W        W41412  28.150  21.586  13.908
73195W        W41413  11.441  24.150   2.356
73196W        W41414  43.825  29.419   4.069
73197W        W41415  44.915  40.082  14.930
73198W        W41416  42.248  12.080  12.539
73199W        W41417  29.655  36.551  12.317
73200W        W41418  15.558  11.715  14.657
73201W        W41419  16.089  17.619  14.463
73202W        W41420  14.681  28.467  12.921
73203W        W41421  10.085  20.551  13.497
73204W        W41422  26.489  41.454   2.649
73205W        W41423  32.991  33.086  12.345
73206W        W41424  23.646  24.778   9.757
73207W        W41425  10.122  10.747   1.407
73208W        W41426  41.795  40.677  12.385
73209W        W41427  12.580   3.884  12.830
73210W        W41428  22.301  18.933   1.891
73211W        W41429   2.185  12.431   1.112
73212W        W41430  16.688   1.163   3.422
73213W        W41431  25.952  36.624  11.692
73214W        W41432  15.180  16.032   4.854
73215W        W41433  41.289  23.110  12.033
73216W        W41434  11.993   6.798  12.015
73217W        W41435   5.758  24.474  12.031
73218W        W41436  31.000   5.227  11.856
73219W        W41437  24.724   2.922   2.668
73220W        W41438  14.258  21.238   0.339
73221W        W41439  28.475  14.092  13.628
73222W        W41440  18.980   7.125   2.436
73223W        W41441  33.617  43.685   4.675
73224W        W41442   4.747  43.261   1.399
73225W        W41443  22.165  30.555   4.252
73226W        W41444  18.984  12.264   3.083
73227W        W41445  22.425   3.823   3.367
73228W        W41446  43.465  29.494   4.728
73229W        W41447  31.710  44.962  13.834
73230W        W41448  23.129  27.008  13.966
73231W        W41449  43.047   8.463   3.403
73232W        W41450  16.212  22.571  14.430
73233W        W41451   1.262  41.364  14.473
73234W        W41452  26.513  12.820  12.556
73235W        W41453  13.194  19.367  10.892
73236W        W41454  38.257  43.270   4.319
73237W        W41455   4.197  19.822  12.816
73238W        W41456  20.004  11.309   0.578
73239W        W41457  33.630  29.876   4.164
73240W        W41458   9.843   4.781   2.627
73241W        W41459  17.449  27.418   4.911
73242W        W41460   4.828  43.705   3.866
73243W        W41461   4.330   5.134  14.106
73244W        W41462  12.665   8.982   0.897
73245W        W41463  43.357  43.985  12.949
73246W        W41464   3.241   4.776   1.208
73247W        W41465  11.048  36.480  13.389
73248W        W41466   7.505  24.728  13.400
73249W        W41467  39.713  26.263   0.768
73250W        W41468   0.205  27.151  12.503
73251W        W41469  36.076  26.432  13.825
73252W        W41470  39.550  18.529  14.391
73253W        W41471  17.471   5.486   2.234
73254W        W41472  41.708  12.720   1.201
73255W        W41473  26.218  17.223  13.088
73256W        W41474  28.170  40.283   4.494
73257W        W41475   6.867   1.153   0.351
73258W        W41476  11.364  12.675   0.730
73259W        W41477   9.240   8.400   1.668
73260W        W41478   5.654  30.264   1.627
73261W        W41479  32.100  25.997  12.505
73262W        W41480  34.620   4.325  14.570
73263W        W41481  15.754  17.622  14.926
73264W        W41482  28.543  10.309   3.213
73265W        W41483   1.952  44.605   1.946
73266W        W41484  39.283  20.168  12.851
73267W        W41485  38.488  23.058   3.449
73268W        W41486   6.190  23.176   3.776
73269W        W41487  35.945   9.520  14.130
73270W        W41488  29.240  41.102  13.330
73271W        W41489  20.825  29.913   4.919
73272W        W41490  12.675  19.799  14.146
73273W        W41491  30.544  33.240   1.596
73274W        W41492  43.449   9.428  10.940
73275W        W41493  10.810  38.314   3.348
73276W        W41494   4.960  36.307  13.069
73277W        W41495  12.616  11.640   2.180
73278W        W41496  11.178   9.308  14.183
73279W        W41497  15.547  12.258  11.139
73280W        W41498  43.871  34.438   3.339
73281W        W41499  34.400  34.916   3.530
73282W        W41500  14.301  31.317   0.212
73283W        W41501  35.820   0.815   2.741
73284W        W41502   2.676  36.014  13.854
73285W        W41503  38.074  38.998  11.618
73286W        W41504  10.723  11.210  12.885
73287W        W41505   7.279  22.027  12.860
73288W        W41506   8.312  23.619   1.842
73289W        W41507  33.909  20.072   1.719
73290W        W41508  19.897   2.191  10.956
73291W        W41509   9.818  36.340   2.752
73292W        W41510  23.736  34.616   4.210
73293W        W41511   1.764  26.128   0.700
73294W        W41512  30.202   4.755  10.642
73295W        W41513  26.113  12.743   2.165
73296W        W41514  41.355  29.441   1.727
73297W        W41515   9.384  33.694  13.042
73298W        W41516  39.555  39.923  12.376
73299W        W41517  36.641   6.185   0.142
73300W        W41518  38.419  15.011   1.326
73301W        W41519  30.550  26.224  10.468
73302W        W41520   3.977  37.430  10.677
73303W        W41521  31.160  30.506  13.340
73304W        W41522  40.994  34.592  10.966
73305W        W41523  32.199   1.011  12.802
73306W        W41524  29.831  32.347   3.881
73307W        W41525  14.321  20.546   3.707
73308W        W41526  20.580  34.269   0.502
73309W        W41527  16.072  39.453  14.460
73310W        W41528  15.094  36.507   1.930
73311W        W41529  29.641   3.749  12.403
73312W        W41530   4.867  40.912   2.257
73313W        W41531  29.571   1.893  13.309
73314W        W41532  14.106  42.909  14.399
73315W        W41533   0.429  11.389  14.330
73316W        W41534   2.775  32.476  10.423
73317W        W41535  17.569   8.702   0.942
73318W        W41536  13.589  20.412  12.844
73319W        W41537   1.490   2.305   3.156
73320W        W41538  29.224   1.735   4.254
73321W        W41539  20.897  10.947  13.097
73322W        W41540   1.925  15.277   3.117
73323W        W41541  26.529  20.465  12.129
73324W        W41542   8.231  34.264   1.752
73325W        W41543  13.988  13.354  11.566
73326W        W41544  30.126  34.163   4.537
73327W        W41545   4.969  26.536   3.739
73328W        W41546  29.947   8.884   0.199
73329W        W41547  36.052  24.986   1.834
73330W        W41548  17.676  25.728  12.039
73331W        W41549  26.140  31.591  12.735
73332W        W41550  30.178  43.957   2.291
73333W        W41551  25.238  30.111  11.153
73334W        W41552  21.371  38.572  10.967
73335W        W41553  43.761  15.054   2.766
73336W        W41554   5.390  16.013   0.736
73337W        W41555   3.804  35.344  12.029
73338W        W41556  44.237  10.180   1.294
73339W        W41557  34.116  18.789  13.898
73340W        W41558  44.218  38.875   1.894
73341W        W41559  19.647  30.378  10.541
73342W        W41560  18.094  10.892   3.263
73343W        W41561   3.385   5.055  11.509
73344W        W41562  20.605  16.037  10.303
73345W        W41563  25.213   8.238  10.434
73346W        W41564   7.759   9.199   0.471
73347W        W41565  34.950  21.675  14.310
73348W        W41566   7.670  25.644  12.876
73349W        W41567   7.676  13.850  12.870
73350W        W41568  17.062  37.810   1.448
73351W        W41569  14.576  10.327   3.065
73352W        W41570  30.952  38.093   4.343
73353W        W41571   7.641  42.589  13.831
73354W        W41572  27.392  29.058  11.117
73355W        W41573   0.391   5.204  13.985
73356W        W41574   8.264   3.782  12.471
73357W        W41575   7.810  38.419   1.892
73358W        W41576   6.940  43.421   1.487
73359W        W41577  32.688   6.619   1.412
73360W        W41578  16.103  44.901  12.906
73361W        W41579  15.747  26.476   3.218
73362W        W41580  11.857  21.916  13.178
73363W        W41581  36.601  24.778   3.278
73364W        W41582  14.562   1.701  11.248
73365W        W41583  25.839  33.055  13.829
73366W        W41584  19.688  28.952   4.781
73367W        W41585  16.881   1.079   1.708
73368W        W41586  42.480  25.103   3.292
73369W        W41587  28.967  33.940  11.453
73370W        W41588   8.414  25.597   3.145
73371W        W41589   0.455  41.519  13.528
73372W        W41590  40.536  44.986   4.575
73373W        W41591  35.269  38.426   1.319
73374W        W41592  12.177  34.357  11.535
73375W        W41593  10.104   2.893   3.287
73376W        W41594  27.857   5.080  10.856
73377W        W41595  19.125   9.552   1.235
73378W        W41596  27.271  23.182  13.938
73379W        W41597  32.919  32.173  14.479
73380W        W41598   7.427  24.019   3.747
73381W        W41599   9.625  22.207  12.958
73382W        W41600  21.508  11.055   3.596
73383W        W41601   3.003  27.893  12.567
73384W        W41602  33.069  24.439  10.349
73385W        W41603  23.765  41.919  13.019
73386W        W41604  13.723   8.922  11.854
73387W        W41605  37.417  13.092   0.799
73388W        W41606   9.126  33.410   3.584
73389W        W41607  17.321  29.484  11.163
73390W        W41608  37.514  13.698  14.925
73391W        W41609  23.142  43.387   2.388
73392W        W41610  31.490  33.936   4.887
73393W        W41611  21.125  21.184   4.605
73394W        W41612  31.160  38.035   1.423
73395W        W41613  23.293  22.870   0.798
73396W        W41614  31.961  28.687   4.899
73397W        W41615  11.098  11.716   2.797
73398W        W41616   0.234  42.114   0.762
73399W        W41617  32.575  13.189  10.722
73400W        W41618  38.559  29.416  14.912
73401W        W41619  32.121  35.829  10.735
73402W        W41620   1.316  30.547  13.513
73403W        W41621  33.094  16.029   4.199
73404W        W41622  43.147  11.792   3.157
73405W        W41623  21.706  29.109  11.578
73406W        W41624  20.142   4.231   1.628
73407W        W41625  29.726   7.809  12.180
73408W        W41626   6.942  29.717  10.515
73409W        W41627  26.111  31.626   2.578
73410W        W41628  19.227  31.797   1.039
73411W        W41629   3.006  26.587  10.792
73412W        W41630  20.271  33.050   4.210
73413W        W41631  23.738  17.606   1.786
73414W        W41632  40.359  11.167  14.779
73415W        W41633  17.713  17.553   0.189
73416W        W41634   0.816  14.354   0.801
73417W        W41635  33.554  42.398  13.444
73418W        W41636   9.812  13.706  14.288
73419W        W41637  33.018  25.513  10.034
73420W        W41638  19.196  16.719  14.143
73421W        W41639   6.889  39.342  14.976
73422W        W41640  12.042  37.489  13.647
73423W        W41641  21.991  34.983  11.177
73424W        W41642  16.122   1.918  13.837
73425W        W41643  23.649   8.988  14.267
73426W        W41644   8.555  42.543   4.213
73427W        W41645  19.274   4.272   4.135
73428W        W41646  20.474  34.107  15.000
73429W        W41647   2.262  37.383   2.305
73430W        W41648  18.402  18.656  14.301
73431W        W41649   8.732   8.086  11.636
73432W        W41650   5.843  20.071   0.412
73433W        W41651  39.062  17.257   1.660
73434W        W41652  25.622  30.351   2.954
73435W        W41653   2.870  26.691   3.040
73436W        W41654  40.338  13.104  11.477
73437W        W41655  33.161  35.879   0.969
73438W        W41656  26.879  27.415  12.899
73439W        W41657   3.772   8.929   1.579
73440W        W41658  14.865  31.986  14.978
73441W        W41659  22.516  10.415   0.882
73442W        W41660  36.753  22.707   4.465
73443W        W41661  19.292  34.530   1.446
73444W        W41662  22.648  21.965   4.264
73445W        W41663  24.020  14.094   0.386
73446W        W41664  32.652   9.890   2.302
73447W        W41665  37.209   7.178   4.044
73448W        W41666  19.262   3.301   1.741
73449W        W41667  11.616   3.743  12.550
73450W        W41668   9.453  18.335  13.841
73451W        W41669  21.474  14.755   3.756
73452W        W41670  37.136  27.698   0.331
73453W        W41671  14.118   4.774   1.392
73454W        W41672  32.048   9.568   2.172
73455W        W41673  44.031  32.023  14.017
73456W        W41674  37.718  27.537  10.190
73457W        W41675   1.237   6.311  13.292
73458W        W41676  24.564  31.521   1.388
73459W        W41677  23.133  15.260   1.761
73460W        W41678  43.832  20.952  14.255
73461W        W41679  11.007  21.143  10.101
73462W        W41680   1.077  41.632  10.165
73463W        W41681  41.910  36.278   1.985
73464W        W41682  27.989  36.966   3.119
73465W        W41683  43.412  17.105  11.517
73466W        W41684  19.630  12.667  11.448
73467W        W41685  30.979  39.227  10.147
73468W        W41686  39.959  14.947   4.649
73469W        W41687  36.135  27.549   2.278
73470W        W41688  36.132   3.272   2.149
73471W        W41689   6.443  18.868   5.073
73472W        W41690  26.152  17.519   3.900
73473W        W41691  17.639  39.566  12.881
73474W        W41692  29.046   1.924  13.378
73475W        W41693  33.950  44.858  13.829
73476W        W41694  14.289   5.377   4.365
73477W        W41695  20.064   9.149  10.814
73478W        W41696  31.909  43.743   2.635
73479W        W41697   5.447  40.989   1.419
73480W        W41698  10.798   0.360  13.978
73481W        W41699  15.043  25.309  13.803
73482W        W41700   8.749  44.518  14.801
73483W        W41701  26.918   4.445  12.139
73484W        W41702   4.580  12.553   4.955
73485W        W41703  15.674  12.223   1.330
73486W        W41704  18.137  36.175  12.028
73487W        W41705  22.754  16.047  13.507
73488W        W41706  12.858  35.640   0.836
73489W        W41707  39.762   4.104  10.328
73490W        W41708  23.084  44.484  12.567
73491W        W41709  15.823   3.103   4.647
73492W        W41710  37.036  36.142  11.207
73493W        W41711   5.528  11.088  14.742
73494W        W41712  35.967  29.753   4.062
73495W        W41713  29.945  18.833   0.386
73496W        W41714  43.031  32.735   0.956
73497W        W41715   0.079  20.267   0.834
73498W        W41716  15.830  35.135  11.202
73499W        W41717  34.483  27.466   2.239
73500W        W41718   5.912  33.546   1.404
73501W        W41719  19.679  31.919   1.797
73502W        W41720  33.440   9.239   4.377
73503W        W41721  28.140  30.535   3.633
73504W        W41722  26.469   3.793   3.361
73505W        W41723  17.271  12.550   3.114
73506W        W41724  16.851  12.730  14.046
73507W        W41725  32.624  33.640   2.694
73508W        W41726  26.496   5.358  11.617
73509W        W41727   2.852  42.954   0.217
73510W        W41728  35.173   3.306   3.316
73511W        W41729  41.316  36.858   1.139
73512W        W41730   7.331   0.843  14.382
73513W        W41731  41.629  12.390   2.765
73514W        W41732   0.774  11.995  14.155
73515W        W41733  32.594   6.280  13.850
73516W        W41734  21.984   2.706   3.950
73517W        W41735  41.952  18.781   1.955
73518W        W41736  34.097   0.459   4.607
73519W        W41737  44.367  31.398   2.019
73520W        W41738   2.243  20.592   1.782
73521W        W41739  27.145  43.960  12.515
73522W        W41740  35.837  39.891   4.501
73523W        W41741  12.159  31.370   4.529
73524W        W41742  26.538  28.286   4.640
73525W        W41743  13.319  39.327  13.973
73526W        W41744  22.042   9.208   1.459
73527W        W41745  38.926   9.436   2.262
73528W        W41746  16.068  30.230  12.473
73529W        W41747   5.343  31.581   4.015
73530W        W41748  39.507  37.807   1.765
73531W        W41749  30.530   3.621  11.022
73532W        W41750  17.697   2.254   4.790
73533W        W41751  24.467  44.515  14.482
73534W        W41752  21.950  26.399  12.403
73535W        W41753  25.181   2.953  12.480
73536W        W41754  25.722  12.270   4.203
73537W        W41755  22.142  16.259  11.694
73538W        W41756  23.974  18.947   0.438
73539W        W41757  40.975  42.013  14.800
73540W        W41758  26.944  41.628   2.810
73541W        W41759  42.605  34.452  13.530
73542W        W41760   1.679   3.868   3.602
73543W        W41761  22.699   7.929  11.173
73544W        W41762  18.294  25.750  10.795
73545W        W41763  28.195  43.404   3.771
73546W        W41764  40.294  14.051   1.462
73547W        W41765  21.620  34.695   3.159
73548W        W41766   5.023  24.207  12.508
73549W        W41767  38.682  23.528  13.119
73550W        W41768  20.476  12.317   3.167
73551W        W41769   7.062   8.987  12.507
73552W        W41770  16.496  20.698   4.277
73553W        W41771   8.213   5.511  12.682
73554W        W41772   1.948   0.272  14.214
73555W        W41773   5.235  18.286   0.707
73556W        W41774  41.399  22.678   2.200
73557W        W41775  28.708  24.785  12.562
73558W        W41776  26.139  12.617  10.523
73559W        W41777  26.320   4.244   3.124
73560W        W41778  22.404   7.387  12.488
73561W        W41779  27.429  20.606   2.956
73562W        W41780  20.188  36.772  14.880
73563W        W41781   0.774   4.199   2.353
73564W        W41782  42.901  13.793  10.462
73565W        W41783  16.767  31.076  14.472
73566W        W41784   4.799   1.112  13.064
73567W        W41785  37.802  12.167  12.087
73568W        W41786  17.812  15.699   3.851
73569W        W41787  17.087  44.042  13.933
73570W        W41788  44.396  12.927   4.226
73571W        W41789  25.431  42.633  12.947
73572W        W41790  42.811  29.547  11.576
73573W        W41791  36.308   8.332   2.781
73574W        W41792  32.004  20.076   4.761
73575W        W41793  12.446  38.184  12.885
73576W        W41794  17.242  32.676   9.976
73577W        W41795  43.251  26.474   1.411
73578W        W41796  34.106  22.312   4.094
73579W        W41797  28.459  11.858   4.058
73580W        W41798  32.419  22.033   2.723
73581W        W41799  28.214   6.277   3.352
73582W        W41800  41.014   3.513   3.282
73583W        W41801  27.822  39.396  12.882
73584W        W41802  43.055  37.562  13.621
73585W        W41803  42.268   7.830  14.976
73586W        W41804  32.184  25.968   4.179
73587W        W41805   6.765   7.941  11.997
73588W        W41806   5.731  27.765   3.791
73589W        W41807  16.080   1.922  13.013
73590W        W41808  30.528  39.661  14.103
73591W        W41809  41.272  41.413  11.491
73592W        W41810  34.386   5.231   3.915
73593W        W41811   0.915   7.469   1.950
73594W        W41812  27.127  35.566   3.659
73595W        W41813  28.698  24.009   3.152
73596W        W41814  29.652  25.912  11.467
73597W        W41815  42.980   1.965   0.964
73598W        W41816  37.602  19.682   4.145
73599W        W41817  27.228   7.923  14.765
73600W        W41818  12.703  24.575  14.532
73601W        W41819  24.154  14.183  13.005
73602W        W41820  44.447  14.646   1.846
73603W        W41821   8.292  44.389  14.403
73604W        W41822  29.647  28.146   4.688
73605W        W41823  22.737  29.507   3.217
73606W        W41824  23.204  24.976   4.359
73607W        W41825  12.881   8.357  14.363
73608W        W41826   9.142   8.164   3.993
73609W        W41827   5.542   2.145  14.444
73610W        W41828  17.836  36.614  10.736
73611W        W41829  21.546  26.608  14.467
73612W        W41830  28.626  26.087  11.288
73613W        W41831  22.155  33.007   2.325
73614W        W41832  34.468   8.169   1.283
73615W        W41833  28.057  43.775   2.825
73616W        W41834  32.919  41.796  14.252
73617W        W41835  23.756  32.319   0.654
73618W        W41836  39.437  30.892  14.738
73619W        W41837  41.129  42.204  11.189
73620W        W41838  12.568   6.203  13.605
73621W        W41839  19.586   4.781  10.540
73622W        W41840  25.642  32.715  12.571
73623W        W41841  24.600  43.140   0.347
73624W        W41842  31.497  32.462   4.326
73625W        W41843  37.367  35.351   1.893
73626W        W41844   8.324  16.043  13.050
73627W        W41845  15.676  16.816  13.388
73628W        W41846  17.839   3.197   4.073
73629W        W41847   2.858  18.065  11.571
73630W        W41848  32.375  30.407   4.736
73631W        W41849  43.472  22.161   2.093
73632W        W41850  44.200  34.692   2.572
73633W        W41851  17.626   1.990   2.772
73634W        W41852  30.982  22.341  13.357
73635W        W41853  28.512  10.687  14.583
73636W        W41854  32.774  12.662  10.729
73637W        W41855   6.934  38.083  11.427
73638W        W41856  28.159  36.039  14.994
73639W        W41857  18.512  28.865  14.167
73640W        W41858  10.298  33.119   4.616
73641W        W41859  16.087  41.374   4.965
73642W        W41860  16.515  35.675  11.633
73643W        W41861   6.456  40.009  12.965
73644W        W41862  24.422  40.560   3.093
73645W        W41863  20.997  21.132  14.805
73646W        W41864  13.714   4.308   2.641
73647W        W41865  23.974   9.948   3.213
73648W        W41866  24.514  19.660   1.407
73649W        W41867   4.707   6.934  12.063
73650W        W41868  31.106  16.099  14.349
73651W        W41869  26.771   3.297  14.670
73652W        W41870  10.375   7.412  12.906
73653W        W41871  14.202  11.556   1.387
73654W        W41872  24.191  25.415   9.863
73655W        W41873  22.570  39.323   2.865
73656W        W41874  20.112  41.317  11.449
73657W        W41875  19.018  32.096   2.458
73658W        W41876  36.127  19.825   0.694
73659W        W41877  27.452   2.247   3.660
73660W        W41878   4.545   6.736  14.711
73661W        W41879   7.770   5.345   3.399
73662W        W41880   4.743  11.183  11.521
73663W        W41881   4.227  43.085  13.789
73664W        W41882  22.627  32.412   1.768
73665W        W41883  31.280  12.384  11.985
73666W        W41884  41.513  41.958  11.990
73667W        W41885  38.572  18.286   0.810
73668W        W41886  18.032  34.573  11.119
73669W        W41887  27.568  35.831  14.499
73670W        W41888  44.279  25.983   0.022
73671W        W41889  44.290  10.091   0.593
73672W        W41890  26.071   9.306   4.624
73673W        W41891  29.086  12.384  12.842
73674W        W41892  29.673  38.375  11.993
73675W        W41893   5.235  10.361  11.483
73676W        W41894  24.538   9.764   0.358
73677W        W41895  10.436  19.182  14.736
73678W        W41896  17.826  16.553  14.062
73679W        W41897  32.152  14.341  11.502
73680W        W41898   3.963   6.139  14.264
73681W        W41899  35.955  43.255  13.156
73682W        W41900  35.591  12.104   1.256
73683W        W41901  31.861  27.656   3.805
73684W        W41902  43.719   8.741  12.664
73685W        W41903  27.573  44.743   2.614
73686W        W41904  20.819  19.147   4.556
73687W        W41905  29.419  40.110  13.434
73688W        W41906  39.344  44.386  14.434
73689W        W41907  21.301  15.685   1.775
73690W        W41908  36.820  29.022   4.148
73691W        W41909  34.459  40.295  14.483
73692W        W41910  34.597  33.599   0.960
73693W        W41911  15.810  33.544  14.121
73694W        W41912  16.653  25.536   3.389
73695W        W41913  12.545  37.074  14.580
73696W        W41914  30.124  35.614   0.897
73697W        W41915  18.013  25.227  10.695
73698W        W41916  33.141  32.606  14.946
73699W        W41917  17.608  44.213   0.750
73700W        W41918  16.156   7.778  12.868
73701W        W41919  24.162   6.254  14.704
73702W        W41920   9.350   8.613  14.370
73703W        W41921  29.965  34.153   1.001
73704W        W41922   4.260  38.643  14.805
73705W        W41923  44.503  25.523  14.963
73706W        W41924  30.992  27.768  14.549
73707W        W41925   0.476  34.992   5.126
73708W        W41926  28.401  33.529  11.908
73709W        W41927  41.042  30.453   2.915
73710W        W41928  39.437  25.626   1.221
73711W        W41929   9.644  39.542   0.373
73712W        W41930  31.116  37.427   2.842
73713W        W41931  13.123  29.291   4.097
73714W        W41932  27.351   5.037  10.879
73715W        W41933   1.683  26.887  14.471
73716W        W41934  23.119   0.347  10.614
73717W        W41935  37.389  33.926   4.741
73718W        W41936  21.620   1.316  14.059
73719W        W41937  30.659  15.250  12.540
73720W        W41938  15.754   6.169   2.217
73721W        W41939  32.377  32.669   4.148
73722W        W41940  27.057  41.047   3.121
73723W        W41941   7.536   5.013  10.200
73724W        W41942  18.560   3.012   1.678
73725W        W41943  41.854  43.527   2.993
73726W        W41944  41.499  17.566   2.208
73727W        W41945   7.256  32.675   0.638
73728W        W41946  36.740   8.171  12.347
73729W        W41947  24.013  31.830   4.190
73730W        W41948  22.726  23.511  12.503
73731W        W41949  38.551   9.905  11.225
73732W        W41950  29.643  21.953   2.569
73733W        W41951   4.075  42.043   1.187
73734W        W41952   0.241   6.759  10.547
73735W        W41953  41.076  22.665   0.471
73736W        W41954  17.000  19.274   2.322
73737W        W41955  28.228  25.697  11.315
73738W        W41956  12.229  12.587   4.457
73739W        W41957  22.762  10.586  14.413
73740W        W41958  20.234   8.107  10.449
73741W        W41959   7.293   9.796   3.575
73742W        W41960  22.763  30.620   0.425
73743W        W41961  30.116  13.912   3.362
73744W        W41962   2.388  26.361  13.549
73745W        W41963  36.658  20.199   3.002
73746W        W41964  14.464  14.366  11.077
73747W        W41965  22.573   0.481   2.535
73748W        W41966  18.652  44.943   4.596
73749W        W41967  26.217   8.851   3.766
73750W        W41968  13.539  23.131   2.828
73751W        W41969  10.834  25.449  11.681
73752W        W41970  21.068  40.904  14.866
73753W        W41971  42.416  20.034  12.947
73754W        W41972  34.127  18.688   4.605
73755W        W41973  31.858  29.993  14.047
73756W        W41974  21.454  16.371   3.669
73757W        W41975  17.462   5.178   3.685
73758W        W41976  19.449   4.925   2.301
73759W        W41977  19.178   9.066   3.040
73760W        W41978  39.837   0.993  11.019
73761W        W41979   4.794  11.311   4.550
73762W        W41980  30.583  22.282   2.602
73763W        W41981  21.125   9.331  11.931
73764W        W41982  16.142  36.074   1.353
73765W        W41983   4.700   2.782   1.480
73766W        W41984  31.492  41.499   2.700
73767W        W41985   4.831  44.983   0.804
73768W        W41986  33.166  22.960  12.876
73769W        W41987  21.331  43.007  12.844
73770W        W41988  22.991  17.191  10.729
73771W        W41989  33.777   9.192  10.937
73772W        W41990  34.351   2.210   4.332
73773W        W41991  25.967  11.351  11.635
73774W        W41992  12.595  36.173   3.595
73775W        W41993  33.049   8.797   0.402
73776W        W41994  21.280  44.784  10.693
73777W        W41995   1.923  18.761  11.155
73778W        W41996  22.456   9.673  10.119
73779W        W41997  22.977  34.967  12.206
73780W        W41998  33.944   1.453   4.635
73781W        W41999  15.258  26.982   3.037
73782W        W42000  27.088  31.569   4.622
73783W        W42001  14.666  27.664  12.513
73784W        W42002  17.449   3.931   4.505
73785W        W42003   1.391   6.790  12.479
73786W        W42004  40.074   4.339   3.403
73787W        W42005  16.049  25.004  13.837
73788W        W42006  15.065   1.774   0.463
73789W        W42007  34.870   6.156  11.929
73790W        W42008  40.427  41.046  14.243
73791W        W42009  42.906  12.283   3.182
73792W        W42010   1.840  10.156   3.831
73793W        W42011  16.600  33.118   2.250
73794W        W42012   1.902  38.832   2.232
73795W        W42013  37.889  44.503  14.383
73796W        W42014  13.626  42.382   4.831
73797W        W42015   8.311  14.124   1.344
73798W        W42016   9.432  41.906  14.269
73799W        W42017  43.312   2.208  11.909
73800W        W42018  39.122  21.571  13.503
73801W        W42019  29.201  20.577  12.623
73802W        W42020  37.572  38.008  11.114
73803W        W42021  43.528  35.357   2.152
73804W        W42022  10.225  14.349   1.856
73805W        W42023  30.584  28.136   2.121
73806W        W42024  43.834  16.349  13.226
73807W        W42025   6.688   7.340   1.190
73808W        W42026  27.788   9.440   3.781
73809W        W42027  32.919   8.639  14.884
73810W        W42028  16.718  19.078  12.011
73811W        W42029   7.434  31.626  14.847
73812W        W42030  32.657  17.253  14.418
73813W        W42031   1.888  28.696   4.739
73814W        W42032  21.760  31.611  12.493
73815W        W42033  11.585  28.202  13.491
73816W        W42034  11.635  42.741   1.794
73817W        W42035   4.207  41.289   3.153
73818W        W42036  27.997  22.686  12.589
73819W        W42037  43.367  32.417   0.154
73820W        W42038  30.999  20.080   1.177
73821W        W42039  37.516  37.461  11.919
73822W        W42040  12.639  44.348  14.996
73823W        W42041   5.582  15.103   3.663
73824W        W42042  27.227  40.407   1.382
73825W        W42043   7.260  38.015   3.101
73826W        W42044  37.036  28.497  11.918
73827W        W42045  30.885  24.986   1.441
73828W        W42046   1.284  23.564  14.350
73829W        W42047  19.071  38.084   4.151
73830W        W42048  15.176  17.099  13.352
73831W        W42049  33.084   3.930   2.681
73832W        W42050  29.549  32.394   1.354
73833W        W42051  32.869  29.470  14.763
73834W        W42052  17.301   9.322   2.765
73835W        W42053   2.484  11.765   4.567
73836W        W42054  44.175  32.593   2.948
73837W        W42055  25.745   2.828  11.598
73838W        W42056   0.864  33.408   0.539
73839W        W42057  41.617  39.925   2.791
73840W        W42058  20.749  34.177  10.895
73841W        W42059   8.231   9.738  12.887
73842W        W42060  19.054  34.337   3.323
73843W        W42061  21.193  42.887   3.364
73844W        W42062  20.148   5.673  11.949
73845W        W42063  42.008   9.201   1.397
73846W        W42064  23.273   0.360  12.173
73847W        W42065  11.469  25.457   0.381
73848W        W42066   9.120  42.082   0.710
73849W        W42067  44.294  14.833   3.722
73850W        W42068   4.108  20.490   2.157
73851W        W42069  14.186  11.109   0.723
73852W        W42070  28.514  43.856   3.044
73853W        W42071  23.482  15.006   0.439
73854W        W42072  33.811  12.328   3.103
73855W        W42073  30.513   9.752   1.834
73856W        W42074  13.756  27.571   3.256
73857W        W42075  39.289  40.823  10.937
73858W        W42076  22.442  23.291   4.369
73859W        W42077  18.282   5.623   3.276
73860W        W42078  34.240  23.886   4.146
73861W        W42079  44.087   7.324  13.860
73862W        W42080  36.961  39.477   4.844
73863W        W42081   9.817  30.432   1.967
73864W        W42082  43.082   0.560  12.975
73865W        W42083  23.535   4.484   3.731
73866W        W42084  39.151  36.641   4.670
73867W        W42085  33.084  25.208   1.842
73868W        W42086  25.963   7.460   0.346
73869W        W42087   3.184   9.183   3.205
73870W        W42088  11.711  30.149  13.485
73871W        W42089  41.340  34.032   1.815
73872W        W42090  34.675   1.614  12.990
73873W        W42091  11.505  24.783  11.526
73874W        W42092  35.486  21.354   1.387
73875W        W42093  28.123  20.955  11.948
73876W        W42094  37.142  34.769  13.126
73877W        W42095  39.391  22.092  12.054
73878W        W42096  18.487  29.921   0.339
73879W        W42097   3.673  31.691   3.704
73880W        W42098  21.975  22.715  11.008
73881W        W42099   5.752  39.931   0.854
73882W        W42100  44.238  13.421  14.534
73883W        W42101  17.856  19.181   4.093
73884W        W42102  17.398  17.228  14.491
73885W        W42103  13.214   3.057  12.934
73886W        W42104  30.773  37.572  12.215
73887W        W42105  37.435  14.438   2.270
73888W        W42106  31.151  30.492  10.205
73889W        W42107  31.411  33.318   3.505
73890W        W42108   1.848   5.908   3.721
73891W        W42109  21.634  16.037   4.018
73892W        W42110  26.255  39.545   4.343
73893W        W42111   5.957  16.205  10.636
73894W        W42112   6.359   6.468   1.960
73895W        W42113   2.295  23.644  12.391
73896W        W42114  14.916  26.857  11.454
73897W        W42115  38.493  15.151  13.839
73898W        W42116  10.870  26.618  11.066
73899W        W42117  28.347   0.330   2.560
73900W        W42118  33.520  44.176  12.877
73901W        W42119   0.952  40.838   4.989
73902W        W42120  35.286   5.626  13.733
73903W        W42121  20.175  20.490  13.859
73904W        W42122  44.439  24.041   4.561
73905W        W42123  35.131   6.112   0.411
73906W        W42124   4.915  43.128  14.551
73907W        W42125  34.607  20.655  11.994
73908W        W42126   5.368  11.834  12.399
73909W        W42127   4.302  19.596   2.512
73910W        W42128  14.738  21.735   1.850
73911W        W42129  39.097  28.440   2.309
73912W        W42130   7.810  37.910   1.917
73913W        W42131   7.640  33.280   0.458
73914W        W42132  32.622  13.062  11.229
73915W        W42133   4.866  16.772  14.379
73916W        W42134  12.082  25.653   3.671
73917W        W42135  26.147  22.206   0.991
73918W        W42136  32.750   0.947   0.522
73919W        W42137   1.426  34.832  14.419
73920W        W42138  24.195  16.123  14.902
73921W        W42139  26.464  28.894   1.835
73922W        W42140  23.150  18.606   4.765
73923W        W42141  34.590   6.623   1.441
73924W        W42142  39.299  26.199   2.784
73925W        W42143   5.487  13.137  14.442
73926W        W42144  44.051   6.946  12.042
73927W        W42145   2.519   7.891  11.556
73928W        W42146  19.703  44.842   3.833
73929W        W42147  23.209  23.670   4.599
73930W        W42148  44.484  26.752   1.299
73931W        W42149   6.130  44.145  13.985
73932W        W42150  44.816  30.477  10.671
73933W        W42151  42.032  20.988   5.125
73934W        W42152  38.742  15.633  13.894
73935W        W42153  15.172   6.550  13.955
73936W        W42154   5.803  11.929  13.115
73937W        W42155   8.451  27.690  10.695
73938W        W42156  35.459   3.378   4.832
73939W        W42157  32.108  27.754  11.693
73940W        W42158  41.986  22.569   1.461
73941W        W42159  43.796  29.162  14.749
73942W        W42160  14.764  26.431  11.944
73943W        W42161   2.703  13.685   1.434
73944W        W42162  41.580  37.035   3.627
73945W        W42163  29.848  18.294   0.439
73946W        W42164  41.006  42.471  10.490
73947W        W42165  24.100   2.536  13.152
73948W        W42166  27.567   9.194   2.641
73949W        W42167   4.188  20.861  14.068
73950W        W42168  24.019   6.430  12.646
73951W        W42169  12.781  42.730  12.879
73952W        W42170  37.558  17.107  14.446
73953W        W42171  23.176  44.882  11.973
73954W        W42172  13.426  41.939   0.850
73955W        W42173   9.279  42.722   1.838
73956W        W42174  22.831  20.866  14.395
73957W        W42175  16.169  43.471   3.587
73958W        W42176  14.643  18.586  12.571
73959W        W42177  28.644  14.276   3.323
73960W        W42178  13.583  43.777  14.883
73961W        W42179  28.042   4.257  13.562
73962W        W42180  11.678  18.531  12.986
73963W        W42181  33.409  32.375  14.431
73964W        W42182   5.311  36.636   1.789
73965W        W42183   9.211   2.630   0.165
73966W        W42184  38.503  34.502   0.916
73967W        W42185   4.392  17.774  12.627
73968W        W42186   5.889  27.568  12.492
73969W        W42187  39.355   1.061   2.355
73970W        W42188  10.755  36.114   2.687
73971W        W42189  34.533  17.971  12.695
73972W        W42190  42.102   4.806   2.889
73973W        W42191  20.248   4.395   4.601
73974W        W42192  17.515  23.123  10.517
73975W        W42193  28.256  30.563   0.710
73976W        W42194  23.472  27.580  13.598
73977W        W42195   2.986   2.672  11.599
73978W        W42196   5.040   9.259   0.889
73979W        W42197   6.374  19.658  14.772
73980W        W42198  15.787  21.785   3.529
73981W        W42199  39.854  37.875  13.844
73982W        W42200  42.837   3.311  13.563
73983W        W42201  38.450   4.308   1.850
73984W        W42202  20.095   0.582   4.330
73985W        W42203  14.236  39.797  14.948
73986W        W42204  28.418  29.202   1.756
73987W        W42205   7.642  40.582   4.903
73988W        W42206  38.452   1.913   0.261
73989W        W42207  10.394  40.321   5.145
73990W        W42208  12.057  28.729   1.597
73991W        W42209  18.071  39.055  11.345
73992W        W42210  26.418  43.827  10.957
73993W        W42211  25.736  16.080  11.124
73994W        W42212  15.665  40.701   3.727
73995W        W42213   8.413  35.568  10.779
73996W        W42214  14.350  19.084  13.053
73997W        W42215  36.296  13.196  12.052
73998W        W42216  19.194   9.118  14.849
73999W        W42217  26.831  16.733  12.492
74000W        W42218   3.756  27.462   2.791
74001W        W42219  16.729  28.543  13.980
74002W        W42220  42.026  44.800   4.827
74003W        W42221  44.795  19.279   1.668
74004W        W42222  21.103  27.176  11.508
74005W        W42223  38.113  15.407  13.388
74006W        W42224  15.779  41.049   0.297
74007W        W42225  12.465   8.833  11.733
74008W        W42226  42.649  40.499  11.493
74009W        W42227  34.082  29.202  14.575
74010W        W42228  29.149  33.970   4.128
74011W        W42229  35.605  44.110   2.264
74012W        W42230   6.670  22.621  13.138
74013W        W42231  13.274   2.382   0.313
74014W        W42232  22.127   7.762  14.722
74015W        W42233   4.679   2.882   0.441
74016W        W42234  39.274  32.766   4.065
74017W        W42235  16.564  21.621   3.924
74018W        W42236  18.133  30.038   4.793
74019W        W42237  30.674  40.900  13.463
74020W        W42238  15.933  18.553   2.709
74021W        W42239  13.511  24.012  12.601
74022W        W42240  26.372   5.787  10.730
74023W        W42241  11.736  29.021   4.148
74024W        W42242  10.329  31.128  13.234
74025W        W42243   7.451  43.296   4.342
74026W        W42244   8.760  28.194  12.116
74027W        W42245   9.880  25.221   2.805
74028W        W42246   1.712  40.688  13.475
74029W        W42247   3.644   7.321   5.181
74030W        W42248  13.904  41.437   2.629
74031W        W42249   2.335  30.592   0.829
74032W        W42250   1.335  19.287   2.134
74033W        W42251  11.678  33.896   2.806
74034W        W42252   9.547  30.551  12.485
74035W        W42253  28.727  33.440  13.391
74036W        W42254  18.239  35.548   2.253
74037W        W42255  19.586   3.384   4.079
74038W        W42256  29.210  34.489  10.772
74039W        W42257  14.391  34.060   2.383
74040W        W42258  14.914  30.823   3.141
74041W        W42259  22.200  18.606  12.921
74042W        W42260  21.705  41.707  12.929
74043W        W42261  40.478   3.375  13.030
74044W        W42262  42.767  29.154   0.910
74045W        W42263  15.142   5.626  13.534
74046W        W42264  27.859  38.019  13.930
74047W        W42265  12.691   0.223   4.166
74048W        W42266  16.059   2.724   1.725
74049W        W42267  40.800  28.119  12.466
74050W        W42268   5.461  11.203  13.343
74051W        W42269  37.425   7.121   3.398
74052W        W42270  25.464  25.489   2.701
74053W        W42271  38.341  41.040  11.480
74054W        W42272  17.333  44.782  13.372
74055W        W42273   4.696  14.162   0.433
74056W        W42274  18.836   1.465  14.411
74057W        W42275  37.052  35.333   2.402
74058W        W42276  31.253  36.556   4.897
74059W        W42277  32.277  14.254  13.751
74060W        W42278  27.021  36.017  10.740
74061W        W42279   5.797  44.564   1.268
74062W        W42280  42.090  16.862  13.362
74063W        W42281  33.911  14.064  11.062
74064W        W42282   1.772  42.202  10.731
74065W        W42283  13.863  37.573   0.697
74066W        W42284   3.862  28.799  11.502
74067W        W42285  27.924  43.273   2.607
74068W        W42286  34.678   1.221  12.351
74069W        W42287  39.503   8.712  11.499
74070W        W42288  37.494   3.270  12.803
74071W        W42289   9.852  13.358  13.888
74072W        W42290  40.446  35.110  13.657
74073W        W42291   4.459  24.532  11.746
74074W        W42292   8.278   3.300   0.048
74075W        W42293  21.065  15.631  12.009
74076W        W42294   1.487  36.502   4.234
74077W        W42295   2.250  22.423  11.127
74078W        W42296   8.386   5.410  13.913
74079W        W42297  10.858  16.439   0.146
74080W        W42298  17.617  27.448   0.769
74081W        W42299  12.590  19.253   0.574
74082W        W42300  22.556   1.019   3.239
74083W        W42301  22.466  12.794  11.156
74084W        W42302  28.200  21.134  14.500
74085W        W42303  17.784  42.630   2.868
74086W        W42304  40.330  23.589  13.556
74087W        W42305   4.145  16.350   0.544
74088W        W42306  42.490  18.840   1.328
74089W        W42307  16.144  31.110   3.300
74090W        W42308   5.921   1.353   2.094
74091W        W42309  16.639  17.194   3.108
74092W        W42310  39.496   1.958   4.133
74093W        W42311   8.435  27.336  11.972
74094W        W42312  30.905  32.978   4.341
74095W        W42313  17.381   9.727  13.601
74096W        W42314  23.854  16.798  13.264
74097W        W42315  43.988  40.318  12.352
74098W        W42316  38.477  18.156   3.756
74099W        W42317  16.347   5.806   3.219
74100W        W42318  13.141  36.591  12.531
74101W        W42319  26.158  28.012  11.727
74102W        W42320  33.552  28.078   1.324
74103W        W42321  44.355  34.056   0.034
74104W        W42322  31.015  14.389  12.197
74105W        W42323  43.652  33.347   9.968
74106W        W42324   7.109  34.581  10.705
74107W        W42325  27.693   1.489   0.113
74108W        W42326   3.757  19.968  14.975
74109W        W42327  10.229  42.928   1.772
74110W        W42328   0.634  15.151   2.055
74111W        W42329   2.268   9.102   1.586
74112W        W42330  18.946  32.500  11.098
74113W        W42331  20.135  15.849  13.771
74114W        W42332  25.581  34.518   1.405
74115W        W42333   8.765  39.860  11.513
74116W        W42334  44.847  32.557  13.153
74117W        W42335   9.329  23.798   2.708
74118W        W42336  23.091   9.320   2.276
74119W        W42337  44.955   1.527  11.571
74120W        W42338  21.525   6.116   3.232
74121W        W42339  10.082  23.519   3.174
74122W        W42340   5.382   2.287   0.415
74123W        W42341  18.650  28.877  10.404
74124W        W42342  42.123  32.089   3.599
74125W        W42343   9.382  10.287   2.855
74126W        W42344  16.744  39.906  13.561
74127W        W42345  17.782  16.199  11.490
74128W        W42346  39.204  14.062  11.051
74129W        W42347  15.194  13.075   2.633
74130W        W42348  30.023  22.617   3.259
74131W        W42349   3.834  11.293  14.372
74132W        W42350  35.041  27.925  11.496
74133W        W42351  21.985  24.089  11.192
74134W        W42352  32.432   0.357  11.592
74135W        W42353  33.919  32.173   2.747
74136W        W42354  38.500   9.438   3.725
74137W        W42355  10.598  15.490  11.523
74138W        W42356  24.025  36.015  12.667
74139W        W42357  41.832  34.159  13.839
74140W        W42358  33.288  36.891  13.405
74141W        W42359   5.942  14.277   4.381
74142W        W42360  40.231  14.569  12.584
74143W        W42361  42.348  18.498   1.722
74144W        W42362   8.727  36.641  12.031
74145W        W42363   6.639  10.868   2.873
74146W        W42364  27.246   1.785   3.757
74147W        W42365   7.793  27.177   3.125
74148W        W42366  28.169  19.416   2.543
74149W        W42367  19.046  32.170  11.493
74150W        W42368  25.364  25.532  14.298
74151W        W42369  27.680  38.806   1.221
74152W        W42370  32.927  19.655  12.163
74153W        W42371   2.717  11.827   3.157
74154W        W42372  37.406  42.516  12.016
74155W        W42373  37.024  42.066   0.297
74156W        W42374  29.512   3.953   1.257
74157W        W42375  43.963   8.632   1.381
74158W        W42376  18.956   0.889  12.078
74159W        W42377  36.469  11.902  13.322
74160W        W42378  36.420   7.812  13.863
74161W        W42379  20.490  35.114   0.941
74162W        W42380  17.809   3.758  14.953
74163W        W42381  17.333   8.251  12.791
74164W        W42382   0.974  33.595   1.008
74165W        W42383   5.995   8.493   2.714
74166W        W42384   8.374   6.729  13.889
74167W        W42385   0.075  15.403  14.703
74168W        W42386  20.611  37.432  14.271
74169W        W42387  22.338  10.115   3.633
74170W        W42388  23.578   4.640   0.870
74171W        W42389  30.128   5.772  10.781
74172W        W42390  23.798  39.537  10.550
74173W        W42391  24.327  41.470  13.420
74174W        W42392   6.398  25.493   2.792
74175W        W42393  34.310  14.178   3.205
74176W        W42394  16.980  26.470  14.339
74177W        W42395   3.640  44.454  11.170
74178W        W42396  11.223   9.787  10.663
74179W        W42397  36.813  14.978  14.089
74180W        W42398  19.539   5.450   4.397
74181W        W42399   7.855  20.758   4.604
74182W        W42400  44.328  44.567   4.788
74183W        W42401  44.170  24.074  11.571
74184W        W42402  30.468  10.626  14.342
74185W        W42403  37.513  12.132  12.583
74186W        W42404  37.032  33.877   3.581
74187W        W42405  44.098  12.676   3.856
74188W        W42406   8.365   2.276   4.681
74189W        W42407  33.453  44.354   0.216
74190W        W42408  12.269  15.736  12.535
74191W        W42409   2.111  18.795   2.641
74192W        W42410  23.837  24.708  11.467
74193W        W42411  42.968   4.655  14.806
74194W        W42412   2.148  39.568   4.964
74195W        W42413  41.024  33.415  11.438
74196W        W42414  31.214  43.500   1.677
74197W        W42415   7.137  18.080  11.554
74198W        W42416  39.949   8.452  14.697
74199W        W42417  29.477   1.327   1.878
74200W        W42418  24.722  38.124   3.376
74201W        W42419  40.311  12.557  14.790
74202W        W42420   7.788  36.277   1.212
74203W        W42421  19.556   5.266  11.438
74204W        W42422   0.546  41.922  13.229
74205W        W42423  38.891  35.338  10.528
74206W        W42424  15.112  41.805   2.453
74207W        W42425  28.459  24.049  12.963
74208W        W42426  41.838  25.604   4.333
74209W        W42427   4.848   9.936   0.378
74210W        W42428  32.894  32.001  10.517
74211W        W42429  44.924  22.103   4.078
74212W        W42430  18.072  24.994   4.480
74213W        W42431  34.734  26.418  10.407
74214W        W42432  12.736  13.770   4.043
74215W        W42433  40.621  26.599  12.114
74216W        W42434   3.891   5.584  14.718
74217W        W42435   8.719   3.985   2.850
74218W        W42436  41.724  16.301  14.637
74219W        W42437  30.574  23.489   1.731
74220W        W42438  28.418  21.132  13.815
74221W        W42439   0.408   5.704  13.850
74222W        W42440  43.115  14.262   1.733
74223W        W42441  24.619   1.405   0.896
74224W        W42442  14.906  43.273  14.425
74225W        W42443   1.593  16.785  13.417
74226W        W42444   7.826   1.795  13.456
74227W        W42445  28.579  39.008  14.776
74228W        W42446   5.068  17.038  10.197
74229W        W42447  10.590   6.105   2.770
74230W        W42448  32.247  29.404  13.304
74231W        W42449  30.745  18.601  13.804
74232W        W42450  10.399  28.859  14.931
74233W        W42451  36.433  12.114   4.545
74234W        W42452  40.410  43.400  13.995
74235W        W42453  15.379  21.132   3.219
74236W        W42454   7.139  32.482  11.300
74237W        W42455  19.199  23.204   1.777
74238W        W42456  28.040  38.859  14.004
74239W        W42457  34.197  32.237   0.779
74240W        W42458  18.703  44.028   4.626
74241W        W42459   9.368  29.455   1.032
74242W        W42460   4.856  13.620   3.308
74243W        W42461  36.635  10.578   2.701
74244W        W42462   5.223  17.164  12.632
74245W        W42463   0.049  17.152   4.614
74246W        W42464   5.364  12.249   1.347
74247W        W42465  30.612  35.841  13.372
74248W        W42466  35.812   0.430   4.595
74249W        W42467  18.001  40.308   1.310
74250W        W42468  14.625  36.643  13.812
74251W        W42469  25.135  28.498   2.702
74252W        W42470  41.789  25.631   3.222
74253W        W42471  26.731  10.632   4.895
74254W        W42472  17.139  19.209  13.315
74255W        W42473  32.617  13.539  11.453
74256W        W42474  37.573  16.518   2.280
74257W        W42475  21.999  40.363   0.646
74258W        W42476  37.440   2.954  13.394
74259W        W42477  19.156  27.393  11.230
74260W        W42478   0.482   0.244  12.883
74261W        W42479  16.665   6.866   2.436
74262W        W42480  11.323  29.985  14.915
74263W        W42481  27.884  36.815  10.388
74264W        W42482  13.507  42.542   2.125
74265W        W42483  14.330  17.828   3.237
74266W        W42484  12.133   4.668   1.162
74267W        W42485  18.468  38.034  12.168
74268W        W42486  21.388  40.282  11.725
74269W        W42487   3.515   4.744  13.435
74270W        W42488   0.517   0.178   0.014
74271W        W42489  21.018  24.503   3.353
74272W        W42490   3.069  42.718  12.518
74273W        W42491  33.917   8.511  13.952
74274W        W42492   6.311  31.999  12.648
74275W        W42493   9.408  14.633   0.193
74276W        W42494   3.989   6.097  14.768
74277W        W42495  33.683  43.927  12.455
74278W        W42496  33.571   5.905   0.450
74279W        W42497  21.767  14.189  12.411
74280W        W42498  30.666  24.353   4.993
74281W        W42499  27.606  34.198  13.645
74282W        W42500   3.857  23.457  13.179
74283W        W42501  43.225  15.988   0.421
74284W        W42502   2.442  43.094   3.996
74285W        W42503  15.196  30.007  11.119
74286W        W42504  40.698  21.161  11.172
74287W        W42505  41.386  28.890   3.617
74288W        W42506   3.627   9.802  10.655
74289W        W42507  28.296  29.437   3.682
74290W        W42508   2.435  18.086  10.029
74291W        W42509  36.196  23.022  11.108
74292W        W42510  18.282  28.145  11.593
74293W        W42511  40.964  24.783  11.550
74294W        W42512  25.354  34.993  12.165
74295W        W42513  26.148  14.543   5.505
74296W        W42514  20.115  17.306   2.853
74297W        W42515  26.144   7.694  11.766
74298W        W42516  44.874  27.248  14.037
74299W        W42517  44.851  30.543  13.271
74300W        W42518   5.785  36.759  12.033
74301W        W42519  39.850  35.788  13.920
74302W        W42520   9.209  44.599   3.742
74303W        W42521  38.508   9.806  12.075
74304W        W42522  17.702  18.860  14.027
74305W        W42523  41.889  12.316   4.194
74306W        W42524  33.969  21.927  11.494
74307W        W42525  37.883   8.222  13.349
74308W        W42526  15.262  35.707  12.128
74309W        W42527   9.768  34.777   3.770
74310W        W42528  34.434  16.547  13.487
74311W        W42529  31.692   5.788   1.522
74312W        W42530   0.420  27.827   4.225
74313W        W42531  12.190  18.360  11.083
74314W        W42532  11.753  14.049   0.505
74315W        W42533  28.509  28.386  12.442
74316W        W42534  17.696   1.829  11.540
74317W        W42535   5.552  18.615   4.666
74318W        W42536  35.996  16.909   4.547
74319W        W42537  21.955   4.200  13.722
74320W        W42538  39.490  44.509   4.084
74321W        W42539  32.857   0.302   3.336
74322W        W42540  25.023  28.211  12.293
74323W        W42541   5.144  10.361   0.525
74324W        W42542  41.087  12.870  14.961
74325W        W42543  18.750  18.134   3.458
74326W        W42544  36.582  16.312  14.707
74327W        W42545  27.678  24.420  11.638
74328W        W42546  21.877  40.163   4.540
74329W        W42547   5.706  33.970   2.784
74330W        W42548  23.447  35.126   1.937
74331W        W42549   8.190   5.188  14.366
74332W        W42550  11.525  20.271  14.493
74333W        W42551  15.571  37.895  14.416
74334W        W42552   6.360  15.202  11.672
74335W        W42553  35.558  40.520   1.835
74336W        W42554  28.062  12.153   1.840
74337W        W42555  41.889  43.496   1.802
74338W        W42556  39.027  25.772   3.311
74339W        W42557  27.781  24.664  14.708
74340W        W42558  22.136   3.843   0.980
74341W        W42559   7.687   3.530  14.878
74342W        W42560  16.592  26.010   1.641
74343W        W42561   7.830  35.404   4.626
74344W        W42562  43.348  12.136  10.705
74345W        W42563  43.015   5.270  10.668
74346W        W42564  33.576  40.146   1.310
74347W        W42565  26.612  17.109  14.479
74348W        W42566   0.902  23.233  10.201
74349W        W42567  43.481  38.919  13.726
74350W        W42568  16.700  30.597   1.819
74351W        W42569  23.315  44.366  13.048
74352W        W42570  11.687  40.871   3.342
74353W        W42571   3.724  21.339  11.022
74354W        W42572  11.523  34.558  13.554
74355W        W42573  34.004  35.664  10.420
74356W        W42574  34.279   8.839   3.606
74357W        W42575  41.421  41.764   1.454
74358W        W42576   6.051  23.097  11.450
74359W        W42577  34.918   0.226  11.515
74360W        W42578  30.802   9.393   2.930
74361W        W42579  35.931  14.345   0.172
74362W        W42580  11.868  20.161  13.627
74363W        W42581   9.994  35.867  14.557
74364W        W42582  16.293  36.756   4.934
74365W        W42583  26.220  14.489   4.582
74366W        W42584  30.556  16.701  10.600
74367W        W42585   4.383   7.778   4.723
74368W        W42586   6.297  19.284   2.305
74369W        W42587  42.562   1.177   1.817
74370W        W42588  19.534  33.904  14.812
74371W        W42589  15.222  13.316  12.414
74372W        W42590  40.404  32.128   1.206
74373W        W42591  43.516  17.148   2.811
74374W        W42592  41.822  31.180  14.554
74375W        W42593   1.249   9.419  12.001
74376W        W42594  25.282  23.636  12.004
74377W        W42595   8.291  12.090  14.574
74378W        W42596  34.080  14.393   3.619
74379W        W42597  35.342  35.671  14.535
74380W        W42598  37.177  19.328  14.779
74381W        W42599  36.127  27.279  12.005
74382W        W42600  25.639  36.886  11.405
74383W        W42601   5.338  21.485  14.261
74384W        W42602   3.692  28.223  10.867
74385W        W42603  17.254  39.876  13.641
74386W        W42604   0.432   5.168   1.661
74387W        W42605  11.924  27.015  11.938
74388W        W42606  40.868   6.156   1.727
74389W        W42607  28.422  29.416  10.684
74390W        W42608  16.067  12.381  11.017
74391W        W42609  44.841  38.331   0.750
74392W        W42610  31.964  31.998  14.492
74393W        W42611  40.076  41.547   1.938
74394W        W42612  10.910  26.470   4.010
74395W        W42613  36.713   8.904  11.126
74396W        W42614  42.771  44.510  14.867
74397W        W42615  11.280  26.168  14.474
74398W        W42616  42.623   8.588   5.233
74399W        W42617  21.242   0.452  13.394
74400W        W42618  22.161  36.744   0.749
74401W        W42619  33.336  31.601  11.947
74402W        W42620  42.746   9.366   0.928
74403W        W42621   3.000  33.107   0.802
74404W        W42622  20.151  27.591   4.892
74405W        W42623  26.987  32.467   0.501
74406W        W42624  23.128  25.246   0.539
74407W        W42625   0.474  40.342   0.484
74408W        W42626  35.966  37.643   2.191
74409W        W42627   6.393  42.556  12.178
74410W        W42628  10.153  31.175   1.380
74411W        W42629   5.288   3.433  12.546
74412W        W42630  36.138  36.594   5.041
74413W        W42631  27.652  25.489  11.438
74414W        W42632  40.171  11.508   4.153
74415W        W42633   9.619  43.814  12.413
74416W        W42634  38.042  18.080  11.743
74417W        W42635  39.898  24.198   2.322
74418W        W42636  33.161  17.173   0.412
74419W        W42637   6.540  15.279   4.529
74420W        W42638  29.393   6.736   1.213
74421W        W42639   2.843   7.041  14.084
74422W        W42640  24.123  32.629  12.797
74423W        W42641  13.789  19.204   1.810
74424W        W42642   3.643  26.551   1.793
74425W        W42643  30.028  30.607  10.664
74426W        W42644  32.485  43.288  12.398
74427W        W42645  41.940   8.270   4.117
74428W        W42646  34.016  27.060   0.494
74429W        W42647  11.127  29.379  13.996
74430W        W42648  37.066  38.367   2.890
74431W        W42649  23.145  37.364   2.304
74432W        W42650   7.504  33.728  11.486
74433W        W42651  39.196  26.569   1.920
74434W        W42652  36.128  21.703   2.826
74435W        W42653  36.392  10.886  14.878
74436W        W42654  33.117  43.947   3.190
74437W        W42655  15.532  37.420  14.184
74438W        W42656   8.855   9.729  14.038
74439W        W42657  19.030  37.982  11.510
74440W        W42658  34.201  35.624   2.895
74441W        W42659  35.363  17.752  11.615
74442W        W42660  26.959   1.853  12.418
74443W        W42661  14.414  18.503  14.354
74444W        W42662  33.536  20.219   1.323
74445W        W42663   4.229  27.053   4.537
74446W        W42664  43.495  10.179   4.101
74447W        W42665  24.779  34.142  10.735
74448W        W42666  31.563   5.124   5.398
74449W        W42667  42.566  13.808  14.075
74450W        W42668  33.457  39.571   4.615
74451W        W42669  18.678   8.225  12.967
74452W        W42670  12.398  27.348   0.388
74453W        W42671  13.067  39.458  12.618
74454W        W42672  14.375  25.020   1.502
74455W        W42673  38.284  27.651  12.536
74456W        W42674  21.127  43.828   4.728
74457W        W42675  33.969  43.700  13.530
74458W        W42676  13.050  40.999   0.749
74459W        W42677  33.821  38.974  12.135
74460W        W42678  17.676  18.052   0.386
74461W        W42679   0.290   0.025  10.601
74462W        W42680  15.900  32.919   2.147
74463W        W42681  27.088  21.674  13.669
74464W        W42682   9.332   4.019  13.056
74465W        W42683  22.772  36.872  13.109
74466W        W42684  26.695  41.879   3.614
74467W        W42685  24.268  31.075   1.690
74468W        W42686   7.306   1.424   0.340
74469W        W42687  11.651  38.853   0.842
74470W        W42688  14.627  21.972   0.699
74471W        W42689  12.809  27.451  10.759
74472W        W42690  17.661   4.272  11.675
74473W        W42691   6.895  25.477  14.778
74474W        W42692  21.857   4.321   3.877
74475W        W42693  39.685  27.117  13.365
74476W        W42694   3.574  44.089  10.309
74477W        W42695  11.090  14.330  12.891
74478W        W42696  12.631  16.610   4.371
74479W        W42697  31.679  38.364   4.116
74480W        W42698  33.876  41.077   4.045
74481W        W42699   2.279   4.137   2.227
74482W        W42700  37.727   1.239  11.924
74483W        W42701   1.176  43.461  12.685
74484W        W42702  40.546  41.977   0.257
74485W        W42703  27.883  21.158  13.761
74486W        W42704  12.641  28.455  14.643
74487W        W42705  30.738  12.104   1.819
74488W        W42706  34.876  38.785   1.232
74489W        W42707   5.933   3.948  11.995
74490W        W42708  43.313  31.562   1.609
74491W        W42709   4.942  18.157  13.082
74492W        W42710   0.306  41.248   0.377
74493W        W42711  36.258  38.266   4.646
74494W        W42712  29.197  41.992   3.646
74495W        W42713  38.603  28.387   3.009
74496W        W42714  29.155  18.764  11.141
74497W        W42715  37.073  31.145   3.559
74498W        W42716   1.811  14.624   0.294
74499W        W42717  18.976  43.329  13.026
74500W        W42718  23.712  14.119  13.949
74501W        W42719  11.913  30.913   0.710
74502W        W42720  35.547  17.075   4.097
74503W        W42721  38.417  23.634  12.682
74504W        W42722  40.940  36.599   4.060
74505W        W42723  28.518  43.573   4.300
74506W        W42724  15.607  40.965   0.777
74507W        W42725  30.939   5.013  11.077
74508W        W42726  32.416  25.187   0.683
74509W        W42727  11.842   6.704   1.905
74510W        W42728  12.815   9.432   4.541
74511W        W42729  20.616  15.870  13.005
74512W        W42730  43.949  34.693  14.380
74513W        W42731   6.137  17.453  14.507
74514W        W42732   6.867  26.239   4.095
74515W        W42733   6.399  36.544  14.479
74516W        W42734   2.914  27.284   3.400
74517W        W42735  33.469  34.190   4.596
74518W        W42736  25.060  21.788   0.877
74519W        W42737   9.776  31.486  10.648
74520W        W42738  41.894  33.721   1.394
74521W        W42739  40.283   6.229  14.836
74522W        W42740  37.464  12.163  13.914
74523W        W42741  39.490  21.666  14.426
74524W        W42742  38.279   7.343  12.394
74525W        W42743  27.100   6.783   0.828
74526W        W42744  30.442  42.870  11.111
74527W        W42745  40.094  33.073  14.065
74528W        W42746   7.745  12.659   1.133
74529W        W42747   0.910  36.912   2.055
74530W        W42748  37.696  19.377  14.146
74531W        W42749  10.708   9.907  11.942
74532W        W42750  32.126  41.910   2.891
74533W        W42751   4.804   7.170  13.477
74534W        W42752   2.676  20.761  12.927
74535W        W42753  26.250  21.818  11.150
74536W        W42754  14.165  17.167   2.658
74537W        W42755   5.317  42.200   0.555
74538W        W42756  21.814  44.553  14.731
74539W        W42757  43.856   1.685  11.230
74540W        W42758  14.133  12.866   3.358
74541W        W42759   5.766  41.920  13.991
74542W        W42760  11.884  35.992  13.602
74543W        W42761  43.408  11.307   3.808
74544W        W42762  32.044  29.900   3.592
74545W        W42763  32.925   2.362   1.023
74546W        W42764   0.519  27.587  11.534
74547W        W42765  32.311   9.174   0.372
74548W        W42766  21.727  32.862   3.526
74549W        W42767  44.285   8.129  14.361
74550W        W42768  18.190  44.811   2.963
74551W        W42769  22.565   0.318  13.546
74552W        W42770   4.979  40.673  12.935
74553W        W42771  27.629  28.945  13.620
74554W        W42772  27.131   6.389   4.134
74555W        W42773  35.023  31.706   1.706
74556W        W42774  44.859  24.112  14.294
74557W        W42775  24.204  14.171  11.156
74558W        W42776   4.279  41.396  11.148
74559W        W42777   9.865  27.680  13.919
74560W        W42778  29.684  20.318  12.516
74561W        W42779  28.427  32.381   0.451
74562W        W42780  25.261  26.148  13.554
74563W        W42781  37.601  21.253  14.289
74564W        W42782  17.179  30.084  13.423
74565W        W42783   5.286  27.268  11.001
74566W        W42784  19.027  37.467  13.312
74567W        W42785   5.669  30.723   3.083
74568W        W42786  42.232   6.866   1.890
74569W        W42787   2.737  40.617   3.777
74570W        W42788  21.748   7.943   0.427
74571W        W42789  22.115  25.633  14.037
74572W        W42790  19.688  23.190  10.168
74573W        W42791  25.537  21.996  14.232
74574W        W42792  17.205  43.145   4.105
74575W        W42793   6.907  33.643   3.290
74576W        W42794  39.075  44.008   2.150
74577W        W42795  27.186  20.512  11.047
74578W        W42796  22.557  34.372   3.916
74579W        W42797  29.753  22.807  14.296
74580W        W42798  20.019  22.268  11.116
74581W        W42799  28.390  33.410  10.517
74582W        W42800  10.891  24.500  10.374
74583W        W42801  41.720   7.842   2.429
74584W        W42802   3.714   5.933   1.393
74585W        W42803   1.819  20.757   4.487
74586W        W42804  40.525   9.655  11.342
74587W        W42805  10.371  27.226   0.367
74588W        W42806  31.174  22.811   2.256
74589W        W42807  44.587   9.216   0.315
74590W        W42808  35.302  33.741  14.393
74591W        W42809  17.408   6.707  13.356
74592W        W42810  40.979  25.503   5.010
74593W        W42811  26.185  21.734   0.268
74594W        W42812  39.289  15.207   1.846
74595W        W42813  40.894  38.020   4.547
74596W        W42814   4.267   9.352  14.937
74597W        W42815  26.962  17.762   0.196
74598W        W42816  40.766  42.447  12.962
74599W        W42817  14.208  37.997  11.711
74600W        W42818  26.382  10.095  13.293
74601W        W42819   8.085   1.693  11.023
74602W        W42820  15.918   8.027   4.171
74603W        W42821   6.713  28.118  13.602
74604W        W42822  19.380   4.489  12.991
74605W        W42823  26.555  24.911   2.111
74606W        W42824   3.381   3.649  11.101
74607W        W42825  24.079  16.100   1.345
74608W        W42826  44.832  44.692  11.408
74609W        W42827  44.141  35.198  12.973
74610W        W42828   5.814   7.473   3.141
74611W        W42829  44.511  40.055  13.058
74612W        W42830  35.373  26.650   1.215
74613W        W42831  12.323  21.148  11.675
74614W        W42832  10.109  22.796  11.047
74615W        W42833  28.164  15.078   0.105
74616W        W42834  20.832  32.617   1.796
74617W        W42835  19.135   9.275  10.748
74618W        W42836  20.209  20.271  14.329
74619W        W42837  10.748  37.851  10.648
74620W        W42838  35.310  13.828  14.958
74621W        W42839   0.513  40.624   2.265
74622W        W42840  17.271   8.396   3.367
74623W        W42841   0.452  43.967  14.480
74624W        W42842   9.543  19.210   3.781
74625W        W42843  11.233  19.500  14.830
74626W        W42844   2.622   6.797  13.031
74627W        W42845  18.427  31.096  10.467
74628W        W42846  18.112  16.566   4.674
74629W        W42847  41.967  26.854  12.988
74630W        W42848   8.275   6.547   4.122
74631W        W42849  13.213  11.458  13.874
74632W        W42850  26.084  21.235   5.343
74633W        W42851   5.414  20.718   0.374
74634W        W42852  25.303  15.451   4.646
74635W        W42853  10.247   6.411  11.999
74636W        W42854   6.365  40.248   4.731
74637W        W42855   2.783  25.499   1.543
74638W        W42856  27.020  10.599  14.409
74639W        W42857  14.129  20.261  12.476
74640W        W42858  38.137  30.812   4.196
74641W        W42859  34.807  26.206   4.089
74642W        W42860  27.257  39.911  11.134
74643W        W42861  22.386  15.753   4.626
74644W        W42862  35.607  19.539   1.494
74645W        W42863  23.973  13.211  12.850
74646W        W42864  39.529  25.382   3.801
74647W        W42865  24.929  17.305  13.000
74648W        W42866  12.735  37.692   3.877
74649W        W42867  24.450  30.889  11.408
74650W        W42868  12.597  33.137  11.531
74651W        W42869   7.606  38.761   4.201
74652W        W42870  15.171  28.974  12.574
74653W        W42871  44.503   0.479  13.930
74654W        W42872  17.330  37.637  12.985
74655W        W42873  11.192  43.366  11.982
74656W        W42874   3.817  24.650  14.812
74657W        W42875   5.286  21.763   3.162
74658W        W42876  22.112   1.372  13.881
74659W        W42877  33.223   4.284  14.389
74660W        W42878  15.179  40.130  13.719
74661W        W42879  16.577  21.792   3.443
74662W        W42880  19.533  17.155   3.189
74663W        W42881  21.139  33.040   2.769
74664W        W42882  42.239  40.453  13.712
74665W        W42883  12.468  17.731  13.811
74666W        W42884  34.435  29.666  11.485
74667W        W42885  14.969  24.523   4.501
74668W        W42886  20.970  19.532   9.971
74669W        W42887  30.673  19.130   0.954
74670W        W42888   7.666  24.970  13.830
74671W        W42889   8.033  30.003  12.774
74672W        W42890  11.736  40.739  13.367
74673W        W42891  11.098  35.077  14.927
74674W        W42892   0.381  21.061   2.682
74675W        W42893   5.480  28.443   4.132
74676W        W42894  29.913   0.469  14.373
74677W        W42895  34.081  26.546   0.322
74678W        W42896   5.420   7.739   4.556
74679W        W42897  30.214  23.720   4.070
74680W        W42898  42.393  34.386   2.282
74681W        W42899  41.824  11.828  12.620
74682W        W42900   6.818  11.651   0.359
74683W        W42901  23.059  37.324  13.033
74684W        W42902   9.759  12.656   2.328
74685W        W42903  13.267  20.808  13.551
74686W        W42904  17.870  39.879   0.294
74687W        W42905   7.389  23.331  10.653
74688W        W42906   9.642   7.423   3.132
74689W        W42907  41.476  20.697   0.214
74690W        W42908  15.970  38.791   0.818
74691W        W42909  22.655  42.353   1.427
74692W        W42910  41.953  33.691  13.684
74693W        W42911  10.719  32.804   0.519
74694W        W42912  37.761  40.970   3.813
74695W        W42913   4.879  18.626   0.506
74696W        W42914  34.103  35.923   0.569
74697W        W42915  28.519  32.787  13.173
74698W        W42916  18.163  40.456   3.820
74699W        W42917  28.039  41.036   0.053
74700W        W42918   8.890   7.817   0.313
74701W        W42919  25.122  12.781  14.051
74702W        W42920  37.295   3.003  11.467
74703W        W42921  42.331  16.927   3.818
74704W        W42922  23.943  15.245   4.607
74705W        W42923  11.551  24.484   2.776
74706W        W42924  15.767  19.066   0.548
74707W        W42925  12.701  28.931  11.518
74708W        W42926  12.654  21.177  10.726
74709W        W42927  15.072   5.614   0.022
74710W        W42928  11.262   1.346   1.009
74711W        W42929  17.915  41.143   2.698
74712W        W42930  37.894   4.899  10.447
74713W        W42931  15.687  17.989  11.942
74714W        W42932  25.032   3.359  13.888
74715W        W42933   6.943   9.616   2.212
74716W        W42934   5.869  25.494  12.086
74717W        W42935  22.232  38.355  10.689
74718W        W42936  40.153  26.275  11.808
74719W        W42937  15.584  36.295   1.936
74720W        W42938  44.531  12.616  14.855
74721W        W42939  36.533  28.779   4.996
74722W        W42940  30.210  31.104   4.283
74723W        W42941  31.516  34.495   1.462
74724W        W42942  24.593  18.383  11.862
74725W        W42943  36.307   3.702   2.373
74726W        W42944  23.999  13.596   4.440
74727W        W42945   3.445   5.758  13.490
74728W        W42946  35.590   9.270   0.370
74729W        W42947  26.113  19.314  12.799
74730W        W42948  42.299  26.471   3.574
74731W        W42949  15.117  25.318  11.546
74732W        W42950   7.819  44.266   3.319
74733W        W42951   3.851  32.860   2.531
74734W        W42952   3.480  13.815   3.086
74735W        W42953  14.578  13.095   3.225
74736W        W42954  12.232   1.963   2.661
74737W        W42955   6.675  30.929   4.657
74738W        W42956  22.813  41.561  14.750
74739W        W42957  21.224   8.672   4.784
74740W        W42958  23.274  25.077  12.612
74741W        W42959  15.760   4.828   2.656
74742W        W42960  31.957  18.235  11.655
74743W        W42961   1.292  17.200  12.813
74744W        W42962  33.037   7.628   1.780
74745W        W42963  31.571   4.874  11.676
74746W        W42964  38.685  29.713  12.725
74747W        W42965  44.777  40.965   1.955
74748W        W42966   3.198   1.019   2.236
74749W        W42967  16.640  24.995  14.538
74750W        W42968  41.552  35.058  10.920
74751W        W42969  31.785  33.608  11.914
74752W        W42970  32.876  14.249  11.894
74753W        W42971  22.038   3.727   3.680
74754W        W42972  27.864  32.851  11.353
74755W        W42973  34.553  35.348  14.895
74756W        W42974  35.521  43.431  13.411
74757W        W42975   0.572  37.987  12.527
74758W        W42976  40.230  12.842  14.340
74759W        W42977  35.910  24.243  13.013
74760W        W42978   4.454  17.447  13.914
74761W        W42979  35.965  15.843  10.721
74762W        W42980   4.573   7.092  11.074
74763W        W42981   3.022   3.704  14.352
74764W        W42982  29.400  21.626   1.630
74765W        W42983  14.138  26.181   3.277
74766W        W42984   8.866  20.454  13.110
74767W        W42985  37.629   3.800   0.365
74768W        W42986   9.259  33.423   4.474
74769W        W42987  32.365  12.789   4.038
74770W        W42988  39.499  32.149   1.406
74771W        W42989  29.689   3.835  13.966
74772W        W42990  21.137  26.699  12.933
74773W        W42991   0.275  12.843   4.583
74774W        W42992  31.205  26.653   2.115
74775W        W42993   2.586  15.729  13.421
74776W        W42994  13.247  16.318   0.181
74777W        W42995  12.553  32.033   4.052
74778W        W42996  18.307  10.480  12.084
74779W        W42997   0.852   4.736  11.428
74780W        W42998  36.063  17.617  14.441
74781W        W42999  41.426   6.565   5.026
74782W        W43000  44.309  14.708   0.746
74783W        W43001  38.323  43.588  13.359
74784W        W43002  34.509  42.305   4.079
74785W        W43003  41.866  25.890  14.999
74786W        W43004  18.444  11.680  11.629
74787W        W43005  39.750  24.249  14.984
74788W        W43006  24.204   0.202   2.099
74789W        W43007  22.897  11.845  11.108
74790W        W43008  28.671   3.662  10.250
74791W        W43009  17.204  27.792   0.869
74792W        W43010  14.342  42.523   0.128
74793W        W43011  26.618  34.162   4.153
74794W        W43012  24.114  10.308  12.915
74795W        W43013   4.559  44.925   4.720
74796W        W43014  18.588  40.816   4.613
74797W        W43015  40.292  35.528  13.928
74798W        W43016  20.701   6.916  12.115
74799W        W43017  36.160   1.293  10.252
74800W        W43018  33.577   1.698  10.274
74801W        W43019  10.636   7.377  13.638
74802W        W43020   0.934  31.517   1.003
74803W        W43021  27.529  26.157   3.205
74804W        W43022  33.839  38.361   1.341
74805W        W43023   6.986  33.672  11.590
74806W        W43024  43.031  21.235   3.607
74807W        W43025  15.368  25.274   4.042
74808W        W43026  40.295  21.659  11.752
74809W        W43027   7.842  26.939   4.927
74810W        W43028   5.735  42.174   3.676
74811W        W43029  26.748  22.693   0.048
74812W        W43030  14.725   0.072   4.481
74813W        W43031   5.876  24.661   4.892
74814W        W43032  38.457   7.831  12.500
74815W        W43033   8.148  26.075   3.057
74816W        W43034  35.559   9.678  11.040
74817W        W43035  30.937  10.140  13.781
74818W        W43036  17.630   4.480   3.687
74819W        W43037  24.109  41.405   1.058
74820W        W43038  18.087  19.776   1.208
74821W        W43039  34.654  41.520   4.493
74822W        W43040  43.750   2.226   4.940
74823W        W43041  33.006  35.423  14.903
74824W        W43042  38.622   3.491   3.698
74825W        W43043  37.540  28.468   0.161
74826W        W43044  30.512  13.918   4.139
74827W        W43045  33.761  29.365   4.140
74828W        W43046   5.889  13.193   0.566
74829W        W43047  43.520  32.164  13.445
74830W        W43048   0.868  11.416  12.009
74831W        W43049  32.499  43.739  10.918
74832W        W43050  32.116  22.669  14.345
74833W        W43051  14.216  10.151   0.776
74834W        W43052  20.275  21.103   1.877
74835W        W43053  12.805  31.562   1.133
74836W        W43054  16.595   1.850   3.163
74837W        W43055  42.534  25.535   2.223
74838W        W43056  10.133  12.359   3.065
74839W        W43057  15.427  10.231  10.666
74840W        W43058  30.579   8.289   3.373
74841W        W43059   1.484  37.779   0.514
74842W        W43060  17.482   1.545   1.629
74843W        W43061  18.303  28.692   3.600
74844W        W43062  40.688  33.368   4.548
74845W        W43063   7.477  17.533   9.697
74846W        W43064  15.123  32.629  11.912
74847W        W43065   5.905  29.475   1.673
74848W        W43066   1.426  18.462   0.901
74849W        W43067  10.211   3.309  14.855
74850W        W43068  33.983  26.022   0.239
74851W        W43069   3.820  22.163   0.545
74852W        W43070  33.964  33.936  14.904
74853W        W43071   5.596  14.166  11.750
74854W        W43072  27.499  19.426  11.066
74855W        W43073   8.817  43.068   2.935
74856W        W43074  27.549  44.182   3.547
74857W        W43075  17.537   0.343   1.424
74858W        W43076   7.625  35.450   0.718
74859W        W43077  24.970   3.967   0.820
74860W        W43078   5.888  18.143   3.614
74861W        W43079   1.725   1.864   1.788
74862W        W43080  28.012  36.644   2.187
74863W        W43081  25.115   6.254   4.635
74864W        W43082  25.184  21.790  11.716
74865W        W43083  17.079   2.523  11.627
74866W        W43084  23.505  32.399   1.688
74867W        W43085  19.066  37.972   1.807
74868W        W43086  22.343  41.146   5.101
74869W        W43087  11.194  16.077  10.081
74870W        W43088  10.426  18.812  13.118
74871W        W43089  22.994  12.543   0.194
74872W        W43090  28.114  35.372  13.367
74873W        W43091  30.848  23.721  14.394
74874W        W43092  17.267  22.753   0.227
74875W        W43093   7.435  39.235   2.900
74876W        W43094  23.004  24.714   0.275
74877W        W43095  16.850  19.500  13.929
74878W        W43096  40.906  31.143  13.940
74879W        W43097   4.339   4.912   2.889
74880W        W43098  40.874  29.250   1.738
74881W        W43099  40.840  27.419  11.109
74882W        W43100  38.412  38.219   4.792
74883W        W43101  30.462  38.293   4.485
74884W        W43102  41.560  16.085   2.268
74885W        W43103  35.248  30.509   2.247
74886W        W43104  35.409  44.449  13.329
74887W        W43105   1.534  22.755   3.423
74888W        W43106  11.622  11.268   3.966
74889W        W43107   9.100  35.083  13.635
74890W        W43108  20.145  41.477   0.526
74891W        W43109   4.294   3.263  13.834
74892W        W43110  15.533  11.717  12.498
74893W        W43111  37.408  15.051  10.507
74894W        W43112   0.238  11.757   3.285
74895W        W43113  28.363   8.972  13.574
74896W        W43114  25.845  26.789  10.587
74897W        W43115   2.898  42.992   2.652
74898W        W43116   0.433  44.512  12.952
74899W        W43117  35.143  26.226   2.883
74900W        W43118   9.140   1.759   0.215
74901W        W43119   1.886  37.855  10.752
74902W        W43120  39.597  24.350   3.799
74903W        W43121  27.171  24.586   2.675
74904W        W43122   8.231  40.115   3.332
74905W        W43123  25.467  23.512  13.301
74906W        W43124  18.333  38.201   3.186
74907W        W43125  26.581  26.716  11.110
74908W        W43126  44.389  30.162  10.748
74909W        W43127   1.410  38.985   2.192
74910W        W43128  28.808   6.826   0.242
74911W        W43129  25.012   7.882  10.749
74912W        W43130  27.730  20.687   3.370
74913W        W43131  38.539  22.660  10.855
74914W        W43132  43.079  44.926  13.546
74915W        W43133   1.326  43.648   2.331
74916W        W43134  28.833  27.994  14.956
74917W        W43135   4.712  13.175  13.334
74918W        W43136  11.861  33.061  13.988
74919W        W43137   6.388  44.028  11.205
74920W        W43138  31.317  42.552   1.554
74921W        W43139  24.919  42.545  12.905
74922W        W43140  22.038  42.496   0.879
74923W        W43141  19.757  16.099  14.084
74924W        W43142   5.911  15.844   0.658
74925W        W43143   3.735  30.470   4.114
74926W        W43144  33.968  35.061  10.486
74927W        W43145  20.656  35.826   4.574
74928W        W43146  26.334  20.721   5.336
74929W        W43147  41.679  20.059  11.236
74930W        W43148  11.583  17.774  10.524
74931W        W43149  30.661  10.250   2.228
74932W        W43150  32.458   8.321  12.980
74933W        W43151  34.298   6.668  13.461
74934W        W43152  29.148  37.814   0.446
74935W        W43153  33.892  26.387  11.683
74936W        W43154  14.660   2.692   1.296
74937W        W43155  24.250  35.491  10.935
74938W        W43156  34.850   5.443  12.889
74939W        W43157  39.057  36.617  10.591
74940W        W43158  40.028  31.369  11.455
74941W        W43159  37.174  27.597  14.657
74942W        W43160   7.271  23.117  14.982
74943W        W43161  13.626  15.552   3.690
74944W        W43162  30.627  33.751  14.437
74945W        W43163  16.292   1.195  11.624
74946W        W43164   6.098  33.571   4.515
74947W        W43165  40.245  35.275  10.837
74948W        W43166  18.189  43.528   1.171
74949W        W43167  42.699  37.424   1.233
74950W        W43168   2.896  12.410   0.770
74951W        W43169  26.152  20.723   2.245
74952W        W43170   1.410  20.914   5.249
74953W        W43171  44.979  43.030   4.051
74954W        W43172   0.234  35.491  14.556
74955W        W43173  43.786  21.984   0.300
74956W        W43174  16.249  40.275   2.802
74957W        W43175   2.259  21.511  14.464
74958W        W43176  32.807  14.168   0.697
74959W        W43177   8.847  24.723   0.803
74960W        W43178   8.341  37.630  11.466
74961W        W43179  41.943  29.918   4.631
74962W        W43180  14.715  15.771  12.189
74963W        W43181  18.322  16.480  13.914
74964W        W43182   7.441  17.608  11.530
74965W        W43183  41.623   2.493  11.386
74966W        W43184  24.325  40.880  12.374
74967W        W43185  10.880  44.941  10.462
74968W        W43186  30.053  15.208  11.752
74969W        W43187   0.341   1.883  13.677
74970W        W43188   8.135   4.913  13.930
74971W        W43189   2.897  27.069  13.021
74972W        W43190  36.547  31.977   2.281
74973W        W43191   2.911  20.685  13.377
74974W        W43192  30.119  19.559   3.581
74975W        W43193  19.373  44.500   3.578
74976W        W43194  33.029   3.346   4.089
74977W        W43195  37.777  35.657   1.958
74978W        W43196   7.400   3.736  14.485
74979W        W43197   5.420  23.550  11.933
74980W        W43198  18.579   3.159   4.173
74981W        W43199  36.405  17.149   1.443
74982W        W43200   8.448  42.802  10.563
74983W        W43201  34.476  44.932  11.518
74984W        W43202  28.355  24.644   1.288
74985W        W43203  33.734  35.974  14.802
74986W        W43204  10.268  24.951  10.754
74987W        W43205  10.356  15.813  13.904
74988W        W43206   5.658  12.700   3.416
74989W        W43207  16.683  37.120  12.559
74990W        W43208  40.525  35.126   2.309
74991W        W43209  19.276  16.004   2.621
74992W        W43210  21.548  31.591  10.344
74993W        W43211  38.613  35.936  11.156
74994W        W43212   2.857  37.019  11.940
74995W        W43213  25.305  34.801  14.229
74996W        W43214  11.296  37.889   4.605
74997W        W43215  34.027  22.910  13.320
74998W        W43216  29.320  19.640   1.095
74999W        W43217  44.287  44.385   3.151
75000W        W43218   3.159  38.309   1.703
75001W        W43219  38.514  41.482   3.669
75002W        W43220  14.252  20.754  12.376
75003W        W43221   2.247  41.904   0.944
75004W        W43222  41.323  35.113   4.865
75005W        W43223  22.173  38.067   4.818
75006W        W43224  43.585   2.813  13.623
75007W        W43225   9.721  11.741   0.462
75008W        W43226  26.586  40.794   0.444
75009W        W43227  28.152  22.231   2.726
75010W        W43228  37.590  23.230  12.380
75011W        W43229  30.081  28.024   1.763
75012W        W43230  44.234  39.112   0.856
75013W        W43231  35.589  25.574  13.593
75014W        W43232   1.494  42.748  11.723
75015W        W43233  39.182  15.130   4.311
75016W        W43234  30.549   0.638  13.983
75017W        W43235  38.003  16.213   3.210
75018W        W43236  34.025  39.113   0.714
75019W        W43237  25.332  13.714   1.652
75020W        W43238  24.221  32.683  13.304
75021W        W43239   4.593  19.450   0.153
75022W        W43240   5.277  43.988   3.658
75023W        W43241  13.607  41.596   1.280
75024W        W43242  27.456   2.806  12.004
75025W        W43243   1.040  42.917  14.958
75026W        W43244  17.984   2.248   3.293
75027W        W43245  37.139  38.342   3.401
75028W        W43246  27.495  34.106   4.555
75029W        W43247  32.863  12.799   2.809
75030W        W43248   9.166  36.879   3.606
75031W        W43249   2.550  27.572  13.727
75032W        W43250  13.564  11.405  10.437
75033W        W43251  11.865  29.223   4.601
75034W        W43252  15.095   3.618  13.247
75035W        W43253   1.234  40.677  14.622
75036W        W43254   0.228  36.918  11.629
75037W        W43255  27.171  16.800   1.780
75038W        W43256  23.553  34.526   2.832
75039W        W43257  29.735  23.126   3.300
75040W        W43258  12.661   0.543   4.578
75041W        W43259   2.433  39.459  12.519
75042W        W43260  10.173   1.798   3.121
75043W        W43261  23.771  12.193  14.216
75044W        W43262  20.843  37.697   5.572
75045W        W43263  42.973  37.326  12.184
75046W        W43264  43.913  17.851   3.152
75047W        W43265  11.040   0.182   4.578
75048W        W43266   1.678  28.515  11.575
75049W        W43267  28.189  24.218   3.256
75050W        W43268  25.181  13.227   2.682
75051W        W43269  41.206   9.609   2.797
75052W        W43270  29.310  39.532  11.198
75053W        W43271   1.057  10.674  11.535
75054W        W43272  24.560  19.692  10.735
75055W        W43273   6.842   8.690   0.443
75056W        W43274  17.092  39.873  12.599
75057W        W43275  24.708   7.234   2.376
75058W        W43276  14.112  35.047  11.945
75059W        W43277  17.486  10.642   2.150
75060W        W43278   8.667  39.280  10.607
75061W        W43279  25.356  29.567   2.288
75062W        W43280  36.573  25.457   1.529
75063W        W43281  21.447  14.274  13.482
75064W        W43282  39.418  13.842  14.608
75065W        W43283  27.425  22.692  14.397
75066W        W43284  31.759  20.476   2.481
75067W        W43285  17.440  33.062  12.945
75068W        W43286  17.988  41.489  13.006
75069W        W43287   2.901  26.212   4.841
75070W        W43288  22.562  28.677   4.728
75071W        W43289   6.097   7.284   2.290
75072W        W43290  30.081  28.934  14.694
75073W        W43291  11.713  33.070  11.580
75074W        W43292  34.037  10.467   0.138
75075W        W43293  24.658   7.410  13.438
75076W        W43294   0.064  26.226   1.099
75077W        W43295  20.637   3.883  11.838
75078W        W43296  43.010  22.579   0.094
75079W        W43297  42.005  21.896  12.379
75080W        W43298  11.145  24.930   1.070
75081W        W43299  13.061  39.161   1.849
75082W        W43300   8.682  23.320   2.106
75083W        W43301  32.635  33.483   4.086
75084W        W43302   2.757  37.459  12.172
75085W        W43303   5.398  25.023  14.138
75086W        W43304  20.704   0.360  14.002
75087W        W43305   1.785  30.678   2.855
75088W        W43306   1.655  16.149   1.312
75089W        W43307   6.228  11.290  10.555
75090W        W43308  32.998  32.164   3.355
75091W        W43309  16.022  38.415   4.783
75092W        W43310  25.341  21.642   4.075
75093W        W43311  40.062  11.988   1.935
75094W        W43312  34.356  22.599   4.496
75095W        W43313  22.028  22.066   2.193
75096W        W43314  29.707  23.725   1.857
75097W        W43315  44.486  21.729  14.927
75098W        W43316  10.202  15.660   3.487
75099W        W43317  18.484   5.770  11.964
75100W        W43318  22.177  15.120  14.438
75101W        W43319  14.769  22.081  11.895
75102W        W43320  38.083  19.708  14.388
75103W        W43321  37.595  31.866   3.745
75104W        W43322  29.929  18.636   1.338
75105W        W43323   6.869  40.341  13.113
75106W        W43324   7.295  16.121   1.895
75107W        W43325  35.823  28.412   1.407
75108W        W43326  24.143  18.278  12.071
75109W        W43327  11.571  41.824  11.140
75110W        W43328   9.367  24.115  11.550
75111W        W43329   3.493  44.859   0.672
75112W        W43330  10.218  42.487  11.920
75113W        W43331  26.190  14.958   0.989
75114W        W43332   4.000  20.372   3.070
75115W        W43333  10.421  33.876   3.116
75116W        W43334  16.169   9.854  12.930
75117W        W43335   0.409  39.343  11.476
75118W        W43336  38.588  33.880  12.384
75119W        W43337  20.327  22.125  13.872
75120W        W43338  15.703  22.275   3.415
75121W        W43339  38.850  14.630  11.424
75122W        W43340  16.521  32.436   0.935
75123W        W43341  12.415  26.403   4.806
75124W        W43342   6.880  31.378   1.760
75125W        W43343   5.460  26.653  14.468
75126W        W43344  13.247  38.665  12.922
75127W        W43345   3.889  25.579   1.489
75128W        W43346  29.101  27.559   1.905
75129W        W43347  16.168  18.449   4.702
75130W        W43348  26.527   9.601   0.472
75131W        W43349  20.041  23.599  13.868
75132W        W43350  11.219  24.804  10.687
75133W        W43351  34.579  18.764   4.367
75134W        W43352  17.706  14.420   2.410
75135W        W43353  19.503  20.674   3.163
75136W        W43354  23.195   1.701   2.252
75137W        W43355  34.317  20.796  11.585
75138W        W43356   1.730   2.994  13.198
75139W        W43357  16.243  11.704   3.885
75140W        W43358  15.929  20.548   0.056
75141W        W43359  35.847  21.646   4.230
75142W        W43360  18.562  11.644   1.185
75143W        W43361   7.592  34.149   2.359
75144W        W43362  30.163  43.483  12.209
75145W        W43363  18.114  28.297   2.154
75146W        W43364  43.888  33.545  11.978
75147W        W43365   9.190   3.922  14.833
75148W        W43366  44.237  41.567   3.232
75149W        W43367  42.442  15.985   0.346
75150W        W43368  37.320  17.327  12.037
75151W        W43369  37.337   6.153   4.947
75152W        W43370   9.495  26.120   4.805
75153W        W43371   3.880  25.220  10.781
75154W        W43372   4.980  16.660   1.418
75155W        W43373  10.079   0.809  11.612
75156W        W43374  18.083  36.895  12.480
75157W        W43375  28.035  40.832   1.876
75158W        W43376  22.378  23.148  12.466
75159W        W43377  28.486   4.734  13.561
75160W        W43378   6.403  27.021  12.961
75161W        W43379  27.139  19.332  13.649
75162W        W43380  44.555   4.151  12.445
75163W        W43381  18.590  41.550   4.393
75164W        W43382  36.508  15.430   2.105
75165W        W43383  20.063  30.622  13.132
75166W        W43384  17.223  44.988   3.103
75167W        W43385   1.709  31.466   3.636
75168W        W43386   7.954   9.764   1.263
75169W        W43387  10.913  35.429   2.268
75170W        W43388  34.934  37.508  11.489
75171W        W43389  20.323  26.019   1.327
75172W        W43390  26.694  30.400   3.166
75173W        W43391  39.323  32.603  14.488
75174W        W43392  41.994  34.295  14.315
75175W        W43393  26.212  35.521   0.542
75176W        W43394   0.818   4.733  12.402
75177W        W43395  39.309   1.933   1.456
75178W        W43396  44.910   2.801   0.779
75179W        W43397  26.565  43.532  11.349
75180W        W43398  18.226  12.607  13.458
75181W        W43399   2.211   3.938   1.768
75182W        W43400  44.198  24.952   1.789
75183W        W43401  39.903  16.309   2.477
75184W        W43402  29.440  24.972   1.268
75185W        W43403   1.141   0.726  11.996
75186W        W43404  34.515  42.517   2.681
75187W        W43405   5.239   0.380   4.115
75188W        W43406  22.457   7.799  10.728
75189W        W43407  27.512  44.478   3.995
75190W        W43408  37.572  19.702  12.633
75191W        W43409  12.232  38.127   3.113
75192W        W43410   8.795  13.337   0.532
75193W        W43411  33.929  43.877  12.957
75194W        W43412  44.617  33.856  10.361
75195W        W43413  12.124   7.952  11.168
75196W        W43414  20.035  38.921  12.504
75197W        W43415  39.559  44.208   3.647
75198W        W43416   6.003  29.373  13.523
75199W        W43417  37.747  36.597  13.957
75200W        W43418  44.888  15.713  14.340
75201W        W43419  33.630   9.688  10.884
75202W        W43420  12.293   2.194   3.202
75203W        W43421  24.509  36.679  14.758
75204W        W43422  37.804  21.990   1.236
75205W        W43423  33.369  10.043  14.992
75206W        W43424   0.797  15.782   2.733
75207W        W43425  32.838  33.977   3.477
75208W        W43426  10.157  41.527   4.527
75209W        W43427  13.647   7.817  10.674
75210W        W43428  15.131   3.348   0.980
75211W        W43429  40.772  10.471  14.452
75212W        W43430  34.433  21.483  14.467
75213W        W43431  19.644  26.414   3.575
75214W        W43432  18.820  19.956  14.065
75215W        W43433  31.676  22.483  13.971
75216W        W43434   2.890   5.212  11.435
75217W        W43435  25.622  34.980  11.738
75218W        W43436   3.399  17.725   3.247
75219W        W43437  34.948   1.094   4.615
75220W        W43438  24.448   0.220   1.642
75221W        W43439  44.046   2.835  13.328
75222W        W43440  14.068   8.408   0.875
75223W        W43441   8.937   6.683   3.612
75224W        W43442  37.525  34.039   2.230
75225W        W43443  21.251  10.052   1.612
75226W        W43444  14.599   2.347   1.725
75227W        W43445  41.505   0.261   2.251
75228W        W43446  16.734  27.354  13.492
75229W        W43447  24.507  43.743  12.483
75230W        W43448  43.415  38.998  14.780
75231W        W43449  33.436   4.801  11.669
75232W        W43450  39.997  17.666   1.712
75233W        W43451  38.533   0.949   2.194
75234W        W43452  13.360   0.449   3.101
75235W        W43453  31.302  15.014   4.591
75236W        W43454  16.747   8.778   1.330
75237W        W43455  19.296  30.929   1.532
75238W        W43456   9.353  39.876   3.688
75239W        W43457  24.260  32.860   1.900
75240W        W43458  18.339  28.559  14.949
75241W        W43459  32.924   8.592   0.885
75242W        W43460   6.384  34.231   2.752
75243W        W43461  30.930  11.187   3.238
75244W        W43462   4.032  17.277   2.736
75245W        W43463  14.921  24.206  12.891
75246W        W43464  29.878  12.895   4.109
75247W        W43465  43.871   9.361   0.068
75248W        W43466   1.487   1.883  14.729
75249W        W43467  13.787  31.190   2.872
75250W        W43468  21.412  37.559  14.798
75251W        W43469   5.396  21.553   3.617
75252W        W43470  22.711  15.733  11.769
75253W        W43471  27.158   9.770   0.670
75254W        W43472  33.253  43.308   4.500
75255W        W43473  36.514  42.724   3.269
75256W        W43474  23.030  20.576   2.237
75257W        W43475   5.530  32.364   4.443
75258W        W43476   6.301  27.050  10.063
75259W        W43477  29.337  42.188   1.396
75260W        W43478  23.155  27.643   2.952
75261W        W43479   3.420  16.108   4.651
75262W        W43480  36.826  41.579  11.954
75263W        W43481  11.202   8.735  10.417
75264W        W43482  42.571  30.796  14.648
75265W        W43483   4.375  10.929  12.108
75266W        W43484  25.306  29.515  14.343
75267W        W43485  35.356   7.458   3.615
75268W        W43486  13.303  26.527   0.699
75269W        W43487  43.440  34.339   3.713
75270W        W43488  44.482  41.329   5.028
75271W        W43489  13.250  11.597  10.034
75272W        W43490  17.064  10.882   2.420
75273W        W43491  17.259  23.806  13.569
75274W        W43492   3.431  21.355   0.222
75275W        W43493  18.348  22.416  11.204
75276W        W43494  12.283  40.506  10.927
75277W        W43495  42.432  16.327   4.798
75278W        W43496   1.280   0.493  11.425
75279W        W43497  32.123  36.973   3.615
75280W        W43498   8.764  13.719   4.597
75281W        W43499  13.955  35.521  11.882
75282W        W43500  28.675  10.447   0.015
75283W        W43501  17.726  32.585  13.003
75284W        W43502   7.718  17.774   1.897
75285W        W43503  28.987  23.544  10.789
75286W        W43504  27.715  18.210  13.008
75287W        W43505  39.721  44.973   4.080
75288W        W43506   1.880  23.580   4.582
75289W        W43507  16.435  32.974  13.981
75290W        W43508  12.325  19.528   4.073
75291W        W43509  41.894  42.726   2.352
75292W        W43510  35.537  26.665   4.173
75293W        W43511  31.132  24.260  13.353
75294W        W43512   3.618  30.356  14.418
75295W        W43513  22.474  31.365   1.908
75296W        W43514   0.257  30.972   1.046
75297W        W43515   8.183  28.788   1.162
75298W        W43516  25.910  19.876   0.856
75299W        W43517  34.516  41.605   0.965
75300W        W43518  13.832   4.357  11.097
75301W        W43519  16.271  18.231  12.585
75302W        W43520  38.363   1.877   2.814
75303W        W43521  25.467  33.275  14.361
75304W        W43522  35.850  10.843  14.344
75305W        W43523   3.525   5.425  12.544
75306W        W43524  17.865  10.088   0.713
75307W        W43525  44.033  17.599   2.248
75308W        W43526   5.518   3.836   1.347
75309W        W43527  26.451   8.328  10.673
75310W        W43528   3.484  35.805  14.240
75311W        W43529  38.372  43.967   4.997
75312W        W43530  32.598  29.056  11.674
75313W        W43531  14.409   7.918  14.477
75314W        W43532  24.222  12.683   1.362
75315W        W43533  21.043   2.777   4.289
75316W        W43534  43.862  33.632   1.387
75317W        W43535   1.877  29.893  12.532
75318W        W43536   3.447  28.013  11.562
75319W        W43537  10.784  19.704   3.579
75320W        W43538  44.724   4.839  14.883
75321W        W43539  43.269  29.115  14.720
75322W        W43540  22.564   1.229  13.069
75323W        W43541  24.122  38.347   2.417
75324W        W43542  33.647   3.930   0.727
75325W        W43543  44.507  17.620   1.952
75326W        W43544  43.483  30.384  11.619
75327W        W43545  43.232  26.544  14.294
75328W        W43546  20.032  14.983   0.517
75329W        W43547  43.593  42.246   3.802
75330W        W43548  21.611  32.392  14.752
75331W        W43549  24.161  27.046  11.352
75332W        W43550  30.885  19.139  12.906
75333W        W43551  43.069  28.730   0.762
75334W        W43552   1.432  25.779   1.381
75335W        W43553   0.012  13.303  11.635
75336W        W43554  39.304  42.039   0.866
75337W        W43555  35.401  19.985  12.975
75338W        W43556   3.772  14.191   1.469
75339W        W43557  38.384  30.638  14.900
75340W        W43558  39.486  41.481   4.679
75341W        W43559  14.963  44.192  13.287
75342W        W43560  28.019  32.404   0.836
75343W        W43561  13.668  31.398   1.900
75344W        W43562  44.388  31.749  13.727
75345W        W43563  30.171  28.019   0.112
75346W        W43564  44.814   6.768  11.706
75347W        W43565  17.551  23.062  12.433
75348W        W43566  24.619  11.079   2.276
75349W        W43567  23.719  28.607  10.953
75350W        W43568  28.205  14.263   1.402
75351W        W43569  38.504  32.473   3.669
75352W        W43570  33.958  14.038  12.804
75353W        W43571  28.468   9.118  12.652
75354W        W43572  43.057   4.244   3.192
75355W        W43573  40.721  27.630   4.294
75356W        W43574  29.681  28.609  11.069
75357W        W43575  40.923   3.121  13.949
75358W        W43576  44.523   6.266  13.956
75359W        W43577  28.349  34.919  13.301
75360W        W43578  37.892  34.812   1.207
75361W        W43579  31.442  23.227  14.723
75362W        W43580  29.826  10.646   3.723
75363W        W43581   0.667  24.741  12.815
75364W        W43582   3.144  11.364   0.133
75365W        W43583  40.261  25.686   0.664
75366W        W43584  22.762  25.990   4.018
75367W        W43585  13.881  42.301  13.347
75368W        W43586  25.685  20.504   2.392
75369W        W43587  23.154  32.251  11.014
75370W        W43588  33.309  24.852  11.582
75371W        W43589  23.041   0.279   4.144
75372W        W43590  39.823  15.669  11.419
75373W        W43591  43.244  23.567   2.661
75374W        W43592  35.514  19.602   0.058
75375W        W43593  27.594  36.446  13.750
75376W        W43594  25.195  38.435  12.269
75377W        W43595  33.396  27.596  10.607
75378W        W43596  25.070  35.089   3.778
75379W        W43597  24.619  19.642  12.328
75380W        W43598  10.872  41.295  11.006
75381W        W43599   7.141   1.338  14.327
75382W        W43600  43.736  42.922  14.324
75383W        W43601  19.970  40.691   3.157
75384W        W43602  44.439  10.190   4.634
75385W        W43603  18.230  11.820   0.407
75386W        W43604  32.461  34.630   1.502
75387W        W43605  34.715  30.956   4.465
75388W        W43606   0.519  40.469  14.079
75389W        W43607   0.638  23.205   4.715
75390W        W43608   5.633  18.184   2.728
75391W        W43609  38.980  25.699   0.750
75392W        W43610  29.450  12.633   4.565
75393W        W43611  26.135  30.895  10.613
75394W        W43612  40.276  42.917  13.746
75395W        W43613  39.374  40.782   0.256
75396W        W43614  28.361  21.162   4.391
75397W        W43615  34.052  27.059   2.824
75398W        W43616  22.289  36.986  13.840
75399W        W43617  10.226  23.425  13.509
75400W        W43618  41.278  33.378   2.165
75401W        W43619   6.362  14.792  14.402
75402W        W43620  33.998  40.993  12.963
75403W        W43621   4.880  11.458  11.102
75404W        W43622  17.554  19.176   0.014
75405W        W43623  12.213  21.617  12.941
75406W        W43624   8.138   8.253  12.199
75407W        W43625  11.590  27.581  14.892
75408W        W43626  17.487  39.295   1.916
75409W        W43627   3.205   3.221  10.775
75410W        W43628  43.196  30.477  13.095
75411W        W43629  33.581  38.415   1.813
75412W        W43630  39.635  30.587  11.090
75413W        W43631  42.378  24.226   3.310
75414W        W43632  35.618  15.023   2.324
75415W        W43633   2.741  42.649  10.766
75416W        W43634  30.430  38.736  13.082
75417W        W43635  21.538  33.210  12.294
75418W        W43636  31.665  20.214   2.924
75419W        W43637  19.321  33.753  14.078
75420W        W43638  27.665   3.387  11.968
75421W        W43639   2.751  32.246   3.286
75422W        W43640  22.545  42.035  13.823
75423W        W43641  21.798   1.818   4.052
75424W        W43642  14.306  24.725  11.616
75425W        W43643  22.677   6.604  11.624
75426W        W43644  38.289  18.567   4.669
75427W        W43645  33.831  35.098   1.967
75428W        W43646  40.898   5.488  14.605
75429W        W43647  33.375   4.420   2.262
75430W        W43648   3.235   5.459  11.132
75431W        W43649  35.571  36.540  14.633
75432W        W43650  37.849  20.238  13.132
75433W        W43651  24.848   4.735   3.853
75434W        W43652  32.529  21.657   2.238
75435W        W43653  14.315  37.159  11.192
75436W        W43654  14.522  10.747  14.299
75437W        W43655  26.659   2.822  12.432
75438W        W43656   2.266  28.981   9.571
75439W        W43657  10.948  41.480   4.097
75440W        W43658  29.122   5.173  12.535
75441W        W43659  30.075  19.591   1.704
75442W        W43660  27.515  15.822   1.880
75443W        W43661  14.920  11.648   4.179
75444W        W43662  43.569   0.989   0.473
75445W        W43663  12.418  32.176   1.342
75446W        W43664   3.584   8.370  13.466
75447W        W43665  10.353  22.198   0.029
75448W        W43666   6.510  25.881  14.020
75449W        W43667   5.623  16.071   0.263
75450W        W43668   4.387  32.020   2.679
75451W        W43669  24.816  31.540  14.026
75452W        W43670  32.675   2.651  10.130
75453W        W43671  21.151  41.340  10.799
75454W        W43672  43.490  12.687   2.723
75455W        W43673   8.174  32.455   0.363
75456W        W43674  41.546  11.798   3.859
75457W        W43675  30.913  15.216  14.794
75458W        W43676  22.663  33.955   0.890
75459W        W43677  22.702  21.076   4.492
75460W        W43678  40.512   6.674  12.497
75461W        W43679  20.169  25.757   3.885
75462W        W43680  27.831   4.080   3.343
75463W        W43681   6.710  11.889  11.211
75464W        W43682   9.292   5.826   1.793
75465W        W43683  29.346   0.595   2.810
75466W        W43684  23.451  16.938  10.851
75467W        W43685  23.360  31.485  12.901
75468W        W43686   6.298   8.432  12.482
75469W        W43687  31.348  32.566   2.824
75470W        W43688  44.770  34.852   3.800
75471W        W43689   9.888  12.219   0.371
75472W        W43690  43.267  28.410   0.385
75473W        W43691  23.523   7.711  12.918
75474W        W43692  26.819  14.220   3.620
75475W        W43693   6.686  16.873   0.922
75476W        W43694  20.244  23.087  13.861
75477W        W43695  18.444  13.843  10.426
75478W        W43696  41.583  30.377   1.623
75479W        W43697  38.571  19.753  14.036
75480W        W43698  24.969  17.569  10.722
75481W        W43699  14.347   6.006  12.455
75482W        W43700  28.963  13.222  10.609
75483W        W43701   0.518   8.238   0.328
75484W        W43702  35.154  32.075   4.999
75485W        W43703  28.407   3.912   2.791
75486W        W43704  22.111  38.813  11.011
75487W        W43705  15.533  22.166  11.206
75488W        W43706  20.217  26.721   0.882
75489W        W43707  11.344  21.301  14.412
75490W        W43708  29.124  20.461   3.432
75491W        W43709  15.432  17.630   2.768
75492W        W43710  14.885  20.613   4.558
75493W        W43711   6.218  30.634   3.434
75494W        W43712  26.564  32.377  14.579
75495W        W43713   9.042  26.989  14.326
75496W        W43714  41.066  26.623  13.531
75497W        W43715   7.747  44.772  11.468
75498W        W43716   6.338   7.024   1.906
75499W        W43717  30.321  26.570   0.895
75500W        W43718  40.177  14.891   4.168
75501W        W43719  15.799  13.888  14.453
75502W        W43720  27.667  29.025  13.113
75503W        W43721  27.047  39.883   4.636
75504W        W43722  33.340  33.586   2.275
75505W        W43723  36.312   4.209  13.883
75506W        W43724  43.565  16.403   0.508
75507W        W43725  10.096  29.514   4.238
75508W        W43726   4.848  27.186  13.891
75509W        W43727  15.025  36.348   3.890
75510W        W43728  34.474  27.651  12.738
75511W        W43729  32.426  31.696  13.856
75512W        W43730  15.651  12.252   3.367
75513W        W43731  34.189  44.018   0.100
75514W        W43732  28.877  41.887  12.339
75515W        W43733  34.580  13.119   2.215
75516W        W43734  12.559  10.946  12.098
75517W        W43735  20.705  37.338   4.651
75518W        W43736  14.768  21.510  10.731
75519W        W43737  21.609   6.742   4.521
75520W        W43738  11.097  43.587   5.119
75521W        W43739  27.719  34.743   0.850
75522W        W43740  26.225  26.159   3.434
75523W        W43741  19.900  10.959  10.937
75524W        W43742  17.305  32.737  12.532
75525W        W43743  32.071  29.597  13.768
75526W        W43744  19.205  31.701   2.166
75527W        W43745  19.303   9.556   3.205
75528W        W43746   5.331  36.588  14.447
75529W        W43747  35.819   4.213  11.162
75530W        W43748   1.486  21.048   4.223
75531W        W43749  27.015  34.119   2.875
75532W        W43750  40.273   8.836  14.810
75533W        W43751  37.517   0.184  12.986
75534W        W43752  34.291   0.040  10.625
75535W        W43753  39.045  37.538   9.878
75536W        W43754   5.429  39.793   3.165
75537W        W43755  39.946  42.830   3.381
75538W        W43756  36.926   9.238  10.777
75539W        W43757  40.838  34.957  14.008
75540W        W43758   9.602  36.472   3.236
75541W        W43759   1.822  18.785   0.769
75542W        W43760  11.814  34.833   1.376
75543W        W43761  20.710  15.499   4.644
75544W        W43762  42.479  23.206   3.339
75545W        W43763  15.489   0.926   2.840
75546W        W43764  35.404  30.917  14.474
75547W        W43765  31.872  10.667  13.534
75548W        W43766  28.229  37.155   2.309
75549W        W43767  35.495  29.292   5.022
75550W        W43768  11.867  44.460  13.169
75551W        W43769  34.011   2.953   2.824
75552W        W43770  11.889  29.054  14.175
75553W        W43771  21.035  21.314   2.744
75554W        W43772   6.315  34.566   0.621
75555W        W43773   8.387  29.970  14.743
75556W        W43774  44.477  20.472   1.487
75557W        W43775  25.515  25.167  11.985
75558W        W43776  20.192  24.551  14.867
75559W        W43777  34.365  22.842  10.700
75560W        W43778  29.472  27.342  14.048
75561W        W43779  18.115  42.032   3.733
75562W        W43780  38.322   8.398   0.255
75563W        W43781  13.212  41.343  12.590
75564W        W43782  26.086  19.364   4.539
75565W        W43783  43.431  19.784   3.634
75566W        W43784  12.017  30.070   2.533
75567W        W43785  21.675  34.123   1.256
75568W        W43786  14.201  29.908   2.672
75569W        W43787  28.515  31.890  10.735
75570W        W43788  11.219  37.218   1.610
75571W        W43789  13.672   2.867   2.210
75572W        W43790  41.169   3.823   5.087
75573W        W43791  22.035  10.905  12.104
75574W        W43792   6.299   3.670  10.561
75575W        W43793   1.725  27.811  14.271
75576W        W43794  35.674  14.271   4.517
75577W        W43795  37.481  28.405   1.725
75578W        W43796  26.352  14.633   2.340
75579W        W43797  41.558  34.046  14.386
75580W        W43798  10.951   8.794   0.338
75581W        W43799  10.911   4.909  10.621
75582W        W43800  39.710  35.038  12.106
75583W        W43801  15.146   1.534  12.036
75584W        W43802  42.584  39.465  10.702
75585W        W43803  13.420  14.380  10.328
75586W        W43804  43.752   7.398   4.958
75587W        W43805  35.065  21.740   4.917
75588W        W43806  15.646  21.170   2.681
75589W        W43807  42.152  10.411   2.157
75590W        W43808  34.424  32.057  13.784
75591W        W43809  16.221   7.160  14.453
75592W        W43810  32.483  29.449  12.009
75593W        W43811   4.328  15.372   3.262
75594W        W43812  10.384   2.522   4.123
75595W        W43813  39.802   9.669  11.640
75596W        W43814  41.001  40.995   4.586
75597W        W43815  24.744   3.271  14.322
75598W        W43816   9.790  16.459  12.890
75599W        W43817   3.526  15.983   2.742
75600W        W43818  23.421   5.876  14.384
75601W        W43819  27.146  41.267  12.951
75602W        W43820  13.685  39.421   4.841
75603W        W43821   7.405  10.933  10.727
75604W        W43822  34.341  30.553   3.659
75605W        W43823  26.231  39.098   4.061
75606W        W43824   2.744  27.497  12.774
75607W        W43825  14.277   1.533   0.080
75608W        W43826  41.823  13.563   1.731
75609W        W43827  37.291  41.697   4.710
75610W        W43828  30.259   8.904  14.764
75611W        W43829  33.432  29.973  12.222
75612W        W43830  36.882   8.586  11.980
75613W        W43831   5.233  22.778  11.924
75614W        W43832  12.120  35.114   1.062
75615W        W43833  36.983  37.626  13.376
75616W        W43834   8.459  28.060   4.632
75617W        W43835   1.894  13.108   0.335
75618W        W43836  39.468  14.190   2.671
75619W        W43837  36.848  42.896  12.516
75620W        W43838  44.300  22.606   0.850
75621W        W43839  30.406  25.528   3.624
75622W        W43840  40.574  28.082   4.082
75623W        W43841  24.680  32.039  13.510
75624W        W43842  44.503  12.583   4.593
75625W        W43843   9.191  10.417   0.958
75626W        W43844  24.345  39.857  11.823
75627W        W43845   8.927  37.343   0.815
75628W        W43846  29.015   4.488  14.370
75629W        W43847  31.432  11.259   2.349
75630W        W43848  19.934  43.788   2.393
75631W        W43849  13.124  26.765  13.454
75632W        W43850   9.364  37.262   0.194
75633W        W43851  25.961   3.356   1.364
75634W        W43852  29.565  27.738  13.415
75635W        W43853  40.357  29.930  12.644
75636W        W43854  41.546   3.423   5.066
75637W        W43855   1.840  15.637  10.584
75638W        W43856   8.867   4.058   4.377
75639W        W43857  40.389   9.853   0.038
75640W        W43858  13.877  44.830   0.514
75641W        W43859  21.190  30.369  13.799
75642W        W43860  11.810  10.361  11.375
75643W        W43861   8.692  22.130   1.909
75644W        W43862  36.721  28.026  11.991
75645W        W43863  14.107  27.934   0.402
75646W        W43864   6.893  24.906   3.775
75647W        W43865  15.287  20.107   2.291
75648W        W43866   5.659  26.247   0.370
75649W        W43867  16.363  38.006  11.158
75650W        W43868  24.478  43.828   4.624
75651W        W43869  37.951  10.766   3.959
75652W        W43870  41.381  42.740  12.998
75653W        W43871  40.785  21.296   3.314
75654W        W43872  15.722  36.958   3.769
75655W        W43873  21.788  17.316  13.924
75656W        W43874  31.111  11.003  13.337
75657W        W43875  35.517  42.403   1.814
75658W        W43876  28.646  31.656   3.176
75659W        W43877  22.012  11.319   2.886
75660W        W43878  22.127  27.657  12.811
75661W        W43879  11.271  19.079   0.202
75662W        W43880  10.803  26.086   3.408
75663W        W43881  12.268  36.961   3.622
75664W        W43882   0.779   9.900   3.406
75665W        W43883  23.598  24.288  10.623
75666W        W43884  24.784  40.929  12.593
75667W        W43885  41.122   1.211  13.808
75668W        W43886  13.423  13.670  12.936
75669W        W43887   8.429   5.360  14.808
75670W        W43888  21.514  18.214  14.851
75671W        W43889  43.866  10.254   2.867
75672W        W43890  34.947  41.802  11.650
75673W        W43891   1.718  26.397   5.075
75674W        W43892  11.338   0.582   3.794
75675W        W43893  43.848  42.942  11.496
75676W        W43894  36.226  27.153  12.535
75677W        W43895  11.798  34.498   4.520
75678W        W43896   2.902  29.543   3.739
75679W        W43897  22.166  20.238   0.540
75680W        W43898  30.981  18.346  11.022
75681W        W43899  19.503  31.939  11.512
75682W        W43900   0.444  37.412  11.665
75683W        W43901   6.730  28.584  14.726
75684W        W43902   2.653  32.539   3.721
75685W        W43903  19.436   5.289   1.909
75686W        W43904  27.849  39.370   3.258
75687W        W43905  35.278  11.229   1.218
75688W        W43906  32.609  44.351   0.271
75689W        W43907  24.129  32.186  11.395
75690W        W43908  38.387  30.848   1.879
75691W        W43909  37.764  25.296  10.571
75692W        W43910  39.200  22.565   1.962
75693W        W43911   2.462  22.097  11.712
75694W        W43912   8.362  41.594   3.265
75695W        W43913   5.415  37.467   2.393
75696W        W43914  27.456  20.400  13.567
75697W        W43915   6.293  31.702  13.578
75698W        W43916   8.627  44.355   5.128
75699W        W43917  17.152  25.902  12.543
75700W        W43918  30.415  13.154  10.707
75701W        W43919  29.879  10.837  12.638
75702W        W43920   0.672  26.724   0.601
75703W        W43921   4.429   9.400  13.924
75704W        W43922  14.351  11.066   4.554
75705W        W43923  21.707  16.079   1.760
75706W        W43924  32.017  16.677  13.073
75707W        W43925  27.999  32.761   4.805
75708W        W43926   9.887  29.189   1.269
75709W        W43927  25.657  37.080   3.711
75710W        W43928  42.468  28.085  12.612
75711W        W43929  19.938  24.970   2.404
75712W        W43930  22.134  30.961   2.014
75713W        W43931  25.617  21.452  14.053
75714W        W43932  12.278   0.230  13.973
75715W        W43933  13.519  40.513   3.826
75716W        W43934  33.954  31.383  13.555
75717W        W43935  23.594  42.542  10.454
75718W        W43936  37.476  22.357   1.086
75719W        W43937  43.411  19.061   0.819
75720W        W43938  42.513   1.961   0.734
75721W        W43939   8.030   0.759   1.155
75722W        W43940  17.106  10.791   4.885
75723W        W43941  22.758  36.135  10.727
75724W        W43942  21.190   5.256  12.400
75725W        W43943  14.289  16.627  12.569
75726W        W43944   4.191  32.355  14.095
75727W        W43945   9.684  18.724   4.611
75728W        W43946  28.163  17.542  14.444
75729W        W43947   4.384  44.644  10.291
75730W        W43948  27.028   7.849  11.142
75731W        W43949  18.249  17.432  12.986
75732W        W43950  11.862  32.028  14.373
75733W        W43951   9.689  27.679   3.305
75734W        W43952  32.132   7.667  12.462
75735W        W43953  40.953  43.460  14.689
75736W        W43954  20.940  31.820   9.690
75737W        W43955   1.482   9.685  11.168
75738W        W43956  31.131   7.259   1.834
75739W        W43957  43.722  25.076   2.525
75740W        W43958  14.383  24.941   2.312
75741W        W43959  11.322  10.689  11.159
75742W        W43960   0.504  19.371  13.422
75743W        W43961   2.912  43.421  13.286
75744W        W43962  11.588  32.415   2.795
75745W        W43963  42.931   6.633  14.219
75746W        W43964  30.338  38.016   0.881
75747W        W43965  41.087  12.080  13.446
75748W        W43966  25.559  14.559   0.786
75749W        W43967   3.302   0.294  13.108
75750W        W43968  44.463  30.160   2.465
75751W        W43969  33.881  21.270  12.040
75752W        W43970  37.081  33.899  13.389
75753W        W43971   1.095   8.019  10.647
75754W        W43972  11.000  29.448  11.138
75755W        W43973  38.938  34.557   2.700
75756W        W43974  34.800  40.904   1.356
75757W        W43975  39.956  30.864  14.479
75758W        W43976   8.961  31.012  12.652
75759W        W43977   8.407  43.373   2.163
75760W        W43978  26.811   9.072  11.146
75761W        W43979  14.468  40.623   3.594
75762W        W43980  21.427   9.936  12.426
75763W        W43981   3.834  44.861   0.293
75764W        W43982  26.238   0.283   2.191
75765W        W43983  33.449  33.044  14.510
75766W        W43984  42.830  25.799  14.929
75767W        W43985   7.333  35.494  13.424
75768W        W43986  28.388  44.479  11.422
75769W        W43987  35.664   1.044   1.360
75770W        W43988  37.829  14.778  13.138
75771W        W43989  36.793  42.680  13.014
75772W        W43990  11.214  12.646   2.996
75773W        W43991  24.077  11.296   9.643
75774W        W43992  36.983  41.927   1.901
75775W        W43993  26.098  39.133   3.038
75776W        W43994   0.399  32.852  14.161
75777W        W43995  10.169   7.933  14.582
75778W        W43996  34.865   7.673  14.287
75779W        W43997   6.028   6.849   1.079
75780W        W43998  30.547  25.112   0.793
75781W        W43999  18.975  44.541   1.857
75782W        W44000  12.994  10.150   5.047
75783W        W44001  40.961  15.659   0.222
75784W        W44002  11.191  40.884  13.091
75785W        W44003  32.955  43.363  12.621
75786W        W44004   6.100  30.352   4.434
75787W        W44005   4.120   3.299   2.723
75788W        W44006  26.887   8.222  13.086
75789W        W44007  36.001  28.644  10.530
75790W        W44008   2.846   5.363   2.246
75791W        W44009  25.717  19.200   4.877
75792W        W44010  32.985  26.468   2.388
75793W        W44011  43.679  30.144   4.513
75794W        W44012   0.757  20.170   0.087
75795W        W44013  25.729  29.994  14.780
75796W        W44014  10.827  13.940   2.963
75797W        W44015  11.179   8.573  12.513
75798W        W44016  27.610   4.082   4.454
75799W        W44017  20.572   0.792  14.551
75800W        W44018  10.296  33.961   2.247
75801W        W44019  12.751  11.752  13.810
75802W        W44020  30.442  27.750  10.714
75803W        W44021   7.717  42.753   0.770
75804W        W44022   5.212  18.001  10.722
75805W        W44023  33.910  21.193   0.266
75806W        W44024  17.704  15.327  13.534
75807W        W44025  19.998  13.616   1.392
75808W        W44026   3.243  13.234   0.340
75809W        W44027  43.313  14.297   3.518
75810W        W44028  20.653  34.450  13.466
75811W        W44029  24.046  31.497   1.368
75812W        W44030   4.620   9.265   4.182
75813W        W44031  25.639  31.983   2.306
75814W        W44032  36.479  17.374   0.263
75815W        W44033   3.035  36.669   0.635
75816W        W44034  34.666   2.411   0.984
75817W        W44035  31.393  44.519   2.274
75818W        W44036  27.158  32.936   0.624
75819W        W44037  38.239  41.016   3.635
75820W        W44038  12.121  23.689   3.186
75821W        W44039   8.354  31.531   1.269
75822W        W44040  33.570   5.009  13.507
75823W        W44041  23.524  39.936  10.902
75824W        W44042  31.431  15.811   3.715
75825W        W44043  39.267  32.031   4.404
75826W        W44044   4.509  23.245   0.740
75827W        W44045  41.386   3.971  13.027
75828W        W44046  19.356  28.070   2.798
75829W        W44047  13.176  40.852  12.448
75830W        W44048  39.408   6.143  12.020
75831W        W44049  32.477  27.194  11.089
75832W        W44050   4.891   7.253   4.078
75833W        W44051  25.260   1.395  14.075
75834W        W44052  34.769   9.654   0.278
75835W        W44053  25.897   2.263   1.821
75836W        W44054  37.356  31.228   3.137
75837W        W44055  43.247  44.975   0.990
75838W        W44056   6.810   5.469  10.715
75839W        W44057  24.680  12.681  12.992
75840W        W44058  32.835   6.597   0.881
75841W        W44059   8.872  24.154  14.532
75842W        W44060  35.517  35.839   1.664
75843W        W44061  27.376   7.585  14.017
75844W        W44062  19.358   6.888  12.074
75845W        W44063  20.730  35.404  13.893
75846W        W44064   5.020   5.270   3.338
75847W        W44065  34.213   5.156   2.304
75848W        W44066  20.386  18.156  12.562
75849W        W44067  10.712  22.717   2.904
75850W        W44068  36.005  15.559   1.714
75851W        W44069  22.558  29.356  10.717
75852W        W44070  43.327  25.650  14.787
75853W        W44071  36.871  35.739   2.704
75854W        W44072  24.594  10.102  14.203
75855W        W44073  18.800  14.337  11.163
75856W        W44074  20.818  37.086   3.151
75857W        W44075  33.627   2.256   4.957
75858W        W44076   5.960  39.548  12.153
75859W        W44077   5.646  21.660   1.096
75860W        W44078  23.821  35.774  14.791
75861W        W44079  36.521  25.104  10.862
75862W        W44080  13.093  29.549   3.203
75863W        W44081   1.918  43.345   5.128
75864W        W44082  40.392  15.610  11.463
75865W        W44083   3.755  23.219  13.751
75866W        W44084   4.713  26.062   2.814
75867W        W44085  30.426  20.042   4.233
75868W        W44086  27.869  25.739  13.171
75869W        W44087  38.177  16.775   1.268
75870W        W44088   4.006   6.392  11.562
75871W        W44089  24.426  25.537   4.492
75872W        W44090  10.375  22.055  14.506
75873W        W44091   0.509  35.043  13.787
75874W        W44092  33.410  12.232  11.655
75875W        W44093  36.054  23.302   2.213
75876W        W44094  37.920   0.423  11.226
75877W        W44095   8.193  41.880  12.523
75878W        W44096   5.396  35.020  13.129
75879W        W44097   7.380  32.075   1.299
75880W        W44098  24.863  42.327  13.435
75881W        W44099  32.069  13.689   3.994
75882W        W44100  31.502   5.425   1.934
75883W        W44101  11.927  39.587  11.170
75884W        W44102  20.994  44.483  14.340
75885W        W44103  12.528  20.887  12.057
75886W        W44104  33.550  13.816  14.288
75887W        W44105  18.064  43.407  10.876
75888W        W44106  19.802  11.372   3.775
75889W        W44107  13.513  13.666   1.694
75890W        W44108   2.022  38.766   4.336
75891W        W44109  20.102  32.077   4.195
75892W        W44110  16.670   5.138   0.750
75893W        W44111  34.347   5.235  11.896
75894W        W44112  20.527  38.565  12.568
75895W        W44113  44.386   6.310   3.584
75896W        W44114  22.122  18.358   0.418
75897W        W44115  12.288  10.599  11.268
75898W        W44116  15.642  19.018  14.049
75899W        W44117  20.803  25.917  13.019
75900W        W44118   0.145  28.185  12.348
75901W        W44119   1.754   2.084  14.330
75902W        W44120  43.574   1.573  11.649
75903W        W44121  21.704  12.211   4.976
75904W        W44122  42.335  24.443   0.530
75905W        W44123   0.213  39.822   4.088
75906W        W44124   3.495  26.983   0.451
75907W        W44125  25.930  33.198  11.559
75908W        W44126   8.186  43.066  10.937
75909W        W44127  25.488  21.164   2.845
75910W        W44128  25.631  22.260  13.804
75911W        W44129  40.084  18.177   3.321
75912W        W44130  39.926  40.273  12.343
75913W        W44131  15.818  44.293  11.846
75914W        W44132  27.885   9.619  13.997
75915W        W44133   6.438  29.131   0.895
75916W        W44134  22.657   5.244   2.915
75917W        W44135   2.206  25.591  12.090
75918W        W44136  10.703  12.599  12.683
75919W        W44137   8.520   7.634  11.445
75920W        W44138   4.982  10.281  12.573
75921W        W44139  38.948  37.104  13.940
75922W        W44140  28.158  11.313   0.007
75923W        W44141   6.356  39.320   0.018
75924W        W44142   4.361  22.367  14.249
75925W        W44143  20.812  11.236  13.655
75926W        W44144  17.296  14.550  13.465
75927W        W44145  36.421   4.450   1.727
75928W        W44146  34.146  23.496   2.377
75929W        W44147   0.884  34.036   3.298
75930W        W44148  14.665  10.746   4.307
75931W        W44149  43.573  33.846   3.696
75932W        W44150  32.563   9.938   0.960
75933W        W44151   3.384  18.308  14.413
75934W        W44152  34.514  43.029   2.693
75935W        W44153  43.998   1.179   0.815
75936W        W44154  11.805  11.673  10.417
75937W        W44155   3.379  22.056  10.248
75938W        W44156  25.416  40.104  14.820
75939W        W44157  27.161  21.218   1.787
75940W        W44158  40.442  29.247   0.442
75941W        W44159  43.103  33.441   1.745
75942W        W44160  36.612   6.805   1.359
75943W        W44161  27.170  39.013   0.475
75944W        W44162  35.101  33.448  13.590
75945W        W44163  17.234  37.914   4.354
75946W        W44164  10.397  25.571   4.634
75947W        W44165   7.361  37.608  13.422
75948W        W44166  41.388  16.669   1.439
75949W        W44167  29.571  26.845   2.209
75950W        W44168   1.964  14.769  10.406
75951W        W44169  22.806  14.760  11.056
75952W        W44170   8.875  29.893  14.891
75953W        W44171  40.531  43.996   3.814
75954W        W44172   5.315  33.153  12.937
75955W        W44173  36.135   4.642   2.538
75956W        W44174  15.672  20.188   4.544
75957W        W44175  29.775  34.819  13.976
75958W        W44176  29.959  16.150   3.252
75959W        W44177  40.109   6.010   3.635
75960W        W44178  40.817  31.182   4.243
75961W        W44179  37.983  30.225   3.548
75962W        W44180  25.464  35.674   1.283
75963W        W44181  10.130  38.807  10.525
75964W        W44182  35.479  41.941  12.065
75965W        W44183   8.473   8.388  14.721
75966W        W44184  19.575  15.283   3.241
75967W        W44185  34.332  26.124  11.127
75968W        W44186  21.511  36.493   0.123
75969W        W44187  10.432   0.329  11.573
75970W        W44188  17.537  29.547   0.347
75971W        W44189   8.862   0.392  13.964
75972W        W44190  23.410   8.377   1.408
75973W        W44191   7.970  15.726  14.386
75974W        W44192  44.207  34.754   3.089
75975W        W44193  38.036  40.987  11.871
75976W        W44194  26.509   2.726   0.857
75977W        W44195  28.580  13.920   5.486
75978W        W44196  15.498  31.434  14.444
75979W        W44197   9.193   9.469   0.736
75980W        W44198  39.300  43.796  12.125
75981W        W44199   3.492   8.406   1.794
75982W        W44200  23.645   9.481   0.473
75983W        W44201  20.341  27.144   0.024
75984W        W44202  23.806  11.429   3.285
75985W        W44203  29.943  25.940  12.985
75986W        W44204  24.862  44.806   3.683
75987W        W44205  10.247  22.121   1.502
75988W        W44206   4.080  18.489   3.157
75989W        W44207  15.768  25.162   0.521
75990W        W44208  13.277  15.896  12.554
75991W        W44209   0.741  40.999   1.340
75992W        W44210  44.093   9.195   0.512
75993W        W44211  11.849  27.457   0.491
75994W        W44212  22.067  28.470  13.920
75995W        W44213  17.678  41.442   2.061
75996W        W44214  28.659   4.219   4.611
75997W        W44215  17.594  40.251   0.495
75998W        W44216  32.384  14.157   0.985
75999W        W44217  28.536   7.620   4.635
76000W        W44218  33.297  17.581   5.195
76001W        W44219  11.583  24.671   2.238
76002W        W44220  41.391   4.000   2.277
76003W        W44221  29.697  28.209   3.429
76004W        W44222  41.063   7.938  10.770
76005W        W44223  13.629  37.868   1.902
76006W        W44224  30.142  35.595  13.544
76007W        W44225  13.820  44.358   1.934
76008W        W44226  17.076  40.236   0.427
76009W        W44227  25.579  40.974   4.681
76010W        W44228   8.718  23.635   3.298
76011W        W44229  11.424   6.751   4.533
76012W        W44230  18.992   2.347  11.985
76013W        W44231   4.987  16.774  14.882
76014W        W44232  28.693  13.154  14.841
76015W        W44233   4.318   8.234   0.245
76016W        W44234  16.254  33.001  11.890
76017W        W44235   0.210  16.811  14.861
76018W        W44236  23.554  14.781   3.741
76019W        W44237  26.236  40.970   3.436
76020W        W44238  31.575   5.199   2.403
76021W        W44239   3.661  20.756   3.997
76022W        W44240  36.606  21.030   4.071
76023W        W44241  40.443   6.157  12.479
76024W        W44242  31.465  17.102   1.986
76025W        W44243  11.622  40.116  13.151
76026W        W44244  10.598  28.065   0.976
76027W        W44245  36.262  35.514  13.403
76028W        W44246  33.328  30.184  13.922
76029W        W44247  35.651  28.962  12.448
76030W        W44248  16.130   3.422   0.762
76031W        W44249  30.749   6.382  11.123
76032W        W44250  42.351  31.915  11.611
76033W        W44251  16.360  16.871  11.089
76034W        W44252   9.332  41.507   3.451
76035W        W44253   5.162   0.923   3.898
76036W        W44254  35.939   4.304  12.131
76037W        W44255  10.030  25.484   0.844
76038W        W44256  43.761  25.468  14.268
76039W        W44257  36.528   6.659   2.422
76040W        W44258  21.662  24.984  14.447
76041W        W44259  39.580   3.420  12.050
76042W        W44260   6.243  32.664  11.385
76043W        W44261   8.774  36.515   4.068
76044W        W44262  14.297  24.105   1.796
76045W        W44263  23.089  38.556  11.587
76046W        W44264  27.624  35.889   0.036
76047W        W44265  10.282  21.740  12.606
76048W        W44266  32.473  20.433   1.827
76049W        W44267   7.654  30.848   0.579
76050W        W44268  40.036  40.799   3.825
76051W        W44269  24.473  41.341  12.626
76052W        W44270  40.460  18.083  14.107
76053W        W44271  15.139  16.988   3.533
76054W        W44272   0.860  32.769   2.657
76055W        W44273  18.081  40.919  11.978
76056W        W44274  19.201  17.553  12.185
76057W        W44275  40.806   2.405   0.793
76058W        W44276  21.880  35.712  12.967
76059W        W44277  42.274  34.976   1.826
76060W        W44278  31.382   1.980  13.235
76061W        W44279   5.414  23.195   3.321
76062W        W44280  37.916  44.421   1.725
76063W        W44281  12.929  11.342   0.502
76064W        W44282  32.638   9.410   2.423
76065W        W44283  29.890  27.378   2.897
76066W        W44284  28.838  19.476  10.716
76067W        W44285  37.286  37.940  13.629
76068W        W44286  17.163   7.674   2.125
76069W        W44287   9.912  15.949   2.789
76070W        W44288   0.661   6.473   4.212
76071W        W44289  18.531  15.567  11.442
76072W        W44290   9.888  18.282  10.776
76073W        W44291  22.700   2.949  14.676
76074W        W44292   3.378  22.805   0.161
76075W        W44293  40.922  30.030   3.895
76076W        W44294   4.241  42.376  12.098
76077W        W44295  21.690  41.978   1.367
76078W        W44296  24.041   4.943   2.331
76079W        W44297   5.228  42.771  14.360
76080W        W44298  11.459   9.257   1.346
76081W        W44299  36.575  38.376  10.718
76082W        W44300  43.730  31.025  13.843
76083W        W44301   8.883  30.432  13.790
76084W        W44302  18.807  14.670  10.746
76085W        W44303  30.901  21.146   1.489
76086W        W44304   2.995  27.702  11.365
76087W        W44305   9.667  39.462   1.363
76088W        W44306  44.352   0.551   0.243
76089W        W44307  16.595  36.400  12.095
76090W        W44308  33.623  25.227   4.106
76091W        W44309  22.245  43.199   4.646
76092W        W44310  33.909  11.041  11.708
76093W        W44311   0.820  23.514  14.878
76094W        W44312  38.569  35.384   1.371
76095W        W44313   7.085   4.323  14.210
76096W        W44314   3.209  17.038  11.886
76097W        W44315   1.772  18.169   3.579
76098W        W44316   7.852  12.868   2.773
76099W        W44317  26.985  39.744   0.811
76100W        W44318  35.960  24.453  14.926
76101W        W44319  40.924  44.467  14.253
76102W        W44320  13.225   4.142   3.816
76103W        W44321  26.013  33.719  11.577
76104W        W44322  22.654   8.288   4.229
76105W        W44323   0.102  31.498   3.236
76106W        W44324  21.485   7.489  12.706
76107W        W44325  37.283  14.046  12.071
76108W        W44326  28.663  38.883   1.479
76109W        W44327  14.181  11.093  11.597
76110W        W44328  23.175  21.262  14.337
76111W        W44329  30.885   2.949   9.726
76112W        W44330   5.324   5.285   3.783
76113W        W44331  33.191  18.635  11.770
76114W        W44332  35.471  27.834   3.402
76115W        W44333  16.422  41.538   2.881
76116W        W44334  13.160  23.240  13.639
76117W        W44335   1.956  15.641  11.476
76118W        W44336  28.161  11.334  12.610
76119W        W44337  23.063  14.887  14.190
76120W        W44338  11.195  10.856   2.356
76121W        W44339  19.784  30.080  10.944
76122W        W44340  17.106  12.576   4.022
76123W        W44341   7.118  40.022  14.551
76124W        W44342  42.565  38.966  11.933
76125W        W44343  14.600  15.335   3.678
76126W        W44344  42.303   2.426   0.735
76127W        W44345  26.087  16.498   4.796
76128W        W44346  41.562   7.198  14.881
76129W        W44347  11.111   0.776   1.937
76130W        W44348   1.264   0.999   3.765
76131W        W44349   5.399  40.856   2.241
76132W        W44350  42.542   0.148   1.918
76133W        W44351  34.420  26.175   0.433
76134W        W44352   6.939  37.662  12.137
76135W        W44353  25.107  29.698   3.236
76136W        W44354   3.259  19.337  13.039
76137W        W44355  42.911  23.255  12.484
76138W        W44356  34.103  28.684   3.268
76139W        W44357  38.809  41.968   3.245
76140W        W44358  19.600  10.145   2.631
76141W        W44359  14.842  17.152  14.008
76142W        W44360  27.017  30.802   3.134
76143W        W44361  13.439  22.413  10.301
76144W        W44362  29.910  16.632   2.290
76145W        W44363  40.428  16.078  11.252
76146W        W44364  41.019  29.526  12.288
76147W        W44365   2.379  35.285   4.891
76148W        W44366  11.653  26.556   0.323
76149W        W44367  23.863  12.148  11.808
76150W        W44368  14.610  13.037   1.857
76151W        W44369  14.659   4.966  11.699
76152W        W44370   9.423  32.393  11.525
76153W        W44371  42.864  35.353   4.200
76154W        W44372  28.859  17.924   0.466
76155W        W44373  12.832  44.285   2.309
76156W        W44374   4.409  12.660  11.714
76157W        W44375  14.793  11.581   1.746
76158W        W44376   8.331  17.359   4.898
76159W        W44377  43.918  25.225  13.833
76160W        W44378  39.015   4.737  11.033
76161W        W44379  18.301  10.162   2.672
76162W        W44380  43.814   1.431   4.782
76163W        W44381  23.690  18.430  10.690
76164W        W44382  34.110  15.473  13.476
76165W        W44383  19.680  30.363   1.698
76166W        W44384  34.691   3.366  12.017
76167W        W44385  23.238   7.277  12.963
76168W        W44386  21.974  29.601   1.791
76169W        W44387   0.006  33.053   3.402
76170W        W44388  30.448  14.974  12.979
76171W        W44389   1.939   0.446  12.305
76172W        W44390  41.487  35.509   0.899
76173W        W44391   9.239  11.308  14.093
76174W        W44392  22.543  22.755  14.932
76175W        W44393  42.482  16.325  10.806
76176W        W44394  15.098  37.241   5.018
76177W        W44395  24.623  14.014  12.495
76178W        W44396  17.538  33.116  10.039
76179W        W44397   7.721  40.938   3.727
76180W        W44398  44.882  14.037   0.756
76181W        W44399  31.627   2.432  13.346
76182W        W44400   5.002  21.517  10.581
76183W        W44401  11.860  28.528  14.233
76184W        W44402  13.764   8.406  12.504
76185W        W44403  10.297   0.245   2.214
76186W        W44404  31.589   1.672   5.240
76187W        W44405   5.962   4.367   4.648
76188W        W44406  38.918  10.159   4.527
76189W        W44407   3.030   0.829   0.832
76190W        W44408  28.694   3.736   0.507
76191W        W44409  30.058  42.563   2.370
76192W        W44410   7.122   8.255   1.340
76193W        W44411  16.082   4.447  12.953
76194W        W44412  17.748  32.668   3.736
76195W        W44413   2.517  15.183  12.951
76196W        W44414  37.516   4.944  14.601
76197W        W44415  23.669   4.873  10.950
76198W        W44416  13.906  25.100   2.386
76199W        W44417   3.894  11.667  11.784
76200W        W44418   5.238  10.560   2.836
76201W        W44419  12.229  40.724  13.559
76202W        W44420  22.196   3.806  14.014
76203W        W44421  42.550  15.756  12.392
76204W        W44422  23.989   8.663  11.663
76205W        W44423  39.862  27.524  14.401
76206W        W44424   7.125   1.154  12.340
76207W        W44425   9.089  40.903   4.144
76208W        W44426   3.869  40.377  11.933
76209W        W44427  10.100  25.703  12.814
76210W        W44428  38.936   7.352   4.075
76211W        W44429   3.725  27.717  10.739
76212W        W44430   1.283  37.025  10.602
76213W        W44431  12.465   8.413   1.879
76214W        W44432  28.659  41.370  13.439
76215W        W44433  36.492   1.855  11.455
76216W        W44434  19.316  16.677   3.215
76217W        W44435  22.174  12.914   4.820
76218W        W44436  36.234  31.669  13.821
76219W        W44437  37.303  39.524  11.200
76220W        W44438  17.732  29.468  14.836
76221W        W44439  22.666  44.756  12.668
76222W        W44440   9.097  37.885   3.284
76223W        W44441  22.186  20.345  11.406
76224W        W44442  44.414  42.956   3.365
76225W        W44443  10.502  41.848   3.572
76226W        W44444  27.372  21.954  13.998
76227W        W44445  19.696  38.597   1.298
76228W        W44446   1.037  34.433  14.430
76229W        W44447   5.017  41.741  14.103
76230W        W44448  22.118  30.189   2.630
76231W        W44449  33.608  43.269  13.107
76232W        W44450   1.558  31.373  13.040
76233W        W44451  40.279   1.009   4.974
76234W        W44452  44.437  22.299   0.391
76235W        W44453  23.088  17.984   1.064
76236W        W44454  25.701  22.614  13.392
76237W        W44455  15.253   7.062  13.909
76238W        W44456  32.420   7.266   2.159
76239W        W44457   9.298  43.806   1.089
76240W        W44458  43.762   6.411   4.266
76241W        W44459   7.491  21.857   0.517
76242W        W44460   7.462   7.171  10.511
76243W        W44461   8.072  20.296  12.972
76244W        W44462  32.159   2.442  13.359
76245W        W44463   3.873  31.317  12.427
76246W        W44464  41.933  27.364   3.687
76247W        W44465  38.564  13.601   2.679
76248W        W44466  28.576  23.750   1.385
76249W        W44467  13.635  42.763   2.740
76250W        W44468  41.837  33.071   3.741
76251W        W44469   6.098  39.342   1.712
76252W        W44470  24.192   2.671  11.622
76253W        W44471  14.299   0.784   2.281
76254W        W44472  10.865  41.028  13.856
76255W        W44473  21.956  33.459  14.607
76256W        W44474   7.149  44.177   0.849
76257W        W44475   2.665  23.154   1.313
76258W        W44476  14.490  39.852   2.924
76259W        W44477  13.648  29.932   1.462
76260W        W44478   9.914  10.231   2.087
76261W        W44479  31.480  38.762   4.386
76262W        W44480  23.054  38.132   2.818
76263W        W44481  41.419  30.226   0.417
76264W        W44482  35.145  24.271  14.485
76265W        W44483  17.540  43.817  10.688
76266W        W44484  39.806  18.253  11.712
76267W        W44485  18.665   0.139  14.064
76268W        W44486  27.091  13.623  12.948
76269W        W44487  42.373   0.232  12.491
76270W        W44488  37.445  11.158  10.204
76271W        W44489  16.680  22.211  11.877
76272W        W44490   5.689  23.921  11.468
76273W        W44491  10.130  10.849  14.375
76274W        W44492   0.010  40.088  12.885
76275W        W44493  13.222  42.452  12.872
76276W        W44494  16.663   6.437   2.146
76277W        W44495  13.657   5.772  12.056
76278W        W44496  16.995  12.605  13.548
76279W        W44497  18.637  10.091  12.210
76280W        W44498   3.378  33.155  11.479
76281W        W44499  34.041  28.074   0.398
76282W        W44500   7.086   8.745   4.421
76283W        W44501  27.405  12.195   2.432
76284W        W44502  31.909  10.606   0.403
76285W        W44503  30.594  36.864   1.314
76286W        W44504   0.810   4.307   3.829
76287W        W44505  40.008  37.891   4.299
76288W        W44506  42.041  44.152  11.185
76289W        W44507  32.403   4.812  13.545
76290W        W44508  26.796  28.966  12.512
76291W        W44509  22.374  29.460   4.993
76292W        W44510   0.497  26.160  14.390
76293W        W44511  22.768  21.174  11.547
76294W        W44512   0.303  35.945   2.375
76295W        W44513  13.684  41.953   4.184
76296W        W44514  44.681  31.266   3.086
76297W        W44515  37.286  16.735  11.491
76298W        W44516  13.160  34.265   4.103
76299W        W44517   5.294   2.334  11.688
76300W        W44518  25.586  15.240  11.462
76301W        W44519   3.277   5.093   2.375
76302W        W44520  39.703  10.759   4.202
76303W        W44521  33.014   1.386  14.408
76304W        W44522  14.779  24.668   1.383
76305W        W44523  43.418  38.579  12.205
76306W        W44524  38.823  13.701   2.253
76307W        W44525  43.887  42.900   5.182
76308W        W44526  10.020  13.849   1.720
76309W        W44527   1.131  17.885   1.012
76310W        W44528  28.596  30.772  12.124
76311W        W44529  11.226  14.766   0.197
76312W        W44530  15.742   8.081  12.081
76313W        W44531  29.683   2.469   3.784
76314W        W44532  22.224  35.445  13.277
76315W        W44533  18.136   6.245   1.824
76316W        W44534  29.708   1.743   3.443
76317W        W44535  25.250  31.831  11.593
76318W        W44536  31.574  29.683   1.369
76319W        W44537  32.579  32.358   2.414
76320W        W44538  30.671  16.704  13.402
76321W        W44539  13.535  34.842  14.972
76322W        W44540  32.227   0.190   2.656
76323W        W44541  19.081  22.998   3.697
76324W        W44542  21.261   9.426  12.417
76325W        W44543  30.251  36.905   3.622
76326W        W44544  43.358  16.865  14.774
76327W        W44545  40.122  33.727  11.464
76328W        W44546  31.777  29.005   0.456
76329W        W44547  15.210  14.697   3.715
76330W        W44548  33.320  36.940  10.703
76331W        W44549  39.503  17.931  12.066
76332W        W44550  38.831   9.283  13.081
76333W        W44551  33.928  25.019   5.367
76334W        W44552  24.120  34.437  13.373
76335W        W44553   2.163  43.478   0.473
76336W        W44554  36.121  41.063  12.148
76337W        W44555   1.005  44.956   4.052
76338W        W44556   0.724   5.276  11.433
76339W        W44557  43.394  42.074  10.979
76340W        W44558  44.485  42.395  14.198
76341W        W44559  34.904  44.775   3.386
76342W        W44560  23.099  33.085  10.315
76343W        W44561  16.854   3.779   1.061
76344W        W44562  11.097   1.901   2.129
76345W        W44563  20.102  39.553  13.715
76346W        W44564   5.486  34.703   0.909
76347W        W44565  21.190  19.577  13.927
76348W        W44566   2.260  16.244  14.749
76349W        W44567  44.779  17.141  11.982
76350W        W44568  32.190  40.496   4.041
76351W        W44569   8.823   7.690   3.108
76352W        W44570  20.498  24.943  11.193
76353W        W44571   1.859   9.364   1.768
76354W        W44572  30.038   4.192  13.091
76355W        W44573  44.303  17.657   3.775
76356W        W44574  17.812  42.501  13.505
76357W        W44575  37.704   0.021  12.475
76358W        W44576  44.364  26.473  11.842
76359W        W44577   4.403  14.621  13.718
76360W        W44578   9.760  15.843   3.691
76361W        W44579  37.476  35.319  13.963
76362W        W44580  40.292  10.296  14.256
76363W        W44581   0.434   9.795   2.264
76364W        W44582  19.960  34.021  12.015
76365W        W44583  13.583   1.831   3.804
76366W        W44584  11.283  16.239  12.416
76367W        W44585   6.181  33.172  11.610
76368W        W44586   6.518   9.507   2.675
76369W        W44587   2.899   0.361   3.724
76370W        W44588  26.916  18.286  13.429
76371W        W44589  38.606  19.915  13.536
76372W        W44590  17.823  41.852   4.173
76373W        W44591  44.002   1.860  13.573
76374W        W44592   9.643  33.576  14.801
76375W        W44593  23.877  11.152   3.719
76376W        W44594   5.533  39.531   2.430
76377W        W44595  11.274  23.869   1.348
76378W        W44596  18.504   0.920   2.374
76379W        W44597  36.640  26.992   4.882
76380W        W44598  41.833  31.424  10.734
76381W        W44599   8.813   7.918   2.633
76382W        W44600  13.177  10.773   2.686
76383W        W44601  10.175  12.938  13.960
76384W        W44602  20.471  31.428  11.996
76385W        W44603  36.006   9.432   2.258
76386W        W44604   5.590  43.027  10.657
76387W        W44605  35.462  16.314   1.806
76388W        W44606  14.997  12.327   4.437
76389W        W44607  14.645   8.821  14.701
76390W        W44608  42.419  26.591  12.932
76391W        W44609  10.735  33.343  12.905
76392W        W44610  14.227  30.175   2.229
76393W        W44611  10.863  30.034   0.230
76394W        W44612  10.906   7.022  12.152
76395W        W44613  17.996  23.904   4.614
76396W        W44614  31.637  34.328  14.805
76397W        W44615   2.236  37.837   3.081
76398W        W44616  35.785  25.468  11.882
76399W        W44617  42.503   6.884   4.763
76400W        W44618  20.491   4.260   3.732
76401W        W44619  14.690  20.648   1.676
76402W        W44620  15.155  37.011  11.547
76403W        W44621  23.602  41.564  10.651
76404W        W44622   5.137  29.592  11.063
76405W        W44623  38.504  38.537  14.501
76406W        W44624   7.666   9.590   3.271
76407W        W44625   0.380   1.423   1.728
76408W        W44626  40.554   1.971   4.707
76409W        W44627  32.967   3.679  12.598
76410W        W44628  14.919   4.176   0.332
76411W        W44629  18.031  39.429  13.206
76412W        W44630   3.238   5.257   1.896
76413W        W44631  28.712  18.354   1.289
76414W        W44632  19.710  29.603   1.250
76415W        W44633  29.801  14.733   0.927
76416W        W44634  33.245  26.404  12.966
76417W        W44635  38.929  35.537   0.769
76418W        W44636   1.875  28.183   4.665
76419W        W44637  31.309  31.913  12.432
76420W        W44638  19.088  35.549   4.172
76421W        W44639  35.852  32.329   2.311
76422W        W44640  20.065  31.192   0.927
76423W        W44641   9.858  21.757   1.286
76424W        W44642   9.057   2.994  12.133
76425W        W44643  17.235   4.334  10.742
76426W        W44644  29.464  24.232   2.675
76427W        W44645  17.299  33.001   3.806
76428W        W44646   1.031  21.584   3.614
76429W        W44647  33.381  20.180  11.484
76430W        W44648  33.142  40.280   2.945
76431W        W44649  35.429  28.630   3.667
76432W        W44650   0.750  44.812  12.348
76433W        W44651  42.469  23.099  11.635
76434W        W44652  41.035  17.474  12.987
76435W        W44653  35.065  22.028   4.046
76436W        W44654  24.184   6.925  11.054
76437W        W44655  10.875  24.976   2.834
76438W        W44656  29.379  22.285  13.970
76439W        W44657   9.382  19.683  13.037
76440W        W44658  11.237   9.509  14.649
76441W        W44659  21.585  26.672  12.157
76442W        W44660   9.684  15.682   0.114
76443W        W44661   9.843  39.509   4.133
76444W        W44662  38.528  39.026  12.442
76445W        W44663  43.010  36.686  10.809
76446W        W44664  33.253  31.680   2.754
76447W        W44665  27.407   2.320   4.623
76448W        W44666  23.049   0.739  14.839
76449W        W44667   0.265   7.952   1.905
76450W        W44668  37.384  31.320   2.586
76451W        W44669  28.860  12.081   0.838
76452W        W44670  24.126  36.114  14.548
76453W        W44671  44.391  16.098  11.568
76454W        W44672  15.531  16.493   2.710
76455W        W44673   2.217   2.472   1.954
76456W        W44674  15.677   2.448   2.771
76457W        W44675  20.001  38.897  10.269
76458W        W44676   1.462   7.597  12.819
76459W        W44677  44.323  33.560  10.684
76460W        W44678  14.626   4.737  10.763
76461W        W44679   6.751   8.947   0.982
76462W        W44680   5.550  29.226  11.966
76463W        W44681  16.165  21.288   2.706
76464W        W44682  40.916  19.547   3.703
76465W        W44683  38.270  18.075  10.721
76466W        W44684  15.300  39.951  11.819
76467W        W44685   7.101  18.516   1.403
76468W        W44686  12.305  12.002   0.419
76469W        W44687  31.153  32.018  11.463
76470W        W44688  19.079   7.149  13.294
76471W        W44689  29.494  41.236   4.085
76472W        W44690  20.097  12.935   5.263
76473W        W44691  38.622   1.233   0.433
76474W        W44692   1.294   9.406   2.222
76475W        W44693  28.672  18.564   0.052
76476W        W44694  28.826  27.787  11.327
76477W        W44695   6.400  24.081   3.559
76478W        W44696  39.346  14.578   2.207
76479W        W44697  24.482  22.437  12.022
76480W        W44698   7.883   0.751  12.988
76481W        W44699  17.243  41.930  11.535
76482W        W44700  32.898  31.031   0.299
76483W        W44701  38.273  20.477  10.447
76484W        W44702  37.570  32.942   3.370
76485W        W44703   7.235   3.063  12.962
76486W        W44704  10.802   6.927  10.737
76487W        W44705  23.589  38.551  11.701
76488W        W44706  22.715  19.242  13.819
76489W        W44707  43.834  20.768   3.621
76490W        W44708  24.135   8.695  13.460
76491W        W44709  13.157   0.083  11.597
76492W        W44710  15.686  38.237  13.970
76493W        W44711  19.324  19.339  12.189
76494W        W44712   4.414  41.390   2.689
76495W        W44713  28.000   4.199   2.856
76496W        W44714   8.723  39.552  14.444
76497W        W44715   2.216  24.138  11.669
76498W        W44716  13.356  11.166  11.571
76499W        W44717  14.693   1.057  10.387
76500W        W44718   1.575   7.261   0.426
76501W        W44719   5.438  23.708  10.968
76502W        W44720  12.913  23.068   0.362
76503W        W44721  15.641   3.437  11.191
76504W        W44722   5.476  32.120   1.659
76505W        W44723  17.869   2.033   0.942
76506W        W44724  22.050  20.529   4.606
76507W        W44725  13.285   1.389  11.891
76508W        W44726  43.789   4.606  13.074
76509W        W44727  16.180  16.496   1.252
76510W        W44728  16.174   1.129   2.696
76511W        W44729  36.947  23.067   1.653
76512W        W44730   6.902  22.270  14.077
76513W        W44731  43.450  22.177  12.018
76514W        W44732  10.259  10.264   1.638
76515W        W44733  34.286  40.172   2.242
76516W        W44734   3.420  20.765   1.046
76517W        W44735   7.791   8.273   0.467
76518W        W44736  17.288  25.672  10.234
76519W        W44737  29.451  44.880  11.163
76520W        W44738  36.459  44.675   0.440
76521W        W44739  29.901  33.147   0.906
76522W        W44740   4.879   4.375   1.009
76523W        W44741   3.234  12.139  13.029
76524W        W44742  31.102  41.073  14.883
76525W        W44743  19.290   2.917  13.967
76526W        W44744  42.031   7.819   4.707
76527W        W44745  30.691  14.124   0.190
76528W        W44746  35.347  12.502   3.692
76529W        W44747   9.071  36.524  12.825
76530W        W44748  30.692  29.535   1.793
76531W        W44749  22.454   2.019  14.049
76532W        W44750  18.276  43.735  14.466
76533W        W44751  14.698  14.574   0.379
76534W        W44752  36.504  42.980   3.744
76535W        W44753  38.571  37.891  11.067
76536W        W44754  24.088  38.911   4.583
76537W        W44755   6.716  30.380  13.461
76538W        W44756  35.687  29.054   2.749
76539W        W44757  13.323  16.000   2.915
76540W        W44758   8.715  38.884  13.519
76541W        W44759  32.398  44.010  14.398
76542W        W44760  24.626  26.631  12.905
76543W        W44761   8.313  32.606  13.546
76544W        W44762  20.114   3.255  12.876
76545W        W44763  41.250  26.194  12.755
76546W        W44764   6.257  39.206  11.883
76547W        W44765  23.972  29.870   5.097
76548W        W44766  14.122  43.821  11.444
76549W        W44767  26.582  14.744  11.107
76550W        W44768   3.786  28.354  12.949
76551W        W44769  13.074  42.297  10.719
76552W        W44770   8.615  24.096  12.648
76553W        W44771  30.371  36.666  14.061
76554W        W44772   7.296  33.591  12.025
76555W        W44773  37.343  19.836   3.679
76556W        W44774  44.743  16.049  10.276
76557W        W44775  31.442  34.941   1.742
76558W        W44776  35.625  30.920  12.105
76559W        W44777   7.227  24.177  14.855
76560W        W44778  28.558  40.988   4.103
76561W        W44779  36.059  27.914   0.459
76562W        W44780   2.836  20.477  11.863
76563W        W44781   9.341  22.583   3.745
76564W        W44782   5.439  23.461  11.434
76565W        W44783   0.369   4.662  11.631
76566W        W44784   7.254   9.939   0.316
76567W        W44785  15.754  15.590  12.415
76568W        W44786  17.680  31.816  13.358
76569W        W44787   9.561  11.417   1.886
76570W        W44788  25.033  12.394   2.951
76571W        W44789   7.282  39.859  11.290
76572W        W44790  20.536   2.761   2.719
76573W        W44791  20.816  31.622   0.576
76574W        W44792  32.432  17.028  12.801
76575W        W44793  28.552  14.980  13.675
76576W        W44794  17.258  38.492  12.577
76577W        W44795  22.247  41.042  11.576
76578W        W44796  17.549  24.691  13.940
76579W        W44797  29.997  12.903   0.207
76580W        W44798   3.380  41.449  12.313
76581W        W44799  27.692  38.530   3.858
76582W        W44800  21.729  35.383  13.446
76583W        W44801  21.037  28.733  13.001
76584W        W44802  14.239   4.707   3.704
76585W        W44803  25.292  15.284   2.678
76586W        W44804  10.760   6.169  13.066
76587W        W44805  27.703  42.353  12.405
76588W        W44806   9.353  12.055  14.522
76589W        W44807  44.539   3.665  11.016
76590W        W44808  37.873   1.085   4.996
76591W        W44809  41.418  42.636   0.215
76592W        W44810  19.021  24.577  13.942
76593W        W44811  44.949  39.380   2.853
76594W        W44812  26.221  29.926   2.490
76595W        W44813  16.294  16.342  12.716
76596W        W44814  36.563  34.271  10.260
76597W        W44815  35.265  40.278   1.468
76598W        W44816  14.272  33.186  13.540
76599W        W44817  23.070  36.286   1.436
76600W        W44818  36.327  39.737   4.514
76601W        W44819   6.081   5.924   0.277
76602W        W44820  21.612  42.469   3.850
76603W        W44821  44.282   8.974  10.159
76604W        W44822  44.432  39.544  10.981
76605W        W44823  17.700   8.021  12.458
76606W        W44824  33.879  18.791   1.207
76607W        W44825  27.955  30.671   4.113
76608W        W44826   6.356  28.685   1.487
76609W        W44827   7.828  30.457   0.887
76610W        W44828   8.685  40.253   4.361
76611W        W44829   8.173  29.983  13.756
76612W        W44830  35.956  43.132  14.221
76613W        W44831  18.342  18.778  12.730
76614W        W44832  31.064  44.988   2.188
76615W        W44833   1.140   3.715  12.087
76616W        W44834   8.195  32.592   3.798
76617W        W44835   9.552  44.444  12.040
76618W        W44836  16.403  36.898  12.119
76619W        W44837  15.313  25.276  12.034
76620W        W44838  43.791  17.744   0.782
76621W        W44839  41.829  37.031  11.182
76622W        W44840  43.854  27.025  14.399
76623W        W44841  39.529  16.747   0.766
76624W        W44842  11.778  23.250   1.719
76625W        W44843  14.270  18.292  12.121
76626W        W44844  12.563  22.490  12.355
76627W        W44845   4.195   6.375  10.538
76628W        W44846  19.374  33.428   3.198
76629W        W44847  26.038  14.284   0.247
76630W        W44848  31.607  15.461   0.790
76631W        W44849  22.155  32.821   1.296
76632W        W44850  10.084   8.419  13.884
76633W        W44851  11.827  39.983   1.289
76634W        W44852  41.989  16.431   1.773
76635W        W44853  14.816  42.246   3.402
76636W        W44854  31.103  44.037  14.890
76637W        W44855  30.990  42.569  11.959
76638W        W44856   1.368  34.579   4.354
76639W        W44857  37.157  39.785   1.685
76640W        W44858   3.271  42.610   1.817
76641W        W44859  17.641   8.469  13.981
76642W        W44860   9.690  31.831   3.273
76643W        W44861  16.756   7.751  14.306
76644W        W44862   9.964   4.519   3.723
76645W        W44863  20.146  11.751   2.738
76646W        W44864  25.630  10.307   1.402
76647W        W44865  44.757  27.645   3.401
76648W        W44866  17.898  21.136   4.196
76649W        W44867   0.883  11.706   3.858
76650W        W44868  14.828  28.734  13.360
76651W        W44869  18.785  39.927   0.765
76652W        W44870  42.827  39.955  10.627
76653W        W44871  33.183  35.961   2.227
76654W        W44872  38.066  35.451  14.365
76655W        W44873  41.226  38.473   4.348
76656W        W44874  18.146  39.960   3.680
76657W        W44875  44.978  16.295  12.971
76658W        W44876  41.481   4.943  14.845
76659W        W44877   8.594  23.154   1.290
76660W        W44878  42.915  25.023   4.163
76661W        W44879  32.640  34.626   2.820
76662W        W44880  43.027  27.935   3.319
76663W        W44881  32.542  36.474   4.209
76664W        W44882  19.283  21.808   3.193
76665W        W44883  15.741  34.790   2.375
76666W        W44884   6.951  24.630  14.923
76667W        W44885  22.274  13.263   4.457
76668W        W44886  38.521  20.765   1.220
76669W        W44887   2.125  32.406   1.500
76670W        W44888  30.875   2.562   0.452
76671W        W44889  11.662  10.858   0.723
76672W        W44890   5.504   3.212  12.127
76673W        W44891  12.768  29.488  13.372
76674W        W44892  16.611  33.567  13.633
76675W        W44893  13.350   5.539  10.763
76676W        W44894  19.866   7.133  13.758
76677W        W44895  13.388   3.392   0.187
76678W        W44896  35.095  10.872   3.230
76679W        W44897   5.318  10.793   0.257
76680W        W44898  43.457   7.669  10.976
76681W        W44899  20.656  34.796   0.529
76682W        W44900   2.708  26.237   3.238
76683W        W44901  42.848  33.533  12.036
76684W        W44902  25.129   4.127  11.395
76685W        W44903  31.665  36.689   0.908
76686W        W44904   0.756  21.647  13.428
76687W        W44905  22.502   3.138   2.467
76688W        W44906  29.535  21.486   1.140
76689W        W44907   6.896  13.391  14.775
76690W        W44908  38.127  11.358   2.647
76691W        W44909   1.363  32.283   3.272
76692W        W44910  31.866  15.836  12.803
76693W        W44911   3.886  19.660  13.658
76694W        W44912  42.108  34.487   3.249
76695W        W44913  14.633  21.971   4.866
76696W        W44914  29.438  22.287   0.379
76697W        W44915  23.687  21.627   0.974
76698W        W44916  35.866  39.621  11.945
76699W        W44917   3.794   7.414  14.201
76700W        W44918  42.916  33.130   1.275
76701W        W44919  22.396  18.029   1.865
76702W        W44920  25.597  33.445   1.672
76703W        W44921  18.586  28.448  13.849
76704W        W44922   9.170  25.940   0.359
76705W        W44923  35.081  27.051  12.001
76706W        W44924  15.344  17.623   1.762
76707W        W44925   0.213  14.820  11.102
76708W        W44926  36.366  16.736  14.949
76709W        W44927   6.262  37.039   4.346
76710W        W44928  39.973  10.654  10.706
76711W        W44929   9.389  36.631   2.778
76712W        W44930  14.565   3.795   4.233
76713W        W44931  10.598  32.467  11.193
76714W        W44932  44.090  30.419   2.190
76715W        W44933   1.345  11.915  13.425
76716W        W44934  26.086  18.668  10.817
76717W        W44935  10.191  36.861   4.749
76718W        W44936  33.196  29.401   2.810
76719W        W44937  38.167   4.123   4.074
76720W        W44938  11.217  12.871  10.635
76721W        W44939  19.479  35.839   4.560
76722W        W44940  20.860  18.547   2.398
76723W        W44941  43.672   3.801  12.452
76724W        W44942  38.451  20.297   2.944
76725W        W44943  27.297   5.867  14.103
76726W        W44944  18.854  41.924   4.118
76727W        W44945  31.961  22.257   2.771
76728W        W44946   8.937  28.933   0.988
76729W        W44947  31.899  25.500   5.032
76730W        W44948  29.534  10.896  13.986
76731W        W44949  12.538   4.397  14.745
76732W        W44950  15.032  12.339   0.757
76733W        W44951  36.464  17.373   4.277
76734W        W44952  11.757   0.373  12.086
76735W        W44953  22.811  15.733   3.643
76736W        W44954  40.871  31.918   2.662
76737W        W44955  35.715  34.430   2.492
76738W        W44956  37.499   8.758  10.668
76739W        W44957  43.927   8.658  11.084
76740W        W44958   2.895  30.696  12.101
76741W        W44959  40.212   3.278   0.876
76742W        W44960  10.836  27.494  13.895
76743W        W44961  15.499  14.876   5.005
76744W        W44962   9.777  14.337   2.170
76745W        W44963   1.532  25.061  11.181
76746W        W44964  20.474   3.917  12.369
76747W        W44965   0.434  21.227  12.825
76748W        W44966  23.266  39.922  13.507
76749W        W44967  41.077  36.406   1.291
76750W        W44968  41.412  24.322   3.352
76751W        W44969  33.987  44.996  14.332
76752W        W44970  22.054   6.142  14.854
76753W        W44971  41.320  30.894   4.091
76754W        W44972  14.264  14.658  13.573
76755W        W44973  31.858  15.517   2.861
76756W        W44974  34.831  43.314   0.396
76757W        W44975  21.347  26.310   5.032
76758W        W44976   3.706  27.385   1.856
76759W        W44977  32.910  10.716  13.060
76760W        W44978  42.345  20.633  10.653
76761W        W44979  32.811   6.451   0.394
76762W        W44980  31.187  26.690  13.011
76763W        W44981  28.674  39.339   4.476
76764W        W44982  28.030   1.462   1.913
76765W        W44983  36.024  26.508   4.296
76766W        W44984   0.021  12.350   4.537
76767W        W44985  30.208  27.947  12.530
76768W        W44986  15.422   2.857  10.297
76769W        W44987   8.975  42.483   4.665
76770W        W44988  21.937   3.821  11.063
76771W        W44989  11.293  44.536  10.068
76772W        W44990  30.716  44.403   0.357
76773W        W44991  13.032   1.917  14.418
76774W        W44992  17.947  29.263   4.167
76775W        W44993  25.573   5.629  13.885
76776W        W44994  39.009  14.317   4.350
76777W        W44995  44.820  23.134  13.877
76778W        W44996  10.662  30.401  14.940
76779W        W44997  33.178   7.297  13.506
76780W        W44998   8.181  26.713  14.982
76781W        W44999  29.667  28.695   2.846
76782W        W45000  30.563  38.038  13.938
76783W        W45001  30.641  33.324   2.560
76784W        W45002  29.283  33.556  10.266
76785W        W45003  23.732  16.350  14.896
76786W        W45004  17.352  31.443   2.788
76787W        W45005   3.962  30.619  11.575
76788W        W45006  43.443  29.207   2.197
76789W        W45007  39.138   6.450   1.149
76790W        W45008   6.885  35.758  13.422
76791W        W45009   4.685  16.754   4.161
76792W        W45010  40.517  30.203   0.203
76793W        W45011  18.608  29.576  10.897
76794W        W45012   5.774   5.895   2.337
76795W        W45013  31.462  14.340  13.897
76796W        W45014  33.881   2.246   4.162
76797W        W45015  31.534  31.086   3.866
76798W        W45016   0.950  30.942   2.256
76799W        W45017  21.346  29.453   0.266
76800W        W45018  32.982  40.996   4.031
76801W        W45019  42.936  10.662   2.191
76802W        W45020  19.607   2.758   3.654
76803W        W45021   5.352  20.746  12.941
76804W        W45022  34.705   8.268   4.366
76805W        W45023  24.579  38.909   1.810
76806W        W45024  14.332  12.591   2.415
76807W        W45025  33.584  41.684   4.866
76808W        W45026  27.120  14.571   0.885
76809W        W45027  11.926  20.594  10.859
76810W        W45028   0.086   1.471   2.886
76811W        W45029  36.513   1.938   5.084
76812W        W45030  40.943  20.047  12.032
76813W        W45031  44.872   4.305   1.231
76814W        W45032  20.683   7.799   2.779
76815W        W45033  16.584  18.164   4.540
76816W        W45034   5.647   5.813  11.638
76817W        W45035  14.494  16.820  10.525
76818W        W45036   1.876  39.157   4.679
76819W        W45037  20.264  22.476  11.528
76820W        W45038   9.400  21.525   1.712
76821W        W45039   0.479  30.989   2.490
76822W        W45040  27.051   2.550   2.738
76823W        W45041  12.617  32.623  11.595
76824W        W45042  21.317  38.105   1.827
76825W        W45043   9.931   6.644   0.860
76826W        W45044  25.871  35.591  12.446
76827W        W45045   4.129  13.725  13.402
76828W        W45046  38.762   6.266  10.451
76829W        W45047   4.929   4.443   2.830
76830W        W45048   5.940  43.850  14.934
76831W        W45049  16.199  16.609   2.355
76832W        W45050  10.173  18.562   3.531
76833W        W45051  26.939  40.087  10.774
76834W        W45052   2.179  41.854  11.568
76835W        W45053  44.469   5.758  13.945
76836W        W45054   6.713  16.798   1.842
76837W        W45055  12.699   2.747   2.387
76838W        W45056  23.495  21.034  13.897
76839W        W45057  12.546   8.066  10.861
76840W        W45058  17.200  25.430  14.912
76841W        W45059   4.019  26.863   0.347
76842W        W45060   4.974  25.172  12.532
76843W        W45061  19.232  13.400  14.963
76844W        W45062  38.410  25.140  12.588
76845W        W45063  38.014  13.894  14.920
76846W        W45064  19.498   3.190  10.397
76847W        W45065   5.909  39.583  11.103
76848W        W45066  31.241   6.971   0.618
76849W        W45067   6.875  23.175  12.601
76850W        W45068  20.671   5.162  12.498
76851W        W45069  44.769  19.682  11.592
76852W        W45070  31.806  40.414  13.111
76853W        W45071  24.655   7.413  14.245
76854W        W45072  22.590  22.802  13.891
76855W        W45073  20.616  25.587  12.084
76856W        W45074  27.452  44.835  12.035
76857W        W45075  19.605   4.428   5.021
76858W        W45076   2.293  30.261  11.142
76859W        W45077   1.872   9.767   0.397
76860W        W45078   8.307   2.817   1.948
76861W        W45079   8.888  13.126   1.447
76862W        W45080   5.692  29.546  13.912
76863W        W45081  29.901  23.083  13.862
76864W        W45082  18.178  36.682   2.231
76865W        W45083  15.600   6.223  13.972
76866W        W45084  19.823  14.092   2.610
76867W        W45085  36.294   4.435  11.776
76868W        W45086  18.662  23.814  12.383
76869W        W45087  17.605   6.471  12.509
76870W        W45088   0.163   4.778  13.221
76871W        W45089   6.849  25.538   2.475
76872W        W45090  29.699   4.906  10.652
76873W        W45091  31.359  23.242   2.598
76874W        W45092  25.964   7.138   0.859
76875W        W45093   3.270   6.982  12.391
76876W        W45094   5.947  35.011   4.632
76877W        W45095  20.103   7.534   4.498
76878W        W45096  24.437   9.124   0.984
76879W        W45097   9.374  40.295   4.969
76880W        W45098  14.708  38.771  14.083
76881W        W45099   5.665  31.923   2.329
76882W        W45100  12.707  25.116  12.189
76883W        W45101  14.602   1.217   2.265
76884W        W45102  22.927  17.749   4.063
76885W        W45103  27.122  21.068   3.355
76886W        W45104  32.440   6.753   5.124
76887W        W45105  41.662  42.782   4.571
76888W        W45106   5.960  19.473  11.218
76889W        W45107  12.154  15.798  10.718
76890W        W45108  37.451  42.791  10.726
76891W        W45109   3.716   7.729  11.910
76892W        W45110  44.541  42.337  14.699
76893W        W45111   0.754  28.989  10.729
76894W        W45112  31.616   6.871  11.060
76895W        W45113  35.611  11.832   0.765
76896W        W45114  21.213  26.717   3.682
76897W        W45115  36.436  39.962  13.415
76898W        W45116  32.247  31.349  12.401
76899W        W45117  11.316  13.035  12.451
76900W        W45118  30.223  15.674  11.635
76901W        W45119  14.207  39.369   0.248
76902W        W45120  24.483  30.007   4.336
76903W        W45121  33.368  43.512  12.360
76904W        W45122  10.129   5.208   2.646
76905W        W45123  44.938  25.444  12.789
76906W        W45124  39.562  11.826  13.017
76907W        W45125  28.725  13.862  11.685
76908W        W45126  28.066  24.761   3.250
76909W        W45127  30.865   6.238   1.336
76910W        W45128  41.273   0.753  12.034
76911W        W45129  23.058  21.550  10.551
76912W        W45130  28.994  16.555   4.606
76913W        W45131  42.840   2.395  13.680
76914W        W45132  27.863  13.217   3.320
76915W        W45133  21.652   8.393   4.700
76916W        W45134   6.848  25.588   0.382
76917W        W45135   5.850  21.474   4.527
76918W        W45136  14.227   3.512  14.400
76919W        W45137  41.924  42.496  14.774
76920W        W45138   2.139   6.244  13.524
76921W        W45139  29.412   9.722  11.192
76922W        W45140  19.502  17.571  11.253
76923W        W45141   2.945  19.572   1.312
76924W        W45142  39.645  12.934   3.229
76925W        W45143   9.195  16.303   1.342
76926W        W45144   7.442  15.653   1.704
76927W        W45145  44.770  29.535   4.070
76928W        W45146  17.244   0.953   3.574
76929W        W45147  29.011  41.755   0.807
76930W        W45148  44.986   7.687   2.324
76931W        W45149  31.288  27.905   5.160
76932W        W45150  36.780   4.725   0.404
76933W        W45151  32.234  10.746  13.905
76934W        W45152  15.188  19.829   1.854
76935W        W45153  36.129  28.585   3.177
76936W        W45154   7.987  24.629  13.579
76937W        W45155  28.207  21.222  11.515
76938W        W45156  13.399  24.156  11.320
76939W        W45157  18.677  41.852  14.050
76940W        W45158  33.150  36.850   0.839
76941W        W45159  13.150  43.993  12.557
76942W        W45160   3.696  35.505   3.030
76943W        W45161  25.515  28.125   4.663
76944W        W45162  37.448  31.501  12.443
76945W        W45163   9.928  21.007  13.948
76946W        W45164  37.531  11.946   2.398
76947W        W45165  19.383   1.743  12.491
76948W        W45166  28.904  23.045   1.871
76949W        W45167  16.346  31.650  11.000
76950W        W45168  33.505  35.894  14.357
76951W        W45169  18.979  43.826  12.860
76952W        W45170  14.602  39.795   1.389
76953W        W45171  34.178  33.609   4.197
76954W        W45172  20.741  18.347   4.147
76955W        W45173  38.129  39.351  12.386
76956W        W45174  10.289  38.565  13.255
76957W        W45175  29.014   5.630  12.334
76958W        W45176   2.882   7.513   4.646
76959W        W45177  27.120  25.846   3.193
76960W        W45178  28.502  31.382  10.691
76961W        W45179  41.985  20.400   2.523
76962W        W45180  41.557  13.348   4.677
76963W        W45181  35.331  34.660  11.437
76964W        W45182   0.181  28.209   3.763
76965W        W45183  13.358  38.574   2.652
76966W        W45184  44.877  35.939   4.832
76967W        W45185  35.922  28.626  11.646
76968W        W45186  38.775  15.545   1.791
76969W        W45187  33.443  39.925   0.855
76970W        W45188  26.104  40.562  14.270
76971W        W45189  37.401  30.176  13.013
76972W        W45190  16.605  37.130  13.389
76973W        W45191   0.007  42.789   4.985
76974W        W45192  39.795  37.471   4.027
76975W        W45193  23.570  14.658   4.633
76976W        W45194  23.936  22.116  13.528
76977W        W45195   9.795   5.955   4.317
76978W        W45196  28.227  17.323   0.440
76979W        W45197  11.476   4.885   2.636
76980W        W45198  42.283  43.967  13.295
76981W        W45199  39.237  35.436  13.367
76982W        W45200  44.086  43.921  13.941
76983W        W45201   0.718  30.129  14.435
76984W        W45202  39.591   7.219   3.682
76985W        W45203   4.232   4.329   4.126
76986W        W45204   7.138  25.646   0.887
76987W        W45205  25.994  21.548  14.829
76988W        W45206  11.210  37.899   0.413
76989W        W45207  35.027  13.242  13.041
76990W        W45208  28.277  27.106   3.523
76991W        W45209  18.637  15.301   3.811
76992W        W45210  27.247  43.369  13.559
76993W        W45211  30.025  41.774  11.519
76994W        W45212  40.502   6.578   4.068
76995W        W45213  19.239   9.641   3.713
76996W        W45214  40.550  36.049  10.745
76997W        W45215   1.892  16.265   0.860
76998W        W45216  22.741  25.467  13.415
76999W        W45217  27.121  43.935  11.604
77000W        W45218   6.143  20.643  13.488
77001W        W45219  42.792  25.709  11.968
77002W        W45220  37.002  11.886   1.020
77003W        W45221  39.636  34.928   0.071
77004W        W45222  11.366  21.923  13.286
77005W        W45223   4.325  10.678   2.890
77006W        W45224  40.237  38.931  14.296
77007W        W45225  39.309  34.896  14.632
77008W        W45226  31.171   2.891   4.122
77009W        W45227  38.618  34.510  12.115
77010W        W45228  29.180  13.716   3.030
77011W        W45229  30.663  33.639   3.006
77012W        W45230  25.400  36.026  13.245
77013W        W45231  22.601  36.858   2.809
77014W        W45232  27.971  13.624  11.417
77015W        W45233  27.905   5.370  14.568
77016W        W45234   7.454   3.470   3.338
77017W        W45235   3.166   3.306  14.921
77018W        W45236  25.749  44.209   0.389
77019W        W45237  41.089   0.581  11.460
77020W        W45238   2.814  34.148  13.391
77021W        W45239   0.925  38.894  14.465
77022W        W45240  33.465  31.304  13.427
77023W        W45241  35.413  16.921  10.826
77024W        W45242  36.523  30.646   4.598
77025W        W45243  23.377  10.780   1.674
77026W        W45244  33.664  27.926   0.042
77027W        W45245  25.741  36.457  12.126
77028W        W45246  31.083   1.983   1.933
77029W        W45247  41.834  10.367  12.505
77030W        W45248  17.002   5.914   2.790
77031W        W45249  29.412   3.229  11.563
77032W        W45250  26.427  21.507   3.199
77033W        W45251  19.284  20.939   2.769
77034W        W45252  14.113  13.885   3.211
77035W        W45253  39.141  33.134  12.335
77036W        W45254  26.413  24.383  10.364
77037W        W45255  28.490   1.570  12.966
77038W        W45256  27.949   5.164  10.345
77039W        W45257  12.623  11.189   3.660
77040W        W45258  38.322  23.045   0.308
77041W        W45259  29.004  36.362  11.535
77042W        W45260  13.351  11.822   4.343
77043W        W45261  29.917  11.644  10.502
77044W        W45262  28.976  43.811   0.716
77045W        W45263   8.296  15.230  13.841
77046W        W45264  13.564  35.086  11.953
77047W        W45265  43.793   8.464  11.863
77048W        W45266  41.489  29.445  14.907
77049W        W45267  40.415  20.989  12.524
77050W        W45268  29.531   3.702   0.816
77051W        W45269  34.516  11.812  11.490
77052W        W45270  40.440  32.147  11.408
77053W        W45271  20.791  44.038   2.427
77054W        W45272  27.341  36.585   4.525
77055W        W45273  27.969  43.163  14.268
77056W        W45274  21.200  32.041   0.472
77057W        W45275  25.093  43.229  11.975
77058W        W45276   7.721  33.370  11.119
77059W        W45277  11.210  18.128  13.074
77060W        W45278   3.420  15.777   2.279
77061W        W45279  22.982  31.999   0.479
77062W        W45280  12.147   6.943   1.391
77063W        W45281  24.892  28.539   2.229
77064W        W45282   9.813  21.230   3.534
77065W        W45283   5.449  30.466  13.882
77066W        W45284  41.305  38.610   0.555
77067W        W45285   1.925   8.314   4.171
77068W        W45286  12.652  41.016  13.658
77069W        W45287  40.485  13.059  12.880
77070W        W45288   7.866  17.663  14.537
77071W        W45289  14.814  35.856   4.161
77072W        W45290  30.267  44.342   4.772
77073W        W45291  17.607  11.707   5.170
77074W        W45292  32.483   9.930  11.359
77075W        W45293  30.606   2.838   4.121
77076W        W45294  10.746  38.589   4.382
77077W        W45295  12.075   1.373  10.753
77078W        W45296   3.290  42.337  12.934
77079W        W45297  15.667   0.522   1.197
77080W        W45298  26.667  21.893   0.895
77081W        W45299  19.123  35.269   3.748
77082W        W45300  41.113   6.813   2.928
77083W        W45301   9.205  27.992   0.956
77084W        W45302  26.237  10.116   4.171
77085W        W45303  29.004   8.349  12.465
77086W        W45304  14.644   4.753   1.403
77087W        W45305   0.894  33.047  14.216
77088W        W45306  31.020  40.231  14.451
77089W        W45307  43.472  17.165   3.471
77090W        W45308   0.468  24.212  12.066
77091W        W45309  19.484   0.920  11.989
77092W        W45310   9.883  22.858   0.489
77093W        W45311   0.552  34.886   4.637
77094W        W45312  16.376  43.328   4.442
77095W        W45313  27.934  13.142  14.613
77096W        W45314   8.037  36.001   0.688
77097W        W45315  16.546  35.665  13.444
77098W        W45316   6.307  44.032   0.444
77099W        W45317  33.415  32.840  12.585
77100W        W45318  13.185  16.736  12.105
77101W        W45319  43.947  15.565   1.378
77102W        W45320  18.088  16.574  13.449
77103W        W45321   0.184   2.881  12.034
77104W        W45322  41.002   8.885   0.276
77105W        W45323  18.145  42.626   0.230
77106W        W45324   6.948  31.845  14.795
77107W        W45325   6.706  18.877   3.578
77108W        W45326  42.823   2.215   1.381
77109W        W45327  37.898   5.830  10.183
77110W        W45328  36.369  13.717  11.228
77111W        W45329  25.458  20.641  13.052
77112W        W45330  34.917  10.344   3.183
77113W        W45331  42.854  21.763  14.637
77114W        W45332  23.976  31.673  11.424
77115W        W45333  23.824   6.136  14.193
77116W        W45334   3.486   7.138  13.395
77117W        W45335  14.679  30.924  11.190
77118W        W45336   3.274  30.982  11.168
77119W        W45337  14.993   4.032  10.464
77120W        W45338  39.899   2.053   3.792
77121W        W45339  35.345  39.381  13.932
77122W        W45340   8.340  10.286   2.384
77123W        W45341   1.814   6.220   1.873
77124W        W45342  19.196  13.988   0.071
77125W        W45343  40.495  11.403   2.183
77126W        W45344  19.558  21.825   1.510
77127W        W45345   6.474  17.793  10.251
77128W        W45346  35.898  38.125   0.155
77129W        W45347  38.471  21.240   3.006
77130W        W45348  34.421  17.678  11.397
77131W        W45349  22.219   1.043   0.665
77132W        W45350  40.848   0.503  14.829
77133W        W45351  38.090  25.794   3.245
77134W        W45352  43.705  44.267   1.559
77135W        W45353  37.379   8.166   0.511
77136W        W45354  42.046  22.122  11.592
77137W        W45355  32.874  12.355   1.276
77138W        W45356  29.934  29.182   3.266
77139W        W45357  41.752   7.691  12.954
77140W        W45358  38.710   2.693   1.049
77141W        W45359  44.300  24.231  13.942
77142W        W45360  36.293  28.997  11.670
77143W        W45361   8.432  26.119   2.592
77144W        W45362   5.348  40.318  11.659
77145W        W45363  13.720  37.566   3.261
77146W        W45364  22.995   5.405  12.868
77147W        W45365  43.356   4.821  12.524
77148W        W45366  25.702  19.728  13.403
77149W        W45367  31.630  20.635   1.544
77150W        W45368  30.696   0.462   2.862
77151W        W45369  20.747  13.517  13.576
77152W        W45370  20.790  16.563   1.756
77153W        W45371   9.446   8.105  11.054
77154W        W45372  38.686  40.239  10.687
77155W        W45373  18.190  14.158   3.104
77156W        W45374  17.017  10.522   0.952
77157W        W45375  22.224  17.585   1.653
77158W        W45376  16.458  22.886   3.273
77159W        W45377  33.075  38.868  12.735
77160W        W45378   5.947   8.634  14.593
77161W        W45379  16.489  10.865  11.911
77162W        W45380   3.248   2.714   0.741
77163W        W45381   7.157  42.986  11.590
77164W        W45382  20.001  38.049  13.600
77165W        W45383  11.744  13.567  10.780
77166W        W45384  17.120  43.055   2.273
77167W        W45385  25.033  11.622  12.607
77168W        W45386  27.569  26.628  14.561
77169W        W45387   5.134  36.098  14.379
77170W        W45388  12.268  17.778   0.290
77171W        W45389  29.714   4.046  11.962
77172W        W45390   4.182  33.131  12.461
77173W        W45391  27.942  23.444  12.921
77174W        W45392  32.638  44.411   0.799
77175W        W45393  39.036   8.376  12.232
77176W        W45394  40.756  32.740  12.952
77177W        W45395  44.535  43.916  10.987
77178W        W45396  41.423  11.791   4.380
77179W        W45397  41.015  34.901   0.072
77180W        W45398   8.832  33.815   1.185
77181W        W45399  16.698  31.193  11.867
77182W        W45400  28.000  40.532  12.374
77183W        W45401  18.769  32.495  12.980
77184W        W45402  33.046  13.825  11.588
77185W        W45403  31.941   2.065   1.845
77186W        W45404  21.649  21.210  12.205
77187W        W45405  42.863   0.664   1.313
77188W        W45406  26.603  23.682  12.039
77189W        W45407  37.585  40.125  14.547
77190W        W45408  17.560  26.093   1.939
77191W        W45409  42.320  10.407  13.794
77192W        W45410  24.477   9.055  11.191
77193W        W45411  39.524  23.545   4.451
77194W        W45412  13.500  23.674  11.165
77195W        W45413  13.340  31.670  10.670
77196W        W45414  27.183   8.927  12.081
77197W        W45415   9.305   0.444  12.055
77198W        W45416  16.012   7.813  11.548
77199W        W45417  41.507  20.860  14.721
77200W        W45418  42.318  25.333   2.654
77201W        W45419  32.873  42.806   4.573
77202W        W45420  10.360  35.542  14.337
77203W        W45421  28.853  39.765   2.798
77204W        W45422  16.859  29.290  11.829
77205W        W45423   1.213  38.437   3.181
77206W        W45424  44.540  38.925   4.180
77207W        W45425  15.224  30.726  14.017
77208W        W45426  28.893  31.003  13.299
77209W        W45427   6.820   5.957  14.886
77210W        W45428  22.128   9.049   1.955
77211W        W45429  35.827  40.179  14.829
77212W        W45430  38.466   5.498  14.281
77213W        W45431  33.224   3.357  10.203
77214W        W45432  16.073  19.815  11.618
77215W        W45433   9.814  16.629   3.310
77216W        W45434  39.643  23.770  12.777
77217W        W45435  34.538  23.250   0.781
77218W        W45436  21.695  16.536   4.113
77219W        W45437   5.270  37.124   1.610
77220W        W45438  36.620  41.089  12.028
77221W        W45439   4.512   8.617  14.435
77222W        W45440  16.983   4.728   4.479
77223W        W45441  42.739  19.286  10.744
77224W        W45442  20.657   5.354   3.746
77225W        W45443  28.546   1.393   2.632
77226W        W45444  39.914  18.038   0.724
77227W        W45445  32.395   5.424  13.044
77228W        W45446  14.026   6.976  12.564
77229W        W45447  19.834  21.242   0.976
77230W        W45448   8.511  29.301   0.344
77231W        W45449  16.778  28.951   2.751
77232W        W45450  10.774  38.857  11.153
77233W        W45451  15.569  14.756   4.110
77234W        W45452   9.749  30.995  14.607
77235W        W45453  11.558  44.870  12.337
77236W        W45454  15.278  40.770   1.351
77237W        W45455   4.717  18.738   4.338
77238W        W45456  24.297  26.445   2.883
77239W        W45457  17.659  26.659   1.340
77240W        W45458  28.507  16.626  11.299
77241W        W45459  38.436  22.451  13.840
77242W        W45460  23.548  16.755   1.871
77243W        W45461  10.767   6.780  11.584
77244W        W45462   7.160   1.248   1.700
77245W        W45463  13.561  32.366   4.138
77246W        W45464  14.844  41.059   2.757
77247W        W45465   6.875  43.346  10.199
77248W        W45466   0.851  15.174  13.029
77249W        W45467  34.472  40.778  14.240
77250W        W45468  11.341   5.125   2.210
77251W        W45469  41.255   5.369   0.925
77252W        W45470  40.932   7.813   1.210
77253W        W45471  44.886   5.304   1.247
77254W        W45472  12.308  37.936   4.081
77255W        W45473  28.754  11.585   3.644
77256W        W45474  15.054   8.842  12.059
77257W        W45475  13.357  37.762   0.478
77258W        W45476   2.022  15.489  14.311
77259W        W45477  36.164  11.234  12.731
77260W        W45478  15.751  16.119   1.237
77261W        W45479  24.236  21.485   5.122
77262W        W45480  19.753   1.251   1.284
77263W        W45481  35.456  15.342   0.862
77264W        W45482  36.902   5.669   1.663
77265W        W45483   6.744  25.137   0.658
77266W        W45484   8.186  30.585   3.706
77267W        W45485  41.020  43.877   3.063
77268W        W45486  16.109  20.736   1.360
77269W        W45487  34.988  21.009   3.731
77270W        W45488  40.353  24.440  13.820
77271W        W45489  24.819  40.864   0.915
77272W        W45490   5.924  16.683   4.523
77273W        W45491  19.291  23.792  12.725
77274W        W45492  17.102  18.063   4.529
77275W        W45493  40.443  22.789  11.940
77276W        W45494  33.093  22.923   2.395
77277W        W45495   8.273  15.301  12.453
77278W        W45496  27.169   4.303   0.904
77279W        W45497  37.284  14.956  13.805
77280W        W45498  10.731  11.761   1.303
77281W        W45499  10.294  15.261  12.469
77282W        W45500  17.686  27.113   0.356
77283W        W45501   4.868  34.932  11.833
77284W        W45502   7.210   5.242   4.655
77285W        W45503  42.665  31.574  13.416
77286W        W45504  29.570  36.444  12.796
77287W        W45505  28.228  21.200   2.841
77288W        W45506  25.066  27.075  13.463
77289W        W45507  11.738  11.425  13.598
77290W        W45508   0.735  13.796  13.393
77291W        W45509   4.875  14.593  12.817
77292W        W45510  12.229  38.415   4.859
77293W        W45511  25.575  16.252  14.690
77294W        W45512  39.988  43.821   2.992
77295W        W45513   4.919   8.604   4.627
77296W        W45514  42.530   8.288   3.380
77297W        W45515  30.349  25.007   3.656
77298W        W45516  37.444  39.080   0.512
77299W        W45517  11.142  34.385   0.872
77300W        W45518  35.408  44.805  12.354
77301W        W45519  31.374  30.876  10.710
77302W        W45520   8.333  32.150   4.088
77303W        W45521  44.013   8.341  10.666
77304W        W45522  20.413  26.219  12.764
77305W        W45523  34.928  12.872   2.522
77306W        W45524  25.741  29.969  11.123
77307W        W45525  11.579  29.707  11.295
77308W        W45526  36.142   1.165  11.153
77309W        W45527  36.983  40.493   2.281
77310W        W45528  23.768  15.753   3.796
77311W        W45529  24.892   8.426   3.603
77312W        W45530   0.035  34.576   0.345
77313W        W45531  19.069  43.766  11.548
77314W        W45532  42.868  27.087   1.731
77315W        W45533   2.448  38.641  13.809
77316W        W45534  20.277  18.021  10.017
77317W        W45535  21.704  40.090   0.266
77318W        W45536  28.593  24.501   4.041
77319W        W45537  41.356  27.927   1.725
77320W        W45538  24.246  11.309   4.078
77321W        W45539  28.674  28.997   4.330
77322W        W45540  12.267   7.764   0.748
77323W        W45541  15.154  13.837   4.987
77324W        W45542  13.933  40.902  10.722
77325W        W45543  21.569  15.206  11.554
77326W        W45544   1.769   1.075   3.989
77327W        W45545  23.545  20.610   2.152
77328W        W45546  15.054  38.357   0.484
77329W        W45547  44.329  11.167   4.227
77330W        W45548  18.210  24.345   2.824
77331W        W45549   2.900  15.458   0.450
77332W        W45550   3.978  19.073   2.815
77333W        W45551  13.601  26.704   0.285
77334W        W45552   0.192  38.014   1.736
77335W        W45553  35.438   7.677  10.706
77336W        W45554   1.793  33.382   4.630
77337W        W45555  16.533  20.614  14.357
77338W        W45556  11.716  42.511  11.435
77339W        W45557  31.131   1.745  10.319
77340W        W45558  13.127   3.854   1.428
77341W        W45559  18.670  25.854   0.326
77342W        W45560  11.539   1.980   0.342
77343W        W45561  24.491  17.823   2.394
77344W        W45562  40.793  17.250   1.431
77345W        W45563   7.747   9.784  13.134
77346W        W45564  37.372  35.578   3.743
77347W        W45565  41.493  21.722  13.536
77348W        W45566   0.682   9.842  14.899
77349W        W45567  25.568   2.310  14.525
77350W        W45568  18.798   4.810   0.880
77351W        W45569  37.849  37.929  14.490
77352W        W45570   1.463  31.877  12.966
77353W        W45571  28.872  30.739   2.914
77354W        W45572  11.241   1.987   4.212
77355W        W45573  22.271  15.663  11.013
77356W        W45574  31.561  29.595   1.889
77357W        W45575  35.014  29.168   5.222
77358W        W45576   0.920  15.231   0.933
77359W        W45577  13.895  23.928  13.907
77360W        W45578  39.723  26.558  13.528
77361W        W45579  17.013  30.418   3.973
77362W        W45580  23.415  39.519   3.189
77363W        W45581  23.788  25.002  12.481
77364W        W45582  22.686  31.648   2.287
77365W        W45583  10.289   3.349  12.076
77366W        W45584  36.608  26.654  10.857
77367W        W45585   4.380  39.565  12.762
77368W        W45586  18.567  36.092  13.367
77369W        W45587  28.690  38.892   3.681
77370W        W45588  28.164  27.018  12.527
77371W        W45589  22.449  44.647   2.811
77372W        W45590  24.806  36.445   4.203
77373W        W45591  35.240  24.509  14.931
77374W        W45592   9.168  35.902  11.578
77375W        W45593  25.946  39.549   3.368
77376W        W45594  24.770   0.017  12.203
77377W        W45595  19.692  13.708  12.813
77378W        W45596   6.658  25.738   3.230
77379W        W45597   1.268  39.951   0.200
77380W        W45598  34.600  18.837   2.374
77381W        W45599  38.759  42.921  12.481
77382W        W45600  29.596  14.562  14.408
77383W        W45601   6.144  24.605  13.533
77384W        W45602  29.674  38.861   4.292
77385W        W45603  36.865  16.208  12.474
77386W        W45604  20.528  40.837  12.039
77387W        W45605   9.412  12.130   3.558
77388W        W45606   3.741  11.615   1.648
77389W        W45607  39.448  27.053  10.919
77390W        W45608  36.337  23.740   4.271
77391W        W45609  40.965  42.025   4.471
77392W        W45610  34.078   5.024  10.616
77393W        W45611  16.623   1.860   0.246
77394W        W45612  12.695  29.442  11.538
77395W        W45613  29.698  21.201  11.612
77396W        W45614   9.660   2.460   2.613
77397W        W45615  25.765   1.266   3.660
77398W        W45616   0.821  30.807   4.620
77399W        W45617  16.897   9.172  12.905
77400W        W45618  34.028  28.373  11.528
77401W        W45619  39.493   8.211   4.014
77402W        W45620  31.655  44.535  14.147
77403W        W45621  30.959   0.265  12.043
77404W        W45622  16.207  18.959   4.696
77405W        W45623  35.830  24.621  12.652
77406W        W45624   0.376   8.710  10.749
77407W        W45625  41.372  11.256   1.326
77408W        W45626   4.276  43.110   3.478
77409W        W45627   4.605  43.438   2.709
77410W        W45628  10.316  44.920   2.647
77411W        W45629  21.154   4.384   2.595
77412W        W45630  21.961   2.848   3.417
77413W        W45631   6.221   4.127   0.753
77414W        W45632  36.836  11.590  13.637
77415W        W45633  37.774  23.135   0.354
77416W        W45634   4.394  19.729  13.871
77417W        W45635  28.658  24.422  10.764
77418W        W45636   0.802  16.729  11.421
77419W        W45637  27.073  15.841   1.282
77420W        W45638  29.571   6.016   0.093
77421W        W45639  12.409  11.375  14.917
77422W        W45640  24.032  13.078   1.660
77423W        W45641   8.690  34.866   4.217
77424W        W45642   8.647  26.031   3.278
77425W        W45643  12.874  30.145  13.814
77426W        W45644  13.593  24.054  13.505
77427W        W45645  42.555   7.372  13.811
77428W        W45646  29.115  13.970  11.999
77429W        W45647  19.784  34.276  11.148
77430W        W45648   6.285  26.993  11.551
77431W        W45649  11.752  42.469   4.426
77432W        W45650   2.080  36.470  14.813
77433W        W45651  42.002  14.682   2.304
77434W        W45652  12.548  12.704   2.085
77435W        W45653  29.509   3.148   1.933
77436W        W45654  13.987  26.957  10.888
77437W        W45655   3.941  10.331  14.948
77438W        W45656  40.726  43.994  12.365
77439W        W45657  25.202  35.565  13.279
77440W        W45658  19.087  22.458  11.136
77441W        W45659  30.809  25.523  13.259
77442W        W45660  17.313  22.679  11.150
77443W        W45661  17.838  20.225  14.553
77444W        W45662   2.503   9.296   0.618
77445W        W45663  36.504  26.269   2.129
77446W        W45664   2.848  32.135   2.084
77447W        W45665  25.693  28.635  12.852
77448W        W45666  39.829  27.676   1.270
77449W        W45667  42.465   4.945   2.108
77450W        W45668  15.569  12.779   4.567
77451W        W45669  29.164  44.721  11.578
77452W        W45670  40.008   8.830  13.267
77453W        W45671  17.279   6.306  13.990
77454W        W45672  36.565   0.739  14.045
77455W        W45673  44.713  30.459   1.818
77456W        W45674   8.518  15.954  12.145
77457W        W45675  24.210  11.804   0.693
77458W        W45676  20.111  16.741   4.354
77459W        W45677  29.006  22.452  12.640
77460W        W45678  35.438  16.794  13.444
77461W        W45679   1.118   6.477   1.143
77462W        W45680  44.032  41.265   0.588
77463W        W45681  17.234  29.433  14.820
77464W        W45682  39.481   5.238   5.406
77465W        W45683  29.153  42.406  11.090
77466W        W45684  33.487  25.134  10.244
77467W        W45685   4.934  10.343   0.059
77468W        W45686  23.091  20.043  14.074
77469W        W45687  18.296  24.208   1.904
77470W        W45688   2.294   8.437   2.282
77471W        W45689  38.036  27.927  11.782
77472W        W45690  12.232  40.966   3.677
77473W        W45691  32.604  41.841   0.987
77474W        W45692  26.961  17.738   1.233
77475W        W45693  30.300   3.832   4.323
77476W        W45694   8.291  33.240   3.216
77477W        W45695  13.078  12.633   2.844
77478W        W45696  26.715  30.619  13.767
77479W        W45697  15.086   5.963   4.604
77480W        W45698  10.027   7.336   9.948
77481W        W45699  35.846  25.134  13.440
77482W        W45700   0.541  30.507   2.246
77483W        W45701  34.866  42.785   0.309
77484W        W45702  18.050  35.919   0.424
77485W        W45703  43.370  42.906   5.093
77486W        W45704  43.466   1.731   2.923
77487W        W45705  26.084  12.315  14.530
77488W        W45706  13.813  25.578  14.842
77489W        W45707   0.838  28.957  12.525
77490W        W45708   6.816  22.242   2.785
77491W        W45709   6.601  20.207   3.368
77492W        W45710  23.654  30.516   4.102
77493W        W45711  30.909  34.445   0.331
77494W        W45712  28.167   8.376  11.182
77495W        W45713   8.916  41.381   4.299
77496W        W45714   7.750  39.304  11.003
77497W        W45715  26.825  17.322   0.469
77498W        W45716  18.036  26.225  12.637
77499W        W45717  30.942  32.341  13.503
77500W        W45718  28.648   0.453   4.294
77501W        W45719  28.930   7.570  12.516
77502W        W45720  36.475  20.644  13.819
77503W        W45721   9.704   6.259  11.195
77504W        W45722  39.958  22.636  12.645
77505W        W45723   8.661  31.078  13.075
77506W        W45724   7.443  31.699  11.696
77507W        W45725   1.907   3.292  10.423
77508W        W45726  10.902  15.608  12.813
77509W        W45727  18.178  40.324   3.305
77510W        W45728  41.857   8.785  12.045
77511W        W45729  42.726  23.714   0.753
77512W        W45730  24.675   3.199   4.182
77513W        W45731   8.394   7.219   2.271
77514W        W45732  15.535   8.543  10.108
77515W        W45733  26.680  11.146   3.781
77516W        W45734  31.410  15.684   1.385
77517W        W45735   8.260   5.887  11.896
77518W        W45736   0.690  20.220   2.694
77519W        W45737  16.138  19.626  12.933
77520W        W45738   3.179   5.685  14.418
77521W        W45739  23.431  35.904   1.574
77522W        W45740  33.978  29.853   2.698
77523W        W45741  34.980  27.016   4.602
77524W        W45742  20.376  33.731   0.367
77525W        W45743  40.568  36.031   1.946
77526W        W45744  11.647   3.863   0.431
77527W        W45745  28.226  21.573   1.715
77528W        W45746   9.288   3.828   4.628
77529W        W45747  42.664  15.320  10.711
77530W        W45748  10.639  16.034  12.676
77531W        W45749  43.867  30.540   1.561
77532W        W45750   5.838   3.890  13.503
77533W        W45751  37.043  33.612  10.740
77534W        W45752  37.086   9.339   2.340
77535W        W45753  11.357  34.907  14.451
77536W        W45754  14.653  14.342   1.483
77537W        W45755   5.151  23.055   3.758
77538W        W45756  30.745   9.405  12.015
77539W        W45757  28.666  26.984  11.563
77540W        W45758   1.615  18.810   1.269
77541W        W45759  27.499  25.585  13.501
77542W        W45760  35.961  17.838   2.801
77543W        W45761  40.554   1.402  12.948
77544W        W45762  38.869  42.445   2.106
77545W        W45763  40.751  36.598   2.697
77546W        W45764  41.938  40.132   1.848
77547W        W45765   4.230  14.513   0.222
77548W        W45766  44.247  43.726   3.688
77549W        W45767  20.659  31.265  10.706
77550W        W45768  43.670  24.680  11.078
77551W        W45769  16.306  34.080  12.972
77552W        W45770   5.917  12.330   3.147
77553W        W45771   1.212  10.636  14.747
77554W        W45772  43.391  35.016  13.553
77555W        W45773  18.570  43.997   3.127
77556W        W45774  17.774  13.913  14.334
77557W        W45775  38.848   5.279  12.116
77558W        W45776  41.833  20.555   4.845
77559W        W45777  42.962   0.043   4.676
77560W        W45778  16.122  40.262   0.153
77561W        W45779  11.762  15.205  12.291
77562W        W45780  32.094  17.527   4.575
77563W        W45781  40.359  27.187  14.975
77564W        W45782  32.421  31.056   1.315
77565W        W45783  32.602  43.936   3.233
77566W        W45784  32.894  11.744   0.035
77567W        W45785   6.716   2.451  12.952
77568W        W45786  20.311  29.090   2.446
77569W        W45787  37.953  38.444   1.727
77570W        W45788  21.079  33.013  12.531
77571W        W45789  24.493   3.732   2.255
77572W        W45790  40.803  41.478   2.127
77573W        W45791  40.953   7.172  12.904
77574W        W45792  14.748   2.697   5.527
77575W        W45793  11.139  29.926  11.124
77576W        W45794   2.732  13.076   3.687
77577W        W45795  18.634   6.757   1.369
77578W        W45796  24.555  31.375  14.879
77579W        W45797   6.746  24.929  12.131
77580W        W45798   0.046  27.031   0.235
77581W        W45799  43.392  32.254   0.638
77582W        W45800  23.487  43.166   3.308
77583W        W45801  32.146  26.506  10.499
77584W        W45802  35.978   6.131  11.554
77585W        W45803   6.446  27.587  12.323
77586W        W45804  40.980   2.824  13.431
77587W        W45805  23.220  32.442  12.446
77588W        W45806  19.192  21.032   3.628
77589W        W45807  39.493  21.762  14.927
77590W        W45808  42.657  35.777   2.257
77591W        W45809  16.138  17.975   1.216
77592W        W45810  26.249   3.337   0.328
77593W        W45811  38.430  33.131   1.193
77594W        W45812   8.784  36.090   2.155
77595W        W45813  15.569  19.425   3.962
77596W        W45814   0.451  22.504   1.521
77597W        W45815  36.975   0.537   2.929
77598W        W45816   9.383  41.695   0.441
77599W        W45817  15.863  41.044   2.775
77600W        W45818  39.397  44.311  11.972
77601W        W45819  23.787   2.036   4.825
77602W        W45820  30.768  12.668  14.745
77603W        W45821  27.642  31.825  11.849
77604W        W45822  36.387  23.196   1.016
77605W        W45823   0.736   3.407   3.280
77606W        W45824  37.243   4.448   0.353
77607W        W45825  44.691  40.074  14.089
77608W        W45826  23.529   1.393   4.036
77609W        W45827   1.653  17.924  12.070
77610W        W45828  20.324   9.914  12.124
77611W        W45829  33.404  25.860   3.107
77612W        W45830  17.584  32.040   0.864
77613W        W45831  40.322   1.928   1.295
77614W        W45832  28.650  38.650  12.031
77615W        W45833  23.256  44.979   1.222
77616W        W45834  19.254   2.843  11.872
77617W        W45835  33.532  39.131   5.156
77618W        W45836  38.424  44.433   1.973
77619W        W45837  24.978   8.263   0.785
77620W        W45838  22.725  22.728  12.988
77621W        W45839  36.812  28.501  14.530
77622W        W45840  34.070   1.726   2.275
77623W        W45841  22.959  20.123   3.948
77624W        W45842  13.846   4.270   4.355
77625W        W45843  13.729  24.379  11.680
77626W        W45844  37.328  41.444  12.025
77627W        W45845  37.848  20.464  12.657
77628W        W45846  32.918   9.133   3.557
77629W        W45847  36.330   3.690  14.782
77630W        W45848  36.545  37.868   3.968
77631W        W45849  27.477  34.711   1.839
77632W        W45850  15.499  37.572   2.188
77633W        W45851  26.144  31.963   0.721
77634W        W45852  34.974   8.737   4.142
77635W        W45853  22.546  30.401  12.005
77636W        W45854   8.266  14.168   0.604
77637W        W45855  30.347  40.939  14.124
77638W        W45856  34.586  24.196  10.510
77639W        W45857   7.656  42.892   0.278
77640W        W45858  42.164   3.330   0.314
77641W        W45859  41.420  11.267   4.422
77642W        W45860  37.103  30.572   2.571
77643W        W45861  18.786  11.870  12.887
77644W        W45862  15.566  42.340   2.276
77645W        W45863  29.945  11.619   1.346
77646W        W45864   8.884  15.557   4.634
77647W        W45865  44.543  26.688  11.413
77648W        W45866  24.644  18.204  10.433
77649W        W45867  27.735  23.883   4.138
77650W        W45868  24.158  36.472  12.949
77651W        W45869  18.822  13.737  12.831
77652W        W45870   5.391  36.099   4.693
77653W        W45871  40.256  36.780   3.516
77654W        W45872  29.533  30.910  14.500
77655W        W45873  43.986  27.544   0.915
77656W        W45874  18.107  27.541   1.563
77657W        W45875  14.841  24.978   4.732
77658W        W45876  34.233  11.736  11.947
77659W        W45877  24.245  41.057  11.193
77660W        W45878  25.262  15.457  12.404
77661W        W45879  23.988  35.423  13.403
77662W        W45880  34.126  11.491  11.288
77663W        W45881   7.684  27.126  13.316
77664W        W45882  20.188  26.328  14.351
77665W        W45883  31.398  40.313   0.753
77666W        W45884  40.600  23.765   4.416
77667W        W45885   6.915   5.665  11.708
77668W        W45886  13.340  21.171   0.234
77669W        W45887  12.285  33.860   1.724
77670W        W45888  37.784  28.649   1.186
77671W        W45889  41.052  30.502   3.711
77672W        W45890  20.859   2.506  12.080
77673W        W45891  36.768   0.102  10.650
77674W        W45892  33.505  38.512   4.564
77675W        W45893   7.773  22.574   2.817
77676W        W45894   3.281  41.045   4.602
77677W        W45895  35.598  24.769   0.319
77678W        W45896  20.252  25.062  11.630
77679W        W45897  35.912  31.660   4.703
77680W        W45898  11.344  32.922   2.164
77681W        W45899   7.208  29.056  12.681
77682W        W45900  32.318   9.102   2.193
77683W        W45901  31.198  13.215  13.054
77684W        W45902  19.928  18.903  10.713
77685W        W45903  16.324  39.773   2.841
77686W        W45904  13.244  37.646  14.286
77687W        W45905  40.229  35.021  14.123
77688W        W45906  31.112   3.243   2.274
77689W        W45907  13.569  17.128   4.319
77690W        W45908  44.983  16.304   0.008
77691W        W45909  19.790  41.523   2.770
77692W        W45910  37.442  24.616   2.359
77693W        W45911   5.152   5.274   1.775
77694W        W45912  42.616  35.270   2.362
77695W        W45913   7.884  12.645   4.591
77696W        W45914  34.410  27.124   1.636
77697W        W45915   9.733  31.489   1.437
77698W        W45916   1.652  35.914  11.855
77699W        W45917   0.233  21.828  11.032
77700W        W45918  22.143  26.995   4.605
77701W        W45919  22.226   5.857   2.178
77702W        W45920   8.358   5.656   0.521
77703W        W45921   2.515  36.356   2.784
77704W        W45922  40.878  19.041  12.103
77705W        W45923  32.343  39.780   4.124
77706W        W45924  22.307   3.112   4.210
77707W        W45925  14.668  32.931  12.173
77708W        W45926  30.022  21.236  12.164
77709W        W45927  37.008   4.675  12.104
77710W        W45928  11.472  13.223   3.638
77711W        W45929  10.315  16.605  12.927
77712W        W45930  18.162   8.426   4.259
77713W        W45931  43.710   9.332   2.422
77714W        W45932  33.178   3.411  10.706
77715W        W45933  11.552  36.389  13.354
77716W        W45934   9.864  37.366   0.932
77717W        W45935  42.636   4.358   2.027
77718W        W45936   0.144  26.535  14.359
77719W        W45937  14.821  21.168   1.203
77720W        W45938   7.399  14.176   3.628
77721W        W45939  34.087  31.035  12.134
77722W        W45940  34.866  30.087   4.894
77723W        W45941  44.571  32.210   4.576
77724W        W45942  13.568   8.759  12.811
77725W        W45943  21.996  30.124   0.276
77726W        W45944  24.392  33.490   3.035
77727W        W45945  25.159  28.402  11.206
77728W        W45946  32.368  40.606  14.353
77729W        W45947  27.949   5.407  12.279
77730W        W45948   8.154  31.831   5.268
77731W        W45949  24.795  34.498   2.457
77732W        W45950  29.905  19.131   3.895
77733W        W45951  10.324  20.096  13.321
77734W        W45952  41.174  12.207  14.403
77735W        W45953  36.573   7.504   3.696
77736W        W45954  40.355  41.226   4.526
77737W        W45955   3.386  11.545   2.771
77738W        W45956  22.812  16.086   3.207
77739W        W45957  21.498  14.047   2.241
77740W        W45958  15.304  42.680  13.007
77741W        W45959   7.949   1.304  10.396
77742W        W45960  24.687  41.281  14.760
77743W        W45961  37.055  10.357  11.679
77744W        W45962  24.555  18.681  10.670
77745W        W45963  14.373  15.334   1.908
77746W        W45964  26.324  21.344   4.051
77747W        W45965  38.004  32.756  10.693
77748W        W45966   7.745  32.844   3.841
77749W        W45967  39.544  25.070   1.829
77750W        W45968  31.132  15.668  11.846
77751W        W45969  43.064  41.252  14.691
77752W        W45970   0.964  32.900  12.326
77753W        W45971  39.226  30.381  12.482
77754W        W45972  12.798  19.039  12.449
77755W        W45973  12.618  11.060  10.632
77756W        W45974  44.355  15.727  14.568
77757W        W45975   1.119   6.691  11.894
77758W        W45976  31.512  20.364  12.951
77759W        W45977  13.161  24.936   1.744
77760W        W45978  32.344  38.631  12.989
77761W        W45979  36.103  10.276  13.136
77762W        W45980  34.475   5.310   1.833
77763W        W45981  18.793  12.136  12.429
77764W        W45982   4.449   4.490   2.601
77765W        W45983   0.927  23.198  14.447
77766W        W45984   1.250  27.075   2.993
77767W        W45985  31.106   3.854  13.944
77768W        W45986  30.007  16.078   0.244
77769W        W45987  17.227  28.677   1.579
77770W        W45988   7.103  44.886   1.306
77771W        W45989  43.717  10.431   4.832
77772W        W45990  34.342   2.368   3.352
77773W        W45991  36.439  42.556  12.122
77774W        W45992  31.023  38.068  12.818
77775W        W45993  42.443  38.899   4.377
77776W        W45994   2.730   0.990   2.526
77777W        W45995  15.824  17.917   2.401
77778W        W45996  27.494  40.309  14.333
77779W        W45997  40.283   5.333   1.774
77780W        W45998  12.666  39.895  11.955
77781W        W45999  15.775   7.674  10.554
77782W        W46000  39.468  14.200   4.109
77783W        W46001   7.241  42.696   0.999
77784W        W46002  24.994  21.167  13.397
77785W        W46003   8.536   7.852  12.414
77786W        W46004  25.543   5.152   0.884
77787W        W46005  27.216  20.624   4.615
77788W        W46006  39.843  44.009   0.968
77789W        W46007  27.603  12.170   4.719
77790W        W46008  34.603  23.176  13.978
77791W        W46009  32.260  42.214  13.509
77792W        W46010  21.006  30.611   2.906
77793W        W46011   4.055  14.652   1.522
77794W        W46012   4.295  29.259  11.163
77795W        W46013   5.942   3.971   1.822
77796W        W46014  13.033  37.449  13.344
77797W        W46015   1.188  21.664  13.123
77798W        W46016  29.603  38.403   1.231
77799W        W46017   1.556  40.937  13.036
77800W        W46018   5.553  44.879   4.950
77801W        W46019  28.412  36.637   3.207
77802W        W46020   4.599  32.676  10.561
77803W        W46021   4.816   7.071  11.555
77804W        W46022  30.414  33.887  13.013
77805W        W46023  44.147  12.033  13.088
77806W        W46024  22.185  21.505  13.017
77807W        W46025  40.274  38.828   0.181
77808W        W46026  25.028  14.152  14.421
77809W        W46027  16.874  16.845  11.945
77810W        W46028   5.315  35.079   2.784
77811W        W46029  14.282  16.358  11.287
77812W        W46030  18.150  32.183  14.507
77813W        W46031  18.851  29.069  12.700
77814W        W46032  13.217  35.583   3.875
77815W        W46033  33.754   6.736   3.834
77816W        W46034   8.880  29.680  13.219
77817W        W46035  14.417  43.734   1.077
77818W        W46036  29.373   6.465   2.852
77819W        W46037  11.664  18.251  13.413
77820W        W46038  28.534  38.132   4.329
77821W        W46039  39.457   7.377   1.824
77822W        W46040  32.100  44.328  12.728
77823W        W46041  43.326  34.186   2.715
77824W        W46042   4.375   2.796  10.872
77825W        W46043  20.226  33.048   2.358
77826W        W46044   4.560  40.351  11.258
77827W        W46045  33.717   9.229   2.062
77828W        W46046  30.774  20.709   1.155
77829W        W46047   7.763  18.943  14.491
77830W        W46048  32.626  20.568   1.307
77831W        W46049  35.990  36.990  13.499
77832W        W46050  19.907   1.529  14.978
77833W        W46051   1.841  13.514  11.016
77834W        W46052  10.984  43.823  14.777
77835W        W46053  24.598  42.047  14.008
77836W        W46054  31.012  14.060   1.447
77837W        W46055  33.866  21.514   3.724
77838W        W46056  37.489  13.526   4.578
77839W        W46057  14.290  41.798  11.207
77840W        W46058  41.776   9.939   0.288
77841W        W46059   6.079  12.257  12.850
77842W        W46060   5.502  11.144  11.045
77843W        W46061  33.456  14.636  13.843
77844W        W46062  35.334  39.773   0.272
77845W        W46063  41.934  20.649   3.884
77846W        W46064  20.212  10.140  14.045
77847W        W46065  12.381   3.284   0.362
77848W        W46066   9.191  22.046   3.689
77849W        W46067  21.155  38.427   3.584
77850W        W46068  28.603  36.454   1.845
77851W        W46069   9.781  15.035  11.704
77852W        W46070   4.179   2.672   1.348
77853W        W46071  38.326  12.215  12.103
77854W        W46072  27.272  26.589  10.441
77855W        W46073   3.713  31.523  14.932
77856W        W46074  24.173  24.309   3.229
77857W        W46075  42.512   3.188  13.992
77858W        W46076  33.215  22.381  11.134
77859W        W46077   0.539   0.827  14.667
77860W        W46078   7.114  19.015  12.687
77861W        W46079  31.997  35.152   3.257
77862W        W46080   3.365  36.327   2.414
77863W        W46081  28.172  16.380   9.698
77864W        W46082  30.363   3.238  14.269
77865W        W46083  20.051  31.426   3.634
77866W        W46084  29.906  35.357  11.939
77867W        W46085  11.789  11.381  12.152
77868W        W46086  15.439   4.208   2.268
77869W        W46087  36.171  25.558   0.703
77870W        W46088  36.227   5.350   4.954
77871W        W46089  18.068   1.469  10.573
77872W        W46090  44.250  28.737  12.486
77873W        W46091  26.583   9.848  13.848
77874W        W46092  30.024   0.992   1.374
77875W        W46093  44.298  18.375  10.715
77876W        W46094  29.183  12.149   4.543
77877W        W46095  19.106  13.157   0.407
77878W        W46096  39.587  40.432  11.556
77879W        W46097   8.658  18.543   4.572
77880W        W46098   3.791  26.159  13.967
77881W        W46099   5.052  30.895  11.126
77882W        W46100  18.556   4.144  11.592
77883W        W46101  39.874  14.783   3.752
77884W        W46102   7.765  20.280  13.409
77885W        W46103  44.476   4.009  13.479
77886W        W46104  18.138  18.360   1.137
77887W        W46105  34.481   0.777  13.032
77888W        W46106   5.393  42.521   1.380
77889W        W46107   0.405  31.566  11.639
77890W        W46108  12.932  10.213  13.383
77891W        W46109  11.355  11.729  13.391
77892W        W46110  24.568  35.544  14.002
77893W        W46111  27.100   3.701  12.622
77894W        W46112  17.135   0.009  14.792
77895W        W46113  40.491  29.618  10.666
77896W        W46114  38.008  40.440   4.576
77897W        W46115  15.201  16.642   0.771
77898W        W46116   4.305  18.706  14.723
77899W        W46117  24.282  33.044   2.795
77900W        W46118  30.694  25.954  14.298
77901W        W46119  12.139  11.874   2.288
77902W        W46120  30.306  14.227   1.440
77903W        W46121   9.761   0.207   2.161
77904W        W46122   8.598  28.608  11.415
77905W        W46123  36.738   5.304   4.963
77906W        W46124   9.321   5.240   4.671
77907W        W46125  26.095  39.869  13.902
77908W        W46126  23.528   5.664  12.983
77909W        W46127  31.644  41.011   2.860
77910W        W46128  19.111  30.936   2.807
77911W        W46129  18.144   7.181   1.859
77912W        W46130  37.124  19.029  11.589
77913W        W46131   6.440  20.154   0.919
77914W        W46132  37.508  35.547   2.390
77915W        W46133  44.698   6.754   0.976
77916W        W46134  26.007  34.372   3.714
77917W        W46135  24.109  14.740   2.130
77918W        W46136  29.308  29.549  11.877
77919W        W46137  14.023  38.499  11.735
77920W        W46138   7.149  20.097  11.039
77921W        W46139  32.084  32.888  12.470
77922W        W46140  40.133  37.842  11.587
77923W        W46141   3.417  12.280  14.870
77924W        W46142  38.969  35.151  13.009
77925W        W46143  26.693  15.309   2.425
77926W        W46144  13.008  27.071   4.887
77927W        W46145  33.856  38.949   2.086
77928W        W46146  38.273  35.542   1.815
77929W        W46147  44.589  31.473  12.854
77930W        W46148  18.557  25.148   1.898
77931W        W46149  25.866  20.764  11.603
77932W        W46150  19.526  29.135  10.643
77933W        W46151  25.952  37.422   1.613
77934W        W46152  26.710  33.960  12.717
77935W        W46153  39.201  39.358  11.837
77936W        W46154  27.478   5.371  12.069
77937W        W46155   7.919   8.149   3.296
77938W        W46156  26.374  41.751   4.047
77939W        W46157   9.468  21.690   0.343
77940W        W46158  39.109  15.721   0.561
77941W        W46159   3.777  28.047   2.170
77942W        W46160  27.070  41.526  12.493
77943W        W46161   9.416  40.903  14.350
77944W        W46162  42.209  21.757  13.942
77945W        W46163  30.426  33.651   0.281
77946W        W46164   9.944  30.654  10.888
77947W        W46165   9.700  32.879  12.764
77948W        W46166  21.672  18.301   0.705
77949W        W46167  17.938   0.172  14.536
77950W        W46168  31.353  43.041  13.417
77951W        W46169  13.747  10.905   0.898
77952W        W46170  44.305  38.759   2.888
77953W        W46171  42.519  36.328   1.450
77954W        W46172  42.037  30.035  10.519
77955W        W46173   8.083  41.003   4.076
77956W        W46174   7.840  27.624  13.477
77957W        W46175  15.238  14.613   5.384
77958W        W46176   8.369  35.396   2.138
77959W        W46177  19.431  10.121   1.709
77960W        W46178   0.871  28.166  12.060
77961W        W46179  14.884   0.830   5.033
77962W        W46180  35.880   2.866   1.296
77963W        W46181  14.694   0.223   3.524
77964W        W46182   9.144  11.402  11.134
77965W        W46183  19.032  34.173  14.077
77966W        W46184  33.362  30.961   3.154
77967W        W46185  14.719  39.303  12.660
77968W        W46186  13.041  10.999   0.919
77969W        W46187  12.866  36.434   0.217
77970W        W46188   7.452  36.543  10.657
77971W        W46189  37.334  33.568   2.142
77972W        W46190  17.290  32.042  11.980
77973W        W46191  22.621   8.391   3.174
77974W        W46192  13.845  32.051  14.769
77975W        W46193  31.576   6.651   0.402
77976W        W46194  18.068   2.010  10.552
77977W        W46195  28.545  39.830  12.511
77978W        W46196  31.531  41.339   0.811
77979W        W46197  41.738  39.378   4.588
77980W        W46198  14.616  20.071  14.889
77981W        W46199   4.170  13.142  11.689
77982W        W46200   3.252   6.939  10.941
77983W        W46201  36.975  14.253  12.518
77984W        W46202  44.121  41.916   4.688
77985W        W46203  19.990  30.955   4.571
77986W        W46204  13.407  12.530   2.419
77987W        W46205  32.576   0.543   1.253
77988W        W46206   3.911  43.166  14.730
77989W        W46207   6.219  19.768   2.436
77990W        W46208  10.848   0.674   4.535
77991W        W46209  26.567  41.763   3.137
77992W        W46210  24.002  27.874  12.999
77993W        W46211  11.794   7.731   1.973
77994W        W46212  16.288   9.332  14.716
77995W        W46213  41.442  15.774   0.933
77996W        W46214   9.029  21.038   4.237
77997W        W46215  32.375  28.713   2.552
77998W        W46216  39.790   9.741  10.743
77999W        W46217   4.348  28.109  14.989
78000W        W46218   9.107  40.465  14.593
78001W        W46219   6.693  10.871   4.177
78002W        W46220   8.856   1.855  14.057
78003W        W46221  29.273  12.668  10.918
78004W        W46222   3.356   9.268  14.005
78005W        W46223  43.577  19.809   0.372
78006W        W46224  43.348  14.844   1.337
78007W        W46225  15.253   9.813  14.307
78008W        W46226  33.037  21.536  12.603
78009W        W46227  23.976   8.237  14.966
78010W        W46228  31.170  39.809   2.997
78011W        W46229  17.200  41.718  13.447
78012W        W46230  37.277   1.734   3.256
78013W        W46231   9.192  11.693   0.521
78014W        W46232  26.988   2.409   0.753
78015W        W46233  18.306  16.585  12.536
78016W        W46234   9.362   9.369   2.441
78017W        W46235  26.980  11.785   0.909
78018W        W46236   9.413  37.094   0.684
78019W        W46237  40.082  21.117  14.397
78020W        W46238  44.347  11.785   2.237
78021W        W46239  27.183  39.787  12.452
78022W        W46240  20.073  11.387   0.063
78023W        W46241  39.124  33.449   0.505
78024W        W46242  39.429  10.486   3.615
78025W        W46243  18.816  17.773  14.118
78026W        W46244   9.298   6.853   2.641
78027W        W46245  37.308  32.380   4.909
78028W        W46246  33.225  18.997   2.515
78029W        W46247  11.333  13.247  11.983
78030W        W46248  30.618   5.710   0.829
78031W        W46249   2.969  42.409   4.628
78032W        W46250  11.304  13.322  12.891
78033W        W46251  25.692  18.093   4.446
78034W        W46252  26.026  10.176   1.019
78035W        W46253  23.179   1.886   0.494
78036W        W46254  25.377  34.238  13.479
78037W        W46255  31.676  36.428   3.688
78038W        W46256   2.312  39.195  11.626
78039W        W46257  30.762   3.002  11.597
78040W        W46258   0.068  42.384  13.310
78041W        W46259  13.213  17.306   1.479
78042W        W46260  43.356  23.291  13.991
78043W        W46261   6.733   6.283   0.328
78044W        W46262  33.870   8.658   2.741
78045W        W46263  17.665   0.312  14.967
78046W        W46264  12.184  18.570  13.830
78047W        W46265  14.840  43.220  10.694
78048W        W46266   0.694  38.547  10.279
78049W        W46267  30.493  11.479  11.122
78050W        W46268   7.337  21.104   0.304
78051W        W46269  20.768  27.565   1.434
78052W        W46270  11.250  15.946   1.195
78053W        W46271   6.822  16.357   0.870
78054W        W46272  37.397   3.771  13.864
78055W        W46273  35.451  36.268   2.388
78056W        W46274  32.842  30.278   4.453
78057W        W46275   7.792   2.603  12.962
78058W        W46276  31.731  13.533  14.641
78059W        W46277  21.095  22.784  14.093
78060W        W46278   8.462  29.881  11.450
78061W        W46279   8.137  43.212  10.431
78062W        W46280  21.674  28.483  11.957
78063W        W46281  18.901   8.694   2.272
78064W        W46282   5.867  44.524  11.811
78065W        W46283   0.215  20.062   1.284
78066W        W46284  20.676  23.608  11.637
78067W        W46285  40.733  23.998  14.463
78068W        W46286  31.047  39.514  13.935
78069W        W46287  39.797  35.008  14.449
78070W        W46288  12.117   9.559  13.346
78071W        W46289  26.052  18.345   4.708
78072W        W46290  15.961   0.751   3.021
78073W        W46291   5.683  11.610   3.335
78074W        W46292  35.401  11.632   1.725
78075W        W46293  15.298  36.014  13.403
78076W        W46294  32.044  28.387   1.746
78077W        W46295  13.505  15.705  10.545
78078W        W46296  10.263  30.003   3.792
78079W        W46297  34.707   2.659   0.511
78080W        W46298  14.784  11.105  12.546
78081W        W46299  33.497   2.602   1.096
78082W        W46300  10.976  10.656  13.987
78083W        W46301   9.422  25.549  11.501
78084W        W46302  16.135  15.135   4.214
78085W        W46303   6.267  31.014   2.476
78086W        W46304  31.384   2.001   1.007
78087W        W46305  14.297   3.449  11.061
78088W        W46306  29.225  22.690  10.158
78089W        W46307   9.109   3.455  12.338
78090W        W46308   2.774  39.543   4.608
78091W        W46309   0.759   0.635   2.744
78092W        W46310  23.447  27.640  14.112
78093W        W46311  18.822  36.461   4.068
78094W        W46312  26.396  43.896   2.782
78095W        W46313   8.136  15.950  10.256
78096W        W46314  11.118  41.356   0.920
78097W        W46315  18.179  42.001  12.092
78098W        W46316   4.723  23.175   1.903
78099W        W46317  34.911  25.937   1.397
78100W        W46318  30.746  31.135   4.302
78101W        W46319  44.057  32.081   4.577
78102W        W46320  42.071  35.545  14.005
78103W        W46321   9.665  24.074   2.383
78104W        W46322  33.403   2.664   4.538
78105W        W46323   0.881  27.007   2.121
78106W        W46324  27.813  34.950  13.314
78107W        W46325  32.496   2.597  14.845
78108W        W46326  11.815  39.896   2.387
78109W        W46327   5.656  42.887  14.061
78110W        W46328   8.130  19.643  13.910
78111W        W46329  19.246  30.731   0.558
78112W        W46330  18.601  13.986   0.406
78113W        W46331  33.147  25.941   0.496
78114W        W46332  31.114  40.785   0.336
78115W        W46333  16.087  31.413  10.640
78116W        W46334  19.643  30.254  12.679
78117W        W46335  13.706  27.240  12.158
78118W        W46336  24.592  28.328   1.403
78119W        W46337  41.942  16.059   0.897
78120W        W46338  32.034  43.096   0.374
78121W        W46339  13.110  39.526   4.652
78122W        W46340  40.592  41.216  10.523
78123W        W46341  16.243   6.655  14.900
78124W        W46342   6.522  21.227  11.631
78125W        W46343   6.128  13.332   3.748
78126W        W46344  32.195  44.434   0.541
78127W        W46345  11.618  35.058  14.884
78128W        W46346   3.461  37.728   3.284
78129W        W46347   2.193  14.035   3.156
78130W        W46348  15.898  15.268   3.210
78131W        W46349  27.363  27.202  12.083
78132W        W46350  12.565   3.249  13.904
78133W        W46351  41.854  34.551  12.593
78134W        W46352   9.698  30.683  10.070
78135W        W46353  17.032  33.854  13.459
78136W        W46354  42.357   6.078  10.792
78137W        W46355  44.044  31.510  14.033
78138W        W46356  31.217   2.820  14.733
78139W        W46357  31.717   4.673   2.420
78140W        W46358  20.206  25.526   1.504
78141W        W46359  36.815  36.561   4.763
78142W        W46360  32.183  13.657   1.725
78143W        W46361  39.863   9.482  12.423
78144W        W46362   9.812  39.979  11.386
78145W        W46363  41.064  41.095  10.779
78146W        W46364  13.272  19.065  14.978
78147W        W46365  37.799  36.260  13.087
78148W        W46366  43.384   4.943  13.058
78149W        W46367   4.836   7.626  10.652
78150W        W46368  23.049   8.048   0.238
78151W        W46369  26.020  35.547   4.262
78152W        W46370   2.417  27.983   2.456
78153W        W46371  21.616  37.587  11.774
78154W        W46372  42.587  37.654  10.411
78155W        W46373  11.868  10.859  14.825
78156W        W46374  29.423  41.217   2.763
78157W        W46375  15.905  26.529   0.370
78158W        W46376   3.017  15.593   1.349
78159W        W46377  27.135  35.334   0.318
78160W        W46378  31.404   4.585  10.377
78161W        W46379   0.587  12.087   1.832
78162W        W46380  39.845  44.541   2.274
78163W        W46381  23.593  22.754  11.168
78164W        W46382  24.504  15.101  12.689
78165W        W46383  39.972  21.595  14.295
78166W        W46384  24.950  39.915  14.976
78167W        W46385  34.943  44.217  13.362
78168W        W46386  37.394   5.073  12.556
78169W        W46387  30.594   6.997   4.311
78170W        W46388  38.379  28.530  13.030
78171W        W46389  44.321  22.617   1.722
78172W        W46390  40.800  24.028  10.943
78173W        W46391  30.220   0.852  12.903
78174W        W46392  28.625  37.842   0.238
78175W        W46393  27.605   4.941   3.318
78176W        W46394  19.649   4.190  11.471
78177W        W46395  24.041  10.459   3.239
78178W        W46396  18.215  31.885   4.489
78179W        W46397   6.136  43.124   4.938
78180W        W46398  38.452  17.014  12.616
78181W        W46399  18.644   4.689  11.534
78182W        W46400   5.988   3.058   1.890
78183W        W46401  18.819   2.370   0.867
78184W        W46402  29.458  41.814   2.201
78185W        W46403  18.774  12.270   3.571
78186W        W46404  36.119  13.057  14.923
78187W        W46405  33.273  40.627  14.632
78188W        W46406  28.110  34.437   0.717
78189W        W46407  43.523  10.768   3.892
78190W        W46408  44.048   8.122  12.759
78191W        W46409   5.330   3.983  12.274
78192W        W46410  27.517  14.186   9.761
78193W        W46411  39.873  18.810  14.070
78194W        W46412   0.726  33.279  10.033
78195W        W46413   8.666  37.624   2.403
78196W        W46414  38.471  36.873  11.609
78197W        W46415  42.430  41.864  14.813
78198W        W46416  21.677  15.771   0.418
78199W        W46417  36.884  13.870   3.871
78200W        W46418  11.992  10.358  14.064
78201W        W46419  34.955  15.309  14.354
78202W        W46420   1.515   1.767   4.130
78203W        W46421   8.323  16.701  12.976
78204W        W46422   6.768  29.559   2.200
78205W        W46423  11.160  33.662  13.013
78206W        W46424  21.764  27.711   4.890
78207W        W46425   3.079  35.881   2.283
78208W        W46426  13.186  20.705   2.736
78209W        W46427  26.428  19.496  12.130
78210W        W46428  30.123  12.088   3.687
78211W        W46429  26.257   3.786   0.589
78212W        W46430  16.385   0.363   2.275
78213W        W46431  35.383  40.361  14.587
78214W        W46432  44.897  20.033   4.511
78215W        W46433   6.298  35.440  13.320
78216W        W46434  33.373  17.651  14.922
78217W        W46435  28.635   1.475  10.534
78218W        W46436  36.942  18.091  14.736
78219W        W46437   6.652  28.100   2.274
78220W        W46438   7.318  24.695   4.069
78221W        W46439  20.752   5.708  14.081
78222W        W46440   5.387  23.740   0.878
78223W        W46441  33.458   7.091   2.318
78224W        W46442  24.843   9.771  12.913
78225W        W46443  38.547  26.675   3.771
78226W        W46444   5.272  10.837   1.337
78227W        W46445  14.793   2.730  11.092
78228W        W46446   8.861  10.238   0.368
78229W        W46447  29.941  18.988   2.151
78230W        W46448   3.941  17.133   0.590
78231W        W46449  32.880  39.542   1.188
78232W        W46450   6.798  41.419   3.270
78233W        W46451  44.813  41.237   0.522
78234W        W46452   5.439  17.759   0.754
78235W        W46453   4.702  17.804  10.712
78236W        W46454  24.390  41.907   3.577
78237W        W46455  26.058   9.211  13.782
78238W        W46456  38.577  10.390  13.081
78239W        W46457   3.448  37.254   0.262
78240W        W46458  40.290  43.972  13.436
78241W        W46459   1.717  20.951  12.867
78242W        W46460  20.072  11.736   4.579
78243W        W46461  12.429  17.074  12.539
78244W        W46462  10.670  41.408   0.250
78245W        W46463  35.490  38.930   4.338
78246W        W46464  30.495   2.190   0.466
78247W        W46465  38.554  25.551   3.230
78248W        W46466   7.837  25.419   3.827
78249W        W46467  42.993  24.766   4.591
78250W        W46468  24.938  25.622   4.442
78251W        W46469  44.037  16.218   3.768
78252W        W46470  44.241  21.715   0.924
78253W        W46471   8.901   1.394   4.752
78254W        W46472  42.013  23.603  14.338
78255W        W46473  29.912  43.530   0.756
78256W        W46474   7.185  34.090   3.656
78257W        W46475  12.779  43.237  13.026
78258W        W46476  27.155  37.877   2.206
78259W        W46477  41.099   9.436  12.701
78260W        W46478   1.481  39.484   0.806
78261W        W46479  25.022  18.519   3.276
78262W        W46480  34.204  21.990  11.052
78263W        W46481  34.924   0.395   4.539
78264W        W46482  39.798  21.743  13.832
78265W        W46483  21.592  44.674   0.922
78266W        W46484   9.814  12.278  11.878
78267W        W46485  44.318  19.930   0.713
78268W        W46486  28.427  28.198  14.740
78269W        W46487   2.811   2.928   4.483
78270W        W46488  23.641  44.905   1.553
78271W        W46489   4.858  14.306  14.037
78272W        W46490  25.505  29.660   4.963
78273W        W46491   5.870  14.688   3.395
78274W        W46492  26.432   4.715  10.942
78275W        W46493   8.168   3.162   5.042
78276W        W46494   8.923  42.577   5.196
78277W        W46495  34.708  37.372  11.029
78278W        W46496  34.687   0.754   0.287
78279W        W46497   7.710   2.921  10.791
78280W        W46498  13.794  40.511   3.405
78281W        W46499  13.529   7.625  11.133
78282W        W46500  40.794  11.705   2.606
78283W        W46501  31.857  33.987  13.896
78284W        W46502  20.854  43.798  10.751
78285W        W46503  21.759  42.036   0.437
78286W        W46504  32.140  39.121   1.265
78287W        W46505  31.457   2.558  11.201
78288W        W46506  21.517  14.696   4.641
78289W        W46507  35.074  28.974   2.751
78290W        W46508  35.579  31.717   1.522
78291W        W46509  39.390   0.291   0.957
78292W        W46510  27.086  13.574  11.501
78293W        W46511  36.903  25.424  11.073
78294W        W46512  19.179  35.601  12.944
78295W        W46513  13.628   5.029   4.888
78296W        W46514  30.374   8.133   0.751
78297W        W46515   8.292   6.606  13.151
78298W        W46516  15.827  27.515  13.778
78299W        W46517  27.502   0.498  11.448
78300W        W46518  42.333   6.157  12.421
78301W        W46519   7.863   4.817   1.202
78302W        W46520  32.949  33.442   1.211
78303W        W46521   4.140   0.919   3.153
78304W        W46522  23.030  23.299   0.394
78305W        W46523  20.202   3.105  14.389
78306W        W46524  23.004  26.161   0.944
78307W        W46525  40.459  32.505  14.992
78308W        W46526  26.805  31.877  13.503
78309W        W46527   4.744  13.533  14.298
78310W        W46528  17.695  18.323  14.068
78311W        W46529  34.028   0.058   1.990
78312W        W46530  14.198  10.878  13.888
78313W        W46531  28.929  36.524  10.683
78314W        W46532  11.465  39.643   1.400
78315W        W46533   8.401  20.496   3.356
78316W        W46534  15.306  25.474   3.198
78317W        W46535  20.499  30.633  12.775
78318W        W46536   2.846  39.018   0.926
78319W        W46537  21.101   9.828   1.155
78320W        W46538  18.652  10.748   0.638
78321W        W46539  22.185  12.613   0.227
78322W        W46540  33.071  36.440  11.153
78323W        W46541  41.578  25.173   3.332
78324W        W46542  24.751  10.370   4.061
78325W        W46543   0.949  14.467  13.923
78326W        W46544   9.666  34.578   1.186
78327W        W46545   6.445  28.936  12.084
78328W        W46546  14.265  27.891  14.081
78329W        W46547  15.612  10.981   2.269
78330W        W46548   0.914  32.588  13.117
78331W        W46549  31.555  38.372  14.511
78332W        W46550  29.788  28.201  10.333
78333W        W46551  13.521  17.008  13.000
78334W        W46552  28.647  17.847   4.195
78335W        W46553  42.532  20.806   0.630
78336W        W46554  31.983  10.960  12.597
78337W        W46555  19.099  41.703  14.282
78338W        W46556  44.321  36.553  13.408
78339W        W46557  38.481   5.011  10.215
78340W        W46558  20.719  40.516   3.151
78341W        W46559  44.448  43.688   1.262
78342W        W46560  16.037  36.425  10.684
78343W        W46561  10.275  31.458   5.082
78344W        W46562  18.144  12.644   3.228
78345W        W46563  16.729  29.871  11.609
78346W        W46564  38.810  44.796  11.933
78347W        W46565  41.400   0.791  12.997
78348W        W46566  20.752  40.960  10.741
78349W        W46567  20.139  44.171  13.887
78350W        W46568  28.688  34.775  12.944
78351W        W46569  35.108  27.925  13.513
78352W        W46570  31.506  16.705  12.403
78353W        W46571  27.194  18.981  14.022
78354W        W46572  44.122  30.441   3.720
78355W        W46573  33.382  18.289  13.454
78356W        W46574  44.492  13.353   0.401
78357W        W46575  30.456  28.747  13.137
78358W        W46576   6.352  14.587  12.960
78359W        W46577  43.050  12.627   2.373
78360W        W46578  21.024  34.030   0.713
78361W        W46579  28.679  20.700  12.585
78362W        W46580  38.583  27.362   2.891
78363W        W46581  11.265  38.228   2.787
78364W        W46582  44.237  20.466   3.732
78365W        W46583  16.271  36.872  14.394
78366W        W46584  30.287  17.952  14.501
78367W        W46585  13.314  10.355   1.076
78368W        W46586   3.297  21.279   5.263
78369W        W46587  31.020  23.512  12.586
78370W        W46588   9.546  22.674  12.195
78371W        W46589  23.887   2.048  13.142
78372W        W46590  43.996  21.076  14.755
78373W        W46591  44.292  43.375  11.878
78374W        W46592  12.833  19.645   4.148
78375W        W46593  13.169  32.355  11.955
78376W        W46594  21.243  31.691  14.477
78377W        W46595  28.423   1.197  13.857
78378W        W46596  42.088  10.671   1.078
78379W        W46597  40.845  15.049   2.816
78380W        W46598  20.603  28.217   3.349
78381W        W46599   1.925  26.575  11.483
78382W        W46600  25.285   0.356   0.395
78383W        W46601  38.498   1.780   1.947
78384W        W46602  12.894  36.906   3.146
78385W        W46603  13.395  25.320   0.347
78386W        W46604  33.813  14.706   0.148
78387W        W46605  35.507   2.316  11.985
78388W        W46606  11.200  12.347  11.643
78389W        W46607  33.257  19.511  10.717
78390W        W46608   3.955  42.105  12.429
78391W        W46609  11.072  25.148  12.022
78392W        W46610  16.626  12.915  11.119
78393W        W46611  13.301  42.812  14.881
78394W        W46612  15.857  11.314  10.046
78395W        W46613   1.303  13.815   0.618
78396W        W46614   8.081  28.924   1.665
78397W        W46615   5.882  20.734   2.773
78398W        W46616   9.051  27.184   4.651
78399W        W46617  27.288   7.635  10.740
78400W        W46618  20.127  19.060  13.159
78401W        W46619  43.503   5.922   4.583
78402W        W46620  44.927   6.726   0.403
78403W        W46621  16.830  44.971   5.283
78404W        W46622   4.375  39.797  12.152
78405W        W46623  22.300  14.256   0.288
78406W        W46624  37.730  18.548   1.509
78407W        W46625  33.698  42.644   4.630
78408W        W46626  12.908  18.830   2.837
78409W        W46627  38.524  38.801   1.980
78410W        W46628   5.088  33.055   4.044
78411W        W46629   6.564  34.600  10.757
78412W        W46630  13.842   5.253   2.253
78413W        W46631  16.185  40.595   3.201
78414W        W46632  32.151  41.815   3.767
78415W        W46633   6.213  17.653   3.337
78416W        W46634  38.503   0.739   0.679
78417W        W46635  27.213   1.446  12.243
78418W        W46636  16.278  14.141   1.950
78419W        W46637  35.071  24.896   0.228
78420W        W46638  25.735  11.352   2.794
78421W        W46639  25.519  17.119   1.797
78422W        W46640  37.986  18.029   3.660
78423W        W46641  20.217  25.754   0.874
78424W        W46642   8.215   6.873   0.607
78425W        W46643  23.474   8.274   3.660
78426W        W46644   5.150  23.321   4.248
78427W        W46645  12.314  40.084  10.650
78428W        W46646  17.258   8.627   1.345
78429W        W46647   9.574  42.042  14.755
78430W        W46648  16.769   4.236   0.799
78431W        W46649   3.292   9.284   2.194
78432W        W46650   9.900  16.558  14.181
78433W        W46651  32.820  39.825  10.617
78434W        W46652   1.987  12.875   0.902
78435W        W46653  29.294  15.866  11.969
78436W        W46654  11.874  20.166   2.704
78437W        W46655  25.981  38.331   0.291
78438W        W46656  30.035   2.041  14.546
78439W        W46657  19.983  25.061  11.208
78440W        W46658  26.581  11.081   4.615
78441W        W46659  30.708  37.468  11.690
78442W        W46660   7.908   2.039   2.393
78443W        W46661  42.388   1.464   0.871
78444W        W46662   2.987  35.530  11.586
78445W        W46663  38.374  24.251  11.378
78446W        W46664   3.478  44.444  14.125
78447W        W46665  44.565  28.997   3.401
78448W        W46666  38.327  23.184  11.883
78449W        W46667  37.852  41.409  12.087
78450W        W46668   5.874  26.669   3.173
78451W        W46669  30.406  39.519   3.244
78452W        W46670   2.022  13.332   2.900
78453W        W46671   9.447  17.345   2.360
78454W        W46672   3.102   5.450  14.980
78455W        W46673  16.699  36.584  14.351
78456W        W46674   0.838  36.802   0.264
78457W        W46675  32.823  20.305   0.209
78458W        W46676   0.149  33.501   0.712
78459W        W46677   1.108  39.933   3.745
78460W        W46678  16.253  15.089  14.259
78461W        W46679   7.181  21.590  11.929
78462W        W46680  31.675  17.726  12.848
78463W        W46681   9.867  21.317  14.913
78464W        W46682  26.585  30.154  14.923
78465W        W46683  18.738  27.953   3.375
78466W        W46684  37.799  10.821  12.170
78467W        W46685  43.293  12.568  11.874
78468W        W46686   4.634  24.647   3.864
78469W        W46687  21.725  19.665  13.075
78470W        W46688   8.933  31.634   4.613
78471W        W46689  26.138  17.346  14.436
78472W        W46690   6.823  20.248  13.316
78473W        W46691  15.840   3.177  11.705
78474W        W46692  20.244  21.790  12.020
78475W        W46693   4.860  19.770   4.589
78476W        W46694  11.917  41.256  12.534
78477W        W46695  33.131  40.773   0.871
78478W        W46696  43.918   6.784   3.206
78479W        W46697   4.190  14.531  10.709
78480W        W46698  25.613  13.369  10.795
78481W        W46699   9.710  43.557  11.952
78482W        W46700  15.685  31.448  14.934
78483W        W46701  11.720  22.441   0.425
78484W        W46702  43.807   6.983   3.660
78485W        W46703  28.914  12.731  13.197
78486W        W46704   1.314  10.919   2.398
78487W        W46705   6.389  25.478  14.909
78488W        W46706  16.300  16.542  10.686
78489W        W46707  21.305  44.454  12.986
78490W        W46708   6.200  42.026  13.748
78491W        W46709  13.200   8.365  12.441
78492W        W46710  12.826  23.228  14.040
78493W        W46711  28.306  18.992   3.449
78494W        W46712  27.004  25.084  11.089
78495W        W46713  25.089  42.554   5.034
78496W        W46714  37.367   7.950   1.364
78497W        W46715  20.268   0.821  12.489
78498W        W46716  44.883  37.554   2.924
78499W        W46717  23.174  39.986   4.520
78500W        W46718  44.443   2.990  10.710
78501W        W46719  18.187  36.726  14.447
78502W        W46720  13.917  31.409   0.569
78503W        W46721  14.947  23.746  14.940
78504W        W46722  14.813   3.041   4.981
78505W        W46723   4.296  29.109   4.803
78506W        W46724  42.546   6.462   1.925
78507W        W46725   2.742  39.436  11.978
78508W        W46726  20.207  16.732   9.887
78509W        W46727  25.514   6.463   3.432
78510W        W46728  12.743  43.343  12.087
78511W        W46729  40.904   3.652  11.944
78512W        W46730  18.420  17.617   3.906
78513W        W46731  15.077   7.026  12.507
78514W        W46732  26.246  20.751   1.751
78515W        W46733  39.967  36.855   4.831
78516W        W46734  44.893  32.389   3.728
78517W        W46735  31.981  26.501  12.583
78518W        W46736  29.647  24.534  11.213
78519W        W46737  31.210   9.423  11.835
78520W        W46738  24.414  12.529  11.137
78521W        W46739  16.228  28.049  11.677
78522W        W46740  41.895  41.028   1.481
78523W        W46741  10.231  37.126   4.050
78524W        W46742   6.626  10.375  12.959
78525W        W46743  26.686  20.478   1.923
78526W        W46744  26.621  30.818   0.570
78527W        W46745  42.391  22.690   3.241
78528W        W46746  16.425  32.480  12.311
78529W        W46747   0.835  41.197  13.446
78530W        W46748   4.031  25.094   4.528
78531W        W46749   2.328  15.365   4.858
78532W        W46750  21.082  36.386  14.842
78533W        W46751   9.879  17.273   3.334
78534W        W46752   1.454  28.414  14.267
78535W        W46753   7.765  26.614   4.534
78536W        W46754  32.374  15.778  12.912
78537W        W46755  40.400   5.651   2.161
78538W        W46756  13.860   9.810   2.015
78539W        W46757  37.301  19.221   4.153
78540W        W46758  30.677   4.503   2.793
78541W        W46759   3.368  37.159  11.111
78542W        W46760  23.444   5.376  12.564
78543W        W46761  44.561  30.326   0.110
78544W        W46762   2.028  15.504   0.234
78545W        W46763  31.634  30.694  13.811
78546W        W46764  30.921  21.541   3.629
78547W        W46765  18.984  20.026   3.686
78548W        W46766  20.132  22.104  12.410
78549W        W46767  39.480  11.244  10.456
78550W        W46768  40.430  28.994   1.764
78551W        W46769  25.690  19.132   1.970
78552W        W46770  44.607  43.124   4.559
78553W        W46771  26.754   9.768  11.134
78554W        W46772   9.712   8.317  11.458
78555W        W46773  32.087  21.201  10.654
78556W        W46774   2.147  38.961  11.191
78557W        W46775  14.768  33.630   0.232
78558W        W46776  12.160   9.239  11.699
78559W        W46777  16.319  11.683  12.839
78560W        W46778  16.800  44.274  10.391
78561W        W46779  17.547  24.183  13.766
78562W        W46780  22.929  19.542  14.198
78563W        W46781  11.765  21.674  11.659
78564W        W46782  26.787   0.979   4.656
78565W        W46783  41.046  31.298   3.293
78566W        W46784  37.406  16.854   4.573
78567W        W46785   4.927  37.228   2.421
78568W        W46786  23.675  38.138   2.289
78569W        W46787  11.729  40.079  14.941
78570W        W46788   2.023  33.761  10.493
78571W        W46789  29.023  33.707   4.559
78572W        W46790  33.797  30.580  11.992
78573W        W46791  13.516  23.881   2.115
78574W        W46792  44.935   8.636   0.886
78575W        W46793  26.134  20.695   4.583
78576W        W46794  42.095   2.080   1.037
78577W        W46795  22.321  19.855  14.732
78578W        W46796  18.662  31.879   2.163
78579W        W46797   2.386  15.945   3.787
78580W        W46798  14.624   5.950  10.279
78581W        W46799  23.593   0.151   3.319
78582W        W46800  43.546  16.877   0.258
78583W        W46801  38.184   4.158   4.963
78584W        W46802  36.346  28.980   2.328
78585W        W46803  39.883  26.692  13.055
78586W        W46804   6.673  15.864  10.251
78587W        W46805  40.074  10.920  13.545
78588W        W46806  27.299  11.453  14.955
78589W        W46807   3.213  40.460   3.573
78590W        W46808   6.737  27.026   2.183
78591W        W46809  28.129  38.778  11.970
78592W        W46810   0.402  16.263   3.753
78593W        W46811  17.665  29.562   2.402
78594W        W46812  20.888   7.197   3.558
78595W        W46813  26.513  31.320   0.719
78596W        W46814  15.023   0.842  12.873
78597W        W46815  29.387  44.525   0.879
78598W        W46816   2.345  10.108   1.440
78599W        W46817  34.938  39.397   4.925
78600W        W46818  40.103   6.693   4.370
78601W        W46819  23.986  14.281   3.231
78602W        W46820  39.423  20.298  11.431
78603W        W46821  37.309  21.350   4.508
78604W        W46822   7.192  41.963  13.230
78605W        W46823   0.579   5.947  11.124
78606W        W46824  23.983   9.884  14.608
78607W        W46825  41.466  10.227   0.601
78608W        W46826  17.117   1.346  13.497
78609W        W46827   0.800  39.434  14.764
78610W        W46828  43.149  30.179  12.057
78611W        W46829  13.899  22.488   0.446
78612W        W46830  26.669  19.237  10.440
78613W        W46831  20.183  29.180   0.987
78614W        W46832  43.477  13.646  12.067
78615W        W46833   0.379  34.405  10.725
78616W        W46834   4.308  14.866   3.274
78617W        W46835  35.988  14.218   2.164
78618W        W46836  14.842  37.103  13.936
78619W        W46837  21.263   1.698   2.341
78620W        W46838   8.400  26.240  14.932
78621W        W46839  18.144  18.332  12.840
78622W        W46840   8.626  39.542  11.053
78623W        W46841   5.176  33.963   0.999
78624W        W46842  16.725   1.703  12.403
78625W        W46843  42.935   8.775  14.396
78626W        W46844  29.212  23.104   3.072
78627W        W46845  34.984  30.488  10.141
78628W        W46846  15.201   8.566   1.350
78629W        W46847  42.356  24.118  12.636
78630W        W46848  40.365  18.064   1.007
78631W        W46849  23.834   4.728   4.097
78632W        W46850  41.594   1.451  13.820
78633W        W46851   2.133  16.745   4.557
78634W        W46852  16.713  25.168  13.753
78635W        W46853  41.013  37.853   3.201
78636W        W46854  41.676   2.504   2.184
78637W        W46855  28.413  18.081   1.616
78638W        W46856   6.895  26.896   2.679
78639W        W46857  20.194  41.838  14.449
78640W        W46858   9.213  14.767  10.663
78641W        W46859  23.715  11.343  13.822
78642W        W46860   0.231  21.649  13.039
78643W        W46861  10.799   0.942   1.192
78644W        W46862  31.176  36.323   2.857
78645W        W46863  30.072  35.726   1.625
78646W        W46864   2.416  24.202  10.701
78647W        W46865   2.036  16.031   2.178
78648W        W46866  11.471  12.799  12.931
78649W        W46867  32.433   4.625  11.615
78650W        W46868  22.423  25.285   1.901
78651W        W46869   1.191   7.808  11.138
78652W        W46870  30.592  29.730   1.295
78653W        W46871  23.128  40.622   2.796
78654W        W46872  40.456  42.838  12.802
78655W        W46873  30.738   3.008  14.818
78656W        W46874   2.276  19.226  13.298
78657W        W46875  23.142   7.136   2.102
78658W        W46876  28.165  29.666   4.149
78659W        W46877  16.565  14.750   1.805
78660W        W46878  27.087  32.097  11.036
78661W        W46879  22.242  15.778   2.257
78662W        W46880  22.250  26.197  12.010
78663W        W46881   1.205  39.052   0.877
78664W        W46882   5.468  16.611  10.212
78665W        W46883  44.281  41.605  14.755
78666W        W46884  16.028  27.191   1.015
78667W        W46885   1.343  13.626   1.690
78668W        W46886  42.357  20.561  11.175
78669W        W46887  40.437   1.305   0.923
78670W        W46888  42.954  26.627  13.852
78671W        W46889  41.100  17.539  14.051
78672W        W46890  36.757  13.708   0.378
78673W        W46891  34.029  43.919  11.956
78674W        W46892  22.481  14.100  14.364
78675W        W46893  25.495  20.457  11.832
78676W        W46894  31.832   9.216   0.139
78677W        W46895  25.324  23.034   2.353
78678W        W46896  20.021  20.710   3.145
78679W        W46897   5.031  20.032  14.365
78680W        W46898  15.578  16.656  11.533
78681W        W46899  31.013  29.631   3.836
78682W        W46900   5.112   0.978   1.992
78683W        W46901   0.668   8.402   1.703
78684W        W46902  25.544  17.741  10.723
78685W        W46903  31.056   8.703  11.272
78686W        W46904  17.362   4.679  13.551
78687W        W46905  11.719  31.634   1.957
78688W        W46906  31.201   4.911   0.279
78689W        W46907  24.904  39.240  13.981
78690W        W46908  33.647  31.134   2.754
78691W        W46909  20.038  19.250  14.381
78692W        W46910  15.104  40.639  13.779
78693W        W46911  35.998  28.224   0.016
78694W        W46912  34.517   4.085   1.358
78695W        W46913  28.887   7.785   1.806
78696W        W46914  10.588   0.258   4.355
78697W        W46915  34.587  14.227  12.631
78698W        W46916  25.076   8.756  11.987
78699W        W46917  43.394  43.233  10.642
78700W        W46918  27.603  29.744   0.307
78701W        W46919  30.010  28.557  13.318
78702W        W46920   8.882  14.797  13.278
78703W        W46921   3.449  34.997   2.234
78704W        W46922  25.923   4.177  12.088
78705W        W46923  42.976  14.414  14.594
78706W        W46924   0.935  44.322  11.206
78707W        W46925  32.664  27.131   3.105
78708W        W46926  21.730  22.477   2.266
78709W        W46927  19.697  27.275   1.345
78710W        W46928  18.268  30.521  14.006
78711W        W46929   8.683  15.307   5.376
78712W        W46930  30.451  37.999  10.955
78713W        W46931  19.816  27.700  13.923
78714W        W46932   6.454  24.601  10.642
78715W        W46933  20.985  33.602  11.638
78716W        W46934  31.589  21.234  13.383
78717W        W46935  30.374  37.116   1.739
78718W        W46936  36.033  28.206   1.818
78719W        W46937  35.787  34.889   2.242
78720W        W46938   6.463  36.066   0.517
78721W        W46939  13.684  29.008   2.658
78722W        W46940   1.501  19.141  11.164
78723W        W46941  13.886  28.122   2.085
78724W        W46942   1.684   1.962   3.679
78725W        W46943  24.990  20.984   2.186
78726W        W46944   7.286  34.059  12.837
78727W        W46945  35.832  21.733   1.309
78728W        W46946  22.212  22.034  11.673
78729W        W46947   2.946   4.959  14.964
78730W        W46948  37.182   7.255   1.806
78731W        W46949  19.794  19.315   1.365
78732W        W46950  26.916  41.122   2.620
78733W        W46951  28.980   4.721   0.346
78734W        W46952  22.501  33.098  11.648
78735W        W46953  26.026  23.944   0.411
78736W        W46954  15.469   7.840   1.742
78737W        W46955   7.474  44.869  14.845
78738W        W46956  20.887  14.478   9.830
78739W        W46957  11.792  33.587   3.242
78740W        W46958  42.332  35.467  13.507
78741W        W46959  23.810   2.246   1.407
78742W        W46960  24.017  27.191  12.384
78743W        W46961   7.214   1.625  13.902
78744W        W46962   2.039  28.593   2.853
78745W        W46963   8.277   9.749   3.785
78746W        W46964  15.612  19.567   4.463
78747W        W46965   4.709   2.436  10.981
78748W        W46966  41.788  13.167   2.066
78749W        W46967  23.561  35.720  12.555
78750W        W46968  23.559  39.933   3.893
78751W        W46969  18.560  13.533   0.704
78752W        W46970  31.428  21.637   0.742
78753W        W46971  21.814   9.433   1.033
78754W        W46972  24.172  13.216   2.977
78755W        W46973  16.259  38.396   2.806
78756W        W46974  19.875  35.897   3.284
78757W        W46975  19.042   2.445  13.832
78758W        W46976  14.783   8.174   3.509
78759W        W46977  39.816  35.691  12.707
78760W        W46978  40.770   2.421  13.188
78761W        W46979  35.783  35.382  14.530
78762W        W46980  18.168  24.571   1.171
78763W        W46981  17.314  14.957   4.071
78764W        W46982  42.380  12.306   0.930
78765W        W46983  16.126  34.950   3.194
78766W        W46984  22.152  41.233   3.708
78767W        W46985  26.989  37.482  13.675
78768W        W46986  44.328  25.661  12.564
78769W        W46987   8.280  23.240  13.074
78770W        W46988  13.257  22.672   1.221
78771W        W46989  10.247  13.370   3.036
78772W        W46990  23.292  28.402   4.371
78773W        W46991   6.310  40.857  13.324
78774W        W46992  44.986  35.958   1.266
78775W        W46993   7.677  23.706   2.397
78776W        W46994  25.919  35.100  13.459
78777W        W46995  24.940  36.736   4.642
78778W        W46996  33.047   5.919  13.913
78779W        W46997   1.751  43.742   0.690
78780W        W46998  24.820  41.334  13.516
78781W        W46999   1.439  27.647   1.171
78782W        W47000  14.749  38.149   3.854
78783W        W47001   2.668  17.884  13.398
78784W        W47002  19.620  39.483  13.968
78785W        W47003  14.168   4.625   5.125
78786W        W47004  18.551   5.090   0.463
78787W        W47005   2.743  28.969   0.391
78788W        W47006   5.906  33.019   1.237
78789W        W47007   3.796   7.680   2.633
78790W        W47008  13.874  28.426  13.458
78791W        W47009  37.421  14.139  10.684
78792W        W47010  18.030  43.853   0.763
78793W        W47011  41.015  16.399  10.670
78794W        W47012  39.352  27.567  14.371
78795W        W47013   1.156  38.168   0.310
78796W        W47014   1.513  36.849   1.415
78797W        W47015   6.249  14.725   3.755
78798W        W47016  26.960  14.065  10.711
78799W        W47017  15.507  38.846   1.683
78800W        W47018  30.550  36.480   3.708
78801W        W47019  44.688  34.894   3.259
78802W        W47020  14.792   6.196  13.785
78803W        W47021  29.848  38.952   0.146
78804W        W47022  44.386  16.593  10.685
78805W        W47023   8.292  17.245  13.551
78806W        W47024  40.490  21.049   3.692
78807W        W47025  29.144  35.253   4.762
78808W        W47026  33.881  24.515  14.792
78809W        W47027   5.153  23.705  12.862
78810W        W47028  17.808  11.202  13.470
78811W        W47029  40.922  35.354   4.662
78812W        W47030   3.828  25.620   3.370
78813W        W47031  21.763  16.531  13.445
78814W        W47032  29.853  43.654  13.909
78815W        W47033  14.081  42.977   1.767
78816W        W47034  22.789   4.300   2.189
78817W        W47035  18.223  18.160  14.777
78818W        W47036  21.772   0.266  13.997
78819W        W47037  34.643  26.100  12.051
78820W        W47038  42.424  27.367  14.490
78821W        W47039  44.438  24.625  14.860
78822W        W47040  44.057  19.446   4.636
78823W        W47041   2.283  43.916  11.683
78824W        W47042  20.590  25.151   0.925
78825W        W47043  43.473   7.319  12.373
78826W        W47044  23.039  25.877  11.502
78827W        W47045  11.319   0.997   4.448
78828W        W47046  39.599  20.126   0.812
78829W        W47047  33.547  21.734  12.508
78830W        W47048  19.241  37.293   1.430
78831W        W47049  24.270   9.087  11.647
78832W        W47050  10.379   4.131  14.704
78833W        W47051  11.335   4.180   2.181
78834W        W47052   6.217  16.222   1.265
78835W        W47053  33.512  33.930   0.180
78836W        W47054  18.294   9.386   3.250
78837W        W47055  13.780   3.494   3.814
78838W        W47056  36.403  33.578  12.782
78839W        W47057  12.607  25.035  14.746
78840W        W47058  30.878  43.876   2.587
78841W        W47059  26.443  14.326  10.678
78842W        W47060   7.393  41.780  14.140
78843W        W47061  40.432   5.916  12.009
78844W        W47062   7.577  33.315  13.626
78845W        W47063  42.084  14.656  11.722
78846W        W47064   0.798  15.446  10.738
78847W        W47065  15.447  31.050  12.520
78848W        W47066  27.803  18.836  11.688
78849W        W47067  40.018  13.426  10.868
78850W        W47068  31.301  18.575  13.876
78851W        W47069  24.928  24.074  12.757
78852W        W47070   9.804  38.381  10.467
78853W        W47071   7.729  22.269   1.845
78854W        W47072   2.974  25.227  14.791
78855W        W47073   5.676  18.664  14.252
78856W        W47074  35.894  27.703   0.009
78857W        W47075   8.627  11.754   1.359
78858W        W47076  29.526  31.541   2.840
78859W        W47077  20.967  11.677  12.477
78860W        W47078  24.194  15.716  10.656
78861W        W47079   2.565  25.894   2.850
78862W        W47080   6.126  12.077  12.031
78863W        W47081   4.883  30.938   0.394
78864W        W47082  32.748   4.888   1.628
78865W        W47083  22.752   7.391  13.072
78866W        W47084   5.901   5.405  10.667
78867W        W47085  35.944  21.497   3.746
78868W        W47086  43.531  24.444   1.911
78869W        W47087  17.977  38.476  13.066
78870W        W47088  31.128   3.910   0.976
78871W        W47089  25.047   9.320  13.037
78872W        W47090  37.573  44.074   1.546
78873W        W47091   8.464   2.413  14.018
78874W        W47092  14.337  15.571  10.167
78875W        W47093  10.567  16.766  10.807
78876W        W47094   4.734  28.837   4.729
78877W        W47095  17.923  32.036   1.932
78878W        W47096  32.509  24.365   1.734
78879W        W47097   3.761  10.780   2.214
78880W        W47098  35.408  21.117   5.038
78881W        W47099  11.063  20.314   4.248
78882W        W47100   2.531  36.255  11.364
78883W        W47101  23.516  22.073  11.949
78884W        W47102  11.297  42.212   4.489
78885W        W47103  42.498  26.856   0.374
78886W        W47104  20.489  40.034  14.796
78887W        W47105  42.812  37.373   0.215
78888W        W47106  32.614  40.067   3.194
78889W        W47107  14.755  13.431  14.456
78890W        W47108  11.908   5.399  12.042
78891W        W47109  17.269  43.881   1.739
78892W        W47110  22.525   5.201   2.399
78893W        W47111  30.550   6.369   3.476
78894W        W47112  32.579  31.115  11.099
78895W        W47113  17.925   9.892   4.175
78896W        W47114  37.548  36.831   4.402
78897W        W47115  17.078  26.087  10.492
78898W        W47116   4.487  28.062   2.902
78899W        W47117   1.694  22.020   4.093
78900W        W47118   4.969  22.745  13.542
78901W        W47119  32.923   8.430   2.234
78902W        W47120   7.166   6.001   0.256
78903W        W47121  15.621  13.661   3.145
78904W        W47122  20.347  30.981   1.301
78905W        W47123  41.908  27.467  13.795
78906W        W47124   3.203  15.242  11.555
78907W        W47125   8.136  15.801  12.490
78908W        W47126  37.459  24.193  12.071
78909W        W47127  15.809  26.098  10.252
78910W        W47128  12.371  43.440  13.323
78911W        W47129  37.479  43.583   1.628
78912W        W47130  28.828   1.639  10.082
78913W        W47131  27.462   8.538  13.854
78914W        W47132  31.673  26.171  12.252
78915W        W47133  10.494   2.176   4.680
78916W        W47134  17.363   5.232   0.280
78917W        W47135  11.210  36.080  11.616
78918W        W47136  21.879  36.746  12.923
78919W        W47137  20.204  15.694   1.672
78920W        W47138  21.165  31.931  12.966
78921W        W47139  17.488  31.932  10.919
78922W        W47140  42.020   2.535  11.720
78923W        W47141  40.036   7.455   4.945
78924W        W47142  24.628   3.451  12.038
78925W        W47143  30.122  41.544  11.968
78926W        W47144  44.793  23.101  12.023
78927W        W47145  41.984  27.390  12.478
78928W        W47146  42.791  33.456  13.163
78929W        W47147  13.040  43.730   4.899
78930W        W47148  38.396   0.540   2.709
78931W        W47149  42.886   7.728  11.179
78932W        W47150  43.267  13.818   3.761
78933W        W47151  42.768  29.421   4.248
78934W        W47152  18.630  44.351   1.265
78935W        W47153  32.165   8.309   2.730
78936W        W47154   1.026  17.993   1.886
78937W        W47155  16.656  26.061  10.810
78938W        W47156  39.512  24.468  13.843
78939W        W47157   6.624   1.310  14.353
78940W        W47158   4.725  36.941  13.859
78941W        W47159  34.584  24.816  13.415
78942W        W47160   8.992  41.831   3.267
78943W        W47161  16.280  23.274   2.515
78944W        W47162  20.579   9.335  11.511
78945W        W47163   4.234  33.872  13.397
78946W        W47164  26.882   4.522  11.136
78947W        W47165  10.241   4.375  11.171
78948W        W47166  41.530  11.542  12.919
78949W        W47167  42.734  23.770   1.679
78950W        W47168  32.612  30.836  14.878
78951W        W47169  44.545  33.101  11.454
78952W        W47170  39.490  18.743  11.565
78953W        W47171  29.404  37.896   4.855
78954W        W47172   3.750  33.641  13.034
78955W        W47173   3.251   6.712   1.323
78956W        W47174  29.569   9.241  12.447
78957W        W47175  29.896  10.174   2.724
78958W        W47176  39.654  20.575  13.982
78959W        W47177  14.503   3.245  10.026
78960W        W47178  19.020  35.374  11.625
78961W        W47179  16.287  41.628   0.337
78962W        W47180  36.157  21.245   4.179
78963W        W47181   4.135  37.832  11.034
78964W        W47182   3.065  42.323  10.505
78965W        W47183  19.722  10.929   1.932
78966W        W47184  17.575  32.434   2.672
78967W        W47185  33.753  30.101  12.956
78968W        W47186  14.162  36.867   3.715
78969W        W47187  35.612  18.789   3.261
78970W        W47188  20.298  36.070   4.889
78971W        W47189  26.333  33.109  13.671
78972W        W47190  42.164  25.902   0.502
78973W        W47191  32.471  42.893   1.107
78974W        W47192  33.148  30.575   4.928
78975W        W47193  13.597  14.778  13.805
78976W        W47194  28.369  20.612   0.969
78977W        W47195  14.515  32.997   2.509
78978W        W47196  16.710  43.012   4.085
78979W        W47197   3.969  39.333  11.876
78980W        W47198  36.353  36.334   1.041
78981W        W47199  21.701  20.173  13.076
78982W        W47200  11.248  28.327  12.508
78983W        W47201   4.199  12.343  10.469
78984W        W47202  27.437  19.752  11.461
78985W        W47203   2.667   0.803   3.579
78986W        W47204  19.972   8.843  11.212
78987W        W47205  33.681  39.537   2.137
78988W        W47206  20.152  42.995   0.720
78989W        W47207  11.646   7.521  10.426
78990W        W47208   3.859  15.645   2.530
78991W        W47209  37.783   8.133  12.427
78992W        W47210  20.193  10.762   2.160
78993W        W47211   6.579  34.999   2.267
78994W        W47212   6.095  33.833   0.130
78995W        W47213  38.443  21.307   2.478
78996W        W47214  27.085  40.858  12.588
78997W        W47215   6.495   8.249  10.741
78998W        W47216  43.757  12.286  12.589
78999W        W47217  36.953   3.249  13.271
79000W        W47218  16.535  12.111  12.979
79001W        W47219   8.262   5.159   1.271
79002W        W47220  39.269  13.153   1.402
79003W        W47221  10.291  24.811   3.439
79004W        W47222  29.495  21.807   3.571
79005W        W47223   2.572   7.684   2.722
79006W        W47224  25.653  34.665  13.498
79007W        W47225   3.689  20.105   1.358
79008W        W47226  40.051  34.320  10.692
79009W        W47227  11.275  37.652  10.652
79010W        W47228  13.792  29.878  13.495
79011W        W47229  21.743  27.991  13.824
79012W        W47230  13.286   8.424   0.291
79013W        W47231  30.199  22.524   4.280
79014W        W47232  19.635   0.247  10.581
79015W        W47233  32.936  30.632  13.345
79016W        W47234   6.236  10.364   3.713
79017W        W47235  13.837  41.329   1.711
79018W        W47236  44.542  17.161   4.505
79019W        W47237  37.166  38.200   0.465
79020W        W47238   3.576   8.436   4.188
79021W        W47239  19.857  10.408  12.740
79022W        W47240  35.148  10.164  14.587
79023W        W47241  33.737   2.546   0.626
79024W        W47242  23.573  39.014   1.352
79025W        W47243  42.780   5.132  11.097
79026W        W47244   4.827  12.955  14.989
79027W        W47245  22.656  20.365  10.190
79028W        W47246  22.174  34.892   1.385
79029W        W47247   8.440  36.473  10.763
79030W        W47248  13.085  32.133  10.698
79031W        W47249  20.793  29.361  11.112
79032W        W47250  30.659  30.534  13.403
79033W        W47251  38.929  33.867  12.780
79034W        W47252   8.960  21.594   0.407
79035W        W47253  34.651  44.909  12.912
79036W        W47254  41.630  14.814   1.945
79037W        W47255  11.875   3.656   0.847
79038W        W47256   1.376   8.212   3.698
79039W        W47257  39.032   3.319   1.698
79040W        W47258  12.544   7.328  11.592
79041W        W47259  10.926  34.068   4.587
79042W        W47260   9.760   3.966  12.369
79043W        W47261  11.416  31.989   1.317
79044W        W47262  36.207  25.744   0.224
79045W        W47263  31.664  41.301   3.276
79046W        W47264   7.864  33.877  11.124
79047W        W47265  41.805  12.808  12.640
79048W        W47266  27.802   7.363   4.132
79049W        W47267  16.465  35.130  13.444
79050W        W47268  19.624  13.288   0.308
79051W        W47269   1.386  44.902  14.323
79052W        W47270   9.374  26.392  14.897
79053W        W47271   2.024   6.610   2.240
79054W        W47272   4.352  15.763  11.093
79055W        W47273  29.692  13.702  14.813
79056W        W47274  26.407  13.125  13.970
79057W        W47275  14.597  32.718   4.102
79058W        W47276  31.440  20.152   1.477
79059W        W47277  31.657  31.879  14.910
79060W        W47278  13.834   2.706  14.847
79061W        W47279  43.061   2.933   3.778
79062W        W47280  36.352  39.947   0.514
79063W        W47281   9.351  11.674  10.716
79064W        W47282  14.620  43.313   1.338
79065W        W47283   5.507  18.906   0.078
79066W        W47284  32.935  21.516  13.119
79067W        W47285  17.813  13.193   0.948
79068W        W47286   0.844  40.839  13.869
79069W        W47287   5.666  37.295   1.310
79070W        W47288  33.714  15.850  10.659
79071W        W47289   4.696   7.157  14.321
79072W        W47290  34.689   3.188   1.324
79073W        W47291   9.483  23.847  12.903
79074W        W47292  20.624  32.102  10.001
79075W        W47293  36.241  20.159  14.063
79076W        W47294  39.712  28.909   3.363
79077W        W47295  22.303   5.897  10.765
79078W        W47296  36.859  27.617  11.486
79079W        W47297  18.348  37.407  11.534
79080W        W47298  24.935  20.240   4.554
79081W        W47299   9.838  35.919  13.591
79082W        W47300   2.369   4.655   2.162
79083W        W47301  17.419  16.622  10.277
79084W        W47302  30.424  14.606   2.152
79085W        W47303  23.204   6.715  12.002
79086W        W47304  25.591   7.386   1.155
79087W        W47305  44.812  43.728   0.393
79088W        W47306  34.532  19.929  12.007
79089W        W47307  16.240  17.820  14.006
79090W        W47308  35.846   9.430  13.624
79091W        W47309   4.876  23.689   1.817
79092W        W47310  18.973  32.635  14.740
79093W        W47311  23.086  16.921  14.284
79094W        W47312  11.938  14.602  11.187
79095W        W47313  18.141  31.634  14.451
79096W        W47314  25.553  31.562   1.480
79097W        W47315  39.925   2.330   1.688
79098W        W47316  27.781  34.642  11.572
79099W        W47317   9.182  30.841   4.681
79100W        W47318  14.784  27.193   0.339
79101W        W47319  42.454  19.393   4.040
79102W        W47320  40.072  19.782   1.423
79103W        W47321   6.542  30.197   3.308
79104W        W47322  18.970  32.142  10.719
79105W        W47323  29.713   4.518  12.808
79106W        W47324  40.006   3.759   1.221
79107W        W47325  23.199  42.399  11.028
79108W        W47326   6.165  35.058   0.411
79109W        W47327  19.033  38.800  14.835
79110W        W47328  40.590  37.301   5.027
79111W        W47329  28.993  29.033  13.674
79112W        W47330   7.032  22.487  11.852
79113W        W47331  37.954  29.245   0.347
79114W        W47332   1.862  13.575  14.443
79115W        W47333  25.434  38.018   1.443
79116W        W47334  43.342   4.600  13.440
79117W        W47335   1.890  18.318   4.074
79118W        W47336  13.783  28.414  14.901
79119W        W47337  15.375  22.584  10.748
79120W        W47338  18.085  42.119  14.352
79121W        W47339   2.526  13.775   4.702
79122W        W47340   0.542  18.564  11.690
79123W        W47341  30.939  22.546  10.093
79124W        W47342  19.986  23.266   3.599
79125W        W47343  12.499  25.524  13.882
79126W        W47344  36.468   5.812  11.394
79127W        W47345  33.779  43.989  10.806
79128W        W47346   1.258  14.816  14.418
79129W        W47347  23.788  10.071  10.721
79130W        W47348  16.241  11.710   3.032
79131W        W47349  19.415  41.027  10.654
79132W        W47350   8.131  40.513  14.246
79133W        W47351  31.944  19.590  13.095
79134W        W47352  22.167  40.356   4.146
79135W        W47353  26.904   2.339   1.808
79136W        W47354  18.781  13.185   4.236
79137W        W47355  20.131  26.215   4.119
79138W        W47356  23.993  41.295  10.834
79139W        W47357  28.242  33.589  14.846
79140W        W47358  15.531   4.191   3.381
79141W        W47359   2.672  15.003   2.482
79142W        W47360  15.261  11.791  13.806
79143W        W47361  43.567  40.423  10.634
79144W        W47362   0.370  11.294   0.434
79145W        W47363   6.055  34.554  10.646
79146W        W47364  40.996  33.650   1.837
79147W        W47365  35.556  27.185  13.900
79148W        W47366   3.138  32.399   3.570
79149W        W47367  16.249  24.890   3.651
79150W        W47368  30.619  16.990   2.025
79151W        W47369  38.915   0.713   2.963
79152W        W47370  30.122   5.066   4.904
79153W        W47371  14.726  28.568   3.169
79154W        W47372  15.400  38.647   0.802
79155W        W47373  15.304  27.246  12.243
79156W        W47374  13.789  32.938  14.863
79157W        W47375  13.654  40.895  12.598
79158W        W47376   6.097  38.290  11.578
79159W        W47377  15.805  42.036  14.535
79160W        W47378  19.712  16.640   2.285
79161W        W47379   0.340  16.645   4.121
79162W        W47380  11.832  41.752  12.460
79163W        W47381  44.736  32.574  14.430
79164W        W47382  40.921  20.161   0.404
79165W        W47383  38.116  34.697  11.135
79166W        W47384  22.958  12.746  11.159
79167W        W47385   5.834  15.569   0.230
79168W        W47386  13.852   7.670   0.367
79169W        W47387  19.816   5.658  12.810
79170W        W47388  37.877  43.347   4.740
79171W        W47389  43.742  34.580  11.582
79172W        W47390  11.812  18.293   4.224
79173W        W47391  13.451  36.095  13.404
79174W        W47392  27.075   1.967   2.869
79175W        W47393   2.427  21.155  11.680
79176W        W47394  34.348   5.957  13.296
79177W        W47395  16.791  41.497   0.411
79178W        W47396  14.631  42.537   3.810
79179W        W47397   9.920  43.457   0.465
79180W        W47398  30.596  34.702   1.239
79181W        W47399  20.193  18.082  14.373
79182W        W47400   1.910   7.269   1.889
79183W        W47401   9.147  10.747   3.548
79184W        W47402  27.611  41.843  11.975
79185W        W47403  13.239  11.784  14.979
79186W        W47404  29.147  37.296  12.902
79187W        W47405  31.559  30.625   1.647
79188W        W47406   2.405  39.035  10.761
79189W        W47407   8.302  10.804   1.456
79190W        W47408   4.412  21.908  11.724
79191W        W47409  24.605  12.265   3.739
79192W        W47410  16.015  42.585  10.792
79193W        W47411   8.106  21.114  13.347
79194W        W47412  21.628  14.694  14.893
79195W        W47413   7.889  32.908   3.282
79196W        W47414   7.210  10.097  10.967
79197W        W47415   2.783   6.546   1.547
79198W        W47416   7.899  35.686   4.208
79199W        W47417   6.970  38.749  11.240
79200W        W47418  19.521   5.909   3.646
79201W        W47419  38.489   4.505  14.331
79202W        W47420  18.086  42.634  14.336
79203W        W47421   4.746  10.542   2.604
79204W        W47422  37.331  36.490  11.430
79205W        W47423  12.515  42.992   1.045
79206W        W47424  34.494  16.460  14.778
79207W        W47425  30.115  40.330   0.873
79208W        W47426  10.899  44.766   2.788
79209W        W47427  34.823  14.819  11.106
79210W        W47428  15.232  18.761   1.919
79211W        W47429   3.530  35.748  12.165
79212W        W47430  31.353   7.266   4.954
79213W        W47431  29.394  35.289  11.114
79214W        W47432   9.130  31.924   0.418
79215W        W47433  25.257  28.176   0.175
79216W        W47434  18.672   4.911   4.816
79217W        W47435  26.710   9.879   2.319
79218W        W47436  18.292  27.533   4.442
79219W        W47437  39.485   9.403  12.063
79220W        W47438  18.353  44.842   1.040
79221W        W47439  21.955   2.392   0.021
79222W        W47440   0.970  10.920  11.995
79223W        W47441  13.837  16.315   4.081
79224W        W47442  26.112  42.002   2.960
79225W        W47443  38.367   7.409  12.886
79226W        W47444  29.569  37.299  13.888
79227W        W47445   3.654  13.735   2.142
79228W        W47446  12.502  12.913   1.610
79229W        W47447  25.959   7.037  12.352
79230W        W47448  22.285  32.878  12.087
79231W        W47449  20.653  11.325  11.666
79232W        W47450  44.909  36.231  12.550
79233W        W47451  12.589  19.315   1.085
79234W        W47452  27.469  20.157  12.609
79235W        W47453  25.164  27.476  13.954
79236W        W47454  35.600  44.010   0.217
79237W        W47455  19.828  20.717  10.957
79238W        W47456  39.766  19.274  12.457
79239W        W47457  13.821  30.620  12.157
79240W        W47458  44.860   7.755  10.730
79241W        W47459   4.628  33.925   3.398
79242W        W47460  32.132  15.329   4.489
79243W        W47461   2.198  33.247   1.183
79244W        W47462  41.094  15.802  12.467
79245W        W47463  13.189   0.982   0.891
79246W        W47464   8.962  28.934   3.146
79247W        W47465  27.267  32.675   1.871
79248W        W47466  21.982  27.446  11.588
79249W        W47467   9.921   9.536  10.927
79250W        W47468  34.404  10.404   3.782
79251W        W47469   6.747  14.279  11.880
79252W        W47470  21.956  29.132  14.415
79253W        W47471   0.813  21.626   0.302
79254W        W47472  24.499  24.926  13.116
79255W        W47473  43.608  42.546  11.025
79256W        W47474  36.457   5.554  14.258
79257W        W47475  23.518  11.381  12.842
79258W        W47476  39.696   5.070   2.696
79259W        W47477  16.850  14.667  12.519
79260W        W47478  12.174  28.802   0.588
79261W        W47479  26.480  13.934  13.457
79262W        W47480  43.307   7.837   1.758
79263W        W47481  19.714  16.593  14.275
79264W        W47482  44.078  22.536  12.374
79265W        W47483  41.042  27.604   2.395
79266W        W47484  42.938  28.282  11.074
79267W        W47485  42.842  39.944   1.791
79268W        W47486  35.038  17.177   4.094
79269W        W47487  42.833   4.702   1.320
79270W        W47488  27.011  42.134   2.736
79271W        W47489   3.921  30.530  10.576
79272W        W47490   0.397  30.938   3.784
79273W        W47491  16.126  13.327  12.456
79274W        W47492  10.168   3.473   3.634
79275W        W47493  34.826  35.495   1.799
79276W        W47494  28.061  30.559   0.215
79277W        W47495  27.154  40.817  13.873
79278W        W47496  37.813  42.726   4.215
79279W        W47497  15.646   4.214   0.794
79280W        W47498   9.969   6.948   1.318
79281W        W47499  25.716  29.955   3.967
79282W        W47500  31.901  21.667   0.952
79283W        W47501  22.511  28.352   3.777
79284W        W47502  38.308   7.966   1.522
79285W        W47503  38.356  26.044   1.074
79286W        W47504  25.064  26.646   1.138
79287W        W47505  21.695  34.124  13.966
79288W        W47506  20.044  14.805   4.417
79289W        W47507  40.086   9.155   1.305
79290W        W47508  39.303  10.216   3.204
79291W        W47509  22.323   6.651  12.052
79292W        W47510  25.282  37.487  10.341
79293W        W47511   1.754   5.652   2.579
79294W        W47512   2.761  41.748  13.368
79295W        W47513  20.267   8.769   4.397
79296W        W47514  36.975   2.039  14.114
79297W        W47515  19.221   4.241   3.129
79298W        W47516  23.515   7.654   1.912
79299W        W47517  13.227  43.854  14.507
79300W        W47518  12.142  21.802   4.029
79301W        W47519   5.832   9.107   1.416
79302W        W47520  16.856  33.221   1.372
79303W        W47521  33.744  35.448   4.105
79304W        W47522  19.999  41.449  14.996
79305W        W47523  10.366  32.942  14.313
79306W        W47524  30.936  34.343  11.388
79307W        W47525  15.725   4.291   2.693
79308W        W47526  37.295   8.889   1.243
79309W        W47527  18.108  20.011  10.732
79310W        W47528   4.471   3.242  10.508
79311W        W47529  36.448   3.935   0.797
79312W        W47530  28.063  34.311  12.456
79313W        W47531  36.258  23.249   4.228
79314W        W47532  18.233  39.924   5.071
79315W        W47533  23.978  10.907  13.435
79316W        W47534  13.229  24.027  10.847
79317W        W47535  21.133  16.960  11.079
79318W        W47536  20.597  30.147  10.683
79319W        W47537  10.673   6.139  10.303
79320W        W47538  37.814  22.566   3.028
79321W        W47539  17.275  21.552  13.344
79322W        W47540   6.796   9.168   2.946
79323W        W47541  30.731  37.379   4.777
79324W        W47542   0.586  39.992   1.279
79325W        W47543   0.727   9.261  11.963
79326W        W47544  19.961   8.341  14.310
79327W        W47545  22.650  19.980   2.583
79328W        W47546  33.349  31.430  14.511
79329W        W47547  30.072  38.928  12.746
79330W        W47548  20.660   6.893  12.670
79331W        W47549  42.389  10.427  13.292
79332W        W47550   6.227  17.808  12.435
79333W        W47551  25.175  43.293  12.850
79334W        W47552  25.984  41.675   2.558
79335W        W47553   0.029  25.969  14.290
79336W        W47554   2.654  22.739  11.189
79337W        W47555  38.509  25.987  11.715
79338W        W47556  20.032  35.363   0.884
79339W        W47557  23.589  32.005  10.884
79340W        W47558   3.032  26.427   2.278
79341W        W47559  41.503   5.963  12.981
79342W        W47560  39.054  25.914   1.424
79343W        W47561  40.507  15.194  11.746
79344W        W47562   5.496  11.155   3.201
79345W        W47563  32.061  28.610  12.047
79346W        W47564   0.595  33.026  10.642
79347W        W47565  38.734  39.786  13.421
79348W        W47566   9.854  44.374  11.627
79349W        W47567  11.629   3.010  14.902
79350W        W47568  43.770  22.161  10.211
79351W        W47569   6.085  39.260  14.566
79352W        W47570  38.839   1.538  14.310
79353W        W47571   4.844  24.768  14.274
79354W        W47572  25.326   7.578  11.072
79355W        W47573   1.430  10.408  13.875
79356W        W47574  13.244  27.459   0.894
79357W        W47575  23.173  15.813  11.562
79358W        W47576   8.178  33.598   4.488
79359W        W47577  28.467  32.084  12.199
79360W        W47578   6.906  12.673  12.131
79361W        W47579   9.220  41.015  10.887
79362W        W47580  13.634  28.971  12.624
79363W        W47581  17.858  20.421  13.179
79364W        W47582   2.818   2.262  10.522
79365W        W47583  38.350  19.745   1.950
79366W        W47584  33.695   0.831   0.306
79367W        W47585  16.696  23.713  11.895
79368W        W47586  10.095  44.964   4.611
79369W        W47587  26.470  24.593   1.493
79370W        W47588   6.937  43.387   0.614
79371W        W47589  37.584  14.436   4.234
79372W        W47590  33.669  24.262   0.211
79373W        W47591  21.247  44.296   3.295
79374W        W47592  15.228  27.117  11.771
79375W        W47593  16.217  17.352  13.771
79376W        W47594   5.406  31.900  14.956
79377W        W47595  21.859  14.539   1.614
79378W        W47596  13.046   9.179   3.409
79379W        W47597   5.851  23.705   3.746
79380W        W47598  40.617  40.036  13.919
79381W        W47599  10.651  13.130  13.808
79382W        W47600  42.807  12.774   3.337
79383W        W47601  29.576  34.964   4.608
79384W        W47602  39.954  32.203   1.692
79385W        W47603  40.601  23.711  14.877
79386W        W47604  34.423  11.943   3.521
79387W        W47605   1.254   5.461  11.483
79388W        W47606   7.369  12.878   0.403
79389W        W47607  25.516  16.841  11.576
79390W        W47608  29.214   0.697  11.796
79391W        W47609  10.881  22.958  14.079
79392W        W47610  15.086  16.825  14.810
79393W        W47611  29.802  26.746  11.863
79394W        W47612  11.845  44.277  10.972
79395W        W47613  39.055  27.617   2.760
79396W        W47614  28.645  13.933   4.652
79397W        W47615  32.488  31.704   1.972
79398W        W47616  23.685  38.959  12.370
79399W        W47617  23.627   5.415   2.401
79400W        W47618  11.833  14.016  10.515
79401W        W47619  42.922  31.457   1.947
79402W        W47620  20.560  15.744   0.419
79403W        W47621   0.826  31.601  14.558
79404W        W47622  28.655  11.050  10.599
79405W        W47623  29.651   2.367  13.873
79406W        W47624  29.545  33.591   0.865
79407W        W47625  36.403   7.406  11.614
79408W        W47626  29.930  14.257  10.274
79409W        W47627  23.729  44.016   4.063
79410W        W47628  11.668  15.001  12.754
79411W        W47629  39.818  18.707   2.274
79412W        W47630   0.721  33.201   2.899
79413W        W47631  38.802  28.479   1.332
79414W        W47632  18.610  42.196  11.871
79415W        W47633  23.809   7.490  14.429
79416W        W47634  29.561  44.272  12.112
79417W        W47635  42.970  12.068   2.702
79418W        W47636   5.864  29.502   3.650
79419W        W47637  34.528   1.122   2.555
79420W        W47638  19.172  19.593  13.860
79421W        W47639   8.767  23.258  13.346
79422W        W47640  37.421   4.998  12.037
79423W        W47641  27.130   2.390  12.006
79424W        W47642  13.223  18.889   1.189
79425W        W47643  42.310  41.000  14.460
79426W        W47644   5.328  43.672  12.463
79427W        W47645  22.684  21.509  13.433
79428W        W47646  36.875   5.094  12.408
79429W        W47647  35.783  23.604   3.256
79430W        W47648   2.083  42.802   0.925
79431W        W47649  20.142  20.080   1.759
79432W        W47650  33.596   1.218  14.800
79433W        W47651  10.446  34.973  12.107
79434W        W47652   3.147  34.868   4.079
79435W        W47653  19.350  37.587  11.468
79436W        W47654  37.788  12.280   0.431
79437W        W47655   1.701  17.990  12.906
79438W        W47656   7.473  24.438  12.968
79439W        W47657  41.212   3.690  14.715
79440W        W47658  30.185   3.787  12.214
79441W        W47659  36.793  43.671  13.284
79442W        W47660  10.691  33.227   0.879
79443W        W47661  39.562  13.079   4.561
79444W        W47662  34.512   9.927   1.862
79445W        W47663  40.940   1.160  12.001
79446W        W47664  12.765  13.214   0.841
79447W        W47665  12.555  41.127  11.394
79448W        W47666  30.033  43.992   3.121
79449W        W47667   3.888  28.581   0.507
79450W        W47668  32.857  17.637  14.888
79451W        W47669  21.093  37.634  10.252
79452W        W47670  31.426  32.363  10.995
79453W        W47671  21.234  15.130   4.575
79454W        W47672  29.468  13.159  11.601
79455W        W47673   5.255   8.757  11.213
79456W        W47674  11.928  23.286  11.009
79457W        W47675   8.191  14.098   5.330
79458W        W47676  34.045  31.831   2.349
79459W        W47677  12.400   2.675  11.104
79460W        W47678   4.493  26.810   0.984
79461W        W47679  13.194  34.416  12.950
79462W        W47680  19.062  17.787  10.805
79463W        W47681  12.865  19.958   2.357
79464W        W47682   9.626  26.006   3.425
79465W        W47683  40.094  37.258   3.678
79466W        W47684  13.665   0.087  11.683
79467W        W47685  36.822   5.822  11.840
79468W        W47686  29.934   9.558  13.805
79469W        W47687   3.888  14.116  13.155
79470W        W47688  15.677   8.269   0.858
79471W        W47689  27.645  44.795  10.751
79472W        W47690  19.874   0.533   1.817
79473W        W47691   8.247  37.896   2.221
79474W        W47692  27.857   3.724   2.959
79475W        W47693  35.060  42.563  12.357
79476W        W47694  27.637  11.721   2.317
79477W        W47695  28.095  25.026   3.698
79478W        W47696  43.526  41.707  12.868
79479W        W47697  16.276  43.832  13.476
79480W        W47698  33.443  11.233  11.876
79481W        W47699   1.657   3.344  12.201
79482W        W47700  13.363  35.149   4.078
79483W        W47701  31.795   7.628  13.197
79484W        W47702  40.078  29.492  12.745
79485W        W47703  33.608   7.282   3.604
79486W        W47704  30.592  15.570  11.972
79487W        W47705  33.382  27.085  14.313
79488W        W47706  31.340  13.779   3.628
79489W        W47707   3.604  16.883   1.986
79490W        W47708   1.816  28.648  14.544
79491W        W47709   0.286   3.731   0.515
79492W        W47710  42.694  34.614  14.079
79493W        W47711  34.465   8.242  14.006
79494W        W47712  15.322   6.073  14.863
79495W        W47713  31.868  18.180  12.706
79496W        W47714   8.527  42.732   4.704
79497W        W47715  27.000   0.961  14.721
79498W        W47716  40.631  29.082  11.648
79499W        W47717  37.340  33.457  12.457
79500W        W47718  21.862  26.870  14.155
79501W        W47719   5.347  29.175   4.220
79502W        W47720  42.948  43.622   0.161
79503W        W47721   0.309  38.074  12.068
79504W        W47722   1.707  11.344  10.943
79505W        W47723  32.964   2.277   4.258
79506W        W47724  25.530  12.944   0.008
79507W        W47725  20.336   8.670   0.055
79508W        W47726  41.716  13.695  14.653
79509W        W47727   8.587  29.474  14.814
79510W        W47728  23.796  12.213  13.208
79511W        W47729  11.222  10.381   2.075
79512W        W47730   0.742  32.002  11.559
79513W        W47731  12.920  41.239   4.177
79514W        W47732  28.123  32.984   4.234
79515W        W47733   5.460  19.537  12.500
79516W        W47734  37.261  18.080   0.968
79517W        W47735  13.411  15.541   0.858
79518W        W47736  25.782   5.255   2.224
79519W        W47737  36.552  40.312  11.638
79520W        W47738  21.769  15.181  14.780
79521W        W47739  25.977   3.201   1.907
79522W        W47740  30.623  35.996  12.859
79523W        W47741  23.143  41.477  12.100
79524W        W47742  19.384   3.478  11.179
79525W        W47743  15.868   1.302  10.933
79526W        W47744   2.669  21.193   1.286
79527W        W47745  30.856  10.174   0.858
79528W        W47746  32.425  22.179   0.513
79529W        W47747   9.025  30.370   1.517
79530W        W47748   8.153  16.793  14.438
79531W        W47749  12.415  18.658   2.699
79532W        W47750  29.332   9.149  11.991
79533W        W47751  20.175  43.712   1.932
79534W        W47752  13.786  12.380  13.102
79535W        W47753  11.840   6.444  12.887
79536W        W47754  23.387   6.822   0.715
79537W        W47755  16.728   6.843  11.228
79538W        W47756   1.947  39.090  12.054
79539W        W47757  32.051  24.988  12.463
79540W        W47758   1.977  35.210   1.384
79541W        W47759  39.829  27.781   4.103
79542W        W47760   4.810  11.573  14.602
79543W        W47761  21.603  13.053   2.738
79544W        W47762  28.672  35.797   1.329
79545W        W47763  19.886  41.244   1.812
79546W        W47764  27.838  12.638  10.108
79547W        W47765  35.670  44.371  12.474
79548W        W47766  30.313  20.222   2.408
79549W        W47767  31.340  12.538  14.706
79550W        W47768   8.466   3.949   4.695
79551W        W47769   8.884  22.788  13.512
79552W        W47770   3.224  44.112  12.101
79553W        W47771  21.030   1.881   3.535
79554W        W47772  42.347  21.610   4.601
79555W        W47773  32.202  26.964  10.719
79556W        W47774  12.745  42.342   3.383
79557W        W47775  44.477   8.645  10.648
79558W        W47776  40.410  33.684  13.515
79559W        W47777  27.552  42.513  14.330
79560W        W47778  18.648  41.432  14.382
79561W        W47779  16.143  24.938  14.356
79562W        W47780  15.606  27.155   0.743
79563W        W47781   1.100  35.756   4.089
79564W        W47782  24.979  38.494   3.692
79565W        W47783  19.127   1.724  14.757
79566W        W47784   5.720   0.938   0.826
79567W        W47785  36.520  22.481  13.963
79568W        W47786  32.918  25.705  14.788
79569W        W47787   5.477  42.463   2.796
79570W        W47788  43.299  24.670  14.788
79571W        W47789   8.917  22.154   1.453
79572W        W47790  16.141  42.937  14.736
79573W        W47791   9.530  34.375  12.278
79574W        W47792  16.132  28.239   1.437
79575W        W47793  13.349  39.596   1.817
79576W        W47794  15.797  32.423  14.387
79577W        W47795  39.466  13.597   0.069
79578W        W47796   0.788  24.634   4.202
79579W        W47797   8.372  20.822   1.282
79580W        W47798  32.429   2.270  10.417
79581W        W47799   5.155  12.897  14.053
79582W        W47800  41.692  17.652   0.675
79583W        W47801  17.781  31.576   0.673
79584W        W47802  43.222  39.942   1.354
79585W        W47803  24.156  34.136  14.620
79586W        W47804   8.465  29.569  13.551
79587W        W47805  39.623   9.718   4.449
79588W        W47806  30.182   2.719   3.244
79589W        W47807  11.686   6.682  11.033
79590W        W47808  25.375   3.484   4.705
79591W        W47809  35.397  22.966   4.498
79592W        W47810   0.942  35.405   1.458
79593W        W47811  38.058  16.352  14.770
79594W        W47812  24.534   3.833  14.999
79595W        W47813  10.187  35.776   4.900
79596W        W47814  38.286  24.709   2.803
79597W        W47815  13.159   5.544  11.238
79598W        W47816   6.103  14.902   4.484
79599W        W47817  20.098  31.461   1.353
79600W        W47818  43.797  42.821  14.838
79601W        W47819  26.995  13.775  13.432
79602W        W47820  34.380   3.124  13.827
79603W        W47821  35.516   3.211  14.713
79604W        W47822  13.275  27.655   0.398
79605W        W47823  14.402   3.650  11.539
79606W        W47824  38.886  35.609  11.535
79607W        W47825  14.781  37.734  12.328
79608W        W47826  26.983  31.446   0.992
79609W        W47827   3.305  41.381  14.780
79610W        W47828  43.107  34.706   0.543
79611W        W47829  16.536  36.307  14.883
79612W        W47830  16.287   6.430  11.915
79613W        W47831  38.516  39.822   1.848
79614W        W47832  25.506   8.365   2.356
79615W        W47833  39.324   7.981  11.997
79616W        W47834  25.344  41.481  14.343
79617W        W47835  18.476  24.053   3.302
79618W        W47836  13.032  27.256  13.333
79619W        W47837  29.757   8.241   2.733
79620W        W47838  43.483  13.033   3.582
79621W        W47839  34.785   6.612   0.966
79622W        W47840  18.172   7.860  13.779
79623W        W47841  12.116  19.568   1.755
79624W        W47842  35.863  42.669  14.481
79625W        W47843  39.955  20.654  11.214
79626W        W47844  16.489  35.765   2.139
79627W        W47845  31.057  39.355  12.822
79628W        W47846  15.895  32.409  12.354
79629W        W47847   5.945  32.467   1.229
79630W        W47848  22.561  42.927  14.709
79631W        W47849  41.314  41.853   4.111
79632W        W47850  34.540  29.598   3.813
79633W        W47851  28.964  43.445   4.557
79634W        W47852  39.610   5.505   4.196
79635W        W47853  12.248  22.237  13.247
79636W        W47854  13.587   6.460  11.579
79637W        W47855  23.069  40.119  14.494
79638W        W47856  28.025  32.220  11.931
79639W        W47857  34.578  42.012   2.753
79640W        W47858  38.489  19.729  14.970
79641W        W47859   8.435  40.306  11.559
79642W        W47860  35.341  21.711  12.361
79643W        W47861  43.317  41.928   1.381
79644W        W47862  12.686   9.632  12.563
79645W        W47863  16.579  42.514   4.155
79646W        W47864  34.126  41.780  13.620
79647W        W47865  39.864  11.396  13.415
79648W        W47866  14.238  22.645   3.175
79649W        W47867  27.690  37.962   1.233
79650W        W47868  17.129  24.953   3.684
79651W        W47869  19.088  33.840   1.804
79652W        W47870  39.273   0.912  13.635
79653W        W47871  37.081  41.408  14.827
79654W        W47872  18.946  29.994   1.762
79655W        W47873  11.409  33.942  11.130
79656W        W47874  20.291   9.265   4.220
79657W        W47875   5.257   4.778  13.799
79658W        W47876  22.175  33.511  12.516
79659W        W47877  41.794  31.395   2.824
79660W        W47878  14.712   8.598   3.168
79661W        W47879   7.909  30.934  13.395
79662W        W47880  18.339  41.951   4.179
79663W        W47881  30.865  40.971  13.971
79664W        W47882  19.244  17.699   4.598
79665W        W47883  24.082  36.439  10.915
79666W        W47884  12.312  30.042   1.548
79667W        W47885  25.613  17.308  10.336
79668W        W47886  26.909   9.935  14.698
79669W        W47887   1.689  31.265  13.796
79670W        W47888   2.825   4.171  12.413
79671W        W47889   8.160  36.095  11.699
79672W        W47890   0.523  29.573   3.624
79673W        W47891   9.888  14.680   3.331
79674W        W47892  13.060  37.173  14.457
79675W        W47893  37.635   5.149   2.250
79676W        W47894  28.979   2.111  11.959
79677W        W47895  43.265  44.245  13.405
79678W        W47896  24.805  10.916  13.979
79679W        W47897   8.716  31.249  14.397
79680W        W47898  17.067  27.138  13.904
79681W        W47899  26.919  14.588  11.477
79682W        W47900  27.223  25.354   1.035
79683W        W47901  39.803  43.737  12.016
79684W        W47902  39.810  11.645  11.587
79685W        W47903   8.408  32.682  11.572
79686W        W47904  23.747  34.701  12.484
79687W        W47905  37.320  30.551  11.352
79688W        W47906   9.169   8.347  11.422
79689W        W47907  44.010  34.927  14.880
79690W        W47908  23.079  11.728   3.217
79691W        W47909  30.687  35.309  12.448
79692W        W47910  22.654  27.416   0.665
79693W        W47911  32.139  18.542  12.455
79694W        W47912  43.467  19.332  13.468
79695W        W47913   9.750  27.726   2.292
79696W        W47914  14.364  10.322  14.793
79697W        W47915  23.752  20.166   1.859
79698W        W47916  40.511  18.996  14.300
79699W        W47917  15.668  15.881  13.671
79700W        W47918  42.054  22.245  13.944
79701W        W47919   7.296  23.772  13.634
79702W        W47920   5.652  35.942  11.485
79703W        W47921  37.731  43.898  11.182
79704W        W47922  26.056   9.551   2.245
79705W        W47923  31.084  25.096  14.018
79706W        W47924   0.326  20.057   2.321
79707W        W47925   7.484  16.575  11.267
79708W        W47926  38.237   7.784  11.170
79709W        W47927  26.111  37.560  13.482
79710W        W47928   7.294  18.586   1.870
79711W        W47929  27.243  12.732   3.409
79712W        W47930   3.935   1.933   0.266
79713W        W47931   1.810  38.551   4.756
79714W        W47932  23.978  16.634   2.592
79715W        W47933  15.666  41.482  12.364
79716W        W47934  12.342  30.622   0.537
79717W        W47935   8.199  41.389  11.234
79718W        W47936  25.443  33.189   3.658
79719W        W47937  41.436  44.188   0.453
79720W        W47938   2.724   4.827  12.387
79721W        W47939  30.478  24.421   3.405
79722W        W47940  20.249   7.375   1.909
79723W        W47941  30.554   1.796  13.436
79724W        W47942   7.400  36.461   4.652
79725W        W47943  35.003  18.223   2.041
79726W        W47944  14.854  36.920   0.397
79727W        W47945  26.536   2.395  10.618
79728W        W47946  33.959  30.989  12.632
79729W        W47947  39.509  17.297  14.865
79730W        W47948  42.284  42.850  14.974
79731W        W47949  40.087  16.316  14.027
79732W        W47950  11.102  44.280   1.408
79733W        W47951  31.997  41.514   2.588
79734W        W47952  15.285  33.109   2.752
79735W        W47953  38.856  35.241   4.790
79736W        W47954   4.253   1.204   1.314
79737W        W47955  40.529  43.221   2.111
79738W        W47956  16.455  32.140  13.918
79739W        W47957  25.560  35.388   1.726
79740W        W47958  34.463  13.254  14.336
79741W        W47959  26.104  13.235  12.574
79742W        W47960  18.737  37.807   0.809
79743W        W47961  44.010  27.311  11.887
79744W        W47962  30.263  39.510  13.702
79745W        W47963  23.561  12.744  11.904
79746W        W47964  36.924   6.761   4.131
79747W        W47965  17.428  20.427   4.560
79748W        W47966  17.087  23.070   1.948
79749W        W47967  13.276  44.270  11.241
79750W        W47968  25.153  26.735   3.741
79751W        W47969  39.356   8.419   1.804
79752W        W47970  42.102   8.693   3.848
79753W        W47971  20.960  14.307   4.124
79754W        W47972  25.901   1.214   4.181
79755W        W47973  10.786  38.865  11.667
79756W        W47974   9.851  17.107  12.190
79757W        W47975  34.580  10.445   1.807
79758W        W47976  32.365  18.131  13.547
79759W        W47977  42.879   6.916   1.148
79760W        W47978   3.968  36.500  14.791
79761W        W47979  14.191  20.732  14.449
79762W        W47980  42.882  20.970   1.720
79763W        W47981   6.007  29.042   4.760
79764W        W47982  33.967  42.412  12.903
79765W        W47983  31.767  10.167  13.477
79766W        W47984  34.517  23.105   4.781
79767W        W47985   7.237  36.404   2.271
79768W        W47986  18.878  34.642  11.090
79769W        W47987  30.996  24.681  13.712
79770W        W47988  38.777  38.056  12.382
79771W        W47989   3.007  17.251   0.278
79772W        W47990   0.804   1.008  13.315
79773W        W47991  12.649  29.536   4.221
79774W        W47992  18.788  41.553  11.236
79775W        W47993   9.728  26.097   2.220
79776W        W47994  40.666  23.198  11.152
79777W        W47995  27.602  40.780  14.896
79778W        W47996   5.039  23.597  13.927
79779W        W47997  35.078  15.288  14.914
79780W        W47998   2.639  11.058   2.614
79781W        W47999  31.557  36.133   4.900
79782W        W48000   4.548   9.759  14.780
79783W        W48001  36.557  34.650  13.910
79784W        W48002  30.358   1.862  10.620
79785W        W48003  19.063  25.234  11.660
79786W        W48004  34.828  28.263  11.178
79787W        W48005  11.983   5.829   0.456
79788W        W48006  12.295   3.418  14.371
79789W        W48007  34.437  32.762  12.510
79790W        W48008  13.590  11.915  10.315
79791W        W48009  40.636  31.833   0.856
79792W        W48010  34.126  44.917  12.948
79793W        W48011  36.261  19.312   4.179
79794W        W48012  28.963  36.127   1.609
79795W        W48013  39.140  10.479  10.624
79796W        W48014  31.463  18.122  10.990
79797W        W48015  38.832  41.125   2.689
79798W        W48016   6.642  28.113  10.976
79799W        W48017  17.351  40.223   1.869
79800W        W48018  31.401  26.253   1.771
79801W        W48019  43.377  35.643   4.986
79802W        W48020  16.566  20.272  13.417
79803W        W48021   8.226   5.914   1.017
79804W        W48022  14.228  31.384   4.740
79805W        W48023  40.273  32.595  13.888
79806W        W48024   7.612  36.621   3.176
79807W        W48025   6.726   2.955   3.233
79808W        W48026  41.499  31.422   4.120
79809W        W48027   6.701  33.161  13.083
79810W        W48028  36.599  38.783   1.891
79811W        W48029  36.474  11.591   4.603
79812W        W48030   7.413  32.103  13.024
79813W        W48031  28.692  18.862  10.958
79814W        W48032   5.547  17.722   4.603
79815W        W48033  43.229  43.567   1.895
79816W        W48034  30.429  40.739   0.800
79817W        W48035  28.084  10.798  14.850
79818W        W48036  23.170  36.065   2.876
79819W        W48037  26.295  39.141   1.176
79820W        W48038  22.770  19.903  13.384
79821W        W48039  11.095  44.246   3.426
79822W        W48040   9.364  11.187   4.316
79823W        W48041  19.486   9.746   0.883
79824W        W48042  22.016   5.431   2.370
79825W        W48043  38.090  30.619  14.287
79826W        W48044  31.779   1.150   2.710
79827W        W48045  38.157  33.369   3.255
79828W        W48046   8.942  26.142   2.681
79829W        W48047  35.592   6.893   2.264
79830W        W48048  44.308  17.707  11.429
79831W        W48049   2.773  32.957  13.461
79832W        W48050  29.429  18.683  10.341
79833W        W48051  19.355  17.573   3.479
79834W        W48052  44.810  35.828  13.623
79835W        W48053  39.906   9.910  13.320
79836W        W48054  41.655  35.414  12.167
79837W        W48055  13.284   3.795  13.352
79838W        W48056  38.428  10.932   3.780
79839W        W48057  18.658  40.783  11.638
79840W        W48058  33.839  19.538   1.673
79841W        W48059   2.439  34.488  14.074
79842W        W48060   9.445   4.211  11.576
79843W        W48061  29.845   5.797   2.305
79844W        W48062  32.185  44.315   3.714
79845W        W48063   6.840  39.771  11.018
79846W        W48064  18.201  24.745  13.438
79847W        W48065  15.426  35.617   2.512
79848W        W48066  26.087   1.835  11.474
79849W        W48067  26.465  30.594   1.928
79850W        W48068  44.220   7.078  14.312
79851W        W48069  32.818  41.854  12.442
79852W        W48070   0.460  12.028   3.683
79853W        W48071  34.531   0.359   1.307
79854W        W48072  25.768  10.257  10.684
79855W        W48073  21.062  23.932   0.767
79856W        W48074  11.305  36.586  12.925
79857W        W48075  29.895  39.524   3.223
79858W        W48076   9.921  17.860  12.931
79859W        W48077  35.413  35.309   0.950
79860W        W48078   0.622  44.257   0.250
79861W        W48079  12.862  21.220   1.864
79862W        W48080  18.586  22.507   0.537
79863W        W48081  42.490  43.210   4.477
79864W        W48082  42.828  44.346   3.106
79865W        W48083  43.529  17.259  12.401
79866W        W48084   4.797  15.621  12.162
79867W        W48085  39.206  13.088   2.260
79868W        W48086  40.536  28.818   1.259
79869W        W48087   8.104  40.027   4.185
79870W        W48088   4.239  43.058   3.981
79871W        W48089  39.343  37.289   1.570
79872W        W48090  39.843  30.075  11.986
79873W        W48091   4.652   5.747  13.198
79874W        W48092  18.062  21.239   1.472
79875W        W48093  40.734  37.605  14.460
79876W        W48094  33.668  24.200   1.172
79877W        W48095  15.783  25.499  14.794
79878W        W48096   2.906   6.129  10.968
79879W        W48097  30.554   6.329  12.842
79880W        W48098   5.335  22.158   0.223
79881W        W48099  14.416   0.956  10.793
79882W        W48100  39.392  32.321   2.733
79883W        W48101  24.252  16.338   2.898
79884W        W48102  34.408  19.811   4.387
79885W        W48103  23.563  41.499  12.429
79886W        W48104  29.012  17.397   5.044
79887W        W48105  16.210  28.612   4.589
79888W        W48106  19.063   6.664   2.206
79889W        W48107   6.509  32.246   2.754
79890W        W48108  32.539  11.752  11.702
79891W        W48109  37.030  27.108  11.939
79892W        W48110  44.063  37.098   2.411
79893W        W48111  30.687   0.388   1.769
79894W        W48112  43.759  25.683  11.995
79895W        W48113  30.657  40.226   1.160
79896W        W48114  11.153   8.767  13.082
79897W        W48115   0.294  37.599  13.519
79898W        W48116  44.280  35.341  14.794
79899W        W48117  14.651   8.196  14.838
79900W        W48118  33.083  23.730  13.527
79901W        W48119  10.670   8.125   2.652
79902W        W48120  27.144  23.246   4.116
79903W        W48121  11.038  33.896  12.054
79904W        W48122  15.752   6.251  11.968
79905W        W48123  18.860  31.615  12.003
79906W        W48124  15.257   6.253   2.912
79907W        W48125   9.646  35.609   1.326
79908W        W48126  33.149   9.752  10.741
79909W        W48127   0.288  26.021  12.558
79910W        W48128  35.177  17.744  13.269
79911W        W48129  12.750  20.688   1.865
79912W        W48130   3.514  35.904  13.375
79913W        W48131  20.101  24.698   4.687
79914W        W48132   0.669   2.704   1.474
79915W        W48133   4.250   1.167   4.032
79916W        W48134  37.632  22.984  11.028
79917W        W48135  36.391   1.034  14.454
79918W        W48136  32.959  11.593   1.438
79919W        W48137  41.824   6.201  13.974
79920W        W48138  41.868  42.244  11.699
79921W        W48139   1.930  23.332   0.743
79922W        W48140   2.493  15.262  14.298
79923W        W48141  20.963   7.670  13.518
79924W        W48142  44.103  33.489   0.914
79925W        W48143  20.042  18.610  12.915
79926W        W48144   7.924  38.337   2.803
79927W        W48145  18.101  15.684  11.159
79928W        W48146   0.917  34.674  12.606
79929W        W48147  40.529  26.422   1.821
79930W        W48148   9.669  18.664   3.715
79931W        W48149   9.273  42.421  11.901
79932W        W48150  30.125  26.270   2.813
79933W        W48151  16.642  42.386  14.246
79934W        W48152  25.503   5.667   3.268
79935W        W48153   5.729  40.921  11.034
79936W        W48154  10.238  22.542   4.621
79937W        W48155   3.312  18.133   3.595
79938W        W48156  36.165  26.422  12.453
79939W        W48157  36.979  23.770  12.926
79940W        W48158  10.604  17.131  13.697
79941W        W48159  40.062  25.673  13.104
79942W        W48160  18.928  38.948   3.121
79943W        W48161  38.543  25.894  10.700
79944W        W48162  43.888  27.400  12.528
79945W        W48163  16.645   6.028  13.454
79946W        W48164  14.706  26.022  11.625
79947W        W48165  38.106  17.086  11.149
79948W        W48166  34.935  42.974   4.637
79949W        W48167  21.320  16.788  14.948
79950W        W48168  18.478  12.586   4.918
79951W        W48169  43.229   7.670  15.000
79952W        W48170   6.512  44.077   5.107
79953W        W48171  25.568  35.590  14.045
79954W        W48172  26.597   4.751   1.492
79955W        W48173   6.238  38.938   2.385
79956W        W48174   3.764  13.040   4.816
79957W        W48175  37.495  10.728  14.313
79958W        W48176  35.839  32.143   0.494
79959W        W48177  10.921  19.740  12.979
79960W        W48178  33.859  34.926   4.739
79961W        W48179  12.874   0.373   1.879
79962W        W48180  29.513  12.911   0.384
79963W        W48181  12.605  29.947  11.541
79964W        W48182  21.289  29.086   2.879
79965W        W48183  41.967  28.028   2.480
79966W        W48184  43.908  18.628  13.592
79967W        W48185   9.851  13.214  12.085
79968W        W48186   4.597   5.478   0.391
79969W        W48187  12.800  32.044  12.160
79970W        W48188  30.563   7.411   1.902
79971W        W48189  26.160  24.147   1.329
79972W        W48190  42.513   2.414  11.603
79973W        W48191   9.382  35.008  12.967
79974W        W48192  15.748  22.225  12.113
79975W        W48193  42.590   1.417  12.968
79976W        W48194  35.613   2.452   2.759
79977W        W48195  20.456  18.203  14.888
79978W        W48196  17.524   4.774  11.714
79979W        W48197  13.670  36.863  12.878
79980W        W48198   6.732  34.018   1.839
79981W        W48199  27.544  40.063   3.330
79982W        W48200  13.578  22.739  11.940
79983W        W48201   4.714  12.338   2.761
79984W        W48202  43.465  19.519   4.120
79985W        W48203  44.202  28.939  12.955
79986W        W48204  42.987  34.490   3.504
79987W        W48205  25.623  22.623  11.851
79988W        W48206  10.633  41.972  13.488
79989W        W48207   0.256  23.287  12.309
79990W        W48208  19.614  26.055   4.875
79991W        W48209  33.991  39.897  11.199
79992W        W48210  11.230  29.858  13.841
79993W        W48211   4.505  34.464  14.473
79994W        W48212  12.331  18.376   1.449
79995W        W48213  15.737   2.308   3.791
79996W        W48214   3.771  39.268  10.572
79997W        W48215   0.794  16.895  12.551
79998W        W48216  37.189  15.043  11.927
79999W        W48217  41.214  27.085  13.358
80000W        W48218  26.657   0.743   0.365
80001W        W48219  26.162   5.754   0.902
80002W        W48220  40.967  14.574  11.131
80003W        W48221   8.455   8.969  13.429
80004W        W48222  11.304  13.823  12.042
80005W        W48223   3.278  20.608  11.568
80006W        W48224  14.684   5.477  11.663
80007W        W48225  38.511  35.839   0.630
80008W        W48226   5.394   6.610   1.887
80009W        W48227   7.038  40.536   3.780
80010W        W48228  28.924  29.271   0.901
80011W        W48229  43.363  30.906   2.810
80012W        W48230  21.793  34.420   2.251
80013W        W48231  35.161   8.010  12.336
80014W        W48232  37.889   3.009   1.300
80015W        W48233  22.402   1.723  13.613
80016W        W48234  27.930  40.980   3.266
80017W        W48235  44.523  16.644   0.432
80018W        W48236  14.773   9.902   4.136
80019W        W48237  39.824  36.778   3.810
80020W        W48238  38.290  20.653   0.743
80021W        W48239   5.370  26.773  11.006
80022W        W48240   1.221  19.243   3.559
80023W        W48241  13.729  12.922   0.408
80024W        W48242  16.721   8.931   3.120
80025W        W48243   8.355  42.744   3.558
80026W        W48244  44.216   9.353  13.336
80027W        W48245  27.348  13.402  10.249
80028W        W48246  33.198   9.690   4.759
80029W        W48247  15.143  20.515  12.022
80030W        W48248  15.650  25.962   3.197
80031W        W48249   0.045   7.087  11.243
80032W        W48250   7.715  32.742   0.391
80033W        W48251  18.303  14.168  11.212
80034W        W48252  37.543  13.863   4.959
80035W        W48253  17.391   5.186  13.586
80036W        W48254   1.775  40.907  11.658
80037W        W48255  38.143  11.870  14.712
80038W        W48256  30.535  27.748   0.830
80039W        W48257   5.779  29.319  11.523
80040W        W48258  12.759  31.040   1.240
80041W        W48259  35.966  13.291   3.334
80042W        W48260   8.340   1.763   1.038
80043W        W48261   3.923  30.545  13.079
80044W        W48262  41.195  32.079  10.142
80045W        W48263  32.159  37.562  11.266
80046W        W48264   5.843  10.771  14.007
80047W        W48265  38.135  18.472   1.888
80048W        W48266  12.320  29.147   2.492
80049W        W48267  29.670  35.647   3.640
80050W        W48268   2.734  37.361  14.079
80051W        W48269   8.236   8.901   4.111
80052W        W48270  13.764  30.225   4.075
80053W        W48271  20.696  13.551   3.653
80054W        W48272   2.317  12.682   2.272
80055W        W48273  13.866   0.369   1.564
80056W        W48274  20.563  35.430   2.769
80057W        W48275  18.070  11.275  11.666
80058W        W48276   8.258  34.860   4.999
80059W        W48277  40.377   8.860   0.784
80060W        W48278  44.938  25.158  11.935
80061W        W48279   9.735  10.818   4.272
80062W        W48280  21.559   4.515   1.964
80063W        W48281  37.935   0.742  12.051
80064W        W48282   5.828  20.088   4.619
80065W        W48283  41.335  28.186   0.401
80066W        W48284  28.644   2.486   3.821
80067W        W48285   6.327  36.041  11.158
80068W        W48286  41.863  44.299   0.705
80069W        W48287  44.594  18.084   4.778
80070W        W48288  14.829  33.507  13.856
80071W        W48289   3.251   6.811  11.913
80072W        W48290  22.967  29.917  12.972
80073W        W48291  28.904  32.683   2.823
80074W        W48292  30.006  18.202  13.063
80075W        W48293  32.886  26.242   1.906
80076W        W48294  38.735  22.485  13.398
80077W        W48295   0.431  28.299   1.793
80078W        W48296   9.528  11.602   4.580
80079W        W48297  10.523  16.277  10.961
80080W        W48298  10.719   4.115  13.725
80081W        W48299   4.834  20.348  11.966
80082W        W48300  31.917   0.009   4.717
80083W        W48301   1.408  28.479  11.117
80084W        W48302  25.979   2.081   2.965
80085W        W48303  14.241  33.072  14.499
80086W        W48304  27.933  34.391   3.630
80087W        W48305  38.025   0.499  13.991
80088W        W48306  41.253  17.155  14.368
80089W        W48307  13.697  20.513  11.568
80090W        W48308  40.923   5.452  11.483
80091W        W48309  14.738  29.180  14.233
80092W        W48310  14.686  18.523  13.859
80093W        W48311   0.525  12.089  10.434
80094W        W48312   1.215  39.126  14.893
80095W        W48313   4.624   0.166   0.361
80096W        W48314  29.722  14.416  12.002
80097W        W48315  35.205  15.784  14.262
80098W        W48316  16.002  32.351   0.759
80099W        W48317   3.855  22.624   0.255
80100W        W48318  42.601  16.659   2.776
80101W        W48319  44.044   7.913   2.133
80102W        W48320   4.655  32.583  14.065
80103W        W48321  23.840  35.973  13.755
80104W        W48322  24.609  23.873  11.118
80105W        W48323   5.989  19.705  12.547
80106W        W48324  19.727  15.852  11.974
80107W        W48325  42.925  28.774   3.575
80108W        W48326  30.436  20.660  11.413
80109W        W48327   1.755  23.720  11.639
80110W        W48328  21.552  22.157   0.305
80111W        W48329  27.785  37.647   9.799
80112W        W48330  13.637  28.158  12.211
80113W        W48331  19.272  11.019   3.425
80114W        W48332  43.001   0.788  14.097
80115W        W48333   7.833  44.659  14.442
80116W        W48334  11.821  25.097   0.459
80117W        W48335  28.393  13.277  13.550
80118W        W48336   7.898  18.545  10.344
80119W        W48337  23.528  27.806  11.324
80120W        W48338  11.032  39.056  10.380
80121W        W48339  23.543  25.461  12.370
80122W        W48340   8.876  15.150  14.660
80123W        W48341  43.520  24.250   3.206
80124W        W48342  32.614  34.025  12.593
80125W        W48343   0.901  41.821   0.258
80126W        W48344  15.303  10.647   4.047
80127W        W48345  24.508  38.390   1.669
80128W        W48346   7.027  38.777   1.161
80129W        W48347  43.691  40.085   4.050
80130W        W48348  16.550  34.092  13.490
80131W        W48349  16.324  33.209  10.408
80132W        W48350   2.294  37.281  12.412
80133W        W48351  29.437  33.533  10.749
80134W        W48352   7.023   9.821   0.772
80135W        W48353  13.074   3.231   4.576
80136W        W48354  24.648   2.884  11.010
80137W        W48355  41.364  34.428  12.698
80138W        W48356  20.308  33.459   5.572
80139W        W48357  10.877  13.774   1.385
80140W        W48358  38.526  32.447  11.333
80141W        W48359  11.709   5.173  11.205
80142W        W48360  11.763  37.495  10.508
80143W        W48361   6.155   0.315  10.964
80144W        W48362  40.009  44.311  14.216
80145W        W48363  29.699   1.322  13.173
80146W        W48364  41.842  17.857   3.912
80147W        W48365   9.694  34.047  11.407
80148W        W48366  15.295  21.145   4.407
80149W        W48367  30.186  30.856   2.436
80150W        W48368  11.679   0.053  11.258
80151W        W48369  10.589   2.296  12.240
80152W        W48370  11.763  29.523  14.958
80153W        W48371  19.261  40.083   4.151
80154W        W48372  16.126   5.636  14.992
80155W        W48373  17.740  19.078  11.628
80156W        W48374  13.857  19.131  11.611
80157W        W48375  30.898  20.927   2.727
80158W        W48376  35.773  42.443   4.954
80159W        W48377  31.381  25.688   4.199
80160W        W48378  29.076  32.067   5.032
80161W        W48379  41.832  43.982  14.914
80162W        W48380   3.716  16.652   0.418
80163W        W48381  26.080  43.784  13.007
80164W        W48382  20.692  17.276   3.792
80165W        W48383  26.143  11.770  12.599
80166W        W48384  25.965  13.677  10.093
80167W        W48385  20.121  34.694  11.129
80168W        W48386  34.028  32.506  12.657
80169W        W48387   3.323  30.536  12.347
80170W        W48388  29.884  38.278   3.260
80171W        W48389  36.789   2.761  11.528
80172W        W48390   6.668  12.346   2.698
80173W        W48391  37.315  33.493  10.319
80174W        W48392  21.984   9.878  11.855
80175W        W48393  39.716  39.791  13.066
80176W        W48394  34.173  30.546  13.967
80177W        W48395  42.306  14.942  10.767
80178W        W48396  38.519  25.086   1.903
80179W        W48397   4.444  37.186  14.262
80180W        W48398  44.343  13.395   3.349
80181W        W48399  37.497  11.740  11.907
80182W        W48400   9.275   3.347  14.659
80183W        W48401   0.839  18.083  12.781
80184W        W48402   1.412  40.188  14.767
80185W        W48403  17.205   1.285   5.129
80186W        W48404  24.577  26.135  12.203
80187W        W48405  43.251   7.240  10.144
80188W        W48406   6.598  35.512  12.020
80189W        W48407  29.284  36.282  11.060
80190W        W48408  34.912  34.650   2.404
80191W        W48409   0.188  10.920   5.059
80192W        W48410   7.672  22.722   0.868
80193W        W48411  39.376  31.402   3.641
80194W        W48412   4.715  14.169  11.040
80195W        W48413  33.874  16.589   4.166
80196W        W48414  11.802  12.257   2.410
80197W        W48415  17.830  30.646  11.057
80198W        W48416   6.571  11.454  14.913
80199W        W48417  24.229  41.254  10.375
80200W        W48418  32.500   0.997  11.982
80201W        W48419  41.690  32.842  11.200
80202W        W48420  12.143  30.009  11.924
80203W        W48421  41.323  23.989  13.081
80204W        W48422  13.915  20.433   3.079
80205W        W48423  42.678  15.051  12.062
80206W        W48424  28.078  29.675  14.834
80207W        W48425  21.090   6.302   1.724
80208W        W48426  20.317  18.604   4.364
80209W        W48427  17.384   4.783  11.006
80210W        W48428   1.242  23.691  11.540
80211W        W48429  29.186  17.997   4.691
80212W        W48430  28.183  41.369   4.056
80213W        W48431  38.522  38.735  11.668
80214W        W48432  21.244  41.927   4.379
80215W        W48433  18.992  24.119   3.104
80216W        W48434  19.129   4.276  12.582
80217W        W48435  22.381  11.609   5.050
80218W        W48436   7.340  39.546   3.308
80219W        W48437  12.726  37.779   2.011
80220W        W48438  17.850  39.559   2.260
80221W        W48439  40.759  14.222  12.884
80222W        W48440   5.544  27.538  10.653
80223W        W48441  16.622  11.816  13.817
80224W        W48442   8.193  38.777   0.917
80225W        W48443  41.768   7.101  14.381
80226W        W48444  15.372  15.013  14.987
80227W        W48445  40.427  29.428   1.400
80228W        W48446  12.768  29.571   0.227
80229W        W48447   9.199  32.455  10.450
80230W        W48448  37.763  11.719  13.239
80231W        W48449  27.485  44.303  13.832
80232W        W48450  22.135  23.270  12.937
80233W        W48451  25.178  42.207   4.113
80234W        W48452   2.726  19.627  11.117
80235W        W48453  10.902   7.284   3.559
80236W        W48454  39.121   2.203  11.851
80237W        W48455  19.049  20.699  11.492
80238W        W48456  41.464  27.655   0.439
80239W        W48457  35.936  11.372   2.372
80240W        W48458  23.210  42.802  11.986
80241W        W48459  30.924  39.452  10.630
80242W        W48460  30.940  13.276   1.454
80243W        W48461  27.169  19.696  13.288
80244W        W48462  22.730  25.382   4.962
80245W        W48463  32.435  42.484  13.915
80246W        W48464   5.267  43.931  10.791
80247W        W48465  24.402   0.663   1.945
80248W        W48466   6.312  23.635  14.542
80249W        W48467  34.030  25.087   4.395
80250W        W48468  41.596  13.801  11.915
80251W        W48469  36.221   6.308  12.634
80252W        W48470   6.897  27.245   4.343
80253W        W48471  10.579  28.495  14.164
80254W        W48472  30.589  44.913   2.414
80255W        W48473  33.771  22.109  14.951
80256W        W48474  35.090  24.879  11.992
80257W        W48475  36.358   8.799  14.391
80258W        W48476  39.370  21.658   0.819
80259W        W48477   0.456  10.828   2.988
80260W        W48478   1.491  11.665  11.962
80261W        W48479  13.456  17.755  10.671
80262W        W48480   5.189  37.524   1.308
80263W        W48481  18.072   1.636  11.872
80264W        W48482  39.799  27.492   4.564
80265W        W48483  25.624  10.819   0.468
80266W        W48484  14.302  11.961   4.926
80267W        W48485   0.259  18.733   4.486
80268W        W48486  41.434  32.585   3.162
80269W        W48487  13.619  26.972  13.448
80270W        W48488  37.474  22.773  12.800
80271W        W48489  28.588  12.238   1.804
80272W        W48490   1.520  24.031   0.314
80273W        W48491  32.733  39.957  13.461
80274W        W48492  37.328  20.246  13.297
80275W        W48493   0.875  25.471  14.012
80276W        W48494  15.150  22.033   1.855
80277W        W48495  10.261   0.949   2.919
80278W        W48496  16.559  17.164   1.634
80279W        W48497  25.823  27.555   1.959
80280W        W48498   2.071  30.986  13.961
80281W        W48499  30.628  29.383  14.386
80282W        W48500  10.518   6.143  13.805
80283W        W48501  20.763  31.866  14.673
80284W        W48502   5.114  18.702  12.968
80285W        W48503  41.378  16.651   3.568
80286W        W48504   3.596  13.722  13.337
80287W        W48505  15.857  29.005   4.525
80288W        W48506  23.603  27.532   4.174
80289W        W48507  44.578  31.821   0.261
80290W        W48508   9.249   0.745   1.024
80291W        W48509   5.218  16.178   2.885
80292W        W48510  16.465  11.207   1.533
80293W        W48511  16.244  27.006   2.209
80294W        W48512  41.747  11.629   2.916
80295W        W48513  41.846  17.863  12.455
80296W        W48514  41.568   0.357  11.506
80297W        W48515  20.199  33.345   3.781
80298W        W48516  39.779  34.063   3.025
80299W        W48517  11.629  12.671   2.676
80300W        W48518   7.680  28.711  10.271
80301W        W48519   6.415  41.063   0.358
80302W        W48520   2.804  22.623  12.907
80303W        W48521   6.458  43.705   5.467
80304W        W48522   8.801  35.609   4.835
80305W        W48523  11.133  39.328   2.824
80306W        W48524  21.257   9.565  14.304
80307W        W48525  43.514   1.809  13.746
80308W        W48526  39.538  36.343   3.980
80309W        W48527  31.375  25.462   0.694
80310W        W48528  43.448   9.684   1.289
80311W        W48529   8.015   1.461   4.395
80312W        W48530  14.784  43.429   0.848
80313W        W48531  24.206  24.853   1.305
80314W        W48532  20.237  24.885  12.476
80315W        W48533  15.683  14.525   3.652
80316W        W48534  30.059  42.049  11.080
80317W        W48535  14.037  36.381  11.844
80318W        W48536  28.387  36.982   1.834
80319W        W48537  29.916  12.857   0.722
80320W        W48538  32.152  24.275  11.181
80321W        W48539  32.519  20.792  11.922
80322W        W48540  36.383  21.219  10.670
80323W        W48541  36.549  23.601   0.756
80324W        W48542  23.814  24.481  12.364
80325W        W48543  33.760  25.568   2.852
80326W        W48544  14.555  30.965  12.662
80327W        W48545  16.848   4.493   4.025
80328W        W48546  16.765  34.975   0.606
80329W        W48547  16.003  38.877   2.772
80330W        W48548  15.316  23.833   2.899
80331W        W48549   4.527  15.119   3.710
80332W        W48550  18.775  30.364   0.308
80333W        W48551   1.478  28.582   1.305
80334W        W48552  12.073  17.480  14.854
80335W        W48553  41.446  33.889  10.519
80336W        W48554  24.494  28.402   0.371
80337W        W48555   6.248  41.041  11.168
80338W        W48556  20.927  26.289  12.693
80339W        W48557  14.808  27.103   2.770
80340W        W48558  26.830  42.422  12.090
80341W        W48559  37.611  25.282   3.797
80342W        W48560   3.280  38.627   4.443
80343W        W48561  40.418  38.015  14.574
80344W        W48562  12.960   7.602  14.920
80345W        W48563  24.178  32.541  13.797
80346W        W48564  34.094   8.864   4.239
80347W        W48565   4.308  34.556  11.833
80348W        W48566  34.591  28.993  12.635
80349W        W48567   3.776   1.027  12.150
80350W        W48568  11.462   8.321  13.399
80351W        W48569  32.923  36.346   0.962
80352W        W48570  22.287   8.363  11.879
80353W        W48571  39.789  26.570  14.466
80354W        W48572   4.637  31.701  13.528
80355W        W48573  41.498  17.674   1.625
80356W        W48574  41.776  41.839  12.483
80357W        W48575  43.217  17.487   4.119
80358W        W48576  35.141  25.665  11.395
80359W        W48577  41.311   5.459  14.959
80360W        W48578  17.079   3.484  13.378
80361W        W48579  40.755   5.691   0.706
80362W        W48580   6.259  12.817  14.813
80363W        W48581  37.602  13.124   3.685
80364W        W48582  34.489  32.099   3.223
80365W        W48583   8.308  34.591   1.031
80366W        W48584  12.444   5.006   1.785
80367W        W48585  32.454   3.990   0.943
80368W        W48586  39.538  26.743  14.981
80369W        W48587  20.983  32.692  14.233
80370W        W48588  12.828  42.643  14.725
80371W        W48589  18.154   8.488  10.358
80372W        W48590  23.478  43.803   4.469
80373W        W48591  35.118  11.028  14.495
80374W        W48592   3.460  36.637  13.825
80375W        W48593  32.942   1.006   4.023
80376W        W48594   8.620  43.316  13.991
80377W        W48595  28.947  37.376   1.794
80378W        W48596  30.455  14.733   4.026
80379W        W48597   2.039  10.455  12.632
80380W        W48598  13.608  33.429  14.853
80381W        W48599  14.445  30.418  11.872
80382W        W48600  31.041  34.439   1.247
80383W        W48601   4.366  25.825  12.979
80384W        W48602  10.259  36.347  12.894
80385W        W48603   0.877  14.234  10.775
80386W        W48604  41.509   5.784  13.838
80387W        W48605  26.935  26.472  14.910
80388W        W48606  43.618   9.797  14.730
80389W        W48607  40.936  42.975  12.898
80390W        W48608  28.141  27.894   0.529
80391W        W48609  40.886  16.542  12.022
80392W        W48610   3.872  15.620   2.037
80393W        W48611  36.191  21.274  11.499
80394W        W48612  35.890  19.619  12.409
80395W        W48613  21.531  44.980  14.876
80396W        W48614   6.069  44.389  10.977
80397W        W48615  11.279  34.420  11.223
80398W        W48616  34.396  20.695   2.180
80399W        W48617  28.279  39.685  12.960
80400W        W48618  13.687  27.070   1.802
80401W        W48619  35.384   3.561   2.023
80402W        W48620   8.219  11.836  13.393
80403W        W48621  37.495  28.317   3.872
80404W        W48622  37.493  21.330  11.260
80405W        W48623  42.193  20.254   1.309
80406W        W48624  31.753   1.207  11.649
80407W        W48625  37.113   1.060  13.259
80408W        W48626  27.702  18.971  11.196
80409W        W48627   1.769  38.329  11.695
80410W        W48628  28.680  11.462  14.998
80411W        W48629   0.617  15.324  12.590
80412W        W48630   3.732  12.466   4.957
80413W        W48631  24.661   6.166   2.487
80414W        W48632  31.051   3.786   2.277
80415W        W48633   0.432  25.208  14.094
80416W        W48634  31.941  19.348   2.832
80417W        W48635  34.669   0.413  13.780
80418W        W48636  37.805   1.960   2.678
80419W        W48637   7.745  40.273   4.457
80420W        W48638   4.739  39.257   1.361
80421W        W48639  38.108  44.128  10.851
80422W        W48640   1.661   5.862   0.721
80423W        W48641  14.813  26.655   3.054
80424W        W48642  25.160  29.551  13.818
80425W        W48643  40.492  18.169   4.537
80426W        W48644  42.124  36.128   4.531
80427W        W48645  22.393  41.558  13.880
80428W        W48646  40.028  18.045  11.267
80429W        W48647  31.581  30.432   2.148
80430W        W48648  18.333  31.421   4.658
80431W        W48649   1.553  32.700  12.057
80432W        W48650  35.816  31.591  11.765
80433W        W48651  41.777  34.879   3.338
80434W        W48652   1.133   2.738  14.148
80435W        W48653  19.928  31.546  14.671
80436W        W48654  43.599  29.887  11.542
80437W        W48655  19.279  44.333  14.964
80438W        W48656  13.135  27.140   2.261
80439W        W48657   2.132  34.835  13.883
80440W        W48658  13.389   3.475  10.865
80441W        W48659   5.875  40.224   1.262
80442W        W48660  37.821  21.480   1.083
80443W        W48661  35.570  10.962  14.813
80444W        W48662   8.748  12.378   3.239
80445W        W48663  30.685   6.797   5.277
80446W        W48664  40.913   0.469  10.370
80447W        W48665  35.475  20.540   0.296
80448W        W48666   7.427   7.735   1.236
80449W        W48667  12.980  13.568   2.991
80450W        W48668  40.491  22.220   2.382
80451W        W48669  16.597  30.527   0.351
80452W        W48670   1.754   4.850   1.442
80453W        W48671  15.174  13.932   2.387
80454W        W48672  29.523  16.598   2.618
80455W        W48673   6.313  27.744   2.421
80456W        W48674  35.772   8.224   0.661
80457W        W48675  26.099  21.483  12.081
80458W        W48676  18.210  34.516  13.034
80459W        W48677   3.546   0.457   4.284
80460W        W48678  39.959  27.823   4.935
80461W        W48679  15.574  13.806  11.452
80462W        W48680  18.007   2.822  11.170
80463W        W48681  36.350  22.044   0.440
80464W        W48682  35.974  16.846  12.030
80465W        W48683   9.932  39.830  13.630
80466W        W48684  22.518  17.260   1.380
80467W        W48685   0.279   5.486   4.146
80468W        W48686  35.204  33.537   0.114
80469W        W48687  34.625  32.454   4.722
80470W        W48688  27.360  41.764   4.401
80471W        W48689  31.085   5.597  12.688
80472W        W48690  42.401   3.958  14.874
80473W        W48691  11.838  23.062  11.470
80474W        W48692  13.380   2.964   2.615
80475W        W48693  27.517  10.740   2.063
80476W        W48694  39.470  30.442   1.773
80477W        W48695  14.061  13.594  10.696
80478W        W48696   1.790   8.108  14.082
80479W        W48697  43.560  22.319  11.527
80480W        W48698  37.839  31.589  13.990
80481W        W48699  40.681   6.681   3.211
80482W        W48700   2.663  16.707   4.213
80483W        W48701  28.016  34.172  11.414
80484W        W48702   0.921  12.290   2.303
80485W        W48703  15.618  17.320  10.639
80486W        W48704  33.354  17.373  13.621
80487W        W48705   8.656  40.438  12.628
80488W        W48706   6.289  23.168  14.771
80489W        W48707  12.369  43.707  11.259
80490W        W48708  18.689  11.692   0.144
80491W        W48709  35.532  27.779  11.424
80492W        W48710  44.536  12.203   0.651
80493W        W48711  19.629  34.013   3.846
80494W        W48712  11.677  10.466   4.605
80495W        W48713  13.025  17.668  14.934
80496W        W48714  40.707  41.350   3.250
80497W        W48715  37.977  33.964   3.069
80498W        W48716   2.440  15.783   4.548
80499W        W48717  14.878  33.842  12.020
80500W        W48718   2.421  26.912   1.289
80501W        W48719   0.451  38.085  13.975
80502W        W48720  31.025  28.104   1.785
80503W        W48721  42.946   5.222  13.001
80504W        W48722   7.623  33.645  12.452
80505W        W48723  35.038  13.321   4.435
80506W        W48724  27.875  40.527  10.738
80507W        W48725  43.322   5.274  12.142
80508W        W48726  23.144  39.925  12.034
80509W        W48727  18.418   9.737   4.183
80510W        W48728  21.175  44.822   3.305
80511W        W48729  23.153  44.848  11.459
80512W        W48730  27.263  32.294  14.847
80513W        W48731  25.554  25.388  13.404
80514W        W48732   0.211   6.483  11.900
80515W        W48733  17.228   0.790  14.379
80516W        W48734  35.053   8.934  10.704
80517W        W48735  43.997  40.756   0.567
80518W        W48736  12.062   7.254  14.392
80519W        W48737  35.199  16.276  14.465
80520W        W48738   6.239  41.857   2.459
80521W        W48739  30.142  28.700   0.914
80522W        W48740  27.747  16.799  10.492
80523W        W48741  36.081  20.984  14.346
80524W        W48742  18.156  23.644  12.407
80525W        W48743  20.537  31.916  14.201
80526W        W48744  11.454  42.741  13.984
80527W        W48745  36.601  13.275   2.680
80528W        W48746   1.847  38.052  13.028
80529W        W48747   1.976  12.041   3.578
80530W        W48748  25.565   0.789   1.773
80531W        W48749   3.167  27.921   4.903
80532W        W48750  33.735   8.945   1.265
80533W        W48751  38.888   6.343   2.457
80534W        W48752  39.678  26.913   1.265
80535W        W48753  16.096  12.533   4.548
80536W        W48754  19.223  34.024   1.348
80537W        W48755  21.963  16.056  12.127
80538W        W48756   0.237  25.056  14.552
80539W        W48757  38.593  11.847  11.025
80540W        W48758  34.146  36.046  12.991
80541W        W48759  28.943   4.183   4.024
80542W        W48760   4.936  10.276  13.092
80543W        W48761   6.230  11.674   4.574
80544W        W48762  37.566  32.799   0.870
80545W        W48763   2.393  26.681   0.819
80546W        W48764  29.935  34.507  13.561
80547W        W48765   2.015  31.386   0.263
80548W        W48766   9.861   0.006   0.988
80549W        W48767  16.288   6.789  10.949
80550W        W48768  16.166  13.192   2.137
80551W        W48769  30.400  27.050   4.776
80552W        W48770   7.013   5.152  11.087
80553W        W48771  16.333  28.161  12.162
80554W        W48772  32.823  23.551   3.739
80555W        W48773  15.781  27.870  11.495
80556W        W48774  16.684  32.254   2.778
80557W        W48775   2.886  19.874  12.666
80558W        W48776  22.613  29.140  14.430
80559W        W48777   1.294  15.550   3.623
80560W        W48778  22.940  31.647   3.824
80561W        W48779  22.233  39.312   0.316
80562W        W48780  12.378   2.092  12.143
80563W        W48781  21.636  22.029   2.558
80564W        W48782  39.221   6.275  10.180
80565W        W48783   7.877  12.713  13.282
80566W        W48784  36.551  10.196  11.845
80567W        W48785  37.947  18.619  13.345
80568W        W48786  42.150  41.491   0.290
80569W        W48787  10.411  15.001  11.668
80570W        W48788  33.465  19.523   4.616
80571W        W48789  18.534  31.442   3.589
80572W        W48790  18.293  24.788  10.736
80573W        W48791  22.004  28.447  10.817
80574W        W48792  43.491  34.941  14.931
80575W        W48793  30.446  42.779   0.713
80576W        W48794  40.715  31.457  12.141
80577W        W48795  15.792  40.891   1.291
80578W        W48796   9.640   8.987   4.141
80579W        W48797  21.461  43.849  13.857
80580W        W48798  24.737  36.972   1.476
80581W        W48799  22.216   0.954   4.953
80582W        W48800  25.493  22.017  12.887
80583W        W48801   2.901   1.838  14.319
80584W        W48802  13.937  12.843   3.843
80585W        W48803  38.667   4.257   5.034
80586W        W48804  13.018  30.454  12.181
80587W        W48805  11.966  11.770  12.505
80588W        W48806  24.779  17.398  14.213
80589W        W48807   7.432  18.281   0.476
80590W        W48808  13.094  24.452  14.228
80591W        W48809   4.883  38.629  10.880
80592W        W48810  19.026  40.406   2.983
80593W        W48811  35.014  18.264   5.080
80594W        W48812  14.712  14.156  13.951
80595W        W48813  17.252  41.582  14.310
80596W        W48814  30.412   1.136  14.099
80597W        W48815  24.475  22.206   1.410
80598W        W48816  13.877   8.130   4.797
80599W        W48817  22.225  40.453   3.257
80600W        W48818  28.108  22.756   3.604
80601W        W48819  23.942  27.556  13.385
80602W        W48820  44.207  17.775   2.733
80603W        W48821  40.680  40.311  10.917
80604W        W48822  44.417   6.157   0.352
80605W        W48823  31.845  22.013  13.785
80606W        W48824  19.531   7.700  12.972
80607W        W48825  39.961   0.173  12.098
80608W        W48826  29.012  15.192  13.539
80609W        W48827   9.134  13.158  13.395
80610W        W48828   1.906   7.891   4.498
80611W        W48829   0.373   9.315  14.937
80612W        W48830  14.707  24.962   0.523
80613W        W48831  24.306  24.034  13.962
80614W        W48832   6.580  28.277  13.107
80615W        W48833   7.325  41.427   4.179
80616W        W48834   2.650  44.783   0.338
80617W        W48835  20.061  41.272   3.218
80618W        W48836   4.176  30.988  13.785
80619W        W48837  11.081  27.632   3.915
80620W        W48838  44.478  13.659   0.823
80621W        W48839   4.336   2.748  10.367
80622W        W48840  39.500  29.068   3.821
80623W        W48841  41.254  44.407   3.885
80624W        W48842  37.847  34.475   2.208
80625W        W48843  11.237  41.351  12.883
80626W        W48844  13.642  26.163   0.844
80627W        W48845  43.124  39.018  10.018
80628W        W48846   9.651  28.094  13.717
80629W        W48847  38.589  18.742   1.842
80630W        W48848   2.515  13.159   0.130
80631W        W48849   6.947  20.844   4.931
80632W        W48850   0.588  10.644  11.790
80633W        W48851  25.458  14.616  11.872
80634W        W48852  19.113  15.808   0.389
80635W        W48853  25.137  12.132  12.400
80636W        W48854  30.554   1.709   0.683
80637W        W48855  31.946  24.274  13.772
80638W        W48856  38.830  16.597  11.419
80639W        W48857  21.615  11.249  14.768
80640W        W48858  13.194   2.286   1.766
80641W        W48859  36.454   5.896   1.421
80642W        W48860   5.692  44.966  13.066
80643W        W48861  38.805  31.616  10.973
80644W        W48862   4.818  39.866  12.403
80645W        W48863  44.409  39.022  11.643
80646W        W48864  11.758  11.837   0.450
80647W        W48865  11.712   9.912  11.625
80648W        W48866  14.580  23.257  13.930
80649W        W48867  25.588  40.792   2.295
80650W        W48868  13.831  15.214  11.329
80651W        W48869   8.121  29.574   4.112
80652W        W48870  11.794   5.264  13.612
80653W        W48871  21.653  42.965   3.720
80654W        W48872  21.674  42.903  14.185
80655W        W48873   3.417   7.799   0.023
80656W        W48874  24.590  13.077  11.553
80657W        W48875  33.356   9.285  10.113
80658W        W48876  43.007  43.978   4.734
80659W        W48877  21.501   3.839  14.550
80660W        W48878  20.255  17.220   4.152
80661W        W48879   1.117  26.180   2.299
80662W        W48880   4.460  12.001   5.205
80663W        W48881   7.947  11.348   0.899
80664W        W48882  39.328  15.077  14.156
80665W        W48883  41.870  14.082  12.800
80666W        W48884   0.998  14.179   3.947
80667W        W48885   7.318  22.531  13.772
80668W        W48886  23.966  11.256  14.271
80669W        W48887  28.706  21.024  11.589
80670W        W48888  20.599  10.382   2.280
80671W        W48889  34.814  26.878   5.443
80672W        W48890  36.777   4.221   3.331
80673W        W48891  33.169   1.075   2.708
80674W        W48892  20.769  28.048  14.843
80675W        W48893   2.708  34.474   0.727
80676W        W48894   6.825   3.015   1.711
80677W        W48895   1.011  43.379  11.934
80678W        W48896  40.940   6.117  12.815
80679W        W48897   1.375   3.362  14.880
80680W        W48898   3.529  30.026  12.156
80681W        W48899  18.069  23.102  12.390
80682W        W48900  32.458   0.015   4.740
80683W        W48901   3.002   6.867  14.679
80684W        W48902  15.293  14.646  13.514
80685W        W48903  22.390  22.579   2.855
80686W        W48904  26.107  13.558   4.635
80687W        W48905  43.104  19.120  11.712
80688W        W48906   7.927  22.727  14.525
80689W        W48907  15.381   6.674   2.658
80690W        W48908  26.352  23.906  12.852
80691W        W48909   2.901  32.672  13.903
80692W        W48910  18.558  22.058   1.301
80693W        W48911  24.063  26.592   0.449
80694W        W48912  26.995  29.051  14.816
80695W        W48913  25.036  34.071  12.567
80696W        W48914   3.830  22.383   1.430
80697W        W48915  44.059   4.874   4.657
80698W        W48916  24.578  44.828  14.896
80699W        W48917  25.753  15.768  11.543
80700W        W48918  43.341  21.673  11.120
80701W        W48919  23.572  17.824  11.507
80702W        W48920  42.185  37.486  13.924
80703W        W48921  23.326  35.449  11.062
80704W        W48922  23.070  14.404   1.428
80705W        W48923  16.110  17.082  11.866
80706W        W48924   8.790  10.455  14.889
80707W        W48925  40.526  30.476   2.850
80708W        W48926  33.584   0.879   9.841
80709W        W48927   9.818  11.292  14.842
80710W        W48928  44.626  23.539  13.620
80711W        W48929   5.571   9.687   2.583
80712W        W48930   0.060  40.096  11.959
80713W        W48931  31.859  11.561   2.347
80714W        W48932  19.284   4.793   1.839
80715W        W48933  39.212  44.060   1.623
80716W        W48934  36.135  24.563   3.276
80717W        W48935  10.121  38.851   0.941
80718W        W48936   3.106  20.880  11.970
80719W        W48937  21.437  36.571   3.406
80720W        W48938  16.686   6.181   1.707
80721W        W48939  21.426   8.217  12.188
80722W        W48940  41.214   4.210  11.117
80723W        W48941  17.222   4.291   3.419
80724W        W48942  29.148  21.232   0.834
80725W        W48943  35.181   5.413  14.219
80726W        W48944  12.360  16.157  14.679
80727W        W48945  34.342   5.287   0.787
80728W        W48946   0.335  38.428   1.393
80729W        W48947  36.075  31.689   3.084
80730W        W48948  18.300  11.871  12.957
80731W        W48949  33.216  38.413   2.655
80732W        W48950   2.337   8.601  12.023
80733W        W48951   1.219  38.166   1.765
80734W        W48952  18.308  23.709  13.525
80735W        W48953   8.271  37.348   2.247
80736W        W48954  26.149   4.813  10.332
80737W        W48955   9.288  17.833  13.871
80738W        W48956  41.055  13.747   1.389
80739W        W48957  36.348  24.539   1.864
80740W        W48958   9.166  33.452   2.715
80741W        W48959  20.953  24.416   1.018
80742W        W48960  18.103   1.132   2.700
80743W        W48961  44.432  10.685   1.359
80744W        W48962  37.992  34.139   1.786
80745W        W48963  36.383  28.889   0.328
80746W        W48964  28.825  39.543  12.064
80747W        W48965  33.478   9.662   1.922
80748W        W48966   3.496  13.599   1.189
80749W        W48967   2.021   9.316  12.465
80750W        W48968  43.725   3.319   2.267
80751W        W48969  16.170  30.655   0.073
80752W        W48970   9.177  16.400   2.293
80753W        W48971  12.639  30.561  14.024
80754W        W48972  27.800  44.037   2.185
80755W        W48973  21.351   2.865  13.386
80756W        W48974   7.778   6.469  11.549
80757W        W48975  21.530   6.979   2.286
80758W        W48976  24.270  43.717   0.751
80759W        W48977  29.217   6.969  14.896
80760W        W48978  42.371  25.719   0.947
80761W        W48979  23.955   5.252   4.158
80762W        W48980  20.793   0.794   3.705
80763W        W48981   6.338   3.806  13.495
80764W        W48982  19.620  26.913   3.784
80765W        W48983  19.078  24.523  13.098
80766W        W48984  41.565  21.212  10.637
80767W        W48985  26.230  24.904  11.523
80768W        W48986  28.170   2.314  10.790
80769W        W48987  33.595  35.765   4.502
80770W        W48988  15.718  40.401   1.427
80771W        W48989   1.867  38.444   1.346
80772W        W48990  23.525  25.592  11.886
80773W        W48991  12.376  22.696  14.594
80774W        W48992  37.891  10.920   3.023
80775W        W48993  27.869  11.678   1.816
80776W        W48994  16.592   9.380  12.544
80777W        W48995   3.287  38.555  13.765
80778W        W48996  27.771  11.464   0.312
80779W        W48997  22.214   6.868   3.220
80780W        W48998  14.836  14.340   3.753
80781W        W48999  41.820  25.594  12.330
80782W        W49000   8.862   9.195  10.675
80783W        W49001  40.542  12.849   2.195
80784W        W49002   5.884  28.257  14.816
80785W        W49003   1.551   3.493  13.015
80786W        W49004  34.766   9.944   1.201
80787W        W49005  32.844  16.765   3.355
80788W        W49006   6.366  36.821   3.865
80789W        W49007  19.660  31.228   0.428
80790W        W49008  35.385   6.035  11.918
80791W        W49009   7.688   3.759   2.145
80792W        W49010  30.474  10.202  10.691
80793W        W49011  11.252   9.079  12.426
80794W        W49012  34.283  44.352   2.272
80795W        W49013  29.600   4.687  14.057
80796W        W49014  41.204  10.689  12.123
80797W        W49015  44.861  38.919  14.372
80798W        W49016  20.277  34.545  14.265
80799W        W49017  30.579  34.192   1.290
80800W        W49018  27.523  36.086   0.674
80801W        W49019  29.255  39.949   0.392
80802W        W49020   1.385  40.430   3.851
80803W        W49021  22.853  44.230  12.159
80804W        W49022   6.957  24.450  13.069
80805W        W49023  29.616  24.202  13.347
80806W        W49024  20.088  33.829   0.969
80807W        W49025  33.428   2.933  14.814
80808W        W49026   6.487  22.456   3.152
80809W        W49027  34.577  14.195   0.227
80810W        W49028  35.045   4.435   1.694
80811W        W49029  30.918  33.867   4.190
80812W        W49030   3.099  41.760   1.505
80813W        W49031  28.545  20.111   0.920
80814W        W49032  14.583  15.809   4.035
80815W        W49033   0.979  34.941   4.365
80816W        W49034   4.791   0.510   0.730
80817W        W49035  19.289  19.169   3.803
80818W        W49036  40.230  19.732   2.744
80819W        W49037   3.753   2.689   4.518
80820W        W49038  32.598   6.054   2.313
80821W        W49039  19.784  19.801  13.120
80822W        W49040  40.029  34.025   4.538
80823W        W49041  12.673  16.665  12.375
80824W        W49042   0.016  20.270  14.402
80825W        W49043  37.361  22.077  10.673
80826W        W49044   6.626  29.883  14.499
80827W        W49045  24.167  25.702  11.131
80828W        W49046  33.023   6.194  14.422
80829W        W49047   7.638   7.662  11.252
80830W        W49048  33.990  35.025  11.900
80831W        W49049  23.817  35.057   0.437
80832W        W49050  11.720   9.298  12.475
80833W        W49051  14.223  19.489   1.784
80834W        W49052   7.458  19.570   2.735
80835W        W49053  15.239  43.092   4.950
80836W        W49054   0.793  15.546   3.812
80837W        W49055  32.906  21.571   4.896
80838W        W49056  16.146  32.513   2.750
80839W        W49057  22.783  30.872  13.256
80840W        W49058   5.490  15.735   2.825
80841W        W49059  36.028  35.399  14.068
80842W        W49060  42.450  23.527  10.897
80843W        W49061  10.855  20.365  11.647
80844W        W49062  31.675  21.619  11.062
80845W        W49063  29.413  44.415   2.409
80846W        W49064  22.085  29.182  11.212
80847W        W49065  18.718   6.614  12.937
80848W        W49066   7.679   5.465  14.972
80849W        W49067  15.302  15.430   2.690
80850W        W49068  31.884   3.903  13.495
80851W        W49069   3.188  25.411   1.165
80852W        W49070   5.574  19.798  11.151
80853W        W49071  36.063  33.391   0.044
80854W        W49072   9.840  22.530  12.594
80855W        W49073   3.224  11.292  13.915
80856W        W49074  11.767  11.193  10.754
80857W        W49075  37.400  37.408  10.379
80858W        W49076   6.476  15.720  13.749
80859W        W49077  32.665  20.482  13.910
80860W        W49078   0.903  17.509   1.692
80861W        W49079  29.729  33.112  12.557
80862W        W49080  20.954   1.955   1.438
80863W        W49081   7.254  14.761   1.202
80864W        W49082  26.860  18.790  13.509
80865W        W49083   0.820  36.989   2.569
80866W        W49084   7.596  28.817  14.344
80867W        W49085  12.886   3.328   2.320
80868W        W49086  23.509   3.382  13.000
80869W        W49087  32.511  27.630   3.015
80870W        W49088  15.850  18.066  13.772
80871W        W49089   3.765  18.188  13.244
80872W        W49090   0.275  29.168  10.717
80873W        W49091  34.351  13.544  14.761
80874W        W49092  37.397  26.218  13.846
80875W        W49093  27.976   0.720  11.283
80876W        W49094  27.630  26.439   2.716
80877W        W49095   7.786  31.154   4.878
80878W        W49096  14.537  38.043   2.244
80879W        W49097  12.813  11.416  14.211
80880W        W49098   9.202  38.635   0.447
80881W        W49099  22.298   9.142  12.435
80882W        W49100  34.180  42.825   4.593
80883W        W49101  32.892   4.404  11.244
80884W        W49102  33.413  10.878  12.980
80885W        W49103  17.174  41.185   0.265
80886W        W49104  18.226  44.025  14.020
80887W        W49105   1.184  39.189  11.990
80888W        W49106  38.297  11.647  12.562
80889W        W49107  25.174  18.138  12.849
80890W        W49108  43.587  10.652   4.379
80891W        W49109   7.299  11.203   4.508
80892W        W49110  40.967   1.464  14.226
80893W        W49111  15.555   8.614   4.963
80894W        W49112  22.779  27.855   3.715
80895W        W49113  29.875  29.093   0.704
80896W        W49114  21.950  41.782  11.252
80897W        W49115  13.488  26.700   4.093
80898W        W49116  13.141  44.508  13.313
80899W        W49117  27.707  35.960  13.940
80900W        W49118  30.616   5.761   4.487
80901W        W49119  18.034  21.226  10.581
80902W        W49120  44.769  33.357  10.147
80903W        W49121  13.222  35.508   2.833
80904W        W49122   7.793  23.220   0.717
80905W        W49123  35.513   2.490   9.982
80906W        W49124  40.389   5.877   2.634
80907W        W49125  36.888  15.768  10.642
80908W        W49126  40.270  40.071  13.069
80909W        W49127  23.825  39.874   1.030
80910W        W49128  13.749  38.814  12.912
80911W        W49129  40.341  34.110  13.218
80912W        W49130  28.696  41.685  11.060
80913W        W49131  25.847   4.831  11.344
80914W        W49132  12.248  44.836   4.181
80915W        W49133  13.098  41.821  14.465
80916W        W49134  28.435  27.233   4.516
80917W        W49135  43.307  20.487  12.138
80918W        W49136  44.724  39.979  11.086
80919W        W49137  37.069  30.071   1.315
80920W        W49138   7.369  26.993   4.419
80921W        W49139  10.822   2.390   1.306
80922W        W49140  39.467  43.322  14.000
80923W        W49141  18.055  24.539   2.210
80924W        W49142  11.675  44.894   3.910
80925W        W49143  21.466   1.477   2.874
80926W        W49144  10.878  16.328   2.679
80927W        W49145  17.150  25.646  12.044
80928W        W49146  12.759  44.696   4.111
80929W        W49147  41.789  33.255  13.513
80930W        W49148  29.369  33.925   2.356
80931W        W49149  31.457  14.195   2.662
80932W        W49150  24.250  22.210  13.941
80933W        W49151  44.886  32.884  14.032
80934W        W49152   7.943  36.771  13.390
80935W        W49153  10.204  28.741   4.363
80936W        W49154  13.254  18.377   1.406
80937W        W49155  27.892  15.778  12.484
80938W        W49156  16.343  21.548  11.360
80939W        W49157  30.957  35.354  14.241
80940W        W49158   6.159  28.017  12.908
80941W        W49159  20.955  36.567   3.190
80942W        W49160   6.296   4.719  10.663
80943W        W49161  30.376   1.669  11.096
80944W        W49162  25.338   6.873   3.157
80945W        W49163  16.157  39.264   2.001
80946W        W49164   6.333  24.028   1.688
80947W        W49165  13.671  17.233  11.492
80948W        W49166  39.275   2.733   2.761
80949W        W49167   6.473  11.244   3.177
80950W        W49168  18.153  33.933   3.346
80951W        W49169  16.748  34.139  12.185
80952W        W49170   7.875  10.912   2.243
80953W        W49171  43.711  13.671   1.321
80954W        W49172  40.028   9.045   0.221
80955W        W49173  19.980   0.982   2.187
80956W        W49174   2.855  15.163   1.913
80957W        W49175  21.489  23.446   2.156
80958W        W49176   5.126  18.828  12.055
80959W        W49177  43.435  41.406  13.559
80960W        W49178  43.760  29.559  13.420
80961W        W49179  32.364   4.523   1.716
80962W        W49180  34.090  25.008   0.423
80963W        W49181  39.856  14.184  11.791
80964W        W49182   1.638  42.142   4.120
80965W        W49183  14.097  25.541   4.613
80966W        W49184  13.193  44.429   1.204
80967W        W49185  26.516  14.102   4.024
80968W        W49186  20.152  26.678  13.958
80969W        W49187  39.662  15.751  11.998
80970W        W49188  25.116  32.577  13.911
80971W        W49189  32.221  17.254  11.613
80972W        W49190   3.959  40.522   1.430
80973W        W49191  24.086  42.428  10.644
80974W        W49192  44.013   5.445   3.450
80975W        W49193  44.641   7.306  14.499
80976W        W49194   2.034  10.719   0.489
80977W        W49195  36.263  43.823   1.510
80978W        W49196  40.641   3.953   4.737
80979W        W49197  16.036  28.338  14.473
80980W        W49198  35.678   8.090  11.347
80981W        W49199  34.123  26.434   4.539
80982W        W49200  14.878  43.752  10.730
80983W        W49201   2.865  36.382   2.250
80984W        W49202   7.797  30.146  14.519
80985W        W49203  43.616  44.806   3.971
80986W        W49204   6.222   0.696   1.805
80987W        W49205  41.984  23.644   4.518
80988W        W49206  42.394   4.801  12.147
80989W        W49207   7.864  29.904  11.598
80990W        W49208   0.386  14.600  11.939
80991W        W49209   5.783  28.356  12.134
80992W        W49210  34.440  37.919   2.814
80993W        W49211   4.236  36.490  14.320
80994W        W49212  31.311  40.318  13.336
80995W        W49213   1.866  44.722   3.877
80996W        W49214   3.174  41.024  13.910
80997W        W49215   9.631  19.026  12.071
80998W        W49216  17.933  40.063   2.342
80999W        W49217  10.963  10.507  14.838
81000W        W49218  14.822  13.790  12.801
81001W        W49219  25.638  11.538  13.414
81002W        W49220  36.796   6.616   4.604
81003W        W49221  38.871   8.251  10.881
81004W        W49222  40.060  25.849  14.941
81005W        W49223  32.156  23.626   1.883
81006W        W49224   7.556  33.292   4.023
81007W        W49225  18.584  35.916   2.311
81008W        W49226  13.348   1.173  10.860
81009W        W49227  27.821  14.557   3.073
81010W        W49228  33.605  15.396  12.002
81011W        W49229  21.008  23.448   1.911
81012W        W49230  41.805  11.421   4.101
81013W        W49231   0.891  36.528   2.830
81014W        W49232  35.430   0.452  12.882
81015W        W49233   1.236  24.125  14.415
81016W        W49234  17.678   7.786   3.358
81017W        W49235   8.524  14.276  13.824
81018W        W49236  22.484  39.002  12.372
81019W        W49237  23.034  10.721  12.400
81020W        W49238  17.645  33.046   3.415
81021W        W49239  16.655  13.570  13.193
81022W        W49240  40.492  22.208   4.607
81023W        W49241  21.242  17.778   4.885
81024W        W49242  34.668  43.012   0.769
81025W        W49243  12.835  29.126   4.508
81026W        W49244  35.609  23.485  11.118
81027W        W49245  10.594  18.827   3.644
81028W        W49246  36.226  19.619  12.014
81029W        W49247  33.270  43.702   2.316
81030W        W49248   7.264  42.702   3.607
81031W        W49249  40.202   8.290  11.152
81032W        W49250  16.800  18.191   4.064
81033W        W49251   0.873  16.190   2.102
81034W        W49252  41.017  20.809   3.241
81035W        W49253  43.019   0.407   1.803
81036W        W49254  38.134  35.826   2.273
81037W        W49255  21.766  25.706  11.917
81038W        W49256  31.091  44.815   1.684
81039W        W49257   6.736  11.386   3.637
81040W        W49258  38.753  44.302   4.690
81041W        W49259  41.530   8.378   3.257
81042W        W49260  22.197  29.472  11.981
81043W        W49261  15.625   5.835  13.558
81044W        W49262  20.510   0.917  12.953
81045W        W49263  26.945  40.842   4.182
81046W        W49264   2.826  24.951  12.000
81047W        W49265  42.955   0.303  13.877
81048W        W49266  19.516   5.698  13.262
81049W        W49267   2.667  32.327   0.339
81050W        W49268  33.708   3.113   4.549
81051W        W49269   5.777  20.933  13.248
81052W        W49270  17.330  35.062  14.916
81053W        W49271   8.808  37.258   3.719
81054W        W49272   8.333  23.109   1.773
81055W        W49273  28.416  31.685   4.096
81056W        W49274  28.482  25.002   4.063
81057W        W49275  44.427   2.936   3.331
81058W        W49276  10.930  40.430  12.988
81059W        W49277   1.370  24.998  11.972
81060W        W49278   0.883  38.828   4.571
81061W        W49279  43.008   4.639  13.864
81062W        W49280  28.091  36.767  12.123
81063W        W49281  21.682  36.625   3.877
81064W        W49282   4.974  13.616  11.179
81065W        W49283  44.272  32.157  11.156
81066W        W49284  42.486  42.682   4.374
81067W        W49285  37.037  21.572  12.505
81068W        W49286   1.804  41.690   3.952
81069W        W49287  37.914  39.496   3.756
81070W        W49288  27.138   5.193  11.300
81071W        W49289  18.516  44.571  13.342
81072W        W49290  35.653  34.159   3.366
81073W        W49291  24.914  36.643  11.729
81074W        W49292  31.477  42.638  10.836
81075W        W49293  17.167  22.615   2.162
81076W        W49294  41.819  44.858  12.066
81077W        W49295  34.639  18.715   0.702
81078W        W49296   1.753  40.261  11.113
81079W        W49297  39.413  23.203  14.261
81080W        W49298  13.173  32.547   1.309
81081W        W49299  42.981  31.155  14.715
81082W        W49300   4.742  42.111  11.405
81083W        W49301  13.852  40.561   1.385
81084W        W49302  17.222   7.779   3.601
81085W        W49303   4.396  12.543  10.895
81086W        W49304  35.685  26.621   2.169
81087W        W49305   2.896  38.498   1.291
81088W        W49306  21.953  29.146   0.774
81089W        W49307  30.172   7.617  13.117
81090W        W49308   3.922   0.963  13.062
81091W        W49309   4.351   6.237  12.783
81092W        W49310  12.745  12.360  12.859
81093W        W49311  13.096  37.737  12.869
81094W        W49312  30.592  21.651  10.592
81095W        W49313  29.092   4.768  13.931
81096W        W49314  26.225  33.883  13.604
81097W        W49315  33.735  38.458   2.732
81098W        W49316   4.755  24.919  14.747
81099W        W49317  24.213   2.649  11.114
81100W        W49318  42.371  25.168  11.400
81101W        W49319  36.831  15.511   4.881
81102W        W49320  27.271  36.438   3.774
81103W        W49321  27.048  37.800   0.899
81104W        W49322  26.238  40.017   3.224
81105W        W49323  16.877  13.756   2.771
81106W        W49324  25.966  32.929   3.799
81107W        W49325  13.706  39.030   5.215
81108W        W49326  30.484  35.127   3.224
81109W        W49327  34.811  35.424  12.865
81110W        W49328  39.572   6.617   0.330
81111W        W49329  36.314   2.783  11.844
81112W        W49330  36.667  27.173   3.791
81113W        W49331  40.053  35.968   1.996
81114W        W49332  40.830  41.771   2.997
81115W        W49333  27.004   8.871   0.056
81116W        W49334   2.038  27.798  12.498
81117W        W49335  19.919  29.527   0.469
81118W        W49336  27.454   0.049  13.251
81119W        W49337  14.504  22.390  13.058
81120W        W49338   2.202  22.621   0.707
81121W        W49339  34.286   9.336   0.795
81122W        W49340  32.981  15.699   4.597
81123W        W49341   7.854  11.690  10.737
81124W        W49342  23.209  18.528  14.240
81125W        W49343  40.324  10.119  12.473
81126W        W49344  21.582  10.428   0.977
81127W        W49345  33.918  18.608  12.894
81128W        W49346  38.280  42.852  11.171
81129W        W49347   9.275   8.139  13.518
81130W        W49348  10.172  29.305  12.238
81131W        W49349  39.040  23.637  14.930
81132W        W49350  20.561   4.762   4.813
81133W        W49351  12.391  37.391  13.275
81134W        W49352   8.925  12.352   4.264
81135W        W49353  38.023  25.054   2.176
81136W        W49354  34.669  14.756   4.075
81137W        W49355  24.063  22.015   0.248
81138W        W49356   2.332  38.483   4.698
81139W        W49357  40.357  23.793  10.726
81140W        W49358  22.604  25.960  10.664
81141W        W49359   9.195   3.676   2.706
81142W        W49360  13.233  18.842  10.855
81143W        W49361  25.108  18.303  11.847
81144W        W49362  17.849  36.067  11.599
81145W        W49363  30.163   0.263   1.749
81146W        W49364  35.768  34.411   4.271
81147W        W49365  24.467   5.353  13.430
81148W        W49366  20.037  17.417  10.636
81149W        W49367   5.211  24.988   0.850
81150W        W49368   0.742  25.039  11.471
81151W        W49369  30.438  41.255   0.940
81152W        W49370  34.404  31.099   4.075
81153W        W49371  12.273  13.423   4.053
81154W        W49372  13.556   7.347  13.394
81155W        W49373  44.524  34.563  13.263
81156W        W49374  38.292  32.608   4.120
81157W        W49375   4.289  15.553  12.037
81158W        W49376  26.936  31.583   2.000
81159W        W49377  22.678   4.754   2.678
81160W        W49378  29.166  19.971   1.475
81161W        W49379   6.704  29.064   1.332
81162W        W49380   5.844   6.744   0.249
81163W        W49381  27.971  43.739  13.447
81164W        W49382  18.679  39.808  11.142
81165W        W49383  18.579  10.345  14.292
81166W        W49384  41.216  19.526   1.741
81167W        W49385   6.141  13.875  14.453
81168W        W49386  21.262  16.307   0.878
81169W        W49387  18.342  16.727  14.962
81170W        W49388  41.450   9.998   1.947
81171W        W49389  35.418  20.278   3.568
81172W        W49390  10.735  10.046   3.385
81173W        W49391   9.342   8.215   1.200
81174W        W49392  37.095  31.940   0.263
81175W        W49393   8.674   7.376  14.834
81176W        W49394  43.969  36.075  13.838
81177W        W49395   2.242  31.573   4.871
81178W        W49396  36.572  26.686  14.134
81179W        W49397  29.307  37.369   2.989
81180W        W49398  13.226  21.008   3.214
81181W        W49399  30.966  33.471  11.483
81182W        W49400  23.199  40.251  13.010
81183W        W49401   3.875   7.286  12.833
81184W        W49402  23.976   4.249   2.704
81185W        W49403   4.724  25.099   4.142
81186W        W49404  39.941   6.902   3.905
81187W        W49405   5.808  34.850   3.725
81188W        W49406  28.807   1.140  13.001
81189W        W49407  26.132   8.200  11.888
81190W        W49408   2.532  44.916   4.441
81191W        W49409   9.178  43.324   3.197
81192W        W49410  12.259   5.924   2.004
81193W        W49411  32.655  28.507  11.820
81194W        W49412  42.472   7.781   1.953
81195W        W49413   9.870  40.575  12.868
81196W        W49414   5.529  32.703   3.248
81197W        W49415  13.876   4.855  11.288
81198W        W49416  25.608  30.970   1.444
81199W        W49417  35.533  13.493   2.159
81200W        W49418   6.410  39.243   4.621
81201W        W49419   8.930  37.376   1.906
81202W        W49420  29.166  42.291   3.211
81203W        W49421  23.076  42.340  10.539
81204W        W49422  39.957  24.005   1.839
81205W        W49423  32.310  21.486   5.038
81206W        W49424  24.940  23.968  10.697
81207W        W49425   3.158   7.918  13.743
81208W        W49426  28.532  20.480   1.874
81209W        W49427  10.793  16.281   4.247
81210W        W49428  19.565  24.628   3.307
81211W        W49429  40.022   4.724  11.933
81212W        W49430  40.857   8.380  13.467
81213W        W49431  42.413  10.872  14.986
81214W        W49432  21.969  27.962   2.276
81215W        W49433   7.770  24.701  14.422
81216W        W49434  20.128  34.602   0.556
81217W        W49435  28.278  34.860   4.507
81218W        W49436  42.542   2.489   0.299
81219W        W49437  27.128  33.003   1.137
81220W        W49438  41.765   6.332   0.528
81221W        W49439   7.219  33.583  14.349
81222W        W49440  19.776   3.352   2.657
81223W        W49441  13.803  26.458  14.872
81224W        W49442  42.221   6.404  12.906
81225W        W49443  29.190  29.398   1.355
81226W        W49444  37.689  27.595   0.955
81227W        W49445   2.221   9.121  12.038
81228W        W49446  44.930  36.557  13.979
81229W        W49447  35.885  30.262  13.762
81230W        W49448  30.985   2.789  10.232
81231W        W49449  29.118  15.068   0.010
81232W        W49450  37.308   6.425  12.735
81233W        W49451  17.954  31.381  13.389
81234W        W49452  44.441  30.836  13.382
81235W        W49453  10.548  43.995  10.645
81236W        W49454  12.229  34.844   2.801
81237W        W49455  12.813  16.697  13.370
81238W        W49456  19.089  30.933   1.040
81239W        W49457  33.522  34.101   1.393
81240W        W49458  22.518  24.216   1.793
81241W        W49459   0.512  33.547  14.758
81242W        W49460  13.531  13.659  11.564
81243W        W49461  41.322  26.616   0.994
81244W        W49462  13.022  15.815   4.267
81245W        W49463  10.646  17.789  10.717
81246W        W49464  40.750  16.040   2.674
81247W        W49465  24.637  44.995  14.403
81248W        W49466  21.324  38.613   1.776
81249W        W49467  21.277  30.404  11.527
81250W        W49468  38.222   8.728  12.737
81251W        W49469  38.908  23.495  12.644
81252W        W49470  33.594   6.215   9.965
81253W        W49471  30.536  37.912   4.117
81254W        W49472  26.520  23.978   0.937
81255W        W49473  19.586  26.299  10.445
81256W        W49474  42.305  21.772   0.719
81257W        W49475  33.647   7.946  14.661
81258W        W49476  12.611  38.818  14.280
81259W        W49477   1.938  22.536   2.120
81260W        W49478  23.775   1.839  14.419
81261W        W49479   5.642  15.656   3.323
81262W        W49480  15.273  43.868  13.618
81263W        W49481  31.057  12.654  13.755
81264W        W49482   2.453  13.229   3.180
81265W        W49483   0.398  30.053   2.052
81266W        W49484  33.399  40.779   0.428
81267W        W49485  22.243  20.712  13.220
81268W        W49486  41.294  41.633  14.389
81269W        W49487  28.408  15.781   3.182
81270W        W49488  42.863  38.990  10.700
81271W        W49489   6.592   6.831   1.203
81272W        W49490  17.127   8.799  12.129
81273W        W49491  34.669  30.938   0.692
81274W        W49492  21.486  23.162  10.910
81275W        W49493  23.742   7.717  12.443
81276W        W49494  30.768  16.763   4.139
81277W        W49495  39.780  35.923   1.254
81278W        W49496  24.168  39.788   3.656
81279W        W49497  13.686  19.246   4.553
81280W        W49498  33.972  32.644   1.725
81281W        W49499  18.527  24.231  11.140
81282W        W49500  38.237  12.072   1.840
81283W        W49501  19.149   2.748   3.356
81284W        W49502  22.100  37.977  13.376
81285W        W49503  21.791  20.783  10.646
81286W        W49504  44.014  24.412   0.077
81287W        W49505  37.457   7.623  12.377
81288W        W49506  35.998   1.391  14.393
81289W        W49507  43.812  18.323  12.891
81290W        W49508  40.355  29.767  10.166
81291W        W49509  14.687   1.301   4.991
81292W        W49510  36.984  42.457   4.710
81293W        W49511  38.437  11.271  14.083
81294W        W49512  30.458   2.675  14.057
81295W        W49513   7.885   3.820  14.351
81296W        W49514  16.397  26.080   3.646
81297W        W49515  16.797  37.357  13.799
81298W        W49516   9.136  41.015  13.908
81299W        W49517  37.005  18.222  13.291
81300W        W49518   1.682   6.354  12.550
81301W        W49519   5.598  27.747   1.646
81302W        W49520  37.155  37.408  14.751
81303W        W49521  13.694  42.261  12.431
81304W        W49522  23.037   3.023  11.523
81305W        W49523   5.425  44.769   3.211
81306W        W49524  18.055  17.879   1.290
81307W        W49525  38.519  41.910   4.592
81308W        W49526  18.147  43.031  11.865
81309W        W49527  43.592  38.352   3.668
81310W        W49528  10.843  26.230  13.337
81311W        W49529  29.447  17.623   3.257
81312W        W49530  36.845  41.462  13.804
81313W        W49531   2.896  31.645  14.013
81314W        W49532  44.054  34.056  12.830
81315W        W49533  23.492  40.991   2.795
81316W        W49534  44.234   3.006   0.303
81317W        W49535  37.963  22.121   3.291
81318W        W49536  39.343   9.733   2.333
81319W        W49537  38.367  30.389  13.897
81320W        W49538   5.330  26.143  14.658
81321W        W49539  36.559  14.836   0.124
81322W        W49540  35.854   2.916  11.657
81323W        W49541   0.503  27.863  11.055
81324W        W49542  35.558   2.851  13.119
81325W        W49543   4.732  24.607   4.353
81326W        W49544  18.281  40.462  14.298
81327W        W49545  31.526  28.920  11.005
81328W        W49546   7.878   5.869   4.609
81329W        W49547  40.324   2.280   0.856
81330W        W49548  37.698   9.659  13.713
81331W        W49549  42.852  32.628  10.557
81332W        W49550  43.279  39.655   0.493
81333W        W49551  41.317   1.766   2.725
81334W        W49552  43.343  32.402   1.652
81335W        W49553  30.936   7.314   0.832
81336W        W49554  22.257   7.973  11.523
81337W        W49555  25.426  32.039   4.186
81338W        W49556  20.948   9.224   1.954
81339W        W49557  13.352  44.052   3.628
81340W        W49558  41.296   9.821  11.681
81341W        W49559  10.755   9.128  13.053
81342W        W49560  21.032  38.349  13.875
81343W        W49561  22.794   6.439  12.086
81344W        W49562   2.895  17.753   4.007
81345W        W49563  28.584  11.060  11.804
81346W        W49564  11.773  43.032  13.722
81347W        W49565  30.711   2.756   3.220
81348W        W49566  19.276  31.501   4.614
81349W        W49567  31.812  41.965  12.340
81350W        W49568  35.853  22.603   4.502
81351W        W49569  38.315  38.846   3.923
81352W        W49570  34.797  30.386   1.461
81353W        W49571  24.648  19.255  13.586
81354W        W49572   8.716  17.648  13.466
81355W        W49573   5.721  42.983  12.777
81356W        W49574  11.176  27.251  14.365
81357W        W49575  18.178  28.604  14.457
81358W        W49576  10.076  21.889   4.050
81359W        W49577  18.203  12.027  10.303
81360W        W49578   8.796   0.476  11.210
81361W        W49579  26.413  27.220  13.325
81362W        W49580  14.331  22.041  14.941
81363W        W49581   2.390  18.075   4.130
81364W        W49582   5.431  40.902  13.121
81365W        W49583   3.528  19.359   0.592
81366W        W49584  27.119   4.657  10.632
81367W        W49585  27.468  34.926   2.835
81368W        W49586  12.106  15.087  11.091
81369W        W49587  21.098  30.596   4.666
81370W        W49588  14.257  13.730   1.146
81371W        W49589  40.449  25.299  10.657
81372W        W49590  22.986  12.302  13.760
81373W        W49591  28.058  18.686   0.734
81374W        W49592  28.699   7.020   1.750
81375W        W49593  16.093  43.343  11.215
81376W        W49594  18.609  38.930  12.077
81377W        W49595  32.029  31.727   0.727
81378W        W49596   0.777  41.998  14.354
81379W        W49597  21.168  32.531  10.728
81380W        W49598  37.216  35.679  11.094
81381W        W49599   6.314  21.353   0.352
81382W        W49600  18.813  25.516  14.958
81383W        W49601  40.586  29.999  11.593
81384W        W49602  13.377   3.420   1.416
81385W        W49603  30.425  17.353  12.246
81386W        W49604  38.507  17.062  14.009
81387W        W49605   5.088  40.760  11.950
81388W        W49606   0.895  38.937  11.562
81389W        W49607  38.256  24.368   4.114
81390W        W49608  37.673  26.913  12.360
81391W        W49609   5.227   8.482   1.481
81392W        W49610   4.259  40.382   3.869
81393W        W49611  44.454  11.620   4.553
81394W        W49612   0.723  25.058   3.195
81395W        W49613   1.611  25.926  13.719
81396W        W49614  27.389  43.570   1.354
81397W        W49615  44.090  23.087   1.750
81398W        W49616  17.884  19.590  12.332
81399W        W49617  43.017  15.152   3.830
81400W        W49618  22.650  41.002   0.713
81401W        W49619  40.757   9.053   3.779
81402W        W49620  20.635   7.042  14.420
81403W        W49621  32.001  21.549  13.522
81404W        W49622  43.756  39.639  13.913
81405W        W49623  28.936  17.139  14.893
81406W        W49624   9.731  37.053  14.879
81407W        W49625  33.985  42.988  12.871
81408W        W49626  29.723   6.395  12.416
81409W        W49627   0.891  10.040   1.438
81410W        W49628  11.149   5.299   2.657
81411W        W49629  26.619  10.386  14.758
81412W        W49630   8.684   6.230   1.123
81413W        W49631  19.139   2.234   3.208
81414W        W49632  32.348  27.157  13.333
81415W        W49633  35.131  42.521  10.740
81416W        W49634  40.061  17.885   4.686
81417W        W49635   9.554  24.212  14.729
81418W        W49636  37.392   1.556  11.483
81419W        W49637   8.711  40.332   4.872
81420W        W49638   6.385  36.086   2.170
81421W        W49639  12.452  36.362   0.522
81422W        W49640  44.285  11.448  13.339
81423W        W49641  39.463  44.760  12.857
81424W        W49642  44.393  39.792   3.639
81425W        W49643  30.588   3.759   2.651
81426W        W49644  32.352  44.780  12.614
81427W        W49645  31.167  31.588   4.706
81428W        W49646  28.799  18.755   5.001
81429W        W49647  44.843   5.421   1.955
81430W        W49648  34.673  10.208   4.649
81431W        W49649  23.980  18.985   4.537
81432W        W49650  32.581   6.453  14.582
81433W        W49651  11.307  30.240   0.402
81434W        W49652  26.204  38.475  13.414
81435W        W49653   0.967  26.198  12.900
81436W        W49654  37.893  36.633  13.445
81437W        W49655  34.135  28.991  14.113
81438W        W49656  41.016   6.820  13.319
81439W        W49657   0.784  22.589   1.901
81440W        W49658  35.081  37.510   3.170
81441W        W49659  42.325  27.433  13.440
81442W        W49660  26.461  19.237   1.285
81443W        W49661  12.661  31.648   4.389
81444W        W49662  34.875  26.201  12.494
81445W        W49663  39.668  13.833   3.188
81446W        W49664  32.543  16.127  12.556
81447W        W49665  18.316  21.716  11.489
81448W        W49666  36.597   3.196   3.225
81449W        W49667  22.983  34.567  10.883
81450W        W49668  42.069  37.446  11.604
81451W        W49669  28.354  42.293   0.385
81452W        W49670  25.798   3.973   0.473
81453W        W49671  26.725  39.106   0.778
81454W        W49672  11.180  43.225   4.398
81455W        W49673  16.030   9.359   4.572
81456W        W49674  38.165   3.861   0.361
81457W        W49675  12.671  27.921  10.631
81458W        W49676  44.037   5.848  12.226
81459W        W49677   9.713  34.642  11.861
81460W        W49678  11.742   0.734  12.931
81461W        W49679  24.779  19.166  10.796
81462W        W49680  31.893   6.196   0.307
81463W        W49681  36.848  34.519  12.755
81464W        W49682  27.784  36.964  13.770
81465W        W49683  24.923  19.748   0.775
81466W        W49684  22.915  33.413   3.790
81467W        W49685  27.992  25.118  12.397
81468W        W49686  34.887   5.233   1.368
81469W        W49687  22.138  36.412  13.494
81470W        W49688  17.499  21.170  14.499
81471W        W49689  22.437  37.644  11.158
81472W        W49690  41.109  24.672   4.158
81473W        W49691   2.881  20.479  14.788
81474W        W49692  44.577  25.754  11.257
81475W        W49693  29.912  39.485  13.338
81476W        W49694  22.955  39.757   3.075
81477W        W49695  39.111  16.190   4.555
81478W        W49696  25.781  31.566   0.220
81479W        W49697  15.955  13.493  11.617
81480W        W49698  25.167  41.988   1.453
81481W        W49699   6.889   3.700  14.470
81482W        W49700  41.968  19.667   0.046
81483W        W49701  39.917  31.285   4.764
81484W        W49702  22.797  14.823   4.163
81485W        W49703  42.270  19.847   0.997
81486W        W49704  18.072  37.337   0.261
81487W        W49705  35.915   1.282   3.236
81488W        W49706  12.779   2.248  11.877
81489W        W49707  24.970  13.620  14.928
81490W        W49708  40.960  37.645   0.324
81491W        W49709   5.889  23.627   2.671
81492W        W49710   9.289  13.751  10.642
81493W        W49711  12.555  26.524  11.550
81494W        W49712   4.006  11.288  14.893
81495W        W49713   4.386  43.523   4.729
81496W        W49714  37.883  44.731  12.065
81497W        W49715  23.520  24.798   5.057
81498W        W49716   0.369  25.161  12.700
81499W        W49717   2.517  23.597   1.569
81500W        W49718   9.343  25.150   5.259
81501W        W49719  14.180  20.701   0.900
81502W        W49720   1.831  16.629  12.523
81503W        W49721  42.195  17.646   0.757
81504W        W49722  17.847  31.520   4.242
81505W        W49723  41.368   3.340   1.224
81506W        W49724  10.605  16.020   0.390
81507W        W49725   9.235  11.183   3.813
81508W        W49726  40.653  19.679  12.596
81509W        W49727  43.460  43.714  12.510
81510W        W49728  22.713  15.624  10.737
81511W        W49729  32.269   1.408   1.170
81512W        W49730  21.755  12.656  14.016
81513W        W49731  31.953  41.927   1.796
81514W        W49732   6.148  42.465  13.473
81515W        W49733   8.798  22.561   2.645
81516W        W49734  27.850   5.758  13.106
81517W        W49735   9.085  16.013   0.759
81518W        W49736  21.101  41.984  13.397
81519W        W49737  33.051  44.995   2.105
81520W        W49738  18.632  11.783   1.938
81521W        W49739  21.217  44.080   4.252
81522W        W49740  18.617  31.952  11.695
81523W        W49741   2.757  11.355  14.160
81524W        W49742  29.922  24.470   2.266
81525W        W49743  25.774  32.554  14.911
81526W        W49744  30.615  39.181  13.961
81527W        W49745  32.939  39.503   4.593
81528W        W49746  41.116   0.721   3.611
81529W        W49747   1.350  12.322   1.260
81530W        W49748  14.779  10.567  11.172
81531W        W49749   7.521   4.720   1.787
81532W        W49750  30.466  27.091   2.665
81533W        W49751  43.752  31.933   2.401
81534W        W49752  43.260   4.715   4.124
81535W        W49753  41.676  38.768  14.470
81536W        W49754   4.963  37.046   3.329
81537W        W49755  39.424  22.201  14.540
81538W        W49756  19.664  13.215  12.659
81539W        W49757  10.574  22.408   3.417
81540W        W49758   3.303   2.459   1.363
81541W        W49759  32.706  24.049  14.464
81542W        W49760  23.701  34.113   2.558
81543W        W49761   6.625  25.360  13.886
81544W        W49762  36.865  26.166  11.550
81545W        W49763  41.953  44.407   0.196
81546W        W49764   2.231  22.882  10.895
81547W        W49765  19.627  36.117   0.734
81548W        W49766  18.278  19.560  10.444
81549W        W49767  23.533  19.976  13.809
81550W        W49768  33.024  11.225   3.583
81551W        W49769  18.143  29.621  14.566
81552W        W49770   9.600  44.700  11.305
81553W        W49771   0.224  20.995  14.023
81554W        W49772  39.427  24.791   0.771
81555W        W49773   0.104   8.470   1.813
81556W        W49774  33.482  26.039  14.542
81557W        W49775  37.162  24.590  14.385
81558W        W49776  17.176   5.881  13.363
81559W        W49777  42.077  39.334  10.764
81560W        W49778  27.046  25.917  12.169
81561W        W49779  25.449  20.096  12.454
81562W        W49780  21.557  22.201   3.039
81563W        W49781  14.804  19.569  13.820
81564W        W49782   1.386   3.282  11.172
81565W        W49783   4.733  22.542  10.690
81566W        W49784  40.846  12.687   3.755
81567W        W49785  20.642  43.980  13.381
81568W        W49786  27.167  34.004   0.929
81569W        W49787  44.738   3.925  12.001
81570W        W49788  10.090  44.825  11.452
81571W        W49789  21.705  19.685   4.534
81572W        W49790  28.518  40.912   0.271
81573W        W49791  30.941  34.054   0.922
81574W        W49792  17.092  42.942  14.808
81575W        W49793  40.981  14.777  14.962
81576W        W49794  40.276  20.733  11.767
81577W        W49795   2.282  28.203  11.486
81578W        W49796  25.803   0.499  14.318
81579W        W49797  38.413  32.383  11.831
81580W        W49798  43.389  18.511   2.653
81581W        W49799  32.961   9.268  12.497
81582W        W49800  26.655  30.738   4.603
81583W        W49801  30.416  26.571  12.549
81584W        W49802   6.269  15.676   0.998
81585W        W49803  12.567  17.296  12.991
81586W        W49804  23.058  42.927   0.466
81587W        W49805  22.250  20.221  13.018
81588W        W49806  28.421   1.326   3.124
81589W        W49807   2.294   7.872   3.572
81590W        W49808  13.097   8.865  10.161
81591W        W49809  14.559   7.921  12.545
81592W        W49810  23.046   2.417  12.105
81593W        W49811  44.492  26.661  12.864
81594W        W49812   1.643   8.320  13.639
81595W        W49813  43.812  34.229   4.054
81596W        W49814  10.799  15.550   4.733
81597W        W49815   3.153  44.704   0.299
81598W        W49816  44.680  16.834  14.985
81599W        W49817  41.911   7.066  10.471
81600W        W49818  26.804  35.557  12.160
81601W        W49819  27.609  20.901   1.639
81602W        W49820  43.079  13.847  13.867
81603W        W49821   9.136  35.990   1.243
81604W        W49822  42.406  41.619  13.198
81605W        W49823   7.433  31.148  11.712
81606W        W49824  24.063  15.259  12.436
81607W        W49825   2.671   9.996  12.782
81608W        W49826  42.521  17.166   1.779
81609W        W49827   4.766   8.620   3.734
81610W        W49828  18.084   7.436   4.505
81611W        W49829  19.445  41.648   4.158
81612W        W49830  33.137  28.739  13.979
81613W        W49831  35.143   4.687   1.119
81614W        W49832  41.086  39.889   4.234
81615W        W49833   1.891  33.379  13.592
81616W        W49834  15.196  20.811  13.899
81617W        W49835  35.457  24.747   2.616
81618W        W49836  16.638  28.381   2.429
81619W        W49837  12.790   1.866  10.942
81620W        W49838  17.361  42.828   3.686
81621W        W49839  32.827  22.142   3.080
81622W        W49840   4.784  14.110   4.434
81623W        W49841   3.373   2.016  14.079
81624W        W49842  18.814   4.410  11.935
81625W        W49843  38.994  32.150  12.514
81626W        W49844  16.126   3.374   4.962
81627W        W49845  17.311  20.011  14.691
81628W        W49846  26.026  40.352  11.916
81629W        W49847   1.670  35.212   3.055
81630W        W49848   1.381  21.050   4.735
81631W        W49849  27.958  32.185  14.419
81632W        W49850  33.467  19.076   3.712
81633W        W49851  44.732  12.698   0.323
81634W        W49852  24.062  44.930  10.991
81635W        W49853  26.242   6.816   1.197
81636W        W49854  41.060  30.468   0.842
81637W        W49855  27.155   5.243  12.889
81638W        W49856  42.391  24.149   1.828
81639W        W49857  30.573  24.191   0.069
81640W        W49858  17.808  20.212   1.850
81641W        W49859   3.896  42.137   5.030
81642W        W49860  15.232  17.173   2.643
81643W        W49861  36.753  44.406  11.244
81644W        W49862  17.094   2.862   0.340
81645W        W49863  14.715  15.327  14.672
81646W        W49864  11.182  33.451   0.975
81647W        W49865  11.489  23.194   0.511
81648W        W49866   7.652  26.110  13.143
81649W        W49867  35.953  13.083  11.654
81650W        W49868   5.897  23.523  11.170
81651W        W49869  39.323  41.857   4.127
81652W        W49870   1.794  41.469  12.986
81653W        W49871   4.376   6.352   2.723
81654W        W49872  33.561   4.996  12.440
81655W        W49873  27.631   2.956   2.265
81656W        W49874  42.423  19.162  12.541
81657W        W49875  29.857  35.378   1.292
81658W        W49876  16.762  38.007   4.135
81659W        W49877  33.984   5.490   4.146
81660W        W49878  24.668  28.481   0.897
81661W        W49879   6.603  12.429  11.229
81662W        W49880   5.666  40.583  12.570
81663W        W49881  21.354  25.614  14.727
81664W        W49882  16.068  14.209   0.389
81665W        W49883  28.507  36.733   2.271
81666W        W49884  20.131   0.821   3.112
81667W        W49885   0.048   6.715   4.486
81668W        W49886  43.060  16.547   2.369
81669W        W49887   8.187  29.949   4.908
81670W        W49888  40.586  42.393   4.103
81671W        W49889   8.597   6.687  11.817
81672W        W49890   2.281  21.462   0.777
81673W        W49891  17.557  31.130   3.683
81674W        W49892  39.439  40.728   3.172
81675W        W49893   5.285  36.060  11.151
81676W        W49894  23.476  19.466   3.872
81677W        W49895  29.818  26.757   4.957
81678W        W49896  32.136  15.791  14.815
81679W        W49897  28.101  27.253  10.761
81680W        W49898  27.447   4.404   1.872
81681W        W49899   8.227   3.713   3.726
81682W        W49900  18.795  19.488   1.287
81683W        W49901   3.949   7.829   1.254
81684W        W49902  18.898  37.397   2.331
81685W        W49903  42.198  17.565   1.649
81686W        W49904  41.538  26.459   3.280
81687W        W49905  16.322  40.283   0.871
81688W        W49906  41.119  22.954   2.804
81689W        W49907   1.455  32.194   4.737
81690W        W49908  14.387  28.399   2.135
81691W        W49909  42.376  43.688   3.014
81692W        W49910  16.504  43.951   1.241
81693W        W49911  20.755  23.105   2.216
81694W        W49912  20.538  36.877  14.006
81695W        W49913   4.242  34.901  14.579
81696W        W49914  39.117  19.562   3.274
81697W        W49915   3.542  16.614   3.953
81698W        W49916  44.124   5.599  13.572
81699W        W49917  14.799  29.909   4.405
81700W        W49918  18.153  22.131   0.954
81701W        W49919  27.624   3.296  12.893
81702W        W49920   9.288  27.428  10.548
81703W        W49921  31.563   2.045  10.356
81704W        W49922  33.712  38.267   3.620
81705W        W49923   6.437  10.809  10.612
81706W        W49924  11.055  31.770  13.289
81707W        W49925   3.721  17.791   0.185
81708W        W49926  23.727   4.708   2.741
81709W        W49927   0.583  36.131  11.101
81710W        W49928  24.682  25.566  12.012
81711W        W49929   4.208  31.401   4.181
81712W        W49930  44.793  18.777  14.895
81713W        W49931   1.948  37.820  11.729
81714W        W49932  26.557   4.372   3.558
81715W        W49933  36.317  17.743   4.896
81716W        W49934   8.509  24.678   4.219
81717W        W49935  28.337  19.577   4.994
81718W        W49936  23.404   3.886  14.302
81719W        W49937  43.500  23.230  11.618
81720W        W49938   8.875  44.292  11.463
81721W        W49939  42.691  28.159  11.570
81722W        W49940  34.939  35.747   0.455
81723W        W49941  44.245  25.273  14.248
81724W        W49942   4.131  21.048   3.195
81725W        W49943  23.634  15.305   3.331
81726W        W49944  33.292  21.719   1.399
81727W        W49945  23.103  11.730   2.208
81728W        W49946  24.435  20.111  12.438
81729W        W49947  10.358  18.259   5.245
81730W        W49948  41.451  30.637  11.646
81731W        W49949   3.802  15.621   3.019
81732W        W49950  38.531   3.187  12.053
81733W        W49951  24.280  24.312  10.175
81734W        W49952   1.757   1.710   2.673
81735W        W49953  11.620  20.753  11.259
81736W        W49954  16.997   7.201   0.331
81737W        W49955  31.406  40.513  12.168
81738W        W49956  42.006  34.034  10.710
81739W        W49957  11.265  11.586   4.169
81740W        W49958  16.874  34.856  13.596
81741W        W49959   9.699  21.144  12.994
81742W        W49960   8.806  34.094   2.205
81743W        W49961   0.875  40.981  14.394
81744W        W49962  30.578   9.177  14.435
81745W        W49963   5.763  19.961  12.915
81746W        W49964  15.019  26.462  12.586
81747W        W49965  43.888  39.111  14.011
81748W        W49966  23.668  30.946   1.973
81749W        W49967  36.033  25.582   1.207
81750W        W49968  30.903  37.903   2.863
81751W        W49969  40.773   6.730  12.038
81752W        W49970  24.317  23.178   4.122
81753W        W49971  21.063  30.962  10.695
81754W        W49972   5.279  39.999   4.465
81755W        W49973  37.123  31.831  11.654
81756W        W49974  32.426   3.694  11.589
81757W        W49975   6.219   5.281  13.837
81758W        W49976  35.905  21.298   1.665
81759W        W49977  12.064  41.404  14.976
81760W        W49978   4.967   8.818  14.950
81761W        W49979  38.574  33.586  13.037
81762W        W49980   2.747   6.263   0.528
81763W        W49981  41.081  38.439   1.628
81764W        W49982   0.556   4.776   3.306
81765W        W49983  23.602  11.870   3.442
81766W        W49984   1.361  24.938   4.363
81767W        W49985  10.848   6.662   0.849
81768W        W49986  34.594   6.663   2.267
81769W        W49987  31.070   5.354  10.335
81770W        W49988  37.505   2.500   2.852
81771W        W49989  33.109  39.240  13.112
81772W        W49990  16.334  27.058  11.131
81773W        W49991  13.087  19.296   0.399
81774W        W49992   5.926  38.847  13.348
81775W        W49993  17.688   9.644   4.573
81776W        W49994  40.848   1.832  12.606
81777W        W49995  14.778  34.972  13.158
81778W        W49996   6.654   3.937   4.122
81779W        W49997  43.289  43.732  13.418
81780W        W49998  43.410  35.971   2.648
81781W        W49999  10.329  29.666   4.683
81782W        W50000  15.955  15.644  11.060
81783W        W50001  28.188  13.913  10.294
81784W        W50002  29.062  26.249  12.678
81785W        W50003  10.731  23.576  12.908
81786W        W50004  35.408  43.934  13.375
81787W        W50005  35.189  25.898  13.767
81788W        W50006  15.024  10.911  14.345
81789W        W50007   9.759  16.566  12.375
81790W        W50008  31.031  13.086  14.068
81791W        W50009  14.303   3.453  14.916
81792W        W50010  22.899   7.299   2.512
81793W        W50011  32.585  27.725   2.523
81794W        W50012  27.623   7.715  12.787
81795W        W50013   2.424  30.275  14.975
81796W        W50014  29.891  30.073   1.433
81797W        W50015   8.942  16.569  11.034
81798W        W50016  41.230  40.153  12.400
81799W        W50017  32.763   0.451  13.912
81800W        W50018  16.526  11.357   4.160
81801W        W50019  29.924  29.942  11.134
81802W        W50020  10.189  42.580  11.427
81803W        W50021  41.154  36.902  12.509
81804W        W50022  24.958  15.027  12.450
81805W        W50023   4.789  33.515   4.568
81806W        W50024  33.561  41.651  11.571
81807W        W50025   6.916  16.211   2.756
81808W        W50026  21.753  20.164  13.596
81809W        W50027  26.036  36.068   2.360
81810W        W50028   2.504  28.460   4.113
81811W        W50029  38.804  12.205   3.677
81812W        W50030  43.331  28.205  13.530
81813W        W50031  38.681  38.326   1.913
81814W        W50032  40.002   8.113  11.613
81815W        W50033  14.925  14.420  14.437
81816W        W50034   9.248   0.025   1.739
81817W        W50035   7.381  44.563  11.134
81818W        W50036  30.548  21.822   2.845
81819W        W50037  16.681  28.192  12.934
81820W        W50038  20.034   2.239   3.185
81821W        W50039  40.274  26.425  13.959
81822W        W50040  25.696  27.714  11.959
81823W        W50041  25.457  38.551   2.173
81824W        W50042  27.739  34.304   4.105
81825W        W50043  32.227  33.163   4.159
81826W        W50044  38.072  33.816  13.078
81827W        W50045  11.906  12.247   0.175
81828W        W50046  28.141  16.017  13.851
81829W        W50047  25.612  23.226   2.733
81830W        W50048  22.344  22.300   0.126
81831W        W50049  10.270  17.064   1.266
81832W        W50050   5.693  27.243   1.241
81833W        W50051  29.571   6.364   0.509
81834W        W50052   2.412   3.663  13.447
81835W        W50053  16.301  26.083   4.584
81836W        W50054  12.608  24.978   4.210
81837W        W50055   6.265  17.949  14.410
81838W        W50056  27.923  23.734   2.199
81839W        W50057  40.064  14.621  13.906
81840W        W50058  41.777  43.020   1.912
81841W        W50059  28.723  14.390   1.414
81842W        W50060  36.948  35.454  10.655
81843W        W50061  35.365  39.802   1.222
81844W        W50062   2.745   8.888   2.974
81845W        W50063  15.005  33.570  14.344
81846W        W50064  13.754  13.828   0.920
81847W        W50065  19.700  12.744  12.853
81848W        W50066  17.725  13.182  11.541
81849W        W50067  28.618  22.440   5.095
81850W        W50068   9.520  33.072   2.697
81851W        W50069  32.703   1.749   1.412
81852W        W50070  19.559  34.592   0.978
81853W        W50071   8.665  42.157  11.110
81854W        W50072  29.894  25.667   3.674
81855W        W50073  43.881  36.414   0.615
81856W        W50074  10.742  27.555   2.209
81857W        W50075  25.423   2.943   3.306
81858W        W50076  14.602  18.041  14.439
81859W        W50077  33.491  39.537  11.464
81860W        W50078  43.924  42.999  12.020
81861W        W50079   6.737  12.627  11.674
81862W        W50080  22.302  40.062  11.645
81863W        W50081  34.462  29.220  11.733
81864W        W50082  34.072  42.321  14.346
81865W        W50083  21.748  35.046   1.626
81866W        W50084  44.471  38.063   2.296
81867W        W50085  12.847  31.721   4.895
81868W        W50086  34.541   3.017  13.111
81869W        W50087  12.547   1.797   0.264
81870W        W50088   7.250   6.708   4.241
81871W        W50089   0.681  43.858  13.969
81872W        W50090  10.215  30.857  10.149
81873W        W50091   2.643  40.002  13.181
81874W        W50092  34.909  32.088  10.352
81875W        W50093  34.494  31.150  11.542
81876W        W50094   0.214  28.707   0.254
81877W        W50095   6.849  34.444   0.457
81878W        W50096  35.967  41.898  11.832
81879W        W50097  30.005   6.467   3.549
81880W        W50098   7.320   2.244  13.960
81881W        W50099  30.115   7.084   4.156
81882W        W50100   4.882  44.196   0.521
81883W        W50101  14.265   1.585  13.843
81884W        W50102  21.428  42.800   4.723
81885W        W50103   4.923  42.551  11.169
81886W        W50104  16.988   3.420   3.270
81887W        W50105  17.546   4.847  10.485
81888W        W50106  19.494  41.582  12.835
81889W        W50107  12.475  10.523  10.789
81890W        W50108  42.290  30.204  12.392
81891W        W50109  24.218  24.061  12.899
81892W        W50110  44.055  28.440   3.986
81893W        W50111  41.776  16.957  10.336
81894W        W50112  31.247  34.820  13.564
81895W        W50113  34.910  42.098  14.738
81896W        W50114   8.680  16.349   0.648
81897W        W50115  33.398   3.474  12.097
81898W        W50116   9.003  16.642   2.717
81899W        W50117  11.410  35.605  11.542
81900W        W50118  24.136  37.011  14.976
81901W        W50119   2.470  27.233  11.470
81902W        W50120  33.145  18.678   3.778
81903W        W50121  24.227   7.707  14.250
81904W        W50122  24.543  32.636   3.572
81905W        W50123  18.685  16.334   3.239
81906W        W50124   7.929   1.211  10.896
81907W        W50125  23.322  33.911   5.486
81908W        W50126   4.114  33.357  11.122
81909W        W50127  22.524  14.226   3.389
81910W        W50128  10.011  30.761   4.039
81911W        W50129  42.761  18.295   0.402
81912W        W50130  11.973  40.796   2.288
81913W        W50131   1.901  41.160  13.372
81914W        W50132   8.656   0.627   1.981
81915W        W50133   9.619  32.436  14.268
81916W        W50134   1.071  26.917   3.770
81917W        W50135  20.681  33.077   3.668
81918W        W50136  35.520  25.592   1.325
81919W        W50137  12.273  21.833   1.307
81920W        W50138  38.377  11.934   3.619
81921W        W50139  31.035  24.024  12.487
81922W        W50140   5.293  17.410   0.385
81923W        W50141  23.240  44.753   2.377
81924W        W50142   4.012  34.387  14.609
81925W        W50143  12.156  22.419   4.803
81926W        W50144   6.195   3.860   3.899
81927W        W50145  21.850  10.641   0.218
81928W        W50146  32.113  30.844   1.686
81929W        W50147   5.359   1.435   3.739
81930W        W50148  42.972  40.915   2.728
81931W        W50149  30.468  12.324  12.547
81932W        W50150   7.385  44.305   3.600
81933W        W50151  33.241  12.114  11.032
81934W        W50152   8.914  13.081  12.102
81935W        W50153   6.402  36.987  11.246
81936W        W50154   1.471  13.749   4.716
81937W        W50155  38.631  41.437  11.611
81938W        W50156  25.704   0.134  11.734
81939W        W50157  24.163  15.685   0.674
81940W        W50158   7.841   5.734   0.473
81941W        W50159   0.773   8.585   1.208
81942W        W50160  39.173  19.298   4.133
81943W        W50161  31.164  28.024   3.236
81944W        W50162  20.069  41.558  13.490
81945W        W50163  18.528  19.115   0.084
81946W        W50164  39.158  16.512  13.782
81947W        W50165  28.466  15.412  10.837
81948W        W50166  24.728  16.101  11.028
81949W        W50167  44.565   9.631   3.741
81950W        W50168  25.270  44.344  10.817
81951W        W50169   2.936   1.051  14.946
81952W        W50170  11.095  23.197  12.970
81953W        W50171   6.204  28.601  11.225
81954W        W50172   8.305   8.347   0.551
81955W        W50173  21.105  31.694   0.997
81956W        W50174   3.345   6.219   1.196
81957W        W50175   2.936  20.192   0.459
81958W        W50176  32.883   2.716   4.524
81959W        W50177  33.856  43.989  14.228
81960W        W50178   9.254  22.140   0.517
81961W        W50179  41.260  23.256  11.244
81962W        W50180  20.546   3.625  11.391
81963W        W50181  31.609  42.752   3.207
81964W        W50182   0.224  31.037  11.658
81965W        W50183  35.531   5.902   1.386
81966W        W50184   4.845  44.319   1.456
81967W        W50185  44.064  37.385  14.462
81968W        W50186  43.397  17.064  13.566
81969W        W50187   6.615  38.142   0.667
81970W        W50188  22.754  12.554   1.473
81971W        W50189  39.532   7.716   3.849
81972W        W50190  24.954  27.690  14.377
81973W        W50191  32.706  21.840  10.374
81974W        W50192  22.649  35.295   1.747
81975W        W50193   0.904   8.582   0.357
81976W        W50194  35.536  14.497  10.787
81977W        W50195  41.670   5.414   0.388
81978W        W50196   9.148  17.339  12.893
81979W        W50197   5.466  28.987  12.441
81980W        W50198  39.372  31.377  13.872
81981W        W50199  13.776  32.749  14.370
81982W        W50200  15.558  37.982  10.795
81983W        W50201  25.671  32.199   3.759
81984W        W50202  18.064  40.725   2.970
81985W        W50203  26.610   4.703   3.006
81986W        W50204  37.844  16.231  13.405
81987W        W50205   4.183  29.489   3.057
81988W        W50206  33.903  40.492  12.283
81989W        W50207   2.570  16.075  11.658
81990W        W50208  16.616  28.951  11.523
81991W        W50209  36.061  10.649   0.824
81992W        W50210  19.977   7.928  13.105
81993W        W50211  13.469  14.321  13.568
81994W        W50212  23.030   6.943   5.059
81995W        W50213  32.060  19.243   4.099
81996W        W50214   8.967  26.905  10.810
81997W        W50215  15.306  43.259  14.847
81998W        W50216  20.723  38.936   1.004
81999W        W50217  21.495  21.795  10.770
82000W        W50218  24.193  37.454   3.364
82001W        W50219  12.545   1.378   4.214
82002W        W50220   5.905  29.000  11.155
82003W        W50221  12.792  44.020  11.211
82004W        W50222  40.501   3.394  12.120
82005W        W50223   1.695  12.576   4.359
82006W        W50224  40.490  39.556  12.944
82007W        W50225  12.224   1.757  14.850
82008W        W50226  44.321  16.226  13.362
82009W        W50227  26.696  37.870   1.259
82010W        W50228  21.447   4.835   4.221
82011W        W50229   8.395  14.102   2.391
82012W        W50230  39.421  13.064   2.770
82013W        W50231  19.235  32.577   2.404
82014W        W50232   6.686  17.307   4.173
82015W        W50233  23.039  28.056   3.247
82016W        W50234  18.583  37.022   4.441
82017W        W50235  15.558  33.480   4.815
82018W        W50236  27.608  27.138  13.066
82019W        W50237  41.870  41.439   0.711
82020W        W50238   3.444   0.734  13.817
82021W        W50239  19.306  24.982  13.226
82022W        W50240   5.763  16.567   0.409
82023W        W50241   0.050  43.823   1.789
82024W        W50242  34.557  16.907   3.074
82025W        W50243  28.392  27.000  13.739
82026W        W50244  37.314  36.422   0.940
82027W        W50245  39.082  20.128   0.783
82028W        W50246  25.182  28.388   1.808
82029W        W50247   7.699   7.898  12.977
82030W        W50248  39.061  38.954   4.072
82031W        W50249  14.055  43.232  13.566
82032W        W50250   7.920  34.804  11.256
82033W        W50251  31.494   3.266   0.422
82034W        W50252  12.779  33.973   1.371
82035W        W50253   1.988  17.045  11.138
82036W        W50254  35.341   0.002   0.484
82037W        W50255  12.091   5.230  11.577
82038W        W50256  42.157  22.326   4.155
82039W        W50257  33.482  32.584   1.476
82040W        W50258  10.597   3.352   5.067
82041W        W50259  40.167   7.278   2.390
82042W        W50260   2.868  23.008   0.230
82043W        W50261   3.455  38.634  11.964
82044W        W50262   4.796   4.013  12.969
82045W        W50263  16.821  20.642  11.234
82046W        W50264  11.730  19.473   3.802
82047W        W50265  33.873  12.805   2.883
82048W        W50266  23.236   4.437   1.236
82049W        W50267   0.934  26.382   0.927
82050W        W50268   7.177  23.542  11.077
82051W        W50269  34.586  37.110  14.219
82052W        W50270  34.927  44.204  11.466
82053W        W50271  36.014  28.376  14.090
82054W        W50272  34.870  12.364  13.314
82055W        W50273   1.059   8.818   2.722
82056W        W50274  42.006  19.631   2.275
82057W        W50275  41.553  25.938  13.142
82058W        W50276   6.343   5.773   4.598
82059W        W50277  44.912   7.554   1.824
82060W        W50278   4.501  25.462   2.313
82061W        W50279  13.243  26.630  11.594
82062W        W50280  36.011  26.087   1.023
82063W        W50281   1.638  30.515  12.545
82064W        W50282  27.732  23.351  12.372
82065W        W50283  22.325  41.515   4.238
82066W        W50284  41.152  13.614   2.563
82067W        W50285   5.013   1.431  14.892
82068W        W50286  35.735  19.202  11.463
82069W        W50287  41.380  29.007  12.408
82070W        W50288  37.809  38.014  14.989
82071W        W50289  42.572  27.247   4.110
82072W        W50290   0.996  36.474  11.796
82073W        W50291  40.754  41.480  11.651
82074W        W50292   1.869  23.486  12.655
82075W        W50293  14.826  11.808  11.754
82076W        W50294  10.994  42.890  12.052
82077W        W50295  29.009  10.830  11.576
82078W        W50296  38.834   1.700  13.418
82079W        W50297  31.155   4.362   3.598
82080W        W50298  29.353   5.349   4.544
82081W        W50299   8.948  42.919  10.629
82082W        W50300  13.510  12.313   1.844
82083W        W50301  14.213   1.438  10.951
82084W        W50302  26.661  38.507   3.477
82085W        W50303  31.874  42.698  12.127
82086W        W50304  25.622  12.743   1.965
82087W        W50305  25.982   1.261   1.871
82088W        W50306  29.454   1.326   3.273
82089W        W50307  18.748  36.292   4.554
82090W        W50308  37.134  18.095  11.476
82091W        W50309  11.282  44.758   3.149
82092W        W50310   3.940  43.723   2.241
82093W        W50311  12.117  39.213  11.550
82094W        W50312  11.631  43.277  11.106
82095W        W50313  38.908  22.278  10.758
82096W        W50314  11.706  41.507  11.940
82097W        W50315  29.919  17.302  12.171
82098W        W50316  13.566  14.250   0.499
82099W        W50317  33.689  24.661   1.472
82100W        W50318   6.904  13.073   1.209
82101W        W50319  33.496   1.201   4.740
82102W        W50320  33.879  26.012   4.326
82103W        W50321   7.613   2.688  11.592
82104W        W50322  27.899  30.936   4.570
82105W        W50323  25.213  13.980   2.348
82106W        W50324  15.524  29.642  14.169
82107W        W50325   2.778   9.206   1.668
82108W        W50326  35.397   7.814  13.504
82109W        W50327  32.113  14.319  12.767
82110W        W50328  11.576  11.686  11.391
82111W        W50329  31.589   8.190  11.200
82112W        W50330  17.956  24.550  12.522
82113W        W50331  18.611   2.618  12.873
82114W        W50332   0.265  11.195  14.803
82115W        W50333  13.228  21.803   2.797
82116W        W50334   7.955   8.953  13.357
82117W        W50335   1.790   9.275  12.922
82118W        W50336   0.977  36.385  13.167
82119W        W50337  12.706  26.509  13.809
82120W        W50338   3.389  17.870   4.260
82121W        W50339  15.721  42.510  13.818
82122W        W50340   5.497   1.472  11.592
82123W        W50341  32.500  14.892   1.467
82124W        W50342  28.460  39.784  13.867
82125W        W50343   2.758   7.093   3.623
82126W        W50344  10.401  33.097  12.003
82127W        W50345  40.880  11.893   3.124
82128W        W50346   4.214  24.102   4.759
82129W        W50347  17.805  29.145  12.518
82130W        W50348  35.675  36.419   1.023
82131W        W50349   2.784  42.080   0.716
82132W        W50350  20.105  15.810   2.209
82133W        W50351  27.309   9.502  14.465
82134W        W50352   9.284   4.943  12.058
82135W        W50353  39.999  34.459   2.287
82136W        W50354  17.590  34.243   4.150
82137W        W50355  44.094  36.854   4.860
82138W        W50356   8.978  13.003  10.361
82139W        W50357  40.808   1.230   0.554
82140W        W50358  15.751   7.300  10.925
82141W        W50359  17.226  17.168  12.092
82142W        W50360  19.316  31.355   2.533
82143W        W50361  23.485  36.362   0.577
82144W        W50362  39.817  40.785  10.976
82145W        W50363   5.222  40.268  14.382
82146W        W50364  21.180  27.163  10.659
82147W        W50365  29.597  28.245  13.352
82148W        W50366  24.637  24.699   1.003
82149W        W50367   3.458   2.035  11.173
82150W        W50368   5.335  41.509   1.695
82151W        W50369  23.475  24.799  10.519
82152W        W50370  22.729  25.787  11.114
82153W        W50371  43.920   1.406  13.792
82154W        W50372  23.469   2.411   2.794
82155W        W50373  41.055  36.893  13.305
82156W        W50374  10.279  44.807   0.254
82157W        W50375  21.801   6.576   3.314
82158W        W50376  41.371  22.282   0.792
82159W        W50377  11.917  31.520  14.487
82160W        W50378  11.275  40.141  14.094
82161W        W50379  26.348  44.499  11.569
82162W        W50380  28.246  16.515   4.063
82163W        W50381  19.849   9.617   2.372
82164W        W50382  29.466   8.925  12.857
82165W        W50383  31.061   2.582  10.697
82166W        W50384  34.297  37.103  10.798
82167W        W50385  10.310  20.572  14.988
82168W        W50386  25.499  32.313   4.605
82169W        W50387  30.715  33.927  14.923
82170W        W50388  44.398  24.263  12.961
82171W        W50389  29.387  11.733  14.032
82172W        W50390  44.507  42.323   1.217
82173W        W50391  14.732  43.239   5.484
82174W        W50392   7.111  40.812   2.659
82175W        W50393  13.792   4.767  10.393
82176W        W50394  21.667  18.682   4.701
82177W        W50395  41.979   5.300  13.526
82178W        W50396  21.442  34.742   0.170
82179W        W50397  42.596  42.485  12.507
82180W        W50398  38.596  41.414   1.890
82181W        W50399  12.603  40.398  14.140
82182W        W50400  28.984  25.213  13.882
82183W        W50401  30.703  15.602  14.016
82184W        W50402  16.254  41.262   2.481
82185W        W50403  26.082  26.510  13.849
82186W        W50404  13.092   7.362  12.445
82187W        W50405   8.723  37.103   2.327
82188W        W50406   0.888   1.497   3.335
82189W        W50407  17.568  31.317   0.284
82190W        W50408   7.680   6.722  14.466
82191W        W50409  44.093   8.727  13.930
82192W        W50410  38.939   9.139  10.797
82193W        W50411   6.443   4.707  12.369
82194W        W50412  27.822  27.531  14.878
82195W        W50413  28.720  37.994   0.720
82196W        W50414  18.469  42.403  11.017
82197W        W50415  32.709  38.543   2.706
82198W        W50416  34.935   2.783   3.289
82199W        W50417  39.973  16.761   2.786
82200W        W50418  13.326  26.419  12.104
82201W        W50419  39.419  37.824  12.843
82202W        W50420  10.673  16.773   3.421
82203W        W50421   1.736  36.113   3.440
82204W        W50422  16.474   0.777  10.651
82205W        W50423  15.762  42.315   0.842
82206W        W50424  11.070  30.638   0.141
82207W        W50425  43.393  13.254   1.304
82208W        W50426  18.950  43.126   9.795
82209W        W50427  29.752  39.015   5.225
82210W        W50428  25.573   3.019  10.771
82211W        W50429  18.543  30.973   4.802
82212W        W50430  14.628  10.785   0.681
82213W        W50431   4.356  17.416   4.650
82214W        W50432  19.212   6.930  11.124
82215W        W50433   4.034  10.625  12.360
82216W        W50434   2.450  10.363   2.327
82217W        W50435  22.977  29.294   9.992
82218W        W50436  44.255  30.237   1.708
82219W        W50437  14.220  43.393   4.610
82220W        W50438   7.823   3.182   4.646
82221W        W50439  39.227  42.932  11.202
82222W        W50440  12.677  33.173   2.709
82223W        W50441  38.794  18.094   1.375
82224W        W50442   8.631   9.695  12.497
82225W        W50443   5.346  33.675  11.620
82226W        W50444   0.483  44.938   1.384
82227W        W50445  42.994   1.289  14.248
82228W        W50446  23.754  40.747  14.885
82229W        W50447  29.325  39.387  14.698
82230W        W50448  33.434   3.843  10.456
82231W        W50449  10.714  24.262  11.900
82232W        W50450  37.889  28.408  11.651
82233W        W50451   9.646  35.007  13.457
82234W        W50452  33.603  40.753  13.276
82235W        W50453  21.695  13.522  12.927
82236W        W50454  36.507  10.171   2.174
82237W        W50455   3.152  18.774   1.937
82238W        W50456   5.686  21.092   0.032
82239W        W50457  12.493  44.019   2.643
82240W        W50458  42.462  37.120   2.731
82241W        W50459  24.770  15.011   0.764
82242W        W50460  15.661  44.772   0.856
82243W        W50461  26.588  10.768   1.253
82244W        W50462   4.242  23.236  12.530
82245W        W50463  11.706  19.339   4.307
82246W        W50464  42.349  11.802  14.635
82247W        W50465  22.377  17.712  12.001
82248W        W50466  22.175  35.600   2.207
82249W        W50467  15.625  41.820  11.976
82250W        W50468  33.558  35.398  12.352
82251W        W50469  34.513   4.301  12.023
82252W        W50470   4.836  12.557  12.060
82253W        W50471  38.819  39.921   0.220
82254W        W50472   2.012  37.861  12.581
82255W        W50473  21.191  43.331   3.023
82256W        W50474   0.011  30.043  13.465
82257W        W50475   7.151  24.392   0.335
82258W        W50476   7.704  30.456  13.522
82259W        W50477  21.271  34.386   2.229
82260W        W50478  14.549  29.945   0.459
82261W        W50479  39.463   0.425   4.056
82262W        W50480   4.369  44.975  13.513
82263W        W50481  26.690   3.820   4.313
82264W        W50482   7.912  26.625   3.199
82265W        W50483   0.807  19.849  14.682
82266W        W50484  29.708  30.548   1.736
82267W        W50485  38.894  31.599  13.823
82268W        W50486   3.436  11.458   3.553
82269W        W50487  43.982  13.607   2.407
82270W        W50488  19.107  33.879   3.087
82271W        W50489   6.208  16.487   4.905
82272W        W50490  32.634  39.055  12.941
82273W        W50491  12.580  43.760   1.356
82274W        W50492  41.921  13.817  10.790
82275W        W50493  18.001  22.172  12.669
82276W        W50494   5.801  16.785  12.169
82277W        W50495  21.053  21.716  11.602
82278W        W50496  13.256  32.920  14.088
82279W        W50497  23.477   0.804  13.373
82280W        W50498  33.765  37.400  12.321
82281W        W50499  10.875   5.192  13.860
82282W        W50500  35.752   2.718   1.817
82283W        W50501  22.698  39.778  11.773
82284W        W50502  36.875  14.206  14.469
82285W        W50503  24.747  33.209   4.828
82286W        W50504  11.727   4.920  12.192
82287W        W50505  40.088  20.475  12.174
82288W        W50506  33.892  36.030  11.671
82289W        W50507   2.357  33.512  11.214
82290W        W50508  29.773  14.203   2.408
82291W        W50509   5.661   0.791  12.591
82292W        W50510   0.438   6.673   1.773
82293W        W50511  38.978  10.620  14.059
82294W        W50512  41.681   5.442   2.224
82295W        W50513  14.174  16.838  11.515
82296W        W50514  38.397  17.027   0.380
82297W        W50515  29.583  33.431   1.373
82298W        W50516  10.417  15.531   0.319
82299W        W50517  42.605  37.530   3.502
82300W        W50518  24.024  22.995   2.806
82301W        W50519  24.171  18.110  12.560
82302W        W50520  38.868  10.499  13.525
82303W        W50521  21.597  15.438   2.350
82304W        W50522   0.052   9.419   3.701
82305W        W50523  36.567  35.002   2.264
82306W        W50524   7.811  41.926  11.515
82307W        W50525  39.848  40.022  11.887
82308W        W50526  30.529  13.509  11.074
82309W        W50527  40.275   0.283  14.525
82310W        W50528  41.402  39.145  11.580
82311W        W50529   9.346  33.865  14.356
82312W        W50530  40.342  13.613  14.790
82313W        W50531   7.454  41.789  13.624
82314W        W50532   4.504  36.915   3.653
82315W        W50533   7.196  40.128  11.718
82316W        W50534  40.858  11.060   3.772
82317W        W50535   9.505  35.528  11.509
82318W        W50536   0.215  26.856  13.438
82319W        W50537  43.539  38.556   2.392
82320W        W50538   2.513  41.813   2.920
82321W        W50539  27.157  26.127   1.420
82322W        W50540  40.362   5.695  13.348
82323W        W50541  16.678  20.027  13.883
82324W        W50542  10.090  41.882   3.229
82325W        W50543  31.133  22.307   1.270
82326W        W50544   2.302   7.269  14.968
82327W        W50545  41.890  34.068  11.854
82328W        W50546  32.974  26.855   1.125
82329W        W50547   2.318   3.973   0.387
82330W        W50548  19.714  35.316  12.078
82331W        W50549  20.657  28.088  11.579
82332W        W50550   6.214  38.423   2.306
82333W        W50551  11.940  23.904  14.316
82334W        W50552  28.108   5.660   0.856
82335W        W50553  37.252   6.758   3.725
82336W        W50554  23.035  41.957   1.437
82337W        W50555  24.940  15.297  12.012
82338W        W50556  21.745  18.061  14.286
82339W        W50557   1.719   3.766  13.908
82340W        W50558  35.302  23.442   3.202
82341W        W50559   0.150   7.955   4.117
82342W        W50560  11.365  35.922  13.508
82343W        W50561   4.402   5.453  11.531
82344W        W50562  29.604  26.275  11.964
82345W        W50563  43.238   4.641  14.361
82346W        W50564  11.181  38.172  10.611
82347W        W50565  42.478   0.774  11.943
82348W        W50566   2.264  15.483   3.602
82349W        W50567   2.726  33.217   1.257
82350W        W50568  28.302  11.718  14.721
82351W        W50569  33.622  25.810   0.849
82352W        W50570   4.695   0.813   2.650
82353W        W50571  24.071   6.863   3.552
82354W        W50572  15.579  10.028  11.753
82355W        W50573  42.836  18.061  14.348
82356W        W50574  41.265  29.378   2.688
82357W        W50575  34.921  29.235   1.759
82358W        W50576  41.018  18.550  12.096
82359W        W50577  38.912  39.529   2.891
82360W        W50578  27.471  22.467   3.238
82361W        W50579  36.414  21.639  12.720
82362W        W50580  31.471  36.906  13.783
82363W        W50581  23.950   8.753  13.925
82364W        W50582   8.691  35.585  11.958
82365W        W50583   6.665  25.224   4.115
82366W        W50584  21.114  37.579  14.361
82367W        W50585  15.756  18.137   3.407
82368W        W50586  14.274   9.372   0.311
82369W        W50587  38.327  19.909   4.575
82370W        W50588  11.173   7.276   4.036
82371W        W50589   5.907  23.231  13.054
82372W        W50590  42.874  35.663  10.632
82373W        W50591  19.447   6.266   4.882
82374W        W50592   7.596  31.128   2.342
82375W        W50593  16.265  37.086   0.410
82376W        W50594   2.460   0.289  14.790
82377W        W50595  13.688  24.213  12.157
82378W        W50596  25.651  12.817   3.621
82379W        W50597  41.199   3.462  14.260
82380W        W50598   6.394   6.648   0.766
82381W        W50599  21.220  25.793  14.251
82382W        W50600  30.670  42.692   3.280
82383W        W50601  43.042   1.707  13.954
82384W        W50602  13.312   5.631   0.891
82385W        W50603   2.858  29.491  10.734
82386W        W50604  23.716  11.800  13.544
82387W        W50605  37.819   8.748  10.259
82388W        W50606  38.272  20.150  12.845
82389W        W50607   1.218  39.335  14.397
82390W        W50608  36.928  41.398  13.291
82391W        W50609  15.040  11.779  13.309
82392W        W50610  31.926  16.976  10.338
82393W        W50611  30.540   7.799  12.801
82394W        W50612  41.047   3.354  11.547
82395W        W50613  31.418  27.414   0.783
82396W        W50614  19.975  26.430   1.358
82397W        W50615  31.119  32.093  14.838
82398W        W50616   4.176  11.583  14.072
82399W        W50617   5.455  25.691  11.049
82400W        W50618  38.541  30.448   5.025
82401W        W50619  20.996  18.168   0.755
82402W        W50620  26.831   7.830   1.811
82403W        W50621   0.388  18.991  11.426
82404W        W50622  10.441  17.396  11.516
82405W        W50623  27.384  15.342  12.935
82406W        W50624   7.016  17.662   4.028
82407W        W50625  32.548   5.495  14.358
82408W        W50626   8.370   9.790   2.194
82409W        W50627   1.502  19.957  11.535
82410W        W50628  17.042  44.964  12.965
82411W        W50629  43.537  38.427   4.595
82412W        W50630  40.432  32.029   4.871
82413W        W50631   0.878   7.284   1.242
82414W        W50632  34.174  12.302   1.356
82415W        W50633  40.568  26.070   3.211
82416W        W50634  21.256  25.004   3.398
82417W        W50635  31.945  43.542   0.078
82418W        W50636  36.959  26.570   1.810
82419W        W50637  38.326  35.519   5.195
82420W        W50638  35.178  23.465  11.408
82421W        W50639   2.376  27.874  13.347
82422W        W50640   1.910  16.182   2.648
82423W        W50641   1.471   9.791  14.412
82424W        W50642  11.863  13.038   1.403
82425W        W50643  38.368  40.332  13.011
82426W        W50644  33.102  19.637  14.310
82427W        W50645  11.646  22.755   0.822
82428W        W50646  43.042  35.644   0.496
82429W        W50647  21.051  27.119   1.423
82430W        W50648  13.499  36.390  11.098
82431W        W50649  21.940  13.994   4.942
82432W        W50650  26.597  35.733   1.797
82433W        W50651  35.348   1.266   2.035
82434W        W50652  32.862  30.360  14.826
82435W        W50653  14.719   5.978  14.275
82436W        W50654  13.170  17.522  11.064
82437W        W50655  24.647  19.474   3.923
82438W        W50656  38.520   4.546   2.309
82439W        W50657  31.669   4.709   0.773
82440W        W50658  42.896   5.268   4.117
82441W        W50659  24.922   9.305  11.175
82442W        W50660  33.090  16.993  11.619
82443W        W50661  20.248  31.161  12.388
82444W        W50662  32.558  17.870  10.695
82445W        W50663  42.880  35.338  13.054
82446W        W50664  32.235  24.666   3.360
82447W        W50665  14.161  18.539  13.554
82448W        W50666  36.014  13.750  10.853
82449W        W50667   0.298  18.233   2.331
82450W        W50668  11.822  21.573   1.256
82451W        W50669  43.183   6.260  14.967
82452W        W50670  20.151  29.574  14.616
82453W        W50671  28.162  26.456   4.856
82454W        W50672  18.984  13.595  13.953
82455W        W50673  29.133  15.751  14.982
82456W        W50674  30.819  42.797  10.375
82457W        W50675   5.947  33.995  11.063
82458W        W50676  12.129  37.137   1.303
82459W        W50677   9.795   8.672   3.609
82460W        W50678   1.749  11.923   1.189
82461W        W50679  14.716   7.958  12.048
82462W        W50680  10.388  30.579  13.551
82463W        W50681  11.621  35.896   1.945
82464W        W50682  17.209   7.401   4.520
82465W        W50683   3.904   1.453   1.781
82466W        W50684   0.745  42.023   2.997
82467W        W50685  31.524  31.415  11.958
82468W        W50686  24.614   2.471   4.802
82469W        W50687  43.520  13.603   0.354
82470W        W50688  33.209   4.879  12.826
82471W        W50689  23.551  25.659  14.015
82472W        W50690  34.106  43.844   3.174
82473W        W50691  11.356  28.105   3.175
82474W        W50692  23.672  28.666   1.382
82475W        W50693  17.289  42.841  10.797
82476W        W50694  25.702   8.626  14.441
82477W        W50695  40.023  38.193  13.396
82478W        W50696  25.950  34.884  12.146
82479W        W50697  22.776  36.327  11.226
82480W        W50698   6.838  36.423   2.742
82481W        W50699   5.845  30.399   2.111
82482W        W50700  13.369  38.487  10.509
82483W        W50701  38.466  31.934   0.498
82484W        W50702  15.302  34.568   2.908
82485W        W50703  24.970  32.753   2.158
82486W        W50704  27.549  29.734   1.710
82487W        W50705  22.848   2.334   1.269
82488W        W50706   0.881  24.970  13.839
82489W        W50707   0.969  37.271  12.059
82490W        W50708   3.274  38.771   4.936
82491W        W50709  26.179  29.652  14.095
82492W        W50710   2.940  14.666   0.014
82493W        W50711  15.342  21.180   1.157
82494W        W50712   1.306  19.155  14.867
82495W        W50713   6.642   5.497   0.797
82496W        W50714  20.200  27.931   1.654
82497W        W50715  37.327  33.457  13.974
82498W        W50716  20.492  14.765   0.522
82499W        W50717  37.429   3.729  14.877
82500W        W50718  24.732  17.786  11.212
82501W        W50719  38.476  40.810  14.189
82502W        W50720   5.810   4.171   0.457
82503W        W50721  25.594  29.893  13.609
82504W        W50722  18.473  11.145  10.782
82505W        W50723  32.242  18.254  10.807
82506W        W50724  20.173  10.205   1.340
82507W        W50725  27.375  39.950   5.036
82508W        W50726  22.789  32.969  12.052
82509W        W50727  11.811  11.276   2.707
82510W        W50728  22.177  16.758   0.181
82511W        W50729  27.400  31.475   2.216
82512W        W50730  23.910  21.916  11.616
82513W        W50731  30.126   2.703  11.840
82514W        W50732  23.105  34.600   0.454
82515W        W50733  26.404  18.690  14.999
82516W        W50734  28.965  19.263   4.284
82517W        W50735  16.623  26.486  12.441
82518W        W50736  13.043  36.117   9.921
82519W        W50737   6.932  16.521  13.316
82520W        W50738  37.490  19.599   2.226
82521W        W50739   0.171  30.497   0.833
82522W        W50740  22.146  37.097   4.614
82523W        W50741  19.700   7.910  12.080
82524W        W50742  17.474  38.346   4.642
82525W        W50743  29.390  39.454   2.378
82526W        W50744  12.322  35.663  10.886
82527W        W50745  44.227  44.306   0.805
82528W        W50746  40.675  43.802  14.407
82529W        W50747  21.710  29.424   3.512
82530W        W50748   0.396   0.569  13.817
82531W        W50749  17.658  10.633   3.078
82532W        W50750  32.161  12.906   1.297
82533W        W50751  14.832  14.022  10.968
82534W        W50752   7.150  31.484  12.615
82535W        W50753   0.661  31.072  13.887
82536W        W50754  14.666  27.195   3.788
82537W        W50755  36.279   1.405  11.600
82538W        W50756  43.285  16.829  11.100
82539W        W50757  35.400  32.560  13.097
82540W        W50758  15.588   9.298  10.736
82541W        W50759   0.742  10.272  13.458
82542W        W50760  24.055  34.400   2.840
82543W        W50761   7.598  44.877  13.422
82544W        W50762  19.073  37.924  14.059
82545W        W50763   9.657   4.719   0.250
82546W        W50764  36.569   0.639   3.256
82547W        W50765  15.160  12.443   3.213
82548W        W50766   3.937  18.074   4.889
82549W        W50767  38.707  37.108   5.118
82550W        W50768  29.604  15.715  12.332
82551W        W50769  14.816  37.949  13.756
82552W        W50770  24.909   1.438   1.821
82553W        W50771  26.996  41.825  11.174
82554W        W50772  29.090  19.195  14.479
82555W        W50773  14.394  30.942   5.253
82556W        W50774  22.660  17.715   2.793
82557W        W50775   6.130  12.794   3.239
82558W        W50776   2.980  44.847   0.762
82559W        W50777  33.818  18.136   1.919
82560W        W50778  32.464  24.696  11.142
82561W        W50779  26.622  37.910  11.546
82562W        W50780  28.704  13.121  13.957
82563W        W50781  28.603  43.072   0.983
82564W        W50782  22.176  21.248  14.806
82565W        W50783  26.960   6.167  11.967
82566W        W50784   3.770  20.541   0.670
82567W        W50785   4.869   6.888   4.587
82568W        W50786   1.684   1.724  10.785
82569W        W50787  40.198  33.495  14.484
82570W        W50788  25.689   5.421  12.092
82571W        W50789  14.603   0.220   2.157
82572W        W50790  42.858  34.446  10.592
82573W        W50791  10.332  24.006   1.450
82574W        W50792  17.889   9.113  12.052
82575W        W50793  37.593  20.860  11.686
82576W        W50794  26.961  13.793   1.243
82577W        W50795  43.087  18.666   5.060
82578W        W50796  22.526  14.367  14.830
82579W        W50797  10.595  35.839   2.281
82580W        W50798  18.684  25.437  12.731
82581W        W50799  15.822   1.739  13.442
82582W        W50800  28.743  44.200  10.047
82583W        W50801  42.902  24.941  14.558
82584W        W50802  44.280  19.241  11.030
82585W        W50803  16.202  26.317   4.110
82586W        W50804  23.826  43.525   3.188
82587W        W50805  31.449  26.522  12.569
82588W        W50806  20.711  39.300  12.010
82589W        W50807  17.105  13.174   2.195
82590W        W50808  15.131  29.211  11.707
82591W        W50809  31.357  38.291   4.606
82592W        W50810  23.197  28.556   3.340
82593W        W50811  23.690  34.916   3.756
82594W        W50812   7.895  28.960  11.594
82595W        W50813  20.058  13.745   3.319
82596W        W50814  33.566  29.658   2.410
82597W        W50815  25.588  14.612   1.807
82598W        W50816   3.244   0.949  13.392
82599W        W50817  10.360  15.419   3.016
82600W        W50818  33.024  16.540   2.912
82601W        W50819  19.922  15.294   2.825
82602W        W50820  36.023  31.697   0.276
82603W        W50821  29.875  38.526   2.421
82604W        W50822  41.451  11.404   1.883
82605W        W50823  19.714  26.955   2.797
82606W        W50824  19.985  14.553   3.976
82607W        W50825  18.657  44.341  11.922
82608W        W50826   7.634  12.162  12.059
82609W        W50827  22.721  19.785   3.591
82610W        W50828  31.441   5.221  12.087
82611W        W50829  35.625  40.444  12.555
82612W        W50830  15.410   0.805  14.060
82613W        W50831   4.321  41.793   3.058
82614W        W50832  42.374  43.801   1.161
82615W        W50833  36.495  14.425  13.353
82616W        W50834   5.658  38.494   3.276
82617W        W50835   0.976   7.171  10.248
82618W        W50836  15.163   1.441  10.610
82619W        W50837  21.644  40.084  13.049
82620W        W50838  18.864   4.628  14.774
82621W        W50839  19.131  39.875  11.908
82622W        W50840  12.662  24.170  14.918
82623W        W50841  13.596  42.335  10.720
82624W        W50842  44.577  40.260   3.580
82625W        W50843   9.384  12.324  12.145
82626W        W50844  37.937  33.609  11.706
82627W        W50845  11.691  28.024  14.386
82628W        W50846  36.080  43.266  11.781
82629W        W50847   3.970  20.194   4.105
82630W        W50848  34.828  31.336  13.772
82631W        W50849  22.303  20.560   3.636
82632W        W50850  31.056  12.947   2.296
82633W        W50851  41.362  14.573  13.424
82634W        W50852   4.293  14.113   3.741
82635W        W50853  28.765  23.386   9.993
82636W        W50854  21.133  10.405  12.050
82637W        W50855  40.801  16.597  11.146
82638W        W50856   3.424   6.503   4.123
82639W        W50857  42.058  37.571  12.098
82640W        W50858  18.391   1.364   3.098
82641W        W50859  12.644  35.478  12.072
82642W        W50860  39.360  23.212  11.478
82643W        W50861  18.060  40.845  14.044
82644W        W50862  28.690  30.366  11.362
82645W        W50863  18.734  23.654  11.509
82646W        W50864  23.404  34.054  11.121
82647W        W50865  43.355  42.442   0.004
82648W        W50866   9.473  35.073  14.019
82649W        W50867   4.027  27.506  13.899
82650W        W50868  24.974  12.633  12.556
82651W        W50869  33.606  30.185  11.284
82652W        W50870   7.825  33.698  11.968
82653W        W50871  21.043  26.824  10.275
82654W        W50872   7.660  15.068   1.083
82655W        W50873  24.918  23.395   1.107
82656W        W50874   0.202  11.765  13.524
82657W        W50875   6.201  15.316  14.035
82658W        W50876  19.786  41.849   0.561
82659W        W50877  23.197  27.153   2.811
82660W        W50878  36.631  26.559   0.676
82661W        W50879  27.255  18.709   4.124
82662W        W50880  21.181  21.805   3.775
82663W        W50881  11.032  19.202   2.850
82664W        W50882   8.908  21.765  13.487
82665W        W50883  34.398  22.950   1.255
82666W        W50884  11.834  11.901   3.260
82667W        W50885  41.239  11.623   2.865
82668W        W50886  34.445   9.150  12.469
82669W        W50887  39.536  31.857   1.828
82670W        W50888  31.107   2.194  11.114
82671W        W50889   8.043  33.128   4.204
82672W        W50890  40.815  23.855  13.844
82673W        W50891   0.857  22.983  14.910
82674W        W50892   2.030   8.757  13.050
82675W        W50893  15.244  30.465   3.506
82676W        W50894  10.342  14.753  12.535
82677W        W50895   0.549  32.806   1.921
82678W        W50896   6.660  37.321   0.115
82679W        W50897  15.491  32.990  12.995
82680W        W50898  29.240  41.903   0.337
82681W        W50899  41.494   8.357  13.876
82682W        W50900  15.187  23.675   0.417
82683W        W50901  34.073   3.264  13.041
82684W        W50902  17.895  31.589   2.812
82685W        W50903  11.760   6.130   5.094
82686W        W50904  26.216  15.361  11.561
82687W        W50905  33.746  37.341   3.311
82688W        W50906  23.543  15.347   2.451
82689W        W50907  32.498  20.298  14.772
82690W        W50908  25.761  40.438  12.750
82691W        W50909  41.538  16.561  11.507
82692W        W50910  33.522  20.096   4.625
82693W        W50911  13.132  43.854   9.750
82694W        W50912  18.694   3.603   0.203
82695W        W50913   4.741  29.273  11.745
82696W        W50914   2.806  12.090   2.670
82697W        W50915  17.575  28.034  12.882
82698W        W50916  18.417  32.921  13.927
82699W        W50917  29.397  16.734  13.360
82700W        W50918   9.368  44.279  11.562
82701W        W50919  38.971   4.267  12.182
82702W        W50920  41.804  40.426  11.062
82703W        W50921  18.741  27.549  13.594
82704W        W50922   9.782   9.432   1.504
82705W        W50923  27.568  28.718   1.998
82706W        W50924  20.302  26.118  13.837
82707W        W50925  24.053  39.930  12.649
82708W        W50926  35.676  11.047   2.727
82709W        W50927  17.675  20.664  11.393
82710W        W50928   4.294  26.387   0.383
82711W        W50929  15.290   7.525   2.501
82712W        W50930   8.640  39.691  14.965
82713W        W50931  26.057  21.320  11.234
82714W        W50932  25.636  30.707  10.675
82715W        W50933  18.951  18.972   0.348
82716W        W50934   8.970  17.815  13.027
82717W        W50935  21.702  43.370   0.890
82718W        W50936   5.678  37.431  14.783
82719W        W50937  39.726  21.073  12.970
82720W        W50938  44.756  40.845   2.458
82721W        W50939  36.909  11.124   1.648
82722W        W50940  23.417  16.198   0.283
82723W        W50941  43.759  23.682  13.083
82724W        W50942  33.516  11.485   3.644
82725W        W50943   0.340  20.577   3.809
82726W        W50944   7.829  11.968   3.333
82727W        W50945  16.200  37.097   3.964
82728W        W50946   4.748  26.878   1.416
82729W        W50947  44.819   4.974  12.610
82730W        W50948  29.246  32.968  12.404
82731W        W50949  18.094   2.962   2.465
82732W        W50950  33.914  34.942   4.222
82733W        W50951  44.322  13.681   2.884
82734W        W50952  21.120  18.942   3.328
82735W        W50953  38.103   2.963  12.983
82736W        W50954  19.762  27.750   4.113
82737W        W50955  16.572  19.333  11.579
82738W        W50956  34.693  41.791   3.216
82739W        W50957  42.497  37.548  10.916
82740W        W50958   0.496   0.840  11.636
82741W        W50959  43.947  37.998   2.385
82742W        W50960  19.766  40.005  12.499
82743W        W50961  31.175  42.785   3.955
82744W        W50962  33.394   1.300   1.856
82745W        W50963  18.735  22.561   2.885
82746W        W50964  34.124  29.753   4.076
82747W        W50965  37.902   4.496  14.789
82748W        W50966  34.580  20.645   1.301
82749W        W50967   8.767  11.079   3.598
82750W        W50968  30.424   8.268  12.018
82751W        W50969  17.704  40.961   2.260
82752W        W50970   1.083  22.803   2.255
82753W        W50971  16.384  39.695   3.344
82754W        W50972   7.921  27.128   4.447
82755W        W50973  31.259  10.112  13.363
82756W        W50974  41.995  40.273  10.604
82757W        W50975  24.113   5.641   0.441
82758W        W50976  34.257  37.343   4.088
82759W        W50977  18.115  17.528  13.912
82760W        W50978  28.093  29.885   4.621
82761W        W50979  20.210  30.403   4.520
82762W        W50980  24.189   7.562  10.270
82763W        W50981  41.842  33.007  10.740
82764W        W50982  30.772  40.473  11.631
82765W        W50983  13.173   9.377  11.062
82766W        W50984  30.227  33.624   1.796
82767W        W50985  19.190  22.985   4.600
82768W        W50986  24.116  15.497   4.131
82769W        W50987  27.031  39.450  12.095
82770W        W50988   5.877   0.318   2.021
82771W        W50989  14.270  26.940   2.849
82772W        W50990  40.297  16.585  11.205
82773W        W50991  27.116  22.278  14.305
82774W        W50992   2.526   8.275   1.368
82775W        W50993   4.315  16.461   0.076
82776W        W50994  27.581  44.724   0.694
82777W        W50995   1.115  37.085  13.849
82778W        W50996  16.072  38.013   2.496
82779W        W50997   3.986  22.983  11.914
82780W        W50998  39.604  34.602  10.505
82781W        W50999  39.898   5.704   2.691
82782W        W51000  12.783  37.589  10.877
82783W        W51001  28.979  28.467   4.543
82784W        W51002  27.243  28.532  14.768
82785W        W51003  24.381  10.076   2.168
82786W        W51004  16.873  32.409   0.541
82787W        W51005  21.225  20.232  13.291
82788W        W51006  33.577  38.944   2.730
82789W        W51007   6.232  39.949  12.011
82790W        W51008   3.807  14.160  10.758
82791W        W51009  41.353  27.512  13.997
82792W        W51010  41.943  10.697   1.714
82793W        W51011   0.201  36.674  13.552
82794W        W51012  42.935  39.957  11.939
82795W        W51013  33.068  11.841  14.062
82796W        W51014  21.654  26.639  11.125
82797W        W51015  12.209  28.705   1.101
82798W        W51016  28.945  29.766   2.759
82799W        W51017  32.838  21.752   2.751
82800W        W51018  34.060  24.042   3.411
82801W        W51019   8.629   0.136  12.991
82802W        W51020   2.618  29.014  11.465
82803W        W51021  23.805  30.916  12.078
82804W        W51022  44.352  38.115   0.930
82805W        W51023  39.426   8.884   4.701
82806W        W51024  42.878  18.141  14.890
82807W        W51025  41.631  19.488  13.532
82808W        W51026  30.599   5.181  11.517
82809W        W51027   2.894  38.895  13.804
82810W        W51028  37.995  38.404  14.282
82811W        W51029  38.940   7.184   0.561
82812W        W51030  42.745   5.966  12.003
82813W        W51031   1.653  37.145  13.932
82814W        W51032  30.180  38.735   4.163
82815W        W51033  37.363  27.025  11.426
82816W        W51034  11.801  37.949   4.750
82817W        W51035  32.197  12.483   4.436
82818W        W51036  21.262  37.875   0.205
82819W        W51037  14.041  20.994   3.909
82820W        W51038  32.195   0.316  14.853
82821W        W51039   7.934  21.180   2.761
82822W        W51040  27.183  14.280  10.272
82823W        W51041  20.682   0.740  10.441
82824W        W51042  20.189   5.103   1.354
82825W        W51043  10.911  41.266  11.527
82826W        W51044  44.960  26.125   3.062
82827W        W51045  13.178  41.343   3.727
82828W        W51046  12.995   9.104   0.481
82829W        W51047  32.893  20.815   0.352
82830W        W51048  29.681  15.199   0.733
82831W        W51049  43.764  23.035  14.209
82832W        W51050  31.548  12.817   0.974
82833W        W51051  42.509  12.609  11.445
82834W        W51052   0.890   4.900   1.734
82835W        W51053  40.945  36.996  13.782
82836W        W51054  19.276  23.195   0.234
82837W        W51055  16.624  37.512   0.436
82838W        W51056   4.878  34.890  12.866
82839W        W51057   5.982  30.237  11.714
82840W        W51058   6.461  26.495  14.550
82841W        W51059  15.310  25.721  14.865
82842W        W51060  18.366   1.766   2.316
82843W        W51061   9.289  32.568  12.537
82844W        W51062  30.877  26.527   3.186
82845W        W51063   6.515  16.423  11.210
82846W        W51064  23.808  17.105   4.709
82847W        W51065  35.315  32.129   0.285
82848W        W51066  41.705  10.585  12.067
82849W        W51067   1.765  15.339   3.615
82850W        W51068  34.534  28.589  13.581
82851W        W51069  27.944  12.431  12.508
82852W        W51070  37.519   3.272   2.480
82853W        W51071   3.253  39.072  11.031
82854W        W51072  44.439   3.727   1.441
82855W        W51073  32.799  19.261   2.595
82856W        W51074   3.429  21.485  13.904
82857W        W51075  11.293  19.238   4.005
82858W        W51076  38.674  27.168   4.540
82859W        W51077  18.657   5.998  13.820
82860W        W51078   4.200   6.810   3.631
82861W        W51079  34.405  23.192  13.506
82862W        W51080   8.866  40.049   0.276
82863W        W51081  32.886  25.503  13.027
82864W        W51082  12.762  27.114   0.042
82865W        W51083  30.089  28.137   2.289
82866W        W51084  19.926   0.488  10.917
82867W        W51085  23.068  23.608   1.256
82868W        W51086  18.594  31.433  11.616
82869W        W51087  25.350  20.311  11.352
82870W        W51088  21.641  29.036   0.379
82871W        W51089  32.620  14.279   4.458
82872W        W51090  15.131   3.142  12.554
82873W        W51091  28.639   2.450  11.031
82874W        W51092  42.913  34.004  12.338
82875W        W51093  30.075  15.729  12.986
82876W        W51094  28.464   1.295  12.530
82877W        W51095  34.990   5.287  10.918
82878W        W51096  31.517  19.721   2.850
82879W        W51097  10.812   9.274   2.822
82880W        W51098  39.111   3.902  12.527
82881W        W51099   6.659  31.725  14.363
82882W        W51100   9.332  12.891   2.159
82883W        W51101  21.867   3.820  10.300
82884W        W51102  42.895  38.430   2.956
82885W        W51103  35.120  20.564  10.637
82886W        W51104  30.135  38.511  14.614
82887W        W51105  30.480   6.601  11.530
82888W        W51106   8.302  31.646  11.462
82889W        W51107  37.558  42.476  14.640
82890W        W51108  35.415  40.918   4.676
82891W        W51109  18.843  41.711   5.162
82892W        W51110  15.057  33.483   4.921
82893W        W51111  26.973  10.399   1.440
82894W        W51112  43.075  42.279   3.866
82895W        W51113  40.884  22.975  13.330
82896W        W51114  21.159  42.411   3.599
82897W        W51115   3.669  33.318   2.655
82898W        W51116  32.077  13.119   3.101
82899W        W51117  30.573  25.050   4.160
82900W        W51118  37.415  36.090  10.835
82901W        W51119   7.708   0.310  10.780
82902W        W51120  30.440  24.303   2.895
82903W        W51121  37.234  25.054  10.187
82904W        W51122   7.289  39.993   0.432
82905W        W51123  18.995  19.656   2.403
82906W        W51124  11.141  44.431   4.185
82907W        W51125  13.396  40.476   1.644
82908W        W51126  21.721  23.026  11.364
82909W        W51127  21.237  43.781   2.369
82910W        W51128  16.813  26.964  14.336
82911W        W51129   6.894  32.905  14.791
82912W        W51130  31.630   5.197   3.262
82913W        W51131   2.283  14.729  12.306
82914W        W51132  21.064  40.558   1.487
82915W        W51133  22.656   4.728  14.542
82916W        W51134  15.703  28.633  13.298
82917W        W51135   2.969  31.876   1.669
82918W        W51136  12.707  20.302  14.020
82919W        W51137  39.141  25.119  14.033
82920W        W51138  18.011  13.568  11.358
82921W        W51139  38.986   0.215  13.809
82922W        W51140  17.838  20.766   1.757
82923W        W51141  13.394   3.733   1.872
82924W        W51142  15.401  39.390   0.329
82925W        W51143  20.640  26.461   3.663
82926W        W51144  37.194  11.643  11.056
82927W        W51145  40.815   2.756  12.496
82928W        W51146  18.370  31.350   2.903
82929W        W51147  21.186  20.679   2.167
82930W        W51148   7.133  29.992  13.609
82931W        W51149  44.741  27.055   0.676
82932W        W51150  41.463  24.801  12.953
82933W        W51151  21.678  32.961   4.836
82934W        W51152   7.180  17.804   0.348
82935W        W51153  10.655   5.169   3.591
82936W        W51154  15.025   3.273  12.052
82937W        W51155  30.196   4.227  11.893
82938W        W51156  42.913  39.124  11.568
82939W        W51157  21.769  27.989  14.807
82940W        W51158  25.068  39.717  14.092
82941W        W51159  15.314  40.586  11.192
82942W        W51160  27.356   7.369  12.015
82943W        W51161  26.713  10.156   1.874
82944W        W51162  15.863  30.723  11.127
82945W        W51163   0.281   6.679  13.581
82946W        W51164  40.857  22.206   0.511
82947W        W51165   4.083  27.541   3.209
82948W        W51166  10.568   7.448  12.130
82949W        W51167  26.227  20.517   0.730
82950W        W51168  42.483   6.678  14.481
82951W        W51169   7.708  15.660  10.429
82952W        W51170   4.282  22.457   4.546
82953W        W51171  25.441  14.127  13.551
82954W        W51172  42.135  37.385   3.657
82955W        W51173   2.836   2.369   1.119
82956W        W51174  21.908  36.334   0.527
82957W        W51175  35.388  33.912   4.355
82958W        W51176  43.917  17.651  11.076
82959W        W51177  42.327  26.673   1.373
82960W        W51178   4.375   1.905  11.035
82961W        W51179  29.534  41.031   1.804
82962W        W51180  25.225  20.013  10.928
82963W        W51181  29.170  15.612   3.248
82964W        W51182  39.395   2.726   3.638
82965W        W51183  13.350  41.328  14.418
82966W        W51184   2.069  34.408  11.114
82967W        W51185  40.896  33.496  13.507
82968W        W51186  42.499  21.139   2.377
82969W        W51187  20.571  19.685  10.794
82970W        W51188  39.817   8.836  11.923
82971W        W51189  11.037  13.479   1.815
82972W        W51190  38.929  15.290  12.249
82973W        W51191  20.369   5.250   4.720
82974W        W51192  25.712   6.921  11.717
82975W        W51193   6.935  25.132   0.166
82976W        W51194   0.662  35.757   9.878
82977W        W51195  18.539  42.790   0.554
82978W        W51196  36.506  17.884  12.981
82979W        W51197   6.856   5.668   4.597
82980W        W51198  40.542  42.913   4.970
82981W        W51199   0.563  24.855   0.951
82982W        W51200  17.433  34.179  13.365
82983W        W51201  35.334  14.123  11.599
82984W        W51202  35.621   2.503  14.450
82985W        W51203  19.475  28.176   4.050
82986W        W51204  41.945  29.416   2.474
82987W        W51205   6.265   9.802   3.064
82988W        W51206   2.449   2.895   4.114
82989W        W51207  12.835  27.227  11.832
82990W        W51208  38.579  12.663   1.716
82991W        W51209  28.929  28.318   3.191
82992W        W51210  38.150  30.788  11.210
82993W        W51211  39.804  31.529   2.183
82994W        W51212  20.635  12.433  10.955
82995W        W51213  27.645  24.940  11.535
82996W        W51214  24.981  41.750   4.048
82997W        W51215   8.054  40.864   2.780
82998W        W51216  27.147  40.846   1.112
82999W        W51217  15.091  34.391  13.493
83000W        W51218  11.883  14.318   4.124
83001W        W51219  13.627  17.116   3.804
83002W        W51220  28.252   1.492  10.152
83003W        W51221  41.584  10.400   4.090
83004W        W51222   8.453  22.495  13.641
83005W        W51223  19.635  32.544   2.769
83006W        W51224  32.490  12.834  14.516
83007W        W51225  35.556   3.517  10.475
83008W        W51226  19.585  20.383   0.494
83009W        W51227   2.784  14.415   0.418
83010W        W51228  36.315  20.798  12.468
83011W        W51229  16.052   8.598  11.298
83012W        W51230  43.400  36.530   0.798
83013W        W51231  12.896  29.043   3.130
83014W        W51232  15.944   0.347  13.481
83015W        W51233   7.578  26.078  12.589
83016W        W51234  16.231  30.462   1.302
83017W        W51235  31.532  27.082   4.491
83018W        W51236  37.515  31.130  14.874
83019W        W51237   0.263  38.727   0.013
83020W        W51238  24.701  16.725   1.378
83021W        W51239  20.176   1.263  10.926
83022W        W51240  18.547   1.378   2.612
83023W        W51241  36.137  34.076   3.210
83024W        W51242  14.750   5.432  14.273
83025W        W51243  34.504  17.792   1.209
83026W        W51244  18.023  25.256   0.346
83027W        W51245  33.429  29.066  11.921
83028W        W51246   4.384  25.618  12.083
83029W        W51247  16.266  39.996  14.312
83030W        W51248  30.879   4.545   0.476
83031W        W51249  12.747   8.602   2.280
83032W        W51250  42.551  21.660   2.104
83033W        W51251  15.928  24.769   5.395
83034W        W51252  33.414  35.102   3.275
83035W        W51253  23.653  37.913   4.825
83036W        W51254  43.302   9.737  10.562
83037W        W51255  40.974  36.534   3.168
83038W        W51256  25.174   3.909   4.457
83039W        W51257   6.860  42.163   2.762
83040W        W51258  23.197  13.202  13.332
83041W        W51259  10.761  17.838   3.356
83042W        W51260  44.386   5.238   2.581
83043W        W51261  32.875  43.226  14.181
83044W        W51262  16.844   3.345   0.257
83045W        W51263  18.734  44.957   0.382
83046W        W51264   8.520  23.664  11.641
83047W        W51265  24.979  38.478   1.374
83048W        W51266  18.623  42.739  10.604
83049W        W51267  18.668  33.378   2.346
83050W        W51268  18.314   3.615   0.941
83051W        W51269  40.231  33.557   0.566
83052W        W51270  15.047   9.873  11.631
83053W        W51271  39.908  39.468   3.411
83054W        W51272  21.421  23.207  10.406
83055W        W51273   1.821  43.697  12.577
83056W        W51274  19.801  21.683   2.391
83057W        W51275  33.480  44.877  14.254
83058W        W51276  29.912  44.976  14.150
83059W        W51277  40.439  22.511   1.340
83060W        W51278  20.003  10.366  12.142
83061W        W51279   9.463   7.768  13.849
83062W        W51280  20.485   9.176   0.352
83063W        W51281  22.097  36.307  11.891
83064W        W51282  12.306  26.559   3.322
83065W        W51283  44.266  13.422   4.148
83066W        W51284   9.215  17.729   3.243
83067W        W51285  11.161  13.253   0.782
83068W        W51286  38.812  35.043  14.497
83069W        W51287  32.679  34.690  11.151
83070W        W51288   1.983  26.543  14.909
83071W        W51289   9.054  31.053   0.868
83072W        W51290  30.916  41.518  12.887
83073W        W51291   0.939   3.430   9.932
83074W        W51292  16.117  22.500   3.682
83075W        W51293  13.387  12.996   2.655
83076W        W51294  11.622  43.815  14.852
83077W        W51295  27.569  10.064  13.053
83078W        W51296   9.741  31.199   0.450
83079W        W51297  44.298  32.064   2.836
83080W        W51298   0.827  42.311   0.017
83081W        W51299  42.014  26.490   4.526
83082W        W51300  39.793   3.447   2.764
83083W        W51301   6.099  34.127   1.373
83084W        W51302   1.402  42.767   4.192
83085W        W51303  38.094  41.272  12.529
83086W        W51304  10.058  18.027   2.196
83087W        W51305  33.041  19.222  11.923
83088W        W51306  10.500  25.428   1.027
83089W        W51307  44.948  37.200   4.826
83090W        W51308   2.333   8.448  10.968
83091W        W51309   7.637   2.363  12.510
83092W        W51310  27.444  10.203   0.256
83093W        W51311   2.679  26.582  10.315
83094W        W51312  24.996  32.178  14.988
83095W        W51313   5.758  14.038   0.353
83096W        W51314  28.940  37.897   1.170
83097W        W51315   9.829  28.944   0.724
83098W        W51316  17.678  22.502   2.220
83099W        W51317  35.600  30.077  14.968
83100W        W51318  34.790  32.306   9.799
83101W        W51319  18.573  35.869  11.154
83102W        W51320  41.300  11.336   3.907
83103W        W51321  28.475  32.948   2.710
83104W        W51322  23.220  28.084  14.000
83105W        W51323  12.859  26.358   0.355
83106W        W51324  43.855  16.093   1.306
83107W        W51325  39.328   3.764   2.739
83108W        W51326  31.493  43.832  12.095
83109W        W51327  44.179  15.993   2.780
83110W        W51328  10.371  38.388   1.886
83111W        W51329  15.982   8.231   1.296
83112W        W51330  13.128   9.617   4.189
83113W        W51331   5.881  23.433  13.545
83114W        W51332  32.876  32.558   4.132
83115W        W51333  43.583  25.747  13.866
83116W        W51334   7.229  32.603  14.314
83117W        W51335  37.256  34.300  14.507
83118W        W51336  17.819   5.183   4.079
83119W        W51337  11.056  39.456  11.451
83120W        W51338  25.492  16.048  14.230
83121W        W51339   5.201  36.724   0.179
83122W        W51340  22.092  11.101  11.627
83123W        W51341  14.595   2.234  11.211
83124W        W51342  14.534   8.776   2.661
83125W        W51343   9.749  22.174  10.917
83126W        W51344  21.408  16.260  10.488
83127W        W51345  11.869  11.906  13.418
83128W        W51346  21.132   1.401   0.903
83129W        W51347  11.405  34.489   1.863
83130W        W51348  44.595  29.532  12.161
83131W        W51349  23.628  32.416   1.162
83132W        W51350  14.811   0.218  11.193
83133W        W51351  21.420  12.344   3.495
83134W        W51352  33.908  25.413  10.967
83135W        W51353  39.987  27.095   3.659
83136W        W51354  10.819  29.423   3.825
83137W        W51355  43.760  33.929   2.686
83138W        W51356  38.528  23.991   3.110
83139W        W51357  29.650   7.416   1.858
83140W        W51358  40.422   6.378  12.931
83141W        W51359   2.113  23.695   4.144
83142W        W51360  41.781   6.665  13.780
83143W        W51361  12.134  23.451  14.090
83144W        W51362   7.509  14.908   5.019
83145W        W51363  22.843   8.736   0.403
83146W        W51364  18.088  25.966  13.100
83147W        W51365  39.470  21.971  12.562
83148W        W51366  25.120  18.407   1.951
83149W        W51367  20.538  44.516  11.855
83150W        W51368  40.778   2.418  10.578
83151W        W51369  36.471   1.766   3.539
83152W        W51370  34.116  41.940   4.061
83153W        W51371  29.357  17.739  13.483
83154W        W51372  17.593  38.447  13.914
83155W        W51373  10.081  19.662  13.499
83156W        W51374   2.479  34.172   0.367
83157W        W51375  43.006  33.072  10.767
83158W        W51376  25.395  43.327  11.053
83159W        W51377  37.832  39.099  12.050
83160W        W51378  19.754   0.751  12.468
83161W        W51379  27.097  15.689  11.593
83162W        W51380  12.113  25.108  10.800
83163W        W51381  39.689  39.505   4.539
83164W        W51382   5.010  25.396   2.288
83165W        W51383  31.667  19.585   4.194
83166W        W51384  29.643  23.217   2.782
83167W        W51385  34.765   1.456  10.942
83168W        W51386  28.678  26.188  12.337
83169W        W51387  44.104   0.410   4.412
83170W        W51388  18.294  26.463   3.656
83171W        W51389  39.970  21.278   1.236
83172W        W51390  38.800  41.513  11.067
83173W        W51391  13.250  33.999   4.532
83174W        W51392  35.069  33.583  12.567
83175W        W51393  34.183  32.583  11.647
83176W        W51394  41.970   7.806   3.775
83177W        W51395  40.333  15.133   3.709
83178W        W51396  12.585  12.626   4.068
83179W        W51397  44.211  40.993   1.213
83180W        W51398   2.803  28.384  10.810
83181W        W51399  33.839  39.134  11.551
83182W        W51400  13.026  23.424  14.977
83183W        W51401  21.964  19.236   0.917
83184W        W51402  30.662  14.646  11.928
83185W        W51403   4.936   6.864   1.773
83186W        W51404  15.544  30.432   5.059
83187W        W51405   6.111  22.749  14.985
83188W        W51406  22.595   1.009   2.350
83189W        W51407   2.846  35.408   4.696
83190W        W51408  35.178  24.789  14.488
83191W        W51409   6.681  14.149  10.880
83192W        W51410  40.276   2.237  13.437
83193W        W51411  32.072   8.040  13.831
83194W        W51412  14.139   1.752   1.396
83195W        W51413  13.859   6.465   2.748
83196W        W51414  12.347  24.592  11.988
83197W        W51415  13.171   3.808   0.505
83198W        W51416  16.301  36.008   2.841
83199W        W51417   0.350  41.849   1.198
83200W        W51418   9.848  18.160  14.928
83201W        W51419  22.875  29.891  11.744
83202W        W51420  10.420  36.957   3.597
83203W        W51421  15.554  40.595   5.173
83204W        W51422   8.446  15.824   4.144
83205W        W51423  22.450   1.762   1.095
83206W        W51424  15.751  44.806  11.090
83207W        W51425   4.332  16.768  12.690
83208W        W51426  28.956  24.765  12.095
83209W        W51427   3.595  22.001   3.766
83210W        W51428   6.693  27.874  12.786
83211W        W51429  35.827  28.921   2.255
83212W        W51430  19.930   5.815   0.468
83213W        W51431  26.691  35.417  10.442
83214W        W51432   7.359  40.354  12.317
83215W        W51433   1.963  15.665  12.406
83216W        W51434  13.936  28.625   2.004
83217W        W51435  23.066  44.433   2.013
83218W        W51436  22.637  41.357   3.854
83219W        W51437  23.684   7.405  10.522
83220W        W51438  11.830  27.215   1.468
83221W        W51439   1.904  29.493   1.462
83222W        W51440  33.028  21.682   3.281
83223W        W51441  31.387  22.011  12.003
83224W        W51442  22.470  39.303   4.264
83225W        W51443  24.094  38.460   1.303
83226W        W51444  10.304  11.696   5.159
83227W        W51445   8.312  41.093   4.527
83228W        W51446  15.808  37.516  10.666
83229W        W51447   8.920   6.507   4.987
83230W        W51448  11.401  35.695   1.535
83231W        W51449  33.960  31.939   3.229
83232W        W51450   7.400  11.859   3.580
83233W        W51451  31.905  40.333   0.584
83234W        W51452   9.428  13.180  10.595
83235W        W51453  14.593  38.918   1.090
83236W        W51454  30.418   0.447  14.747
83237W        W51455  18.524  29.414   0.465
83238W        W51456  23.705  23.733   1.659
83239W        W51457   1.267  24.859   2.271
83240W        W51458  38.336  21.254  13.057
83241W        W51459  30.289  28.922   4.629
83242W        W51460   4.947  27.431   4.097
83243W        W51461  23.323   5.912   4.547
83244W        W51462  21.685   1.579  13.601
83245W        W51463   4.879  30.086  14.743
83246W        W51464  42.953   6.132   4.533
83247W        W51465   9.209  33.695  10.113
83248W        W51466  26.461  12.384   1.895
83249W        W51467  21.332  41.372  12.984
83250W        W51468   8.081  30.347   2.749
83251W        W51469  13.725   5.334  11.556
83252W        W51470  14.064  21.680   1.325
83253W        W51471  35.312  15.576  13.018
83254W        W51472  36.291  16.776   1.780
83255W        W51473  31.684  22.735   1.845
83256W        W51474  28.623  10.144   0.459
83257W        W51475   4.828  23.457   0.089
83258W        W51476  13.000  34.763   4.067
83259W        W51477  31.012  28.548   3.173
83260W        W51478  28.584  35.167   0.808
83261W        W51479  20.335  25.706  13.051
83262W        W51480   6.912  26.755   4.168
83263W        W51481  33.640   9.598   2.419
83264W        W51482   5.288   4.149   0.404
83265W        W51483   5.366   8.046  12.646
83266W        W51484   2.511   5.319   3.185
83267W        W51485   7.310  30.135  12.735
83268W        W51486  14.353   1.827  10.576
83269W        W51487  40.247  34.944   1.883
83270W        W51488  39.415   4.821  12.566
83271W        W51489  37.585  19.752  11.518
83272W        W51490   5.966   6.690   2.890
83273W        W51491   9.767   7.919   4.039
83274W        W51492  39.778  40.074   2.610
83275W        W51493  35.471   0.534   2.239
83276W        W51494  27.212  27.152   1.275
83277W        W51495  23.070  30.643   1.826
83278W        W51496   5.407  11.095  11.879
83279W        W51497   4.482  29.556   1.634
83280W        W51498  35.576  32.604  13.930
83281W        W51499  19.832   2.414   0.951
83282W        W51500  25.126  23.676   3.190
83283W        W51501  13.389  32.278   2.174
83284W        W51502  39.433  15.188  12.433
83285W        W51503  27.928  30.691  10.278
83286W        W51504  34.845  11.158  14.928
83287W        W51505   3.327  13.112   2.918
83288W        W51506   3.015  13.816   4.880
83289W        W51507  32.215   6.402   4.394
83290W        W51508  23.716  38.674   2.335
83291W        W51509  27.190   4.206   3.582
83292W        W51510  25.601  21.438  11.020
83293W        W51511  42.488   4.316   4.212
83294W        W51512  37.286  27.891   0.810
83295W        W51513  12.206  26.317  12.570
83296W        W51514  42.362  44.512  11.599
83297W        W51515  17.202   6.965   3.232
83298W        W51516  42.096  40.261  12.486
83299W        W51517  18.106  20.026  12.963
83300W        W51518  42.410  23.101  10.562
83301W        W51519  13.809  18.811   0.564
83302W        W51520  23.090  40.842   0.491
83303W        W51521   0.018  21.744  14.911
83304W        W51522  28.868  22.559  14.570
83305W        W51523  28.547   0.892   4.555
83306W        W51524  20.560  16.474   4.467
83307W        W51525   1.932  32.905   4.453
83308W        W51526  32.160   6.665  13.071
83309W        W51527  18.472  19.744   2.240
83310W        W51528  21.595  28.094   1.940
83311W        W51529  29.354  21.047   1.399
83312W        W51530  16.561  14.488  12.110
83313W        W51531  36.981  43.561  11.586
83314W        W51532  29.878  18.663  13.370
83315W        W51533  24.791   4.224   4.118
83316W        W51534   0.157  22.964   4.616
83317W        W51535  24.309  23.478   4.549
83318W        W51536   5.866   6.374  12.910
83319W        W51537  17.579  16.043   4.475
83320W        W51538  43.780  38.050  11.903
83321W        W51539  16.016  40.868  12.191
83322W        W51540  20.794  15.633  10.581
83323W        W51541  43.503  44.682   1.325
83324W        W51542  43.599  42.455  14.526
83325W        W51543  15.631  14.154  12.857
83326W        W51544  34.821   3.885  11.147
83327W        W51545  23.029  12.139   1.695
83328W        W51546  42.797  20.579   3.707
83329W        W51547  30.299  41.830  12.357
83330W        W51548  20.086   8.317   1.785
83331W        W51549  28.626  19.555   2.753
83332W        W51550  43.224  36.022  14.278
83333W        W51551  36.344  14.275   1.798
83334W        W51552  24.532  23.651   4.099
83335W        W51553   9.082   0.659  11.621
83336W        W51554  20.755  37.476  13.337
83337W        W51555  11.322  44.560   0.339
83338W        W51556  12.502  33.933  11.930
83339W        W51557  25.181  34.361  13.954
83340W        W51558  11.179  32.323   3.330
83341W        W51559  40.588   9.933  14.042
83342W        W51560  18.683  39.274   0.150
83343W        W51561  44.044  11.721  11.046
83344W        W51562  37.313   8.282   4.251
83345W        W51563   4.688  23.896  12.764
83346W        W51564   8.747  26.767  11.565
83347W        W51565   5.404  17.898  10.185
83348W        W51566  22.172  31.842   1.539
83349W        W51567  29.877  43.448  12.631
83350W        W51568   3.035  39.619  11.047
83351W        W51569   6.237  28.949   2.781
83352W        W51570  16.677  21.460   2.308
83353W        W51571  13.557  25.885  12.487
83354W        W51572  36.163  31.198  11.080
83355W        W51573  18.813  27.614  11.977
83356W        W51574  35.548   4.190   3.701
83357W        W51575  15.533  36.979  13.409
83358W        W51576  23.660   6.869  12.224
83359W        W51577  10.510  32.369  12.996
83360W        W51578  11.791  18.757   1.386
83361W        W51579  44.879  43.105  12.516
83362W        W51580  39.729   2.218  13.382
83363W        W51581  40.732   0.916  14.172
83364W        W51582  35.961  10.135  13.593
83365W        W51583  20.775   7.168   0.388
83366W        W51584  18.610  11.187   4.465
83367W        W51585  30.538  11.814   3.783
83368W        W51586  24.337  34.643  12.871
83369W        W51587   7.289  12.141  13.338
83370W        W51588  11.726  36.276  14.465
83371W        W51589   8.335  18.998   2.833
83372W        W51590  14.857  30.387  14.782
83373W        W51591  19.313   4.765   2.769
83374W        W51592  25.824   2.212   3.613
83375W        W51593  15.757  40.957  14.793
83376W        W51594  13.480  17.360  13.399
83377W        W51595  15.057  38.701   1.865
83378W        W51596  28.383   4.202  14.013
83379W        W51597  23.504  33.275   2.251
83380W        W51598   9.071  41.650  12.803
83381W        W51599  17.546  34.273   0.240
83382W        W51600  23.281  14.659   3.267
83383W        W51601  21.212   5.705   1.338
83384W        W51602  28.566  38.023   3.356
83385W        W51603  43.666  30.115  12.025
83386W        W51604  19.939  23.221   1.372
83387W        W51605  37.814   2.591  11.427
83388W        W51606  27.980  29.365  13.855
83389W        W51607  35.552  30.129   0.956
83390W        W51608  37.637  36.900  14.519
83391W        W51609  11.502   9.578   0.935
83392W        W51610  23.047  21.061   1.350
83393W        W51611   5.779  12.156  12.434
83394W        W51612   5.416  28.710  12.005
83395W        W51613   2.109  40.977   2.863
83396W        W51614   8.780  19.226   1.085
83397W        W51615  37.700  42.872  14.950
83398W        W51616  44.478  21.058  14.532
83399W        W51617  31.106  16.805   3.754
83400W        W51618  33.368  13.349   3.101
83401W        W51619  40.491  44.423   2.477
83402W        W51620  35.146  43.069  12.518
83403W        W51621  10.595  11.657   2.887
83404W        W51622  25.341  36.493   4.161
83405W        W51623  38.377  34.922  14.736
83406W        W51624  26.528  26.367   1.320
83407W        W51625  42.315  26.970   3.688
83408W        W51626  34.984  21.543  11.457
83409W        W51627  19.639   3.681   1.221
83410W        W51628  16.062   1.262  13.589
83411W        W51629  19.690  26.490  14.488
83412W        W51630  15.773  25.755  10.707
83413W        W51631   8.780  34.597   0.797
83414W        W51632  26.120  20.117  13.905
83415W        W51633  12.736  27.951   2.221
83416W        W51634  32.334   7.167  12.479
83417W        W51635  22.283   7.508   0.747
83418W        W51636  12.476  26.692   2.842
83419W        W51637   5.467  41.482  13.024
83420W        W51638  18.096   3.529   2.416
83421W        W51639  30.855   8.252  13.467
83422W        W51640  18.974  28.719  14.027
83423W        W51641  13.022  18.629   2.385
83424W        W51642  33.149  28.549  14.845
83425W        W51643  29.288  19.067   3.274
83426W        W51644  33.506  29.113   5.470
83427W        W51645   2.198  20.675   0.493
83428W        W51646  32.386  31.861  10.507
83429W        W51647  21.239  39.301   2.553
83430W        W51648   9.670   7.408  14.551
83431W        W51649  13.794  28.125  13.996
83432W        W51650  44.872   6.586  14.825
83433W        W51651  10.776  16.943  14.603
83434W        W51652   4.787  39.011  14.239
83435W        W51653  36.400  44.244   1.757
83436W        W51654   3.021   3.883   3.413
83437W        W51655  44.186  10.873   0.037
83438W        W51656  22.062  14.995  13.071
83439W        W51657   4.904  13.136   4.153
83440W        W51658  28.587  21.967  13.555
83441W        W51659  34.896  40.329  11.237
83442W        W51660  23.063  43.447  12.487
83443W        W51661  41.635  13.555   2.399
83444W        W51662  22.411  40.190   4.576
83445W        W51663  30.210  43.951  11.608
83446W        W51664  28.599   7.168  10.682
83447W        W51665   6.523  31.252   4.272
83448W        W51666  25.153  23.909   3.633
83449W        W51667  16.828  28.565   1.962
83450W        W51668  36.785  27.600   4.863
83451W        W51669   2.006   7.182   1.391
83452W        W51670  35.135   2.501  14.317
83453W        W51671  39.962   4.457   4.438
83454W        W51672  12.857  42.773  10.712
83455W        W51673  21.632  29.397   2.627
83456W        W51674  37.850  20.249   1.790
83457W        W51675   1.904  35.482   2.671
83458W        W51676  30.122  42.704   1.702
83459W        W51677  44.780  14.660  14.378
83460W        W51678  39.799  14.562   4.275
83461W        W51679  30.906   1.975  14.924
83462W        W51680  29.920  19.831   3.194
83463W        W51681  16.646  30.014   0.519
83464W        W51682  26.238  16.340   4.324
83465W        W51683   6.306  15.157  11.164
83466W        W51684   7.607   7.483  14.945
83467W        W51685  40.026  42.827   4.895
83468W        W51686   9.501   5.261   0.836
83469W        W51687   0.028   4.675   2.227
83470W        W51688  24.466  29.971   4.895
83471W        W51689  26.453  29.709  11.489
83472W        W51690  43.679  44.377   4.258
83473W        W51691  20.508  29.044  13.435
83474W        W51692   6.020  27.723   1.353
83475W        W51693  38.652  17.579   1.560
83476W        W51694  10.297  27.042   2.691
83477W        W51695  44.669   9.136  13.505
83478W        W51696   4.765   2.089   2.957
83479W        W51697  20.381  15.826  11.512
83480W        W51698   3.289  21.134   4.127
83481W        W51699   3.336  16.812   1.088
83482W        W51700   5.687  20.495   2.308
83483W        W51701  32.054  18.031  13.145
83484W        W51702  21.550   6.058  11.684
83485W        W51703  11.877  24.721   0.803
83486W        W51704  39.057  10.708  10.145
83487W        W51705   3.780  38.518   4.320
83488W        W51706  15.060  40.337   4.541
83489W        W51707  33.091   0.044   0.636
83490W        W51708   0.482   0.374  13.382
83491W        W51709   6.423  41.129  12.261
83492W        W51710   7.113  11.403  12.320
83493W        W51711  43.990  38.441   1.125
83494W        W51712   4.827  40.775  13.417
83495W        W51713   7.143  18.330   0.913
83496W        W51714  43.357  20.103  13.005
83497W        W51715  21.501  33.842   3.579
83498W        W51716   2.323  41.924  10.622
83499W        W51717  44.239   3.986  11.968
83500W        W51718   3.687  25.684   1.988
83501W        W51719  16.947  11.343  10.712
83502W        W51720  37.131  26.944   3.681
83503W        W51721  12.878   5.669   3.172
83504W        W51722  25.789  14.570  11.473
83505W        W51723  12.518  20.420  12.924
83506W        W51724  33.441   3.345  13.925
83507W        W51725  21.173  10.209  13.489
83508W        W51726  41.306   3.913  12.140
83509W        W51727  39.376   0.788  10.821
83510W        W51728   9.972   0.952  14.961
83511W        W51729  29.899   4.480  14.444
83512W        W51730  25.788   1.883  12.152
83513W        W51731   8.718  19.712   0.882
83514W        W51732  36.762  31.010   4.337
83515W        W51733  31.012  13.947   2.569
83516W        W51734  42.236   4.780  14.364
83517W        W51735   1.831  12.117  13.582
83518W        W51736   5.896  23.317  14.475
83519W        W51737  27.250  14.542   2.321
83520W        W51738  22.826  35.027   2.641
83521W        W51739  23.013  23.568   2.195
83522W        W51740  36.638  33.949  14.270
83523W        W51741   4.253  23.206   1.186
83524W        W51742  39.060   8.668   0.387
83525W        W51743  15.890  33.330  12.895
83526W        W51744  11.585  26.934   4.976
83527W        W51745  18.661  19.469  13.967
83528W        W51746  16.072   2.729  13.349
83529W        W51747  42.317  39.488   3.127
83530W        W51748  20.643  16.004   2.623
83531W        W51749  40.259   5.189   0.905
83532W        W51750   5.902  22.241  13.090
83533W        W51751  24.129   8.350   2.314
83534W        W51752   6.447  10.952   3.699
83535W        W51753  44.012  24.937   5.161
83536W        W51754  35.570  10.756   0.957
83537W        W51755   1.992  37.719   5.037
83538W        W51756   5.207  33.971   2.006
83539W        W51757   7.840   6.596  13.429
83540W        W51758  38.539  33.936  10.905
83541W        W51759  41.338  18.002   3.217
83542W        W51760  41.020  21.084  13.220
83543W        W51761  14.505  10.901  13.483
83544W        W51762  13.175  21.672   1.426
83545W        W51763  35.682  21.209  11.505
83546W        W51764  11.902  37.469  13.061
83547W        W51765  22.727  44.422   5.015
83548W        W51766  25.112  24.739   3.404
83549W        W51767  43.094  15.668   2.888
83550W        W51768  38.469   0.392  12.986
83551W        W51769  23.171   6.486   0.331
83552W        W51770   0.260  10.300  14.539
83553W        W51771   1.964   0.923  14.883
83554W        W51772  25.104   4.838  12.576
83555W        W51773  13.863   3.894  14.369
83556W        W51774  33.564  14.710   0.836
83557W        W51775  28.973  26.115   2.358
83558W        W51776  33.415  27.963  12.149
83559W        W51777  43.406   3.539   0.372
83560W        W51778  14.488  13.576  11.493
83561W        W51779  25.319  32.409  12.067
83562W        W51780  22.152  27.972   4.639
83563W        W51781  40.989   2.212   4.491
83564W        W51782   3.855   8.828  13.401
83565W        W51783   0.240  42.648   0.856
83566W        W51784  10.852   1.564   2.450
83567W        W51785   7.625  41.438  13.289
83568W        W51786  26.554  20.491   2.945
83569W        W51787  22.020  26.786  14.641
83570W        W51788   2.186  17.313   3.683
83571W        W51789  12.122   2.914   4.687
83572W        W51790  31.050   4.843  11.526
83573W        W51791  37.385  38.748  12.817
83574W        W51792  24.293  11.615   5.112
83575W        W51793   5.479  20.090   1.662
83576W        W51794   4.704  24.093   4.588
83577W        W51795  24.230  22.043  12.638
83578W        W51796  35.336   6.297   3.196
83579W        W51797  26.171  25.500   4.026
83580W        W51798  22.994  35.876  11.102
83581W        W51799   1.934   8.352  12.663
83582W        W51800   4.088   5.372   0.271
83583W        W51801  34.896  29.517  11.606
83584W        W51802  42.365  34.021   4.307
83585W        W51803  22.182   2.053   1.792
83586W        W51804  13.348  24.115  14.512
83587W        W51805  44.308   9.206  12.044
83588W        W51806  35.058  19.257  12.635
83589W        W51807  21.718  29.393   1.211
83590W        W51808  37.754   6.292  10.344
83591W        W51809  21.931   3.819   2.518
83592W        W51810  40.767  38.541  13.913
83593W        W51811  40.064  25.989   3.237
83594W        W51812   7.375  36.603  11.574
83595W        W51813   4.739  31.977   1.264
83596W        W51814  37.507  23.717  14.278
83597W        W51815  31.534  12.308  11.519
83598W        W51816  14.418  33.981   3.789
83599W        W51817  41.797  38.262  12.601
83600W        W51818   9.433  11.162  12.436
83601W        W51819   5.338  40.919   4.343
83602W        W51820  32.476  19.863  12.026
83603W        W51821  12.946  25.185   1.276
83604W        W51822  43.888  25.777   1.674
83605W        W51823  23.137   8.211  11.934
83606W        W51824  30.097  15.554  12.143
83607W        W51825  25.441   4.707  13.931
83608W        W51826  36.802  37.606   1.162
83609W        W51827  34.068  25.121   3.888
83610W        W51828  38.791  24.133  11.015
83611W        W51829  21.131   2.223   1.853
83612W        W51830  35.051  40.959   0.774
83613W        W51831   4.313  16.189   5.022
83614W        W51832  35.708  10.330   3.657
83615W        W51833  12.084  32.014   3.287
83616W        W51834  11.754   6.617   1.393
83617W        W51835  12.398  12.861   0.795
83618W        W51836  18.779   3.160  11.595
83619W        W51837   6.724  16.744   2.778
83620W        W51838   7.642  32.956   0.849
83621W        W51839  28.758  20.227  10.906
83622W        W51840  21.790   9.303  13.523
83623W        W51841  32.719  34.463  13.865
83624W        W51842   8.605  37.801  13.941
83625W        W51843  34.778  32.913   0.293
83626W        W51844   5.716  42.768  11.452
83627W        W51845   4.243  23.095   1.687
83628W        W51846  38.124  16.702   3.407
83629W        W51847  29.699  13.354  12.015
83630W        W51848   3.219  32.126  14.494
83631W        W51849  17.314  23.662   1.274
83632W        W51850  10.164  38.958   0.341
83633W        W51851   4.432  34.587  12.928
83634W        W51852  10.160  44.439  10.637
83635W        W51853   7.627  25.496   0.927
83636W        W51854  27.925  20.677  13.600
83637W        W51855  30.898  31.363  14.911
83638W        W51856  39.538  22.670   3.210
83639W        W51857   7.234  44.229  12.079
83640W        W51858   6.999   9.783   4.588
83641W        W51859  42.060  18.207   4.248
83642W        W51860  42.958   1.380   3.237
83643W        W51861  25.111  16.326  13.947
83644W        W51862  26.617   7.000  14.223
83645W        W51863   6.283  29.455  11.490
83646W        W51864  16.859  41.293  14.146
83647W        W51865   1.730   2.799   3.682
83648W        W51866  43.004  12.384  11.481
83649W        W51867  26.596   6.355   0.528
83650W        W51868   5.051   4.945  12.980
83651W        W51869   9.759  44.830  12.328
83652W        W51870  19.791  35.585  11.617
83653W        W51871  31.629  28.550   4.120
83654W        W51872  18.122   7.199  12.822
83655W        W51873  10.445   4.765  10.093
83656W        W51874   1.821  22.480  12.853
83657W        W51875  14.691  29.988  10.457
83658W        W51876  36.463  38.472  12.496
83659W        W51877  34.475  19.589  14.107
83660W        W51878   2.724  40.438   4.633
83661W        W51879  34.810  39.627  10.521
83662W        W51880  14.718  40.296   1.443
83663W        W51881  39.174   6.239   0.305
83664W        W51882  35.578  29.266   1.096
83665W        W51883   5.301   0.236   0.871
83666W        W51884  23.677  26.468   2.228
83667W        W51885  12.836  31.643  11.826
83668W        W51886  16.589  41.043  13.058
83669W        W51887   2.583  11.311   3.109
83670W        W51888  38.026   6.757  14.214
83671W        W51889  37.758  24.134  10.277
83672W        W51890  24.171   8.670   0.827
83673W        W51891  10.296  15.064   2.325
83674W        W51892  42.723  34.650   0.905
83675W        W51893  39.295   7.253  14.561
83676W        W51894  34.307  35.823  13.836
83677W        W51895   0.956  14.787  13.506
83678W        W51896   2.592  24.876  10.172
83679W        W51897   2.137  10.674   0.998
83680W        W51898   3.733  38.607   3.185
83681W        W51899  11.794  18.609  11.405
83682W        W51900  22.697  17.212   2.312
83683W        W51901  26.584   1.949   2.654
83684W        W51902  21.599   3.489   1.190
83685W        W51903  33.613  38.234  13.302
83686W        W51904   4.867  25.898   2.312
83687W        W51905   9.780   7.022  11.602
83688W        W51906  30.933  27.862   2.385
83689W        W51907  29.999  13.837   4.069
83690W        W51908   4.899  22.225  13.552
83691W        W51909  42.455  11.231   4.559
83692W        W51910   5.882   2.937  13.070
83693W        W51911   6.825   7.088   2.634
83694W        W51912  40.771   5.483   4.816
83695W        W51913   9.364  25.995   0.863
83696W        W51914  30.488  42.363  11.192
83697W        W51915   1.328  18.993  11.666
83698W        W51916   2.826   0.723   0.342
83699W        W51917  26.596  23.390  10.545
83700W        W51918  26.295  32.603   5.093
83701W        W51919   9.229   4.050   1.202
83702W        W51920  12.344  24.251  14.320
83703W        W51921  11.114   4.672   2.196
83704W        W51922  20.415   9.825   4.268
83705W        W51923  17.007  14.311  13.111
83706W        W51924  29.081   0.473  12.431
83707W        W51925  13.352   7.814  11.575
83708W        W51926  21.657  12.235   1.908
83709W        W51927  21.143  31.457   2.386
83710W        W51928  42.078  30.351   0.967
83711W        W51929   3.252  17.094  10.871
83712W        W51930  30.492  21.546   4.403
83713W        W51931  42.945  18.780   2.852
83714W        W51932  18.590   2.002  12.173
83715W        W51933   2.502   4.746   4.498
83716W        W51934  24.325  33.475   2.517
83717W        W51935   2.729   5.716  10.300
83718W        W51936  29.000  14.877  11.697
83719W        W51937  25.075  36.147   1.884
83720W        W51938  27.750  25.609   4.686
83721W        W51939  10.782  40.792  12.414
83722W        W51940   9.196  35.861  12.394
83723W        W51941  18.121  16.347   2.190
83724W        W51942  20.630   7.366  12.467
83725W        W51943  24.461  29.108   3.782
83726W        W51944  22.132  37.111  14.788
83727W        W51945  37.956   8.655   1.696
83728W        W51946  40.387  41.589  12.867
83729W        W51947  23.749   3.781  13.898
83730W        W51948   9.710  37.456  11.202
83731W        W51949  22.750  34.553  13.375
83732W        W51950  17.986  21.679   1.751
83733W        W51951  44.990  26.155  12.109
83734W        W51952  40.826  43.025  13.792
83735W        W51953   6.394   5.823   2.669
83736W        W51954  42.075   1.011   1.766
83737W        W51955  23.075  36.978   5.654
83738W        W51956  29.446  25.500   9.955
83739W        W51957  41.762  11.608   1.235
83740W        W51958  19.451  30.894   2.361
83741W        W51959  41.379  17.279   2.634
83742W        W51960   4.819   4.908   2.675
83743W        W51961  41.354  29.957  13.369
83744W        W51962  20.505  17.783  12.907
83745W        W51963  42.461   5.687   3.798
83746W        W51964  20.901  28.918   3.183
83747W        W51965  16.547  36.596  10.767
83748W        W51966   7.218  30.876   0.287
83749W        W51967   8.801  13.203   4.509
83750W        W51968   2.691  36.967  10.957
83751W        W51969  13.658  14.126   3.340
83752W        W51970  43.217  40.945   3.563
83753W        W51971  16.012  42.404   1.915
83754W        W51972   0.148  38.860   1.671
83755W        W51973  41.048  15.095  11.089
83756W        W51974  44.015  11.810  12.466
83757W        W51975  28.684  35.257  12.014
83758W        W51976   7.359  18.653  12.974
83759W        W51977   0.985  38.799   2.415
83760W        W51978  43.399   6.721   2.423
83761W        W51979  36.659  31.154  11.181
83762W        W51980  29.356  33.912  12.037
83763W        W51981   7.834  26.081   4.622
83764W        W51982  17.130  21.959   4.694
83765W        W51983  25.478   1.354   1.812
83766W        W51984   3.524  34.161  10.840
83767W        W51985   8.773  40.837   3.147
83768W        W51986   0.975  40.519  11.564
83769W        W51987   1.270  26.308   0.519
83770W        W51988  43.961  27.195  12.997
83771W        W51989  13.034  19.795   0.298
83772W        W51990  14.827  21.196  11.960
83773W        W51991  19.080  37.627  10.179
83774W        W51992  19.276  12.159  12.293
83775W        W51993  43.583  22.716   2.228
83776W        W51994  36.759  38.350   3.743
83777W        W51995  40.404  27.338  13.635
83778W        W51996  42.706  36.902   0.424
83779W        W51997  13.543  44.481   0.281
83780W        W51998   4.399  14.515  14.210
83781W        W51999  35.476  40.475   2.884
83782W        W52000  43.790   1.347  12.705
83783W        W52001  22.735  38.124  12.414
83784W        W52002  43.811  38.021  10.680
83785W        W52003  29.135  44.268   3.229
83786W        W52004  21.376  39.050   3.799
83787W        W52005   2.353  38.010   0.200
83788W        W52006  16.534  18.301   2.100
83789W        W52007   4.655  40.426   4.174
83790W        W52008  38.276  40.381  13.994
83791W        W52009   4.268   2.314  13.603
83792W        W52010   9.348  10.192   0.239
83793W        W52011  19.052  34.911   1.202
83794W        W52012  34.548  10.711  11.039
83795W        W52013   9.893   9.432  13.060
83796W        W52014  32.426  26.093   4.625
83797W        W52015  12.119   7.741  10.702
83798W        W52016  28.571   9.731   0.795
83799W        W52017   3.220  40.524   4.528
83800W        W52018  34.994  10.206   2.676
83801W        W52019  23.577  44.281  11.017
83802W        W52020  26.735  26.659  12.650
83803W        W52021  38.904  27.942   4.178
83804W        W52022  11.261  39.409   1.825
83805W        W52023  27.030   2.369   0.215
83806W        W52024   6.195   0.855   4.722
83807W        W52025  30.039  38.965  11.884
83808W        W52026  30.339   3.035   2.363
83809W        W52027  26.478  15.722  13.286
83810W        W52028  33.066  20.948   3.599
83811W        W52029  35.062  36.524   2.129
83812W        W52030  20.815  43.614  10.256
83813W        W52031   8.145  11.122   1.840
83814W        W52032  38.061  19.819  13.379
83815W        W52033  31.166  17.574  11.300
83816W        W52034  44.448   3.230  14.884
83817W        W52035  18.213  42.533  13.836
83818W        W52036  13.714  38.896  10.812
83819W        W52037  15.326  36.550  13.178
83820W        W52038   7.129  27.718   2.673
83821W        W52039  28.056  36.425  11.731
83822W        W52040  23.095  16.847   3.066
83823W        W52041   1.626  26.367   4.180
83824W        W52042  39.082  14.717   1.780
83825W        W52043  37.325  16.070  13.449
83826W        W52044  18.850  14.239  13.388
83827W        W52045   0.844  39.771   4.760
83828W        W52046  37.385  42.517  11.163
83829W        W52047  15.258  32.323  13.452
83830W        W52048  34.479  11.758   3.987
83831W        W52049  42.071  11.197   1.198
83832W        W52050  16.085  42.917   1.792
83833W        W52051  41.624  30.973  14.991
83834W        W52052   2.055  36.154  11.204
83835W        W52053  24.423   3.786  11.698
83836W        W52054  42.273  40.325   3.166
83837W        W52055   1.234   2.335   2.256
83838W        W52056   6.211  14.378   3.056
83839W        W52057   5.891  23.563   0.907
83840W        W52058  42.897  42.005  11.116
83841W        W52059  43.615  43.980  12.076
83842W        W52060  21.166  34.294  13.899
83843W        W52061  19.006   2.910   4.349
83844W        W52062  16.496   8.903   2.648
83845W        W52063   5.821  23.814  14.530
83846W        W52064  29.206  36.923   3.643
83847W        W52065   5.751  10.697  12.623
83848W        W52066  43.378   6.230   3.634
83849W        W52067  15.336  35.599  12.986
83850W        W52068  11.757  12.044   1.952
83851W        W52069  24.885  43.596  13.966
83852W        W52070  12.052  39.298  12.487
83853W        W52071  24.487  29.843   0.370
83854W        W52072  32.254   4.985   1.873
83855W        W52073  23.095   4.204   3.669
83856W        W52074   5.123  38.658  11.699
83857W        W52075  17.231  32.477  12.958
83858W        W52076  20.573  24.457  13.194
83859W        W52077   4.648  11.347   0.513
83860W        W52078  40.719  38.983   0.410
83861W        W52079   5.243  42.889   2.164
83862W        W52080  35.068   6.963  13.870
83863W        W52081  43.254  14.168   3.015
83864W        W52082  23.486  42.874  14.872
83865W        W52083   6.103  36.864  13.408
83866W        W52084  29.683  40.256  13.005
83867W        W52085  44.911  18.008  13.260
83868W        W52086  11.584  18.020  13.896
83869W        W52087   9.706  11.205  12.871
83870W        W52088   1.807  30.330  13.342
83871W        W52089   7.385  29.187  11.921
83872W        W52090   7.246  28.493   4.641
83873W        W52091  20.614  29.597   3.258
83874W        W52092  17.374  28.032   0.352
83875W        W52093  11.147  26.893  11.387
83876W        W52094  26.072  17.681   0.764
83877W        W52095  12.262   1.574  12.151
83878W        W52096  38.332   6.220  13.807
83879W        W52097   9.140  25.657  11.925
83880W        W52098   9.207  26.718   1.827
83881W        W52099  12.218  28.185   2.204
83882W        W52100  14.177  17.480   3.637
83883W        W52101  15.318  19.672  10.542
83884W        W52102   3.896  27.229  11.498
83885W        W52103  37.774   5.979  12.128
83886W        W52104  43.317  36.886  13.043
83887W        W52105  33.442  12.292   1.947
83888W        W52106  15.191  17.772   0.795
83889W        W52107  19.899  34.022   2.555
83890W        W52108  12.964   2.956  14.835
83891W        W52109  28.087   1.808   0.281
83892W        W52110  36.976  16.806  10.691
83893W        W52111  18.584  22.190   4.144
83894W        W52112  18.593  24.008   2.802
83895W        W52113  36.773  33.874   0.333
83896W        W52114  37.042  34.745   3.534
83897W        W52115  20.516  25.819   4.257
83898W        W52116  11.075  30.669  11.503
83899W        W52117  16.557  16.122   1.918
83900W        W52118   8.859  29.956   3.755
83901W        W52119  42.098  36.470  12.953
83902W        W52120  43.326  15.722   2.429
83903W        W52121   3.316   0.849   0.241
83904W        W52122  23.248  26.067   1.389
83905W        W52123  13.257  35.454  10.804
83906W        W52124  19.247  17.646   0.842
83907W        W52125  11.325  19.337   2.460
83908W        W52126  29.924  33.523  10.933
83909W        W52127  32.036  37.489   3.532
83910W        W52128   4.321   4.962  12.721
83911W        W52129  11.620  34.403   1.155
83912W        W52130   2.327  21.350  12.205
83913W        W52131   6.450   1.255   3.924
83914W        W52132  32.991  26.779   4.300
83915W        W52133  33.093  20.502   2.401
83916W        W52134  41.082  40.033   2.827
83917W        W52135  25.753  23.044  12.618
83918W        W52136  40.041  36.523   4.191
83919W        W52137  12.736  24.051   2.358
83920W        W52138  18.630   1.931   4.510
83921W        W52139   7.780  40.806  13.978
83922W        W52140  15.500  35.512   3.546
83923W        W52141  10.808   4.038  11.964
83924W        W52142  38.289  44.453   0.526
83925W        W52143   9.142  35.670  11.132
83926W        W52144  22.114   7.379   4.546
83927W        W52145   0.379  18.609  10.533
83928W        W52146  43.845   7.924  12.265
83929W        W52147  23.730  19.080  13.494
83930W        W52148  25.087  18.060   2.344
83931W        W52149   7.978   4.338   1.010
83932W        W52150  26.029   8.681  10.692
83933W        W52151  27.643  41.115   1.417
83934W        W52152   7.974  42.837   5.417
83935W        W52153  40.083  29.712  14.909
83936W        W52154  16.971  39.093   2.616
83937W        W52155  10.372  25.249   0.504
83938W        W52156  25.706  41.708   1.185
83939W        W52157  37.940   5.097  11.940
83940W        W52158  11.287  29.465   2.906
83941W        W52159  37.301  24.236  12.922
83942W        W52160  32.128  29.097  12.165
83943W        W52161  33.755  20.227  11.155
83944W        W52162  34.825  35.458  10.887
83945W        W52163  12.637  44.970  11.472
83946W        W52164  18.515  31.699  10.227
83947W        W52165  33.439   5.733   0.934
83948W        W52166   0.998   2.966  11.639
83949W        W52167   6.023   8.674  14.046
83950W        W52168   2.776  12.743  14.241
83951W        W52169  34.397  30.712   1.521
83952W        W52170   0.537   1.165   2.137
83953W        W52171   3.215  12.611  14.515
83954W        W52172  44.196  44.238  10.719
83955W        W52173   7.836  33.604   2.544
83956W        W52174  10.162  38.842  12.411
83957W        W52175   0.119   7.347  14.318
83958W        W52176  19.812   4.906   2.673
83959W        W52177   2.500  21.617   1.701
83960W        W52178  19.104  11.556  14.074
83961W        W52179  11.354  35.945   3.253
83962W        W52180  17.356  41.749   4.387
83963W        W52181   7.683  25.267  11.471
83964W        W52182  23.399  13.834   3.670
83965W        W52183  18.780  34.893   0.409
83966W        W52184  27.934  25.448  10.986
83967W        W52185  21.163  41.272  12.519
83968W        W52186  22.994  31.272  13.786
83969W        W52187  30.065  34.504   2.240
83970W        W52188  39.257  42.350  11.920
83971W        W52189  16.097  14.593   0.920
83972W        W52190  12.646  17.297   1.756
83973W        W52191  22.931  20.977   3.099
83974W        W52192  27.660  41.476   2.438
83975W        W52193  41.925  36.035  13.766
83976W        W52194  25.697  43.616  11.368
83977W        W52195  12.574  12.332   3.444
83978W        W52196  18.035  43.534   4.697
83979W        W52197  34.577  40.872   3.645
83980W        W52198  15.572  43.014  13.871
83981W        W52199  15.645  21.047  10.322
83982W        W52200  30.831  15.630  11.044
83983W        W52201  43.621  20.810   3.152
83984W        W52202  38.763  10.988   3.267
83985W        W52203  40.688  27.158   4.512
83986W        W52204  13.839  40.382  13.453
83987W        W52205  40.497   9.676  14.531
83988W        W52206   8.739  10.259  13.279
83989W        W52207   7.410   6.684  12.040
83990W        W52208   2.238   8.054  14.336
83991W        W52209  41.066   0.002  12.672
83992W        W52210  44.353   3.442  13.536
83993W        W52211  17.596  21.324   1.762
83994W        W52212  29.418  22.644   4.500
83995W        W52213  16.107   8.882  13.877
83996W        W52214  12.957   6.644   2.656
83997W        W52215  17.468   4.735   3.255
83998W        W52216   8.477  15.842  14.401
83999W        W52217   9.700  22.544   0.848
84000W        W52218  21.637   4.462  14.010
84001W        W52219  31.817  11.516  13.362
84002W        W52220  14.196  26.177  14.547
84003W        W52221  28.188  24.777  13.337
84004W        W52222  11.227  33.152  12.910
84005W        W52223   2.317  35.017   2.689
84006W        W52224  37.021  43.744  14.517
84007W        W52225  23.246  40.450   2.305
84008W        W52226  23.753  13.197  11.082
84009W        W52227  31.782   1.187   3.433
84010W        W52228  17.966  44.249  12.589
84011W        W52229  16.616   6.782  12.180
84012W        W52230   7.461   9.592   2.129
84013W        W52231  39.407  20.236   3.202
84014W        W52232  44.741   5.865  10.679
84015W        W52233  18.785  40.504  14.488
84016W        W52234   0.856  19.000  12.659
84017W        W52235  28.024  30.271  11.009
84018W        W52236  18.326  17.642   0.877
84019W        W52237  29.094  36.889   4.140
84020W        W52238  31.034  44.793   2.668
84021W        W52239  34.152  16.127   2.185
84022W        W52240   4.870  42.550  11.691
84023W        W52241  23.783   8.261   2.696
84024W        W52242  20.290   4.350  12.610
84025W        W52243  24.896  26.913   4.267
84026W        W52244  21.166  33.423   3.246
84027W        W52245   9.106  27.063  12.410
84028W        W52246  34.658  12.663   4.794
84029W        W52247   2.808   5.716  11.274
84030W        W52248  42.339   8.644   3.054
84031W        W52249  41.378  44.513  14.481
84032W        W52250  32.912  12.543   3.255
84033W        W52251  38.288  22.606   3.238
84034W        W52252  42.429  39.423   4.504
84035W        W52253  19.075  34.092  12.229
84036W        W52254  35.873  14.222   3.090
84037W        W52255  26.246  42.365  13.047
84038W        W52256   7.368   7.439   3.052
84039W        W52257  31.704  43.323   1.009
84040W        W52258  27.895  13.691   3.073
84041W        W52259  34.822  28.209   0.872
84042W        W52260   2.575   9.248  13.323
84043W        W52261  14.137  26.426   2.824
84044W        W52262  10.051  35.895   1.138
84045W        W52263  11.352  31.544   1.611
84046W        W52264   5.147  16.659  12.452
84047W        W52265  36.946  26.929   4.184
84048W        W52266  15.335  38.384  11.875
84049W        W52267  24.665  40.914   4.234
84050W        W52268  14.096   1.689  14.413
84051W        W52269   5.463  24.517   0.882
84052W        W52270   9.798  11.349  10.705
84053W        W52271  21.623  34.859  13.395
84054W        W52272   3.012  38.610  11.170
84055W        W52273  17.135  10.829   0.485
84056W        W52274  18.075  40.434   0.796
84057W        W52275  22.123  19.535  13.969
84058W        W52276   2.652   8.390   3.169
84059W        W52277   2.286  41.033   1.788
84060W        W52278  11.185   8.811  14.113
84061W        W52279  12.554  30.159   0.216
84062W        W52280  27.652  34.127   2.256
84063W        W52281   7.387  20.758  13.880
84064W        W52282   2.431  32.118  10.572
84065W        W52283  34.415   7.717  14.054
84066W        W52284  42.565  11.118   3.617
84067W        W52285   7.265  34.477   0.794
84068W        W52286  41.374  25.092   3.796
84069W        W52287   1.887  22.534   0.305
84070W        W52288  10.842  25.719   1.339
84071W        W52289  32.107   6.898   2.587
84072W        W52290  41.876  24.061   3.199
84073W        W52291   3.732   6.670  12.092
84074W        W52292   6.743  19.073   2.481
84075W        W52293   3.002  25.048   1.643
84076W        W52294  29.983   1.470   3.825
84077W        W52295  37.336   0.900  14.490
84078W        W52296  43.562  26.514   3.234
84079W        W52297  36.388   2.876  13.360
84080W        W52298  26.998  32.093   3.478
84081W        W52299  18.097  32.702   1.836
84082W        W52300  32.581  28.243   0.143
84083W        W52301  31.398   6.866  11.548
84084W        W52302  41.321  12.941  12.853
84085W        W52303   4.511  30.598   1.477
84086W        W52304   8.171  31.940   0.238
84087W        W52305   0.930  13.234  10.785
84088W        W52306  40.992  41.970   2.016
84089W        W52307  32.056  11.412  10.339
84090W        W52308  36.484  17.665   3.811
84091W        W52309  35.471  12.596   1.151
84092W        W52310  32.528   5.007  14.496
84093W        W52311  17.337   8.300  10.935
84094W        W52312  29.589  38.067   2.404
84095W        W52313   9.675  11.667   1.343
84096W        W52314  31.906  17.010   0.542
84097W        W52315  34.385  16.087   1.360
84098W        W52316  29.401   1.986   3.781
84099W        W52317   7.713  23.991  12.987
84100W        W52318  13.806  10.321  12.839
84101W        W52319  21.450  28.937  12.013
84102W        W52320  14.584  28.524   4.621
84103W        W52321  17.598  23.083  13.325
84104W        W52322  15.263  12.051   2.570
84105W        W52323  33.674   7.490   0.911
84106W        W52324  38.845  21.653   0.910
84107W        W52325  34.435   5.596  14.785
84108W        W52326  31.032  14.324  10.320
84109W        W52327  40.793  10.716   2.219
84110W        W52328  15.293  42.787   2.347
84111W        W52329   7.669  35.554  13.839
84112W        W52330  10.163  13.987  12.237
84113W        W52331  11.926  30.932   2.194
84114W        W52332   3.337   2.789  12.834
84115W        W52333  25.487  40.896   2.783
84116W        W52334  16.147   6.513  12.393
84117W        W52335  14.046  23.101   2.624
84118W        W52336   9.157   6.870   0.717
84119W        W52337   0.970  31.722  11.149
84120W        W52338  32.524  23.637   2.287
84121W        W52339   2.428  25.565  14.058
84122W        W52340  22.397   9.961  14.927
84123W        W52341  21.871  12.608   3.427
84124W        W52342   9.325  38.546   2.688
84125W        W52343   8.167  27.234   0.864
84126W        W52344   6.952  33.592  10.720
84127W        W52345  39.586  40.853   4.036
84128W        W52346   1.154  16.060   1.146
84129W        W52347  14.807  44.905  12.498
84130W        W52348  14.610  22.197   9.795
84131W        W52349  40.290   0.443   4.571
84132W        W52350   8.265  22.505  12.304
84133W        W52351  16.223   3.535  11.685
84134W        W52352  18.653  43.501   1.912
84135W        W52353  44.795  16.325   1.030
84136W        W52354  41.294   0.256  14.969
84137W        W52355  43.872  37.263  11.238
84138W        W52356  30.030  20.552   1.703
84139W        W52357  40.851  20.346  14.424
84140W        W52358  18.234  33.882  13.992
84141W        W52359  36.933  27.485   0.793
84142W        W52360  32.130  17.518   0.300
84143W        W52361  25.126  29.146   1.387
84144W        W52362  31.587   1.642   4.721
84145W        W52363  28.205   8.112   3.648
84146W        W52364  29.409  10.715   1.707
84147W        W52365  13.418  19.474  14.060
84148W        W52366  13.178   5.905   0.241
84149W        W52367  23.599   3.934  14.808
84150W        W52368  44.011  21.648   1.395
84151W        W52369  34.371  14.666   4.510
84152W        W52370  25.654   6.312  10.769
84153W        W52371  32.883  42.900   1.409
84154W        W52372  17.560  19.530   3.120
84155W        W52373   8.026   5.238  13.550
84156W        W52374  11.295   5.279   0.413
84157W        W52375  23.048  14.860   3.700
84158W        W52376  40.761   5.305   1.996
84159W        W52377  41.427  37.089   1.576
84160W        W52378  20.447  29.066   4.338
84161W        W52379  14.161  39.384  13.806
84162W        W52380  16.533  11.643  12.371
84163W        W52381   7.171  33.024   4.220
84164W        W52382  36.303   0.813  12.874
84165W        W52383  33.339  29.231  14.025
84166W        W52384  37.695  23.185   4.090
84167W        W52385  33.574  20.180  14.010
84168W        W52386  12.128  41.512   3.762
84169W        W52387  13.867  21.144  12.385
84170W        W52388  26.777  32.501  11.097
84171W        W52389   9.718  10.331  10.608
84172W        W52390   4.156  24.620   3.655
84173W        W52391  31.105   5.473   1.001
84174W        W52392  16.380  23.300  13.858
84175W        W52393  37.063  12.953  11.101
84176W        W52394  37.447  41.973  13.435
84177W        W52395  24.679   2.948   1.862
84178W        W52396  31.629   5.527  14.275
84179W        W52397  38.701   0.235  12.515
84180W        W52398  20.780  21.659   3.068
84181W        W52399  17.303  35.609   0.747
84182W        W52400  32.451  40.708  11.063
84183W        W52401  39.926  24.204   3.194
84184W        W52402  44.482   0.310  11.941
84185W        W52403   4.359  35.361   0.493
84186W        W52404   2.501  43.852   0.349
84187W        W52405   3.805  16.015  13.903
84188W        W52406   6.906  44.418  11.280
84189W        W52407  25.589  10.932  11.698
84190W        W52408  37.974  34.648   1.694
84191W        W52409  18.762  32.303   5.029
84192W        W52410  38.033   8.250  12.860
84193W        W52411   7.382  16.822  11.723
84194W        W52412   1.568  31.582   2.791
84195W        W52413  18.031  30.302   2.901
84196W        W52414  29.169  43.453   3.697
84197W        W52415  22.575  17.831  13.111
84198W        W52416  18.033  25.444   4.220
84199W        W52417  23.086   0.223  14.875
84200W        W52418   2.803  42.442  12.951
84201W        W52419  19.579  26.661   2.390
84202W        W52420  27.991  44.025  12.523
84203W        W52421  32.068   7.985   4.019
84204W        W52422  38.117  27.869  13.196
84205W        W52423  13.794  22.865  12.448
84206W        W52424  40.483   7.839   0.305
84207W        W52425  28.929   2.605   1.395
84208W        W52426  37.311  11.318   0.432
84209W        W52427  33.107  33.402   2.756
84210W        W52428  10.559  26.360  10.754
84211W        W52429  29.061   6.786  13.005
84212W        W52430  33.088  15.425   3.727
84213W        W52431  42.472  11.368   0.873
84214W        W52432  19.053   5.461  13.072
84215W        W52433   5.201  38.882  13.093
84216W        W52434  27.336  20.737  11.510
84217W        W52435  15.402   6.092  11.598
84218W        W52436  29.146  23.199  10.279
84219W        W52437  43.728   8.229  13.505
84220W        W52438  10.747  29.002  12.049
84221W        W52439  24.103  40.727  11.553
84222W        W52440  25.168  15.645  14.375
84223W        W52441   6.692  24.177  14.898
84224W        W52442   2.949  43.845  14.457
84225W        W52443  42.322  31.230  14.367
84226W        W52444  42.019  13.411  14.279
84227W        W52445  38.851  38.147  13.784
84228W        W52446  17.138  28.405  11.928
84229W        W52447  27.240   2.216  11.104
84230W        W52448   7.814  28.583  12.594
84231W        W52449  35.080  31.004  12.071
84232W        W52450  11.918  20.220   4.501
84233W        W52451   7.845   1.430  12.371
84234W        W52452  38.820   4.374  13.046
84235W        W52453   7.283   3.228  10.744
84236W        W52454  32.450  20.184   4.078
84237W        W52455  38.506   8.449  10.579
84238W        W52456   6.396  34.136   0.880
84239W        W52457   1.860  42.107   3.643
84240W        W52458  35.772  13.986  13.854
84241W        W52459  29.028  16.694   3.722
84242W        W52460  21.661   0.793  11.725
84243W        W52461  40.314  17.196   1.659
84244W        W52462  29.426  34.141  14.436
84245W        W52463   7.146  31.138   0.755
84246W        W52464  31.568  29.975   0.861
84247W        W52465   4.799  29.586  12.940
84248W        W52466  18.468   4.162  13.946
84249W        W52467  28.965   5.776   0.396
84250W        W52468  10.700   2.655   4.513
84251W        W52469   4.772  43.230  10.181
84252W        W52470  23.650  40.265   0.073
84253W        W52471  24.420  41.410   4.878
84254W        W52472  36.564  17.188   1.960
84255W        W52473  25.239  36.098  10.647
84256W        W52474   8.397  30.705  11.741
84257W        W52475  20.035  10.140   3.453
84258W        W52476  10.410  26.506   4.604
84259W        W52477  13.713  15.222   0.029
84260W        W52478  10.465  17.708   3.784
84261W        W52479  13.339  24.470   4.309
84262W        W52480   1.804  23.794  13.071
84263W        W52481  14.687  43.407  12.989
84264W        W52482   6.352  37.612  13.551
84265W        W52483  26.007  40.941   4.399
84266W        W52484  30.579   0.907  14.556
84267W        W52485  22.334   3.613   4.091
84268W        W52486  35.381   6.708   0.926
84269W        W52487  33.964  35.970  13.472
84270W        W52488   3.949   8.868  11.260
84271W        W52489  13.341  39.938  12.576
84272W        W52490  23.472  39.443  11.658
84273W        W52491  27.883  13.201  13.667
84274W        W52492  35.323   9.145   0.815
84275W        W52493  13.397  28.162  11.753
84276W        W52494  16.393   1.090  10.247
84277W        W52495  31.340  37.547  12.372
84278W        W52496  24.406   0.975   1.079
84279W        W52497   0.242  21.688  13.557
84280W        W52498  18.101   7.926  10.666
84281W        W52499   6.399  38.962   1.907
84282W        W52500  33.523  25.222  11.274
84283W        W52501  28.560  38.388  12.471
84284W        W52502  40.542  34.580   1.509
84285W        W52503   8.820  42.925   1.952
84286W        W52504  33.553  23.931   3.232
84287W        W52505  40.093  12.856   1.740
84288W        W52506   1.483  34.661  11.948
84289W        W52507  34.637  30.992   3.625
84290W        W52508  20.942  39.424   4.036
84291W        W52509  17.192  22.264   0.120
84292W        W52510  21.399  20.043  11.126
84293W        W52511  12.103  13.192  10.714
84294W        W52512   9.471  14.294  10.577
84295W        W52513  10.514  15.247  11.095
84296W        W52514  23.999   4.506  11.139
84297W        W52515  21.062  21.754  12.488
84298W        W52516  41.850  38.435  13.489
84299W        W52517  33.805  41.169   1.387
84300W        W52518  33.486  35.229   4.490
84301W        W52519  42.626  31.354  11.201
84302W        W52520  18.768  13.305  11.804
84303W        W52521  28.592  23.957   4.026
84304W        W52522  27.346  30.128  13.456
84305W        W52523   7.825  35.260  13.444
84306W        W52524  13.285   5.307   3.150
84307W        W52525  19.345  40.465  14.336
84308W        W52526  39.406   9.219   2.285
84309W        W52527  14.414   2.258  13.013
84310W        W52528   4.895  34.932  12.341
84311W        W52529  12.329   8.809  12.207
84312W        W52530  17.648  37.344  14.854
84313W        W52531  19.972  28.031  11.084
84314W        W52532  30.018  17.013  11.084
84315W        W52533  10.697  43.740  12.454
84316W        W52534  18.104   5.698  12.346
84317W        W52535  21.497  44.251  12.538
84318W        W52536  29.294  18.740   5.103
84319W        W52537  11.343  43.571  10.520
84320W        W52538  41.004  44.935   1.855
84321W        W52539  25.986  19.330  12.311
84322W        W52540  17.127  31.978   1.525
84323W        W52541  14.275  24.515   1.366
84324W        W52542  23.005  26.661   3.004
84325W        W52543  22.772  11.142  13.535
84326W        W52544  23.313  23.131  12.165
84327W        W52545  35.980   8.840   4.667
84328W        W52546   5.687  39.052   0.800
84329W        W52547   3.196  33.543   4.486
84330W        W52548   5.240   7.348   0.407
84331W        W52549  22.738  28.079  13.795
84332W        W52550  32.088  44.855  14.166
84333W        W52551  15.657  39.665   9.896
84334W        W52552  15.335  28.381  10.743
84335W        W52553  36.628  15.648  12.197
84336W        W52554  41.958  15.073  14.899
84337W        W52555  15.187   3.788   4.357
84338W        W52556  12.828  35.679  11.654
84339W        W52557  33.877  42.005   2.306
84340W        W52558  29.282  42.908   2.792
84341W        W52559   6.401   7.757   1.337
84342W        W52560  13.959  42.686   3.124
84343W        W52561   8.909   6.375  14.742
84344W        W52562   3.933  10.723   1.663
84345W        W52563  24.729  13.938  11.138
84346W        W52564   5.692  37.245   2.789
84347W        W52565  11.855   0.533  10.161
84348W        W52566   0.384  28.442  13.791
84349W        W52567   4.854   1.245  12.491
84350W        W52568  18.035   9.409   4.114
84351W        W52569  26.307  25.214   3.588
84352W        W52570  27.525  43.542   4.367
84353W        W52571   2.277  29.676   0.537
84354W        W52572  39.151   8.746  13.148
84355W        W52573  10.090  11.613  12.414
84356W        W52574  21.635  21.155   4.525
84357W        W52575  38.365  38.799   0.743
84358W        W52576  31.179  34.997  10.774
84359W        W52577   9.827  14.145   2.661
84360W        W52578  23.041  13.031   0.769
84361W        W52579   0.055  33.009  10.588
84362W        W52580  10.649  15.225  13.624
84363W        W52581  40.102  41.790  13.528
84364W        W52582  25.965  20.989   3.579
84365W        W52583  16.173  12.657  11.878
84366W        W52584  32.627   9.803  10.795
84367W        W52585  22.727   6.955  12.212
84368W        W52586  34.128  10.219   1.639
84369W        W52587  39.924  12.363   0.841
84370W        W52588  44.189  40.342   2.787
84371W        W52589   5.981  19.107   0.009
84372W        W52590   4.722  19.207   3.541
84373W        W52591  43.463  25.512   2.529
84374W        W52592  11.510  12.210  13.674
84375W        W52593   0.744  15.737   0.833
84376W        W52594  31.507  35.471  13.439
84377W        W52595  42.339  26.936   4.482
84378W        W52596  36.500  34.901  11.580
84379W        W52597  26.073  21.488   3.619
84380W        W52598   9.186   9.251   4.302
84381W        W52599  24.156   0.245   3.275
84382W        W52600  31.450  26.197   4.292
84383W        W52601  13.323   8.129  11.988
84384W        W52602  40.418  19.639  13.123
84385W        W52603  25.494  24.575   1.872
84386W        W52604  40.402  26.483   0.332
84387W        W52605   4.855  33.476  11.570
84388W        W52606  42.956  37.117   3.515
84389W        W52607  41.676  12.938  14.413
84390W        W52608  41.396  10.798  11.515
84391W        W52609  37.361  30.405   0.507
84392W        W52610   8.807  31.361   3.159
84393W        W52611  43.302  20.557   1.730
84394W        W52612  17.373  14.671  11.844
84395W        W52613  40.891  43.378  14.180
84396W        W52614  22.052  12.318  11.152
84397W        W52615   8.882   6.309  12.029
84398W        W52616  16.742  12.363  14.538
84399W        W52617  40.268  35.324   2.701
84400W        W52618   5.293  10.024  13.899
84401W        W52619  10.896  14.843   3.117
84402W        W52620  41.777   1.694  10.265
84403W        W52621   3.881  24.466  13.015
84404W        W52622  43.928   7.077  12.530
84405W        W52623  18.848  25.675   2.633
84406W        W52624   6.788  23.282  13.957
84407W        W52625  36.071  12.768   3.389
84408W        W52626  15.837   6.932  14.705
84409W        W52627  42.624  39.989   3.004
84410W        W52628  10.684  33.526  12.037
84411W        W52629   2.135  15.591  11.003
84412W        W52630  25.022  30.452  11.930
84413W        W52631  16.620  12.608   4.708
84414W        W52632  14.970  39.855   3.262
84415W        W52633  30.394  23.269  14.054
84416W        W52634  24.632  25.925   4.822
84417W        W52635   7.337  27.588  13.379
84418W        W52636  34.935  23.817   3.930
84419W        W52637  16.175  30.157  14.833
84420W        W52638  38.172  39.958   0.863
84421W        W52639  41.047  18.627  11.176
84422W        W52640   6.468  26.505   1.918
84423W        W52641   5.681  28.459   2.271
84424W        W52642  15.761  21.687   0.347
84425W        W52643  16.168  22.051   3.293
84426W        W52644  25.247  11.473  11.102
84427W        W52645   4.865   2.393   1.182
84428W        W52646  44.766  32.159  12.059
84429W        W52647   9.115  18.471  10.594
84430W        W52648   0.815  18.804   2.871
84431W        W52649   3.196   2.263  12.958
84432W        W52650   5.311   8.591   3.654
84433W        W52651  27.712  16.120   2.264
84434W        W52652  29.105  35.377   0.780
84435W        W52653   4.852  27.775  12.688
84436W        W52654  30.710  11.342   3.708
84437W        W52655   0.193  44.847   1.805
84438W        W52656  16.500  26.527  11.024
84439W        W52657  44.238   0.369   3.187
84440W        W52658  30.691  11.850  11.678
84441W        W52659  28.416  21.034  12.896
84442W        W52660  13.519   8.189  13.419
84443W        W52661  44.566  11.027  13.340
84444W        W52662  33.917  42.048   3.168
84445W        W52663  43.041  17.266  14.893
84446W        W52664  11.336  42.927   3.141
84447W        W52665  23.536   2.197  13.523
84448W        W52666  38.542  39.012  14.786
84449W        W52667  19.948   4.824   2.180
84450W        W52668   2.279   8.852  12.472
84451W        W52669  30.056  36.429  14.649
84452W        W52670   9.938  42.408   0.682
84453W        W52671  26.188  22.051   4.882
84454W        W52672  26.724  20.586   4.401
84455W        W52673  40.031  24.759   0.548
84456W        W52674   0.416   1.712  11.480
84457W        W52675  26.570  14.900   2.742
84458W        W52676   2.781  25.629   0.424
84459W        W52677  31.282  25.786  11.028
84460W        W52678  22.191  44.933  13.935
84461W        W52679  35.344   6.846  11.182
84462W        W52680  39.225  23.648   4.043
84463W        W52681   9.643   3.378   0.866
84464W        W52682  38.873  38.606  10.556
84465W        W52683  29.440  28.108  12.125
84466W        W52684  34.786  39.607   0.912
84467W        W52685  29.586  23.742   2.763
84468W        W52686  36.145  24.596  14.427
84469W        W52687  33.198  24.284  14.433
84470W        W52688  17.164  43.506   2.644
84471W        W52689  42.125  12.951   0.138
84472W        W52690  23.106  16.714   1.624
84473W        W52691  24.968   5.755   4.750
84474W        W52692  39.491   8.353  14.960
84475W        W52693  10.333  34.290   0.492
84476W        W52694  23.782  22.123   2.775
84477W        W52695   1.782  23.510   0.118
84478W        W52696  14.590  39.575   0.806
84479W        W52697  28.475  16.014   3.934
84480W        W52698  10.063  38.101   4.177
84481W        W52699   8.876  30.175  13.023
84482W        W52700  25.698  44.110  14.192
84483W        W52701  34.441   3.573   4.248
84484W        W52702  15.731  11.742   3.123
84485W        W52703  12.576  26.085   1.887
84486W        W52704  16.646  13.109   1.876
84487W        W52705  27.789  35.463   1.336
84488W        W52706  27.540  38.911   3.195
84489W        W52707  40.304  19.781  11.215
84490W        W52708   7.018   0.974  12.844
84491W        W52709   0.729  13.745   4.016
84492W        W52710  44.269  25.159  12.044
84493W        W52711  35.102  14.339   3.700
84494W        W52712  38.296   6.324  14.328
84495W        W52713  15.829  34.647   3.719
84496W        W52714  28.709   0.739  11.795
84497W        W52715  37.571  39.473   0.199
84498W        W52716  16.921  31.071   1.901
84499W        W52717   5.536   9.637  12.164
84500W        W52718  33.580  21.618  10.629
84501W        W52719   8.283  37.753   4.896
84502W        W52720   8.068   4.773  10.526
84503W        W52721   4.476  24.259  12.409
84504W        W52722  17.688  42.820   1.181
84505W        W52723   8.337   2.027  13.337
84506W        W52724  39.003  31.681  12.344
84507W        W52725  44.050  19.870   1.943
84508W        W52726  22.333  29.718   0.303
84509W        W52727  40.602  31.561   3.266
84510W        W52728  28.187  23.640  13.850
84511W        W52729  38.822  30.493   1.166
84512W        W52730  15.564  11.796  13.372
84513W        W52731  29.694   3.825   2.139
84514W        W52732  23.491  28.603   1.869
84515W        W52733  33.498  35.570   2.362
84516W        W52734  31.965  24.464  12.420
84517W        W52735   7.321   1.435   3.503
84518W        W52736  12.218  26.279  11.240
84519W        W52737  33.609  41.906   2.739
84520W        W52738  14.373   7.470  14.756
84521W        W52739   6.727  33.875   3.759
84522W        W52740  24.715   9.700   4.584
84523W        W52741  38.851  19.648   2.058
84524W        W52742   2.273  41.733   3.703
84525W        W52743  43.536  25.897   2.210
84526W        W52744  19.102  25.003   4.661
84527W        W52745  42.390  26.169  12.031
84528W        W52746  43.806   7.796   1.707
84529W        W52747  41.059  29.824  11.429
84530W        W52748  41.728  31.920   2.797
84531W        W52749  10.349  35.445   4.098
84532W        W52750  25.987  25.012  13.459
84533W        W52751  11.641   8.447   3.206
84534W        W52752  16.050  42.956   4.623
84535W        W52753  42.468  34.028  12.600
84536W        W52754  14.709  12.601  14.033
84537W        W52755   9.810   4.926   4.286
84538W        W52756   9.178   1.499  14.292
84539W        W52757  14.793   6.193  14.759
84540W        W52758  20.103  31.554   4.127
84541W        W52759  24.145   4.556  11.630
84542W        W52760   8.905   5.397  11.374
84543W        W52761  15.631   5.043   1.753
84544W        W52762  30.438  17.323   3.823
84545W        W52763  42.083  16.705   4.789
84546W        W52764  29.246  13.182   3.058
84547W        W52765  14.113  19.079  10.805
84548W        W52766  27.094  25.953  14.968
84549W        W52767  11.786  28.045   1.936
84550W        W52768   0.037  22.312  12.455
84551W        W52769  16.752  23.676  14.537
84552W        W52770  42.847   8.895  11.956
84553W        W52771   9.404   2.907  14.333
84554W        W52772  37.478  42.666   0.395
84555W        W52773   2.905  26.261   2.755
84556W        W52774  41.985  37.273  12.508
84557W        W52775  21.775  29.120   1.732
84558W        W52776  35.088  28.998  12.493
84559W        W52777  16.012   4.728   3.107
84560W        W52778  15.265  20.611   2.366
84561W        W52779  39.984  32.209  14.728
84562W        W52780  30.674  22.798  11.339
84563W        W52781  30.096  38.499   0.975
84564W        W52782  14.353   1.039  13.796
84565W        W52783  10.242   7.306  10.962
84566W        W52784  16.689  44.438   5.263
84567W        W52785  40.798   5.716  11.073
84568W        W52786  43.966  13.846   0.902
84569W        W52787   4.336  35.554  13.867
84570W        W52788  20.579   6.467   3.183
84571W        W52789  35.336   6.532  12.050
84572W        W52790  35.030   1.857   3.218
84573W        W52791  38.064   2.166   1.175
84574W        W52792  22.767  20.057   3.057
84575W        W52793  21.654  38.747   1.390
84576W        W52794  39.479  18.779  14.824
84577W        W52795   1.497  18.785  14.487
84578W        W52796  31.011  12.748  12.829
84579W        W52797  39.821  28.478   0.223
84580W        W52798  43.361  14.207  14.916
84581W        W52799  20.641  14.584   0.986
84582W        W52800   8.655  22.716  12.064
84583W        W52801  22.181  16.168  11.178
84584W        W52802  33.414   2.391   4.022
84585W        W52803  37.552  26.484  14.541
84586W        W52804  35.316   6.689   1.704
84587W        W52805  43.497  43.811   1.376
84588W        W52806   4.361  40.191   0.665
84589W        W52807   6.102   9.727  14.131
84590W        W52808   9.593  15.102   3.207
84591W        W52809  39.547   6.753  11.621
84592W        W52810   7.226  31.382  13.514
84593W        W52811  36.386   7.606  14.738
84594W        W52812  25.978  30.652   0.317
84595W        W52813  30.839  30.410  11.271
84596W        W52814  43.420  17.082  10.656
84597W        W52815  29.463  16.458   1.657
84598W        W52816   0.737  14.275   2.249
84599W        W52817  32.700  15.584  11.553
84600W        W52818   2.464  18.345  14.468
84601W        W52819  15.612  10.711  12.696
84602W        W52820  41.060  41.884  11.712
84603W        W52821  24.210  25.443  13.035
84604W        W52822  37.148  17.211  14.759
84605W        W52823   3.607   4.666  11.162
84606W        W52824  38.514  16.438  10.360
84607W        W52825  10.620  37.102  14.541
84608W        W52826  25.759  34.492   4.159
84609W        W52827  43.349  31.736   0.616
84610W        W52828  42.567  36.054   1.021
84611W        W52829   9.244   1.151  11.535
84612W        W52830  11.859  19.240  10.299
84613W        W52831  16.283   5.278   4.254
84614W        W52832  20.552  21.632   1.354
84615W        W52833  21.257  33.796  13.969
84616W        W52834  38.049  44.356   3.709
84617W        W52835  31.554   7.641  12.440
84618W        W52836   6.143  25.750   0.979
84619W        W52837  44.845  23.056   3.126
84620W        W52838  27.248  38.411  10.777
84621W        W52839  11.441  15.623   0.352
84622W        W52840   4.097  41.941  13.820
84623W        W52841   4.395   4.000  12.558
84624W        W52842  14.754  15.618  12.678
84625W        W52843  36.779  40.838  12.437
84626W        W52844  35.817  28.744   0.396
84627W        W52845   4.166  30.226   1.266
84628W        W52846  33.554  15.033  14.169
84629W        W52847  35.623   8.408  14.312
84630W        W52848  12.816  11.366  12.916
84631W        W52849   2.388  11.276   2.189
84632W        W52850  11.843   3.380   2.669
84633W        W52851  35.687  24.113   2.098
84634W        W52852  26.125  14.286   1.512
84635W        W52853  29.740  44.325   4.691
84636W        W52854   1.153   5.479  10.674
84637W        W52855  22.155  13.460   4.946
84638W        W52856  29.217  11.323   3.716
84639W        W52857  27.501   2.797   2.754
84640W        W52858  21.706  37.440   4.356
84641W        W52859  29.034  25.998   1.856
84642W        W52860  14.599   5.781  10.768
84643W        W52861  44.126  19.577   1.043
84644W        W52862  12.485  23.207  14.443
84645W        W52863   3.259  37.095  13.755
84646W        W52864  38.475   2.260   0.857
84647W        W52865  22.767  23.782   0.876
84648W        W52866  22.693  37.119  14.770
84649W        W52867  11.480  26.041  13.061
84650W        W52868   1.951  36.928   3.649
84651W        W52869  26.567  16.727   2.625
84652W        W52870  43.306  11.076   4.280
84653W        W52871  12.803  44.858   0.089
84654W        W52872  21.479  27.737   3.045
84655W        W52873  22.971  15.266  11.033
84656W        W52874  34.619  40.574   4.957
84657W        W52875  18.590  36.582  12.481
84658W        W52876  44.724  38.773  10.383
84659W        W52877  17.011  30.606  14.545
84660W        W52878  30.218  31.906   0.010
84661W        W52879   0.374  11.442  12.346
84662W        W52880  15.055   9.761  13.739
84663W        W52881  14.418  34.975   0.404
84664W        W52882  41.277  40.022  11.907
84665W        W52883  20.517  34.392  11.635
84666W        W52884  32.741  42.853  11.385
84667W        W52885  22.540  34.624  13.858
84668W        W52886   3.480  37.877   1.542
84669W        W52887   9.759  33.599   4.456
84670W        W52888  26.236  13.739  13.949
84671W        W52889  15.766  36.203   0.556
84672W        W52890   6.290   5.233   4.510
84673W        W52891  14.230  27.891  11.099
84674W        W52892  20.146  12.293   5.452
84675W        W52893  28.948  14.309   2.208
84676W        W52894  19.054  34.591  12.027
84677W        W52895  36.549  16.749   2.251
84678W        W52896  33.614   4.700  13.094
84679W        W52897   1.489  35.108   0.680
84680W        W52898  31.974   9.534  11.342
84681W        W52899  12.929  23.164  12.841
84682W        W52900   0.844  13.614  12.918
84683W        W52901  41.399  39.823  13.807
84684W        W52902  33.761   8.652   0.493
84685W        W52903  43.597  20.669   4.079
84686W        W52904  40.012   3.950   4.188
84687W        W52905  34.440  37.481  12.910
84688W        W52906  24.707  12.863   1.399
84689W        W52907  26.504  23.502   3.203
84690W        W52908   6.809   5.381  13.962
84691W        W52909   1.926  34.319  11.976
84692W        W52910  36.532  30.428  10.722
84693W        W52911   4.937  19.526  12.480
84694W        W52912  29.426  13.104   2.403
84695W        W52913   7.449  37.402  11.915
84696W        W52914   2.249   1.091  14.483
84697W        W52915  34.835  10.820   0.315
84698W        W52916  36.342   7.243  10.390
84699W        W52917  12.682   5.381   2.329
84700W        W52918  40.406   5.207   3.441
84701W        W52919  11.881  37.583   2.746
84702W        W52920  25.961  12.108   1.883
84703W        W52921  12.581  36.176   2.708
84704W        W52922   4.187  37.981  10.534
84705W        W52923  24.286   4.401   4.111
84706W        W52924  29.728  41.601   5.092
84707W        W52925  26.782  17.922  10.056
84708W        W52926  30.219  16.239   1.311
84709W        W52927  23.011  20.719  12.391
84710W        W52928  38.655   8.733  13.014
84711W        W52929   7.722  31.454  13.401
84712W        W52930  41.983  33.343   4.154
84713W        W52931  18.289  39.795   2.097
84714W        W52932  16.358   9.199  12.994
84715W        W52933  24.042   1.476   4.140
84716W        W52934  22.589  42.888   0.236
84717W        W52935  34.805  22.536  11.558
84718W        W52936  36.364   2.339   4.202
84719W        W52937  26.731  33.794   2.586
84720W        W52938  38.817  41.986   4.159
84721W        W52939  15.748  32.428  12.855
84722W        W52940   3.212  32.114  11.668
84723W        W52941  13.789  35.883   0.947
84724W        W52942  20.918  41.033   3.243
84725W        W52943  12.687  26.364  12.814
84726W        W52944  22.873   3.322  14.253
84727W        W52945  16.275  19.548  11.995
84728W        W52946  11.572  24.751   1.287
84729W        W52947  42.874  10.188   0.780
84730W        W52948  13.612  39.936  13.250
84731W        W52949   0.250   7.927  11.089
84732W        W52950  29.702  16.812  12.044
84733W        W52951   4.877  35.434  13.987
84734W        W52952   8.182  16.211  10.722
84735W        W52953   8.315  35.026   3.888
84736W        W52954  26.050  32.500   2.944
84737W        W52955  43.803  34.066   1.733
84738W        W52956   7.766  29.959  10.706
84739W        W52957  14.651  35.066   3.723
84740W        W52958  21.755  12.300   1.337
84741W        W52959  28.011  16.300  12.357
84742W        W52960  17.534  43.703   0.843
84743W        W52961  42.940   9.739  14.060
84744W        W52962  17.689  21.061   3.728
84745W        W52963  13.803  26.614   3.676
84746W        W52964  42.377  25.420   1.403
84747W        W52965  31.070   8.849   0.935
84748W        W52966   1.876  40.622  13.968
84749W        W52967  21.127  20.575  14.116
84750W        W52968  19.332  36.591   2.271
84751W        W52969  34.302  25.521   3.649
84752W        W52970  37.835   8.615  13.685
84753W        W52971   0.812   7.664  10.368
84754W        W52972  10.183   3.976   3.488
84755W        W52973   9.816  25.904  11.300
84756W        W52974  25.152  43.516  14.814
84757W        W52975  32.554  10.787   4.751
84758W        W52976   8.679   3.042  13.840
84759W        W52977  42.332  25.970   3.504
84760W        W52978  25.031  16.950   2.647
84761W        W52979   2.152  30.354   9.987
84762W        W52980  17.488  23.005   3.282
84763W        W52981  19.408  29.052   4.318
84764W        W52982  29.758  18.531  13.882
84765W        W52983  31.477   3.838   3.626
84766W        W52984  23.056  43.450   0.314
84767W        W52985  22.491  42.735   3.367
84768W        W52986  33.309   6.357   0.317
84769W        W52987  39.761  28.121   1.637
84770W        W52988   4.449  25.523   1.454
84771W        W52989  37.473  30.188   4.713
84772W        W52990  31.203  33.013   1.404
84773W        W52991  15.355  24.585  12.608
84774W        W52992  22.354  23.369   2.800
84775W        W52993  28.868  24.152   0.055
84776W        W52994  20.664  29.124  10.678
84777W        W52995   0.264  11.715   1.647
84778W        W52996  10.186  22.621   3.161
84779W        W52997  28.848  15.455   1.341
84780W        W52998  23.637  21.570  12.127
84781W        W52999  36.155  13.612  14.842
84782W        W53000  27.181  17.702   1.699
84783W        W53001  28.744  26.638   0.618
84784W        W53002  28.007  23.738   3.340
84785W        W53003  28.186  20.496   3.725
84786W        W53004  22.086   2.692   2.584
84787W        W53005  18.233  33.167  12.552
84788W        W53006  37.442  18.207  11.882
84789W        W53007  17.251   8.429   2.839
84790W        W53008  24.238  15.121   0.952
84791W        W53009  36.156   6.483   2.761
84792W        W53010   5.748   8.147  10.722
84793W        W53011   2.268  22.878  13.978
84794W        W53012  12.764  21.971   1.434
84795W        W53013   5.499   7.866  14.365
84796W        W53014  27.465  14.690  11.077
84797W        W53015  13.309  30.209   3.648
84798W        W53016  35.799  36.669   4.620
84799W        W53017  39.479  23.280   2.152
84800W        W53018  37.592  24.515   3.284
84801W        W53019   5.936  14.007   4.931
84802W        W53020  38.039  25.958   3.728
84803W        W53021  24.357  27.487  12.091
84804W        W53022  43.297  23.743  14.843
84805W        W53023  22.454  44.119   2.785
84806W        W53024   5.222  40.400  10.747
84807W        W53025  15.073  26.035   2.024
84808W        W53026  42.778  14.142   4.987
84809W        W53027  13.091  35.440   0.409
84810W        W53028   7.587  29.661  11.113
84811W        W53029  10.519  31.575   4.556
84812W        W53030  40.031  40.325   3.638
84813W        W53031  33.800  28.070   0.867
84814W        W53032  22.672  37.165  13.512
84815W        W53033  41.769  13.246  12.903
84816W        W53034  42.540  33.600   2.903
84817W        W53035   3.455  30.022   4.084
84818W        W53036  15.286  24.669   1.183
84819W        W53037  41.724   4.434  13.738
84820W        W53038   4.861  40.455   2.853
84821W        W53039  31.556  19.817   4.703
84822W        W53040  23.179   3.397   0.406
84823W        W53041   5.225   7.696   3.662
84824W        W53042  32.497   0.148   2.105
84825W        W53043   0.344  42.467  11.115
84826W        W53044  35.974  37.899   3.321
84827W        W53045   9.344  39.154  11.008
84828W        W53046   0.000  20.785  11.011
84829W        W53047  19.243  22.926  13.860
84830W        W53048  32.452  19.343   4.431
84831W        W53049  40.925  21.767   1.469
84832W        W53050  42.003  27.035   2.834
84833W        W53051  23.602  20.336  12.914
84834W        W53052   9.246  36.652  13.271
84835W        W53053   1.819  16.317  13.569
84836W        W53054  13.895  18.593  14.302
84837W        W53055  43.194  24.904  11.285
84838W        W53056  12.054   8.810  11.428
84839W        W53057  36.218  32.466  12.739
84840W        W53058  12.389   9.237   1.415
84841W        W53059  37.406  31.799   5.008
84842W        W53060   8.701  40.849   1.823
84843W        W53061  19.211  28.521   3.148
84844W        W53062   6.913  30.529  12.933
84845W        W53063  31.538  14.850   3.451
84846W        W53064   4.705  29.453   3.184
84847W        W53065  20.650   8.920   4.080
84848W        W53066  16.167  35.923   0.848
84849W        W53067  14.306  34.115  12.890
84850W        W53068  18.723  34.527  13.522
84851W        W53069   2.766  34.405   2.144
84852W        W53070  28.452  12.900   4.648
84853W        W53071   3.351  36.710  11.352
84854W        W53072  22.613  38.757   2.349
84855W        W53073  39.662  17.192  13.029
84856W        W53074  11.153  11.449  11.500
84857W        W53075  36.332  10.293  13.902
84858W        W53076  44.596  17.598  11.858
84859W        W53077  25.962  39.234  11.666
84860W        W53078  12.938   7.592  14.023
84861W        W53079  37.078  42.956   0.549
84862W        W53080  17.203  25.628  13.004
84863W        W53081  27.158  10.250   3.180
84864W        W53082  31.516  22.442   3.848
84865W        W53083  22.958  42.867   2.476
84866W        W53084  18.524  34.856   1.242
84867W        W53085   6.887  14.082   2.345
84868W        W53086  33.524   7.350  11.701
84869W        W53087   7.629  22.520  12.907
84870W        W53088  31.032  18.222   1.881
84871W        W53089  35.249  33.517   5.105
84872W        W53090   5.608  17.109   4.593
84873W        W53091   4.448  18.614   2.275
84874W        W53092  34.897  23.170  12.356
84875W        W53093  22.905  11.760   4.123
84876W        W53094  26.593   6.937   4.157
84877W        W53095  24.812  37.280  13.340
84878W        W53096  21.278   1.442   3.376
84879W        W53097  11.853  12.275   2.909
84880W        W53098  34.377   2.969  11.451
84881W        W53099   5.750   3.832   4.699
84882W        W53100  33.232   5.370  12.524
84883W        W53101   6.126  35.331  11.932
84884W        W53102  27.792  13.346   5.131
84885W        W53103   7.469  20.898   4.268
84886W        W53104  19.503   7.218  14.756
84887W        W53105  17.339  10.643  12.134
84888W        W53106  30.114  19.608  12.488
84889W        W53107  12.264  12.510   0.445
84890W        W53108  13.619   7.356  12.478
84891W        W53109  32.463  20.146  14.269
84892W        W53110   9.447   7.752   2.182
84893W        W53111   4.865  43.552   1.818
84894W        W53112  32.143  20.262  11.942
84895W        W53113  31.418  15.857  13.060
84896W        W53114  24.731  30.024   3.854
84897W        W53115  16.549  23.186   1.122
84898W        W53116  29.919  43.803   1.440
84899W        W53117   9.903  32.063   4.115
84900W        W53118  30.883  20.684  12.093
84901W        W53119  25.225  44.002  14.013
84902W        W53120  29.624   7.921  12.966
84903W        W53121  20.483   7.369  14.985
84904W        W53122  19.052  43.459   3.627
84905W        W53123  20.688   3.284  10.752
84906W        W53124  43.031  40.141  11.443
84907W        W53125   7.841  11.161   4.469
84908W        W53126  38.790   7.685  13.919
84909W        W53127  38.351   3.904   3.615
84910W        W53128  38.119  28.585   4.114
84911W        W53129  16.751  41.743  14.394
84912W        W53130  12.770  33.187  12.881
84913W        W53131  21.032  16.095   3.723
84914W        W53132  23.333  44.310   4.224
84915W        W53133  44.510   2.271  12.470
84916W        W53134  18.620  14.851   3.558
84917W        W53135  40.370   0.447   1.358
84918W        W53136  36.339  18.531  10.360
84919W        W53137  42.317  42.569   0.442
84920W        W53138  25.927  20.659  12.840
84921W        W53139  11.689  42.701   0.638
84922W        W53140  20.997  44.387   0.370
84923W        W53141  15.757   6.741   2.302
84924W        W53142   8.937  38.858   4.580
84925W        W53143  29.952   3.853   3.611
84926W        W53144  12.312  10.191   3.514
84927W        W53145  40.867  23.020   4.571
84928W        W53146  29.837  11.829  12.371
84929W        W53147  41.062   5.282   1.406
84930W        W53148  14.846  40.529   0.998
84931W        W53149  13.259  19.493  10.387
84932W        W53150  10.766  23.473  11.617
84933W        W53151  21.390  28.982   3.376
84934W        W53152  44.390   6.939   2.799
84935W        W53153   3.931  42.802  13.151
84936W        W53154   9.690  11.246   0.331
84937W        W53155  35.093  38.579  14.913
84938W        W53156  44.609  12.637   3.778
84939W        W53157  23.763  21.737  11.143
84940W        W53158  37.575  35.151   4.194
84941W        W53159  10.292  31.649  10.727
84942W        W53160  36.919  22.907   2.669
84943W        W53161  23.712   0.981   2.393
84944W        W53162  28.196  26.345   3.595
84945W        W53163   9.561  43.734  10.762
84946W        W53164  12.991  17.499  10.582
84947W        W53165   6.606   4.189  13.331
84948W        W53166  40.574  42.502  12.429
84949W        W53167  30.540  39.834  14.717
84950W        W53168  22.078  34.434   4.086
84951W        W53169   7.898  34.026   4.295
84952W        W53170  18.203   1.723  12.856
84953W        W53171  26.081   0.025  13.418
84954W        W53172  25.185  36.414  12.998
84955W        W53173  44.355  11.368  10.819
84956W        W53174  28.257   4.416  11.322
84957W        W53175  30.559  40.280   4.914
84958W        W53176  38.050   5.874   0.841
84959W        W53177  31.768   3.809   3.220
84960W        W53178  16.791   1.321  14.881
84961W        W53179  22.680  18.833   3.743
84962W        W53180  42.785  20.787   4.551
84963W        W53181  39.743  29.948  14.011
84964W        W53182  42.284   2.678  12.426
84965W        W53183  36.393  13.524   3.126
84966W        W53184  10.040  42.903  12.310
84967W        W53185   1.961   0.306   2.191
84968W        W53186  33.772   4.231  10.314
84969W        W53187   5.689   7.098   1.399
84970W        W53188  28.528  25.705   1.792
84971W        W53189  39.669  39.911  10.486
84972W        W53190  44.693  44.000   0.832
84973W        W53191  27.571  40.965  12.835
84974W        W53192  14.320   8.151  13.005
84975W        W53193  36.803  10.093  11.300
84976W        W53194   7.201   1.001   2.975
84977W        W53195  26.679  25.901  10.308
84978W        W53196   7.632  35.033  13.900
84979W        W53197  19.897  41.413  14.330
84980W        W53198  43.344   9.233   3.803
84981W        W53199   5.754  41.910  14.878
84982W        W53200  44.079  38.556   4.581
84983W        W53201  14.592  21.643   1.361
84984W        W53202  18.401  21.231  11.323
84985W        W53203  24.202  14.303  13.988
84986W        W53204  37.196  39.779  14.526
84987W        W53205   1.546  22.473   5.147
84988W        W53206  25.674  35.910  14.455
84989W        W53207  17.718  25.723  13.720
84990W        W53208  10.318   4.821   0.909
84991W        W53209  19.776  25.480  12.012
84992W        W53210  30.942   6.703   3.172
84993W        W53211  38.223  22.317   4.953
84994W        W53212   2.736  33.843  11.037
84995W        W53213  30.896   5.593  12.210
84996W        W53214  14.560  41.275   3.174
84997W        W53215  34.136  21.610   3.259
84998W        W53216  33.357  17.581   2.755
84999W        W53217  19.390   6.207  13.342
85000W        W53218   8.813  16.187   2.598
85001W        W53219  24.682  36.434  13.029
85002W        W53220  38.778   1.310  10.233
85003W        W53221   7.600  35.984   3.619
85004W        W53222  26.624  12.236  14.954
85005W        W53223  39.815  23.450   2.532
85006W        W53224  15.207  29.617  14.941
85007W        W53225   1.753  33.816   0.015
85008W        W53226  20.755  41.811   1.266
85009W        W53227  40.236  28.202   3.106
85010W        W53228  29.009  16.104   0.343
85011W        W53229  10.230  37.097   0.654
85012W        W53230   2.022  38.939   1.283
85013W        W53231  26.242  21.196  11.683
85014W        W53232  18.742  25.708  13.550
85015W        W53233  42.296  10.797   3.301
85016W        W53234  34.625  12.056   1.405
85017W        W53235  22.175  23.172  11.122
85018W        W53236  33.552   5.233  12.929
85019W        W53237  38.014  23.637  14.111
85020W        W53238  37.137   0.382   3.738
85021W        W53239   5.757   9.118  12.930
85022W        W53240  11.581   2.287   1.850
85023W        W53241  25.144  22.026  10.489
85024W        W53242  31.203  28.584  12.010
85025W        W53243  33.161   4.412   4.086
85026W        W53244   9.870  40.404   4.044
85027W        W53245  33.871  41.068  12.436
85028W        W53246  14.835  37.026  11.163
85029W        W53247  13.669   4.356   1.726
85030W        W53248  34.726  24.497  14.728
85031W        W53249   3.125  35.032  11.576
85032W        W53250  22.226  40.825   2.902
85033W        W53251   8.285  27.271   3.648
85034W        W53252  10.231  21.304  12.357
85035W        W53253  33.604  29.614  13.128
85036W        W53254   3.910  25.539  13.041
85037W        W53255  11.310  23.893  14.993
85038W        W53256  32.802  40.342   0.815
85039W        W53257   1.412  28.645  12.399
85040W        W53258  34.670  13.185  13.859
85041W        W53259  24.217  34.502  13.887
85042W        W53260  27.044  15.858  14.475
85043W        W53261   4.000   3.090  10.665
85044W        W53262  22.404   4.837   3.118
85045W        W53263  32.030  40.822   0.385
85046W        W53264  41.013  43.960  11.527
85047W        W53265  23.718   6.121   2.859
85048W        W53266  18.051  15.556  12.490
85049W        W53267  19.488  11.256  13.175
85050W        W53268  40.500   8.603  14.418
85051W        W53269   7.802  32.490  13.492
85052W        W53270  39.510   8.675   5.403
85053W        W53271  20.728   8.377  13.393
85054W        W53272  27.190  19.304  14.946
85055W        W53273  26.248  19.169  14.815
85056W        W53274  38.345  30.208  14.519
85057W        W53275  18.148  36.488   1.138
85058W        W53276  15.692  34.026  13.308
85059W        W53277  41.031  27.658  12.550
85060W        W53278  21.153  32.864   1.374
85061W        W53279  31.259  12.162   4.433
85062W        W53280   6.043  27.452   1.807
85063W        W53281  41.748  23.013   4.260
85064W        W53282  30.078  28.048  14.060
85065W        W53283   9.140  19.586  12.586
85066W        W53284   8.459   4.245  12.587
85067W        W53285  26.047   2.239  11.900
85068W        W53286  19.304  37.571  12.826
85069W        W53287   3.128  28.989   4.566
85070W        W53288  44.726   9.509  12.188
85071W        W53289  34.426  21.801  12.618
85072W        W53290  26.634  16.801  11.592
85073W        W53291  14.323  39.432  12.975
85074W        W53292  33.451  34.152   2.891
85075W        W53293  35.207   7.503  12.111
85076W        W53294  41.999  37.516  12.974
85077W        W53295  11.388  40.835   2.808
85078W        W53296  26.423   2.438   4.341
85079W        W53297   0.079   2.344  11.213
85080W        W53298  44.033  43.413   1.925
85081W        W53299  31.436  17.102  11.094
85082W        W53300  38.873  30.017  12.349
85083W        W53301   7.270   9.740  13.414
85084W        W53302  14.226  27.485   1.426
85085W        W53303  17.524   9.465   4.113
85086W        W53304  35.402  16.582   4.059
85087W        W53305   0.638  24.274  12.554
85088W        W53306   8.876  34.299   3.866
85089W        W53307   4.357   6.672  13.058
85090W        W53308  24.051  43.308   1.873
85091W        W53309  26.672  39.863   3.454
85092W        W53310  39.037  16.988  13.948
85093W        W53311  31.952  41.968   2.355
85094W        W53312  37.888  38.043   4.058
85095W        W53313  32.378  29.533   4.577
85096W        W53314  14.208   1.342  11.451
85097W        W53315  40.020  13.739  13.972
85098W        W53316  14.146  30.536   4.265
85099W        W53317  17.367  10.550   4.453
85100W        W53318  43.487  19.035  14.368
85101W        W53319   7.689  22.072   1.343
85102W        W53320  25.454  26.002   0.500
85103W        W53321  36.569  32.232  13.061
85104W        W53322  17.090  20.987  14.798
85105W        W53323   3.278   1.036   3.144
85106W        W53324  28.086  18.567  13.676
85107W        W53325  30.562  43.295   4.111
85108W        W53326  22.172  37.288  11.400
85109W        W53327  31.085  24.492  14.696
85110W        W53328  28.934   8.671   1.686
85111W        W53329   4.318  19.486   2.011
85112W        W53330   1.898  35.395   0.497
85113W        W53331   0.636  42.589  11.540
85114W        W53332  13.386   4.952  12.618
85115W        W53333  16.488   4.496   3.151
85116W        W53334  16.777  23.587   1.364
85117W        W53335  37.091  39.975  11.325
85118W        W53336  11.304  13.105   2.639
85119W        W53337   3.118  44.916   1.655
85120W        W53338   7.780   7.841   1.773
85121W        W53339  11.699  25.600  14.100
85122W        W53340  30.821  23.696  11.146
85123W        W53341  40.853   8.247   1.837
85124W        W53342  28.650  10.516   2.240
85125W        W53343  36.508  15.490   0.787
85126W        W53344  14.511  30.721   1.769
85127W        W53345  20.430  32.923   2.827
85128W        W53346  27.791  44.220  13.426
85129W        W53347  24.602  34.364   0.347
85130W        W53348  19.697  39.356   3.107
85131W        W53349  24.685   8.289   4.581
85132W        W53350  25.148  38.335  14.380
85133W        W53351   2.742   8.180   2.240
85134W        W53352  11.274  40.481   2.100
85135W        W53353  32.406  24.911  14.779
85136W        W53354  42.524  23.141   3.862
85137W        W53355   4.307  40.439  13.438
85138W        W53356   8.144   7.294  14.915
85139W        W53357   9.489  17.952  13.190
85140W        W53358  15.374  21.934   3.201
85141W        W53359   7.730  32.218   0.464
85142W        W53360  22.428  39.646  13.926
85143W        W53361  43.746  35.372  14.803
85144W        W53362  37.897  32.831  12.983
85145W        W53363  12.634   9.889   0.847
85146W        W53364  23.132  10.557   2.774
85147W        W53365   4.594   2.842  14.561
85148W        W53366  37.040  39.240   0.240
85149W        W53367  11.695  26.238   3.351
85150W        W53368  19.970   1.402   3.746
85151W        W53369   4.389  24.551  11.205
85152W        W53370  44.459  15.015  11.586
85153W        W53371  11.641  23.652  10.804
85154W        W53372  42.940   6.189  10.780
85155W        W53373   7.898  43.092   4.523
85156W        W53374  21.688  20.269  11.604
85157W        W53375   2.919   5.691   1.862
85158W        W53376  34.447  13.138  11.965
85159W        W53377  16.913  28.880   1.192
85160W        W53378  41.387  12.104  12.155
85161W        W53379  42.597  22.492   0.407
85162W        W53380   0.531  37.956  13.066
85163W        W53381  33.510  18.595   0.252
85164W        W53382  19.491  39.800   3.352
85165W        W53383  40.037  11.826  11.156
85166W        W53384  35.041  35.180  13.907
85167W        W53385  18.776  29.448   3.352
85168W        W53386  31.241   0.472  13.002
85169W        W53387  12.184  15.073  13.961
85170W        W53388  25.942  24.240  12.980
85171W        W53389  22.386  38.831   3.786
85172W        W53390  23.046   0.559  13.525
85173W        W53391  31.624  39.392   3.639
85174W        W53392  13.125  22.295   2.938
85175W        W53393  18.039   4.926   2.239
85176W        W53394  25.770  44.692   4.152
85177W        W53395  37.414  22.816   2.796
85178W        W53396  39.490   3.462   1.379
85179W        W53397   7.357  13.390   0.319
85180W        W53398  33.458  22.293  13.397
85181W        W53399  40.184  28.915  14.353
85182W        W53400  36.388   8.431   1.419
85183W        W53401   1.278  43.241  11.501
85184W        W53402  25.156  10.890   0.695
85185W        W53403  28.675  23.247  10.525
85186W        W53404  39.024  37.155   4.703
85187W        W53405  30.171  40.824  13.626
85188W        W53406  43.219  20.572  14.292
85189W        W53407  12.380  40.186  11.614
85190W        W53408   3.950   0.798  13.874
85191W        W53409  15.013   9.239   2.155
85192W        W53410  32.131  32.355   3.301
85193W        W53411  22.969  39.325   4.177
85194W        W53412  40.923   2.841   5.376
85195W        W53413   8.334  33.971   1.297
85196W        W53414  42.877  40.012   4.986
85197W        W53415  35.837  11.243  12.353
85198W        W53416  44.437   0.921   4.594
85199W        W53417  32.424   3.432  13.574
85200W        W53418  23.149  25.172   0.029
85201W        W53419   6.736   3.381  14.862
85202W        W53420   4.339  35.087  13.621
85203W        W53421  28.673   5.895  12.067
85204W        W53422  26.433  19.072  12.422
85205W        W53423   5.413  37.112  12.025
85206W        W53424  34.055  32.907   3.452
85207W        W53425  42.241  23.657   3.343
85208W        W53426  10.542  30.140   4.576
85209W        W53427   1.877  24.558   3.579
85210W        W53428  39.304   0.476   3.196
85211W        W53429   6.349  41.691   3.279
85212W        W53430  35.675   2.118   3.203
85213W        W53431  26.913  35.860   0.849
85214W        W53432  22.002  40.161  14.007
85215W        W53433  18.572   9.794   1.158
85216W        W53434  35.389   7.434   1.395
85217W        W53435   9.692   6.289   3.917
85218W        W53436  34.647   3.262   3.337
85219W        W53437  34.117  42.589   1.248
85220W        W53438   7.641   9.833  11.126
85221W        W53439  44.354   9.031  12.954
85222W        W53440   2.890  16.431  11.195
85223W        W53441  25.708  17.824  11.596
85224W        W53442   6.885  35.415  12.450
85225W        W53443  19.533  39.527  14.802
85226W        W53444  25.187  35.683  12.554
85227W        W53445   7.873  23.100  10.724
85228W        W53446  39.042  23.487  13.520
85229W        W53447   1.110  11.610   0.750
85230W        W53448  25.678   7.140  14.453
85231W        W53449  31.888  29.223  11.205
85232W        W53450  40.595  27.630  10.664
85233W        W53451  27.534  17.073  13.446
85234W        W53452  22.585   4.814  12.579
85235W        W53453  12.221  12.190   0.919
85236W        W53454  22.257  14.826   4.177
85237W        W53455  31.891   2.227  13.761
85238W        W53456  43.769   0.099   4.681
85239W        W53457   0.377  15.219   3.826
85240W        W53458  24.477  29.173   4.317
85241W        W53459   7.322   3.959   0.360
85242W        W53460  22.134  18.190   2.317
85243W        W53461  44.410  14.660   4.239
85244W        W53462   7.644  10.729   0.270
85245W        W53463  36.954   5.025  12.933
85246W        W53464   2.354  16.118   3.281
85247W        W53465  10.078  34.029   0.916
85248W        W53466  44.972  35.723   3.256
85249W        W53467   6.528  34.954   0.874
85250W        W53468   3.890   1.699   2.255
85251W        W53469  16.522  28.037   3.651
85252W        W53470  36.478  23.591   0.230
85253W        W53471  35.375  18.990  12.937
85254W        W53472   4.517  44.446  12.425
85255W        W53473  22.768  18.248   1.467
85256W        W53474  17.656  13.672  11.735
85257W        W53475   5.766  16.832  13.982
85258W        W53476  17.330   5.227  11.555
85259W        W53477  43.748  18.481  11.526
85260W        W53478  36.232  35.991   4.290
85261W        W53479   0.278  17.114   1.475
85262W        W53480   8.204   7.866   4.905
85263W        W53481  25.077  20.653  10.623
85264W        W53482  30.980  42.570  14.773
85265W        W53483   7.885  31.395  11.628
85266W        W53484   0.135  11.321  13.906
85267W        W53485  26.999  20.306  13.811
85268W        W53486   8.681  29.663  14.358
85269W        W53487  39.754  38.392  13.792
85270W        W53488  28.357   9.099  10.396
85271W        W53489  26.235  16.779  14.615
85272W        W53490  22.110  34.027  12.392
85273W        W53491  31.673   4.680  13.001
85274W        W53492  39.593  43.173   2.213
85275W        W53493  23.500  41.834   4.012
85276W        W53494  14.090  25.216   3.329
85277W        W53495  26.534  34.845   2.519
85278W        W53496  19.707  32.915   2.413
85279W        W53497  14.418  23.997  13.838
85280W        W53498  37.998  31.952   0.760
85281W        W53499  27.775  30.525   1.570
85282W        W53500  40.964   6.015   0.340
85283W        W53501  13.388   6.351  10.349
85284W        W53502   8.154  15.055  12.026
85285W        W53503  27.387  17.459   0.246
85286W        W53504  42.336   2.924   4.827
85287W        W53505  13.126  33.581   5.013
85288W        W53506   4.437  36.020   0.238
85289W        W53507   4.806  10.111  11.532
85290W        W53508   8.761  34.381   4.369
85291W        W53509   0.500  22.976  13.069
85292W        W53510  16.190  32.086  10.684
85293W        W53511  44.502  43.383   4.989
85294W        W53512   6.422  26.621   3.484
85295W        W53513   7.307  10.188  11.456
85296W        W53514  10.867  36.498  13.894
85297W        W53515   5.877  23.494   3.194
85298W        W53516  10.900  20.946  13.493
85299W        W53517  23.863  25.478   2.140
85300W        W53518  11.298  35.934  14.435
85301W        W53519   3.810   9.115   3.795
85302W        W53520   5.413   9.426   1.537
85303W        W53521   2.300  19.729  13.002
85304W        W53522  17.155  44.291   4.168
85305W        W53523   8.990  43.988   4.818
85306W        W53524  35.497  33.381   4.269
85307W        W53525  41.631  41.426   4.217
85308W        W53526  31.177  14.716   1.008
85309W        W53527  43.191   5.743   0.914
85310W        W53528   8.580   1.362   0.822
85311W        W53529  35.414  41.987  11.561
85312W        W53530  39.637  14.780   0.871
85313W        W53531   7.204   1.931   0.375
85314W        W53532  36.132  42.046   1.867
85315W        W53533  18.780   4.086  14.784
85316W        W53534  33.138  34.385   1.734
85317W        W53535  17.876  14.876   0.260
85318W        W53536  33.912  26.114  12.547
85319W        W53537  42.930  28.941  13.293
85320W        W53538  26.893  43.910  12.063
85321W        W53539   8.074  28.299   3.869
85322W        W53540   0.885  11.670   0.284
85323W        W53541  27.692  31.984  10.900
85324W        W53542   3.886  42.324  14.076
85325W        W53543  14.130   6.694  12.984
85326W        W53544  34.361  36.273  11.740
85327W        W53545  35.042  36.560  14.899
85328W        W53546  30.660   1.432   5.040
85329W        W53547  20.579  44.375   2.737
85330W        W53548   1.975   0.719  13.870
85331W        W53549  30.565   0.933   5.088
85332W        W53550  33.776  28.265   2.286
85333W        W53551  39.978  10.562  13.921
85334W        W53552   6.924  13.752  11.145
85335W        W53553  28.869  27.650  12.545
85336W        W53554   4.201  35.420  12.374
85337W        W53555   3.126  39.324   4.958
85338W        W53556   3.721  39.420   4.306
85339W        W53557  37.997  15.338  12.468
85340W        W53558   8.685  34.273   0.347
85341W        W53559  35.187  37.983  12.117
85342W        W53560   9.192  44.150  14.137
85343W        W53561  10.984  20.262   0.736
85344W        W53562  34.988   0.786  10.505
85345W        W53563  36.258  26.345  11.028
85346W        W53564  29.719  36.178  11.967
85347W        W53565  10.190   8.207   1.891
85348W        W53566   5.828  32.199  12.471
85349W        W53567   9.297  42.021  10.580
85350W        W53568  16.395  15.555   1.446
85351W        W53569   1.733  40.719   1.261
85352W        W53570  11.284   2.743  12.187
85353W        W53571  15.673   2.471  14.805
85354W        W53572  38.392  27.169   4.078
85355W        W53573   4.564  41.488   1.309
85356W        W53574   6.763  28.666   3.861
85357W        W53575   8.778  21.283  14.481
85358W        W53576  10.087  30.545  11.632
85359W        W53577  17.110  24.720  11.194
85360W        W53578  21.423  28.666  11.527
85361W        W53579  13.239  43.006  12.784
85362W        W53580   4.289  39.044  14.443
85363W        W53581  33.384  14.650  11.151
85364W        W53582  26.035  18.189  10.626
85365W        W53583  39.801  37.006   3.345
85366W        W53584  39.075   4.725  13.974
85367W        W53585  12.546   8.838  11.239
85368W        W53586   9.725  10.733   2.106
85369W        W53587  13.843   6.429  10.595
85370W        W53588  41.139   9.877   4.923
85371W        W53589  29.741  30.640   5.043
85372W        W53590  27.225  29.510   4.276
85373W        W53591  34.136   2.581   1.708
85374W        W53592  41.062  14.821   3.251
85375W        W53593  25.656  19.269  10.674
85376W        W53594   6.869  38.317   0.234
85377W        W53595   2.870   9.408  12.025
85378W        W53596  13.290  15.540   2.658
85379W        W53597  42.549  33.172  12.368
85380W        W53598  22.705  13.042  13.333
85381W        W53599  36.717  32.393   2.026
85382W        W53600  11.115  16.661  13.520
85383W        W53601  29.673  36.026  11.364
85384W        W53602   1.506  44.208   4.343
85385W        W53603   6.631  33.887  14.790
85386W        W53604  29.542  43.296   0.391
85387W        W53605   4.329  42.955   0.173
85388W        W53606  15.594   9.859   0.902
85389W        W53607  43.863  13.465  11.066
85390W        W53608  32.019  17.441   5.215
85391W        W53609  12.074  36.407  12.481
85392W        W53610  24.419  42.955  12.088
85393W        W53611  24.634  17.398  14.717
85394W        W53612   0.300  13.867   2.241
85395W        W53613   5.166  21.887  11.564
85396W        W53614  18.539  12.825   1.926
85397W        W53615   7.738   8.361   3.714
85398W        W53616  30.439  36.798  14.669
85399W        W53617  43.004  21.156  11.153
85400W        W53618  40.210   0.282  12.543
85401W        W53619  25.706   0.411   3.596
85402W        W53620  40.988  12.400   3.237
85403W        W53621   5.260  37.049   1.108
85404W        W53622  23.227  37.063  14.804
85405W        W53623  25.586  29.161  10.752
85406W        W53624  11.198  39.462  13.380
85407W        W53625  37.976  29.078   4.171
85408W        W53626  12.125  21.982  14.276
85409W        W53627  41.350  27.128   3.673
85410W        W53628  42.554   0.455  12.911
85411W        W53629   5.464  14.559  11.006
85412W        W53630  33.848  28.625  13.395
85413W        W53631  17.566  24.519   3.247
85414W        W53632   8.314  43.361  12.936
85415W        W53633   1.385  35.613  11.546
85416W        W53634  35.553   5.024   4.161
85417W        W53635  16.358  42.249  12.038
85418W        W53636  28.131   8.920  12.318
85419W        W53637   9.214  25.620  13.777
85420W        W53638  28.894   4.277  13.912
85421W        W53639   4.182  35.874  12.681
85422W        W53640  25.942  20.047   4.044
85423W        W53641  15.721  19.825   2.362
85424W        W53642  27.109  12.078  12.454
85425W        W53643  35.475   6.600  14.038
85426W        W53644  13.275  16.243   3.803
85427W        W53645  37.487   3.418   1.980
85428W        W53646   4.796   0.895  11.626
85429W        W53647  14.609  35.502   0.845
85430W        W53648   4.000  20.050  13.990
85431W        W53649  10.205  14.057   2.312
85432W        W53650  42.761  43.963   3.830
85433W        W53651   3.833   9.637   3.721
85434W        W53652  12.804  37.762   3.369
85435W        W53653  38.235  11.526   1.799
85436W        W53654  34.912  12.821  13.536
85437W        W53655   1.510  18.968   0.332
85438W        W53656  21.232  31.649  12.511
85439W        W53657  25.060  41.152  12.968
85440W        W53658  24.118  26.030  12.937
85441W        W53659  28.706   9.694  14.343
85442W        W53660  40.953  21.430  10.727
85443W        W53661  26.686   0.083   1.726
85444W        W53662  18.645   3.674   4.112
85445W        W53663  22.045   8.712   1.184
85446W        W53664  32.877  16.519   4.279
85447W        W53665  16.348   3.259   4.536
85448W        W53666   5.358   6.972   4.149
85449W        W53667  25.027  32.406  12.503
85450W        W53668  31.522  17.819   1.313
85451W        W53669  33.356   8.650  12.082
85452W        W53670  32.128  20.625   3.730
85453W        W53671   9.195  26.466  11.545
85454W        W53672   7.296  25.633  12.539
85455W        W53673  23.967  39.904   2.361
85456W        W53674  25.940  28.414   4.542
85457W        W53675  28.950  42.235  13.704
85458W        W53676  13.131  25.897   2.873
85459W        W53677  32.033  40.724   2.259
85460W        W53678  42.844  14.162  10.849
85461W        W53679   1.950  43.567   1.906
85462W        W53680  28.303  42.199   2.811
85463W        W53681   8.614  22.255   4.770
85464W        W53682  21.168   4.886   2.719
85465W        W53683  38.530  15.675   2.232
85466W        W53684  10.968  42.152   1.780
85467W        W53685   6.333  26.241   1.044
85468W        W53686  10.372   7.388   4.476
85469W        W53687  16.078  10.057  10.106
85470W        W53688  40.372  32.968   4.617
85471W        W53689  42.066  23.901   2.182
85472W        W53690  41.498   5.702  11.757
85473W        W53691   6.374  37.478   0.517
85474W        W53692  13.149  30.708   0.826
85475W        W53693  34.615   4.003   2.856
85476W        W53694  23.612  43.793  13.510
85477W        W53695  40.557   2.942   2.158
85478W        W53696  39.863  25.145   2.670
85479W        W53697  33.993  26.155   0.756
85480W        W53698  14.270  28.061  13.601
85481W        W53699  11.790  40.276  12.454
85482W        W53700  19.657  35.904  12.011
85483W        W53701   1.989  24.391   4.090
85484W        W53702   5.438  39.312   3.317
85485W        W53703  22.496  29.680   1.723
85486W        W53704  27.658  27.624   4.379
85487W        W53705  30.825  28.948   5.362
85488W        W53706  39.357  35.924  12.603
85489W        W53707  40.530  21.693  13.014
85490W        W53708  20.398  14.219   9.855
85491W        W53709   9.730  37.012   4.978
85492W        W53710  14.598  21.584  12.612
85493W        W53711   0.364  35.930  12.440
85494W        W53712  16.761  14.884   4.216
85495W        W53713   2.277  34.283   3.857
85496W        W53714  37.566   5.174  11.558
85497W        W53715  18.023  21.804   2.819
85498W        W53716   6.677   2.418  13.508
85499W        W53717  41.561  31.609   4.622
85500W        W53718  14.899   6.860  10.664
85501W        W53719  28.750  34.393  11.426
85502W        W53720   3.400   6.629   3.214
85503W        W53721  31.754   6.418  10.919
85504W        W53722  34.542  14.662   3.243
85505W        W53723  41.348  16.222   3.848
85506W        W53724  20.872   1.997  12.044
85507W        W53725  30.548  23.718  14.894
85508W        W53726  20.828  14.530  11.532
85509W        W53727  18.684  29.181   1.604
85510W        W53728  24.065  12.835  12.474
85511W        W53729  37.908   1.168   9.842
85512W        W53730   5.863  18.438   2.329
85513W        W53731  22.649   5.755   0.534
85514W        W53732  15.927  30.674  12.889
85515W        W53733   3.818  28.117  14.714
85516W        W53734  43.417  21.404  10.153
85517W        W53735   2.779  16.328   1.805
85518W        W53736  35.899   2.276  11.075
85519W        W53737   5.381  16.917   9.780
85520W        W53738   0.567  36.241  12.015
85521W        W53739   1.406   8.418   0.312
85522W        W53740   8.258  20.601   2.195
85523W        W53741  29.068   7.479   3.580
85524W        W53742  11.654  42.916   4.108
85525W        W53743  39.352  16.358  14.873
85526W        W53744  17.115  35.412  12.524
85527W        W53745   7.336  40.560   0.405
85528W        W53746  14.247  15.437  12.977
85529W        W53747  14.284  29.314  14.435
85530W        W53748  27.995  12.338  13.041
85531W        W53749  23.057  23.299   2.635
85532W        W53750  31.870  39.850   1.784
85533W        W53751  37.506  28.618  13.282
85534W        W53752  28.145  28.542  14.993
85535W        W53753  38.556  36.626   2.332
85536W        W53754   0.510  14.884  13.278
85537W        W53755  13.623  18.712   0.099
85538W        W53756  26.061  37.081  10.746
85539W        W53757  28.548  12.423   3.209
85540W        W53758  22.073  35.468  11.455
85541W        W53759  42.542  12.671   0.006
85542W        W53760  13.838  40.326  12.923
85543W        W53761  27.113  40.770  13.076
85544W        W53762  29.664  15.486  12.783
85545W        W53763  17.728  42.310   1.173
85546W        W53764  28.156  33.441  13.442
85547W        W53765  26.630  39.957  13.857
85548W        W53766  21.494  30.399  14.877
85549W        W53767  10.684  34.115  13.383
85550W        W53768  25.134  42.682  13.656
85551W        W53769   5.298  20.982  14.276
85552W        W53770  18.057  39.285   1.856
85553W        W53771  26.760  16.910   4.113
85554W        W53772   7.687  19.436  10.398
85555W        W53773  30.448  29.082   3.251
85556W        W53774   5.341   9.184   1.973
85557W        W53775  35.851  28.876  13.901
85558W        W53776  27.099   6.821  13.971
85559W        W53777  15.815  14.198   2.284
85560W        W53778   2.832  44.845  14.462
85561W        W53779   4.953  44.042   2.296
85562W        W53780  21.916  14.531  14.012
85563W        W53781  21.900  43.889  11.611
85564W        W53782  20.999  12.797   1.274
85565W        W53783  39.443  30.901  11.439
85566W        W53784  19.936  19.780   4.568
85567W        W53785  36.595   3.515   5.039
85568W        W53786  44.007  24.579  13.108
85569W        W53787  37.699  40.451   5.048
85570W        W53788   8.162   7.663   3.947
85571W        W53789  39.428  32.671  12.906
85572W        W53790  19.559   3.021   3.206
85573W        W53791   9.202   1.729  13.274
85574W        W53792   8.760   3.734   2.402
85575W        W53793  29.466  37.369   0.271
85576W        W53794   4.430  22.107  13.284
85577W        W53795  44.364  23.720  14.042
85578W        W53796  18.382   4.424  14.844
85579W        W53797  31.818  29.283  14.993
85580W        W53798  44.953  37.851  14.860
85581W        W53799  33.486   6.159  11.863
85582W        W53800  43.036  23.787   3.685
85583W        W53801  41.238  12.694  14.496
85584W        W53802   0.519  29.377  14.503
85585W        W53803  11.627   9.108  13.935
85586W        W53804  26.268  20.408   4.200
85587W        W53805  11.711  29.735  14.473
85588W        W53806   1.349  20.562   4.463
85589W        W53807  10.233  14.884  13.485
85590W        W53808  38.694  35.817   1.116
85591W        W53809  41.448  35.771  13.830
85592W        W53810  42.918   7.486   1.875
85593W        W53811  38.612  20.277   3.438
85594W        W53812  28.267  22.630  14.789
85595W        W53813   6.818  10.699   0.596
85596W        W53814  35.453  16.986  12.933
85597W        W53815  28.452  25.217  13.510
85598W        W53816  33.522  30.440  14.328
85599W        W53817  29.526   8.135   2.229
85600W        W53818  10.103  40.872   4.155
85601W        W53819  24.300  36.854   0.426
85602W        W53820   1.765  33.532   4.141
85603W        W53821  39.924  37.510   3.238
85604W        W53822  19.880  10.093   4.136
85605W        W53823  16.432  28.689   4.114
85606W        W53824  15.557  32.580   1.921
85607W        W53825  38.292  36.571   2.782
85608W        W53826  10.618  30.635   1.542
85609W        W53827  19.602  12.655  13.858
85610W        W53828  30.586  40.538  12.549
85611W        W53829  15.143  33.990  14.971
85612W        W53830   2.292   8.528  14.112
85613W        W53831  21.932  16.196   3.625
85614W        W53832  32.356  44.023  13.050
85615W        W53833  15.725  25.668  11.607
85616W        W53834  25.217  21.613  13.117
85617W        W53835  35.176  13.798   2.444
85618W        W53836  44.434  13.766   2.145
85619W        W53837  12.367  29.787  13.348
85620W        W53838  34.502   9.135   3.250
85621W        W53839   9.396  27.703  10.964
85622W        W53840  36.896  20.055   1.616
85623W        W53841  11.622  12.498   4.685
85624W        W53842  32.987   2.726  14.631
85625W        W53843  28.432   5.873   0.395
85626W        W53844  32.388  42.694  14.735
85627W        W53845   9.204  43.468  11.942
85628W        W53846  25.931  40.428   4.729
85629W        W53847  21.342  32.877  12.997
85630W        W53848  26.989  33.920   3.875
85631W        W53849   3.708  37.069  14.018
85632W        W53850  21.670  25.174  13.954
85633W        W53851  19.276  35.565  12.032
85634W        W53852   8.469   6.898  14.763
85635W        W53853   7.792  31.616  12.067
85636W        W53854  23.958  29.231   0.754
85637W        W53855  42.221   6.935  13.805
85638W        W53856  42.572   6.547  10.768
85639W        W53857   6.796   8.177  11.554
85640W        W53858   4.233  22.280  11.399
85641W        W53859  33.847  29.130   3.276
85642W        W53860  18.733  26.698  10.450
85643W        W53861  26.059   8.391   4.113
85644W        W53862  30.912  33.063  11.175
85645W        W53863  17.536  44.801  10.767
85646W        W53864  43.338  37.532   4.686
85647W        W53865  11.258   9.229   1.820
85648W        W53866  34.569  41.532   1.874
85649W        W53867  11.663  10.328  12.883
85650W        W53868  15.631  24.534  14.926
85651W        W53869  28.842  17.661   5.484
85652W        W53870  12.223  11.942   3.618
85653W        W53871  41.105  39.035  11.992
85654W        W53872  18.077  37.853  13.579
85655W        W53873   3.360   3.003  12.321
85656W        W53874  16.019  35.003  14.316
85657W        W53875   8.929  16.110  14.459
85658W        W53876  21.722  20.616  13.349
85659W        W53877  19.183  33.358  12.059
85660W        W53878  18.728  27.679   3.816
85661W        W53879  30.047  21.535  11.439
85662W        W53880  43.958  40.933  13.035
85663W        W53881  28.506  36.232  13.561
85664W        W53882   8.591  28.064   0.679
85665W        W53883  30.423  12.014  13.877
85666W        W53884  33.896  20.120  14.445
85667W        W53885  30.295   1.793   5.017
85668W        W53886  21.947   7.897  10.714
85669W        W53887  12.614  35.939   1.822
85670W        W53888  11.643   1.271   1.628
85671W        W53889  43.061  27.651   0.447
85672W        W53890   3.094   0.736   4.588
85673W        W53891  23.782  31.066   1.467
85674W        W53892   2.400  28.169  12.431
85675W        W53893   7.744   3.327  13.544
85676W        W53894  41.629  27.773  10.815
85677W        W53895  18.832   5.014   1.699
85678W        W53896   4.433  44.447   4.590
85679W        W53897   6.516  30.648  10.611
85680W        W53898  34.464  44.826   2.139
85681W        W53899  12.502  16.359   2.253
85682W        W53900  10.326  17.361   4.135
85683W        W53901  15.816  44.573   2.209
85684W        W53902  26.390  31.067  12.181
85685W        W53903  28.679  41.588   1.830
85686W        W53904  16.062  30.163  11.170
85687W        W53905  24.008  25.133   2.919
85688W        W53906   1.918  36.938   1.713
85689W        W53907   7.649  11.725  13.835
85690W        W53908  41.848  30.465   0.033
85691W        W53909  42.768   0.527   0.048
85692W        W53910  18.598  36.860   0.204
85693W        W53911  10.735  44.777  14.401
85694W        W53912  14.300  37.542  10.852
85695W        W53913  21.001  13.928  14.074
85696W        W53914  43.113  35.107   2.446
85697W        W53915  36.370  31.643  14.805
85698W        W53916  24.108  10.692  14.222
85699W        W53917  38.713  42.029  11.143
85700W        W53918  26.123  38.936   4.975
85701W        W53919  33.915  32.484   1.194
85702W        W53920   0.326   4.196  13.907
85703W        W53921  40.483  12.618   4.987
85704W        W53922  30.388  12.613  14.333
85705W        W53923   9.285  36.789  14.747
85706W        W53924  44.442  40.972   0.753
85707W        W53925  36.366  25.915   1.394
85708W        W53926  22.797  17.076  13.781
85709W        W53927   1.433  12.187   2.818
85710W        W53928  34.581  34.354  14.890
85711W        W53929  30.100  33.612   3.696
85712W        W53930  11.209  15.167   0.516
85713W        W53931  31.024  31.160   2.227
85714W        W53932   5.686   2.295   3.497
85715W        W53933  24.410  44.559  11.659
85716W        W53934  32.648  11.431  12.992
85717W        W53935  31.937  40.776  11.131
85718W        W53936  11.321  21.825  11.941
85719W        W53937   3.106  33.388  12.070
85720W        W53938  31.033  43.391   2.690
85721W        W53939  12.706  44.692  13.055
85722W        W53940  27.011  14.293  14.503
85723W        W53941  25.529  10.450  11.150
85724W        W53942  21.088   8.375  11.465
85725W        W53943  38.831  43.949  12.318
85726W        W53944  31.567  44.703  14.879
85727W        W53945  44.999  25.553  10.461
85728W        W53946   7.259  26.029   1.802
85729W        W53947  17.612   7.799   1.908
85730W        W53948  20.486  29.690   1.926
85731W        W53949   6.260  35.033  12.968
85732W        W53950  10.364  26.687  11.114
85733W        W53951  20.389  18.363   3.304
85734W        W53952   3.154  36.277  11.569
85735W        W53953   5.442  26.248  11.005
85736W        W53954  44.348   2.753  12.505
85737W        W53955  18.157   2.432  13.618
85738W        W53956  28.093  29.125  13.395
85739W        W53957  25.141   3.545  10.933
85740W        W53958  17.639  17.358  12.287
85741W        W53959   5.484   0.789   1.242
85742W        W53960  44.717   1.552   1.279
85743W        W53961   6.833  32.513   2.439
85744W        W53962  31.987  26.397   2.162
85745W        W53963  33.333   7.182  14.948
85746W        W53964   0.348   1.303  11.819
85747W        W53965   4.356  41.067   2.261
85748W        W53966  19.406  23.507   4.682
85749W        W53967  44.323  36.252  10.689
85750W        W53968  37.984  27.224   4.456
85751W        W53969  44.781  15.611   3.625
85752W        W53970  39.002  12.719  10.223
85753W        W53971  42.399   9.397  12.949
85754W        W53972  22.991  16.761  11.067
85755W        W53973  16.394   0.836   1.465
85756W        W53974  31.696  11.221  10.712
85757W        W53975  28.379  17.504  11.555
85758W        W53976  13.212  10.878  12.416
85759W        W53977  37.564  36.973  10.634
85760W        W53978  19.542  36.919  10.959
85761W        W53979  16.037  23.171   1.019
85762W        W53980  18.734  35.677   0.922
85763W        W53981  39.887  43.276   1.232
85764W        W53982  28.159  30.548  12.258
85765W        W53983   0.656  27.424  12.471
85766W        W53984  19.906  16.410   0.437
85767W        W53985  36.522   7.776   3.194
85768W        W53986   8.617  18.758   1.503
85769W        W53987  38.054  24.266   3.228
85770W        W53988  33.671  14.074  10.376
85771W        W53989  39.821   0.959   1.374
85772W        W53990  26.587  29.001  13.527
85773W        W53991  15.230  26.283  12.128
85774W        W53992  14.828  40.012   0.980
85775W        W53993  22.170  22.779   3.274
85776W        W53994   0.362   6.152   1.842
85777W        W53995   5.859  36.982   3.857
85778W        W53996  32.201  17.754   4.104
85779W        W53997   8.850  36.350   1.009
85780W        W53998  31.471  15.215  14.698
85781W        W53999  24.592  42.997   1.917
85782W        W54000  41.887  24.059   4.999
85783W        W54001   5.972   0.954  12.132
85784W        W54002  21.251  25.182   3.897
85785W        W54003  24.259  10.802   0.460
85786W        W54004  38.831  40.592  11.019
85787W        W54005   0.597  29.157  13.272
85788W        W54006  24.115  33.576  13.848
85789W        W54007  41.785  15.560   4.125
85790W        W54008   7.851  10.864  14.799
85791W        W54009   1.982  27.179   1.312
85792W        W54010   6.432  36.394   0.928
85793W        W54011  21.445  15.088   3.169
85794W        W54012   2.511  30.712  12.486
85795W        W54013  19.934  27.904   0.296
85796W        W54014  10.052   1.452  12.068
85797W        W54015  39.054   7.871  11.581
85798W        W54016  34.683  18.439  13.104
85799W        W54017  35.863  10.876  10.681
85800W        W54018   6.617  13.644   2.355
85801W        W54019   1.272   0.411   0.469
85802W        W54020  31.125   2.480   1.745
85803W        W54021  38.841  14.638   2.270
85804W        W54022  13.384  37.867   1.402
85805W        W54023   2.576  27.825  11.618
85806W        W54024  22.207  32.167   1.953
85807W        W54025  13.219   1.230  14.903
85808W        W54026  18.745  33.628   3.347
85809W        W54027   3.313   7.740   2.409
85810W        W54028  28.997  19.118   1.823
85811W        W54029  10.572  42.371   2.781
85812W        W54030   6.723  19.227  12.389
85813W        W54031   5.667  39.963  11.390
85814W        W54032   5.941   2.555   1.753
85815W        W54033  21.424   4.427  11.509
85816W        W54034  27.617  17.683  11.073
85817W        W54035  43.509  15.116   4.528
85818W        W54036  20.608  38.081  11.261
85819W        W54037  41.593  27.163   0.629
85820W        W54038  37.045  23.677   2.356
85821W        W54039  40.366  17.978  14.615
85822W        W54040   5.310  14.277   2.205
85823W        W54041  43.780   2.754   0.276
85824W        W54042  16.747  41.945   1.660
85825W        W54043   1.943   3.112   2.751
85826W        W54044   5.554   8.759  14.253
85827W        W54045  20.678  20.156  11.573
85828W        W54046  42.999  44.295  14.418
85829W        W54047  32.639  11.752  11.191
85830W        W54048  19.157  40.286  13.877
85831W        W54049   9.558  35.739  14.260
85832W        W54050  22.570  13.664   2.351
85833W        W54051  37.086  39.398  11.661
85834W        W54052  21.309  12.367   2.279
85835W        W54053  35.127  18.301   1.558
85836W        W54054  35.880  32.790   5.010
85837W        W54055   6.783   7.215  14.322
85838W        W54056   8.204  14.507   3.803
85839W        W54057  27.097  12.385  12.891
85840W        W54058  24.263  31.851   1.692
85841W        W54059   4.766  37.596  14.291
85842W        W54060  12.786  18.113   1.382
85843W        W54061  30.704  28.190  10.688
85844W        W54062  44.050  26.637  11.213
85845W        W54063  25.720  17.068  11.981
85846W        W54064  10.914  10.351  13.430
85847W        W54065  16.585  27.552   2.732
85848W        W54066  20.014  13.863  13.998
85849W        W54067  26.288  41.249   1.220
85850W        W54068  20.709  16.887  13.077
85851W        W54069   4.274  16.230  12.623
85852W        W54070  17.034  31.572  11.707
85853W        W54071  21.176  13.803  13.550
85854W        W54072  10.870   6.578   1.388
85855W        W54073  28.785  26.927   1.322
85856W        W54074  12.181   2.170  13.002
85857W        W54075  38.453   5.580  10.912
85858W        W54076  20.318  27.610  13.836
85859W        W54077  13.619  35.787   4.589
85860W        W54078  39.299   4.816  14.439
85861W        W54079  27.640  36.800   3.572
85862W        W54080  10.164  27.456  13.188
85863W        W54081  39.033  22.110   2.189
85864W        W54082   1.266  25.487  14.347
85865W        W54083  35.541  20.784  14.277
85866W        W54084   8.693   2.809  12.974
85867W        W54085  20.251  24.438   0.395
85868W        W54086  22.541  25.975  14.992
85869W        W54087   8.620  37.312   2.817
85870W        W54088   3.986   3.380  11.089
85871W        W54089  44.513  37.803  11.642
85872W        W54090   4.278  36.378  13.446
85873W        W54091  42.706  27.621   4.456
85874W        W54092   4.344  14.205  11.669
85875W        W54093   6.867  43.612   0.172
85876W        W54094   6.201  29.220  13.954
85877W        W54095  12.065   8.251  11.600
85878W        W54096  25.375   3.658  12.928
85879W        W54097  32.942  13.328   2.759
85880W        W54098  31.355  12.351  12.870
85881W        W54099  22.258  41.251  12.139
85882W        W54100  23.496  17.697   3.187
85883W        W54101   3.350  13.322  10.651
85884W        W54102  28.249  33.572   1.654
85885W        W54103   6.842  16.144  12.376
85886W        W54104   6.759  18.396   3.695
85887W        W54105   1.897  44.211  12.585
85888W        W54106  43.325   3.465   1.313
85889W        W54107  30.669  15.405   0.934
85890W        W54108  11.600   1.865   2.106
85891W        W54109  13.625  18.668   3.241
85892W        W54110  41.136  17.780  10.780
85893W        W54111  34.331  20.708  10.736
85894W        W54112  19.707  33.433  14.979
85895W        W54113  36.483  34.377  12.409
85896W        W54114  14.066  22.996  11.976
85897W        W54115  27.024  33.538  13.904
85898W        W54116   8.678  21.739  14.746
85899W        W54117   4.479  40.634   1.364
85900W        W54118  35.376   6.377   3.711
85901W        W54119  26.313   7.563  14.934
85902W        W54120  11.558   8.959  10.705
85903W        W54121  16.161  23.007   3.845
85904W        W54122  27.184  11.100   1.778
85905W        W54123  35.136  26.225  10.748
85906W        W54124  10.766  10.052   0.825
85907W        W54125  16.780  40.775  13.458
85908W        W54126  42.567  16.567   4.145
85909W        W54127  36.452  14.068  10.851
85910W        W54128  19.565  27.850  14.925
85911W        W54129  37.786  33.779  13.855
85912W        W54130  41.350  29.998  12.840
85913W        W54131  32.234  36.622   2.863
85914W        W54132   2.736   7.584  10.562
85915W        W54133  19.589   6.834   3.630
85916W        W54134  40.098   0.694   1.732
85917W        W54135  14.808  19.236  12.813
85918W        W54136  40.895  36.020  11.631
85919W        W54137  14.840  19.889   2.239
85920W        W54138  31.653  34.564   3.474
85921W        W54139  26.122  13.759  12.555
85922W        W54140  15.040   1.015  11.428
85923W        W54141   7.180  35.120   3.926
85924W        W54142  26.941  35.088  14.886
85925W        W54143  42.870   8.130  14.081
85926W        W54144   6.646  18.303  14.282
85927W        W54145   6.064  18.657  13.895
85928W        W54146   9.293  10.612  10.740
85929W        W54147  13.371   9.635  12.967
85930W        W54148  20.452  40.633   0.728
85931W        W54149  11.604  33.953   3.603
85932W        W54150  35.860  34.936  14.819
85933W        W54151  28.063  26.165  11.153
85934W        W54152  27.717  38.633  10.726
85935W        W54153  19.556  31.746   0.420
85936W        W54154  24.478  18.800   4.586
85937W        W54155  15.013  24.147  14.212
85938W        W54156   7.387  14.060  14.541
85939W        W54157  39.901   8.341  13.493
85940W        W54158  38.417  36.441  14.422
85941W        W54159  24.421  21.987  11.735
85942W        W54160  38.626   9.457   4.538
85943W        W54161  35.637  33.031  12.938
85944W        W54162  25.573   8.474  10.708
85945W        W54163  35.578  18.105  12.893
85946W        W54164  14.162  26.976  13.568
85947W        W54165  21.988  33.022  12.489
85948W        W54166  38.862   7.250  12.946
85949W        W54167  43.558  26.386  13.018
85950W        W54168  21.532  21.447   3.822
85951W        W54169  22.783  10.289  10.703
85952W        W54170  34.456  35.613   0.332
85953W        W54171  35.082  38.087  14.778
85954W        W54172  12.582  15.902   9.944
85955W        W54173  13.583  15.074  11.761
85956W        W54174  40.027  38.313  11.680
85957W        W54175  19.720  41.809   3.718
85958W        W54176  18.332  30.824  12.623
85959W        W54177  15.576  41.457   3.278
85960W        W54178  38.589  16.057  10.696
85961W        W54179   6.753  43.785   1.806
85962W        W54180  19.104  26.113   4.613
85963W        W54181   2.292  43.663  12.128
85964W        W54182  39.351  10.686  12.815
85965W        W54183  18.321   3.434   4.718
85966W        W54184  28.055  10.378   1.346
85967W        W54185  31.968   8.396   1.275
85968W        W54186  41.897  20.500  11.401
85969W        W54187   4.837   7.913   0.530
85970W        W54188  38.289  37.273  12.960
85971W        W54189  27.038   8.116   3.748
85972W        W54190  31.207  44.021  13.883
85973W        W54191  36.850  30.581   0.622
85974W        W54192  29.127  29.578   3.782
85975W        W54193   2.718   4.308  14.440
85976W        W54194  22.561  20.664   0.029
85977W        W54195  10.607  37.896   1.206
85978W        W54196  39.054  44.477  12.763
85979W        W54197  32.354  41.357  10.728
85980W        W54198  21.838   2.727  13.460
85981W        W54199  26.930  34.519  14.937
85982W        W54200  18.776  16.165   2.738
85983W        W54201  27.688  31.929   3.443
85984W        W54202  24.038  21.554  13.507
85985W        W54203  33.757  20.565   4.604
85986W        W54204  10.380  15.596  12.858
85987W        W54205  28.903   3.764   9.784
85988W        W54206  36.138  23.225   3.237
85989W        W54207  31.906   7.609   3.114
85990W        W54208  25.418  35.103  13.331
85991W        W54209  33.407  35.615  11.021
85992W        W54210  16.779  38.752   2.281
85993W        W54211  41.709  19.618   1.837
85994W        W54212  19.524  29.190   0.325
85995W        W54213  34.727  35.644  10.410
85996W        W54214   0.676  33.690  12.476
85997W        W54215  29.615  23.438   2.293
85998W        W54216   3.433   4.244  14.983
85999W        W54217  42.539  40.457  14.721
86000W        W54218   0.833   4.273   0.933
86001W        W54219   2.734  37.438  11.186
86002W        W54220  42.698  27.035   3.226
86003W        W54221  17.441  41.000  14.852
86004W        W54222  41.240  23.120  14.298
86005W        W54223  21.600   1.218  12.655
86006W        W54224  20.241   5.659   2.215
86007W        W54225  11.329  13.720   3.683
86008W        W54226  35.564  19.685   4.195
86009W        W54227   6.545  11.878   1.910
86010W        W54228  39.593   4.248  11.605
86011W        W54229  10.597  29.019   2.789
86012W        W54230  33.355  40.507   2.237
86013W        W54231   6.666  30.999   2.815
86014W        W54232   7.859  35.646   3.301
86015W        W54233   0.858  14.024   4.449
86016W        W54234   1.532  10.363   3.417
86017W        W54235   8.126  26.436   4.877
86018W        W54236  41.410   9.410  10.735
86019W        W54237  27.011  11.639   4.116
86020W        W54238  35.307   3.000  14.271
86021W        W54239  22.177  39.857   0.385
86022W        W54240  34.450  25.197   1.471
86023W        W54241  37.532  43.711   4.344
86024W        W54242   1.972  27.200   3.741
86025W        W54243   3.214  29.618   3.315
86026W        W54244  17.293   3.389   3.766
86027W        W54245   2.865   9.954  11.134
86028W        W54246   6.347  20.216   3.865
86029W        W54247   8.203  40.614  12.856
86030W        W54248   3.990  41.869  14.340
86031W        W54249  17.625   3.952   3.651
86032W        W54250  28.590  25.103   1.371
86033W        W54251  29.577  11.663   0.921
86034W        W54252  38.460   2.814  10.776
86035W        W54253  30.396   4.476   2.364
86036W        W54254  20.630  43.793  14.317
86037W        W54255  14.803   6.092   3.147
86038W        W54256  37.336  30.465   1.042
86039W        W54257   3.460  25.652   2.467
86040W        W54258  11.889  13.465   2.352
86041W        W54259   1.881  35.347   3.536
86042W        W54260  25.918  16.894   2.100
86043W        W54261  29.855  28.609   0.493
86044W        W54262  38.563  27.552  12.965
86045W        W54263   5.186  36.132   1.748
86046W        W54264   1.229   6.883   2.392
86047W        W54265  10.909   7.950   0.394
86048W        W54266  29.202  26.511   2.005
86049W        W54267  38.874  14.695   3.623
86050W        W54268  23.487   5.900  14.895
86051W        W54269   8.288  38.315   4.600
86052W        W54270  26.036  28.282  12.574
86053W        W54271  38.811   2.953  10.397
86054W        W54272  20.038  43.470  11.225
86055W        W54273  40.840  31.885   1.350
86056W        W54274  24.070  37.748   1.653
86057W        W54275   3.361   0.305  10.849
86058W        W54276  37.256  29.605   4.022
86059W        W54277  14.096   4.782   0.466
86060W        W54278  14.809  25.451   0.795
86061W        W54279  15.210  17.108   0.271
86062W        W54280  24.213  25.798   2.358
86063W        W54281   0.654  32.755  11.116
86064W        W54282  19.329  14.284   0.470
86065W        W54283  19.248  27.076   1.592
86066W        W54284  36.278   6.912  13.468
86067W        W54285  31.190  38.455   4.064
86068W        W54286  13.388  35.235   2.314
86069W        W54287  20.177   5.989  14.540
86070W        W54288  31.901  12.104  13.931
86071W        W54289  38.391   4.225  10.647
86072W        W54290  33.094  26.817   2.766
86073W        W54291  28.171  16.640  14.625
86074W        W54292  44.783   8.240  14.296
86075W        W54293  13.654  12.716   1.542
86076W        W54294  42.578   8.741   3.631
86077W        W54295  38.504  35.063  13.252
86078W        W54296  18.791   4.153   2.321
86079W        W54297  24.116   6.342  10.680
86080W        W54298   8.295  15.535  12.943
86081W        W54299  40.833  40.679   1.445
86082W        W54300  15.124  28.410  14.347
86083W        W54301  43.133   8.913   2.285
86084W        W54302  36.401  30.608   1.885
86085W        W54303  44.303  41.586   0.289
86086W        W54304  10.432  23.077  11.442
86087W        W54305   8.281  29.143  14.308
86088W        W54306  37.916   9.164  13.598
86089W        W54307  39.964  12.845   0.055
86090W        W54308  26.409  41.577  10.875
86091W        W54309  20.208  35.102   0.464
86092W        W54310  35.267  41.108   1.236
86093W        W54311  16.395  16.648   1.770
86094W        W54312  16.904  16.587  14.980
86095W        W54313  13.251  29.242   2.803
86096W        W54314  20.697  34.464  13.997
86097W        W54315  11.326  26.448  10.114
86098W        W54316  40.947  22.704  12.081
86099W        W54317   3.204  43.586   1.397
86100W        W54318  35.563  12.871   4.984
86101W        W54319  27.106  41.341   4.739
86102W        W54320  32.431  28.229  12.812
86103W        W54321  17.005  32.027   3.767
86104W        W54322  28.917  40.938   2.350
86105W        W54323  32.304  29.149  13.921
86106W        W54324   6.542  13.667   3.709
86107W        W54325   2.768   7.635   3.704
86108W        W54326   3.146  39.500   3.024
86109W        W54327   6.394  35.999   3.196
86110W        W54328  42.998  19.512  14.275
86111W        W54329  26.620  12.652  14.011
86112W        W54330  23.876  17.145   1.621
86113W        W54331   2.618   7.654  11.081
86114W        W54332  26.974  13.680   0.712
86115W        W54333  20.637  11.891  10.888
86116W        W54334   1.167  24.982  14.431
86117W        W54335  40.562  14.227  10.529
86118W        W54336   4.895  35.300  14.800
86119W        W54337  22.608  30.451  13.523
86120W        W54338  32.993  24.027  14.019
86121W        W54339   9.473  21.145   3.941
86122W        W54340  20.480  12.119  14.583
86123W        W54341  19.179  27.978   1.882
86124W        W54342   6.877  12.082   2.268
86125W        W54343  18.836   4.594   2.839
86126W        W54344  33.129  33.485  11.578
86127W        W54345  44.622   4.555  10.714
86128W        W54346   3.610  42.225   1.780
86129W        W54347  28.584  36.820  13.157
86130W        W54348  16.890  30.830  14.035
86131W        W54349   8.616  11.432  11.166
86132W        W54350  43.116  31.585  11.209
86133W        W54351   7.292   7.427  14.510
86134W        W54352  27.626   6.377   4.082
86135W        W54353  29.338  25.538   3.784
86136W        W54354  26.627  34.448  11.969
86137W        W54355   9.213   3.789  13.945
86138W        W54356  23.086  27.992   4.751
86139W        W54357  29.565   5.323  13.286
86140W        W54358  21.157  28.087   4.634
86141W        W54359  19.791  29.519   3.637
86142W        W54360   5.165  10.864  11.487
86143W        W54361   9.615  37.259   4.312
86144W        W54362  40.549   3.235   1.705
86145W        W54363   7.357  19.662  10.727
86146W        W54364   8.189  30.124  12.308
86147W        W54365  17.783  16.015  12.864
86148W        W54366  13.597  31.204  14.851
86149W        W54367  40.253  22.624   2.711
86150W        W54368  12.122  44.978  11.506
86151W        W54369   5.455  37.832  12.425
86152W        W54370  16.361  42.818  13.418
86153W        W54371  44.009  34.575  11.151
86154W        W54372  22.091  24.062  12.698
86155W        W54373  18.680   6.819  13.418
86156W        W54374  10.852  41.937  13.950
86157W        W54375  31.628   2.019   3.744
86158W        W54376   7.922  10.436  12.432
86159W        W54377  30.623   4.394  11.600
86160W        W54378  24.536  20.867  11.146
86161W        W54379  40.508  44.893   3.721
86162W        W54380  34.095  11.217  10.833
86163W        W54381  29.966  13.052   3.628
86164W        W54382   0.079  12.748  12.396
86165W        W54383   3.691   5.295  10.621
86166W        W54384  32.091  37.291  13.971
86167W        W54385  30.710  30.162  13.035
86168W        W54386  18.766  12.957  14.282
86169W        W54387   4.193  15.671  13.816
86170W        W54388   2.702   5.874  12.953
86171W        W54389  34.610   8.007  11.268
86172W        W54390  24.911  40.591   3.250
86173W        W54391   3.889  35.160  13.874
86174W        W54392  31.145  15.238  11.590
86175W        W54393   8.162  13.570  12.016
86176W        W54394  23.892   1.264   4.599
86177W        W54395  21.118  22.252   4.625
86178W        W54396   7.605  18.219  12.769
86179W        W54397  44.552   5.826   1.437
86180W        W54398  11.105  15.395   2.319
86181W        W54399  31.894  28.098   2.679
86182W        W54400  20.687   4.791  13.781
86183W        W54401  21.193   1.284   1.984
86184W        W54402  25.261  23.083  11.988
86185W        W54403  23.030  35.768  14.342
86186W        W54404  14.338   9.840  12.140
86187W        W54405  35.544  28.716   1.778
86188W        W54406  31.041   5.124  12.404
86189W        W54407  42.321  16.227   2.695
86190W        W54408  44.854  13.496  10.986
86191W        W54409  10.391  21.400   0.157
86192W        W54410  38.378  14.738  10.851
86193W        W54411  36.431  33.770  10.301
86194W        W54412  27.410  13.296   3.806
86195W        W54413  15.839  16.340  10.735
86196W        W54414   9.662  20.723   4.709
86197W        W54415  42.104  44.004   4.722
86198W        W54416  29.546   0.681  11.412
86199W        W54417  27.748  37.160  13.272
86200W        W54418  34.320   4.218   3.197
86201W        W54419   0.274  22.320   3.111
86202W        W54420   8.295   2.486  13.086
86203W        W54421  37.038  21.309   2.070
86204W        W54422  35.777   6.368  12.376
86205W        W54423  15.494  26.193   3.619
86206W        W54424  37.517  22.967   4.525
86207W        W54425  27.561  39.297   0.254
86208W        W54426  37.898  24.146  11.202
86209W        W54427  25.978  16.646   1.649
86210W        W54428  24.441   0.134   2.869
86211W        W54429  27.947  18.178   0.245
86212W        W54430   1.842   5.901   4.726
86213W        W54431  21.980  24.461   1.374
86214W        W54432  32.356  34.288  11.670
86215W        W54433  20.394   9.195  11.989
86216W        W54434  32.736  16.345   2.209
86217W        W54435   2.465  40.623   0.774
86218W        W54436  32.048   8.675  14.513
86219W        W54437   1.447   9.795  13.533
86220W        W54438  36.328  40.816  14.515
86221W        W54439  10.807  14.363   3.294
86222W        W54440  40.377  40.250   4.641
86223W        W54441  13.238  13.911   4.223
86224W        W54442   0.302  23.703   2.592
86225W        W54443   1.717  36.172   1.417
86226W        W54444  13.358   4.464   4.239
86227W        W54445  26.512   8.908   2.379
86228W        W54446  41.956  14.438  13.137
86229W        W54447  23.113   3.807   4.329
86230W        W54448   8.700   8.328   0.192
86231W        W54449  24.755   5.650   1.198
86232W        W54450  38.932   7.954   0.913
86233W        W54451  36.026  26.694  10.740
86234W        W54452   3.696   0.290   2.237
86235W        W54453  35.820  40.766   0.349
86236W        W54454  24.347  12.193   1.221
86237W        W54455  10.356  39.427  14.669
86238W        W54456   0.836   2.860   1.969
86239W        W54457  15.909  43.913   0.430
86240W        W54458  37.652  25.555  12.158
86241W        W54459  11.747  43.910   4.537
86242W        W54460  20.685  42.804  10.936
86243W        W54461  25.093  22.361  14.786
86244W        W54462  37.543  19.488   0.098
86245W        W54463  18.686  21.528   0.429
86246W        W54464   6.898  41.292  14.946
86247W        W54465   8.675  35.002  11.592
86248W        W54466   5.690   5.643  12.434
86249W        W54467  16.603  13.119  10.540
86250W        W54468  34.851   6.992   1.810
86251W        W54469  20.109  25.962  11.481
86252W        W54470  33.203  19.719  13.336
86253W        W54471  25.205   8.733   1.626
86254W        W54472   7.645  44.790   4.203
86255W        W54473  18.348  31.534   4.094
86256W        W54474  33.624  31.303   1.927
86257W        W54475   9.833  28.643   1.262
86258W        W54476  11.703  16.006  12.619
86259W        W54477  19.614  27.496  11.738
86260W        W54478  29.184  20.097  12.449
86261W        W54479   1.741  22.517  11.971
86262W        W54480  23.538  36.073   4.328
86263W        W54481  18.520  23.706   0.810
86264W        W54482  14.164   6.173  12.947
86265W        W54483   8.297  18.401   4.009
86266W        W54484  16.614   8.413   0.004
86267W        W54485  40.552  18.192  11.197
86268W        W54486  31.119  39.398   2.683
86269W        W54487  33.979  10.834   0.486
86270W        W54488  41.838  35.184   5.065
86271W        W54489  16.022  39.431  11.558
86272W        W54490  37.758  24.574  11.513
86273W        W54491   1.823  43.825   2.381
86274W        W54492  13.057   1.498  10.573
86275W        W54493   9.676  10.249  14.045
86276W        W54494   9.820  41.995  11.507
86277W        W54495  40.577   1.498   4.496
86278W        W54496  12.225  22.187  10.636
86279W        W54497  36.091  30.090  14.763
86280W        W54498   2.840   5.960   4.647
86281W        W54499   3.544  22.903  10.723
86282W        W54500   4.740  20.747  13.653
86283W        W54501  32.427  41.753   1.989
86284W        W54502  16.406  26.522   0.469
86285W        W54503  43.649  40.015  12.585
86286W        W54504  14.068  27.631   4.235
86287W        W54505  37.136  19.189  10.701
86288W        W54506   0.317  30.073   3.597
86289W        W54507   9.746  16.074   1.430
86290W        W54508  24.939  37.566   2.810
86291W        W54509   1.534   6.664  12.957
86292W        W54510  29.430  10.308  14.355
86293W        W54511   4.268  30.493  11.957
86294W        W54512   3.327  25.095   2.759
86295W        W54513  13.713  39.268   0.387
86296W        W54514  19.537  16.545  13.785
86297W        W54515  43.294  15.699   0.908
86298W        W54516  32.144  36.546   4.584
86299W        W54517  36.888  44.127  10.789
86300W        W54518  39.931   8.309  12.972
86301W        W54519  39.212   9.840   0.828
86302W        W54520  39.871   0.618   3.707
86303W        W54521  14.301   0.760   1.398
86304W        W54522  35.529  13.978  10.711
86305W        W54523   6.222  14.743  11.481
86306W        W54524  30.001  30.463  11.163
86307W        W54525  12.301  10.242   4.028
86308W        W54526  42.517  26.671  11.909
86309W        W54527  13.375  30.025   4.429
86310W        W54528  29.893  17.690  14.777
86311W        W54529   3.739  44.931  11.988
86312W        W54530  33.015  41.545  11.827
86313W        W54531  34.462  13.995   4.202
86314W        W54532   1.220  34.464  11.510
86315W        W54533  38.039  29.960   4.406
86316W        W54534  29.119  39.296   2.809
86317W        W54535   2.203  27.797  14.551
86318W        W54536   3.629   0.823   3.913
86319W        W54537  39.569  44.351   1.881
86320W        W54538  29.084  17.084   4.649
86321W        W54539  36.208  33.491   0.522
86322W        W54540  23.991  44.324  14.360
86323W        W54541  26.187  33.007   4.722
86324W        W54542  30.666  40.037   3.145
86325W        W54543   5.475  14.571   3.674
86326W        W54544  16.760   2.207   2.821
86327W        W54545  40.355  16.510   2.295
86328W        W54546  17.042   3.567  14.194
86329W        W54547  13.794  33.359   4.117
86330W        W54548  41.925  14.281   4.531
86331W        W54549  40.837   6.670   1.887
86332W        W54550  18.149   5.298  14.590
86333W        W54551  33.837  43.066   0.334
86334W        W54552   1.145  11.739   1.957
86335W        W54553  30.987  25.978   4.409
86336W        W54554  42.960  31.409   4.310
86337W        W54555  17.098   5.499  14.869
86338W        W54556  26.250  42.442  11.264
86339W        W54557  23.273  26.670   4.944
86340W        W54558  32.953   8.219  11.595
86341W        W54559  34.077  13.284   2.779
86342W        W54560   4.928  39.213   0.083
86343W        W54561  32.179  38.293  10.292
86344W        W54562  22.033  19.182  10.814
86345W        W54563  39.049  21.423   1.448
86346W        W54564   2.277  25.293  13.075
86347W        W54565  26.232  33.389   3.755
86348W        W54566  19.135  38.437  13.019
86349W        W54567  10.630  36.677  12.529
86350W        W54568   0.679  33.965  10.681
86351W        W54569  34.164  38.462   3.807
86352W        W54570  25.040   5.153   1.862
86353W        W54571  24.261  34.153   4.651
86354W        W54572   6.686  38.637   2.203
86355W        W54573  17.665  32.360  10.635
86356W        W54574  36.363  37.997  11.649
86357W        W54575  40.316   3.595   4.429
86358W        W54576  30.014  14.779   5.229
86359W        W54577  26.042  14.772  13.998
86360W        W54578   7.177  31.408   0.291
86361W        W54579   8.884   4.635  12.034
86362W        W54580  40.825   7.207   3.233
86363W        W54581  35.643  16.019   2.702
86364W        W54582  39.929  35.048   1.453
86365W        W54583  25.671   3.683  14.265
86366W        W54584  12.355   0.070   0.250
86367W        W54585  17.110  35.312   2.944
86368W        W54586  20.696  33.327   0.454
86369W        W54587  35.998  35.835  14.433
86370W        W54588   8.407   3.920   0.332
86371W        W54589   0.358  22.560  10.358
86372W        W54590  42.030  17.366   3.865
86373W        W54591   8.887   9.875  12.063
86374W        W54592  19.015  22.485   2.437
86375W        W54593   0.916   2.995   0.989
86376W        W54594  37.361  30.099  11.097
86377W        W54595  23.750  22.619   0.989
86378W        W54596  37.046  43.041  11.592
86379W        W54597  25.550   3.188  12.800
86380W        W54598  31.512  36.891  13.256
86381W        W54599  35.402  25.230   2.810
86382W        W54600  24.932  33.396  11.438
86383W        W54601  29.630   5.517   4.111
86384W        W54602   5.423  17.631  14.900
86385W        W54603  27.396  20.474  11.936
86386W        W54604   9.722  39.771  13.150
86387W        W54605  16.320  39.453  13.986
86388W        W54606  12.422  31.561  12.113
86389W        W54607  22.432  13.956   3.841
86390W        W54608  41.455   4.253  11.576
86391W        W54609   6.256  31.501   0.507
86392W        W54610  28.379  27.246  14.984
86393W        W54611  29.554  29.537   4.124
86394W        W54612  12.145  36.421   0.933
86395W        W54613  34.139  33.974   2.259
86396W        W54614  44.452  14.458   1.315
86397W        W54615  42.012  44.320  11.960
86398W        W54616  36.293   3.486  11.097
86399W        W54617   0.781  11.142  12.424
86400W        W54618  18.967  13.684   2.138
86401W        W54619  14.890   2.465   4.337
86402W        W54620  21.495  23.059  14.262
86403W        W54621  35.877  44.221  13.371
86404W        W54622  13.257  12.196  14.472
86405W        W54623  17.854  18.552   3.471
86406W        W54624  41.081  16.939   4.527
86407W        W54625  26.558   5.030   5.101
86408W        W54626  22.708  25.497   0.677
86409W        W54627  42.851  42.435  12.052
86410W        W54628   3.209  16.564   1.922
86411W        W54629  26.577  28.437   0.304
86412W        W54630  11.230  34.973   3.362
86413W        W54631   7.149  26.472   2.925
86414W        W54632  42.413  10.724  10.774
86415W        W54633  11.272  31.015  12.032
86416W        W54634  16.041  37.613   4.497
86417W        W54635  30.141  16.738  12.942
86418W        W54636  12.199   6.401   3.626
86419W        W54637   2.856  43.249   4.300
86420W        W54638  30.702  20.293   0.335
86421W        W54639  25.150   9.262  14.895
86422W        W54640  18.718  44.435   2.313
86423W        W54641  44.545   1.434   3.213
86424W        W54642  14.365  19.199   3.367
86425W        W54643  26.493   1.473   3.373
86426W        W54644  12.940   4.145  12.059
86427W        W54645  32.908  43.883  14.575
86428W        W54646  10.822   1.827  14.739
86429W        W54647  32.912   6.636  12.490
86430W        W54648  41.074  10.969   4.203
86431W        W54649  34.918  22.342   2.138
86432W        W54650  28.990  26.587   4.441
86433W        W54651  36.017  13.700   1.943
86434W        W54652  22.686  40.902   4.792
86435W        W54653  24.451   9.845   1.699
86436W        W54654  34.615  12.304   0.789
86437W        W54655  30.501  29.004  11.205
86438W        W54656  19.904   7.308  10.642
86439W        W54657  39.565   8.415  12.025
86440W        W54658   9.741  25.449   3.582
86441W        W54659  26.694  40.118   3.894
86442W        W54660  32.139  39.383   1.736
86443W        W54661   7.239  36.358  12.844
86444W        W54662  10.645  22.530  14.234
86445W        W54663  39.006  44.997  12.922
86446W        W54664   3.932  18.664   2.208
86447W        W54665  28.171  27.706   1.871
86448W        W54666   6.363  28.025  14.867
86449W        W54667  16.720  44.213   1.713
86450W        W54668   3.443  35.960  10.811
86451W        W54669  25.774  34.119   1.020
86452W        W54670  32.202  13.824  11.357
86453W        W54671   0.753  12.133   4.124
86454W        W54672  24.449  24.962   5.114
86455W        W54673  36.525  11.246  14.444
86456W        W54674  31.279   7.743  14.555
86457W        W54675  24.676   6.243  14.615
86458W        W54676  13.593   5.702   3.199
86459W        W54677  22.697  15.316   2.951
86460W        W54678  29.083  26.621   0.998
86461W        W54679  17.598  44.947   5.476
86462W        W54680  41.776   5.764  13.396
86463W        W54681  16.140  41.761  11.172
86464W        W54682  23.515  23.206   3.656
86465W        W54683  37.349  18.783   1.756
86466W        W54684  29.980  13.763   0.799
86467W        W54685  22.041  17.106  10.533
86468W        W54686  29.704  22.290  14.404
86469W        W54687  35.023  20.667  14.226
86470W        W54688  40.043  25.093   3.177
86471W        W54689   6.916  32.385   3.769
86472W        W54690  31.490  18.038   3.975
86473W        W54691  32.188  21.914  12.499
86474W        W54692  20.055  31.904   0.445
86475W        W54693  12.274  32.917  12.032
86476W        W54694  43.333   6.743   0.985
86477W        W54695  28.730  32.516  11.610
86478W        W54696   3.735  17.722   2.559
86479W        W54697  14.076  24.493  13.016
86480W        W54698   2.160  15.177  12.551
86481W        W54699  29.950  44.505   3.155
86482W        W54700  19.825  42.502   4.975
86483W        W54701  30.368  30.201   1.341
86484W        W54702   7.670  26.719  14.716
86485W        W54703   2.167  32.827  13.327
86486W        W54704  43.931   0.073   3.531
86487W        W54705   8.722  33.773   0.215
86488W        W54706  27.716  32.799  13.870
86489W        W54707   9.843  42.911  10.258
86490W        W54708  40.783   9.142  14.869
86491W        W54709  21.870   2.363   4.843
86492W        W54710  31.134   9.201  13.730
86493W        W54711  33.749  43.928  10.269
86494W        W54712  16.183  27.582   2.356
86495W        W54713  43.571  13.226   5.051
86496W        W54714  20.185   7.898   2.588
86497W        W54715  13.594   4.766   1.402
86498W        W54716  39.905  33.935  11.904
86499W        W54717  29.603  25.251  13.421
86500W        W54718   6.439  27.210   0.175
86501W        W54719  28.153  20.767  11.261
86502W        W54720  23.056   3.913   0.497
86503W        W54721  33.410   3.313   3.587
86504W        W54722  25.637  42.203   2.918
86505W        W54723  33.290  32.967  14.029
86506W        W54724  44.457  38.670  14.577
86507W        W54725  40.067  34.437   3.212
86508W        W54726  16.561   1.314   1.377
86509W        W54727  13.647  17.434   2.836
86510W        W54728   2.980   6.173  12.623
86511W        W54729  15.093  36.317   3.349
86512W        W54730  26.989  32.612   1.449
86513W        W54731   7.716   8.575  11.233
86514W        W54732  34.569   5.333   9.530
86515W        W54733  44.835  19.582  13.604
86516W        W54734   8.351  25.754  13.944
86517W        W54735  30.721  19.520  10.413
86518W        W54736   0.925  20.754   0.759
86519W        W54737  11.247  27.123   4.124
86520W        W54738   2.994  44.552   3.052
86521W        W54739  39.578   8.649  14.324
86522W        W54740   0.946  12.968  13.887
86523W        W54741  39.587  36.025  11.013
86524W        W54742   8.687  44.414   2.840
86525W        W54743  31.968  17.266   2.157
86526W        W54744   5.895  43.190  11.980
86527W        W54745   9.948  37.397   1.880
86528W        W54746  44.322  14.260  11.169
86529W        W54747  22.744  13.190   1.297
86530W        W54748   7.673  19.746   3.720
86531W        W54749  29.827  13.329  12.518
86532W        W54750  40.435  23.032   1.331
86533W        W54751   6.243   8.761   1.200
86534W        W54752  39.399  38.808  12.799
86535W        W54753  20.462  29.172  14.334
86536W        W54754  10.010  30.566   2.416
86537W        W54755  23.676   4.050  12.594
86538W        W54756   0.961  38.519   1.130
86539W        W54757  32.799  32.910  13.909
86540W        W54758  39.365  37.417  14.106
86541W        W54759  36.181  19.267  14.017
86542W        W54760  33.825  23.705   2.729
86543W        W54761  26.882  19.926   3.085
86544W        W54762  43.226  32.778   2.400
86545W        W54763  19.484  27.141  10.944
86546W        W54764  20.695  38.584  10.580
86547W        W54765  24.640  16.240  13.645
86548W        W54766  13.116  29.409  11.222
86549W        W54767  43.590  29.950  10.643
86550W        W54768  41.997   9.596   4.276
86551W        W54769  38.949  34.105   4.688
86552W        W54770   5.208  43.818  11.975
86553W        W54771  18.653  18.164   2.425
86554W        W54772   3.006  23.716   1.766
86555W        W54773  28.847  23.217  13.057
86556W        W54774  11.326  23.473   2.834
86557W        W54775  18.330  27.620  10.668
86558W        W54776   1.811   7.746   0.693
86559W        W54777  20.688  38.799  11.975
86560W        W54778  41.884  43.986   2.740
86561W        W54779  30.780  29.943   4.246
86562W        W54780  13.822   1.808  13.985
86563W        W54781   2.901  15.253   0.931
86564W        W54782   7.217  10.439   0.442
86565W        W54783  37.808  35.939  10.484
86566W        W54784   2.468   1.027   1.013
86567W        W54785  33.290  38.821  12.037
86568W        W54786  29.837   1.781  10.467
86569W        W54787  20.573  10.762   4.532
86570W        W54788  33.415  11.333   1.498
86571W        W54789  14.750  21.878   0.199
86572W        W54790   2.693  13.768   0.890
86573W        W54791  41.276  17.010   0.266
86574W        W54792  23.086  40.288   3.182
86575W        W54793  23.055   9.710   4.574
86576W        W54794  34.888  13.445   4.908
86577W        W54795   0.397  13.347  12.907
86578W        W54796  24.119  31.506   2.390
86579W        W54797   5.506  25.655   1.450
86580W        W54798  17.977  26.570  11.153
86581W        W54799   3.224  36.331  13.454
86582W        W54800   2.752  27.188   4.893
86583W        W54801  34.400  23.568  12.037
86584W        W54802  34.583  28.112  13.396
86585W        W54803  12.096  29.425   4.170
86586W        W54804  27.760   7.713   3.482
86587W        W54805  20.691  16.007  13.519
86588W        W54806  39.995  43.803   3.539
86589W        W54807  14.324  22.626   3.688
86590W        W54808  31.499  20.477  12.447
86591W        W54809   7.346  13.872   1.789
86592W        W54810  13.123   5.187   4.971
86593W        W54811  43.789  41.483   4.131
86594W        W54812  41.891  43.565  13.190
86595W        W54813  33.373  21.195   0.230
86596W        W54814  18.764   9.400  14.779
86597W        W54815  29.349  12.736   2.773
86598W        W54816   5.089  25.756   4.993
86599W        W54817  29.092  23.566   5.041
86600W        W54818  29.231  10.795   2.931
86601W        W54819  25.339  17.648   2.076
86602W        W54820  21.065  10.287  12.542
86603W        W54821  25.718  36.635   2.271
86604W        W54822   0.796  28.493  13.505
86605W        W54823  14.089  12.833   0.769
86606W        W54824  40.478  44.285  14.419
86607W        W54825  28.156  25.036   1.660
86608W        W54826  39.780   5.499  12.582
86609W        W54827   7.215  26.992  12.581
86610W        W54828  29.398  22.992  11.436
86611W        W54829  37.074  16.340   1.725
86612W        W54830  12.621  12.131   3.911
86613W        W54831  28.560  26.715   3.675
86614W        W54832   2.739  15.036   4.718
86615W        W54833  43.697  31.826  11.481
86616W        W54834   4.456  13.185  14.615
86617W        W54835  21.643  24.483   2.301
86618W        W54836  32.981  31.633  14.821
86619W        W54837  28.197  11.063  13.915
86620W        W54838  34.670  34.042   3.581
86621W        W54839   3.901   4.485  10.408
86622W        W54840  26.090  17.035   1.346
86623W        W54841  31.608  23.256   0.200
86624W        W54842   9.298  35.334  14.487
86625W        W54843  25.829   7.659  11.007
86626W        W54844   6.204  10.333  10.637
86627W        W54845  18.087  31.601   2.174
86628W        W54846  18.121  29.558   2.661
86629W        W54847   9.628  37.462   3.102
86630W        W54848   2.757  43.586  11.495
86631W        W54849  24.296  22.827   5.464
86632W        W54850  26.671   0.071  12.849
86633W        W54851  35.437  12.096  10.404
86634W        W54852  44.838  12.520   2.484
86635W        W54853  21.602  30.418  12.970
86636W        W54854  41.529   6.725   0.752
86637W        W54855  16.704   4.743  14.727
86638W        W54856  31.886  23.837  13.006
86639W        W54857  41.528  31.762   0.495
86640W        W54858  21.528  33.206   1.155
86641W        W54859  37.747   0.418   5.108
86642W        W54860  34.854  10.704   2.795
86643W        W54861   1.261   7.924  12.403
86644W        W54862  25.740  16.120   0.174
86645W        W54863  42.352  15.796   1.123
86646W        W54864  18.640  26.211  11.979
86647W        W54865  19.720  33.566   4.090
86648W        W54866  15.829  35.284   2.589
86649W        W54867  28.716  29.826  10.734
86650W        W54868  39.358  35.263  10.295
86651W        W54869   3.489  34.125   1.743
86652W        W54870  11.190  21.058  14.864
86653W        W54871   6.228  20.751  12.974
86654W        W54872  37.341   5.336   3.725
86655W        W54873  23.550  22.882   1.406
86656W        W54874   6.216  36.621   1.417
86657W        W54875  41.047   6.448  11.532
86658W        W54876  44.317   5.842  13.050
86659W        W54877  14.692  15.659   3.287
86660W        W54878  29.547  14.467   4.553
86661W        W54879  35.668  42.763   0.836
86662W        W54880  26.470  38.054   3.697
86663W        W54881  30.019  38.976  13.302
86664W        W54882  12.099  27.710  13.486
86665W        W54883   5.964  22.926  13.505
86666W        W54884   5.377  28.478  12.462
86667W        W54885  41.006  18.819  14.293
86668W        W54886  22.065  28.139   1.675
86669W        W54887  32.093  37.776  10.416
86670W        W54888  12.099  15.766   4.059
86671W        W54889  41.530  32.474   2.142
86672W        W54890  16.432   3.376   4.061
86673W        W54891  34.072   7.061  10.754
86674W        W54892   7.294   2.825   2.379
86675W        W54893  19.602  29.464  11.558
86676W        W54894   7.427   3.873   1.697
86677W        W54895   2.926  22.728   3.933
86678W        W54896  37.037  25.659   1.436
86679W        W54897  36.316   5.928  13.383
86680W        W54898  22.264  19.460   1.769
86681W        W54899  44.367  44.759  13.173
86682W        W54900  35.971  37.621  13.381
86683W        W54901  24.923  18.680  12.138
86684W        W54902   1.277  29.659   3.247
86685W        W54903  16.060  12.969  13.756
86686W        W54904  10.886  14.505  13.836
86687W        W54905  13.846  17.751   1.646
86688W        W54906  13.230  24.009   2.513
86689W        W54907  36.973  27.704  10.398
86690W        W54908  10.701  12.590  11.517
86691W        W54909  29.535  30.393  14.358
86692W        W54910  29.686  44.782   3.718
86693W        W54911  24.165   4.156  11.932
86694W        W54912  12.415  41.361   3.355
86695W        W54913   3.986  43.824   0.337
86696W        W54914  35.856  18.779   0.019
86697W        W54915   8.004  13.242   4.252
86698W        W54916  21.267  32.143  11.056
86699W        W54917  12.576  25.776   3.685
86700W        W54918   0.453  26.097   2.929
86701W        W54919  29.923  28.700   4.137
86702W        W54920  10.235   5.406  10.866
86703W        W54921   6.266  27.541  10.214
86704W        W54922  18.402  44.611   9.769
86705W        W54923   5.759   7.894   0.963
86706W        W54924  32.927  43.512  10.770
86707W        W54925  14.550  38.248  12.977
86708W        W54926  31.878  26.679   3.187
86709W        W54927  38.099  13.064  14.525
86710W        W54928  12.593  41.905   0.442
86711W        W54929  38.069   5.190  13.382
86712W        W54930  10.406  12.271   1.261
86713W        W54931  16.684  19.346   0.950
86714W        W54932  12.274  24.095   3.849
86715W        W54933  44.263   8.381   4.169
86716W        W54934  25.600   3.207   2.910
86717W        W54935   6.385  30.926  14.875
86718W        W54936  10.568   3.799   3.795
86719W        W54937  18.304  12.175  12.533
86720W        W54938  19.237   9.165   3.536
86721W        W54939  27.458  26.891  11.223
86722W        W54940  36.916  36.608   0.383
86723W        W54941  43.073  43.974  11.177
86724W        W54942   2.500  44.843  13.484
86725W        W54943   9.156  39.334  12.661
86726W        W54944  26.142  28.594   4.081
86727W        W54945  38.500  19.222  11.180
86728W        W54946  22.647  42.975   2.902
86729W        W54947   7.202  28.144   2.340
86730W        W54948   9.479  22.582   0.347
86731W        W54949  30.539   1.625   4.584
86732W        W54950  40.670  27.902   1.253
86733W        W54951  14.425  36.109  11.008
86734W        W54952  11.113  28.590  12.034
86735W        W54953   2.557  39.492  13.980
86736W        W54954  20.205  10.671  11.605
86737W        W54955  28.434  16.320  11.988
86738W        W54956  21.575  31.811   4.190
86739W        W54957   0.013  12.149   1.806
86740W        W54958  28.146   1.167   2.376
86741W        W54959  32.126  26.622   3.655
86742W        W54960  27.118  13.561  13.895
86743W        W54961  17.290  11.620   2.281
86744W        W54962   4.241  10.273  13.528
86745W        W54963  35.666  23.253   3.632
86746W        W54964  26.730  26.143   3.584
86747W        W54965  44.988  42.392   4.137
86748W        W54966  23.729  17.200   2.107
86749W        W54967  22.745  27.165  13.637
86750W        W54968  35.979  23.395   0.294
86751W        W54969  15.804  12.427   0.405
86752W        W54970  41.952  21.601   2.893
86753W        W54971  39.399   9.397   4.793
86754W        W54972  14.633  12.103  14.060
86755W        W54973  38.557  12.913  11.144
86756W        W54974  44.131  26.890  11.642
86757W        W54975  42.195  38.348   0.413
86758W        W54976  13.521  19.629  12.471
86759W        W54977   4.855  19.364  13.244
86760W        W54978   5.911   2.765  14.969
86761W        W54979   9.488  20.604  11.634
86762W        W54980  36.491  27.490  10.568
86763W        W54981  30.924  28.912  12.326
86764W        W54982  42.553   2.278   3.663
86765W        W54983  22.604  36.166  12.579
86766W        W54984  18.362  17.673   4.414
86767W        W54985  37.577   7.168   0.417
86768W        W54986  32.394   9.785   2.727
86769W        W54987   0.324  24.004   1.794
86770W        W54988  17.548  24.724   1.712
86771W        W54989  16.958  28.333  10.701
86772W        W54990   9.718  18.976  11.172
86773W        W54991  17.821  11.161  12.567
86774W        W54992  10.899  33.041  13.569
86775W        W54993  38.238  14.637  10.314
86776W        W54994  39.781  17.749  12.483
86777W        W54995  24.907  37.555  12.146
86778W        W54996   5.745  22.606   3.100
86779W        W54997   1.533  39.646  12.453
86780W        W54998  13.882  33.880  13.060
86781W        W54999  22.737   0.438  10.991
86782W        W55000   9.428  29.259   1.511
86783W        W55001  10.273  39.822  11.579
86784W        W55002   4.312  34.010   3.807
86785W        W55003  26.023  15.682  14.972
86786W        W55004  15.774  32.873   2.863
86787W        W55005  15.225  31.178  10.471
86788W        W55006  19.958  13.700   0.415
86789W        W55007   5.397   1.730  12.499
86790W        W55008  39.436  19.604  13.043
86791W        W55009  15.828  23.689   3.679
86792W        W55010   2.872  15.225  13.325
86793W        W55011  37.536  21.472  12.634
86794W        W55012  43.106   5.416   0.509
86795W        W55013  34.503  18.071  12.202
86796W        W55014   3.013  28.233  14.309
86797W        W55015  23.068  13.816   0.290
86798W        W55016  39.365  29.263   2.897
86799W        W55017  11.867  40.333   3.331
86800W        W55018  24.507  33.758   1.173
86801W        W55019  32.922   4.854  14.809
86802W        W55020   4.712  19.086  12.328
86803W        W55021  32.901  35.221   3.225
86804W        W55022   2.322  42.237   2.660
86805W        W55023  15.447   5.294  12.045
86806W        W55024  12.890   2.514  12.552
86807W        W55025   8.658  15.756   2.382
86808W        W55026  10.850  27.440   4.621
86809W        W55027   9.661  39.983   1.767
86810W        W55028  17.608  15.186  14.892
86811W        W55029  35.792  37.980  12.982
86812W        W55030  24.606   6.645   3.809
86813W        W55031  40.929   0.310   1.456
86814W        W55032  35.028   8.411   3.393
86815W        W55033  38.395   7.821   3.793
86816W        W55034  40.350  15.994   1.400
86817W        W55035  36.586  22.520  12.275
86818W        W55036  41.366  43.786  12.944
86819W        W55037  28.266   6.248   4.072
86820W        W55038  10.605  21.992   3.805
86821W        W55039   5.071  40.510   3.331
86822W        W55040   9.635   2.382  14.957
86823W        W55041  26.852  39.785   5.115
86824W        W55042  35.790  17.013  12.537
86825W        W55043  41.340  20.798   2.121
86826W        W55044   3.837  44.148  10.744
86827W        W55045  41.580  13.749  13.035
86828W        W55046   1.697  16.113  12.436
86829W        W55047  10.838  37.891   2.322
86830W        W55048  29.428  32.380  14.283
86831W        W55049  32.105  33.342  11.573
86832W        W55050  42.935  37.098   2.503
86833W        W55051  10.274  41.831  10.774
86834W        W55052  29.594   5.186  13.810
86835W        W55053  32.649   0.888   4.418
86836W        W55054  34.320  10.811   2.713
86837W        W55055  38.987  22.542  12.943
86838W        W55056  25.573   1.862   1.727
86839W        W55057  28.064  17.718  13.941
86840W        W55058  20.453  35.999  11.152
86841W        W55059  31.926  31.013   1.227
86842W        W55060  13.826  20.739  14.840
86843W        W55061   1.291   2.527   3.607
86844W        W55062  38.560  32.823   0.805
86845W        W55063  29.914   7.238   0.947
86846W        W55064  38.301  35.542  11.230
86847W        W55065   3.776  14.604   1.928
86848W        W55066   6.258   2.555  13.762
86849W        W55067  34.901  24.236   4.560
86850W        W55068  24.573  11.840  14.829
86851W        W55069  21.669  39.730   2.343
86852W        W55070  32.851  43.392   2.326
86853W        W55071  25.796  14.179  12.589
86854W        W55072  23.472  41.082  13.906
86855W        W55073   6.540  36.966   0.462
86856W        W55074  39.219  17.782   2.787
86857W        W55075   2.193  10.840   1.942
86858W        W55076  41.577   2.773   3.759
86859W        W55077  24.840   3.685   4.113
86860W        W55078  21.658   9.638   4.795
86861W        W55079   1.878  43.955  11.028
86862W        W55080   9.640  34.412   0.696
86863W        W55081  18.046  23.616   4.175
86864W        W55082  26.485  40.826  14.942
86865W        W55083   9.364   4.428   2.210
86866W        W55084  33.036  35.877  12.053
86867W        W55085  14.232  36.395  12.315
86868W        W55086  31.924  15.800   4.504
86869W        W55087  35.041  22.691   0.856
86870W        W55088  33.413  27.089  10.830
86871W        W55089  22.715   0.449   0.463
86872W        W55090   2.311  40.072   3.124
86873W        W55091  28.062   1.491   2.787
86874W        W55092   5.222  21.709   2.336
86875W        W55093  35.382   7.747  11.620
86876W        W55094   9.322   6.569  11.950
86877W        W55095  21.912  19.296  12.775
86878W        W55096  12.217  27.453   3.270
86879W        W55097  28.647  28.528   0.851
86880W        W55098  19.657  12.902   2.858
86881W        W55099  33.471  12.168  12.160
86882W        W55100   9.327   3.307   4.623
86883W        W55101  30.106  17.000   4.769
86884W        W55102   5.983  16.820  11.171
86885W        W55103  33.840  27.579  10.350
86886W        W55104  43.883  37.442  12.673
86887W        W55105  37.323  11.924  13.450
86888W        W55106   5.279  35.115  11.571
86889W        W55107  42.298  20.057   0.234
86890W        W55108  33.961  30.463  12.482
86891W        W55109  37.064  36.696   1.334
86892W        W55110   2.887  37.469  11.675
86893W        W55111  19.309  12.417   4.462
86894W        W55112  14.383  30.198  14.944
86895W        W55113  30.656   7.727   0.953
86896W        W55114  14.878  18.058   2.321
86897W        W55115  35.143  30.614   2.745
86898W        W55116  31.823  20.396  14.274
86899W        W55117   9.235  39.636  14.391
86900W        W55118  26.582   2.872  13.971
86901W        W55119   6.528  18.932  11.910
86902W        W55120   2.143   8.250  13.688
86903W        W55121   6.207  19.734   4.646
86904W        W55122   1.090  35.705  12.515
86905W        W55123  33.153  25.930  10.546
86906W        W55124   4.356  15.605   1.461
86907W        W55125  30.585  24.937   0.290
86908W        W55126   2.733  37.346  12.676
86909W        W55127  41.717  36.853   0.341
86910W        W55128  32.227  12.251  14.296
86911W        W55129  31.252  20.524   1.182
86912W        W55130  23.629  34.791   2.332
86913W        W55131  10.676  18.055   0.757
86914W        W55132   1.913  21.779   4.524
86915W        W55133  30.681  28.128   3.142
86916W        W55134  44.726  15.819   0.765
86917W        W55135  14.222  27.511  12.316
86918W        W55136   0.793   2.404   3.634
86919W        W55137   2.727  29.961   0.537
86920W        W55138   8.992  12.657  13.366
86921W        W55139  12.805   4.362   3.551
86922W        W55140  28.610  28.225  13.259
86923W        W55141  17.182   1.489  10.700
86924W        W55142  11.383  32.696  11.464
86925W        W55143  36.762  29.524   4.106
86926W        W55144  10.179  16.101  12.926
86927W        W55145  36.578  16.245   2.885
86928W        W55146  28.038  35.442   0.212
86929W        W55147  12.697  41.482  13.862
86930W        W55148   8.669  15.554  13.970
86931W        W55149   2.921  28.908  11.867
86932W        W55150  35.121  30.078  10.960
86933W        W55151   9.087  17.632   2.745
86934W        W55152  28.605  27.092   0.420
86935W        W55153  21.746  25.948  14.576
86936W        W55154  32.900  24.266  14.896
86937W        W55155  40.560  20.934  14.278
86938W        W55156   5.360  31.238   2.285
86939W        W55157   8.286   1.528   3.023
86940W        W55158   1.759  11.291  11.477
86941W        W55159  16.044  13.973  13.115
86942W        W55160  36.944  11.365   4.708
86943W        W55161  44.053  24.464   1.906
86944W        W55162  28.620  24.288  12.517
86945W        W55163  35.363   9.210  14.886
86946W        W55164  39.146  22.542  11.671
86947W        W55165  18.224  43.852  13.500
86948W        W55166   2.383   1.812   5.113
86949W        W55167  43.097  12.173  12.978
86950W        W55168  43.018  15.211  13.912
86951W        W55169  26.968  24.415  13.125
86952W        W55170   2.587  15.119   3.779
86953W        W55171  16.395   6.929  13.975
86954W        W55172  17.799  44.823  13.709
86955W        W55173  33.783  44.158   4.946
86956W        W55174  42.040  23.526   0.216
86957W        W55175  37.306   9.918   0.078
86958W        W55176   5.239  35.059  11.012
86959W        W55177   0.341  30.334  12.438
86960W        W55178   2.327  32.183   1.942
86961W        W55179  13.254  11.300   1.988
86962W        W55180   7.171  27.279   2.364
86963W        W55181  22.658  38.886   4.543
86964W        W55182  34.107  13.256   4.518
86965W        W55183   0.894  39.435   3.837
86966W        W55184   1.922  11.080  14.231
86967W        W55185  36.593  33.426   0.139
86968W        W55186  18.911  13.405   9.953
86969W        W55187  44.629  22.974   1.500
86970W        W55188   0.377   0.416  11.888
86971W        W55189  41.300   4.725  11.723
86972W        W55190   9.332  31.284  14.776
86973W        W55191  25.179  38.556   0.477
86974W        W55192  40.473   2.047  10.423
86975W        W55193  33.595  31.082   5.049
86976W        W55194   2.223  34.388   2.152
86977W        W55195  32.876   8.423  12.074
86978W        W55196  39.623  28.606   0.678
86979W        W55197  40.033  30.208   3.354
86980W        W55198   0.403  11.672   4.171
86981W        W55199  23.258  17.285  14.936
86982W        W55200  10.360  34.097  12.112
86983W        W55201  15.716  11.856   4.628
86984W        W55202  19.296  24.451   3.713
86985W        W55203  42.330  11.638  11.080
86986W        W55204   4.876  19.494  13.739
86987W        W55205  25.184  41.199   1.857
86988W        W55206  21.486  28.615  10.680
86989W        W55207  10.230  27.692  10.769
86990W        W55208  44.722  24.638   0.553
86991W        W55209  29.591  27.228  13.531
86992W        W55210  35.516  21.707   0.859
86993W        W55211  33.037  13.078  10.942
86994W        W55212  37.454  13.245  10.726
86995W        W55213   1.865  29.951   1.777
86996W        W55214   3.825  22.477  12.955
86997W        W55215  21.847  37.387   3.337
86998W        W55216   0.861   4.391   4.725
86999W        W55217  18.085  38.384  14.976
87000W        W55218   9.664  19.594  12.588
87001W        W55219  32.265   0.468   1.686
87002W        W55220   7.227  42.224  13.812
87003W        W55221   5.168  35.951   3.128
87004W        W55222  26.076   2.974   3.704
87005W        W55223  38.814  38.861   0.352
87006W        W55224   4.327   4.036   2.217
87007W        W55225  23.544  18.183   2.721
87008W        W55226  33.100   9.337  13.009
87009W        W55227  10.130   4.855   0.427
87010W        W55228  14.336   3.963  11.110
87011W        W55229  21.963  23.762  13.083
87012W        W55230  33.073  42.361   2.230
87013W        W55231   1.521  26.833  12.567
87014W        W55232  18.159  43.686  12.464
87015W        W55233  34.385   4.716  13.958
87016W        W55234   3.131  41.029  12.962
87017W        W55235  28.101  32.546  14.802
87018W        W55236  23.939   4.924   3.203
87019W        W55237  31.000  13.915  12.422
87020W        W55238  26.088   7.880  12.624
87021W        W55239  11.747  41.376  10.911
87022W        W55240   1.328  16.327  13.386
87023W        W55241  28.425   4.958  13.093
87024W        W55242   2.347  43.384  10.792
87025W        W55243  38.376  38.270   2.841
87026W        W55244   0.350  14.082   3.153
87027W        W55245  20.739   9.386  14.926
87028W        W55246  39.840  31.970  12.593
87029W        W55247  21.458  12.862   3.614
87030W        W55248   2.819  24.137  14.408
87031W        W55249  14.349   1.250   0.518
87032W        W55250   4.735   7.735   3.881
87033W        W55251   2.019  10.633   4.196
87034W        W55252  17.631  38.134  14.334
87035W        W55253  19.586   7.347   3.254
87036W        W55254  36.877  17.842   2.242
87037W        W55255  25.600  27.886  12.424
87038W        W55256  14.327  16.823   0.459
87039W        W55257  25.916   3.226  14.385
87040W        W55258  26.480   4.926   0.900
87041W        W55259  14.584   3.835  13.715
87042W        W55260   1.627   5.882  12.841
87043W        W55261   6.922  34.911   0.159
87044W        W55262  20.551  24.610   1.330
87045W        W55263  15.888  13.743   0.240
87046W        W55264  15.594  44.831   3.652
87047W        W55265  44.684  41.344   2.342
87048W        W55266  44.327   4.211   2.733
87049W        W55267  20.537  29.571   4.168
87050W        W55268  43.987  42.951  10.991
87051W        W55269  27.117  34.003  13.003
87052W        W55270  26.709  25.235  10.693
87053W        W55271   0.359  36.946  10.728
87054W        W55272  43.254  20.625  10.590
87055W        W55273  33.779  25.499   3.672
87056W        W55274  37.491  30.489   3.660
87057W        W55275   6.774  24.255   0.877
87058W        W55276   6.654  18.330   0.770
87059W        W55277   6.193  42.895  14.022
87060W        W55278  11.036  32.341   2.853
87061W        W55279  11.208   1.407  12.596
87062W        W55280   3.239  26.622   4.295
87063W        W55281  12.289  30.491   4.231
87064W        W55282  16.339  16.002  14.861
87065W        W55283  13.558   8.200   3.948
87066W        W55284  41.653   3.959   5.026
87067W        W55285  36.859  17.318  10.746
87068W        W55286  24.853  17.366   2.892
87069W        W55287  13.623  38.958  10.317
87070W        W55288   8.851  14.807   5.378
87071W        W55289  25.396  17.280   2.823
87072W        W55290  41.102   7.282   3.709
87073W        W55291   5.787  20.071  11.888
87074W        W55292  13.904  18.195  13.961
87075W        W55293  21.572  33.387  14.266
87076W        W55294  26.663  32.756  11.965
87077W        W55295  23.218  17.138   4.654
87078W        W55296  30.544  25.070   1.844
87079W        W55297  33.602   0.215  14.904
87080W        W55298   7.418  15.116  12.730
87081W        W55299  12.540  17.041   3.217
87082W        W55300  10.213   4.493  10.670
87083W        W55301   5.383  40.911   0.439
87084W        W55302  21.448  36.045   4.998
87085W        W55303   3.756  32.327  12.570
87086W        W55304   1.453  36.016  12.329
87087W        W55305  15.568  27.538  14.425
87088W        W55306  27.062  22.264   0.223
87089W        W55307   0.312  10.601   4.559
87090W        W55308   7.902  20.984  10.654
87091W        W55309  27.510  16.777  13.885
87092W        W55310   2.924  10.304  10.375
87093W        W55311  11.558   7.373   0.854
87094W        W55312  22.081  17.054  13.016
87095W        W55313   2.502  36.059   3.546
87096W        W55314  24.903  15.266   0.297
87097W        W55315  10.789  13.081  12.486
87098W        W55316  26.255   9.878   2.582
87099W        W55317  31.189   6.402  12.403
87100W        W55318  15.706  43.877   2.808
87101W        W55319  13.131  19.031  11.335
87102W        W55320  19.015  32.532  12.415
87103W        W55321  17.334  35.144   0.490
87104W        W55322  33.207  43.594   2.812
87105W        W55323  22.621  16.380   4.152
87106W        W55324  29.072  35.120   3.427
87107W        W55325  12.138  28.407   0.264
87108W        W55326  15.545  22.724  14.476
87109W        W55327  12.627  17.285   2.771
87110W        W55328  13.833  18.288  14.901
87111W        W55329  44.212  41.007   3.307
87112W        W55330  11.836  29.820   3.895
87113W        W55331  19.793  32.923  14.961
87114W        W55332  40.210  32.491  10.507
87115W        W55333  32.526  21.235  12.928
87116W        W55334  26.123  12.646   3.686
87117W        W55335  44.947   2.052  11.644
87118W        W55336  38.961   0.489  10.803
87119W        W55337   5.723   6.133   1.186
87120W        W55338  19.237   0.062  11.574
87121W        W55339  11.794  12.169   5.054
87122W        W55340  43.970   5.696   4.771
87123W        W55341   7.369  11.400   1.516
87124W        W55342   8.329  14.013   3.801
87125W        W55343   1.834  20.529  13.277
87126W        W55344  35.747   4.967   5.106
87127W        W55345  34.572  21.315   3.625
87128W        W55346  18.644  30.403  11.668
87129W        W55347  37.761   7.902  14.903
87130W        W55348  20.670   1.976   4.837
87131W        W55349  28.003  25.667  11.783
87132W        W55350  22.725  44.243  10.786
87133W        W55351  25.407   6.384   3.943
87134W        W55352  28.896  14.422   3.754
87135W        W55353   5.416  24.689   3.441
87136W        W55354  10.711   9.683   2.398
87137W        W55355  29.612  37.710   0.638
87138W        W55356   1.311  21.280   2.325
87139W        W55357   5.046  20.186   0.361
87140W        W55358   8.788  14.316   1.175
87141W        W55359  21.635  31.580  13.403
87142W        W55360  42.291  15.120  11.672
87143W        W55361   6.652  41.039   1.767
87144W        W55362  17.220  37.001   4.915
87145W        W55363  22.021  22.254  12.679
87146W        W55364  27.637  37.106  12.136
87147W        W55365  26.920  42.561   3.012
87148W        W55366  33.420  15.713   1.880
87149W        W55367  40.490  20.440   1.104
87150W        W55368  43.259  21.052   4.916
87151W        W55369  36.676  11.186  11.984
87152W        W55370   2.820   2.984   2.004
87153W        W55371   2.349  25.382   1.272
87154W        W55372  29.381  30.563  13.882
87155W        W55373  43.930  23.737   3.716
87156W        W55374  32.538   7.288  10.732
87157W        W55375  29.422  29.581  14.908
87158W        W55376  42.804  22.450   2.648
87159W        W55377  13.194  43.528  11.861
87160W        W55378  18.633  15.533   0.393
87161W        W55379  33.393  26.476  14.850
87162W        W55380  30.699   6.737   1.349
87163W        W55381   8.887  34.026  11.384
87164W        W55382   2.006  35.737   4.246
87165W        W55383  16.031  29.435  11.865
87166W        W55384  42.956  40.251   2.218
87167W        W55385  28.940  32.472  14.402
87168W        W55386  41.071   3.290   9.826
87169W        W55387   4.463  21.547  12.487
87170W        W55388   5.979  17.129  10.560
87171W        W55389  38.684  10.396  11.282
87172W        W55390  13.596   0.693   4.453
87173W        W55391  38.227   6.486  11.057
87174W        W55392  13.824  39.510   2.009
87175W        W55393  37.643  26.489  11.586
87176W        W55394  28.935  34.430   0.677
87177W        W55395  11.746  26.097   4.295
87178W        W55396  26.949  21.514   1.204
87179W        W55397   0.066  44.804   4.169
87180W        W55398  25.169  24.837   4.820
87181W        W55399   8.372  42.409  14.409
87182W        W55400  43.808  21.471   0.412
87183W        W55401  34.067   8.823  13.418
87184W        W55402  36.449  15.537   3.248
87185W        W55403  15.803  36.047  14.589
87186W        W55404  26.017  36.267   0.765
87187W        W55405  38.536  35.963  14.136
87188W        W55406  35.693   9.442   4.553
87189W        W55407  16.761  41.706  11.377
87190W        W55408  19.182  26.984  12.987
87191W        W55409  41.664  21.733   2.234
87192W        W55410  29.347   7.247  12.008
87193W        W55411  22.870  35.992  12.992
87194W        W55412  24.734  17.544  13.607
87195W        W55413  22.531  26.543   4.173
87196W        W55414  24.800   4.302   1.253
87197W        W55415  21.787   0.884   0.381
87198W        W55416   0.377   4.338  14.662
87199W        W55417  38.455  36.434  11.199
87200W        W55418  34.294  26.201   4.099
87201W        W55419  13.442  19.210   5.014
87202W        W55420  24.445  31.567   3.647
87203W        W55421   8.184  39.600   1.316
87204W        W55422  42.581  29.846  14.320
87205W        W55423  26.647   7.321   3.182
87206W        W55424  24.045  30.672  11.677
87207W        W55425  21.154  40.233   2.994
87208W        W55426  41.016  29.075  12.049
87209W        W55427  15.829  22.624  14.058
87210W        W55428  25.917  16.901  12.817
87211W        W55429  37.611  42.449  13.294
87212W        W55430  18.133  30.240   3.782
87213W        W55431  28.455  33.947  10.668
87214W        W55432  43.303   8.842   0.462
87215W        W55433  24.910  34.671  14.869
87216W        W55434  43.776  38.294   0.207
87217W        W55435   9.662  26.340  13.607
87218W        W55436   2.777  18.686   4.847
87219W        W55437  15.728  25.370   4.553
87220W        W55438  35.438   4.605  12.973
87221W        W55439  31.977   0.442   3.136
87222W        W55440  13.820   8.315   1.793
87223W        W55441  21.824  37.445  14.489
87224W        W55442  44.362  23.463   3.654
87225W        W55443  35.543  37.000   3.638
87226W        W55444  30.480   0.447  12.092
87227W        W55445  37.350  30.465  13.840
87228W        W55446  14.024  15.489  14.386
87229W        W55447  12.212  42.516  12.131
87230W        W55448  32.475  28.726   4.992
87231W        W55449  34.737  20.912  13.854
87232W        W55450  12.178  21.462   1.657
87233W        W55451  40.990  41.041   1.824
87234W        W55452  34.062   2.939   3.779
87235W        W55453  23.077  19.489   4.735
87236W        W55454   2.414   8.426  10.453
87237W        W55455  24.014  41.616   5.135
87238W        W55456  39.960   6.230   1.759
87239W        W55457   5.373  10.910  12.912
87240W        W55458  15.717   2.323  12.367
87241W        W55459  39.997  15.640   0.220
87242W        W55460   2.984  27.887   4.310
87243W        W55461  31.098  37.535   0.662
87244W        W55462   9.044  14.192  13.826
87245W        W55463  34.029  15.459   3.303
87246W        W55464  38.179  36.718  14.794
87247W        W55465  44.278  12.635  10.638
87248W        W55466  42.264   1.245   3.979
87249W        W55467  36.307  17.635  11.643
87250W        W55468   6.953  23.654   2.682
87251W        W55469   7.873  21.801  14.334
87252W        W55470  40.793  14.546  12.055
87253W        W55471  24.157   3.003   1.749
87254W        W55472   4.337  41.972   0.259
87255W        W55473  10.945  43.283  13.365
87256W        W55474  34.782  18.619   0.210
87257W        W55475  40.958  10.531   2.675
87258W        W55476   8.294  24.379  12.329
87259W        W55477  26.471  28.032  14.970
87260W        W55478  11.201  44.864  11.374
87261W        W55479  10.951  29.398   2.502
87262W        W55480  21.551  43.522   1.420
87263W        W55481  38.678  40.886  13.726
87264W        W55482  18.505  24.283   2.385
87265W        W55483  10.042  32.990   2.749
87266W        W55484  37.380  37.963   2.870
87267W        W55485   1.734   4.877  11.310
87268W        W55486  42.397  31.704   0.704
87269W        W55487  24.482   5.681  13.852
87270W        W55488  20.524  19.405  14.371
87271W        W55489   3.955  25.822  13.545
87272W        W55490  25.936   0.304  14.783
87273W        W55491  17.528   0.603   9.854
87274W        W55492   9.091   4.106  14.368
87275W        W55493  35.320  38.801  10.595
87276W        W55494   9.782  18.554   1.204
87277W        W55495   4.049  15.265  14.363
87278W        W55496  43.837   2.384  13.442
87279W        W55497  19.096  18.172   0.783
87280W        W55498  20.252  44.910  11.615
87281W        W55499  27.868   3.663  11.116
87282W        W55500  23.159  22.656   4.072
87283W        W55501  20.267   6.904  11.510
87284W        W55502  28.034  15.726   2.143
87285W        W55503  17.538  26.974   1.736
87286W        W55504  24.515  11.136  12.025
87287W        W55505  13.549   1.666  13.090
87288W        W55506  43.813  43.692  13.532
87289W        W55507   0.633  39.814  13.497
87290W        W55508   3.409   8.654  14.847
87291W        W55509  29.568  36.936   3.260
87292W        W55510  39.372  15.326  11.946
87293W        W55511  17.198  13.981   3.604
87294W        W55512  12.682  23.280  11.973
87295W        W55513  14.643  44.332   4.040
87296W        W55514  18.276  25.091   9.757
87297W        W55515  29.119  40.477   1.495
87298W        W55516  23.667   0.946   4.262
87299W        W55517  42.013  22.072   3.698
87300W        W55518   6.962  17.012   1.376
87301W        W55519  40.401  11.314   3.193
87302W        W55520  29.609  27.420  13.036
87303W        W55521   9.922  11.438   4.910
87304W        W55522  23.082  37.569  11.643
87305W        W55523  10.386  27.749  13.962
87306W        W55524  20.078  39.894  11.495
87307W        W55525   2.965  33.289  12.555
87308W        W55526  43.267  18.799   3.616
87309W        W55527   2.919  44.478  14.846
87310W        W55528   9.952  20.843  11.638
87311W        W55529   6.679  34.120  11.550
87312W        W55530   6.984   0.853   1.247
87313W        W55531  16.251  44.376   1.901
87314W        W55532  33.859  10.611  11.418
87315W        W55533  32.451   6.551   2.402
87316W        W55534  24.174   6.195   2.662
87317W        W55535  13.227  13.236   1.750
87318W        W55536  24.028  25.497  14.398
87319W        W55537  16.766  35.942   0.231
87320W        W55538  41.559   8.654   3.720
87321W        W55539  14.678  32.965   0.796
87322W        W55540   0.917   7.073   3.291
87323W        W55541  37.188  28.901   4.515
87324W        W55542  10.910  41.013   0.503
87325W        W55543  26.298  42.871   2.474
87326W        W55544   3.819  31.674   1.403
87327W        W55545  35.926   7.911  13.427
87328W        W55546   0.812  22.670   4.670
87329W        W55547  37.403  32.340   1.824
87330W        W55548  13.346   3.858  12.458
87331W        W55549  23.063  20.954  12.859
87332W        W55550   2.858   1.220  13.621
87333W        W55551  37.648  24.566  14.537
87334W        W55552  19.538   9.301  14.489
87335W        W55553  18.354   4.159  13.123
87336W        W55554  20.296  20.811   2.303
87337W        W55555  41.246  23.490  13.872
87338W        W55556   0.830   0.719  12.431
87339W        W55557  18.065   1.154   0.939
87340W        W55558  10.634   6.408   1.883
87341W        W55559  15.100  37.284   3.720
87342W        W55560   5.691  23.092   2.878
87343W        W55561  31.883   3.401  13.472
87344W        W55562  39.069   3.659   3.961
87345W        W55563  25.944   0.636  12.545
87346W        W55564   2.701  34.421   4.733
87347W        W55565   7.922  21.632   0.354
87348W        W55566  28.998  24.279   2.446
87349W        W55567  10.144  19.248  11.085
87350W        W55568  39.887  26.750  13.994
87351W        W55569  32.925   9.112   0.950
87352W        W55570  41.911  19.706  12.081
87353W        W55571  35.649  11.280  13.850
87354W        W55572  32.710  19.091   1.414
87355W        W55573  21.042  28.550   4.436
87356W        W55574  24.744   1.842  10.744
87357W        W55575  28.556  22.597   2.770
87358W        W55576   3.195   4.534  12.490
87359W        W55577   4.449  17.660  11.969
87360W        W55578  21.090   3.761  12.055
87361W        W55579   2.423  23.566   2.894
87362W        W55580  15.351  36.139  12.377
87363W        W55581  39.088  40.335  14.359
87364W        W55582   0.534   9.641   4.258
87365W        W55583  36.133  35.544   4.046
87366W        W55584  32.337   6.655   3.962
87367W        W55585  10.322  44.567   5.005
87368W        W55586   3.945   0.161   4.126
87369W        W55587  18.539  37.602  12.440
87370W        W55588  22.181  32.699   1.809
87371W        W55589   5.189  23.858   4.186
87372W        W55590  18.748   4.474  11.092
87373W        W55591   2.794  29.410   2.378
87374W        W55592  19.152   2.803   0.947
87375W        W55593  41.834  20.716   4.368
87376W        W55594  34.519   8.811  13.118
87377W        W55595   4.279  21.454   4.512
87378W        W55596  40.394  31.625   1.334
87379W        W55597  33.052  14.485  10.764
87380W        W55598  39.004  17.115   3.248
87381W        W55599  15.962  31.268  11.116
87382W        W55600  29.642  17.570   4.056
87383W        W55601  28.882   8.653  13.862
87384W        W55602  44.021  35.196  14.371
87385W        W55603   8.613  21.197   3.339
87386W        W55604  26.539  35.547   4.326
87387W        W55605  37.563   1.689   4.097
87388W        W55606  26.331  36.512  12.975
87389W        W55607   9.725  43.556  12.898
87390W        W55608  43.430  31.182  11.262
87391W        W55609  18.132  22.135   0.422
87392W        W55610   8.779  37.398  12.554
87393W        W55611  36.513  33.923  11.452
87394W        W55612  26.424   9.376  11.001
87395W        W55613  38.262  27.967   1.676
87396W        W55614  15.516  17.725   0.387
87397W        W55615  27.955  42.838   0.921
87398W        W55616  43.975  20.748   2.331
87399W        W55617   2.114  14.354  11.980
87400W        W55618  26.693  43.047   1.210
87401W        W55619  43.250  40.089   0.213
87402W        W55620  39.048  39.616  11.427
87403W        W55621   3.346  30.019   1.833
87404W        W55622  24.457  23.989   3.672
87405W        W55623  19.589   8.373   4.054
87406W        W55624  35.424   0.391   1.747
87407W        W55625  11.886  34.124   3.216
87408W        W55626  10.107  42.016  13.457
87409W        W55627  22.089  10.774  10.738
87410W        W55628  12.366   8.102   2.716
87411W        W55629  31.796  28.538  13.523
87412W        W55630  35.595  23.183  13.767
87413W        W55631   1.498   9.455  13.898
87414W        W55632   7.628  10.717  12.047
87415W        W55633  38.416  13.414  11.224
87416W        W55634  12.856   7.100  14.833
87417W        W55635  23.025  10.796   3.204
87418W        W55636  33.367  24.044  10.575
87419W        W55637  13.605  34.131  11.541
87420W        W55638  26.093  20.474   2.715
87421W        W55639  31.023   4.859  13.745
87422W        W55640  41.565  34.436   3.225
87423W        W55641  20.690   9.621  11.926
87424W        W55642  28.210  42.780   0.460
87425W        W55643  32.574  31.207  13.807
87426W        W55644  28.968  33.369  12.615
87427W        W55645   5.313  14.880   1.635
87428W        W55646  18.050  19.699   4.617
87429W        W55647  38.409   6.958  10.871
87430W        W55648  27.629  44.486   1.194
87431W        W55649  32.331   3.236  11.352
87432W        W55650  37.189  43.363   1.263
87433W        W55651  38.546  21.286  13.532
87434W        W55652  22.967   2.944   0.598
87435W        W55653  43.512  11.210  14.009
87436W        W55654   3.553  12.318   4.108
87437W        W55655  17.938  20.828   0.426
87438W        W55656  20.184  28.201  12.960
87439W        W55657  14.294  26.617  14.901
87440W        W55658  40.333  41.068  12.923
87441W        W55659   6.530  29.459  12.099
87442W        W55660  44.260  40.536   0.956
87443W        W55661   0.467   7.861   2.378
87444W        W55662  19.541   8.448   0.854
87445W        W55663  11.359  43.941   4.187
87446W        W55664  28.911   2.039   1.399
87447W        W55665   7.581  41.408   0.487
87448W        W55666  17.216  13.102  14.273
87449W        W55667  26.018   2.570  14.734
87450W        W55668  30.663  34.513  14.044
87451W        W55669  42.753   4.778   4.167
87452W        W55670  42.530  39.419   3.610
87453W        W55671  16.953   4.727   3.264
87454W        W55672  16.043  22.661   0.853
87455W        W55673  29.320  38.823  13.012
87456W        W55674  17.803   3.349   4.576
87457W        W55675  32.015  17.765  10.727
87458W        W55676  30.600  42.184  12.027
87459W        W55677  33.570  10.181   4.180
87460W        W55678  30.399  42.980  13.486
87461W        W55679  34.886  43.745   1.887
87462W        W55680  16.125  13.678  12.072
87463W        W55681   4.447  38.859  11.051
87464W        W55682  30.567  20.284   1.393
87465W        W55683  40.616  24.750   0.863
87466W        W55684  33.963  14.929   4.085
87467W        W55685  18.811   2.353   2.826
87468W        W55686  16.408   7.034  11.634
87469W        W55687  21.324  23.834  13.597
87470W        W55688  19.131   6.643  13.242
87471W        W55689  27.888  33.001  14.930
87472W        W55690  20.113  33.171   0.309
87473W        W55691   9.345  15.619  10.981
87474W        W55692   5.791  15.799   4.353
87475W        W55693  32.624  34.540  12.033
87476W        W55694   6.383  18.299   4.054
87477W        W55695   1.341  18.608  14.975
87478W        W55696   4.906   9.899  11.068
87479W        W55697  24.314   4.811  13.031
87480W        W55698  13.299  23.836   4.927
87481W        W55699  35.130  19.636  13.355
87482W        W55700  25.357  24.332  12.453
87483W        W55701  39.450  32.971   0.814
87484W        W55702   2.920  20.974   3.775
87485W        W55703  32.827   0.501  13.355
87486W        W55704  24.051  43.522  13.447
87487W        W55705  27.088  39.528   0.322
87488W        W55706  21.185  24.672  13.237
87489W        W55707  32.400  26.500  14.938
87490W        W55708  41.999  19.612   3.169
87491W        W55709  43.985  15.287  11.591
87492W        W55710   5.321  13.806   1.926
87493W        W55711  24.420  42.619   2.250
87494W        W55712   2.022  38.872   0.408
87495W        W55713  21.187  21.980  13.412
87496W        W55714  30.513   9.126   4.705
87497W        W55715   0.703   9.939   2.898
87498W        W55716  40.375  11.291  12.370
87499W        W55717  24.190  26.965   3.742
87500W        W55718  23.750  23.117   0.951
87501W        W55719  13.120  17.443   2.789
87502W        W55720   8.381  44.351  11.355
87503W        W55721   3.636  15.051   0.340
87504W        W55722  25.786   0.942  12.093
87505W        W55723   9.095  43.751  12.403
87506W        W55724   4.971  13.109  14.503
87507W        W55725   1.908   0.775  11.917
87508W        W55726  37.890  34.902   2.628
87509W        W55727  27.441  35.436   2.625
87510W        W55728  39.670  12.830  14.230
87511W        W55729  33.948  10.201   3.684
87512W        W55730   1.292   4.969  11.575
87513W        W55731  39.448  39.974  11.409
87514W        W55732  38.922  16.167   0.326
87515W        W55733   4.485   2.764  11.897
87516W        W55734  34.158  10.047   2.223
87517W        W55735  38.374  41.540  13.476
87518W        W55736  13.497  37.244   0.548
87519W        W55737   3.157  20.643   4.113
87520W        W55738  40.070   2.457   2.628
87521W        W55739  25.112  22.513  11.140
87522W        W55740  42.065  14.138  10.408
87523W        W55741  16.229   2.423   4.070
87524W        W55742   9.872  20.346   3.215
87525W        W55743  35.510   3.449   5.398
87526W        W55744  27.485  35.779  12.655
87527W        W55745  28.556   3.468  12.843
87528W        W55746   0.313  24.847   4.018
87529W        W55747  20.376  16.999   0.929
87530W        W55748   6.736  27.693  14.604
87531W        W55749  16.352  35.361   2.423
87532W        W55750  36.407  12.926  13.378
87533W        W55751  16.309  34.029   2.703
87534W        W55752  44.779  20.617   1.906
87535W        W55753  18.510  24.137  11.953
87536W        W55754   0.403  13.359   0.598
87537W        W55755  43.840  35.877  14.925
87538W        W55756  37.440  21.245   3.148
87539W        W55757   7.524  42.279   9.890
87540W        W55758   6.925  21.174   2.693
87541W        W55759   7.318   8.966   0.273
87542W        W55760  21.708  36.682  14.659
87543W        W55761  14.285   2.871  12.013
87544W        W55762   1.993  12.220   1.537
87545W        W55763   7.749   0.997   0.791
87546W        W55764  34.625  30.519   3.218
87547W        W55765  22.059   9.657   3.682
87548W        W55766   4.838   9.115   2.136
87549W        W55767  20.984  14.686   4.638
87550W        W55768  44.252  44.766   0.025
87551W        W55769  41.830  24.495  14.773
87552W        W55770  17.591  13.921   2.354
87553W        W55771  14.699  35.656   1.774
87554W        W55772  39.070  16.573  12.394
87555W        W55773  37.499   6.414   4.523
87556W        W55774  43.384  42.724   3.765
87557W        W55775   5.257  29.990   3.717
87558W        W55776  22.249   6.363   0.280
87559W        W55777  41.585  36.456   1.271
87560W        W55778  26.062  32.076  11.025
87561W        W55779   9.588   0.394  13.134
87562W        W55780  11.585  10.291  10.925
87563W        W55781  42.906  42.951  12.061
87564W        W55782  20.247  33.395   0.761
87565W        W55783  37.867  17.153   2.691
87566W        W55784   8.679  43.734  13.043
87567W        W55785   6.096  33.015   4.120
87568W        W55786  26.670  23.981   2.298
87569W        W55787  42.212  25.226   0.956
87570W        W55788   2.816  31.631  14.881
87571W        W55789  26.039  34.631   1.832
87572W        W55790  39.275  14.239  12.850
87573W        W55791  32.054  22.294   2.259
87574W        W55792  19.704  10.848  11.402
87575W        W55793  30.663  30.652   4.884
87576W        W55794  14.881  16.643   3.240
87577W        W55795  29.314  21.733  11.939
87578W        W55796   9.566  40.712  11.139
87579W        W55797  38.747  20.477  12.610
87580W        W55798   4.414  35.602   2.837
87581W        W55799  19.490  43.487   0.874
87582W        W55800  36.460  21.976   4.700
87583W        W55801  26.700  21.643  13.333
87584W        W55802   7.248  28.524  11.187
87585W        W55803  17.178  38.137  13.995
87586W        W55804  43.926  19.658   2.846
87587W        W55805   5.617  30.005   2.396
87588W        W55806  25.548  30.834   2.755
87589W        W55807  39.868  36.072   0.208
87590W        W55808  35.798  11.818  10.709
87591W        W55809  38.245  25.731  13.497
87592W        W55810  32.514   3.642  12.855
87593W        W55811  35.078   0.266   3.512
87594W        W55812   4.787  25.538   2.758
87595W        W55813   6.783  22.432  10.838
87596W        W55814   1.910  11.535  14.529
87597W        W55815  40.732  22.207   3.387
87598W        W55816  28.657   3.487   3.506
87599W        W55817   7.359   6.689  13.803
87600W        W55818  20.829  35.476  12.573
87601W        W55819   4.361  21.862   0.145
87602W        W55820  24.666   1.896   4.742
87603W        W55821  31.231  34.015  10.748
87604W        W55822  32.377   6.674  10.296
87605W        W55823  26.494   0.835   1.335
87606W        W55824   5.947  41.010  14.536
87607W        W55825   8.849  39.921  10.157
87608W        W55826  14.679  43.543  14.019
87609W        W55827  32.878  25.714  13.882
87610W        W55828   7.329  13.690   0.753
87611W        W55829  15.049  17.936   4.496
87612W        W55830  20.618   2.506  14.698
87613W        W55831  38.544  17.351   3.367
87614W        W55832   4.644  12.627  12.558
87615W        W55833  13.837  15.038  14.511
87616W        W55834  20.707  11.162  12.149
87617W        W55835   6.748   4.164   0.424
87618W        W55836  25.042   2.294   4.550
87619W        W55837  39.101  34.834  12.604
87620W        W55838  30.035   0.781  13.936
87621W        W55839  37.568  37.422  11.394
87622W        W55840  12.198  27.941   4.809
87623W        W55841  42.743  21.484   1.643
87624W        W55842   2.977  11.337  14.634
87625W        W55843  37.529  44.377   3.811
87626W        W55844  33.456   2.769  14.252
87627W        W55845  43.823  21.152  12.052
87628W        W55846  15.996  32.863  13.042
87629W        W55847  11.359   5.729  11.642
87630W        W55848  41.543  28.536  13.961
87631W        W55849  18.030  12.255  10.734
87632W        W55850   3.885   9.330   1.915
87633W        W55851  25.577  26.891  11.241
87634W        W55852   6.133  11.983   1.320
87635W        W55853  44.701  34.176   0.413
87636W        W55854  43.973   0.784   3.295
87637W        W55855  29.774  35.947  10.375
87638W        W55856  36.912   2.855   2.376
87639W        W55857  44.245   2.172  14.872
87640W        W55858   9.192  38.387   4.606
87641W        W55859  32.920  20.892  10.650
87642W        W55860  44.284  27.826   1.832
87643W        W55861  19.784   7.403  12.049
87644W        W55862  13.785   7.917  11.892
87645W        W55863  23.645  33.842   5.016
87646W        W55864  43.476  15.208  13.576
87647W        W55865   9.499   6.674   1.297
87648W        W55866  37.628  21.005   0.916
87649W        W55867   8.666  28.615   1.297
87650W        W55868   9.394  14.044  14.353
87651W        W55869  41.725  11.278  13.344
87652W        W55870  17.271  11.226   0.808
87653W        W55871  30.443  42.296   3.577
87654W        W55872  24.540  44.209  10.683
87655W        W55873  31.951   4.804   1.485
87656W        W55874  21.778  28.625  14.337
87657W        W55875  26.653  24.625   3.370
87658W        W55876  39.984  41.617   4.496
87659W        W55877  11.212   4.740   3.569
87660W        W55878  18.244   0.244  11.763
87661W        W55879  20.940  17.054  12.624
87662W        W55880  33.593   9.142  12.998
87663W        W55881  22.020  19.161   3.725
87664W        W55882  42.259   2.893   1.557
87665W        W55883  30.789   3.190  12.547
87666W        W55884  41.098  24.130   5.306
87667W        W55885  21.254  40.847  10.675
87668W        W55886  21.691  39.829  13.490
87669W        W55887  15.609   8.438   4.093
87670W        W55888  20.095  34.638   3.264
87671W        W55889  14.739  29.388  14.696
87672W        W55890   3.097  39.881   0.460
87673W        W55891  43.398   8.310   4.610
87674W        W55892  42.912  14.594  11.988
87675W        W55893  10.861  17.706  13.031
87676W        W55894  32.695  44.266   3.631
87677W        W55895  27.527  20.293   0.960
87678W        W55896  18.541  41.325  11.631
87679W        W55897   5.690   0.917  13.563
87680W        W55898  15.285  14.398   3.249
87681W        W55899  31.450  22.253   2.757
87682W        W55900  36.801   7.968   3.675
87683W        W55901   6.162  13.599  10.695
87684W        W55902  16.660   9.615  13.001
87685W        W55903   7.421  40.502  11.398
87686W        W55904  28.090   9.140  13.978
87687W        W55905   2.721  10.931  12.363
87688W        W55906   1.678  25.639   0.876
87689W        W55907  11.874  24.092   2.920
87690W        W55908  38.097  20.612  11.771
87691W        W55909  34.359   9.281  13.417
87692W        W55910   6.429  33.218   1.457
87693W        W55911  26.345  37.991   1.640
87694W        W55912  40.912  21.953  10.802
87695W        W55913   6.905   5.176   1.221
87696W        W55914   6.892   2.016  13.759
87697W        W55915   2.900  33.776  12.641
87698W        W55916  11.901   4.920  13.227
87699W        W55917  22.525  27.451   0.148
87700W        W55918  12.770  13.698   3.537
87701W        W55919  41.585   1.355  14.332
87702W        W55920  31.644  24.993   3.293
87703W        W55921   1.919  24.535   1.314
87704W        W55922  36.851   3.131  12.770
87705W        W55923  24.667  29.369  13.797
87706W        W55924   3.522  15.091   1.759
87707W        W55925  36.422  42.746  14.291
87708W        W55926  33.354  15.174  11.143
87709W        W55927  11.356  20.519   1.539
87710W        W55928  28.590  43.163  14.935
87711W        W55929  40.346  10.668  13.188
87712W        W55930  15.596  25.049  12.576
87713W        W55931  25.019  42.687   4.180
87714W        W55932  29.055  10.781   3.738
87715W        W55933  39.410  42.985   0.386
87716W        W55934  27.529  43.539  13.132
87717W        W55935   2.588  18.794  13.422
87718W        W55936  14.287  38.512  10.793
87719W        W55937  28.087  39.301   2.798
87720W        W55938  25.251  38.295   4.118
87721W        W55939  35.021  39.659  11.829
87722W        W55940  40.131  36.935   2.931
87723W        W55941  25.199  15.338   1.739
87724W        W55942  23.185  14.964  11.867
87725W        W55943   4.866   7.344   3.559
87726W        W55944  16.820  32.515   2.283
87727W        W55945  22.040   2.230  11.598
87728W        W55946  26.456  17.335  10.698
87729W        W55947  35.310   5.832  13.225
87730W        W55948  30.815  22.103   4.293
87731W        W55949  38.558  12.679  11.958
87732W        W55950  42.983  38.984   5.214
87733W        W55951   7.416  31.866  13.488
87734W        W55952  39.422  42.537   0.687
87735W        W55953  32.872   6.190   1.593
87736W        W55954  35.787  28.675  14.476
87737W        W55955  43.876  23.964  13.779
87738W        W55956  12.299  38.203  11.458
87739W        W55957  17.852  22.026   2.377
87740W        W55958  19.617  27.041  14.340
87741W        W55959  27.521  37.965  11.650
87742W        W55960   3.258  40.003   1.839
87743W        W55961  22.341   2.808   0.020
87744W        W55962  27.039  11.382  13.043
87745W        W55963  41.989  38.307   1.771
87746W        W55964  18.212  16.330   0.336
87747W        W55965  22.658  42.482   2.645
87748W        W55966  11.959  19.071   1.764
87749W        W55967  19.167  39.244  13.907
87750W        W55968  24.001  28.465   1.835
87751W        W55969  14.754  32.142  13.542
87752W        W55970   4.845  22.139  11.887
87753W        W55971  39.162  38.911   5.139
87754W        W55972  26.883   8.841   4.456
87755W        W55973  10.680  24.615  12.897
87756W        W55974  39.847  22.260  13.749
87757W        W55975  38.804  36.439   2.780
87758W        W55976  42.561  23.635  14.355
87759W        W55977  23.659  31.448  11.084
87760W        W55978  16.767  32.545   3.214
87761W        W55979  12.590  15.858   2.205
87762W        W55980  13.139   6.863   1.211
87763W        W55981  30.068  17.296   1.322
87764W        W55982  13.452  37.120   0.011
87765W        W55983   5.685  25.509   4.236
87766W        W55984  13.778  39.042  13.952
87767W        W55985   3.748  36.414  13.413
87768W        W55986  38.364  41.717   3.211
87769W        W55987  14.326  25.484   2.337
87770W        W55988  20.904  10.151   2.749
87771W        W55989  39.356  16.034   3.614
87772W        W55990  24.270  30.395  11.262
87773W        W55991  42.432   7.094  12.464
87774W        W55992  22.573  22.263   1.118
87775W        W55993  39.115   4.123  11.710
87776W        W55994   2.492  33.762  13.587
87777W        W55995  23.495  21.368   1.405
87778W        W55996   1.482  34.507   1.379
87779W        W55997  23.255  34.516  13.327
87780W        W55998  25.157  33.318   1.411
87781W        W55999  41.238  16.123   1.308
87782W        W56000  11.415   5.329  12.178
87783W        W56001  32.058  37.604  14.392
87784W        W56002  36.873  34.660   0.364
87785W        W56003  17.052  25.046   2.757
87786W        W56004   2.307  19.798   3.450
87787W        W56005  25.506  17.745   4.829
87788W        W56006  10.569  24.091   0.758
87789W        W56007  14.336  13.594  12.796
87790W        W56008  37.564  24.503  11.030
87791W        W56009  35.974   3.048  12.142
87792W        W56010   1.011  15.997   1.642
87793W        W56011   2.763   7.135  10.828
87794W        W56012  21.622  44.606   4.595
87795W        W56013  15.698  29.821   4.816
87796W        W56014  10.366  26.968  14.915
87797W        W56015  14.370  21.546   4.575
87798W        W56016   6.388  36.485  11.921
87799W        W56017   8.089   1.478   0.681
87800W        W56018   1.749   8.817  13.534
87801W        W56019  43.738  33.152   3.814
87802W        W56020  21.159  16.652   2.342
87803W        W56021  27.659  26.678  10.783
87804W        W56022   2.031  25.997   2.690
87805W        W56023  12.092  24.170  13.440
87806W        W56024  24.486  26.760   2.518
87807W        W56025  39.784  41.676   4.007
87808W        W56026   2.404   0.478   2.437
87809W        W56027  40.797  34.328  13.945
87810W        W56028   1.521  15.587   3.159
87811W        W56029  44.730   0.696   4.948
87812W        W56030  43.779  40.006  13.522
87813W        W56031  40.720   6.869   4.439
87814W        W56032   0.944  38.764  10.678
87815W        W56033  22.063  14.755   0.458
87816W        W56034   6.289  35.657  10.783
87817W        W56035  16.649  20.752   5.031
87818W        W56036  33.487  22.973  14.867
87819W        W56037   4.488  38.347  13.894
87820W        W56038  19.757  15.802   2.839
87821W        W56039  28.155  27.477  12.059
87822W        W56040  38.454   1.799  11.419
87823W        W56041  16.251  12.230  14.809
87824W        W56042  38.369  44.337   1.463
87825W        W56043  34.012  14.544  12.896
87826W        W56044   5.839   2.406  12.456
87827W        W56045  19.638  24.958   4.778
87828W        W56046  42.513  16.078  13.134
87829W        W56047  14.762   1.781  14.393
87830W        W56048  29.852  36.990   0.910
87831W        W56049  24.512  28.560   3.766
87832W        W56050  27.937  33.098  10.710
87833W        W56051  44.562  27.534   1.468
87834W        W56052  10.246   8.725  11.646
87835W        W56053  16.859   5.150   0.230
87836W        W56054  24.052  18.225   0.958
87837W        W56055   4.379  33.005  12.915
87838W        W56056  14.208  25.044   0.575
87839W        W56057  33.816  18.340  11.142
87840W        W56058  43.032  26.207   4.514
87841W        W56059   7.426  11.970  12.892
87842W        W56060  14.633  11.290  14.432
87843W        W56061  34.016   0.461  14.598
87844W        W56062  13.419  29.744   2.750
87845W        W56063  38.412  42.510   3.786
87846W        W56064   6.458  43.598  10.897
87847W        W56065   3.198  25.312  12.086
87848W        W56066  28.797   6.141   0.888
87849W        W56067  38.462  42.999   2.639
87850W        W56068   8.440   0.609  13.767
87851W        W56069   0.819   9.137   4.269
87852W        W56070  36.129  28.554  12.128
87853W        W56071   9.278  32.307   2.227
87854W        W56072  14.215   4.425   1.763
87855W        W56073  15.586  10.918   0.829
87856W        W56074  34.623   1.421  13.758
87857W        W56075   8.276  29.288  12.805
87858W        W56076  18.790  19.094   2.013
87859W        W56077  23.457   3.334   2.756
87860W        W56078  35.626  22.762  12.519
87861W        W56079  12.257  43.389  11.908
87862W        W56080  17.888  28.754   4.198
87863W        W56081  43.366  33.808   2.344
87864W        W56082   6.652  31.566  11.483
87865W        W56083  29.937   7.609  13.886
87866W        W56084  11.830  21.400   4.179
87867W        W56085  25.122  31.818   2.422
87868W        W56086  35.179  17.757   4.831
87869W        W56087  20.080  23.673  10.754
87870W        W56088  29.059  20.103   1.002
87871W        W56089  35.898  14.790   3.684
87872W        W56090  26.264  40.468   1.782
87873W        W56091  31.432   4.123   4.451
87874W        W56092   5.099  25.794  14.326
87875W        W56093  36.315  29.873   2.280
87876W        W56094  16.125  26.576   4.891
87877W        W56095  26.024  24.139  14.920
87878W        W56096  16.315  19.130  12.795
87879W        W56097  34.646  35.789   3.244
87880W        W56098  28.959  35.886   4.089
87881W        W56099  13.337  39.506  14.869
87882W        W56100  23.165  37.603   1.156
87883W        W56101  37.524   8.492  11.157
87884W        W56102  14.651  25.103   2.777
87885W        W56103  40.937  43.454  11.546
87886W        W56104  36.983   5.229   3.384
87887W        W56105  37.587  37.853  13.232
87888W        W56106   7.724   0.961   2.235
87889W        W56107  15.164  24.469  12.101
87890W        W56108   8.316  21.049   0.757
87891W        W56109  17.013  30.366   0.056
87892W        W56110   4.862  15.756   2.155
87893W        W56111  31.531  37.495   3.765
87894W        W56112  36.961  17.847  13.717
87895W        W56113  32.420  25.135   1.210
87896W        W56114   0.030  20.898   2.281
87897W        W56115  14.440  42.032   3.707
87898W        W56116  38.029  29.077  12.548
87899W        W56117  25.831   8.044   3.798
87900W        W56118  21.520  42.624  11.450
87901W        W56119   8.461   7.635   1.258
87902W        W56120  23.020  30.137   2.586
87903W        W56121  39.892  26.131   4.263
87904W        W56122  12.886   5.412  10.553
87905W        W56123  25.663  19.154  11.961
87906W        W56124   8.085  12.650   1.528
87907W        W56125   4.229  27.869   3.795
87908W        W56126   5.503  43.691  11.230
87909W        W56127  32.664  22.606  10.486
87910W        W56128  27.860  11.470  13.959
87911W        W56129   3.016  32.531   2.406
87912W        W56130   1.727  15.143  10.658
87913W        W56131  29.618  40.604  14.523
87914W        W56132  25.153   1.890   4.956
87915W        W56133  22.211   0.289  10.750
87916W        W56134  13.506  23.103  13.285
87917W        W56135   5.628  42.987   5.058
87918W        W56136  38.379  18.720   2.338
87919W        W56137  14.752  33.692  10.376
87920W        W56138  17.108  16.716  12.885
87921W        W56139  19.031   7.575  10.490
87922W        W56140  24.891  41.823   3.557
87923W        W56141  32.133  27.683   2.304
87924W        W56142  30.907  24.231   3.653
87925W        W56143  33.510   8.190   1.402
87926W        W56144  19.071  43.761   0.775
87927W        W56145  34.122  29.495   0.464
87928W        W56146  14.230  23.152   3.647
87929W        W56147   9.871   2.916  11.097
87930W        W56148   3.767  19.534   2.761
87931W        W56149  27.859  37.800   2.762
87932W        W56150   9.466  41.114   0.731
87933W        W56151   3.707  19.727   4.096
87934W        W56152  43.741  26.861   0.192
87935W        W56153  14.686  21.328   2.218
87936W        W56154  34.636   9.454   2.010
87937W        W56155  36.959   1.408  12.906
87938W        W56156  36.638  27.535   2.111
87939W        W56157  27.937  36.489   3.289
87940W        W56158  44.043  39.867   2.639
87941W        W56159  32.946   5.311  11.130
87942W        W56160   1.405  13.794  12.376
87943W        W56161   3.787   8.642   0.559
87944W        W56162   0.005  34.506   1.277
87945W        W56163  37.587  32.413   2.324
87946W        W56164  37.785   7.213  12.363
87947W        W56165  11.390  30.002   3.530
87948W        W56166  23.618  20.102  11.917
87949W        W56167  36.049  39.089   3.720
87950W        W56168  27.739  12.839   0.023
87951W        W56169  13.098   4.721   2.356
87952W        W56170   0.072   6.433   1.108
87953W        W56171  31.164  14.586  13.535
87954W        W56172  18.940  40.889  13.745
87955W        W56173   4.046  21.626  14.750
87956W        W56174  38.769  10.684   0.419
87957W        W56175  20.737   6.409   0.886
87958W        W56176  10.654  18.321   3.572
87959W        W56177  17.530  21.945  12.008
87960W        W56178  23.065  40.570  11.617
87961W        W56179   0.219   9.360  12.019
87962W        W56180  24.474  43.814  11.068
87963W        W56181   3.966  33.584  12.558
87964W        W56182  37.710   8.140  11.538
87965W        W56183   7.178  39.669   1.819
87966W        W56184  32.545  16.224   1.281
87967W        W56185   4.422  11.403  11.892
87968W        W56186  13.337  31.937   0.438
87969W        W56187   9.291  12.379  14.073
87970W        W56188  31.680  44.680  11.534
87971W        W56189  18.543  23.269   2.208
87972W        W56190  14.906   2.941  10.194
87973W        W56191  14.059  29.075   2.242
87974W        W56192  13.656  37.035  13.359
87975W        W56193  25.182  38.511  14.968
87976W        W56194  24.571   0.777  14.009
87977W        W56195  39.094  24.418  11.326
87978W        W56196  36.608  27.151  13.897
87979W        W56197  38.407  39.350   2.770
87980W        W56198  29.198  28.975  10.699
87981W        W56199  32.443  22.096   1.022
87982W        W56200   7.304  35.550   4.728
87983W        W56201  40.320   3.364   4.894
87984W        W56202  43.911  21.595  12.359
87985W        W56203  26.766  34.644   4.091
87986W        W56204  20.920  33.093  13.513
87987W        W56205  40.797  24.317  14.057
87988W        W56206   7.661  18.315  13.262
87989W        W56207  24.521  22.084   3.289
87990W        W56208  33.198  24.299   3.099
87991W        W56209  42.120  29.939   1.731
87992W        W56210  34.523  44.092  10.983
87993W        W56211  14.044  16.769  13.895
87994W        W56212  44.214   8.840  12.486
87995W        W56213  26.553  21.573  11.476
87996W        W56214  32.838  10.337  13.424
87997W        W56215  35.133  19.002  14.542
87998W        W56216  28.986  41.322  11.701
87999W        W56217  28.145  26.219  10.645
88000W        W56218  22.592  14.696   1.252
88001W        W56219  30.718   6.922   1.835
88002W        W56220   7.562  43.239   0.863
88003W        W56221  32.981  41.081   3.537
88004W        W56222  26.129  13.221  14.384
88005W        W56223  15.607   8.807   0.805
88006W        W56224  42.827  38.792  11.188
88007W        W56225  42.421  15.587   3.286
88008W        W56226   9.667  43.038   0.044
88009W        W56227   9.511  17.318   0.455
88010W        W56228   4.740  24.716  12.449
88011W        W56229   3.180   6.166   0.237
88012W        W56230  15.500   1.265  14.352
88013W        W56231  28.383   5.348   3.622
88014W        W56232  23.683  13.627   0.465
88015W        W56233  38.064  16.700   3.919
88016W        W56234  11.143  14.889  10.607
88017W        W56235   5.865  12.266   4.581
88018W        W56236  34.570   8.130   3.104
88019W        W56237  11.890  21.215   3.714
88020W        W56238  37.885  41.032   1.408
88021W        W56239  22.865   9.902  12.012
88022W        W56240   8.334  35.866   1.900
88023W        W56241  38.269  24.213  14.845
88024W        W56242   9.278  10.932   2.256
88025W        W56243  12.502  22.096  11.376
88026W        W56244   7.131  20.286   2.468
88027W        W56245  29.590  43.456  13.071
88028W        W56246   7.254  16.548  12.141
88029W        W56247  20.222  17.535   1.039
88030W        W56248  37.909  29.903  11.327
88031W        W56249  13.580  35.205   4.594
88032W        W56250  28.262  33.248   1.228
88033W        W56251  20.765  14.116   9.481
88034W        W56252  33.936  33.830   0.469
88035W        W56253  28.773  25.484   0.406
88036W        W56254   7.276  19.598   3.239
88037W        W56255  43.006  16.254  10.683
88038W        W56256  29.540  40.652  11.298
88039W        W56257   8.652   0.686   0.461
88040W        W56258  30.532   1.020   3.693
88041W        W56259  18.662  22.948   1.818
88042W        W56260  28.027  38.370  12.917
88043W        W56261  32.518  38.574  10.571
88044W        W56262  20.129  36.157  10.558
88045W        W56263  37.872  33.620   2.181
88046W        W56264  30.080  11.570   3.687
88047W        W56265  20.637  43.080   0.891
88048W        W56266  28.569   5.037  12.421
88049W        W56267  30.966  12.436  12.412
88050W        W56268  41.946  18.205   3.223
88051W        W56269  34.788  17.906   1.632
88052W        W56270  11.640  26.967   2.850
88053W        W56271  37.924   2.274   2.158
88054W        W56272  40.298  22.778  14.844
88055W        W56273  23.613  41.464  11.884
88056W        W56274  39.950  21.571  11.041
88057W        W56275  12.567  34.214   0.209
88058W        W56276  25.610  12.758   2.500
88059W        W56277  12.765   7.709  13.504
88060W        W56278  25.625  19.784  10.669
88061W        W56279  28.413   7.314  13.007
88062W        W56280  13.164  43.602  13.816
88063W        W56281  11.585  31.098   2.653
88064W        W56282  23.392   2.180   0.882
88065W        W56283   9.732   1.216  11.716
88066W        W56284  13.139  43.730   3.220
88067W        W56285  17.089  36.359  11.961
88068W        W56286  25.476  16.700   2.433
88069W        W56287  31.901  31.011  14.397
88070W        W56288  21.461  40.364   0.760
88071W        W56289   2.702  16.347  12.103
88072W        W56290  25.538  15.577   0.847
88073W        W56291   0.439  24.643   2.441
88074W        W56292  19.062  24.772   1.809
88075W        W56293  15.576   0.838   0.471
88076W        W56294  12.197  20.329  14.927
88077W        W56295  25.734  14.307   3.546
88078W        W56296  33.479  10.993   3.734
88079W        W56297   2.361  43.126  12.122
88080W        W56298  27.920  16.015   3.159
88081W        W56299  43.878  28.862  10.738
88082W        W56300  28.715  12.193   2.758
88083W        W56301  11.730  17.672  11.001
88084W        W56302   6.690  33.404   0.690
88085W        W56303   1.147  13.660  11.574
88086W        W56304  33.524   8.196   2.315
88087W        W56305   0.912  32.179   1.407
88088W        W56306  23.797  14.790   1.708
88089W        W56307  26.183  44.821  12.952
88090W        W56308  24.290  36.486   4.199
88091W        W56309  33.368  16.128  13.575
88092W        W56310  44.438  22.274   4.092
88093W        W56311  15.220  31.682  12.584
88094W        W56312  24.947  43.907   3.712
88095W        W56313  21.908  10.097  12.347
88096W        W56314   8.346   5.684  14.368
88097W        W56315  29.140  39.353   1.930
88098W        W56316   0.410  43.450   4.625
88099W        W56317  43.404  28.572  11.683
88100W        W56318   3.427  30.493  13.384
88101W        W56319   6.212   8.911   2.255
88102W        W56320  31.907  38.910   1.819
88103W        W56321  44.290   1.980   1.787
88104W        W56322  41.761  43.815  10.417
88105W        W56323  42.696  24.093  13.039
88106W        W56324   8.921  19.211   4.057
88107W        W56325  27.237   9.822   2.268
88108W        W56326  39.143  11.860  10.835
88109W        W56327   7.408  11.131   2.347
88110W        W56328  23.484  26.236   2.690
88111W        W56329   0.094  16.963  11.115
88112W        W56330   9.748  18.616  14.220
88113W        W56331  13.696  27.164   2.316
88114W        W56332  40.186  31.872  12.967
88115W        W56333  18.461   0.456  13.696
88116W        W56334  39.534  19.653   4.117
88117W        W56335  35.512   4.236   1.483
88118W        W56336   7.320   6.976  12.465
88119W        W56337   2.773  42.721   4.247
88120W        W56338   0.412   1.218  11.323
88121W        W56339  36.353   5.709  10.894
88122W        W56340  17.489  14.658  13.930
88123W        W56341   0.792  16.324  13.465
88124W        W56342  31.064  36.278  11.206
88125W        W56343  18.779  10.850   3.511
88126W        W56344   6.706  21.211  13.517
88127W        W56345   1.258   4.506   3.998
88128W        W56346  12.888  14.391  14.607
88129W        W56347  41.184   8.872   1.218
88130W        W56348  44.486  11.021  11.168
88131W        W56349  15.426  44.745   0.347
88132W        W56350  15.332  26.020   0.394
88133W        W56351   5.666   5.331   1.887
88134W        W56352  40.245  23.767   3.659
88135W        W56353  23.617  32.524  10.942
88136W        W56354  34.145  22.496  12.364
88137W        W56355  16.212  41.240   4.469
88138W        W56356  33.635  13.574   2.118
88139W        W56357   8.338   2.412   3.212
88140W        W56358  32.977   8.515  14.375
88141W        W56359  15.235  38.473   3.343
88142W        W56360  10.479   5.815  13.325
88143W        W56361  18.955   2.540   2.371
88144W        W56362   6.853  12.609   1.425
88145W        W56363  24.050  41.101  11.989
88146W        W56364   7.172  10.716   0.963
88147W        W56365  10.813  11.693  10.613
88148W        W56366  18.205  36.318   4.518
88149W        W56367  13.588  36.399  14.624
88150W        W56368  34.442  39.844   3.611
88151W        W56369  34.958  24.293   0.315
88152W        W56370  39.858  14.484   2.903
88153W        W56371  35.822  24.097   2.584
88154W        W56372  38.878  12.501   4.479
88155W        W56373  32.870  11.101   2.294
88156W        W56374  24.802   3.340  13.432
88157W        W56375  17.821  42.898  11.416
88158W        W56376  43.901  29.683   4.508
88159W        W56377  30.269   1.556  13.822
88160W        W56378  24.696  20.204   3.606
88161W        W56379   5.388  20.114  11.538
88162W        W56380  43.736  15.718  13.761
88163W        W56381  41.855  26.053   0.871
88164W        W56382  36.961  31.664   2.183
88165W        W56383  11.210  28.538  13.367
88166W        W56384  18.719  35.097  10.646
88167W        W56385   2.474  14.340  11.004
88168W        W56386   8.874  20.204   9.765
88169W        W56387   5.452  11.515   2.815
88170W        W56388   8.711   7.684   0.795
88171W        W56389  40.471  33.490  10.557
88172W        W56390  30.678   6.267  13.884
88173W        W56391   7.320  35.384   1.143
88174W        W56392  21.548  20.652   0.509
88175W        W56393  30.273   7.071   0.042
88176W        W56394  18.426  35.585   1.702
88177W        W56395  23.050  30.659  14.998
88178W        W56396  18.150   4.426  14.352
88179W        W56397  44.837  22.498   1.734
88180W        W56398   2.805  13.978  14.473
88181W        W56399   7.159  36.887   3.991
88182W        W56400  32.680   4.139  11.640
88183W        W56401  13.643  10.599  12.425
88184W        W56402  34.373  13.733   2.801
88185W        W56403  25.550  17.383   0.672
88186W        W56404  25.195  10.091  14.000
88187W        W56405   1.969  43.722  14.379
88188W        W56406  21.658  35.634  13.886
88189W        W56407  35.234  33.904   1.458
88190W        W56408   3.652  17.189  14.812
88191W        W56409   5.803  37.620   3.109
88192W        W56410  42.458  10.256  10.975
88193W        W56411  38.615  17.334   4.673
88194W        W56412  13.845   9.219   0.541
88195W        W56413   2.023  27.634   2.408
88196W        W56414  14.290  13.221   2.790
88197W        W56415  37.708  21.018   4.619
88198W        W56416  44.520   5.370   3.090
88199W        W56417  10.697  35.042   1.988
88200W        W56418  32.452   5.607  10.223
88201W        W56419  19.493  25.236   1.970
88202W        W56420  28.897  29.900   0.394
88203W        W56421   6.711  37.942  13.916
88204W        W56422  10.127  20.963   0.261
88205W        W56423  12.963  38.250  13.004
88206W        W56424  17.351  16.894  11.128
88207W        W56425  21.715   2.955  10.724
88208W        W56426   6.147  17.633  10.618
88209W        W56427  39.372  17.240   2.865
88210W        W56428  36.432  36.624  12.391
88211W        W56429   3.783  22.046  10.599
88212W        W56430  42.281  22.241  11.124
88213W        W56431  27.012  22.008  10.125
88214W        W56432   7.865  19.678   2.347
88215W        W56433  36.812  11.256   0.407
88216W        W56434  17.337  35.589  13.828
88217W        W56435   6.178  17.291  11.004
88218W        W56436   7.365  28.295   0.799
88219W        W56437  19.036  15.825  11.429
88220W        W56438  14.180  18.228   4.157
88221W        W56439  11.118   0.417   1.520
88222W        W56440  36.370  42.223   3.194
88223W        W56441  21.078  13.702  12.456
88224W        W56442  14.960   5.758  12.821
88225W        W56443  37.466  11.581   0.847
88226W        W56444  39.286   1.359   1.939
88227W        W56445  19.561   2.573  10.712
88228W        W56446  36.806   0.954   3.593
88229W        W56447  33.181   4.248  11.655
88230W        W56448  41.044   2.619  14.085
88231W        W56449  20.818  21.414  11.272
88232W        W56450   7.373  14.552  14.407
88233W        W56451   8.347  24.425   2.510
88234W        W56452   1.236  40.893   3.592
88235W        W56453  42.530  17.720  12.392
88236W        W56454  39.037  39.084  14.899
88237W        W56455  12.089  25.203   3.440
88238W        W56456  43.678  43.383   2.920
88239W        W56457  33.512  44.702   0.652
88240W        W56458  36.909   1.012   3.093
88241W        W56459   8.723   1.019   0.085
88242W        W56460  25.896   8.021   1.626
88243W        W56461  39.004  30.027   4.404
88244W        W56462  36.960  18.082   4.344
88245W        W56463  37.611  39.314  13.369
88246W        W56464  39.225  11.964  13.373
88247W        W56465   1.382  24.871   1.475
88248W        W56466  19.620   4.362  13.441
88249W        W56467   0.751   6.692   2.440
88250W        W56468  12.581  32.658   2.659
88251W        W56469   2.185   2.276  11.124
88252W        W56470   5.745   0.372  10.077
88253W        W56471   8.214  30.525  10.413
88254W        W56472  17.338  43.415  12.627
88255W        W56473  32.266  15.285  11.666
88256W        W56474  19.621  27.467   2.729
88257W        W56475  39.991  34.011   0.437
88258W        W56476  14.311   2.941  14.998
88259W        W56477  26.999   5.747  12.714
88260W        W56478  38.181  21.158   0.885
88261W        W56479   3.380  39.545  12.949
88262W        W56480  39.379  12.177  13.799
88263W        W56481   1.412  22.126   2.721
88264W        W56482  36.272  38.640  11.065
88265W        W56483   5.844   4.378  11.626
88266W        W56484  18.151  10.088   3.543
88267W        W56485   0.590  42.465   3.624
88268W        W56486   7.524   3.191   4.165
88269W        W56487  38.400  20.610  10.918
88270W        W56488  39.398   6.255   0.758
88271W        W56489   9.846  19.130   1.904
88272W        W56490  25.005  13.499   2.280
88273W        W56491  43.700  21.446   3.045
88274W        W56492  31.458  23.546  11.996
88275W        W56493  35.945  27.374   1.531
88276W        W56494  40.932   9.950  14.431
88277W        W56495  11.867  16.073  14.793
88278W        W56496   6.498   4.172   4.614
88279W        W56497  43.085  33.686  11.579
88280W        W56498  25.018   4.501  14.695
88281W        W56499   8.133  18.304   2.306
88282W        W56500  17.599  25.242   1.513
88283W        W56501  41.296  43.052  12.515
88284W        W56502  30.617  41.690  11.938
88285W        W56503   8.506  37.026   4.066
88286W        W56504  23.375  33.096   5.033
88287W        W56505  22.095   1.051  14.978
88288W        W56506  20.414  15.074   4.640
88289W        W56507   7.904  31.107   3.659
88290W        W56508  15.519  14.240   4.236
88291W        W56509   0.830  36.599  12.735
88292W        W56510  27.549  20.257   4.781
88293W        W56511  24.103   1.189  11.197
88294W        W56512  30.690  14.758  14.275
88295W        W56513  21.253   9.802   0.254
88296W        W56514   8.759  41.945  12.518
88297W        W56515  38.287   3.980  11.614
88298W        W56516   4.383  42.921   1.194
88299W        W56517  20.124   7.766  14.849
88300W        W56518  12.177   5.192   2.259
88301W        W56519  15.206  14.536  14.857
88302W        W56520  38.753  26.517   3.311
88303W        W56521  22.119  29.659   2.628
88304W        W56522  10.170  33.612  12.097
88305W        W56523  36.946  33.199  14.837
88306W        W56524  12.335  14.634   2.094
88307W        W56525  15.145  24.267  11.529
88308W        W56526  18.648  12.638   3.245
88309W        W56527   3.796  27.480   3.658
88310W        W56528  39.357  28.385  10.642
88311W        W56529  12.180   0.728  14.042
88312W        W56530  19.233  16.227  14.304
88313W        W56531   3.330  36.757   0.205
88314W        W56532  38.568  10.465   2.773
88315W        W56533   4.170  37.748   2.707
88316W        W56534  17.851  44.322   3.636
88317W        W56535  26.662   4.836  10.438
88318W        W56536  38.780  39.335  11.040
88319W        W56537  18.724  30.644  11.192
88320W        W56538  33.949  19.715   4.655
88321W        W56539  24.135   0.269   4.538
88322W        W56540   9.706  38.836   0.589
88323W        W56541  13.137  36.989   4.537
88324W        W56542  17.580  43.279  13.985
88325W        W56543   4.463  22.974  12.131
88326W        W56544  39.755  20.033   0.335
88327W        W56545  29.411  33.808  14.037
88328W        W56546  43.859  32.370  14.941
88329W        W56547  24.296  14.611  14.378
88330W        W56548  24.180  12.318   0.739
88331W        W56549   4.389  26.550   4.616
88332W        W56550  27.322  15.124   3.619
88333W        W56551  18.373   4.715  13.933
88334W        W56552   0.090  19.316   2.753
88335W        W56553  24.861   4.474  13.551
88336W        W56554   2.451  33.133  12.474
88337W        W56555  13.807  41.827   1.698
88338W        W56556   9.975   9.942   4.471
88339W        W56557   5.984  19.713   2.894
88340W        W56558   5.965  15.217  12.429
88341W        W56559  41.369  39.271   3.109
88342W        W56560  44.305  40.248  13.496
88343W        W56561   2.221  40.794  12.642
88344W        W56562   1.246  29.110   1.839
88345W        W56563  33.421   9.443   2.873
88346W        W56564   8.799  32.397   3.277
88347W        W56565   5.674  10.292   4.601
88348W        W56566  20.573  11.401  14.923
88349W        W56567  34.828  14.176   1.809
88350W        W56568  24.583  19.744   0.363
88351W        W56569  12.530   2.478   9.975
88352W        W56570  37.123   3.822   1.921
88353W        W56571  16.029  40.100   3.341
88354W        W56572   7.936  31.212   1.147
88355W        W56573  15.980  11.814   2.167
88356W        W56574  19.568  38.952   0.936
88357W        W56575  39.065  30.028   4.909
88358W        W56576  36.579  17.443   2.417
88359W        W56577  32.670  16.573  10.970
88360W        W56578  30.944  15.222  12.101
88361W        W56579  25.002   9.769   3.245
88362W        W56580  12.452   2.837  14.854
88363W        W56581  24.680   3.109   0.838
88364W        W56582  37.179   9.212   3.630
88365W        W56583   6.934  42.270  11.047
88366W        W56584  17.261  32.619  11.611
88367W        W56585  18.232  32.819   3.606
88368W        W56586  23.621  21.619  14.558
88369W        W56587  31.763  20.967  12.568
88370W        W56588  20.658  30.934  11.172
88371W        W56589   1.743   9.266   4.098
88372W        W56590  41.979  20.978   0.932
88373W        W56591  20.787  39.383   4.545
88374W        W56592  11.532  13.585   2.723
88375W        W56593  39.084   7.533  11.992
88376W        W56594  36.136  40.410  12.520
88377W        W56595   7.388  41.916  14.660
88378W        W56596  37.910  34.674  14.798
88379W        W56597  13.181  36.975  13.518
88380W        W56598  35.124  26.887  14.000
88381W        W56599  19.462  17.043   4.034
88382W        W56600   4.898  31.393  12.772
88383W        W56601   8.131   6.407   3.255
88384W        W56602   2.834  34.212  13.909
88385W        W56603  24.301  44.699   3.725
88386W        W56604  13.018  31.138   3.067
88387W        W56605  18.305  21.051  13.978
88388W        W56606  26.949   5.551   1.871
88389W        W56607   8.478  41.415  11.665
88390W        W56608   6.726  32.493   1.924
88391W        W56609  23.333   6.647   2.079
88392W        W56610  16.206  44.019   0.824
88393W        W56611  20.051  20.676   0.295
88394W        W56612  24.849  22.741   4.836
88395W        W56613  28.987  14.114   1.742
88396W        W56614  12.268   0.677  14.945
88397W        W56615   8.175  15.457   5.405
88398W        W56616   8.332  20.101  10.515
88399W        W56617  40.405  36.451  13.022
88400W        W56618  38.484  36.113   2.551
88401W        W56619  23.532   2.830  10.618
88402W        W56620  15.099  32.118   3.609
88403W        W56621  33.513  22.544   4.923
88404W        W56622   4.028  43.558   3.346
88405W        W56623  12.663   3.737   0.465
88406W        W56624  30.886  27.030   3.373
88407W        W56625  10.486   2.173   0.321
88408W        W56626  36.590  20.546   4.211
88409W        W56627   2.114  20.577   3.191
88410W        W56628  10.201   9.168   4.104
88411W        W56629  28.585  17.715   5.043
88412W        W56630   8.860   7.239  10.682
88413W        W56631   7.351  19.968  13.512
88414W        W56632  16.002  12.097  12.945
88415W        W56633  16.654  37.649  13.392
88416W        W56634  20.597  44.295   1.818
88417W        W56635  24.237  17.238  12.112
88418W        W56636  39.693  23.058  12.408
88419W        W56637   3.344  17.518  13.472
88420W        W56638  17.404  13.113  13.272
88421W        W56639  13.627   6.237  12.938
88422W        W56640  19.754   9.617  10.760
88423W        W56641   7.911  32.831   1.808
88424W        W56642  34.982  36.071   2.417
88425W        W56643  10.154  37.527   2.389
88426W        W56644  28.616  32.430   4.769
88427W        W56645  33.619  19.989   0.798
88428W        W56646   5.292  31.703  11.155
88429W        W56647  13.795   0.294  14.278
88430W        W56648   6.675  20.849  14.785
88431W        W56649  18.315  32.890  10.567
88432W        W56650  28.552  18.746   2.251
88433W        W56651  22.658  12.217  14.966
88434W        W56652  29.841   7.170   2.386
88435W        W56653  17.550  25.228   3.816
88436W        W56654  23.378  23.100  10.406
88437W        W56655   2.017  39.821  11.095
88438W        W56656  28.210   7.880  11.014
88439W        W56657  21.007  29.719   2.099
88440W        W56658  14.346  22.678   1.310
88441W        W56659   1.217  26.610  10.960
88442W        W56660  25.132  32.879  14.366
88443W        W56661   0.082  22.138  12.939
88444W        W56662  32.887  24.052   3.896
88445W        W56663  22.695  28.522  13.514
88446W        W56664  35.641  39.465  13.488
88447W        W56665  37.852   8.163  13.941
88448W        W56666  22.035  19.747   0.704
88449W        W56667   9.410  31.332  13.945
88450W        W56668   0.581  21.724   1.820
88451W        W56669   3.500  31.053   0.332
88452W        W56670  10.192   1.841  12.407
88453W        W56671  11.376  12.093  14.529
88454W        W56672   2.891  33.384  11.265
88455W        W56673  22.214  39.901  13.538
88456W        W56674   3.273  26.973  13.924
88457W        W56675   8.400  40.131  10.322
88458W        W56676   6.953  42.257   3.683
88459W        W56677  42.864  34.167   1.237
88460W        W56678   6.697  42.348  13.448
88461W        W56679  34.205  12.473  10.889
88462W        W56680   2.018  30.926   1.904
88463W        W56681  15.871  19.577  13.382
88464W        W56682  19.573  18.813  12.945
88465W        W56683  25.222   7.849   4.779
88466W        W56684  12.377  27.028  11.603
88467W        W56685  30.239   7.730  11.947
88468W        W56686   0.311  13.192   1.430
88469W        W56687  31.399  29.332  11.280
88470W        W56688  35.552  24.093  13.794
88471W        W56689   1.317  28.398  11.937
88472W        W56690  17.209   2.902  10.418
88473W        W56691  42.359   7.202  10.725
88474W        W56692  13.909  24.342  10.448
88475W        W56693   7.082  44.873  13.412
88476W        W56694  18.195   8.342   4.767
88477W        W56695  11.409   7.847   0.468
88478W        W56696  21.754  43.036   1.444
88479W        W56697  36.446  24.496  12.011
88480W        W56698  41.716  33.882   2.791
88481W        W56699  30.483  21.021  12.165
88482W        W56700   4.719  43.205   3.760
88483W        W56701  25.047  24.156  11.155
88484W        W56702  25.500  31.835  12.910
88485W        W56703   2.443  29.352   3.597
88486W        W56704  40.411  27.891  12.164
88487W        W56705  15.815  11.347   4.112
88488W        W56706  42.424  36.445   0.397
88489W        W56707   5.639  10.142   2.374
88490W        W56708   6.130  21.136   2.255
88491W        W56709  24.455  20.689   0.340
88492W        W56710  31.919  26.930   1.370
88493W        W56711  27.542   6.136  14.515
88494W        W56712  36.962  31.964   0.880
88495W        W56713  38.513  26.291   1.977
88496W        W56714  42.529  10.278   3.998
88497W        W56715  43.350  30.941  12.954
88498W        W56716  19.418  33.030   2.843
88499W        W56717  38.925  34.384   4.219
88500W        W56718   7.457  16.541  13.394
88501W        W56719  40.368  10.309   4.666
88502W        W56720  32.862   4.933  13.814
88503W        W56721  12.116  19.803   3.676
88504W        W56722  39.590  39.655  14.648
88505W        W56723  36.888  41.303   1.608
88506W        W56724  16.274  41.086   3.093
88507W        W56725  32.139   1.678  11.641
88508W        W56726   5.442   0.310   3.295
88509W        W56727  33.412   1.685   4.609
88510W        W56728  43.823  27.156   0.600
88511W        W56729  10.188  22.314   3.756
88512W        W56730   4.647   4.644  11.215
88513W        W56731  40.422  42.092   3.659
88514W        W56732  16.366  28.871  10.733
88515W        W56733  29.909  35.641  12.722
88516W        W56734  44.930   3.798   1.228
88517W        W56735  42.057  19.024  11.586
88518W        W56736  32.495  26.345  10.158
88519W        W56737  20.242  33.610   3.181
88520W        W56738  30.750  24.186  12.040
88521W        W56739  29.584  41.241   1.340
88522W        W56740  40.868   4.249   5.087
88523W        W56741   5.094  14.184   4.862
88524W        W56742  39.895   1.278  14.326
88525W        W56743   8.086  16.704  12.515
88526W        W56744  19.668   5.902   2.301
88527W        W56745   4.213  18.277  14.075
88528W        W56746  44.842  18.334  12.358
88529W        W56747   9.207  40.805   5.007
88530W        W56748  13.209   7.928   3.648
88531W        W56749  41.347  42.094  10.669
88532W        W56750   2.336  44.995   3.953
88533W        W56751  20.975  24.041   4.559
88534W        W56752  41.886  20.332   0.022
88535W        W56753  25.645  36.176   4.506
88536W        W56754  31.931   2.202   4.134
88537W        W56755  36.182   3.366   3.656
88538W        W56756  18.264  33.986   1.000
88539W        W56757   4.901  28.298  12.482
88540W        W56758  16.575   7.948  12.500
88541W        W56759  32.305   0.944   1.436
88542W        W56760   9.345   8.780  14.860
88543W        W56761  20.991  29.181  14.325
88544W        W56762  26.432  21.759  12.371
88545W        W56763   5.215   2.670   3.247
88546W        W56764  20.474  22.705   2.395
88547W        W56765  41.917  14.055   3.570
88548W        W56766  22.305  37.118   1.766
88549W        W56767  26.028  21.766   5.314
88550W        W56768  27.294  11.297  11.145
88551W        W56769  29.888  25.702   1.976
88552W        W56770  42.908  41.970   0.495
88553W        W56771  26.983  36.125  14.923
88554W        W56772  20.230  35.912  13.798
88555W        W56773   3.771  19.555  10.646
88556W        W56774  27.691  20.634   4.420
88557W        W56775  24.606  17.260   2.372
88558W        W56776  36.356  13.340   4.003
88559W        W56777   9.634  24.231   2.897
88560W        W56778  23.614  36.249   1.906
88561W        W56779  22.210   1.255  11.483
88562W        W56780  10.631   6.788  12.504
88563W        W56781  18.807   2.350   5.114
88564W        W56782  42.477   5.152   3.820
88565W        W56783  40.561   2.107  14.517
88566W        W56784  12.213  35.689   3.621
88567W        W56785  13.107  13.986  12.452
88568W        W56786  38.144  34.913   2.138
88569W        W56787  26.488  32.534   1.296
88570W        W56788   3.646  34.059   3.142
88571W        W56789  44.733  21.521   0.350
88572W        W56790  11.769  13.711  14.317
88573W        W56791   6.550  29.649   3.141
88574W        W56792  44.439  21.748   4.080
88575W        W56793  30.469  37.775   3.622
88576W        W56794  25.051  31.689   4.182
88577W        W56795  19.983  23.029  12.499
88578W        W56796  29.661  32.582  12.539
88579W        W56797  37.058  24.176   1.743
88580W        W56798  43.761   1.940  12.135
88581W        W56799  16.854   1.914   5.051
88582W        W56800  29.930  43.326   1.240
88583W        W56801  13.147  27.689   4.130
88584W        W56802  44.848  15.857   1.257
88585W        W56803  38.423  37.850  11.564
88586W        W56804  33.554  33.102   1.564
88587W        W56805  14.352  32.839   4.685
88588W        W56806  23.166   5.748  11.887
88589W        W56807  22.551  30.166   0.393
88590W        W56808  22.642   1.849  10.254
88591W        W56809  35.138  27.627  11.079
88592W        W56810  18.796  38.891   2.274
88593W        W56811  12.240  16.606  12.699
88594W        W56812  28.522   6.201  11.009
88595W        W56813   5.981   9.395   3.801
88596W        W56814  20.438  11.276   0.884
88597W        W56815  26.408  10.309   3.715
88598W        W56816  11.898  21.240  12.637
88599W        W56817  38.601   7.349   3.687
88600W        W56818  25.680   5.633   0.727
88601W        W56819  12.648  15.090  12.017
88602W        W56820  24.071  32.103   0.233
88603W        W56821  44.949  23.057   4.152
88604W        W56822  28.864   9.214  11.758
88605W        W56823  32.803   3.842  11.221
88606W        W56824  43.228  10.248   2.293
88607W        W56825  10.746  31.683   3.594
88608W        W56826   3.440  27.497  11.538
88609W        W56827   0.472  42.632  14.218
88610W        W56828  29.064  17.726  13.948
88611W        W56829   3.207   3.846  12.045
88612W        W56830  19.391   8.760   2.134
88613W        W56831  16.868  17.153  13.007
88614W        W56832   0.177  44.177  14.969
88615W        W56833   1.061  15.769  10.402
88616W        W56834  18.724   7.811   0.901
88617W        W56835  43.214  28.402   1.171
88618W        W56836   1.354  28.512  14.785
88619W        W56837  38.270  30.166   3.110
88620W        W56838  31.418  25.010   1.537
88621W        W56839  13.200  10.953  11.124
88622W        W56840   8.377   0.575   3.745
88623W        W56841  40.491  23.640   3.230
88624W        W56842   2.848  44.517  10.756
88625W        W56843   1.853  43.325  13.442
88626W        W56844   4.254  11.911  13.119
88627W        W56845  28.745   5.918   4.400
88628W        W56846  25.088  23.624   4.053
88629W        W56847  30.395  36.776   0.193
88630W        W56848  18.025  12.663   5.171
88631W        W56849   0.752   6.281  11.493
88632W        W56850   4.256  30.049  13.838
88633W        W56851   7.692  14.043  13.599
88634W        W56852   7.177  14.810   4.502
88635W        W56853  25.838  17.723   2.102
88636W        W56854  29.445  10.744   0.272
88637W        W56855  27.544   4.050  13.388
88638W        W56856  30.073  23.127  10.698
88639W        W56857  14.852  15.159   1.791
88640W        W56858  16.287  11.224  12.625
88641W        W56859  10.659  28.952   0.399
88642W        W56860  23.275  13.901  10.992
88643W        W56861  39.123  31.521   4.388
88644W        W56862   8.708   7.457  13.370
88645W        W56863  42.194  36.431  14.933
88646W        W56864  35.983  43.640   4.235
88647W        W56865   7.876   9.532  11.526
88648W        W56866  17.793  42.507   4.593
88649W        W56867  13.293  11.281  12.072
88650W        W56868  35.823  35.620  13.633
88651W        W56869  41.429  11.911   2.044
88652W        W56870  43.606  26.920  11.668
88653W        W56871  32.075  41.370  14.691
88654W        W56872  19.191  11.395  14.969
88655W        W56873  34.127   8.407   3.160
88656W        W56874  13.712  35.680  11.478
88657W        W56875  41.298   4.434  12.137
88658W        W56876  17.014  43.002  12.614
88659W        W56877  17.088  15.376  14.905
88660W        W56878  34.239  42.006  12.739
88661W        W56879  15.278  33.592   0.392
88662W        W56880  30.330  22.029   4.164
88663W        W56881  22.539   2.682   1.011
88664W        W56882   1.803  31.894  13.374
88665W        W56883  27.635  37.458  11.583
88666W        W56884  40.621  31.629   0.252
88667W        W56885  20.593  17.540   2.789
88668W        W56886  39.419  24.384   3.309
88669W        W56887  36.540  27.668   2.611
88670W        W56888  10.664   2.926   2.090
88671W        W56889   1.710  40.766  12.562
88672W        W56890  37.082  21.319  14.356
88673W        W56891  33.842  28.870  11.127
88674W        W56892   9.159  32.895  12.156
88675W        W56893  24.628  28.995   2.254
88676W        W56894  37.924  12.266  14.937
88677W        W56895  14.069  33.305   0.067
88678W        W56896  23.138  27.488   3.441
88679W        W56897  19.669  19.928  11.587
88680W        W56898  25.447  37.367  12.138
88681W        W56899   1.468   9.344  11.553
88682W        W56900  41.436  21.572  12.075
88683W        W56901  31.705  31.507   3.620
88684W        W56902  31.896  17.141   0.010
88685W        W56903  40.727  36.120   2.894
88686W        W56904  36.525  19.521   1.829
88687W        W56905  10.409  41.076  13.541
88688W        W56906   3.288  29.711   1.402
88689W        W56907  35.893   8.081  13.920
88690W        W56908  32.712  32.421  11.996
88691W        W56909  41.815  14.466  11.347
88692W        W56910  41.854  44.710   2.188
88693W        W56911  41.303  21.977  11.144
88694W        W56912  12.070  11.850  11.272
88695W        W56913  17.565  42.746  14.764
88696W        W56914   0.384   3.071  12.508
88697W        W56915   9.408  26.204  11.140
88698W        W56916  13.581  41.556  14.005
88699W        W56917  38.861  36.589  11.471
88700W        W56918  17.642  23.472   2.391
88701W        W56919  27.650  23.634  10.922
88702W        W56920  32.855  34.771   4.160
88703W        W56921  26.060   9.307   1.346
88704W        W56922  15.102  29.012   4.019
88705W        W56923   1.071  17.229  12.299
88706W        W56924  30.910  44.201   4.074
88707W        W56925  22.761  41.008  11.521
88708W        W56926  20.541  13.506   2.243
88709W        W56927  10.561  44.676  12.257
88710W        W56928  39.548  13.249  11.770
88711W        W56929  35.883   6.020   2.711
88712W        W56930  10.348  26.251   3.184
88713W        W56931  42.212  43.947   3.807
88714W        W56932  32.671   4.762   2.132
88715W        W56933   9.428  40.661   1.736
88716W        W56934  23.196  36.701  11.236
88717W        W56935  35.850  31.260   3.261
88718W        W56936  33.662  28.907  14.305
88719W        W56937   0.797  28.462  10.726
88720W        W56938  43.552  37.147   2.429
88721W        W56939  22.223  14.346   0.812
88722W        W56940  18.313  36.353   0.253
88723W        W56941  36.433  43.981   3.583
88724W        W56942  36.383  32.556  14.519
88725W        W56943  29.210  10.217   1.356
88726W        W56944  44.111   2.443  12.965
88727W        W56945  24.365  28.550   2.309
88728W        W56946   4.769  34.561   0.317
88729W        W56947  38.087  36.778  11.981
88730W        W56948  16.184  24.141   4.848
88731W        W56949  14.598   9.132  12.107
88732W        W56950  21.712  36.360  12.581
88733W        W56951  27.944  15.557   1.678
88734W        W56952  16.044   1.415   4.377
88735W        W56953  21.033  35.846  13.033
88736W        W56954  38.495   6.230   1.682
88737W        W56955   9.217  19.090   0.791
88738W        W56956  36.593  30.974  13.795
88739W        W56957  14.634  12.365   4.836
88740W        W56958  19.204  24.971   3.652
88741W        W56959  41.303  41.813   2.815
88742W        W56960  25.186  13.176  10.987
88743W        W56961  21.623  40.991  14.157
88744W        W56962  23.405  17.692  12.720
88745W        W56963  10.314  26.714   0.366
88746W        W56964  40.158  16.534  11.830
88747W        W56965   6.701  10.920  12.951
88748W        W56966  37.927  37.368  14.408
88749W        W56967  41.923  36.879   1.328
88750W        W56968  29.485  16.682   4.541
88751W        W56969  16.979  37.488   2.254
88752W        W56970  15.883  41.736   1.805
88753W        W56971  26.139   1.769  14.515
88754W        W56972  14.485  21.439  11.623
88755W        W56973   6.149  30.754   0.853
88756W        W56974  12.114  33.925   0.208
88757W        W56975  38.727  26.995   0.376
88758W        W56976  18.393  15.733   5.488
88759W        W56977   1.517  13.123   2.268
88760W        W56978  38.798   8.101   1.813
88761W        W56979  20.086  23.390   2.714
88762W        W56980  32.043   1.483   3.082
88763W        W56981  31.631  43.514   4.671
88764W        W56982  29.443  32.556   2.718
88765W        W56983  25.105   6.833  12.499
88766W        W56984  37.322  37.034  11.159
88767W        W56985  39.548  44.213  10.753
88768W        W56986  10.329  44.959  13.592
88769W        W56987  41.771  28.616  10.608
88770W        W56988  38.395  44.377   0.006
88771W        W56989  44.013  41.315   3.664
88772W        W56990  32.608   1.394   4.670
88773W        W56991  32.450  42.742   0.600
88774W        W56992  17.762  23.134  11.951
88775W        W56993  41.313  24.291   0.992
88776W        W56994  23.666   1.086  14.083
88777W        W56995  21.447  24.223   4.599
88778W        W56996  39.798  15.290   1.776
88779W        W56997  11.725  21.171   5.011
88780W        W56998  39.879   4.784   3.583
88781W        W56999  41.993  21.482  11.229
88782W        W57000  21.209  25.441   2.251
88783W        W57001  13.131   6.669  14.823
88784W        W57002  14.285   8.365   2.940
88785W        W57003   4.386  42.424   1.360
88786W        W57004  23.229  23.638   3.782
88787W        W57005  32.134  15.124   1.962
88788W        W57006  22.950  27.077   4.188
88789W        W57007  25.652  29.419  13.822
88790W        W57008  25.759  34.901  13.006
88791W        W57009  44.353  40.841   2.762
88792W        W57010  25.603  35.365   3.027
88793W        W57011   9.154  25.410   2.318
88794W        W57012  42.568  44.767  12.594
88795W        W57013  38.790  26.037   2.929
88796W        W57014  22.953  44.245   3.878
88797W        W57015   1.699  32.929   1.289
88798W        W57016   5.438  20.381  11.098
88799W        W57017   0.500  10.777   2.459
88800W        W57018   3.273  11.523  11.128
88801W        W57019  13.885  32.426   3.166
88802W        W57020  18.315  20.213   0.972
88803W        W57021  42.425  19.019  13.046
88804W        W57022  20.896  19.101  14.201
88805W        W57023  16.085   2.528   0.836
88806W        W57024   4.817  35.875   3.882
88807W        W57025  11.181  10.107  12.484
88808W        W57026  26.132  37.530  14.999
88809W        W57027  30.566  36.521  12.055
88810W        W57028   9.365  32.635   0.889
88811W        W57029  19.713  25.028  11.627
88812W        W57030   5.150  12.035   2.801
88813W        W57031  25.942  33.648  13.028
88814W        W57032   8.327  23.289   0.860
88815W        W57033  36.562  33.417  10.644
88816W        W57034   2.490  44.807   3.067
88817W        W57035  13.255  33.846   1.204
88818W        W57036  43.695  31.031   4.879
88819W        W57037  17.725  30.618  13.904
88820W        W57038  28.953  43.890   1.564
88821W        W57039   0.132   4.569  10.862
88822W        W57040   5.500   8.886   3.256
88823W        W57041   8.357  13.109   1.434
88824W        W57042   4.140  24.144   2.877
88825W        W57043  33.155  31.974   4.236
88826W        W57044  12.364   1.930  11.666
88827W        W57045   7.825  39.911   0.342
88828W        W57046  12.033  44.104  10.499
88829W        W57047  21.119  31.498  10.658
88830W        W57048  31.654  32.871   3.583
88831W        W57049  39.971  22.731   1.402
88832W        W57050   8.948  38.374   0.850
88833W        W57051   8.262  31.532  14.379
88834W        W57052  10.360  34.394  14.975
88835W        W57053   8.993   5.321   0.739
88836W        W57054  33.742  43.483   2.301
88837W        W57055  30.952  15.416   2.891
88838W        W57056  33.057  23.375  11.986
88839W        W57057  35.526  18.859   3.767
88840W        W57058  40.693  29.012   3.027
88841W        W57059  12.932  40.442   1.381
88842W        W57060  15.803  29.604   2.164
88843W        W57061  21.736  17.446   1.739
88844W        W57062  33.114  10.052   3.291
88845W        W57063   0.445  44.978  11.095
88846W        W57064  22.626   1.208  12.545
88847W        W57065  24.502  25.961   2.778
88848W        W57066  43.848  34.969  10.859
88849W        W57067  44.110  24.193   2.344
88850W        W57068   0.200  29.259   1.510
88851W        W57069  12.776   8.202   3.695
88852W        W57070  34.300  39.584  10.935
88853W        W57071  36.089   2.915  13.954
88854W        W57072  36.523   2.248  13.916
88855W        W57073  23.586  16.823   2.913
88856W        W57074  28.200  35.493   0.695
88857W        W57075  20.749  14.146   3.680
88858W        W57076  13.245  17.086  10.775
88859W        W57077  17.244  32.609   0.235
88860W        W57078  36.467  43.017   1.240
88861W        W57079  38.308  28.292  13.476
88862W        W57080  22.025  23.663   1.340
88863W        W57081  16.652  43.919  12.543
88864W        W57082  24.758  13.021   2.339
88865W        W57083  11.253  42.526   2.156
88866W        W57084   5.250  34.144   3.003
88867W        W57085  32.000  24.969   2.013
88868W        W57086  35.974   8.817   1.655
88869W        W57087  15.692   1.449   2.646
88870W        W57088  23.834  35.015  14.032
88871W        W57089  22.607  12.671   2.383
88872W        W57090  11.601  23.741   3.183
88873W        W57091  40.011  17.596  12.945
88874W        W57092   2.018  29.449  12.810
88875W        W57093  15.774  21.692   4.551
88876W        W57094  30.113  30.521  12.507
88877W        W57095   9.206  23.841   3.224
88878W        W57096   4.648  44.757  12.833
88879W        W57097  28.245  28.000  14.275
88880W        W57098  24.159   9.439   4.187
88881W        W57099  33.306  38.058  14.375
88882W        W57100  31.125  18.324   0.859
88883W        W57101   4.382  31.761   3.176
88884W        W57102  22.649  13.844   0.653
88885W        W57103  17.450  30.425  14.779
88886W        W57104  39.461   3.232   3.623
88887W        W57105  41.585   3.801   2.783
88888W        W57106   7.159  18.857   3.805
88889W        W57107  43.795  33.084  11.063
88890W        W57108  27.944  33.547   0.272
88891W        W57109  38.475   8.668   0.876
88892W        W57110  27.878  38.505   3.377
88893W        W57111  15.634  18.919  11.771
88894W        W57112  17.651   6.815  14.841
88895W        W57113  27.976  24.906  14.269
88896W        W57114  38.880  38.674  13.000
88897W        W57115  36.982  35.450  13.867
88898W        W57116  29.899  43.876  12.017
88899W        W57117  28.616  44.506   0.401
88900W        W57118  23.017  25.517  11.871
88901W        W57119  35.430  39.286  11.944
88902W        W57120  17.681  16.143  14.893
88903W        W57121  33.970  18.109   0.753
88904W        W57122  18.214  28.021   1.755
88905W        W57123  26.233  37.592  11.404
88906W        W57124  43.590  31.945   1.310
88907W        W57125  40.485  16.821   2.698
88908W        W57126  33.592  12.000   4.542
88909W        W57127   1.365  30.193  13.144
88910W        W57128  24.038  16.740  14.692
88911W        W57129   5.871  29.034  12.818
88912W        W57130  20.164  34.439   2.308
88913W        W57131  12.284  21.758  13.436
88914W        W57132  22.290  30.798  12.496
88915W        W57133   6.677   2.906  13.743
88916W        W57134   0.868  29.861   4.869
88917W        W57135   4.784  43.119  12.895
88918W        W57136  17.979  22.446   3.692
88919W        W57137  23.065   2.478  11.593
88920W        W57138  32.531   1.523  11.319
88921W        W57139  10.674  27.420  12.985
88922W        W57140   7.967  20.510  12.026
88923W        W57141   6.342  28.230   2.703
88924W        W57142   0.915  34.975  14.442
88925W        W57143  42.228  42.104  12.454
88926W        W57144  19.498   0.770   2.205
88927W        W57145  33.568   1.868  10.779
88928W        W57146  41.439   3.025   1.745
88929W        W57147   2.317  16.045  11.139
88930W        W57148  30.547  15.332   3.209
88931W        W57149  17.845  39.875  13.719
88932W        W57150  40.400  33.524   4.997
88933W        W57151  14.677   7.800   2.339
88934W        W57152  44.334  18.011  12.038
88935W        W57153  24.464  15.296   1.413
88936W        W57154  30.931   6.703   4.065
88937W        W57155   4.802  29.558   4.102
88938W        W57156   4.910  32.614  11.926
88939W        W57157  34.384  16.433   0.788
88940W        W57158  24.386  30.118  10.743
88941W        W57159  43.508   3.829   3.828
88942W        W57160  19.195   9.311   0.770
88943W        W57161  43.801  32.539   0.441
88944W        W57162  26.718  23.260   4.507
88945W        W57163  35.237  11.328  11.358
88946W        W57164  12.748  25.648   1.481
88947W        W57165   7.716  15.702  13.857
88948W        W57166   9.500  39.074   4.000
88949W        W57167  25.645  10.961   3.097
88950W        W57168  44.449   4.296  11.598
88951W        W57169  41.903  25.021   0.611
88952W        W57170  22.326  27.372  11.206
88953W        W57171  17.762  39.335  10.650
88954W        W57172  24.500   7.138   3.768
88955W        W57173  30.866   3.145  13.449
88956W        W57174  25.029  29.914   0.891
88957W        W57175  10.605  24.382   0.333
88958W        W57176   2.928  27.100   1.715
88959W        W57177  24.362  22.970   9.713
88960W        W57178  17.195  28.283   4.769
88961W        W57179  33.508   6.255   3.333
88962W        W57180  36.276   0.499   4.103
88963W        W57181  11.684  29.599   1.464
88964W        W57182  25.541  29.063  12.507
88965W        W57183  23.960  40.917   2.623
88966W        W57184  44.950   1.841  11.159
88967W        W57185  18.294   1.806   4.099
88968W        W57186   5.649  40.117   1.737
88969W        W57187   9.909  18.801   4.168
88970W        W57188  25.638   9.430   3.320
88971W        W57189  39.287  27.531  11.093
88972W        W57190   2.848  11.715   5.047
88973W        W57191  34.877  35.920  14.497
88974W        W57192  15.114  13.883   9.749
88975W        W57193  33.550  36.432  10.615
88976W        W57194  11.324  15.513   2.771
88977W        W57195  24.473  41.886   4.087
88978W        W57196  15.228   1.737  14.991
88979W        W57197   4.800  10.772   3.630
88980W        W57198  24.657  36.412   1.196
88981W        W57199  10.243  12.241  12.610
88982W        W57200   0.887   1.228  11.127
88983W        W57201  24.115  41.734  10.584
88984W        W57202  37.287  26.990   1.889
88985W        W57203   0.969  17.115   4.137
88986W        W57204  38.383  17.012  14.509
88987W        W57205  27.147  16.037   2.750
88988W        W57206  36.903  12.515   1.275
88989W        W57207  33.999   1.989  10.500
88990W        W57208  38.936  34.205   0.872
88991W        W57209  22.597  23.193  11.575
88992W        W57210  41.242  42.245  12.937
88993W        W57211  17.302   0.778   4.078
88994W        W57212  13.691  27.421   1.413
88995W        W57213  26.749  10.374  10.682
88996W        W57214  33.434   6.819   1.880
88997W        W57215  32.399  28.169   2.740
88998W        W57216   8.798  37.404  11.680
88999W        W57217  40.886   2.481  11.062
89000W        W57218   7.353  26.983   2.907
89001W        W57219  33.517  16.071  14.061
89002W        W57220  37.021  24.932  12.494
89003W        W57221  44.226  20.442   0.362
89004W        W57222  19.591  37.570   5.048
89005W        W57223   6.981   8.202   4.338
89006W        W57224   6.613  11.723  13.895
89007W        W57225  20.724   9.798   3.336
89008W        W57226  20.834  37.343  12.341
89009W        W57227  37.398  39.403   2.727
89010W        W57228  15.995  21.597   1.806
89011W        W57229  44.582  19.330  12.550
89012W        W57230  14.599  26.198   1.816
89013W        W57231  32.172   5.176   3.201
89014W        W57232   9.541  16.221   0.957
89015W        W57233  38.692   1.082  12.994
89016W        W57234  28.432  32.644   3.413
89017W        W57235  14.421  22.723   2.687
89018W        W57236   5.721   2.387   1.291
89019W        W57237   6.473  20.680   4.175
89020W        W57238  27.044  28.687   4.322
89021W        W57239  10.387   5.829   1.880
89022W        W57240  21.155   1.203  12.943
89023W        W57241   5.405  28.430   2.703
89024W        W57242  42.370  10.889  14.403
89025W        W57243  40.036  16.204   1.980
89026W        W57244  16.959  20.121  12.051
89027W        W57245  31.718  36.848  11.445
89028W        W57246   8.609  10.879  11.168
89029W        W57247   6.754  11.182  13.418
89030W        W57248  14.899  43.244  11.613
89031W        W57249  30.137  31.937  13.098
89032W        W57250  22.668   9.184   9.853
89033W        W57251  20.638  28.471   0.483
89034W        W57252  30.594   6.836  10.274
89035W        W57253  32.692  26.725   2.013
89036W        W57254  29.533  36.997  11.182
89037W        W57255   4.681   1.816  14.754
89038W        W57256   0.378  39.313   1.672
89039W        W57257  44.974   0.015   2.671
89040W        W57258  44.344   0.264   1.309
89041W        W57259  12.885  32.596   4.784
89042W        W57260   4.061  41.908   9.758
89043W        W57261   4.832  40.364  11.688
89044W        W57262  39.520  27.630  13.392
89045W        W57263  35.206  43.545   1.455
89046W        W57264   7.775  23.300   3.221
89047W        W57265  13.856  21.508  11.490
89048W        W57266   7.279  26.030  10.706
89049W        W57267  21.179  17.534  11.892
89050W        W57268  14.842  32.661  14.273
89051W        W57269  24.553  11.687  14.317
89052W        W57270  14.064  39.770  14.461
89053W        W57271  32.923  34.447  12.479
89054W        W57272  24.377   8.773   0.359
89055W        W57273  19.764  13.848   1.877
89056W        W57274   3.492  15.174  11.102
89057W        W57275  38.178  37.380  13.830
89058W        W57276  39.580  19.692  10.568
89059W        W57277   6.175   3.215  11.450
89060W        W57278  21.589  42.959  10.523
89061W        W57279  29.167  28.552   2.787
89062W        W57280  14.804  15.293   2.738
89063W        W57281   9.709  26.139   4.325
89064W        W57282  33.323   3.704   3.255
89065W        W57283   0.724  24.075   4.097
89066W        W57284  19.944  36.844  13.830
89067W        W57285  37.492   2.283  11.137
89068W        W57286  42.409  33.742  13.008
89069W        W57287  14.138  34.882  10.636
89070W        W57288   9.280   0.288  13.554
89071W        W57289  42.461  27.452   3.639
89072W        W57290   6.711   3.889  14.933
89073W        W57291  19.177  41.770   1.404
89074W        W57292  24.116  26.016  12.385
89075W        W57293   9.072  44.280   4.179
89076W        W57294  25.548   4.366   3.765
89077W        W57295  37.129  44.299  11.610
89078W        W57296  31.534   8.693   4.818
89079W        W57297  10.182  24.088   4.004
89080W        W57298  27.435  28.417  11.549
89081W        W57299   9.302  33.880  11.659
89082W        W57300  18.315   4.992   3.998
89083W        W57301   1.485  21.900   3.183
89084W        W57302  42.539  32.883  13.916
89085W        W57303  44.500   8.886   3.294
89086W        W57304  38.184  30.663  13.413
89087W        W57305   8.963  33.129  14.150
89088W        W57306  36.186  28.994  13.374
89089W        W57307   9.643   3.329  11.275
89090W        W57308  15.568  17.260   4.342
89091W        W57309  11.427  31.501  14.728
89092W        W57310  26.809  17.688   4.534
89093W        W57311  20.578  28.972   1.269
89094W        W57312  20.322  30.537   4.031
89095W        W57313  21.675   7.906  14.914
89096W        W57314   5.070  43.583   2.883
89097W        W57315  24.948  39.744  10.715
89098W        W57316  35.184  31.579  12.950
89099W        W57317  37.950  24.418   4.595
89100W        W57318   1.985  19.244   1.262
89101W        W57319  16.093  30.597  14.566
89102W        W57320  35.442   0.053  11.487
89103W        W57321  16.571  40.888  10.993
89104W        W57322  22.730   5.826   2.314
89105W        W57323  44.958  25.475  14.726
89106W        W57324  37.932  37.607  11.087
89107W        W57325   1.781   7.326  10.716
89108W        W57326   1.997  29.974  14.907
89109W        W57327  18.788  21.675   4.806
89110W        W57328  12.309  28.725  14.352
89111W        W57329   9.908  21.185   4.694
89112W        W57330  24.103   3.759   4.823
89113W        W57331  30.155  43.272   3.794
89114W        W57332  41.728  44.344   4.063
89115W        W57333  25.865  41.365   3.452
89116W        W57334  18.517  25.132   0.917
89117W        W57335  24.708   0.289   1.207
89118W        W57336  40.976  23.377   1.995
89119W        W57337  11.756  44.811   0.473
89120W        W57338  18.613  43.825  11.972
89121W        W57339   1.282  18.269  13.626
89122W        W57340  10.165   9.180  13.451
89123W        W57341  28.562   8.684  11.171
89124W        W57342  16.728  33.907  12.649
89125W        W57343   8.642  42.169  14.802
89126W        W57344  19.672  31.763   1.312
89127W        W57345  22.348   6.579   1.837
89128W        W57346  31.592  15.335   4.998
89129W        W57347  37.339  42.155   2.186
89130W        W57348  15.730   2.199   4.954
89131W        W57349  10.356   0.965   2.416
89132W        W57350  15.927  41.963   0.492
89133W        W57351  16.228  33.469  11.645
89134W        W57352  21.386  27.007   4.135
89135W        W57353  26.295  39.948  12.095
89136W        W57354   3.485  13.683   0.247
89137W        W57355  24.407  21.974   4.979
89138W        W57356  24.553  25.508  14.943
89139W        W57357  40.019  10.092   1.933
89140W        W57358  44.246  35.089   0.478
89141W        W57359  37.363  31.966  14.531
89142W        W57360  39.445  37.525   3.077
89143W        W57361  27.926  44.240   4.260
89144W        W57362  25.252   5.196  13.882
89145W        W57363  21.794   6.264   2.831
89146W        W57364  35.654  41.910   1.741
89147W        W57365  36.573  34.664  14.899
89148W        W57366  23.398   1.960  11.048
89149W        W57367  35.325   0.804   0.362
89150W        W57368  31.231  23.756   3.189
89151W        W57369  42.049  36.833  13.439
89152W        W57370  35.031  13.011  12.099
89153W        W57371  33.906  15.396  14.073
89154W        W57372  35.069  28.718  11.236
89155W        W57373  35.076  31.171   0.425
89156W        W57374   5.430  38.396  14.405
89157W        W57375  35.399  10.854  14.037
89158W        W57376  33.083   6.262  12.153
89159W        W57377  41.945   1.857  10.728
89160W        W57378  28.350  44.715  12.893
89161W        W57379   6.296  20.475   1.447
89162W        W57380  41.016  41.354   0.777
89163W        W57381  43.546  12.749  12.267
89164W        W57382  37.977  24.953   4.598
89165W        W57383  22.318   9.821  12.854
89166W        W57384   5.865  12.798   4.361
89167W        W57385  28.509  35.929   1.819
89168W        W57386  42.300  11.814   0.691
89169W        W57387   4.208  34.172  10.554
89170W        W57388   6.156  28.977  11.626
89171W        W57389  10.753  26.236   1.902
89172W        W57390  29.162   6.506   0.806
89173W        W57391  21.179  36.125   3.342
89174W        W57392  25.194  34.819  13.717
89175W        W57393  24.248  16.282   2.013
89176W        W57394  18.021  13.383   2.231
89177W        W57395  29.982  31.307   2.265
89178W        W57396   1.844  44.076   1.948
89179W        W57397   3.473  30.486   1.604
89180W        W57398  11.260  42.557   3.548
89181W        W57399   0.789   3.294   3.807
89182W        W57400  37.310  30.120   2.353
89183W        W57401  44.062  18.989   4.924
89184W        W57402  11.851  29.872  12.472
89185W        W57403  26.115  40.942   1.610
89186W        W57404  44.784  19.815  14.538
89187W        W57405  10.146  29.556  11.361
89188W        W57406   5.939   2.187  14.017
89189W        W57407   3.191  40.429   0.230
89190W        W57408  29.008  31.125   3.681
89191W        W57409   8.307  21.236  11.571
89192W        W57410  13.064  22.057   3.881
89193W        W57411  14.261  38.907  12.903
89194W        W57412  24.023   5.809  13.028
89195W        W57413  20.779  12.525   4.359
89196W        W57414  18.797  23.296   0.987
89197W        W57415   3.281  18.455  11.524
89198W        W57416  30.132  31.294  14.259
89199W        W57417  25.499   2.520  10.625
89200W        W57418   8.181   6.332  14.158
89201W        W57419  42.513   4.562  13.053
89202W        W57420  11.100  32.669  12.299
89203W        W57421  25.938  13.735   2.863
89204W        W57422  29.909   4.966  11.137
89205W        W57423  30.991  12.611   4.595
89206W        W57424  18.567   0.205  14.915
89207W        W57425  15.192  35.554  10.670
89208W        W57426  23.760   8.265  10.487
89209W        W57427  44.992  33.157   4.158
89210W        W57428  31.482  22.782   2.817
89211W        W57429  39.544  22.008   2.681
89212W        W57430   4.498  11.109  13.280
89213W        W57431  13.024  13.170  10.736
89214W        W57432  10.295  25.911  10.816
89215W        W57433  20.115  14.603   0.887
89216W        W57434  29.931  34.739   1.777
89217W        W57435   7.363  27.522  12.033
89218W        W57436  26.450  27.494   3.857
89219W        W57437   9.717  17.299  14.495
89220W        W57438  12.113  24.563  12.899
89221W        W57439  20.681  27.487  14.253
89222W        W57440   2.838  30.996  12.873
89223W        W57441  42.489  34.279   3.594
89224W        W57442  20.526  44.969  13.132
89225W        W57443  43.423  33.922   0.516
89226W        W57444  32.457  38.316   3.727
89227W        W57445  39.528  44.783   4.525
89228W        W57446  22.572   2.505   4.205
89229W        W57447  34.437  26.775   2.651
89230W        W57448  27.658  17.008  12.516
89231W        W57449  39.482  12.044  14.989
89232W        W57450  29.509   2.346   0.807
89233W        W57451   0.516  23.773  12.365
89234W        W57452  14.853  27.116   4.263
89235W        W57453   3.039  37.863   1.966
89236W        W57454  40.766  11.817  11.620
89237W        W57455  35.137  12.814  14.929
89238W        W57456   9.837  31.154  11.037
89239W        W57457  22.215  27.503   0.961
89240W        W57458  31.993  29.822   1.696
89241W        W57459  30.444  26.748   3.321
89242W        W57460  31.359  43.505   4.215
89243W        W57461   6.186  21.160  13.615
89244W        W57462  20.119   2.642  14.853
89245W        W57463  44.784  29.058   3.861
89246W        W57464  37.853  40.336   1.102
89247W        W57465  10.223   5.854  11.128
89248W        W57466  24.413   6.415   4.235
89249W        W57467   3.414  43.235  12.531
89250W        W57468  35.904  20.246   4.195
89251W        W57469  17.730  15.675   2.118
89252W        W57470  44.447  33.483   4.037
89253W        W57471  43.507  42.818   0.330
89254W        W57472  25.851  14.096   4.783
89255W        W57473  18.476   6.108  10.275
89256W        W57474   2.422   1.292  13.335
89257W        W57475  15.632  31.916   4.835
89258W        W57476   7.083  19.177   0.775
89259W        W57477  18.692  30.960  14.776
89260W        W57478  14.232  18.968   1.950
89261W        W57479  13.380  23.509  12.460
89262W        W57480  11.716  25.364   2.746
89263W        W57481   6.246  31.382   3.635
89264W        W57482  27.013  21.487  10.178
89265W        W57483  29.600   1.019  13.685
89266W        W57484  12.891  10.809   0.464
89267W        W57485  38.377   4.729  10.604
89268W        W57486  19.720  30.655   3.666
89269W        W57487   5.233  39.137  11.820
89270W        W57488   9.778  23.190  14.430
89271W        W57489  41.824  11.742   1.742
89272W        W57490  27.920   3.322   4.508
89273W        W57491  18.540  10.194  13.470
89274W        W57492  37.439  40.375   0.749
89275W        W57493   8.662  14.321  11.608
89276W        W57494  23.929  17.295   3.784
89277W        W57495  26.139  35.917  13.741
89278W        W57496  30.368  17.215  14.950
89279W        W57497   3.454  36.318   0.475
89280W        W57498  33.687  12.693   1.766
89281W        W57499  17.074   0.031   0.766
89282W        W57500   6.143  25.524  13.989
89283W        W57501  26.277   4.348   1.400
89284W        W57502  29.420  23.717   0.214
89285W        W57503  19.575  10.084   3.199
89286W        W57504   2.305  38.121  10.983
89287W        W57505  41.443  23.755  11.382
89288W        W57506  20.145  29.905   3.704
89289W        W57507  24.978   9.182   4.702
89290W        W57508  25.207  26.094  14.986
89291W        W57509  31.626   7.888  13.625
89292W        W57510   2.320  19.747   2.936
89293W        W57511  21.824  33.621  11.465
89294W        W57512  26.222  12.936  12.976
89295W        W57513  10.102  17.397  13.318
89296W        W57514   4.669  30.490  12.335
89297W        W57515  25.484  40.032  12.546
89298W        W57516  23.295   3.400  14.554
89299W        W57517   0.311  35.180   1.850
89300W        W57518  32.502  39.462  11.504
89301W        W57519  17.607  29.901   2.029
89302W        W57520  17.262   2.219  12.020
89303W        W57521  31.521  37.333   0.401
89304W        W57522  33.280   5.306   2.576
89305W        W57523   1.404  35.597   2.804
89306W        W57524  43.946  37.984   2.914
89307W        W57525  43.548   6.075  13.919
89308W        W57526  18.672   1.704  13.979
89309W        W57527  34.120  18.674   2.210
89310W        W57528   5.878   1.772   0.900
89311W        W57529   0.399  35.399  11.631
89312W        W57530  15.094  44.274  10.636
89313W        W57531   3.351   6.780   4.554
89314W        W57532   7.859   5.919  12.771
89315W        W57533  10.181   6.138  12.418
89316W        W57534  18.018  10.008  11.146
89317W        W57535  20.576  33.964   3.841
89318W        W57536  16.786  42.244   3.322
89319W        W57537  37.357  26.393   2.746
89320W        W57538  19.110  14.303   2.793
89321W        W57539   1.730  12.087  12.132
89322W        W57540   2.395   0.625  12.038
89323W        W57541   5.867  37.177  10.602
89324W        W57542   5.904   0.381  12.791
89325W        W57543  41.214   7.872   2.418
89326W        W57544  16.061  14.686   3.964
89327W        W57545  22.136  21.049   4.530
89328W        W57546  21.227  24.340   1.456
89329W        W57547   2.213   3.949   2.722
89330W        W57548  22.734  19.079  14.709
89331W        W57549  37.869  14.261   3.660
89332W        W57550  21.586   1.938  11.425
89333W        W57551  36.406  43.296   4.159
89334W        W57552  22.356   6.194  11.611
89335W        W57553  19.759  25.847  10.669
89336W        W57554  28.077  27.175   2.548
89337W        W57555  17.814  41.328   1.361
89338W        W57556  34.339  34.089   0.260
89339W        W57557  33.405  11.155   2.289
89340W        W57558  44.941  24.521  10.662
89341W        W57559  28.578  17.144  12.489
89342W        W57560  25.375  37.101  11.014
89343W        W57561   4.652  10.264   4.514
89344W        W57562  43.705  29.159   3.611
89345W        W57563   0.912   6.942  14.577
89346W        W57564  34.364  30.074   3.372
89347W        W57565  16.592  43.702   4.717
89348W        W57566  12.371  13.204   1.190
89349W        W57567  26.017  19.415   0.641
89350W        W57568  22.298  40.309  11.210
89351W        W57569  27.215  21.216  11.615
89352W        W57570  22.466  36.872  14.362
89353W        W57571  33.791   0.328  13.980
89354W        W57572  44.385  35.943   2.918
89355W        W57573  28.840  12.445  10.709
89356W        W57574  37.637  35.655   4.237
89357W        W57575  31.225   6.422   9.709
89358W        W57576  18.349   6.456  13.595
89359W        W57577  42.420  13.936   2.446
89360W        W57578   8.564  13.904   0.944
89361W        W57579  19.743   3.658  12.910
89362W        W57580  11.701  31.956  11.890
89363W        W57581  40.475  22.726   2.260
89364W        W57582  13.691   5.444   3.668
89365W        W57583  25.931   8.629   2.168
89366W        W57584  39.835   5.506   0.979
89367W        W57585   7.774  23.522  14.325
89368W        W57586  33.707  36.081   2.255
89369W        W57587  34.044   5.670   2.428
89370W        W57588  25.979  32.403   1.903
89371W        W57589   2.340  39.417  11.115
89372W        W57590   2.649  32.267   1.543
89373W        W57591  36.132   3.581   3.196
89374W        W57592  12.671  35.676   2.752
89375W        W57593  36.975  26.066  13.503
89376W        W57594  15.112  29.686  11.518
89377W        W57595  38.445  22.678   4.645
89378W        W57596  21.451   4.726   3.315
89379W        W57597  33.412   8.730  14.063
89380W        W57598   0.222  21.073  14.901
89381W        W57599  41.634  20.811  13.807
89382W        W57600  31.631  15.808  14.824
89383W        W57601  20.558   1.036   1.005
89384W        W57602  36.854   7.605  11.554
89385W        W57603  43.954  31.092  14.324
89386W        W57604  42.425  14.619  13.000
89387W        W57605   3.874   5.248  14.283
89388W        W57606   5.886  27.545   0.855
89389W        W57607   4.049  24.273  12.047
89390W        W57608  44.394  36.696  14.802
89391W        W57609  40.868  42.515  13.932
89392W        W57610  18.360   5.893  11.145
89393W        W57611  28.180  16.620   1.907
89394W        W57612   9.661  36.651   2.356
89395W        W57613   0.889   8.881   1.655
89396W        W57614  15.554  31.363   2.707
89397W        W57615  38.525  23.501  14.000
89398W        W57616  23.753  11.359  13.286
89399W        W57617  44.711  37.393   0.505
89400W        W57618  24.498   0.900  14.538
89401W        W57619  39.370  33.779   2.744
89402W        W57620  38.072   8.513   2.867
89403W        W57621  30.659  11.810   0.084
89404W        W57622  15.790   2.247   4.298
89405W        W57623  25.170   9.249  10.695
89406W        W57624  18.599  16.567   1.302
89407W        W57625  24.003   1.403   0.292
89408W        W57626   3.829  20.967   1.874
89409W        W57627   7.373  38.134   1.783
89410W        W57628  11.980  13.782   1.909
89411W        W57629  38.980  37.414   0.445
89412W        W57630  11.784  42.004   4.135
89413W        W57631  41.353  31.137  11.587
89414W        W57632   0.205  40.994   3.720
89415W        W57633  33.983  27.401  11.361
89416W        W57634  21.632  22.421  12.983
89417W        W57635   8.568  39.811   4.157
89418W        W57636  44.691   8.765  11.575
89419W        W57637   7.873  26.425   1.793
89420W        W57638  25.573  29.459  11.182
89421W        W57639  36.046   7.773   0.725
89422W        W57640   1.705  43.245   1.431
89423W        W57641   1.428  43.275  14.725
89424W        W57642  35.981  29.145  10.544
89425W        W57643   0.723  25.736   2.704
89426W        W57644   1.807  13.180  13.490
89427W        W57645  24.946  21.097   4.403
89428W        W57646  18.805   6.005   4.089
89429W        W57647  43.934   3.375   2.741
89430W        W57648  23.140  39.193   1.700
89431W        W57649  18.311  37.376   2.782
89432W        W57650   6.340  15.750   0.268
89433W        W57651   0.614  27.965  12.452
89434W        W57652  19.319   4.818   0.865
89435W        W57653   2.365  26.019   3.786
89436W        W57654  23.052  29.293   3.830
89437W        W57655  27.890  22.038  13.982
89438W        W57656  18.851   0.458  13.210
89439W        W57657  14.830  19.681   0.953
89440W        W57658   1.359  27.146   1.951
89441W        W57659   3.683  34.123  12.902
89442W        W57660   1.063  30.465   2.140
89443W        W57661  12.903   4.914   2.816
89444W        W57662  13.663  22.997   4.695
89445W        W57663  19.495  28.974   2.772
89446W        W57664  11.980  31.333   1.008
89447W        W57665  11.764   4.340   2.625
89448W        W57666  21.895   8.290   1.460
89449W        W57667  28.165  10.430  13.009
89450W        W57668  32.572   2.303   2.160
89451W        W57669  42.110  35.545  11.970
89452W        W57670  15.713  14.708   2.201
89453W        W57671  42.519   4.704   4.627
89454W        W57672  14.131   4.245   0.811
89455W        W57673  12.376  26.787  12.081
89456W        W57674  29.924  24.956   3.943
89457W        W57675   0.692  44.065  12.980
89458W        W57676  35.877   3.561  14.583
89459W        W57677  25.436  42.558   3.848
89460W        W57678   6.168  29.521   0.727
89461W        W57679  22.286   7.358  14.446
89462W        W57680  35.845   6.211  14.003
89463W        W57681  27.369  33.549  13.035
89464W        W57682  28.476  41.074  13.058
89465W        W57683  35.089  31.852   3.191
89466W        W57684  18.834  40.317  12.586
89467W        W57685  20.484  21.025   0.257
89468W        W57686   4.611  42.464   1.806
89469W        W57687  36.535  33.595   1.492
89470W        W57688  16.633  19.724   3.428
89471W        W57689   1.638  17.650   4.488
89472W        W57690  31.490   8.678   1.251
89473W        W57691  44.461   4.483  12.064
89474W        W57692  44.401  24.538   3.637
89475W        W57693  15.357  14.160  14.354
89476W        W57694   0.373  39.766  14.808
89477W        W57695  30.925  26.229  12.965
89478W        W57696  25.988   9.642   1.754
89479W        W57697  24.957  16.730  11.541
89480W        W57698   6.763  36.747   1.803
89481W        W57699  39.942  14.691   0.016
89482W        W57700  33.716  24.151  11.854
89483W        W57701  33.105  37.122  14.149
89484W        W57702   6.401  17.588  12.860
89485W        W57703  44.010  23.061  10.473
89486W        W57704  34.494   6.876   3.574
89487W        W57705  24.465   4.996   0.578
89488W        W57706  31.634  15.805  11.593
89489W        W57707  40.918  30.165  14.539
89490W        W57708  39.844  15.595  10.455
89491W        W57709  43.288  17.486  12.795
89492W        W57710   5.259   2.530   2.265
89493W        W57711  34.889   0.462  12.844
89494W        W57712  37.092   6.268   0.387
89495W        W57713  21.595  36.338  13.355
89496W        W57714   5.972   9.868   4.536
89497W        W57715  39.165  32.882  13.754
89498W        W57716  24.341  26.100  10.442
89499W        W57717  38.120   2.436  12.966
89500W        W57718   7.651   1.824   3.620
89501W        W57719  10.663   5.600  11.187
89502W        W57720  12.568   8.211   4.170
89503W        W57721  14.032   2.838   0.408
89504W        W57722  31.020   5.499   1.781
89505W        W57723  36.951  18.088   1.747
89506W        W57724  21.614  43.244   3.294
89507W        W57725   4.798   5.232  13.375
89508W        W57726  39.096  14.144   2.312
89509W        W57727  10.391  36.799  13.128
89510W        W57728  12.168  24.472   4.693
89511W        W57729  14.629   1.894  11.742
89512W        W57730  39.537   6.738  10.774
89513W        W57731  42.904   5.212   3.184
89514W        W57732  12.506  15.694   4.406
89515W        W57733  40.548  29.020  11.152
89516W        W57734  25.591  32.156  13.309
89517W        W57735  21.901  12.126   3.617
89518W        W57736  19.704  27.762   3.147
89519W        W57737   1.433  10.577  10.254
89520W        W57738  27.446  18.210   2.930
89521W        W57739   6.810  21.222   0.781
89522W        W57740  19.521  24.082   3.089
89523W        W57741  34.519  29.104   3.652
89524W        W57742  17.098  31.662  11.148
89525W        W57743  36.259  41.942  13.597
89526W        W57744  43.521  26.651  11.230
89527W        W57745  13.720  36.791   2.830
89528W        W57746  23.428  42.821   2.292
89529W        W57747  18.855  31.158   3.229
89530W        W57748  44.243   9.400   9.839
89531W        W57749   5.319  29.526  11.534
89532W        W57750  35.344  40.541  11.107
89533W        W57751  21.569  29.991  12.411
89534W        W57752  15.295  28.950  13.403
89535W        W57753  27.568   6.591  13.689
89536W        W57754  38.844   3.851  10.896
89537W        W57755  35.377  29.153   1.549
89538W        W57756  36.065   9.654  11.140
89539W        W57757  41.025  34.077  14.407
89540W        W57758  25.938  15.064   3.425
89541W        W57759  23.897   8.664   3.051
89542W        W57760  40.913  17.600  11.202
89543W        W57761  12.123  41.431  14.088
89544W        W57762  37.592  17.313  12.991
89545W        W57763  32.616  35.030   1.203
89546W        W57764  21.304  27.868   5.071
89547W        W57765  32.842   6.908   3.294
89548W        W57766   3.890  27.722  11.733
89549W        W57767  11.942  36.610  11.079
89550W        W57768  20.691  22.105  11.631
89551W        W57769  23.238  29.468  12.011
89552W        W57770  12.669  19.752   0.710
89553W        W57771  33.554   8.816   4.077
89554W        W57772  36.641  22.793  14.373
89555W        W57773  24.488   2.952  11.991
89556W        W57774  24.365   3.718   0.469
89557W        W57775  12.749   9.829  12.092
89558W        W57776  31.882   0.481  14.398
89559W        W57777  33.646   0.155   0.935
89560W        W57778  33.375  41.910   2.248
89561W        W57779  31.554  22.320  11.598
89562W        W57780  14.048  28.529   4.684
89563W        W57781  16.494  15.032   9.712
89564W        W57782  24.659  18.324   0.758
89565W        W57783  40.841  33.093  10.505
89566W        W57784   8.367  32.341  10.598
89567W        W57785  18.203  27.053   4.303
89568W        W57786  13.108   7.844  12.635
89569W        W57787  10.847  10.235   2.387
89570W        W57788  41.968  13.842   2.160
89571W        W57789  40.760   5.605   0.123
89572W        W57790  36.392  10.310   3.160
89573W        W57791  22.661  35.812   1.712
89574W        W57792  24.918   3.712   0.377
89575W        W57793   8.142  13.935  13.848
89576W        W57794  31.205  25.682   2.851
89577W        W57795  38.399  34.787   3.202
89578W        W57796   5.166  18.244   1.219
89579W        W57797  12.276  13.063  12.588
89580W        W57798  41.277  12.825   1.500
89581W        W57799  28.601  37.368  11.748
89582W        W57800  27.460  35.951   3.753
89583W        W57801  17.752  35.316  12.932
89584W        W57802  35.883  38.783   3.360
89585W        W57803   1.952  40.423  11.584
89586W        W57804  19.043  30.965   4.988
89587W        W57805   4.182  22.465   2.264
89588W        W57806   5.808   4.422  10.649
89589W        W57807  41.340  25.220  14.294
89590W        W57808  39.909  14.055   4.349
89591W        W57809  40.754   3.913   1.676
89592W        W57810   9.868  30.681  12.867
89593W        W57811   3.793  41.878   4.594
89594W        W57812  20.540  31.519   1.602
89595W        W57813   4.181  23.439   0.378
89596W        W57814  32.992  20.478   1.882
89597W        W57815  22.734  42.714  10.713
89598W        W57816  24.999  28.223  11.763
89599W        W57817  41.818  44.948  14.998
89600W        W57818  42.878  20.102  11.184
89601W        W57819  39.285  12.818  14.592
89602W        W57820   9.479  33.354  13.472
89603W        W57821   3.519  26.614  10.781
89604W        W57822  38.268  14.656  12.889
89605W        W57823  31.157  30.642   5.001
89606W        W57824  21.955  24.210   4.496
89607W        W57825  40.220  28.615  12.028
89608W        W57826  29.031  22.723  13.102
89609W        W57827  32.732  12.190  14.348
89610W        W57828  32.800  41.837   4.330
89611W        W57829  44.645  12.325  11.050
89612W        W57830  44.188  12.407  14.357
89613W        W57831   2.802  26.117  11.634
89614W        W57832  34.141   5.315   4.612
89615W        W57833  21.455   3.661   5.312
89616W        W57834  17.647  36.930   4.589
89617W        W57835  32.937  44.406  12.041
89618W        W57836  34.093   8.255  14.392
89619W        W57837   0.742  16.814  14.742
89620W        W57838  33.568  23.171  13.162
89621W        W57839  22.182   7.602   1.836
89622W        W57840   7.216  16.532   1.219
89623W        W57841  18.066  15.331   1.308
89624W        W57842  41.307  36.457   0.813
89625W        W57843  21.316  41.985   2.206
89626W        W57844  31.897  18.132   4.306
89627W        W57845  33.960  38.308   3.172
89628W        W57846  17.180  30.891   2.740
89629W        W57847  28.957  44.795   0.982
89630W        W57848  29.516  12.634  11.597
89631W        W57849  20.796   7.909  11.403
89632W        W57850  16.581   4.972   1.249
89633W        W57851  33.782  36.288   0.759
89634W        W57852  44.979   7.345   4.533
89635W        W57853  38.930  16.332   1.342
89636W        W57854  37.400  34.329  11.496
89637W        W57855  39.505  32.091  14.874
89638W        W57856   1.329  25.260  12.400
89639W        W57857  26.050  44.445   1.634
89640W        W57858  38.504  14.608  13.851
89641W        W57859  32.710  20.321  12.033
89642W        W57860  26.481   5.843   2.164
89643W        W57861  41.381   2.807  13.743
89644W        W57862  10.875  24.029  11.069
89645W        W57863  15.856   6.073   3.151
89646W        W57864   6.757  44.044   2.325
89647W        W57865   8.605   4.198   1.788
89648W        W57866   7.856  34.892   1.272
89649W        W57867  41.904  21.106   3.634
89650W        W57868  23.628  24.006  14.224
89651W        W57869  13.681  21.030  14.434
89652W        W57870  34.670  10.234   2.270
89653W        W57871  44.722  11.858   3.253
89654W        W57872  16.995  17.733  13.343
89655W        W57873  38.072  14.674   2.893
89656W        W57874  18.330  36.462   1.659
89657W        W57875  18.733  31.134  13.849
89658W        W57876  15.578  33.479  10.630
89659W        W57877  14.650  41.765  14.434
89660W        W57878  32.846  30.960   2.268
89661W        W57879  18.821   7.430  14.046
89662W        W57880  23.805  10.838  11.184
89663W        W57881  41.504  22.919  12.488
89664W        W57882  27.906  14.688   0.308
89665W        W57883   8.064  34.063  14.449
89666W        W57884   1.966  27.447   0.490
89667W        W57885  38.543  16.885   0.870
89668W        W57886  17.232   1.508   0.816
89669W        W57887  39.561  24.247   2.816
89670W        W57888   2.979   5.221  14.518
89671W        W57889  39.428  21.295   4.396
89672W        W57890  23.936  30.442  12.950
89673W        W57891  25.770  13.628   5.031
89674W        W57892  33.448   2.421  12.967
89675W        W57893  11.390  15.416  12.011
89676W        W57894  21.244  42.022   0.379
89677W        W57895  35.922   2.891   4.251
89678W        W57896  43.925   5.356  10.959
89679W        W57897  17.270  19.080  11.323
89680W        W57898  10.535  14.267  12.499
89681W        W57899   4.364  18.912   3.288
89682W        W57900  41.810  25.367   3.824
89683W        W57901  24.248  27.654  14.903
89684W        W57902  24.299  37.414   9.844
89685W        W57903   9.863  39.589  11.853
89686W        W57904  29.097  30.150   4.741
89687W        W57905  30.524   1.904  12.085
89688W        W57906   0.763   8.456   2.949
89689W        W57907  11.895   0.292   4.169
89690W        W57908  12.694  30.451  10.756
89691W        W57909  40.556   6.222   3.431
89692W        W57910  15.327   2.449   4.068
89693W        W57911  23.100  25.444   4.595
89694W        W57912  36.898   5.260   2.891
89695W        W57913  14.118  21.626  12.412
89696W        W57914  16.751  13.380  14.278
89697W        W57915  11.130  11.724   2.293
89698W        W57916  34.055  27.932   1.333
89699W        W57917   4.847  25.429  14.703
89700W        W57918   1.919  17.784   1.841
89701W        W57919  12.245  28.378  11.934
89702W        W57920   0.234  17.180   0.329
89703W        W57921  30.189  21.063  11.712
89704W        W57922  33.206  37.997   3.412
89705W        W57923   5.145  32.005  14.047
89706W        W57924   8.895  21.641   1.748
89707W        W57925  38.487  19.556   2.424
89708W        W57926  11.680  22.172  14.044
89709W        W57927  41.040  29.706  13.881
89710W        W57928  21.141  43.366  12.539
89711W        W57929  30.496  11.499  13.806
89712W        W57930  29.124  24.003  12.521
89713W        W57931   3.466  14.330   0.897
89714W        W57932  25.458  40.340   1.091
89715W        W57933  42.438  40.614  12.330
89716W        W57934  10.977  27.486   1.702
89717W        W57935  17.935  27.853  10.968
89718W        W57936   1.203  37.237   1.285
89719W        W57937  30.911  39.470   0.789
89720W        W57938   2.659  37.096   0.726
89721W        W57939  12.598  38.978  10.563
89722W        W57940   3.248  12.306  10.789
89723W        W57941  33.071  35.989  13.026
89724W        W57942  25.615  43.449   4.664
89725W        W57943  20.630  26.000  11.768
89726W        W57944  17.920  14.393  14.001
89727W        W57945  12.316  17.247  13.970
89728W        W57946  37.877  10.704   4.905
89729W        W57947  29.107  26.248   2.836
89730W        W57948  26.956  24.494   3.775
89731W        W57949  44.115  27.658  14.525
89732W        W57950   1.435   3.978   1.186
89733W        W57951  28.467  15.011   2.472
89734W        W57952  40.553  44.846   2.803
89735W        W57953  12.621  21.651   0.955
89736W        W57954   7.872  30.436  13.032
89737W        W57955   6.859  42.317  11.554
89738W        W57956  27.933   0.590   1.691
89739W        W57957  34.060   8.972   2.342
89740W        W57958   3.833   6.729   0.354
89741W        W57959  39.773  41.061  14.946
89742W        W57960   8.416  43.296   0.390
89743W        W57961  31.616   9.204  13.512
89744W        W57962  14.628  32.173   0.394
89745W        W57963  32.477  15.109  12.667
89746W        W57964  10.759  43.603   1.022
89747W        W57965  22.708  26.171   4.503
89748W        W57966   1.909  33.633  14.050
89749W        W57967   2.138  21.025  14.288
89750W        W57968   6.855  18.164  12.428
89751W        W57969  29.858  23.571   0.500
89752W        W57970  43.210  38.215  12.632
89753W        W57971   6.723  19.852   4.544
89754W        W57972  20.007  37.247  14.633
89755W        W57973   5.635  16.804   4.091
89756W        W57974  17.033  12.220  12.958
89757W        W57975   2.429  27.932   2.974
89758W        W57976   3.569  15.611  12.406
89759W        W57977   9.887  15.512  12.650
89760W        W57978  12.096  38.881  13.404
89761W        W57979  40.462   3.003   0.214
89762W        W57980  29.270   8.775  14.176
89763W        W57981  35.074  20.505   1.420
89764W        W57982  44.829  27.150   1.188
89765W        W57983  16.198  41.595  12.570
89766W        W57984  21.928  10.907   3.253
89767W        W57985   5.437  34.123   4.623
89768W        W57986  21.559   0.077  13.565
89769W        W57987   6.280   7.096   4.166
89770W        W57988   7.623   4.011   0.782
89771W        W57989  27.945   2.188  12.487
89772W        W57990  39.499  10.705  14.897
89773W        W57991  35.997  10.215   0.531
89774W        W57992  11.899   5.101   0.957
89775W        W57993  44.506  32.871   3.307
89776W        W57994  40.909  35.350   0.828
89777W        W57995  23.035   1.556   4.996
89778W        W57996  19.167  23.449  13.769
89779W        W57997  17.632  42.453  10.714
89780W        W57998  11.761  24.674   4.074
89781W        W57999  14.572  41.930  12.842
89782W        W58000  24.129  33.559  12.822
89783W        W58001  41.689   3.361   0.489
89784W        W58002  25.551  37.538   1.203
89785W        W58003   5.442  38.048  11.105
89786W        W58004  30.746  14.546   3.638
89787W        W58005  23.618  14.130  10.708
89788W        W58006  25.631  35.380   3.945
89789W        W58007  16.350  43.475  12.519
89790W        W58008  24.980  28.648   4.136
89791W        W58009  30.563  29.439  11.497
89792W        W58010   1.255  21.422  11.123
89793W        W58011  24.102  19.150  14.876
89794W        W58012   9.002  42.611   2.749
89795W        W58013  33.310  38.248   1.335
89796W        W58014   6.389  34.747  10.288
89797W        W58015  15.108  38.219  11.073
89798W        W58016  22.070  22.637  14.736
89799W        W58017  22.555  14.232  10.576
89800W        W58018  40.646   1.460   1.383
89801W        W58019  31.153  19.511   1.654
89802W        W58020  33.296  26.776   0.708
89803W        W58021   5.647  35.065   0.500
89804W        W58022  22.702  12.043  13.403
89805W        W58023  21.939  24.083   0.923
89806W        W58024   7.645  38.137  12.858
89807W        W58025  24.934  29.094   4.516
89808W        W58026   0.742  14.432  12.547
89809W        W58027   0.932  19.998   4.203
89810W        W58028  11.102  15.652   3.769
89811W        W58029  14.850   0.920  14.968
89812W        W58030  14.679  23.046  10.715
89813W        W58031  22.462  15.698   3.251
89814W        W58032   8.319  39.023  10.881
89815W        W58033  34.274   8.287  12.517
89816W        W58034  13.781  36.983  13.927
89817W        W58035  28.108  24.696  11.505
89818W        W58036   4.755   0.690   4.218
89819W        W58037  11.830  32.618   3.833
89820W        W58038  21.667  40.250   2.277
89821W        W58039  21.362  37.022   1.779
89822W        W58040   3.185  13.752   1.677
89823W        W58041   7.685  28.144  11.959
89824W        W58042  22.913  16.031   9.968
89825W        W58043  13.642  22.222   2.869
89826W        W58044  21.068  41.927   2.762
89827W        W58045  41.408  40.980  11.728
89828W        W58046   4.506  33.418   1.417
89829W        W58047  30.939  12.282   3.084
89830W        W58048  40.386  42.570   4.579
89831W        W58049  28.030  33.417   2.092
89832W        W58050   3.554  14.658   1.339
89833W        W58051  13.770  20.718  13.755
89834W        W58052  17.124  29.182   0.831
89835W        W58053  17.395   8.928   5.123
89836W        W58054   7.826  28.496   1.843
89837W        W58055  12.816  13.617  12.124
89838W        W58056  17.629   0.970   4.995
89839W        W58057  41.804  26.366   3.713
89840W        W58058  34.412  42.708  12.820
89841W        W58059   6.510   8.732   4.889
89842W        W58060   3.134   3.712   1.798
89843W        W58061  27.034  42.576  14.337
89844W        W58062  36.270  26.515   9.953
89845W        W58063  34.074  40.343  14.845
89846W        W58064   7.416  29.873   3.439
89847W        W58065  40.266  21.894  14.001
89848W        W58066  28.103  32.741   1.297
89849W        W58067  26.173   3.415   4.229
89850W        W58068   5.160  21.260  13.815
89851W        W58069   4.768  18.542   1.380
89852W        W58070  12.988   5.159  10.986
89853W        W58071  33.471  31.759  14.926
89854W        W58072  19.704  16.728   4.937
89855W        W58073   2.659  21.684  11.457
89856W        W58074  22.172  11.583  12.955
89857W        W58075  18.834  24.187  11.538
89858W        W58076  42.397  18.228  12.419
89859W        W58077  43.440  16.835   1.626
89860W        W58078  19.101  18.301  13.477
89861W        W58079  31.580  34.642  10.657
89862W        W58080   1.092  34.010   2.812
89863W        W58081  44.927   9.230  12.628
89864W        W58082   3.490   2.260   0.908
89865W        W58083  29.173   8.259   1.394
89866W        W58084  34.449  12.190   4.606
89867W        W58085  20.748  15.553   4.129
89868W        W58086  10.666   8.138   2.145
89869W        W58087  40.698  28.785   0.352
89870W        W58088  39.379  33.459   0.959
89871W        W58089  34.686  37.797   1.443
89872W        W58090  38.710  24.492  11.723
89873W        W58091  36.132  32.512  11.785
89874W        W58092  25.111  18.530   0.619
89875W        W58093  39.492  39.358  10.569
89876W        W58094  16.990   5.805   4.524
89877W        W58095  37.228  43.733   2.485
89878W        W58096  35.060  36.390  11.873
89879W        W58097  32.606   9.830   0.433
89880W        W58098  18.859   4.537  13.914
89881W        W58099  35.627  32.338   3.772
89882W        W58100   5.797  15.816  13.094
89883W        W58101  26.536  19.733  10.278
89884W        W58102  20.819  20.945  14.338
89885W        W58103   6.204   6.263   4.779
89886W        W58104  33.297  25.032  14.876
89887W        W58105  44.463  24.764  12.916
89888W        W58106  44.435  11.414  10.232
89889W        W58107   9.494  31.010  13.526
89890W        W58108  44.181  16.838  11.965
89891W        W58109  33.494  23.516   1.820
89892W        W58110  38.986  38.133  10.312
89893W        W58111   1.795  20.978  10.549
89894W        W58112   3.705  21.554  12.956
89895W        W58113  20.638  43.443  12.423
89896W        W58114   4.646   6.829   5.069
89897W        W58115  43.991  18.289   1.850
89898W        W58116   8.811  16.764   3.185
89899W        W58117  11.129  21.263   2.309
89900W        W58118  40.567   1.263  10.696
89901W        W58119  41.666  40.430  12.819
89902W        W58120   1.704  34.317  11.490
89903W        W58121  35.435   8.835  11.032
89904W        W58122  43.791   9.891  10.727
89905W        W58123   1.297   5.875  12.441
89906W        W58124  23.740  32.409  13.478
89907W        W58125  15.346   3.293  11.621
89908W        W58126  29.717   8.986  11.668
89909W        W58127  22.661  31.924  12.331
89910W        W58128  21.094   0.768  14.744
89911W        W58129  29.201  13.299   4.511
89912W        W58130  29.046   9.236  10.661
89913W        W58131  21.155  36.646  13.425
89914W        W58132  41.136   3.411   5.410
89915W        W58133   2.763   5.353  12.384
89916W        W58134   9.930   3.944   2.920
89917W        W58135  11.117  37.098  11.927
89918W        W58136  41.847  17.614   4.882
89919W        W58137  39.411  17.423  11.921
89920W        W58138  44.571  32.148  10.723
89921W        W58139  19.523  15.606  12.412
89922W        W58140  36.040  16.353  10.765
89923W        W58141  39.757  40.381   0.753
89924W        W58142  30.596  37.979  12.513
89925W        W58143  12.143  33.349   2.685
89926W        W58144  13.411  36.137  12.410
89927W        W58145   3.778  28.371   3.357
89928W        W58146  37.957  25.502   4.577
89929W        W58147  26.819  15.311  13.425
89930W        W58148   8.656   6.141   3.133
89931W        W58149  14.802  43.998   0.849
89932W        W58150   9.457   5.945  12.873
89933W        W58151  18.609   9.959   3.771
89934W        W58152  17.380   6.834   1.811
89935W        W58153  27.169   1.982  13.046
89936W        W58154   9.712  29.809  11.150
89937W        W58155  41.820  40.628  14.467
89938W        W58156  43.566  12.694   1.131
89939W        W58157   9.997  28.990  13.290
89940W        W58158  41.010  10.099   0.851
89941W        W58159  27.936  14.098  11.599
89942W        W58160  41.435  10.815  10.449
89943W        W58161  26.921   7.735   2.309
89944W        W58162   3.475   6.826  14.963
89945W        W58163  25.568  44.904   2.209
89946W        W58164  31.671  20.885  14.405
89947W        W58165  43.080   7.283  13.827
89948W        W58166  24.127  31.184  12.458
89949W        W58167  37.298  37.145   1.129
89950W        W58168  32.607  17.907  13.073
89951W        W58169  17.667  19.194  12.603
89952W        W58170   0.464  19.823  11.589
89953W        W58171  31.900   0.220   3.605
89954W        W58172  37.843  18.594   0.122
89955W        W58173   2.393   0.776   4.696
89956W        W58174  24.125  21.619  10.805
89957W        W58175  13.013  10.700  10.704
89958W        W58176  11.452   9.354   0.454
89959W        W58177   9.351  25.978  10.577
89960W        W58178   3.754  26.021   4.209
89961W        W58179  35.205  32.598   0.059
89962W        W58180  11.757   9.800  10.606
89963W        W58181  28.457  36.623  10.931
89964W        W58182   1.256  38.548  11.580
89965W        W58183  18.451  20.749   4.054
89966W        W58184  19.243  27.976   3.283
89967W        W58185  30.000  18.672  14.893
89968W        W58186  13.632  39.980   2.136
89969W        W58187  36.542  18.165   4.704
89970W        W58188  34.295  42.210  13.896
89971W        W58189  10.421   4.002   3.029
89972W        W58190  31.703   5.879  13.470
89973W        W58191  23.944  23.090   4.572
89974W        W58192  29.408  14.076   2.054
89975W        W58193   2.395  38.922   2.360
89976W        W58194  14.458  30.038   0.970
89977W        W58195  25.985   7.986   0.510
89978W        W58196  21.103  10.347   1.191
89979W        W58197  32.060  44.082   4.640
89980W        W58198   4.790   9.380  10.072
89981W        W58199  42.519   8.051  12.802
89982W        W58200   2.068  33.076  11.051
89983W        W58201  29.866  26.483   3.200
89984W        W58202   7.683  23.429  13.833
89985W        W58203  32.432  42.402   0.175
89986W        W58204   0.758  35.336   4.074
89987W        W58205   0.060  31.427   0.893
89988W        W58206  33.422   3.065   1.290
89989W        W58207  36.898  30.685  12.465
89990W        W58208  10.706   1.619  12.469
89991W        W58209  27.428  11.245   2.221
89992W        W58210  44.059  21.290   3.397
89993W        W58211  44.297  38.433   4.124
89994W        W58212  19.259  30.058  13.434
89995W        W58213   9.786  15.590   3.197
89996W        W58214   2.765  22.013   2.224
89997W        W58215   4.786  29.633   2.703
89998W        W58216  37.586   9.284  14.079
89999W        W58217  29.060  31.070  14.737
90000W        W58218  40.616  36.916   3.154
90001W        W58219  39.417  29.051  12.356
90002W        W58220  15.342   5.257   1.366
90003W        W58221  36.063   8.094   1.812
90004W        W58222  31.940  42.273   0.813
90005W        W58223  33.424  36.898   4.562
90006W        W58224  31.052  30.560   2.238
90007W        W58225  28.973  18.854   5.497
90008W        W58226   9.753  44.331  13.441
90009W        W58227   3.443  31.922  12.954
90010W        W58228  20.689  35.331   0.506
90011W        W58229  29.732   6.005   4.057
90012W        W58230  23.074  13.891   1.472
90013W        W58231   6.794  37.432  14.632
90014W        W58232  11.314  28.680  10.661
90015W        W58233  27.960  32.354  13.899
90016W        W58234  25.362   4.870   0.501
90017W        W58235  15.051   4.765   9.993
90018W        W58236  39.643   7.286   2.309
90019W        W58237  27.664  11.341   3.146
90020W        W58238  44.334   6.870  11.606
90021W        W58239   6.186   6.194  14.025
90022W        W58240  38.397  43.833   1.325
90023W        W58241  38.887   5.312  13.106
90024W        W58242  15.262  23.312   2.717
90025W        W58243  27.329  10.330  11.549
90026W        W58244   6.410  29.955  14.976
90027W        W58245  15.782  25.144   1.518
90028W        W58246  35.617  11.617   4.710
90029W        W58247  35.400  33.914  12.263
90030W        W58248  41.042   0.030   4.553
90031W        W58249  16.750  33.623  14.647
90032W        W58250  26.342   0.390  14.465
90033W        W58251  24.896   3.819   3.608
90034W        W58252  27.001  33.548   3.528
90035W        W58253  19.251  20.511   3.599
90036W        W58254  35.903  41.109  10.784
90037W        W58255   5.621  16.574  12.637
90038W        W58256   2.180  21.341   2.086
90039W        W58257  12.802   0.522   3.747
90040W        W58258  34.107  17.464   3.186
90041W        W58259  20.548  15.889   3.677
90042W        W58260   3.739  13.262   0.507
90043W        W58261  29.006   7.492   2.670
90044W        W58262  39.344  38.027   0.870
90045W        W58263   6.798  35.256  13.515
90046W        W58264  41.024  36.005  13.570
90047W        W58265  42.488  29.638   0.203
90048W        W58266  12.757  27.961  11.646
90049W        W58267   0.321  30.736  12.069
90050W        W58268  11.804  35.075  13.481
90051W        W58269  36.948   2.787  13.444
90052W        W58270  30.937  19.623  10.881
90053W        W58271  27.672  12.881   3.665
90054W        W58272   0.807  31.694  12.593
90055W        W58273  36.508   0.489   4.579
90056W        W58274  13.454   6.767  10.678
90057W        W58275  26.099  14.281   2.888
90058W        W58276  32.939  32.878  12.814
90059W        W58277  14.863  34.310   4.595
90060W        W58278  14.759   3.611   2.300
90061W        W58279  25.948  32.525   1.382
90062W        W58280  15.582  24.314  11.788
90063W        W58281   4.709   1.456  12.030
90064W        W58282  23.299  24.489  12.427
90065W        W58283   9.452  43.500   0.236
90066W        W58284   0.350  16.754   2.604
90067W        W58285  11.535  14.133  11.620
90068W        W58286  35.221  33.190  11.158
90069W        W58287   4.812   0.283   2.654
90070W        W58288  29.985  10.386   0.900
90071W        W58289  36.697  27.785   3.567
90072W        W58290   6.868   0.394  12.768
90073W        W58291   0.351  28.165   0.218
90074W        W58292   0.705   3.467   0.854
90075W        W58293  12.214  19.626  14.369
90076W        W58294  19.336   8.284   2.502
90077W        W58295  28.665  41.397   2.322
90078W        W58296   6.177  10.872   4.136
90079W        W58297  38.461   0.669   3.195
90080W        W58298  16.484  23.413   4.042
90081W        W58299   3.386   4.420  11.547
90082W        W58300  36.001  20.274  10.650
90083W        W58301  35.541  37.328  13.370
90084W        W58302  31.644  33.079  11.609
90085W        W58303  20.787  21.814  12.059
90086W        W58304  36.079  15.554  11.127
90087W        W58305  10.600  41.492   2.801
90088W        W58306  17.038  28.950  14.882
90089W        W58307  17.345  15.771   2.454
90090W        W58308  18.678  14.491  13.789
90091W        W58309  39.986  25.325  13.620
90092W        W58310  17.776  35.557   3.679
90093W        W58311  22.569  23.467  10.238
90094W        W58312   9.180  27.494  11.684
90095W        W58313   6.809   5.444  14.891
90096W        W58314  24.157  44.474   2.134
90097W        W58315  11.322  36.212   1.351
90098W        W58316  44.873  35.820   0.092
90099W        W58317  19.637   1.906  13.569
90100W        W58318   2.555  32.093  10.058
90101W        W58319  40.905   1.133  10.305
90102W        W58320  35.168   8.827  12.896
90103W        W58321   6.258  22.851   1.246
90104W        W58322  38.424  26.524   0.869
90105W        W58323  42.324  31.473   1.197
90106W        W58324  19.736  14.194   3.146
90107W        W58325  35.442  16.822  14.937
90108W        W58326   4.839   0.806   4.757
90109W        W58327  26.828  38.075  12.920
90110W        W58328   6.534   5.885   1.161
90111W        W58329  23.953  37.637   2.939
90112W        W58330  24.280   1.925  14.467
90113W        W58331  42.515   0.270   2.779
90114W        W58332  17.310  18.777   1.498
90115W        W58333   5.167   4.478  12.132
90116W        W58334   1.703  42.806   2.371
90117W        W58335  14.073  27.456  14.772
90118W        W58336  21.222  41.784  11.630
90119W        W58337  26.968  42.052  14.356
90120W        W58338  33.929  11.426   2.254
90121W        W58339  30.430   3.271   0.824
90122W        W58340  23.190   4.993   0.783
90123W        W58341  40.979  34.426  11.459
90124W        W58342  20.326  36.453   1.556
90125W        W58343   3.024  27.689  14.875
90126W        W58344  39.921   1.293   4.756
90127W        W58345  30.992  35.030  14.921
90128W        W58346  17.177  39.403   3.382
90129W        W58347  44.671  36.240  14.838
90130W        W58348  30.932  26.547  12.555
90131W        W58349  16.704  35.151  12.729
90132W        W58350  18.323  26.044   1.365
90133W        W58351  12.226  35.391  11.822
90134W        W58352  32.909  36.094   2.643
90135W        W58353   9.782  38.311  14.453
90136W        W58354   1.768  18.026   2.404
90137W        W58355   0.766  16.672   4.420
90138W        W58356  27.384  13.253  11.803
90139W        W58357  29.972  44.392  10.333
90140W        W58358  26.519  39.369  10.959
90141W        W58359  23.654   5.781  11.072
90142W        W58360   6.343  26.899  14.208
90143W        W58361  17.226  13.681   0.412
90144W        W58362  17.033  35.624  11.734
90145W        W58363  28.344  17.816   0.411
90146W        W58364  19.259  26.669  14.234
90147W        W58365  37.853  18.478   2.918
90148W        W58366  44.150  14.200  12.076
90149W        W58367  29.313   2.922   0.209
90150W        W58368  38.647  23.654  11.186
90151W        W58369   9.205  14.204   1.470
90152W        W58370  31.054  29.481  11.616
90153W        W58371  19.137   9.261   4.063
90154W        W58372  10.231  38.114  13.523
90155W        W58373  41.263  23.176   0.466
90156W        W58374  20.263  40.840   1.816
90157W        W58375   3.752  29.004   0.252
90158W        W58376  18.531  43.505   2.923
90159W        W58377  21.838  15.664  11.755
90160W        W58378  38.595  37.530   3.596
90161W        W58379  12.229  22.494   0.528
90162W        W58380  34.041  39.311  10.591
90163W        W58381  32.771   6.245  10.673
90164W        W58382   6.918  29.541  13.814
90165W        W58383  33.183  16.583   2.419
90166W        W58384  17.790  40.836   1.197
90167W        W58385   6.570  40.214   5.590
90168W        W58386  15.348  42.259   1.165
90169W        W58387   8.245  31.158  11.987
90170W        W58388  42.205   3.941   3.151
90171W        W58389   5.912  16.984  14.472
90172W        W58390  13.666   8.160  13.944
90173W        W58391  32.984  14.112  13.261
90174W        W58392   9.414   2.991  12.518
90175W        W58393  34.428  11.432   3.571
90176W        W58394  38.677  28.082   4.620
90177W        W58395  29.980  29.681  10.306
90178W        W58396  41.647   8.090  14.297
90179W        W58397  32.435  39.343   0.884
90180W        W58398   7.384  25.087   3.744
90181W        W58399  37.013  34.854  11.462
90182W        W58400   8.292   3.631   1.193
90183W        W58401  12.618  27.911   1.474
90184W        W58402  27.977   2.975   2.675
90185W        W58403   7.268  19.494  14.469
90186W        W58404  24.066  36.924   2.174
90187W        W58405  43.252   2.802   3.254
90188W        W58406  28.283  24.583   1.888
90189W        W58407  28.202   4.491   4.597
90190W        W58408  12.578  35.185   3.644
90191W        W58409  11.200  26.924   2.580
90192W        W58410  44.283  18.874  14.898
90193W        W58411  13.220  18.315   0.367
90194W        W58412  19.590   3.890   2.733
90195W        W58413  23.144  28.730  13.432
90196W        W58414   0.704  14.889   2.604
90197W        W58415  32.347  17.341  10.598
90198W        W58416  17.490  30.485  13.399
90199W        W58417  16.071   0.405   3.375
90200W        W58418  28.060  14.797   2.247
90201W        W58419  16.259  18.193   3.635
90202W        W58420  19.221  31.243   4.140
90203W        W58421  39.972  20.103   1.814
90204W        W58422  13.061   8.876  11.087
90205W        W58423  10.658   6.130  11.172
90206W        W58424  42.676  17.815  11.513
90207W        W58425  43.069  24.222  13.419
90208W        W58426  13.355  29.849  14.805
90209W        W58427   4.741  14.431  11.473
90210W        W58428  41.500  25.994  11.435
90211W        W58429  10.856  17.319  10.690
90212W        W58430  21.197   7.295  11.918
90213W        W58431  21.483  26.446  12.649
90214W        W58432   2.247  17.658  12.101
90215W        W58433  12.384   9.636   4.333
90216W        W58434   5.935  14.539  13.472
90217W        W58435   7.257  10.634  11.138
90218W        W58436  37.518  27.472   4.285
90219W        W58437  44.529  13.575   1.663
90220W        W58438  38.137  21.927   2.273
90221W        W58439  19.137   3.483  14.390
90222W        W58440  20.011  25.906  12.477
90223W        W58441  27.781  38.792  13.558
90224W        W58442  30.077   8.965   4.978
90225W        W58443  39.419  23.213  14.811
90226W        W58444  16.908  10.586  14.739
90227W        W58445  35.546  42.236  14.333
90228W        W58446   7.220  25.518  11.575
90229W        W58447  22.037  44.685   0.625
90230W        W58448  15.213  44.555  11.055
90231W        W58449  23.576  33.158  10.139
90232W        W58450  17.484  34.542  12.497
90233W        W58451  29.158  30.080  13.003
90234W        W58452   6.783  24.247   4.614
90235W        W58453  36.057  40.506   1.713
90236W        W58454  39.614  33.139  13.787
90237W        W58455  40.594  43.352  11.184
90238W        W58456   7.523  13.270   4.417
90239W        W58457   6.161  22.171   3.927
90240W        W58458  36.985   7.111   2.639
90241W        W58459  12.493  31.411  11.513
90242W        W58460  21.452   3.072  12.710
90243W        W58461   5.272   6.383   2.340
90244W        W58462   0.813  42.460  12.017
90245W        W58463  43.821  26.949  13.430
90246W        W58464  43.786  30.042   0.292
90247W        W58465   8.321  26.698   1.750
90248W        W58466  39.070  23.686   1.276
90249W        W58467  28.603  30.279   3.633
90250W        W58468  20.796   0.307  12.865
90251W        W58469   6.660  42.847   2.345
90252W        W58470   8.146  43.333   1.726
90253W        W58471   4.254  23.161  13.847
90254W        W58472  38.881   1.008  14.358
90255W        W58473  18.060  26.596  12.224
90256W        W58474  39.357   9.341   3.593
90257W        W58475  10.106   8.327   4.773
90258W        W58476  44.872   0.467   3.678
90259W        W58477   7.842  43.084  12.073
90260W        W58478  13.839   6.872  11.412
90261W        W58479  42.485  34.957  13.603
90262W        W58480  11.680  22.236   1.870
90263W        W58481  17.464  10.070   4.171
90264W        W58482  44.957  21.678   3.778
90265W        W58483  11.278  11.405  12.007
90266W        W58484   8.245  12.130   2.671
90267W        W58485  23.957  27.950  10.484
90268W        W58486  16.413  43.945   4.314
90269W        W58487   6.418  15.569   3.931
90270W        W58488   7.169  14.768   2.213
90271W        W58489   6.695  34.856   3.784
90272W        W58490   8.394  44.767   2.545
90273W        W58491  12.317  44.702  13.894
90274W        W58492  17.506  37.398  14.342
90275W        W58493  30.637   3.447   2.264
90276W        W58494   9.229   4.831   0.872
90277W        W58495  29.493   7.135   5.015
90278W        W58496  21.201  39.411  13.030
90279W        W58497  25.912  16.623   1.100
90280W        W58498  44.436  16.602  14.249
90281W        W58499  39.453  23.022   4.474
90282W        W58500  41.859  39.915  13.103
90283W        W58501  32.149  10.869  14.409
90284W        W58502  23.766  11.023  12.580
90285W        W58503  41.718  27.819  11.326
90286W        W58504  39.958  41.417   0.833
90287W        W58505  40.723  26.907   0.356
90288W        W58506   0.498  44.363   1.346
90289W        W58507  22.028  43.729  13.462
90290W        W58508  16.172  42.813   3.210
90291W        W58509  23.732   2.268   0.507
90292W        W58510  44.101  22.792   2.184
90293W        W58511  16.820  24.141  10.661
90294W        W58512  43.200   3.392   4.696
90295W        W58513   5.177   7.174   1.353
90296W        W58514  18.537  32.983  13.012
90297W        W58515  36.473  18.252  13.361
90298W        W58516  18.106   6.693  12.617
90299W        W58517  40.525  39.840  10.765
90300W        W58518  28.485  27.476  14.293
90301W        W58519  43.260  30.273  13.569
90302W        W58520  28.397  44.467   4.077
90303W        W58521  38.297   7.324   2.847
90304W        W58522   1.001  36.390  11.260
90305W        W58523  19.231   1.249   1.446
90306W        W58524  34.711  21.075  14.344
90307W        W58525  18.103  18.104   0.693
90308W        W58526  10.162   3.487   0.875
90309W        W58527  17.181   7.650   4.999
90310W        W58528  28.737  44.139  14.494
90311W        W58529  28.567  13.684  13.960
90312W        W58530  42.935  26.016  14.485
90313W        W58531  41.050  21.791   3.320
90314W        W58532   0.352  24.694  11.924
90315W        W58533  23.307  42.375  14.775
90316W        W58534   0.420  43.239  14.913
90317W        W58535   1.496  27.998   4.324
90318W        W58536  12.371  39.279   4.098
90319W        W58537  29.035  12.883  11.676
90320W        W58538  15.616   8.803  11.494
90321W        W58539  34.365   2.211   1.409
90322W        W58540   8.391  16.848  11.614
90323W        W58541  11.114  44.278  11.955
90324W        W58542  24.286  30.679   0.866
90325W        W58543  41.979  36.390   4.088
90326W        W58544  26.183  28.684   3.247
90327W        W58545  34.693  21.183   4.486
90328W        W58546   3.909  42.794   3.673
90329W        W58547  19.486   5.955  11.988
90330W        W58548  10.251  15.782  12.357
90331W        W58549   6.160  20.385  11.075
90332W        W58550  37.331  44.822  13.321
90333W        W58551  23.699  17.818   1.285
90334W        W58552   4.823   3.269   1.643
90335W        W58553  16.721  23.361   3.254
90336W        W58554  37.584  19.788  13.162
90337W        W58555   1.323  27.036  12.998
90338W        W58556   2.193   9.610  12.974
90339W        W58557  33.534  43.862  13.303
90340W        W58558  33.868   6.580   1.737
90341W        W58559  42.443   5.057  13.541
90342W        W58560  25.022  44.311  11.783
90343W        W58561   4.137  14.819  13.316
90344W        W58562  39.470  24.694  12.845
90345W        W58563  30.895  37.586  10.306
90346W        W58564  38.469  25.057   3.406
90347W        W58565   4.656  14.594  13.272
90348W        W58566  32.772   1.305  10.349
90349W        W58567  32.380  30.862   3.326
90350W        W58568  17.300   5.173   1.336
90351W        W58569  31.138  18.155   2.777
90352W        W58570  37.573   4.947  13.594
90353W        W58571  43.152   9.876  14.891
90354W        W58572  34.887  13.278  10.413
90355W        W58573   7.988  35.126   3.409
90356W        W58574   6.085  12.309   0.885
90357W        W58575  39.967  15.276  12.309
90358W        W58576   8.435   8.121   1.053
90359W        W58577   2.101  39.069   3.206
90360W        W58578  35.170  10.417   0.855
90361W        W58579  15.128  41.928   1.943
90362W        W58580  38.442  24.024  10.477
90363W        W58581  21.268  23.061   3.282
90364W        W58582  33.810  44.491  14.365
90365W        W58583  34.457  28.142  13.900
90366W        W58584  29.501  21.276  12.082
90367W        W58585   4.775  40.807  11.427
90368W        W58586  44.962   9.455   1.193
90369W        W58587  34.134   9.758  13.378
90370W        W58588  31.514  26.631  10.195
90371W        W58589  37.869  35.185   1.789
90372W        W58590  40.042  18.685  11.602
90373W        W58591  27.610   4.694   2.321
90374W        W58592   2.390  40.857   2.439
90375W        W58593  33.573  12.459   2.650
90376W        W58594  17.135  14.621  14.298
90377W        W58595  16.026   4.713  11.410
90378W        W58596  30.966  36.206  12.135
90379W        W58597   2.499   4.813   0.817
90380W        W58598   2.997  29.854   0.976
90381W        W58599  21.652   9.595   2.326
90382W        W58600  36.542  38.809  12.860
90383W        W58601   5.502   6.647  12.634
90384W        W58602   3.240   2.858   1.768
90385W        W58603  33.535  11.960   2.749
90386W        W58604  39.354   4.933  12.068
90387W        W58605  34.543  12.234  12.961
90388W        W58606   6.602  20.337  11.994
90389W        W58607  20.615   3.466  12.138
90390W        W58608   2.694  28.446   3.613
90391W        W58609  32.645   7.575  12.610
90392W        W58610  29.086  17.196   3.113
90393W        W58611   7.910   3.935  11.915
90394W        W58612  11.158  30.406   3.737
90395W        W58613   8.688   5.717   0.940
90396W        W58614   2.605  36.789   4.904
90397W        W58615  28.766  11.820   4.515
90398W        W58616   9.472   3.094  13.345
90399W        W58617  21.495   3.625   2.346
90400W        W58618  19.307  12.266  11.376
90401W        W58619  39.025  19.347   1.225
90402W        W58620  41.912  15.550   0.872
90403W        W58621  26.836  35.648   1.330
90404W        W58622   9.730  25.263   4.089
90405W        W58623  44.494   2.943  13.580
90406W        W58624  12.116   9.185   3.504
90407W        W58625  26.467  35.806  12.469
90408W        W58626  30.026  42.433   0.824
90409W        W58627   4.951  38.585   1.948
90410W        W58628  13.459  23.331   1.997
90411W        W58629  20.587  41.682  14.161
90412W        W58630  34.227   4.798   0.909
90413W        W58631  35.116  43.971   4.430
90414W        W58632  41.363  23.370  14.793
90415W        W58633  19.114  44.230  12.538
90416W        W58634  35.116  32.700   4.601
90417W        W58635  40.774   1.387   0.066
90418W        W58636  35.064  40.487   1.022
90419W        W58637  36.218  34.603   2.305
90420W        W58638  21.698  19.809   4.049
90421W        W58639  40.295  11.386  11.055
90422W        W58640  17.141   7.787   1.034
90423W        W58641  28.581  10.846   3.189
90424W        W58642  15.809  30.069  14.005
90425W        W58643  32.574  23.251   1.941
90426W        W58644  17.570  38.245   3.673
90427W        W58645  39.969   3.019  11.163
90428W        W58646  11.459  37.701   1.751
90429W        W58647   4.957  44.416  13.076
90430W        W58648   5.251  38.520  11.227
90431W        W58649   8.317  19.629  12.196
90432W        W58650   2.551  42.509  12.508
90433W        W58651  18.686  24.439   0.279
90434W        W58652  22.229   2.158   4.016
90435W        W58653  16.638  30.859   4.678
90436W        W58654  39.564   1.811   1.927
90437W        W58655  19.193  28.797   4.707
90438W        W58656  24.457  26.985  12.144
90439W        W58657  19.841  20.686  13.497
90440W        W58658  11.815  44.578  11.392
90441W        W58659   9.429  40.959   1.234
90442W        W58660  19.164   3.440  13.860
90443W        W58661  19.686   0.027   4.933
90444W        W58662  10.348   9.229   4.622
90445W        W58663  41.069  39.918   1.337
90446W        W58664  26.918  38.038  11.093
90447W        W58665  12.996   0.469   2.710
90448W        W58666  39.844   0.021   2.457
90449W        W58667  43.363  23.777  12.160
90450W        W58668  35.728   5.496   4.301
90451W        W58669   5.190  29.352   2.861
90452W        W58670   0.769   7.634  11.384
90453W        W58671  18.728  16.491  11.537
90454W        W58672  27.617  41.426   3.243
90455W        W58673  38.852  23.056  12.904
90456W        W58674   7.230  37.275  13.842
90457W        W58675  12.291  36.521  13.807
90458W        W58676  37.323  10.429   2.738
90459W        W58677  29.662  20.273  11.222
90460W        W58678  44.778  35.375  14.808
90461W        W58679   1.525  18.622  12.545
90462W        W58680  15.094  41.889  12.960
90463W        W58681   5.936  23.263   1.718
90464W        W58682  31.483  22.207  13.474
90465W        W58683  26.993  21.931   3.636
90466W        W58684  16.888   6.144  13.006
90467W        W58685  40.828  16.306   2.214
90468W        W58686  19.371  20.031  11.162
90469W        W58687  42.029  35.303   4.240
90470W        W58688  34.949  28.639  14.385
90471W        W58689   7.772  19.761  14.315
90472W        W58690   6.470  33.453   2.453
90473W        W58691  27.644   4.134   3.832
90474W        W58692  29.937  10.277  14.474
90475W        W58693   7.577   4.438   0.519
90476W        W58694  10.102  28.587   3.368
90477W        W58695  13.350  14.418   4.204
90478W        W58696  25.076  14.106   4.135
90479W        W58697  34.582  35.802   2.161
90480W        W58698  31.793   0.113  12.517
90481W        W58699  17.030  22.996  12.475
90482W        W58700  19.619  25.932  13.642
90483W        W58701  31.618   4.652   4.487
90484W        W58702   0.572  41.737   3.987
90485W        W58703  27.142  36.412  11.052
90486W        W58704  40.247  40.809   2.058
90487W        W58705   0.477  19.659  10.757
90488W        W58706   0.302   4.973   4.257
90489W        W58707  22.145   4.748   2.653
90490W        W58708   0.642  13.288  14.176
90491W        W58709   6.885   9.168  10.673
90492W        W58710  35.573  43.281  11.041
90493W        W58711  12.918   9.922  12.930
90494W        W58712  28.966  39.540   0.245
90495W        W58713  38.340   1.588  10.190
90496W        W58714  11.606  11.123   1.658
90497W        W58715  12.574  41.446   4.531
90498W        W58716  23.159  20.416   4.720
90499W        W58717  19.735   0.307   2.269
90500W        W58718  35.498   9.208  10.669
90501W        W58719  41.308  32.575  13.424
90502W        W58720  37.045  14.711  11.570
90503W        W58721  13.591   5.663   0.454
90504W        W58722  13.636  33.414  13.094
90505W        W58723  27.079  44.402  10.876
90506W        W58724  30.916  40.017  13.972
90507W        W58725  36.427  29.467   0.300
90508W        W58726   2.397  30.238  13.887
90509W        W58727   9.442  25.705  11.005
90510W        W58728  19.411  39.418  13.019
90511W        W58729  41.804  10.605   0.667
90512W        W58730  38.257  18.155   1.230
90513W        W58731  33.367  30.551  11.040
90514W        W58732   5.375   5.753   2.014
90515W        W58733  12.353  13.213   2.679
90516W        W58734  25.206   1.495  13.567
90517W        W58735  25.433  13.535   0.771
90518W        W58736  18.655  44.348  10.476
90519W        W58737  21.108  22.907   0.992
90520W        W58738  24.575   2.470  11.875
90521W        W58739   2.042  33.857   2.800
90522W        W58740  42.158   5.133   0.772
90523W        W58741  37.443  34.599  10.564
90524W        W58742  25.779  36.422   0.308
90525W        W58743  38.426  19.781   2.886
90526W        W58744  12.864  22.555  14.735
90527W        W58745  19.957  40.486   2.043
90528W        W58746  35.077  44.277  13.879
90529W        W58747  29.950  26.201   0.156
90530W        W58748  35.613  20.776  14.827
90531W        W58749   4.208  27.647  12.764
90532W        W58750  32.840  26.652  13.930
90533W        W58751  42.132  38.776  13.897
90534W        W58752  25.088   8.766   4.327
90535W        W58753  26.674  27.317   2.890
90536W        W58754  31.187   4.717  12.854
90537W        W58755   5.181  28.172   1.464
90538W        W58756  37.042  43.921  11.965
90539W        W58757  34.740  19.654   1.507
90540W        W58758  29.692   1.648  11.601
90541W        W58759  28.988  24.685  13.889
90542W        W58760   2.684  41.012  10.696
90543W        W58761  42.015   1.836   0.582
90544W        W58762  10.171  22.962  13.295
90545W        W58763  23.128  26.607  10.750
90546W        W58764  23.575  31.644   3.263
90547W        W58765  10.077  37.395   5.051
90548W        W58766   5.136  21.309  12.074
90549W        W58767   5.270   3.917  12.763
90550W        W58768  16.672  29.159  13.160
90551W        W58769  19.450  12.152  13.207
90552W        W58770  26.919  28.143   1.372
90553W        W58771   7.709  28.651   3.956
90554W        W58772  18.211  36.647  11.125
90555W        W58773  16.430  20.440  12.938
90556W        W58774   8.808  27.937  13.928
90557W        W58775  41.771  14.356   1.312
90558W        W58776  21.007  29.694  14.374
90559W        W58777  21.871  21.064  13.129
90560W        W58778  41.630  32.660  12.485
90561W        W58779  37.622  33.976  14.289
90562W        W58780  23.827  18.567  13.422
90563W        W58781   7.863  36.996   0.927
90564W        W58782  30.231   6.133   3.935
90565W        W58783  27.571  32.648   0.722
90566W        W58784  27.757   2.400  11.137
90567W        W58785  44.469  43.601  14.098
90568W        W58786  14.665  26.238   3.370
90569W        W58787  29.899  44.961   4.164
90570W        W58788   3.136  21.253   3.220
90571W        W58789  10.561  19.532   2.739
90572W        W58790  31.024   5.677   3.189
90573W        W58791  15.756   2.768   3.556
90574W        W58792  20.109  37.914  10.465
90575W        W58793  41.283  32.071  13.271
90576W        W58794  14.276   8.422  11.143
90577W        W58795   1.815  38.764  12.460
90578W        W58796   3.974  16.493   4.749
90579W        W58797  31.475   8.330   2.180
90580W        W58798  16.294  22.966  13.026
90581W        W58799  15.712  37.267   0.921
90582W        W58800  44.333  20.104  12.090
90583W        W58801  20.204  44.806   1.199
90584W        W58802  12.602  12.393   1.682
90585W        W58803  15.612   4.905   4.935
90586W        W58804  28.063   1.987  12.025
90587W        W58805  19.114  27.665   0.123
90588W        W58806  25.457  30.212  10.706
90589W        W58807  26.720   4.204  14.701
90590W        W58808   9.157  33.418   1.350
90591W        W58809  13.577  28.582   2.371
90592W        W58810  23.790   4.397  12.235
90593W        W58811  27.869  19.345   1.219
90594W        W58812  34.117  31.023   3.643
90595W        W58813  25.030   7.878   2.475
90596W        W58814  33.387   0.400   2.386
90597W        W58815  31.033   0.106   3.088
90598W        W58816  36.855  32.493   2.570
90599W        W58817  32.431  29.871  12.659
90600W        W58818  42.963   5.213   2.260
90601W        W58819  13.369  44.036  14.040
90602W        W58820   6.499  32.421   0.518
90603W        W58821  43.270  10.871   3.460
90604W        W58822   9.954  16.569   0.215
90605W        W58823  18.317  19.041   3.929
90606W        W58824  28.202  37.118  13.524
90607W        W58825  38.372   6.875   3.770
90608W        W58826   8.398  19.162  10.916
90609W        W58827  14.794  27.184  11.027
90610W        W58828  17.840  19.759  11.118
90611W        W58829  24.969   6.987  14.306
90612W        W58830  37.444   1.767  11.018
90613W        W58831  44.872  33.993  14.880
90614W        W58832  27.990  10.464  11.053
90615W        W58833  26.231  34.328   0.856
90616W        W58834   8.777  18.663  10.250
90617W        W58835  36.318   6.892  14.291
90618W        W58836   4.966  11.775   0.510
90619W        W58837  19.757   6.846  10.787
90620W        W58838  34.103  38.678  11.424
90621W        W58839  17.799   7.494  13.822
90622W        W58840   8.927  27.983   4.081
90623W        W58841  19.982  32.130   2.772
90624W        W58842  17.635   6.284   1.668
90625W        W58843   5.778  10.190  14.043
90626W        W58844  13.511  35.074   3.224
90627W        W58845  40.988  31.584  14.321
90628W        W58846  26.617   3.223   0.673
90629W        W58847  31.393  18.343   3.168
90630W        W58848  43.924  44.102   3.898
90631W        W58849   6.156   8.457   4.542
90632W        W58850  42.455  43.099  14.542
90633W        W58851  19.207   6.378  12.007
90634W        W58852  14.407   4.320   1.262
90635W        W58853  22.805  26.437  12.868
90636W        W58854  43.910   8.330   4.799
90637W        W58855   7.101  26.670  12.001
90638W        W58856   3.915  31.374   0.416
90639W        W58857   6.414  26.993   3.084
90640W        W58858  18.439  15.047   1.510
90641W        W58859  14.881  32.492  12.339
90642W        W58860  11.726  17.732  13.452
90643W        W58861  32.195  40.059   1.400
90644W        W58862  24.569  32.026  11.198
90645W        W58863  24.697  19.320   4.515
90646W        W58864  14.574   3.416  14.018
90647W        W58865  21.028  24.965  12.025
90648W        W58866  21.332  39.425   2.078
90649W        W58867  42.850  24.880   2.378
90650W        W58868  12.908   2.405  14.534
90651W        W58869  39.330  18.646  13.949
90652W        W58870   0.040  40.427  13.869
90653W        W58871  11.306   7.341  12.948
90654W        W58872  14.643  38.942  11.253
90655W        W58873  17.615  21.825   4.596
90656W        W58874  26.644  28.428   4.115
90657W        W58875  32.928  35.737  12.570
90658W        W58876   7.464  32.151  10.562
90659W        W58877  31.129  25.654   3.754
90660W        W58878   8.422  15.881   1.380
90661W        W58879  19.804   2.463   1.701
90662W        W58880  33.587  36.446   3.122
90663W        W58881  26.626  10.229  14.241
90664W        W58882  26.887  29.023  11.080
90665W        W58883  25.137  31.038  12.115
90666W        W58884  14.980  15.021   5.015
90667W        W58885   5.029  12.298  12.826
90668W        W58886  32.668  26.519   1.481
90669W        W58887  39.805   3.885  14.292
90670W        W58888  12.584  44.964  10.959
90671W        W58889   0.993   6.388  10.545
90672W        W58890  30.868  38.133  14.798
90673W        W58891   1.505  30.714   3.298
90674W        W58892  26.226  22.208  12.474
90675W        W58893  30.903  14.909   4.228
90676W        W58894  11.581  25.730   2.431
90677W        W58895   5.708  14.634  11.512
90678W        W58896  14.569  27.160  13.284
90679W        W58897  36.537  27.199   4.363
90680W        W58898  16.227  37.937   0.978
90681W        W58899  35.593  41.366   2.394
90682W        W58900  40.309  31.636   3.679
90683W        W58901  24.428   6.753  10.647
90684W        W58902  41.444  33.126  11.572
90685W        W58903  35.424  41.514   0.396
90686W        W58904  17.082  27.961  14.235
90687W        W58905  21.466  20.389   1.300
90688W        W58906  32.088   5.427  12.620
90689W        W58907   0.860  10.562  10.647
90690W        W58908   9.300  31.680   4.223
90691W        W58909  30.409  34.121   2.279
90692W        W58910  32.062  34.351  14.261
90693W        W58911  38.638  40.209   0.690
90694W        W58912  23.969  39.345  11.525
90695W        W58913  23.555   8.127  13.742
90696W        W58914  33.556   7.805  14.162
90697W        W58915  13.587  10.265   3.299
90698W        W58916  37.971  22.222   1.705
90699W        W58917  32.675  42.394  14.393
90700W        W58918  35.317   3.801  12.472
90701W        W58919  33.078  11.643   5.061
90702W        W58920  41.270   2.423   4.075
90703W        W58921  21.068  15.263  11.618
90704W        W58922  34.570   1.614   2.390
90705W        W58923   1.219  41.404  11.442
90706W        W58924  31.824   6.014  13.973
90707W        W58925  41.538   7.187  10.799
90708W        W58926  27.683   1.418  10.951
90709W        W58927   5.456   3.257  13.006
90710W        W58928  18.133  40.352  12.084
90711W        W58929  10.922  23.802  11.983
90712W        W58930  43.355  17.360  13.980
90713W        W58931  21.396  12.462  14.491
90714W        W58932  25.615  28.478   1.521
90715W        W58933  26.572   0.887   2.326
90716W        W58934  33.034  19.527   0.305
90717W        W58935  19.488  11.120   2.954
90718W        W58936   1.918  15.983  12.886
90719W        W58937  41.047   8.637   3.636
90720W        W58938  44.699  42.027  13.508
90721W        W58939  16.330  37.419   5.053
90722W        W58940  24.284  40.745  13.990
90723W        W58941  31.478  12.335   3.894
90724W        W58942   5.978  27.274   0.403
90725W        W58943   1.507  40.936  12.103
90726W        W58944  13.206  32.892  13.035
90727W        W58945  33.863  35.612  13.125
90728W        W58946  24.689  43.064  11.665
90729W        W58947   8.941  16.248   3.083
90730W        W58948  18.694  36.345  13.788
90731W        W58949  10.594  40.446   2.485
90732W        W58950  17.985  22.051  11.092
90733W        W58951  41.334  43.151  11.558
90734W        W58952  18.365  44.446   4.517
90735W        W58953   4.989  20.825   3.749
90736W        W58954  17.472  44.893  10.262
90737W        W58955  43.313  42.944   4.330
90738W        W58956  35.827  40.326  13.930
90739W        W58957  12.827   5.536   0.436
90740W        W58958  29.136  19.423   2.229
90741W        W58959  17.021  10.721  12.529
90742W        W58960  10.670  26.118   0.400
90743W        W58961  20.166  15.564   1.159
90744W        W58962  22.511  21.259   3.644
90745W        W58963  31.185  17.093  12.623
90746W        W58964   8.012  42.165  11.928
90747W        W58965   1.365  23.983  12.888
90748W        W58966  15.377  43.497   1.583
90749W        W58967  11.207  26.977   4.627
90750W        W58968   8.146  11.818  13.912
90751W        W58969   7.933  32.665   2.379
90752W        W58970  29.117  10.824  10.708
90753W        W58971  44.821  39.068   3.765
90754W        W58972   0.980  38.237  10.673
90755W        W58973  30.056   8.374  14.449
90756W        W58974  44.303  43.756  10.547
90757W        W58975  43.785  37.505   0.694
90758W        W58976  17.169  36.896  12.531
90759W        W58977  43.068   6.701  10.938
90760W        W58978  27.390  11.916  14.595
90761W        W58979   2.391  22.192   3.406
90762W        W58980   8.756  40.356   2.447
90763W        W58981  24.992   5.635   3.123
90764W        W58982   0.832  38.922   3.718
90765W        W58983  44.446  15.041  10.743
90766W        W58984  37.276  10.630  13.851
90767W        W58985   0.465  18.243   3.764
90768W        W58986  40.110  28.124  13.992
90769W        W58987  22.010  32.597  13.821
90770W        W58988   9.696  42.817   0.914
90771W        W58989   5.064  18.151  11.686
90772W        W58990  31.579  25.305   1.999
90773W        W58991  27.012  19.436   3.172
90774W        W58992  29.332   3.834   3.647
90775W        W58993  17.219  25.599  13.913
90776W        W58994  10.670  30.982   0.532
90777W        W58995  36.233  32.613   0.014
90778W        W58996  35.233  33.857  10.895
90779W        W58997  22.235  39.875   3.925
90780W        W58998  28.864  14.114   5.086
90781W        W58999   5.913  41.394  14.899
90782W        W59000  29.409   3.809  14.911
90783W        W59001  27.023  42.525  11.587
90784W        W59002  13.074  33.476   1.523
90785W        W59003  31.383  44.337  14.552
90786W        W59004  43.086  13.030  13.551
90787W        W59005  11.138   5.812   4.566
90788W        W59006  14.823  23.785  11.220
90789W        W59007  22.378  38.966  13.321
90790W        W59008  41.361  38.047  10.677
90791W        W59009   9.732  36.784  14.417
90792W        W59010  14.987  30.539  11.849
90793W        W59011  15.268   1.822   3.297
90794W        W59012  22.256  36.896  13.323
90795W        W59013  34.261  40.754  12.533
90796W        W59014  25.654  18.638   0.648
90797W        W59015  10.309  16.242  10.478
90798W        W59016  21.703   9.781   0.010
90799W        W59017  36.914  44.538   4.483
90800W        W59018  19.297   4.340   1.606
90801W        W59019   6.933  25.611  14.254
90802W        W59020  28.652  16.418   2.039
90803W        W59021  42.881  10.957  10.672
90804W        W59022   2.977  41.383  11.921
90805W        W59023  21.224  38.092  14.402
90806W        W59024  13.183   2.786  14.355
90807W        W59025  12.114  15.859   5.017
90808W        W59026  37.256  44.740  12.427
90809W        W59027   4.638  13.338  11.491
90810W        W59028  14.230   4.995  14.998
90811W        W59029  22.678   9.020  12.080
90812W        W59030  11.720  37.498   5.043
90813W        W59031  10.790  33.510  11.543
90814W        W59032  38.050  29.721   3.415
90815W        W59033  24.968  23.800  14.135
90816W        W59034   4.150  31.947  14.434
90817W        W59035  40.277  21.649   1.729
90818W        W59036  16.775  31.621  12.175
90819W        W59037   0.365  15.643   4.121
90820W        W59038   3.680   5.706  14.256
90821W        W59039  27.957  21.604  12.545
90822W        W59040  41.467  12.681   4.325
90823W        W59041  24.852  23.527   1.684
90824W        W59042  33.520   1.287   3.413
90825W        W59043  36.536  12.372   2.372
90826W        W59044   4.985  30.459   1.618
90827W        W59045  21.807  28.935  14.884
90828W        W59046  35.984  42.993   2.644
90829W        W59047  15.775  35.936   3.291
90830W        W59048  15.818  20.994   4.501
90831W        W59049   0.321  26.714   2.689
90832W        W59050  39.969  12.130  14.808
90833W        W59051  23.122  32.413   1.281
90834W        W59052  17.326  11.157  12.348
90835W        W59053  13.159  35.093   1.874
90836W        W59054  18.564  17.797   2.773
90837W        W59055  19.775  16.378  11.988
90838W        W59056  41.738  19.285  11.860
90839W        W59057   1.660  30.978   1.524
90840W        W59058   3.430  19.794  12.790
90841W        W59059  40.284   2.768   1.744
90842W        W59060   4.629  17.549   3.727
90843W        W59061   8.909  42.330   1.130
90844W        W59062   7.395   4.469  11.286
90845W        W59063  23.244  26.829  11.813
90846W        W59064   3.140  35.889   3.189
90847W        W59065  10.288  40.013   3.193
90848W        W59066  36.675  11.470  11.143
90849W        W59067  16.437  34.687  14.331
90850W        W59068  17.266  21.722  14.361
90851W        W59069  34.880  35.375  13.374
90852W        W59070  13.521  10.115  12.340
90853W        W59071  28.677   7.854  11.291
90854W        W59072  16.869  25.489  13.371
90855W        W59073  42.421  33.840  12.133
90856W        W59074  41.293  13.598  12.256
90857W        W59075  21.266  12.206  13.475
90858W        W59076  37.478  21.709  12.164
90859W        W59077  11.699  18.859   5.180
90860W        W59078  21.586  37.752  10.082
90861W        W59079  32.357  29.123   1.310
90862W        W59080  34.820   2.123   3.923
90863W        W59081  17.277  35.925   2.564
90864W        W59082  13.258  16.598  13.135
90865W        W59083  36.375  34.189  14.797
90866W        W59084  20.461   9.064   1.760
90867W        W59085  24.747  33.932  14.019
90868W        W59086  33.046   8.850  13.731
90869W        W59087  29.523  33.236   0.476
90870W        W59088  34.023  15.872   0.744
90871W        W59089   3.756   9.947   4.117
90872W        W59090  42.291   6.846  12.044
90873W        W59091  28.441  14.137  10.701
90874W        W59092  39.352   5.355   4.624
90875W        W59093  31.017   7.683  11.223
90876W        W59094  31.502   8.103  10.561
90877W        W59095  41.372  22.155   2.215
90878W        W59096   1.141  37.101  11.552
90879W        W59097  15.926  38.587   9.884
90880W        W59098  43.810  18.648   0.043
90881W        W59099   2.981  43.610  13.771
90882W        W59100  26.161  32.484   0.867
90883W        W59101  23.663   6.175  12.914
90884W        W59102  33.547  28.936  12.399
90885W        W59103  19.298  22.204  10.733
90886W        W59104  25.992  30.333  10.743
90887W        W59105  22.259  27.634  11.994
90888W        W59106   6.759  26.516   1.239
90889W        W59107  30.214  41.251   2.254
90890W        W59108  31.833   6.908   3.404
90891W        W59109  39.331  15.006   0.463
90892W        W59110  24.692  25.343  12.832
90893W        W59111  17.175  32.197   2.491
90894W        W59112  10.250   3.262  13.698
90895W        W59113  40.234  43.428   2.736
90896W        W59114  22.711   0.004   3.623
90897W        W59115  17.540  26.196  14.877
90898W        W59116  42.071  27.568   2.265
90899W        W59117   4.654  11.658   1.516
90900W        W59118  10.657   5.102   4.568
90901W        W59119  19.199  37.411  10.637
90902W        W59120  20.946   7.417  11.498
90903W        W59121  15.600  11.430  11.497
90904W        W59122  41.504  19.821  14.844
90905W        W59123  39.235  42.327   3.898
90906W        W59124   4.323  40.840  10.158
90907W        W59125  30.208  22.638  10.601
90908W        W59126  40.167   6.758   2.932
90909W        W59127   9.929  41.357   4.106
90910W        W59128  36.562  35.578   1.443
90911W        W59129  16.353  29.777   3.230
90912W        W59130  38.505   6.555   3.359
90913W        W59131  31.867  44.539   2.058
90914W        W59132  28.106   1.571  14.789
90915W        W59133   0.547  15.611  13.396
90916W        W59134  10.112  37.271   3.063
90917W        W59135  37.474   6.659   0.855
90918W        W59136  19.899   9.580   4.222
90919W        W59137  17.278  32.631  13.822
90920W        W59138  23.331  23.127   2.215
90921W        W59139  40.108  36.377   4.675
90922W        W59140  25.147  33.148   4.516
90923W        W59141  28.693  10.534  10.637
90924W        W59142  27.496  12.851   2.585
90925W        W59143  23.164  20.072  11.640
90926W        W59144  17.965  39.385  12.525
90927W        W59145   1.404  17.108  11.916
90928W        W59146   9.488  25.415  14.732
90929W        W59147  17.638   2.011   0.338
90930W        W59148  32.321  26.062   0.190
90931W        W59149  30.385   9.994   2.633
90932W        W59150  10.835  16.246  14.141
90933W        W59151  35.105   4.718  13.420
90934W        W59152   6.945  25.929   2.820
90935W        W59153  38.021  10.645   1.482
90936W        W59154  44.419  25.590   3.634
90937W        W59155  15.024  44.231   1.299
90938W        W59156  31.938  12.937   4.484
90939W        W59157  26.015  22.268   4.399
90940W        W59158  11.451  42.006   2.707
90941W        W59159   1.186  26.636   4.177
90942W        W59160  26.189  36.523   1.189
90943W        W59161   7.413  11.949   2.910
90944W        W59162  43.915  27.271  14.893
90945W        W59163  16.852   0.847   1.237
90946W        W59164  35.710  12.100  12.814
90947W        W59165   2.801  35.299   0.605
90948W        W59166  28.161  44.495  12.445
90949W        W59167  25.229  25.192   1.474
90950W        W59168  11.212  22.457   1.716
90951W        W59169   7.341  44.841  10.678
90952W        W59170   5.836  16.199   5.149
90953W        W59171  15.647   9.400  11.238
90954W        W59172  28.478  43.063  13.532
90955W        W59173  20.770  44.588   4.555
90956W        W59174   0.994   9.314   2.848
90957W        W59175  44.942  43.704  13.892
90958W        W59176   9.129  22.815  11.854
90959W        W59177   0.340  36.859   2.840
90960W        W59178  39.041  32.447  11.489
90961W        W59179  37.784  19.804  11.037
90962W        W59180  39.345  22.069   1.770
90963W        W59181   8.595  12.058   1.793
90964W        W59182  22.347  23.725   1.775
90965W        W59183  13.008  21.188  11.993
90966W        W59184   0.982  43.955  14.386
90967W        W59185  29.941  10.866   3.233
90968W        W59186  26.195   3.964   2.723
90969W        W59187  23.183  17.626   1.859
90970W        W59188  19.019   6.487   4.014
90971W        W59189  27.699  20.277   3.677
90972W        W59190   5.361  33.230  10.987
90973W        W59191   4.313  30.401   3.307
90974W        W59192   1.206  28.207   3.392
90975W        W59193   6.813  18.799   2.035
90976W        W59194  35.406  13.719  14.462
90977W        W59195  27.874  35.656  11.049
90978W        W59196   8.417  19.320   4.316
90979W        W59197  25.869  26.051   1.868
90980W        W59198  20.665  14.843   5.523
90981W        W59199  22.726   6.932   1.798
90982W        W59200   2.706  20.661   0.507
90983W        W59201  43.553  16.140   4.169
90984W        W59202  33.438  14.341   0.033
90985W        W59203   8.708  10.478   0.797
90986W        W59204  35.983  38.989  13.155
90987W        W59205  34.511  41.050  11.496
90988W        W59206  32.672  13.688   1.887
90989W        W59207  25.070  17.345   0.859
90990W        W59208   8.826  42.382  11.583
90991W        W59209  14.576   0.955  11.662
90992W        W59210  22.997  12.041  12.972
90993W        W59211  26.676  21.729  12.824
90994W        W59212  26.196  43.973  10.483
90995W        W59213  23.578  40.896  11.921
90996W        W59214  41.120  16.108  12.869
90997W        W59215  31.368  25.134   3.730
90998W        W59216  27.069   0.814  12.484
90999W        W59217   6.215   6.419   0.345
91000W        W59218  28.923  12.897   2.481
91001W        W59219  11.574   3.933   2.897
91002W        W59220   9.408   9.420  12.875
91003W        W59221   6.031  30.108   3.373
91004W        W59222  22.299  15.071   2.776
91005W        W59223  26.952  12.019   1.877
91006W        W59224  31.379  20.085   2.464
91007W        W59225  13.806  14.682  13.347
91008W        W59226  32.889  14.383   2.759
91009W        W59227  35.364  39.940  13.404
91010W        W59228  27.628  30.573   0.533
91011W        W59229  19.253  44.276   3.126
91012W        W59230  28.869  39.479   3.242
91013W        W59231  23.176  19.842  10.808
91014W        W59232  44.820   5.975  13.146
91015W        W59233  27.163  43.760   0.800
91016W        W59234  43.834  36.600  14.901
91017W        W59235  41.686  17.212   1.346
91018W        W59236  27.929  35.771  12.361
91019W        W59237   5.388  44.329  11.977
91020W        W59238  35.531   0.557   1.249
91021W        W59239  17.116   2.502   0.819
91022W        W59240  17.529   1.326  12.471
91023W        W59241  42.477  37.466  12.385
91024W        W59242  21.397  31.087   4.597
91025W        W59243  20.274   9.375   3.363
91026W        W59244  28.620  33.391   0.319
91027W        W59245  25.540  30.366   4.271
91028W        W59246   6.947  33.393  13.889
91029W        W59247  20.331  36.130   3.291
91030W        W59248  39.752  14.173  13.836
91031W        W59249   0.511  14.857  12.756
91032W        W59250   8.341  39.283   0.034
91033W        W59251  16.716  30.885   4.140
91034W        W59252   4.845  22.269   4.691
91035W        W59253  41.401  40.858  13.855
91036W        W59254  29.981  21.131  13.898
91037W        W59255  30.828  17.050   5.249
91038W        W59256   6.844  40.043   4.680
91039W        W59257   4.488  27.585  14.970
91040W        W59258   5.958  24.535  10.845
91041W        W59259   4.215  40.520  14.404
91042W        W59260   2.811  36.516   4.131
91043W        W59261  40.166  37.066  12.760
91044W        W59262   7.671  32.330   4.285
91045W        W59263  28.194  18.961  10.615
91046W        W59264  25.051  16.839  13.934
91047W        W59265  33.492  15.821   4.566
91048W        W59266  43.485  41.924   4.211
91049W        W59267  20.637  15.355  11.344
91050W        W59268  27.198  35.342  11.885
91051W        W59269  30.408   5.801  13.938
91052W        W59270   4.155  34.884   1.438
91053W        W59271  41.308   3.463   0.164
91054W        W59272  34.088  43.582   4.901
91055W        W59273  39.017   4.241  13.494
91056W        W59274  19.796  29.099   2.364
91057W        W59275  29.233   3.159  10.656
91058W        W59276  16.859  25.190  11.986
91059W        W59277  42.337  29.399  11.749
91060W        W59278  34.043  31.058  13.979
91061W        W59279  28.835  42.807  14.309
91062W        W59280   7.744  28.682  11.129
91063W        W59281   6.373  12.730  12.039
91064W        W59282  43.723   5.358  13.835
91065W        W59283  31.923  33.826   3.128
91066W        W59284  12.670   0.013   3.692
91067W        W59285  13.798  31.619  12.850
91068W        W59286   7.501  10.268   4.175
91069W        W59287  26.955  32.046  13.036
91070W        W59288  27.219  42.999   0.408
91071W        W59289  35.939  36.310   2.226
91072W        W59290  11.906  28.704   4.523
91073W        W59291  33.381  35.343  11.499
91074W        W59292  29.383   2.480  12.003
91075W        W59293  15.410  42.027   0.478
91076W        W59294   1.406  41.864   3.666
91077W        W59295  17.605  36.287  12.043
91078W        W59296   3.229  24.127   0.770
91079W        W59297  21.195  39.787   3.240
91080W        W59298  40.852  44.801   0.871
91081W        W59299  18.786  40.646   0.016
91082W        W59300  26.974   9.687  11.587
91083W        W59301  13.772  15.855   2.723
91084W        W59302  32.554  14.385   1.495
91085W        W59303  40.756   5.213  13.058
91086W        W59304  19.198  22.725  11.572
91087W        W59305  38.357  16.719  14.960
91088W        W59306  38.445  11.436   3.709
91089W        W59307   4.362  41.963  13.350
91090W        W59308  15.649  15.284   4.085
91091W        W59309  37.556  36.048   2.252
91092W        W59310  31.704  43.039  11.581
91093W        W59311  38.609  20.281  14.002
91094W        W59312   7.149  11.777   1.233
91095W        W59313  37.270  25.597   4.078
91096W        W59314  33.969   3.748   4.065
91097W        W59315  24.189   1.793   3.114
91098W        W59316  26.611  21.357   0.836
91099W        W59317  44.386  40.641  10.063
91100W        W59318  10.808  20.721  13.951
91101W        W59319  38.670  24.833  14.449
91102W        W59320  43.747   9.273  13.543
91103W        W59321   2.209  13.667   0.704
91104W        W59322   6.721  14.826  10.584
91105W        W59323  40.342  19.108  11.495
91106W        W59324  35.969  40.365   4.685
91107W        W59325  32.891  44.029   0.561
91108W        W59326  13.631   2.456  11.377
91109W        W59327  15.190  29.510   3.419
91110W        W59328   4.487  40.048  14.526
91111W        W59329   4.499   0.687   0.295
91112W        W59330  43.606   2.355  12.908
91113W        W59331   6.201  31.383   1.479
91114W        W59332  11.000  39.798  14.392
91115W        W59333  42.480  40.425   4.752
91116W        W59334   3.299  44.916   1.161
91117W        W59335  15.872   4.451  11.838
91118W        W59336   9.258  34.018  12.643
91119W        W59337  38.750  20.066   1.702
91120W        W59338  37.144  43.884   4.663
91121W        W59339  14.761   2.204   0.422
91122W        W59340  43.969  25.226   4.748
91123W        W59341   0.819  25.979   1.817
91124W        W59342  35.958   5.921   2.203
91125W        W59343   9.919   2.914  14.229
91126W        W59344  30.866  10.278  14.281
91127W        W59345  23.364  35.852  13.018
91128W        W59346  21.011  23.259  14.329
91129W        W59347  42.382  44.536   3.340
91130W        W59348  20.973  22.502  11.898
91131W        W59349  17.353  41.283   1.126
91132W        W59350  16.127   7.328   1.402
91133W        W59351  25.468   2.687   4.216
91134W        W59352  20.939  21.275   0.321
91135W        W59353   3.825  22.177  13.396
91136W        W59354  20.025  27.758  11.855
91137W        W59355   3.880   4.485  13.983
91138W        W59356  40.680  38.045   0.426
91139W        W59357   3.677   1.747   4.626
91140W        W59358  22.811  42.704   5.062
91141W        W59359   2.292  31.242  11.212
91142W        W59360   7.783   4.518   5.089
91143W        W59361  12.243   8.874   1.746
91144W        W59362   6.187  15.586  13.347
91145W        W59363  21.682  22.525   4.539
91146W        W59364  26.947  19.798  13.753
91147W        W59365  26.678   7.060   1.014
91148W        W59366   7.940  35.675   2.407
91149W        W59367  14.352  27.452   0.511
91150W        W59368   7.751  39.909   3.240
91151W        W59369  39.559  17.081   1.749
91152W        W59370  27.489   4.855   2.822
91153W        W59371  28.035  40.861  14.563
91154W        W59372   4.290  32.613  12.550
91155W        W59373  25.055  35.223  10.367
91156W        W59374  32.332   7.754   3.376
91157W        W59375  42.090   4.843  12.558
91158W        W59376  34.146   4.488  10.571
91159W        W59377  43.228  25.969  12.522
91160W        W59378   0.213  30.060   0.303
91161W        W59379  38.785  32.298   4.063
91162W        W59380  10.674  42.862  13.551
91163W        W59381  36.782  29.646   0.679
91164W        W59382   3.473  13.344   3.358
91165W        W59383  22.287  33.027  13.913
91166W        W59384  41.769  35.148  13.858
91167W        W59385  39.589  42.874   1.043
91168W        W59386  25.564   1.954   3.221
91169W        W59387   5.851   4.424  14.998
91170W        W59388  12.400   3.194   2.271
91171W        W59389  15.072  20.585   3.217
91172W        W59390  25.385  29.550  12.315
91173W        W59391  41.437  15.590   2.366
91174W        W59392  23.235  17.686   3.637
91175W        W59393  12.137  16.118  12.849
91176W        W59394  40.846   8.873  11.702
91177W        W59395  34.596  24.068  12.056
91178W        W59396  37.936   8.719   3.801
91179W        W59397  33.667  31.577   1.201
91180W        W59398  16.540  38.896   0.823
91181W        W59399  40.859  35.879  14.605
91182W        W59400  24.674   8.961   2.982
91183W        W59401  25.157  20.066  12.896
91184W        W59402  26.547  17.043  13.535
91185W        W59403  28.341  32.379  12.918
91186W        W59404  27.640  21.390   1.845
91187W        W59405  24.921   4.883   4.876
91188W        W59406  38.047  16.391  11.732
91189W        W59407   5.855  41.895   3.256
91190W        W59408  22.691  21.478  14.308
91191W        W59409  33.030   2.580   2.016
91192W        W59410   8.006  10.615   1.819
91193W        W59411  15.508   1.665   5.031
91194W        W59412  27.743  34.234   3.171
91195W        W59413  11.230  11.256   4.592
91196W        W59414  44.453  39.587   0.780
91197W        W59415  35.743  33.116   1.360
91198W        W59416  44.886  25.441  11.508
91199W        W59417  30.788  16.263   4.578
91200W        W59418  12.808  19.062   3.289
91201W        W59419  31.039  20.564  11.607
91202W        W59420   5.590   9.089   4.986
91203W        W59421  41.117  40.723  13.468
91204W        W59422  21.813  32.089  13.438
91205W        W59423  18.482   1.020  11.187
91206W        W59424  26.220  18.722  11.536
91207W        W59425  38.238  44.453  12.991
91208W        W59426   7.855   0.691  14.449
91209W        W59427  20.264   2.213   0.780
91210W        W59428  39.973  38.485  14.256
91211W        W59429  40.892  12.838  13.118
91212W        W59430   1.851   9.403   4.591
91213W        W59431  28.679  12.364  14.550
91214W        W59432  40.567  35.261  11.727
91215W        W59433  40.821  35.362   3.787
91216W        W59434  23.724  42.506   0.892
91217W        W59435  42.262   3.411  10.773
91218W        W59436  12.813   2.388  10.399
91219W        W59437  37.024  34.335   2.701
91220W        W59438  34.026  33.415  11.559
91221W        W59439   4.490  25.341   4.539
91222W        W59440  14.256   4.722  14.563
91223W        W59441  39.480   2.204  11.505
91224W        W59442  25.219   3.329   4.217
91225W        W59443  20.745  26.491  11.948
91226W        W59444  23.042   2.227  14.919
91227W        W59445  37.004  29.880  14.731
91228W        W59446  23.615   9.579   3.118
91229W        W59447  36.438  34.852  12.656
91230W        W59448  42.494  22.105   2.379
91231W        W59449  29.773  28.911  13.876
91232W        W59450   8.449   6.834   1.078
91233W        W59451  22.675  39.074  14.127
91234W        W59452   2.361  12.212  13.532
91235W        W59453  41.430  43.270   2.766
91236W        W59454  29.981  38.529  14.086
91237W        W59455   7.710   6.373   3.709
91238W        W59456  12.791  22.712   4.530
91239W        W59457  44.304  16.327   1.207
91240W        W59458   4.767  13.757  10.722
91241W        W59459   9.947  44.336  11.119
91242W        W59460  43.032  37.838   0.408
91243W        W59461  26.052  29.776   3.357
91244W        W59462   7.196   3.789  13.992
91245W        W59463  30.873  39.042   0.114
91246W        W59464  16.132  40.461   3.730
91247W        W59465  35.497  35.321   2.395
91248W        W59466  42.009  11.422  11.944
91249W        W59467  16.744  38.948   4.414
91250W        W59468  23.998  30.865   4.750
91251W        W59469  42.502   9.880  13.101
91252W        W59470   9.321  36.804  12.464
91253W        W59471  24.676  33.527   2.158
91254W        W59472  26.650  37.375  11.594
91255W        W59473  28.509  38.045   1.933
91256W        W59474  12.611   3.546   4.915
91257W        W59475  44.913   1.872   0.444
91258W        W59476  21.544  43.881   1.033
91259W        W59477  21.723  12.761  11.611
91260W        W59478  16.309  12.690   2.231
91261W        W59479   1.184  38.540  13.329
91262W        W59480  17.197  34.966   3.323
91263W        W59481  24.853  22.246  13.485
91264W        W59482  27.419  21.741  13.269
91265W        W59483  37.687  30.714   0.755
91266W        W59484  42.861  13.356   2.698
91267W        W59485  20.829   4.236  10.853
91268W        W59486  39.397  22.194   3.937
91269W        W59487   3.345  23.653   2.784
91270W        W59488  38.121  16.229  10.620
91271W        W59489  27.602  42.343   2.237
91272W        W59490  31.006  24.289   2.173
91273W        W59491   6.917  21.531  11.482
91274W        W59492  10.140  41.270   1.964
91275W        W59493  37.621   3.289   3.402
91276W        W59494  43.064   3.795   3.551
91277W        W59495  22.205   4.749  12.937
91278W        W59496   1.687   3.843  12.079
91279W        W59497  12.090  18.322  14.591
91280W        W59498  31.611   3.150  13.878
91281W        W59499  12.642  33.622   4.795
91282W        W59500  38.515  27.049  12.894
91283W        W59501  11.689  21.877   4.301
91284W        W59502  36.196  26.957  11.142
91285W        W59503  17.665  41.502  13.447
91286W        W59504  12.235  15.372   3.245
91287W        W59505  29.134  25.014  10.120
91288W        W59506  32.627  39.757   3.631
91289W        W59507  19.475  25.206   4.363
91290W        W59508   6.994  27.171  12.111
91291W        W59509  12.388  33.320  12.348
91292W        W59510   9.278  15.106   0.009
91293W        W59511  29.250  23.480   1.898
91294W        W59512   3.840  44.180  14.756
91295W        W59513  41.482  41.492   1.038
91296W        W59514  33.745  28.601   0.785
91297W        W59515  32.085  22.984   4.547
91298W        W59516  44.987  37.017   0.199
91299W        W59517  14.114  30.598   0.938
91300W        W59518  23.091  15.289  10.540
91301W        W59519  44.359  11.103   1.069
91302W        W59520  12.748   6.903  13.029
91303W        W59521  42.798  29.953  13.426
91304W        W59522  37.858   1.692   1.121
91305W        W59523  36.291  43.786  12.396
91306W        W59524  32.578  34.957  13.093
91307W        W59525   5.181  27.616   4.510
91308W        W59526  28.360  21.424   0.282
91309W        W59527  17.608  36.366   0.986
91310W        W59528  16.694  36.489   0.342
91311W        W59529  16.171   1.645   2.832
91312W        W59530  26.761  14.134  13.051
91313W        W59531  16.866  11.661   1.940
91314W        W59532  14.790  44.579   0.926
91315W        W59533  40.089  11.435   1.838
91316W        W59534  20.608   7.093  13.871
91317W        W59535  41.201  22.178  12.002
91318W        W59536   4.769  16.256  13.503
91319W        W59537  37.034  11.884  14.028
91320W        W59538  12.298  23.123  11.664
91321W        W59539  19.749  31.012  14.937
91322W        W59540  11.889  38.828  12.590
91323W        W59541  41.921  15.830   0.432
91324W        W59542  28.223  26.268  13.600
91325W        W59543  27.283  24.827   3.507
91326W        W59544  13.679  20.739  13.242
91327W        W59545  40.008   9.398  13.316
91328W        W59546   6.411  43.095  10.205
91329W        W59547  30.671  20.202  11.584
91330W        W59548  37.831   1.429  14.348
91331W        W59549  12.532  25.209  10.490
91332W        W59550   6.007   5.718   1.333
91333W        W59551  39.112  20.309   3.619
91334W        W59552   2.383   2.150   1.334
91335W        W59553   6.623   2.446   3.216
91336W        W59554  26.087  26.041  14.727
91337W        W59555  11.189  35.885  11.132
91338W        W59556  37.662  30.660  13.452
91339W        W59557  42.356  34.513  12.462
91340W        W59558  42.153  24.145  13.793
91341W        W59559  25.974  24.714  14.380
91342W        W59560  30.964  13.225   0.548
91343W        W59561  16.321  27.323   3.596
91344W        W59562  35.137  24.965  13.985
91345W        W59563  22.134  32.911   0.333
91346W        W59564  21.144  38.904  12.855
91347W        W59565  11.634   9.739   1.415
91348W        W59566  11.885  19.224  14.420
91349W        W59567  38.108  38.675   1.198
91350W        W59568  21.525   6.777   0.662
91351W        W59569  36.881  33.415   3.334
91352W        W59570  41.488   5.371  14.483
91353W        W59571  40.940  15.387  11.493
91354W        W59572  26.022  42.066   0.892
91355W        W59573  27.133  10.772  12.289
91356W        W59574   2.726  44.920   3.495
91357W        W59575   2.737  28.980  14.880
91358W        W59576   2.624  38.896   0.455
91359W        W59577  18.654  34.192  11.963
91360W        W59578  26.954  11.883  12.900
91361W        W59579   2.384   9.442  13.752
91362W        W59580  17.102   1.336   1.320
91363W        W59581   6.197  31.918   1.414
91364W        W59582  24.948  39.565   2.278
91365W        W59583  27.609   5.466  13.501
91366W        W59584  22.757  14.693   3.276
91367W        W59585  10.147  30.642   1.235
91368W        W59586  25.509  19.246   3.872
91369W        W59587  19.122  27.755  12.511
91370W        W59588  24.619  10.622  11.169
91371W        W59589  18.219  26.979   2.275
91372W        W59590  27.538  31.293   4.754
91373W        W59591  20.009  21.132  10.708
91374W        W59592  31.923   5.197  12.189
91375W        W59593  20.424  43.153   3.518
91376W        W59594  18.658  41.870  10.853
91377W        W59595  27.527  12.635  14.055
91378W        W59596  24.752  38.727   0.246
91379W        W59597  28.086  16.102  11.575
91380W        W59598  20.954   6.822  13.078
91381W        W59599   9.603  33.089  12.305
91382W        W59600  20.987  12.052   4.259
91383W        W59601  32.738  39.259   3.781
91384W        W59602  12.037   2.121   4.328
91385W        W59603  16.903  11.843  11.120
91386W        W59604  38.974  38.656   2.208
91387W        W59605  33.003  10.871   3.972
91388W        W59606  39.886  10.710   3.713
91389W        W59607  33.705   9.927   2.832
91390W        W59608  28.176   1.662   3.660
91391W        W59609  32.447  22.180  13.079
91392W        W59610   9.699  32.521  14.777
91393W        W59611  37.480  33.918   3.820
91394W        W59612  25.689   9.886   2.373
91395W        W59613   3.504  37.059   3.995
91396W        W59614  14.578  20.664  13.070
91397W        W59615  32.480   5.360   3.619
91398W        W59616   3.388  42.379  11.470
91399W        W59617   6.425  27.958   1.751
91400W        W59618  31.658  36.026   2.323
91401W        W59619  20.832  14.779  10.702
91402W        W59620   5.565  15.762  10.639
91403W        W59621   7.770  16.192   2.094
91404W        W59622   4.946  25.286  14.214
91405W        W59623   0.511   1.235  12.936
91406W        W59624  29.587  19.305  13.400
91407W        W59625  43.450  33.132   2.694
91408W        W59626  36.090  22.804  10.621
91409W        W59627  39.359  30.974  10.844
91410W        W59628   7.850  39.135   0.743
91411W        W59629  40.677  42.363   1.842
91412W        W59630  40.031  22.594  10.754
91413W        W59631  28.553  13.901   1.307
91414W        W59632  31.044  34.632  13.090
91415W        W59633  23.188  42.005  14.456
91416W        W59634  44.686  37.965   1.760
91417W        W59635  33.997  22.460   2.304
91418W        W59636  15.059   4.001  12.890
91419W        W59637  25.029   8.944  14.432
91420W        W59638  44.931  35.506  11.438
91421W        W59639  40.963  18.665   1.431
91422W        W59640  36.918  44.057   3.715
91423W        W59641  35.571   4.263   2.786
91424W        W59642  36.297  43.819  10.687
91425W        W59643  30.615  15.128   4.618
91426W        W59644  21.809  33.148   0.015
91427W        W59645  37.971  18.572  11.943
91428W        W59646  24.020  37.073   0.797
91429W        W59647   3.313  27.747   3.547
91430W        W59648   4.267  28.008  11.524
91431W        W59649  10.575  24.395   1.222
91432W        W59650  40.826  40.330   4.371
91433W        W59651  28.671   6.341   3.595
91434W        W59652   7.101   4.702  10.353
91435W        W59653  29.927   1.023  12.458
91436W        W59654   8.163   6.943   1.893
91437W        W59655   1.384  38.558  10.799
91438W        W59656  29.009   6.725   3.130
91439W        W59657   8.392  41.102  12.870
91440W        W59658  44.450  16.939   1.751
91441W        W59659  27.390   0.978  12.104
91442W        W59660  12.837  14.033   0.920
91443W        W59661  35.843   6.507  11.895
91444W        W59662  27.965   7.622   0.627
91445W        W59663  43.658  13.821  11.535
91446W        W59664  36.988  13.292  13.049
91447W        W59665  14.449  14.217  14.438
91448W        W59666  19.996  21.149  11.226
91449W        W59667  12.000  25.490   0.179
91450W        W59668  23.579   6.364   2.418
91451W        W59669  10.642  13.536   4.821
91452W        W59670   2.122   0.718   1.335
91453W        W59671  25.974  10.239   4.614
91454W        W59672  18.652  27.100   4.550
91455W        W59673   1.293  22.962  13.107
91456W        W59674  23.243   7.603  13.372
91457W        W59675  42.826  15.634   1.933
91458W        W59676  29.877  35.591  11.182
91459W        W59677  11.908  41.343   3.203
91460W        W59678   4.320  21.038  14.714
91461W        W59679  44.668  34.964  10.640
91462W        W59680  42.348  35.821   3.592
91463W        W59681  34.342  12.295   3.151
91464W        W59682  32.490   9.549   1.930
91465W        W59683  14.193  27.024  12.136
91466W        W59684  43.315  18.475  13.075
91467W        W59685  43.908  33.874  14.265
91468W        W59686  15.152   9.643   0.752
91469W        W59687  16.007   3.429  14.919
91470W        W59688  28.092   0.455  13.058
91471W        W59689  30.983  42.345  10.703
91472W        W59690  12.131   5.836   0.964
91473W        W59691  10.759  16.306   3.213
91474W        W59692  21.605  14.198  12.986
91475W        W59693  44.902  41.897  12.650
91476W        W59694   1.776  12.664   2.242
91477W        W59695   3.850  24.649  11.074
91478W        W59696  44.234  13.483  10.676
91479W        W59697  14.367  40.583  14.361
91480W        W59698  37.250   4.404   3.294
91481W        W59699  16.747   7.717   1.403
91482W        W59700  39.838  35.437   3.526
91483W        W59701   4.847   4.456  13.931
91484W        W59702  17.561  42.965   2.530
91485W        W59703   8.881  22.234   4.330
91486W        W59704  42.478  38.978   3.319
91487W        W59705  40.838  30.968   0.802
91488W        W59706  37.264   6.737  13.335
91489W        W59707  30.908  25.197   2.807
91490W        W59708   4.957   3.533   1.218
91491W        W59709  37.543  15.687  11.107
91492W        W59710  43.708  20.712  10.860
91493W        W59711  11.348  25.397  12.375
91494W        W59712  25.589  29.889   4.476
91495W        W59713  30.176  41.468  14.288
91496W        W59714  38.824  43.887   2.599
91497W        W59715  25.648  38.468  14.329
91498W        W59716  29.670  27.184   0.405
91499W        W59717  27.603  28.554   4.290
91500W        W59718  30.647  29.008  13.992
91501W        W59719   3.537  35.356  11.524
91502W        W59720  26.577  17.036   2.220
91503W        W59721  43.476   8.205   3.605
91504W        W59722  23.026  27.997   2.258
91505W        W59723  25.427   7.820   3.459
91506W        W59724   4.872  15.903   1.142
91507W        W59725  31.587   0.693  11.589
91508W        W59726  28.079   8.894  10.969
91509W        W59727  42.152  41.473   4.218
91510W        W59728  13.376  24.658  14.914
91511W        W59729  19.515  39.288  13.500
91512W        W59730  21.598  32.001   4.666
91513W        W59731  33.050  39.272   3.260
91514W        W59732  31.556  18.137  14.049
91515W        W59733  15.312  10.074   4.727
91516W        W59734  14.862  34.251   2.255
91517W        W59735  31.826   1.251   3.951
91518W        W59736   8.399  17.209   2.306
91519W        W59737  34.929   8.845  11.184
91520W        W59738  21.900  37.543   0.008
91521W        W59739  44.920  43.703   3.339
91522W        W59740  13.779   5.004  13.402
91523W        W59741   5.728   8.159   4.488
91524W        W59742  20.246   9.909   2.173
91525W        W59743  32.929   7.583   4.956
91526W        W59744  23.721  12.762   2.928
91527W        W59745  12.064  41.929  11.000
91528W        W59746  36.727  28.513   4.011
91529W        W59747  43.497  16.745   1.124
91530W        W59748   3.561  16.575   4.456
91531W        W59749  34.198  18.718  14.425
91532W        W59750   9.774  20.218  13.263
91533W        W59751  28.239   4.479  13.140
91534W        W59752   4.838   7.118  10.602
91535W        W59753  24.242  44.912   0.293
91536W        W59754  19.575  12.271   2.209
91537W        W59755  22.036  21.971   0.421
91538W        W59756  18.385   8.637  12.662
91539W        W59757  15.750  33.142  13.396
91540W        W59758  18.887  37.847  14.901
91541W        W59759  20.622  35.659   5.056
91542W        W59760  44.219  31.610   3.647
91543W        W59761  42.999  36.171  10.628
91544W        W59762   1.360   7.387   3.279
91545W        W59763  14.949  13.354  11.561
91546W        W59764  44.685  37.144  14.757
91547W        W59765   0.477  18.221  10.853
91548W        W59766  43.496   7.791   3.291
91549W        W59767  20.921  19.290  11.501
91550W        W59768   3.349  11.855   4.849
91551W        W59769   3.965   0.877   4.717
91552W        W59770  37.324  25.618   1.908
91553W        W59771  23.138  12.300  12.396
91554W        W59772  17.425  20.526  10.116
91555W        W59773  34.402   5.220  13.005
91556W        W59774  33.893  34.476  11.618
91557W        W59775  33.514  24.028  13.899
91558W        W59776  31.594  35.885  13.110
91559W        W59777   2.071  35.888   0.470
91560W        W59778  21.134  35.444  11.642
91561W        W59779   7.257  35.602   3.739
91562W        W59780  41.845  28.214  11.017
91563W        W59781  13.971  13.358   3.818
91564W        W59782  41.557  29.128   1.231
91565W        W59783  28.143   2.482   4.085
91566W        W59784   5.566  39.900  10.644
91567W        W59785   7.632  25.294   3.362
91568W        W59786  38.857   7.351  11.537
91569W        W59787   7.122  13.496  11.942
91570W        W59788  24.101  20.196  12.053
91571W        W59789  30.511  25.814   4.483
91572W        W59790  38.503  34.545   1.458
91573W        W59791  11.895   0.287  13.169
91574W        W59792  17.645   9.471   1.420
91575W        W59793  12.474  40.068   4.558
91576W        W59794  30.992  21.191   0.375
91577W        W59795  16.779   3.147  14.467
91578W        W59796  38.097  42.403   0.842
91579W        W59797  23.593  40.463   4.041
91580W        W59798  21.633  19.306   4.047
91581W        W59799  16.225  25.946  13.993
91582W        W59800  18.839  42.986   3.534
91583W        W59801  26.231   3.318  14.803
91584W        W59802  16.242  39.158  13.153
91585W        W59803  22.027  10.909  14.798
91586W        W59804  15.956  11.187   1.402
91587W        W59805  33.428  13.845   4.368
91588W        W59806  27.171   2.702  12.424
91589W        W59807  29.073  33.848  12.467
91590W        W59808  14.325  40.936  11.971
91591W        W59809  39.168   5.427  14.437
91592W        W59810  14.695  17.534  14.451
91593W        W59811  42.814  21.078   0.256
91594W        W59812  37.430   4.409  12.251
91595W        W59813  22.876  38.931  10.678
91596W        W59814  44.539  32.638  12.083
91597W        W59815  23.329  43.273   0.763
91598W        W59816  15.634  12.180  13.882
91599W        W59817  24.026  43.879   0.313
91600W        W59818  12.656   8.807  14.238
91601W        W59819  44.618  37.500  12.044
91602W        W59820  39.497   2.441  14.387
91603W        W59821  20.627  37.077   0.424
91604W        W59822  12.841  11.761   4.242
91605W        W59823  39.488  32.360   1.900
91606W        W59824  35.438  37.425   1.257
91607W        W59825   5.276  24.149   0.573
91608W        W59826  40.921  31.058  14.446
91609W        W59827   2.407  28.991  13.829
91610W        W59828  11.418   8.508  14.868
91611W        W59829   3.257  26.399  11.199
91612W        W59830  17.331   9.771   2.457
91613W        W59831   6.155   9.420   2.301
91614W        W59832   6.456   8.941  11.902
91615W        W59833  34.937   0.723   4.958
91616W        W59834   6.943  11.262   1.286
91617W        W59835   9.766  15.216  14.886
91618W        W59836  17.398  18.260  14.495
91619W        W59837   7.959   6.169  11.168
91620W        W59838  35.688  24.012  12.006
91621W        W59839  28.771  11.594  14.510
91622W        W59840  24.209  16.583   0.148
91623W        W59841  14.381  24.467  10.622
91624W        W59842  19.568   6.724  13.956
91625W        W59843  20.758  30.908  14.871
91626W        W59844  24.635  39.644   4.733
91627W        W59845  36.306  42.014   1.370
91628W        W59846  28.609  17.621  14.196
91629W        W59847   5.941  26.545  14.822
91630W        W59848  44.438  18.885   2.425
91631W        W59849  19.108  44.609  11.906
91632W        W59850  27.860  30.163  13.531
91633W        W59851   4.435  30.533  13.893
91634W        W59852  13.186  20.571  11.591
91635W        W59853  21.123  23.443  11.868
91636W        W59854  19.669  24.015   0.235
91637W        W59855  16.689  23.551   2.746
91638W        W59856   1.150  41.783  12.593
91639W        W59857  19.816  39.054  12.982
91640W        W59858  38.615   7.958   0.212
91641W        W59859  37.743  18.169   1.125
91642W        W59860  34.137  42.757  14.911
91643W        W59861  41.111  30.720   0.388
91644W        W59862  39.618  16.264   4.443
91645W        W59863   7.809   4.698  11.488
91646W        W59864  23.080  22.632  11.173
91647W        W59865   2.873  19.278  10.750
91648W        W59866  24.585   6.717  12.130
91649W        W59867  15.074   7.127   2.737
91650W        W59868   4.878  37.552   3.320
91651W        W59869  32.083   5.236  14.374
91652W        W59870  12.506  25.543   0.287
91653W        W59871  41.681  40.504   4.477
91654W        W59872  19.645  31.177  13.116
91655W        W59873  21.075   2.493   2.312
91656W        W59874   1.816   4.357  14.363
91657W        W59875  36.512  33.280   1.944
91658W        W59876  19.742  29.213  12.398
91659W        W59877  21.751   7.256  13.553
91660W        W59878  38.920  40.613   2.758
91661W        W59879  32.873   5.043   3.730
91662W        W59880  27.028  38.421  12.029
91663W        W59881   5.146  38.803  10.452
91664W        W59882  25.393   9.434  11.109
91665W        W59883   0.710  31.933  13.787
91666W        W59884  42.410   4.373   2.846
91667W        W59885  10.710   7.068   1.347
91668W        W59886  44.520   6.300  10.468
91669W        W59887  41.946  17.868   0.283
91670W        W59888   6.771  33.164   0.228
91671W        W59889  21.013   9.596   1.601
91672W        W59890  29.173  41.874  10.928
91673W        W59891  10.659  24.886   0.282
91674W        W59892  32.990  43.628   1.867
91675W        W59893  38.331  29.698  13.607
91676W        W59894   4.892  17.674  11.653
91677W        W59895  19.649   4.717  11.423
91678W        W59896  15.250  32.366   2.316
91679W        W59897   1.459  43.840  13.464
91680W        W59898  18.867   3.337  10.304
91681W        W59899   9.648  41.424  14.369
91682W        W59900  44.287  43.009   2.380
91683W        W59901  30.894   6.874  12.484
91684W        W59902  17.239  41.686   0.187
91685W        W59903  17.608  28.223   3.665
91686W        W59904  30.707  10.844   3.625
91687W        W59905  26.000  22.691   3.486
91688W        W59906  35.141  33.924  13.297
91689W        W59907  25.584   8.262  11.609
91690W        W59908  26.195  19.147  10.667
91691W        W59909  24.902   7.448   0.349
91692W        W59910  12.702   7.325  12.096
91693W        W59911  21.321  42.489  12.900
91694W        W59912  28.148  12.238  14.612
91695W        W59913  37.358  26.040  14.337
91696W        W59914  24.621  20.778  13.448
91697W        W59915  42.559  11.097   0.430
91698W        W59916  27.491  18.689  12.084
91699W        W59917  41.260  14.546  14.561
91700W        W59918   6.838  24.687  11.648
91701W        W59919   2.471   7.222   4.748
91702W        W59920  27.689   9.805   1.991
91703W        W59921  16.072  19.520   1.212
91704W        W59922  27.868  19.453  14.195
91705W        W59923  16.814  15.780   2.299
91706W        W59924   9.940  15.906  10.278
91707W        W59925   8.224  43.870  14.481
91708W        W59926  18.156   5.391   0.700
91709W        W59927  31.681   9.371  12.005
91710W        W59928  27.086  18.640   4.629
91711W        W59929   1.403  44.348  14.987
91712W        W59930  24.062  20.704   4.186
91713W        W59931  36.410  32.719  13.147
91714W        W59932   8.134  37.430   3.147
91715W        W59933  40.015   3.250   2.362
91716W        W59934  33.089  11.347  14.769
91717W        W59935   4.797  39.710  14.913
91718W        W59936  21.906   8.056  12.033
91719W        W59937  13.616  35.962   1.448
91720W        W59938  24.596  38.056   2.423
91721W        W59939  26.183  36.601   3.285
91722W        W59940  36.338  18.601   3.784
91723W        W59941   0.890  37.223   0.637
91724W        W59942  39.562  11.197   3.165
91725W        W59943  22.173   6.828  14.362
91726W        W59944  25.171   4.661  10.108
91727W        W59945  35.993  15.184  12.439
91728W        W59946   1.717  43.957  13.024
91729W        W59947  30.486  25.329   4.636
91730W        W59948   4.831  15.089  14.905
91731W        W59949  43.734   8.960  14.274
91732W        W59950  40.148  33.482   4.531
91733W        W59951  14.120  29.521   4.543
91734W        W59952  44.629  40.329  14.545
91735W        W59953  14.790  23.552  10.766
91736W        W59954  23.302   6.416  14.264
91737W        W59955   3.310   5.291   3.738
91738W        W59956  15.701   4.391   5.020
91739W        W59957   5.477  39.026   4.086
91740W        W59958  43.493  15.091   4.015
91741W        W59959   8.338  32.877  13.993
91742W        W59960  13.480  33.513   2.787
91743W        W59961  21.476  13.178  12.574
91744W        W59962  17.907  30.507   4.958
91745W        W59963   4.197  32.411  10.762
91746W        W59964  15.997  24.968  12.985
91747W        W59965  20.696  42.851  14.879
91748W        W59966  25.118  17.156   2.164
91749W        W59967   2.870   8.689  10.473
91750W        W59968  20.079  30.521   1.348
91751W        W59969  37.024   7.150   1.317
91752W        W59970   1.207  43.895  13.918
91753W        W59971  37.354  20.681  13.589
91754W        W59972  35.021   3.371  14.016
91755W        W59973   0.962  30.358   4.823
91756W        W59974  36.430  37.046   3.604
91757W        W59975  37.133  32.995   3.071
91758W        W59976  32.337   0.985  10.219
91759W        W59977  28.041  37.809  10.524
91760W        W59978  11.639  36.303   0.953
91761W        W59979  41.681  39.852   4.788
91762W        W59980  40.330   1.028   0.500
91763W        W59981  25.679  17.549   3.667
91764W        W59982  44.901  23.917   4.746
91765W        W59983  40.319   2.920   2.648
91766W        W59984  16.848  35.798  13.883
91767W        W59985  10.645   9.944  12.492
91768W        W59986  21.229  35.943   1.387
91769W        W59987  31.291  20.944  12.355
91770W        W59988  38.027  44.516  13.895
91771W        W59989   5.779  14.702  13.945
91772W        W59990  33.736  21.477   1.941
91773W        W59991  10.723  28.205  12.480
91774W        W59992   7.297  38.929   0.728
91775W        W59993   9.111  42.377  13.906
91776W        W59994  17.761  36.530  13.823
91777W        W59995  19.688  37.387   3.768
91778W        W59996  40.911   7.717   1.790
91779W        W59997  42.694   2.309   2.296
91780W        W59998  36.556  31.668   1.818
91781W        W59999   6.724   5.216   0.351
91782W        W60000  42.951  39.117   3.618
91783W        W60001  38.997  13.185  10.983
91784W        W60002  29.196   4.669  12.462
91785W        W60003  18.064   6.869   1.013
91786W        W60004  33.665  19.158  12.546
91787W        W60005   6.700  28.723   2.840
91788W        W60006  34.281  15.153   0.424
91789W        W60007  43.841  18.727   2.795
91790W        W60008  28.079   1.773  11.017
91791W        W60009  44.764  26.896  12.502
91792W        W60010  32.387   7.915  10.817
91793W        W60011  16.258  19.962   4.932
91794W        W60012   6.408   9.977  13.780
91795W        W60013  44.504  42.850   5.012
91796W        W60014   1.350   2.392  14.724
91797W        W60015  24.490   4.282   2.736
91798W        W60016   8.797   7.180  12.449
91799W        W60017  10.058  22.651  11.926
91800W        W60018  25.957  12.579   4.599
91801W        W60019  24.253  26.973   2.926
91802W        W60020  28.312  13.728   0.841
91803W        W60021   5.217  16.248   4.920
91804W        W60022  16.300  27.023  14.355
91805W        W60023  22.708  13.876  14.785
91806W        W60024   4.615  44.005   4.864
91807W        W60025  20.335  21.535  11.186
91808W        W60026  18.762  21.207   5.317
91809W        W60027  13.136  26.662  11.089
91810W        W60028  41.363  22.406  12.468
91811W        W60029  39.408  14.554   3.624
91812W        W60030  21.271  23.256   0.011
91813W        W60031   8.424  20.212  11.526
91814W        W60032   0.298  36.390   4.621
91815W        W60033  18.552   4.379   0.988
91816W        W60034  26.369  26.997  11.925
91817W        W60035   2.358  34.447   1.126
91818W        W60036  38.261   1.125  10.406
91819W        W60037  16.880   7.227  11.560
91820W        W60038   9.827   1.059  12.645
91821W        W60039   2.933  35.442   0.099
91822W        W60040   9.267  28.515   4.562
91823W        W60041   7.439  25.238  13.440
91824W        W60042   6.395  22.218   0.615
91825W        W60043  23.953  40.256   1.726
91826W        W60044  30.477  42.587  11.684
91827W        W60045  19.480  28.117   2.299
91828W        W60046  29.851   2.451   2.884
91829W        W60047   5.220  41.289   3.078
91830W        W60048   9.946  40.927   0.871
91831W        W60049  26.515   6.394  12.078
91832W        W60050  26.024   0.833   1.548
91833W        W60051  25.586  36.828   0.020
91834W        W60052   9.090  26.272   1.216
91835W        W60053   3.853  29.595  13.615
91836W        W60054   4.137  20.216   2.596
91837W        W60055   5.335   3.655   3.115
91838W        W60056  37.984  15.745   0.064
91839W        W60057  33.678  32.570   2.967
91840W        W60058  26.069  22.528  13.787
91841W        W60059  25.044  18.619  13.586
91842W        W60060  38.076  16.312   4.693
91843W        W60061  44.055  14.105  14.099
91844W        W60062  30.052   8.532  13.819
91845W        W60063  36.016  11.156   3.182
91846W        W60064  19.554  30.573  13.433
91847W        W60065  36.875  39.259   2.735
91848W        W60066  19.136   4.698   4.922
91849W        W60067   0.784  34.406   2.575
91850W        W60068  15.847  18.047  14.287
91851W        W60069   7.795  41.561  14.735
91852W        W60070  25.849  36.967   4.627
91853W        W60071  25.215   9.604  13.855
91854W        W60072  34.425  43.214  12.055
91855W        W60073  30.504   7.207  11.652
91856W        W60074  40.016  18.288  14.318
91857W        W60075  11.258  19.207  11.491
91858W        W60076   5.418  20.849  10.804
91859W        W60077  11.006  29.047  14.375
91860W        W60078  35.426   7.917  14.424
91861W        W60079   4.413  11.607   2.832
91862W        W60080  20.208  36.361  11.417
91863W        W60081  41.014  23.434   2.524
91864W        W60082  38.690   2.307  10.786
91865W        W60083  43.774  19.120   0.287
91866W        W60084  15.298  41.827  12.493
91867W        W60085   4.957   7.412  13.921
91868W        W60086  39.952  29.992   4.367
91869W        W60087  37.395  41.575   2.190
91870W        W60088  12.653  14.031  10.863
91871W        W60089  12.412  40.319   1.372
91872W        W60090   6.179   9.246  12.657
91873W        W60091  33.107   5.229  11.619
91874W        W60092   0.921  37.560  12.504
91875W        W60093   3.775  13.274   1.494
91876W        W60094  16.158  41.919   0.961
91877W        W60095  32.350  44.662   2.111
91878W        W60096  23.673  33.122   0.911
91879W        W60097  37.612   9.320  11.824
91880W        W60098  33.152  43.417  14.570
91881W        W60099  18.073  23.912   3.714
91882W        W60100  37.507  39.305   0.960
91883W        W60101  37.834  23.221  12.809
91884W        W60102  26.353  26.008   9.937
91885W        W60103  37.340  41.775   1.166
91886W        W60104   8.832  39.307   2.674
91887W        W60105  15.380  18.454  12.045
91888W        W60106  41.358  42.124  12.453
91889W        W60107  15.246  21.195  11.178
91890W        W60108  12.281  12.545  12.613
91891W        W60109   2.549  33.941   4.181
91892W        W60110   5.318  21.405  11.427
91893W        W60111  17.512  34.838  12.028
91894W        W60112  32.613  36.505  14.755
91895W        W60113  26.209  32.675   4.319
91896W        W60114   0.021  44.458  12.663
91897W        W60115  40.600  44.171   1.624
91898W        W60116  30.444  27.070  10.247
91899W        W60117   6.276  12.399  11.655
91900W        W60118  17.041   2.797   1.790
91901W        W60119  23.078   0.003  12.478
91902W        W60120   7.722   6.207  14.404
91903W        W60121   0.833  39.286   2.315
91904W        W60122  19.660  19.864  10.777
91905W        W60123  11.927  23.658  13.637
91906W        W60124   6.674   1.901   3.830
91907W        W60125  25.173  42.822  12.525
91908W        W60126   2.228  23.550  14.805
91909W        W60127  23.952   3.353   2.576
91910W        W60128  35.688  36.601  10.704
91911W        W60129  35.608  43.432  11.558
91912W        W60130  43.034  40.809  14.007
91913W        W60131  29.400  32.389  12.969
91914W        W60132  10.189   2.758  13.827
91915W        W60133  10.862  24.154  14.884
91916W        W60134   7.556  39.064   4.621
91917W        W60135  31.432  11.383  11.537
91918W        W60136  43.456  24.553  13.378
91919W        W60137  35.854  23.110  14.779
91920W        W60138  18.304   3.803  11.923
91921W        W60139  25.868  11.861  11.631
91922W        W60140  20.420  28.675  11.532
91923W        W60141   2.396  27.120  12.881
91924W        W60142  19.507   6.694   1.895
91925W        W60143   9.366   9.368   3.389
91926W        W60144  43.141  35.610   2.431
91927W        W60145  17.639  39.741   3.747
91928W        W60146  28.243  44.176  14.257
91929W        W60147  17.513  12.412  12.151
91930W        W60148  41.580  27.676  12.948
91931W        W60149   8.860  34.062  10.851
91932W        W60150  41.774  34.318   0.744
91933W        W60151  32.455  16.587  14.416
91934W        W60152  41.629  16.741   4.519
91935W        W60153  19.023  36.938  13.460
91936W        W60154   1.567  20.580  14.941
91937W        W60155  17.888   1.965   2.334
91938W        W60156  10.260  23.256   0.741
91939W        W60157  11.780  27.925  10.658
91940W        W60158   3.162   0.018  12.335
91941W        W60159   0.288  35.069  12.018
91942W        W60160  40.605   8.310  12.137
91943W        W60161   5.322  42.951   1.667
91944W        W60162  37.817  36.368   3.803
91945W        W60163   3.604  27.160   2.392
91946W        W60164  30.972  25.172  12.921
91947W        W60165  27.404  22.263   1.786
91948W        W60166  32.990  43.582   0.020
91949W        W60167  21.550   5.380   2.597
91950W        W60168  16.023  36.435   0.957
91951W        W60169  42.537  44.766   4.717
91952W        W60170  10.101  27.560   5.070
91953W        W60171  23.520   8.806  11.529
91954W        W60172  37.464  38.018   1.367
91955W        W60173  36.997  38.430  14.309
91956W        W60174  24.054   5.148   0.290
91957W        W60175  32.958   0.069  13.594
91958W        W60176  44.766  35.140  12.060
91959W        W60177  13.852  31.345  14.415
91960W        W60178  22.169  10.430   3.187
91961W        W60179  10.284  17.893  13.300
91962W        W60180  17.852  44.950   1.247
91963W        W60181  37.528   5.539  12.367
91964W        W60182  27.726  22.391  12.236
91965W        W60183   7.777  32.663  12.071
91966W        W60184  21.179  31.151   2.815
91967W        W60185  14.333  35.012  12.408
91968W        W60186   0.906  39.264   4.832
91969W        W60187  21.532   1.034   3.126
91970W        W60188  35.404   7.921   0.479
91971W        W60189   6.402  11.111  14.559
91972W        W60190  12.329  37.839   2.699
91973W        W60191  34.892   0.740   2.416
91974W        W60192  13.632  42.364  11.581
91975W        W60193  21.001  26.673   4.153
91976W        W60194  16.298  26.471  12.838
91977W        W60195  38.048   1.535   0.288
91978W        W60196  43.105   8.366   2.429
91979W        W60197  41.609  35.950   0.197
91980W        W60198  25.006  40.455  11.606
91981W        W60199  19.581   2.674  11.227
91982W        W60200  26.961  25.101  10.227
91983W        W60201  26.029  25.254  14.384
91984W        W60202  12.184   8.009  13.842
91985W        W60203  37.882  43.282   1.883
91986W        W60204  21.998  37.116  12.515
91987W        W60205  11.392  33.340   1.876
91988W        W60206  13.214   2.157  11.132
91989W        W60207   1.148  10.791   0.780
91990W        W60208  28.728  32.844   3.792
91991W        W60209  11.543  21.506  12.984
91992W        W60210   9.637  13.018  13.530
91993W        W60211   9.744  42.227   4.797
91994W        W60212  16.703  34.327   3.700
91995W        W60213  11.693   3.401  12.162
91996W        W60214  17.219  32.260   4.334
91997W        W60215  14.283  28.611  11.662
91998W        W60216  12.534  18.879  11.966
91999W        W60217   3.762  10.641  10.892
92000W        W60218   0.847  17.064   2.144
92001W        W60219  27.967  24.156   1.844
92002W        W60220   6.067  39.824  10.576
92003W        W60221  40.743  21.548   1.921
92004W        W60222   4.792  36.522   1.898
92005W        W60223  33.873  41.956  11.230
92006W        W60224  33.100  10.503   3.011
92007W        W60225  23.539   3.388   0.021
92008W        W60226  29.419  32.905  12.895
92009W        W60227  16.282  22.297   2.713
92010W        W60228   3.156  10.171   2.782
92011W        W60229   4.844   4.379  10.710
92012W        W60230   9.511   5.829   1.323
92013W        W60231   4.766  34.330  13.510
92014W        W60232  40.469  16.841  12.093
92015W        W60233  17.548  41.622   3.792
92016W        W60234  39.015  25.506   3.767
92017W        W60235  16.739   0.249  10.080
92018W        W60236  25.744  18.484   4.100
92019W        W60237  44.234  16.350  11.129
92020W        W60238  23.442  33.466   3.637
92021W        W60239  43.811  40.454  12.816
92022W        W60240  40.893  23.962   0.423
92023W        W60241  35.626  13.689   3.341
92024W        W60242  24.993  37.181   1.873
92025W        W60243  34.838  17.231  12.403
92026W        W60244  20.729  19.495   0.434
92027W        W60245  11.881   0.984   4.525
92028W        W60246   1.023  33.852  13.787
92029W        W60247  14.395   6.584   2.610
92030W        W60248  23.166  33.872   0.715
92031W        W60249   7.327  13.313  13.927
92032W        W60250  35.091   1.423   0.882
92033W        W60251  16.466   3.400   3.175
92034W        W60252  19.827  28.570  13.099
92035W        W60253  30.197  43.034  13.956
92036W        W60254  12.727  11.664  13.316
92037W        W60255   5.731   4.692   0.475
92038W        W60256  36.118  37.805  11.194
92039W        W60257   2.681   8.700  11.667
92040W        W60258  42.121  14.468   4.987
92041W        W60259  33.339  27.233   1.311
92042W        W60260  17.736  22.576  12.461
92043W        W60261   7.723  14.713  12.874
92044W        W60262  30.129  41.710  13.827
92045W        W60263  13.673   1.108   0.740
92046W        W60264   1.227  20.936  14.893
92047W        W60265  30.209  16.613   5.086
92048W        W60266  14.317   8.178  10.708
92049W        W60267  20.721  23.121   3.164
92050W        W60268  10.762  35.121  13.368
92051W        W60269  24.441  12.086   2.538
92052W        W60270  35.878  25.073   2.740
92053W        W60271   2.216  43.802   0.906
92054W        W60272   9.492  29.442  10.675
92055W        W60273   4.135  31.528  13.499
92056W        W60274   9.343  14.924  13.029
92057W        W60275  14.060  32.899  11.074
92058W        W60276  24.607  27.910   0.705
92059W        W60277   2.216   5.893  11.608
92060W        W60278  38.034  17.704  12.381
92061W        W60279   2.719   0.467  11.494
92062W        W60280  16.545  16.715   4.195
92063W        W60281  18.521   8.363  13.979
92064W        W60282   6.668  10.780  12.013
92065W        W60283  20.570  16.870   1.391
92066W        W60284  34.919  27.387   0.082
92067W        W60285   3.921  37.084   1.016
92068W        W60286  32.949  42.495  10.452
92069W        W60287  17.913  38.962   3.413
92070W        W60288  33.505  10.418   4.634
92071W        W60289  43.398  22.751  11.816
92072W        W60290  44.426  35.580  12.022
92073W        W60291  19.634  21.174   2.433
92074W        W60292  35.565  40.439   3.890
92075W        W60293   6.208  36.535   1.964
92076W        W60294  44.747  40.023   2.398
92077W        W60295  43.296  34.021   1.020
92078W        W60296  24.695  40.607   2.206
92079W        W60297  40.869  18.546  13.855
92080W        W60298  37.912  38.583  13.802
92081W        W60299  14.879  43.722  11.828
92082W        W60300  24.693  25.552   0.491
92083W        W60301  26.143  19.164  13.832
92084W        W60302  12.537   5.381   4.149
92085W        W60303  17.090  44.455  12.799
92086W        W60304  35.981   4.529   0.586
92087W        W60305   9.267  25.697   4.595
92088W        W60306  43.898  41.338   0.065
92089W        W60307  32.583   6.440   4.733
92090W        W60308  25.197  19.590   4.621
92091W        W60309  26.625  43.858   3.238
92092W        W60310  31.069  43.319  10.875
92093W        W60311   3.977   7.899  14.413
92094W        W60312   4.364   0.440   3.918
92095W        W60313  25.346   9.751  12.873
92096W        W60314   0.354   1.420  13.944
92097W        W60315  39.003  44.744  14.033
92098W        W60316  42.371  15.563   0.628
92099W        W60317  19.752  39.940   1.983
92100W        W60318  34.474  31.936  11.933
92101W        W60319   5.937  13.607  12.815
92102W        W60320   8.809  41.348   3.254
92103W        W60321   2.777  38.928   5.027
92104W        W60322  24.459  33.593  10.601
92105W        W60323  22.514  43.809  13.553
92106W        W60324  22.056   0.303  12.647
92107W        W60325  15.279  18.996   3.817
92108W        W60326   5.874   3.369  14.262
92109W        W60327  23.080  23.302  11.742
92110W        W60328  29.714   1.738   4.163
92111W        W60329  19.173  12.185   0.444
92112W        W60330   1.039   5.522   4.132
92113W        W60331  13.326  19.708  11.264
92114W        W60332  17.407  44.807   5.019
92115W        W60333  28.865  32.389  12.976
92116W        W60334  32.147   1.478   2.560
92117W        W60335  43.855  31.121   2.838
92118W        W60336  24.627  22.601  10.501
92119W        W60337  19.402  29.473  12.070
92120W        W60338  37.579  16.202   4.762
92121W        W60339  36.375  37.326   1.374
92122W        W60340  24.441  20.583   3.843
92123W        W60341   2.937  28.476   0.437
92124W        W60342  36.783  11.705  14.580
92125W        W60343   5.319  17.395  11.765
92126W        W60344  38.400  43.249   3.090
92127W        W60345  23.644  21.744   0.052
92128W        W60346  25.893   9.963  14.552
92129W        W60347  37.478  10.799   3.717
92130W        W60348  26.257  36.905   3.696
92131W        W60349   7.397  21.114   3.656
92132W        W60350  22.556  33.211   0.377
92133W        W60351  20.265  24.005  12.452
92134W        W60352   8.715  25.494  13.068
92135W        W60353  16.297   5.826   0.429
92136W        W60354  37.903  36.160   1.889
92137W        W60355  24.501  32.509   2.182
92138W        W60356  33.275  37.913   4.783
92139W        W60357  25.479  13.204   1.772
92140W        W60358  37.585  31.252   0.812
92141W        W60359  21.091  27.670   4.317
92142W        W60360   3.492  10.536   3.227
92143W        W60361  20.297  17.242  13.827
92144W        W60362   7.732  28.196   2.256
92145W        W60363   4.331   8.221  14.730
92146W        W60364  26.256  37.405   0.481
92147W        W60365  22.200  17.060  12.010
92148W        W60366  10.940  35.934  10.699
92149W        W60367  30.552  20.068   0.882
92150W        W60368  26.052  21.677  11.613
92151W        W60369  27.749   9.127  12.759
92152W        W60370   8.729  17.529  14.466
92153W        W60371  40.133  38.412  12.599
92154W        W60372  33.511  21.228  11.204
92155W        W60373  38.405  19.735   1.037
92156W        W60374  38.262  17.382  13.643
92157W        W60375  20.612  36.782  13.005
92158W        W60376  22.093  43.485  14.327
92159W        W60377  17.743  22.638   1.362
92160W        W60378  16.181  37.563   2.740
92161W        W60379  17.718   0.065   3.289
92162W        W60380   7.774  17.002  13.479
92163W        W60381  21.815  44.248  13.840
92164W        W60382  23.453  39.395  14.848
92165W        W60383  14.150   3.394  12.075
92166W        W60384  16.182  28.529  13.492
92167W        W60385  12.037   3.187  13.977
92168W        W60386  16.654  25.633  12.902
92169W        W60387  29.917  32.417  12.967
92170W        W60388   6.256  44.338   2.816
92171W        W60389  28.742  27.948  14.412
92172W        W60390  31.079   7.886  12.532
92173W        W60391  34.614   8.651  10.789
92174W        W60392   0.924  40.350  13.725
92175W        W60393  11.736  43.058  12.799
92176W        W60394  14.215  39.506   4.671
92177W        W60395  41.327  44.357   4.921
92178W        W60396  31.063  27.193   9.874
92179W        W60397  26.415   6.756  10.638
92180W        W60398  44.829  12.973  13.923
92181W        W60399  21.789  30.591  14.471
92182W        W60400  15.758   7.389  11.429
92183W        W60401  34.115  32.234  14.364
92184W        W60402  26.063  43.592   0.965
92185W        W60403  31.414   5.678  13.834
92186W        W60404   4.239  10.673  11.104
92187W        W60405   9.001  12.701   1.190
92188W        W60406  32.593  42.463   1.429
92189W        W60407  21.960   6.102   3.480
92190W        W60408  31.597  37.618  10.317
92191W        W60409   9.320  42.008   3.636
92192W        W60410  22.638  16.507  10.692
92193W        W60411  12.939  34.011  12.792
92194W        W60412  41.041  10.101  12.813
92195W        W60413  40.859   7.222  11.149
92196W        W60414   3.832  18.511  12.513
92197W        W60415  44.104  26.788   1.640
92198W        W60416  35.269  18.051   4.139
92199W        W60417   6.653  13.176   3.595
92200W        W60418  27.711  19.650  14.834
92201W        W60419  15.546  25.688   1.164
92202W        W60420  26.385  28.968  11.057
92203W        W60421  33.371  11.226   3.187
92204W        W60422  15.733  25.925  14.228
92205W        W60423  11.903  39.299   0.697
92206W        W60424  18.547  27.329  14.439
92207W        W60425  10.866   0.273  13.042
92208W        W60426  42.856  38.309  12.096
92209W        W60427  34.803  13.755  14.920
92210W        W60428  31.068  29.651  14.504
92211W        W60429   4.708  44.313   4.172
92212W        W60430  23.587  43.405  14.862
92213W        W60431  19.186  37.346   9.750
92214W        W60432  14.580   2.955   3.124
92215W        W60433  43.129  21.263  14.729
92216W        W60434  20.891  18.610  13.233
92217W        W60435   9.141  28.081   1.994
92218W        W60436  27.225  23.555  14.804
92219W        W60437   4.769  10.666  12.312
92220W        W60438  23.758  17.287   0.742
92221W        W60439  16.499  18.102   0.860
92222W        W60440   8.656   7.174  13.802
92223W        W60441  29.544   8.146   3.206
92224W        W60442   4.842  16.836   0.745
92225W        W60443  14.829  39.783  11.612
92226W        W60444  21.942  11.905  12.639
92227W        W60445  22.750  14.861  11.555
92228W        W60446  44.328  41.215  12.537
92229W        W60447  34.954  36.269  13.418
92230W        W60448  35.040  42.912   3.055
92231W        W60449  36.944  34.953   0.801
92232W        W60450  20.524  17.665   1.834
92233W        W60451   7.044   4.733   0.950
92234W        W60452  33.097  38.478  12.396
92235W        W60453  43.107  17.042  12.562
92236W        W60454  23.644  22.501   3.364
92237W        W60455   9.227  26.670  12.030
92238W        W60456  18.744   2.831  11.991
92239W        W60457   5.934  30.580  13.043
92240W        W60458   1.216   8.864  13.507
92241W        W60459   3.649   7.927  12.797
92242W        W60460  19.522  35.822   2.343
92243W        W60461   4.850  35.305  13.135
92244W        W60462  17.590  37.367   0.792
92245W        W60463   1.923  22.944   2.465
92246W        W60464  21.141  10.949  10.043
92247W        W60465  39.355  20.547   2.305
92248W        W60466  42.486  32.513  11.234
92249W        W60467   0.584  44.656   4.191
92250W        W60468  30.823  26.550   0.793
92251W        W60469  25.557  21.703   2.788
92252W        W60470   1.860  14.370  13.928
92253W        W60471   1.245  44.463   0.836
92254W        W60472  43.270  27.493  14.749
92255W        W60473  20.699  19.127  10.758
92256W        W60474  21.599  15.766  12.943
92257W        W60475  38.345  38.495  10.935
92258W        W60476   6.376   1.979  13.558
92259W        W60477  39.365  42.696   2.165
92260W        W60478  43.330  34.269  10.685
92261W        W60479   9.281  39.950  11.507
92262W        W60480  11.854  19.397  12.737
92263W        W60481  23.353  34.833  11.612
92264W        W60482  18.751  33.992  13.430
92265W        W60483  39.117  15.045  14.642
92266W        W60484   8.286  42.381  11.508
92267W        W60485  28.190   2.819   4.531
92268W        W60486  39.310   2.714  11.663
92269W        W60487  33.529  38.892   0.352
92270W        W60488  42.460  20.842  14.907
92271W        W60489  38.709  43.584  11.105
92272W        W60490  23.115  33.169  10.813
92273W        W60491  39.725   6.114   0.394
92274W        W60492  32.452   8.206  11.652
92275W        W60493  43.810   1.084   1.405
92276W        W60494  37.088   8.090  11.989
92277W        W60495  10.868  13.025  11.848
92278W        W60496  42.728  24.359  10.927
92279W        W60497  28.058   9.097  14.855
92280W        W60498  23.995  14.702   2.658
92281W        W60499  25.448   0.108  14.275
92282W        W60500   2.296   7.407  10.751
92283W        W60501   2.856  16.681  13.581
92284W        W60502   5.172  23.716  13.374
92285W        W60503  34.262  10.099  14.822
92286W        W60504   7.701  32.540  11.219
92287W        W60505  15.198  15.294  10.225
92288W        W60506  21.663  15.250  12.848
92289W        W60507  18.235  11.870   2.553
92290W        W60508   6.725   9.847  12.856
92291W        W60509  26.428  42.791   0.298
92292W        W60510  31.605  21.997   2.321
92293W        W60511  16.137  27.499  14.198
92294W        W60512  17.218   5.690   1.441
92295W        W60513  10.266   3.686  13.402
92296W        W60514   9.179  28.942  13.002
92297W        W60515   2.755  44.017  14.003
92298W        W60516  20.459  43.490  10.914
92299W        W60517   1.711  33.868  14.470
92300W        W60518   9.334  27.141   2.806
92301W        W60519  39.468   4.289   2.759
92302W        W60520   0.477  14.163   2.662
92303W        W60521  12.082  24.198  11.604
92304W        W60522  10.624   9.884  13.509
92305W        W60523  22.640  12.300  11.181
92306W        W60524   9.158  26.022  14.429
92307W        W60525  25.084  19.320   4.181
92308W        W60526  31.240  44.352   0.282
92309W        W60527  44.342   6.130   2.281
92310W        W60528  38.619   4.373   4.179
92311W        W60529   5.843  11.870   2.916
92312W        W60530  12.824  31.126  14.766
92313W        W60531  35.045   6.364   1.359
92314W        W60532  34.662  24.959   2.467
92315W        W60533  23.275  13.331   0.324
92316W        W60534  24.335  18.749   0.912
92317W        W60535  36.604  17.376  12.907
92318W        W60536  44.150  20.503  12.559
92319W        W60537  41.834  32.641   4.712
92320W        W60538   2.512   2.420  12.416
92321W        W60539  20.183  41.937   4.895
92322W        W60540   4.429  12.237  13.520
92323W        W60541  28.449  27.487  11.117
92324W        W60542   8.253   1.047   4.184
92325W        W60543   8.264   5.185   4.069
92326W        W60544  42.563   2.822  13.610
92327W        W60545  17.058  14.686   1.873
92328W        W60546  20.178  10.733   2.678
92329W        W60547  22.079  18.487   1.349
92330W        W60548  26.208  26.435   0.063
92331W        W60549  31.646  21.974   4.785
92332W        W60550  10.683  40.537   0.672
92333W        W60551  38.831  34.900  11.826
92334W        W60552  42.314   6.154   2.866
92335W        W60553  17.316   4.349  11.285
92336W        W60554  27.663  37.312   2.879
92337W        W60555  30.999  24.533  11.320
92338W        W60556  11.184  41.408   4.550
92339W        W60557  33.987  19.049   2.581
92340W        W60558  15.668   5.690   1.299
92341W        W60559  12.316   0.479   0.558
92342W        W60560  15.730  44.255   0.843
92343W        W60561   3.917  30.238  11.217
92344W        W60562  17.591  37.686  11.952
92345W        W60563  25.050  44.374   3.898
92346W        W60564  35.914  34.144   0.340
92347W        W60565  24.261  20.099   1.281
92348W        W60566   9.185  38.193  11.173
92349W        W60567  28.120  42.703   5.100
92350W        W60568  30.888  29.566  10.623
92351W        W60569   5.832  24.712  14.060
92352W        W60570  38.699  44.844  11.438
92353W        W60571  11.339   5.650   2.216
92354W        W60572  22.131  12.252   1.696
92355W        W60573  38.575  18.074  13.113
92356W        W60574  29.105  25.637   4.916
92357W        W60575  38.439  35.304   3.211
92358W        W60576  44.714  27.937   1.020
92359W        W60577  10.939  28.628   2.828
92360W        W60578  25.967  15.304  13.086
92361W        W60579  11.826   3.527  10.811
92362W        W60580  30.536  27.100  13.369
92363W        W60581   1.799  25.093   4.608
92364W        W60582  33.035  36.593   4.370
92365W        W60583  28.008  26.303   3.104
92366W        W60584  38.850  22.794   1.559
92367W        W60585  17.813  10.794   1.313
92368W        W60586  29.457  31.048  13.156
92369W        W60587  30.637  27.670  12.870
92370W        W60588  39.610  41.859   2.734
92371W        W60589  22.198  12.559   3.807
92372W        W60590  14.562   7.311   3.638
92373W        W60591   2.249  30.079  14.400
92374W        W60592   2.626  33.327   3.622
92375W        W60593  44.295  32.200   4.133
92376W        W60594   3.615  11.174  12.950
92377W        W60595  26.432  33.559   1.329
92378W        W60596  10.133  30.787   1.744
92379W        W60597  43.833  30.120  11.127
92380W        W60598  18.254   7.170   1.362
92381W        W60599   8.267   4.245   2.780
92382W        W60600  42.611   0.234   4.128
92383W        W60601  32.952  34.356   1.258
92384W        W60602  12.375   7.737   2.368
92385W        W60603  37.512  16.266  11.718
92386W        W60604   5.406  43.205  11.108
92387W        W60605  22.272  24.084  10.750
92388W        W60606  36.918   9.093  12.212
92389W        W60607   8.124   1.893   3.821
92390W        W60608  22.097   1.038   1.916
92391W        W60609  42.408  16.698   1.576
92392W        W60610  31.102  28.930  13.763
92393W        W60611  27.539  33.209   1.847
92394W        W60612  38.750   7.776  12.951
92395W        W60613  12.180  23.108  12.166
92396W        W60614  18.004  27.719  12.563
92397W        W60615   7.835  13.130  14.022
92398W        W60616  26.684   1.134  13.939
92399W        W60617  14.776  30.055   1.400
92400W        W60618   3.380  42.275   2.948
92401W        W60619  34.452  26.910   4.530
92402W        W60620  44.673   7.297  11.572
92403W        W60621  15.037   7.775   4.458
92404W        W60622   1.748  33.131  14.090
92405W        W60623  35.447  41.046  11.529
92406W        W60624  28.946  34.820  12.065
92407W        W60625  43.360   5.326  12.650
92408W        W60626  34.553  38.413  11.037
92409W        W60627  42.342  29.049  13.995
92410W        W60628  36.503   5.780   0.403
92411W        W60629  11.791   3.359   4.696
92412W        W60630   1.852  12.676   2.792
92413W        W60631  38.657  43.220   0.780
92414W        W60632   1.492  27.451  11.212
92415W        W60633  28.875  30.105  13.487
92416W        W60634  37.851  33.862   0.937
92417W        W60635   2.904   6.339  13.109
92418W        W60636  37.156  14.226   5.037
92419W        W60637  26.733  25.744  11.786
92420W        W60638   7.939  23.568  12.140
92421W        W60639  15.393  15.752   1.428
92422W        W60640  27.236  38.831  11.444
92423W        W60641  15.539  10.876  13.520
92424W        W60642  19.291  32.858  12.109
92425W        W60643  11.690  16.634   2.639
92426W        W60644  22.549  27.124  12.045
92427W        W60645  36.304  36.365   1.847
92428W        W60646  23.068   2.045   1.880
92429W        W60647  17.293   1.774  12.335
92430W        W60648  26.124  17.336   2.286
92431W        W60649  15.389  22.809   2.582
92432W        W60650  14.201  38.816   0.342
92433W        W60651  12.463  16.710   3.890
92434W        W60652   0.819  39.488  12.252
92435W        W60653  28.654  25.165  14.721
92436W        W60654  15.611  17.248   1.502
92437W        W60655  44.272   7.009   0.841
92438W        W60656  24.495  15.636  12.028
92439W        W60657   4.027   7.890   3.287
92440W        W60658  10.382  37.839  13.916
92441W        W60659   0.571  10.164   1.883
92442W        W60660  32.223  38.466   1.822
92443W        W60661  32.319  28.788  14.408
92444W        W60662  37.725  35.057   0.386
92445W        W60663  29.463  10.950   4.025
92446W        W60664  29.774   7.860  14.346
92447W        W60665  38.504  13.861  14.343
92448W        W60666   5.502   6.149   1.678
92449W        W60667  12.090  16.078   0.882
92450W        W60668  27.034  24.523  11.199
92451W        W60669  22.656   5.473   4.261
92452W        W60670  39.824  19.044   2.744
92453W        W60671  37.432   7.349  14.099
92454W        W60672  19.539   0.918  12.964
92455W        W60673  30.469  18.711  14.718
92456W        W60674  44.889  27.161  12.063
92457W        W60675  21.177   5.848  13.140
92458W        W60676   9.786  41.502   0.822
92459W        W60677   6.868  38.599   3.585
92460W        W60678  16.157  28.197   2.394
92461W        W60679  12.547  15.653  10.398
92462W        W60680  36.472  37.958   1.394
92463W        W60681  40.580  44.981   1.280
92464W        W60682   8.742   2.329  12.807
92465W        W60683  14.428  29.454   2.716
92466W        W60684  15.060   0.942   3.192
92467W        W60685  16.187  31.522  14.804
92468W        W60686  27.017  42.082   3.266
92469W        W60687  39.407  37.372  13.098
92470W        W60688   7.963  29.726   1.408
92471W        W60689  43.581  34.275  13.785
92472W        W60690  36.681  41.816   3.281
92473W        W60691  32.646   3.160   4.395
92474W        W60692   2.817  38.118  13.066
92475W        W60693  22.208  38.032   1.746
92476W        W60694  13.643  21.196  13.959
92477W        W60695  33.399   1.229  12.431
92478W        W60696  34.170  14.186   4.569
92479W        W60697  43.100  12.568  13.788
92480W        W60698  38.799   4.769   3.778
92481W        W60699  33.353  11.739  11.844
92482W        W60700  42.529  31.339   2.507
92483W        W60701  35.827  35.376  12.314
92484W        W60702  21.627  11.694   3.758
92485W        W60703  28.624   8.942  12.170
92486W        W60704  12.829   9.227  11.429
92487W        W60705  27.564  20.721  13.977
92488W        W60706  21.679  22.719   3.118
92489W        W60707  23.466  31.817  12.070
92490W        W60708  38.406  28.116   4.125
92491W        W60709  23.663   3.476   1.204
92492W        W60710  34.891  17.799  11.099
92493W        W60711  24.632  24.370  10.565
92494W        W60712  14.635  10.786   3.788
92495W        W60713  27.863  37.493   5.081
92496W        W60714  36.879  37.197   1.461
92497W        W60715  25.643   9.024  10.839
92498W        W60716   3.709  44.246   2.268
92499W        W60717  21.533  42.023   4.808
92500W        W60718   8.655  30.642  10.684
92501W        W60719   4.003   0.456  12.998
92502W        W60720  13.682  16.182  14.242
92503W        W60721  33.171  23.020  12.357
92504W        W60722  16.729   0.761  14.212
92505W        W60723  19.271   0.894  13.834
92506W        W60724  20.500  30.453  10.278
92507W        W60725  19.854  14.031   4.064
92508W        W60726  21.129   6.660  14.953
92509W        W60727  17.818  15.239   5.083
92510W        W60728  36.418  30.713  12.029
92511W        W60729  26.415  27.610   4.384
92512W        W60730  32.047  41.479  14.198
92513W        W60731  29.927  18.884  12.055
92514W        W60732  21.305  25.195  12.441
92515W        W60733  35.962  42.845   1.257
92516W        W60734   3.863  21.680   0.233
92517W        W60735  32.533  10.865   3.379
92518W        W60736   1.256  11.244  11.686
92519W        W60737  18.121  12.760  12.015
92520W        W60738  38.771  30.360   3.214
92521W        W60739  14.643  28.435   2.659
92522W        W60740   9.199   3.706   4.116
92523W        W60741  25.940  18.354   1.610
92524W        W60742  12.783  39.463   0.496
92525W        W60743   6.026  32.556   3.271
92526W        W60744  38.262  15.687  10.543
92527W        W60745  38.752  25.602  13.457
92528W        W60746  17.233   0.245   0.276
92529W        W60747  44.874   0.431  10.705
92530W        W60748  13.211  37.912   4.125
92531W        W60749  24.400  12.112   0.280
92532W        W60750   9.280  16.153   1.854
92533W        W60751   1.620   6.305   1.031
92534W        W60752  14.341   3.318  10.534
92535W        W60753   5.385  37.081   3.660
92536W        W60754   3.447   6.132  14.399
92537W        W60755  38.068  37.630  13.371
92538W        W60756  19.615  35.631  14.244
92539W        W60757  24.109  35.326   5.303
92540W        W60758  38.245  25.013  10.675
92541W        W60759   5.278   9.771   3.274
92542W        W60760  43.325  11.224  10.729
92543W        W60761  18.102   1.332  13.625
92544W        W60762  10.386  41.354  11.639
92545W        W60763   8.307  41.069   3.249
92546W        W60764  22.674  24.231  13.723
92547W        W60765  14.624  19.329   4.665
92548W        W60766   9.272   2.307  12.562
92549W        W60767  19.648  26.762  13.896
92550W        W60768  15.137   8.713  14.491
92551W        W60769  23.561  32.336  12.060
92552W        W60770  37.293   8.036  11.180
92553W        W60771  36.920  41.555   0.315
92554W        W60772   8.523   3.351  10.116
92555W        W60773  25.915  33.536  12.529
92556W        W60774  20.394  24.923   2.204
92557W        W60775  34.994  26.525  14.764
92558W        W60776  28.661  12.349   0.435
92559W        W60777  12.818  30.556  13.068
92560W        W60778  16.627   0.310   0.883
92561W        W60779  13.610  19.254  11.172
92562W        W60780   0.708  38.511   0.187
92563W        W60781   6.845  16.775   4.137
92564W        W60782  14.350  12.041   3.642
92565W        W60783  13.420   7.940   0.420
92566W        W60784  34.336  39.556  14.133
92567W        W60785   5.923  24.640   4.352
92568W        W60786  44.710   0.182   5.025
92569W        W60787   4.944  30.385  13.818
92570W        W60788   2.798  18.594  14.764
92571W        W60789  26.571  42.355  14.393
92572W        W60790  22.618   2.476  13.846
92573W        W60791  19.541  39.954   0.106
92574W        W60792  41.463   1.988   4.625
92575W        W60793  40.490  29.388  14.907
92576W        W60794  40.552   6.968   2.227
92577W        W60795  23.643  24.136  11.127
92578W        W60796  41.399  43.798   2.688
92579W        W60797  16.588  11.582   4.688
92580W        W60798  26.658  11.042   1.704
92581W        W60799   0.833   5.303   2.949
92582W        W60800   9.424  32.646   1.776
92583W        W60801   4.868   8.155  10.642
92584W        W60802   9.673   4.043   1.991
92585W        W60803  17.987  32.339  11.052
92586W        W60804  29.447  15.727  11.502
92587W        W60805   2.410  16.803  10.981
92588W        W60806  22.767   6.396   2.700
92589W        W60807  13.591  43.772  13.496
92590W        W60808   1.442   7.668   2.871
92591W        W60809  39.582  23.571  11.841
92592W        W60810   5.612  19.994   2.166
92593W        W60811   8.853  35.581   2.250
92594W        W60812  42.582  26.793  11.415
92595W        W60813  12.234  36.796   2.633
92596W        W60814  44.857   2.800  14.765
92597W        W60815  10.136  10.675   0.885
92598W        W60816   1.256  40.989   0.420
92599W        W60817  24.540  19.676  11.461
92600W        W60818   8.524  20.986   4.191
92601W        W60819  43.290  35.591   2.982
92602W        W60820  31.050  32.329   5.239
92603W        W60821  34.840   2.284   3.438
92604W        W60822  28.643   4.541   3.689
92605W        W60823  40.068  37.326   1.236
92606W        W60824   2.555  35.115  13.952
92607W        W60825  29.815  32.713  14.298
92608W        W60826  19.082   0.405   4.410
92609W        W60827  11.237  26.529  14.871
92610W        W60828  24.711  35.340   1.789
92611W        W60829  17.537  14.726   1.713
92612W        W60830  30.334  30.200   4.104
92613W        W60831  26.222  41.380   3.088
92614W        W60832  18.266   0.923   1.900
92615W        W60833  43.058  41.968   2.776
92616W        W60834   9.665  19.680   4.583
92617W        W60835  15.161   7.389  14.301
92618W        W60836  35.332  21.041   0.421
92619W        W60837  30.864  27.206   5.025
92620W        W60838   7.799   2.561   2.454
92621W        W60839  18.579  25.136   4.609
92622W        W60840  13.655  10.409   0.295
92623W        W60841   4.142  30.290   0.749
92624W        W60842  28.768  23.680   1.846
92625W        W60843  10.885  15.825   2.803
92626W        W60844  10.840  19.163  10.559
92627W        W60845   3.420   7.877  12.321
92628W        W60846  32.649  34.001   0.348
92629W        W60847  26.953  30.019   0.772
92630W        W60848  43.421  19.385  11.276
92631W        W60849  28.695  41.056   1.859
92632W        W60850  16.003  38.564  11.271
92633W        W60851  25.410  10.644   2.743
92634W        W60852   7.399   4.250  10.789
92635W        W60853  27.117  29.621   0.495
92636W        W60854  10.220  16.367  13.420
92637W        W60855  29.418  41.838   3.209
92638W        W60856  44.374  25.709   4.204
92639W        W60857  21.779  12.325  13.519
92640W        W60858   8.216  37.894  12.329
92641W        W60859  22.514  36.450  14.023
92642W        W60860  15.673  17.119  12.969
92643W        W60861  18.068  10.893  11.011
92644W        W60862  18.283  17.249   1.693
92645W        W60863   0.459   1.754   4.907
92646W        W60864  29.656  19.485  14.859
92647W        W60865  27.014  25.543  12.614
92648W        W60866  34.090   7.131   3.769
92649W        W60867  21.940   0.890   4.525
92650W        W60868   9.342  43.258  13.362
92651W        W60869   4.864  17.549  12.550
92652W        W60870  38.119  14.584  11.989
92653W        W60871  13.601  34.868   0.883
92654W        W60872   5.361   2.163  13.222
92655W        W60873  17.546   7.640  13.397
92656W        W60874  40.376   2.548   0.419
92657W        W60875  19.948   3.758  14.919
92658W        W60876  20.023  18.072   4.730
92659W        W60877  43.951  25.377  12.393
92660W        W60878  37.430  44.725  11.438
92661W        W60879  19.731  15.487  10.321
92662W        W60880  13.201  39.242   0.305
92663W        W60881  34.224  22.704  12.843
92664W        W60882   3.599  42.669  14.320
92665W        W60883  28.079   9.293   2.761
92666W        W60884  39.890  20.756  10.708
92667W        W60885   2.868  22.442   3.399
92668W        W60886  35.278  33.859   0.550
92669W        W60887  26.091  18.096   4.093
92670W        W60888  41.963  34.321   4.173
92671W        W60889  37.422  30.935   0.361
92672W        W60890  10.900  36.930  13.046
92673W        W60891  25.198   1.421  12.568
92674W        W60892  21.216  17.968  10.375
92675W        W60893  24.794  41.333   4.510
92676W        W60894  27.016  44.399  11.379
92677W        W60895  28.476   2.391  14.226
92678W        W60896  34.455   8.774   1.935
92679W        W60897   1.407  28.671   4.163
92680W        W60898  39.538  13.838   0.877
92681W        W60899   3.951  23.434  10.458
92682W        W60900  31.865  43.019  13.462
92683W        W60901   8.931  25.491   1.391
92684W        W60902  41.003  15.335   3.259
92685W        W60903  22.893  34.432   1.997
92686W        W60904  34.434   8.378   4.796
92687W        W60905  42.024   1.782  12.417
92688W        W60906  33.971  14.983   4.613
92689W        W60907  36.532  42.745   4.693
92690W        W60908  12.389  25.586   0.802
92691W        W60909  34.409  42.057  11.486
92692W        W60910  17.689   5.254   0.968
92693W        W60911  42.573  15.550  11.539
92694W        W60912   1.734  33.028   2.644
92695W        W60913  34.540  24.189  11.019
92696W        W60914  30.027  42.571  11.946
92697W        W60915  31.083  42.036   2.799
92698W        W60916   2.756  17.182  10.732
92699W        W60917  20.502   1.065   2.155
92700W        W60918  35.551  24.130   3.822
92701W        W60919   8.398   3.943  11.035
92702W        W60920  23.734   3.881  12.103
92703W        W60921  18.284  13.029  14.935
92704W        W60922   2.351  30.800  14.903
92705W        W60923  17.113   6.213   1.379
92706W        W60924  29.904  35.495   0.427
92707W        W60925   7.789  34.570   0.838
92708W        W60926   6.331  19.435   1.494
92709W        W60927  15.577  24.774  12.127
92710W        W60928  18.593   9.185  12.045
92711W        W60929  15.913  37.371  12.933
92712W        W60930  42.757  10.471   1.393
92713W        W60931  40.571   2.317  11.437
92714W        W60932  24.693  32.036   1.461
92715W        W60933  22.969   3.926   4.828
92716W        W60934  29.974  33.496  12.813
92717W        W60935  35.617  35.813   2.189
92718W        W60936  39.465   9.244   4.268
92719W        W60937   9.302  14.890  13.963
92720W        W60938  36.254  27.497   3.599
92721W        W60939  24.691  30.385   2.607
92722W        W60940   9.938  42.089   1.648
92723W        W60941  40.756   9.823   1.372
92724W        W60942   1.919   2.796   4.193
92725W        W60943  17.269  43.788  13.481
92726W        W60944   5.869  36.071   4.882
92727W        W60945  25.267  38.964   0.778
92728W        W60946  11.423  22.154   2.402
92729W        W60947   9.341  12.832  12.981
92730W        W60948   4.045  11.997   4.096
92731W        W60949  10.571   9.390  12.638
92732W        W60950   0.032  18.584   0.428
92733W        W60951  17.911   0.255  12.316
92734W        W60952   5.963   6.314   4.290
92735W        W60953  21.106  14.032   3.237
92736W        W60954  43.484   8.365   0.321
92737W        W60955  30.669  15.915   3.253
92738W        W60956   9.868  40.758   3.690
92739W        W60957  14.170  11.889  13.888
92740W        W60958   7.285  15.324  11.564
92741W        W60959  24.526  42.404   3.477
92742W        W60960  23.483  24.911   0.368
92743W        W60961   1.404  18.166  11.683
92744W        W60962   7.763  38.149  12.366
92745W        W60963  24.694  36.137   3.298
92746W        W60964  44.806  12.620  12.830
92747W        W60965   2.750  17.316  12.085
92748W        W60966  44.531   7.174   3.681
92749W        W60967  44.342  30.677  10.777
92750W        W60968  32.000   5.414   1.750
92751W        W60969  18.685  15.842   1.766
92752W        W60970  36.035   9.592  14.941
92753W        W60971  31.433   2.837  12.084
92754W        W60972  13.233  27.173   1.327
92755W        W60973   0.749  39.936  11.674
92756W        W60974  15.336  33.961   0.834
92757W        W60975  44.153  28.104   5.029
92758W        W60976  13.803  18.163  10.566
92759W        W60977   2.283  15.621  12.836
92760W        W60978   4.360  13.417  13.043
92761W        W60979  31.141  10.859  12.039
92762W        W60980   0.390  22.646  13.768
92763W        W60981  36.136   8.214   1.022
92764W        W60982  31.132  44.419   4.541
92765W        W60983  14.176   0.005  11.673
92766W        W60984  16.255  25.791   4.152
92767W        W60985  15.575   4.957   0.487
92768W        W60986  16.689  36.255   2.269
92769W        W60987  21.068  29.926  10.667
92770W        W60988  28.653   0.467  14.405
92771W        W60989  44.282  21.291   0.167
92772W        W60990  34.935  37.376   9.996
92773W        W60991   3.336  12.319   4.570
92774W        W60992  29.854  25.418  12.114
92775W        W60993   6.692  10.201  10.716
92776W        W60994   6.742   0.735  10.654
92777W        W60995  23.534  33.193  12.595
92778W        W60996  36.527   3.892   4.112
92779W        W60997  37.571  22.559   0.067
92780W        W60998  32.127  16.229   4.164
92781W        W60999  37.562  24.208   1.901
92782W        W61000  35.527  12.213  10.911
92783W        W61001  12.228  24.045   1.644
92784W        W61002  13.117  18.463   0.887
92785W        W61003   6.009  37.360   0.884
92786W        W61004  36.486  22.553   2.648
92787W        W61005   6.325  18.732  14.896
92788W        W61006   3.307  18.948   0.811
92789W        W61007  22.584  13.378  10.727
92790W        W61008   8.145  27.419   1.350
92791W        W61009  39.989  10.182   2.903
92792W        W61010   8.183  11.833   2.229
92793W        W61011  36.613  16.881   0.393
92794W        W61012  39.753  10.416  11.998
92795W        W61013  13.689  16.075   4.528
92796W        W61014   8.673  19.515   3.403
92797W        W61015  33.105  44.061  12.559
92798W        W61016  26.645  32.008   1.981
92799W        W61017  25.480  37.615   2.674
92800W        W61018  44.273   0.819   4.126
92801W        W61019  42.954   6.854  12.724
92802W        W61020  26.738  44.382   4.515
92803W        W61021  42.907  43.248   4.163
92804W        W61022  41.894  35.036  11.854
92805W        W61023   8.984  27.498  14.181
92806W        W61024  44.737   6.760  10.669
92807W        W61025  37.551   2.814   0.349
92808W        W61026  29.120  16.135   2.884
92809W        W61027  18.268  15.811  12.877
92810W        W61028  31.140  24.084  11.112
92811W        W61029  33.773  10.227  14.747
92812W        W61030   2.812  30.998   3.315
92813W        W61031  23.660  22.781   0.065
92814W        W61032   3.896   6.420   3.902
92815W        W61033  40.248  17.045  11.637
92816W        W61034  18.077   7.423  10.614
92817W        W61035  34.339  20.878   1.693
92818W        W61036  21.528  24.290   1.854
92819W        W61037  42.898  35.529  12.474
92820W        W61038  16.550  19.777   1.218
92821W        W61039  42.875  23.817   4.685
92822W        W61040  15.127   2.013  11.864
92823W        W61041  12.299  12.151  14.346
92824W        W61042  10.292  33.639  10.784
92825W        W61043  42.265  36.520   1.026
92826W        W61044  12.354   9.847  13.933
92827W        W61045  10.272   0.453  13.865
92828W        W61046   9.790  26.703  14.812
92829W        W61047  33.955  28.066  14.018
92830W        W61048  31.873   0.536  13.494
92831W        W61049  43.373  15.915   1.427
92832W        W61050  23.150  27.489   1.473
92833W        W61051  20.468  20.444  13.002
92834W        W61052  27.551  32.236   2.017
92835W        W61053  20.004  26.212  14.834
92836W        W61054  27.634   7.261   0.838
92837W        W61055  33.468   9.501  14.948
92838W        W61056  33.547  11.480   4.593
92839W        W61057  32.903   5.224   2.173
92840W        W61058  42.290   8.859  11.758
92841W        W61059  22.193  38.482  13.362
92842W        W61060   5.742  21.100  11.518
92843W        W61061  35.512   0.458  13.434
92844W        W61062  33.652  23.288   2.269
92845W        W61063  13.388  39.051  12.623
92846W        W61064  17.424   0.827  10.304
92847W        W61065  36.636   9.298   0.487
92848W        W61066  31.830  33.575   0.470
92849W        W61067  16.702  19.061  13.575
92850W        W61068  39.917  11.075   1.022
92851W        W61069   7.113  30.202   2.678
92852W        W61070  14.685  17.084   2.563
92853W        W61071  42.339  27.976   4.540
92854W        W61072  35.483  43.773  11.117
92855W        W61073  13.824   1.677  14.882
92856W        W61074  22.435  40.987   3.349
92857W        W61075  10.346  40.401  10.702
92858W        W61076  15.036  24.705  12.993
92859W        W61077  29.111  30.566  13.445
92860W        W61078  35.022  29.730   4.565
92861W        W61079  30.948  40.530  13.023
92862W        W61080  16.197  33.066   2.595
92863W        W61081   8.465   2.892  12.472
92864W        W61082   3.368  23.193   2.316
92865W        W61083  43.887  21.651   4.652
92866W        W61084  23.176  18.471   1.233
92867W        W61085   5.916  41.406  11.077
92868W        W61086  32.303  37.456  10.033
92869W        W61087  14.516  38.410  13.772
92870W        W61088  14.113  12.386  14.805
92871W        W61089  37.975  27.326  11.116
92872W        W61090  26.829   3.686   1.960
92873W        W61091  25.607  37.236  14.659
92874W        W61092   6.132  18.190  11.511
92875W        W61093  13.714  42.386  13.833
92876W        W61094  27.613  36.520  11.499
92877W        W61095  28.131  22.965  14.301
92878W        W61096  38.374  29.552  13.110
92879W        W61097  18.907   7.306  10.902
92880W        W61098  24.177  32.655  10.243
92881W        W61099  43.419  11.782   2.701
92882W        W61100  21.093  26.417   4.596
92883W        W61101  14.650  42.301  10.677
92884W        W61102  20.255  43.928  10.754
92885W        W61103  31.946   3.427  12.160
92886W        W61104   4.885  34.788   1.881
92887W        W61105  16.452   5.193  14.858
92888W        W61106   1.227  18.209  11.208
92889W        W61107  37.542  25.128   2.391
92890W        W61108   9.871  29.023   4.072
92891W        W61109   0.733  40.656   0.969
92892W        W61110  44.406  32.298  11.660
92893W        W61111  34.567  27.196   1.155
92894W        W61112  43.239  29.247   3.408
92895W        W61113   3.496  19.311   3.208
92896W        W61114  24.738  17.259  11.118
92897W        W61115  13.279  14.402  14.971
92898W        W61116   8.752   9.950   3.782
92899W        W61117   2.215  40.385   0.384
92900W        W61118  30.081  40.690  10.724
92901W        W61119  21.829  33.125   3.990
92902W        W61120  30.275   6.804   1.053
92903W        W61121  31.157   9.683   2.037
92904W        W61122  25.137  29.462   1.805
92905W        W61123  42.722  24.677   0.264
92906W        W61124   8.670  19.156  10.322
92907W        W61125   2.834  23.754  11.203
92908W        W61126  10.265  13.406  13.578
92909W        W61127  38.559  27.661   1.946
92910W        W61128  35.388   7.661  12.603
92911W        W61129  13.991  15.128  13.537
92912W        W61130  26.174  26.182   2.909
92913W        W61131  19.169  42.854   4.398
92914W        W61132  33.362  43.353   3.239
92915W        W61133  36.888   2.677  12.513
92916W        W61134  21.836  39.112   2.893
92917W        W61135   0.272  33.437   3.173
92918W        W61136   9.333   6.335   4.322
92919W        W61137  25.401  38.086   2.878
92920W        W61138  42.017   3.401   1.807
92921W        W61139   8.918  14.635  11.928
92922W        W61140  40.077  12.860   0.897
92923W        W61141  14.837  28.084   0.843
92924W        W61142   1.910  25.549  13.499
92925W        W61143   3.768   2.431  13.476
92926W        W61144  43.963  30.403   3.196
92927W        W61145  18.092  31.152   2.491
92928W        W61146   5.809   7.224   4.025
92929W        W61147  35.386  26.822  14.440
92930W        W61148  43.438  10.385  13.800
92931W        W61149  35.865  11.529   2.855
92932W        W61150  13.609  19.179  10.655
92933W        W61151  35.618  39.065   1.923
92934W        W61152   2.687  41.815   3.397
92935W        W61153  11.169  27.237  11.767
92936W        W61154  26.473  16.630   5.096
92937W        W61155   9.767  22.683  14.606
92938W        W61156  16.070  18.473   1.330
92939W        W61157  19.693   9.850   1.343
92940W        W61158  24.695  27.811   2.786
92941W        W61159  26.695   6.188   2.562
92942W        W61160  15.982  42.707   5.072
92943W        W61161  42.386  37.595  14.493
92944W        W61162  13.344  11.009   4.586
92945W        W61163  25.762  40.796  13.339
92946W        W61164  27.706  42.808   0.482
92947W        W61165   5.825  22.203  12.172
92948W        W61166   2.744   0.795  13.325
92949W        W61167  24.878  27.921  13.907
92950W        W61168  42.292  17.956   2.417
92951W        W61169  31.698  16.272   2.319
92952W        W61170  12.145  12.365   1.965
92953W        W61171  41.827   1.307  12.482
92954W        W61172  28.252  18.188  14.006
92955W        W61173  18.091  27.686  14.376
92956W        W61174  28.303  34.063   4.106
92957W        W61175  10.932  35.879   1.460
92958W        W61176  24.614  29.535  12.028
92959W        W61177  10.327  43.736   0.217
92960W        W61178  33.301  13.509   0.432
92961W        W61179  24.658   2.876   1.348
92962W        W61180  24.034  14.844  12.736
92963W        W61181  41.340  22.756  13.438
92964W        W61182   6.945   3.335   4.871
92965W        W61183   7.721  33.075  12.887
92966W        W61184  16.578  27.552  11.223
92967W        W61185  26.662  36.903   2.583
92968W        W61186  10.123  35.689   1.650
92969W        W61187  25.137   0.535   1.461
92970W        W61188  43.921  35.526  10.582
92971W        W61189  25.751  38.448   1.205
92972W        W61190  34.852  21.679   2.625
92973W        W61191   8.161   7.810  14.773
92974W        W61192  11.580   0.772   1.725
92975W        W61193  19.182  27.037   2.107
92976W        W61194  32.803  35.569   0.414
92977W        W61195  36.813  17.708   4.677
92978W        W61196  38.806  13.862   3.647
92979W        W61197   3.545  34.076  11.346
92980W        W61198  40.375  34.688   4.184
92981W        W61199  20.953  17.498  12.355
92982W        W61200  19.053  40.622   0.450
92983W        W61201  39.363  31.910   3.565
92984W        W61202  22.652  21.596   4.634
92985W        W61203  16.142  14.220  12.661
92986W        W61204  29.670   2.716   3.306
92987W        W61205  24.204  21.490   1.105
92988W        W61206  39.387  18.793   2.589
92989W        W61207  25.557  28.992  14.572
92990W        W61208  33.300   6.840   0.926
92991W        W61209  17.651  41.079  13.133
92992W        W61210  40.283  37.341  13.267
92993W        W61211   9.113  12.279  14.951
92994W        W61212  37.984  28.677  10.697
92995W        W61213  35.294  42.427  11.874
92996W        W61214   4.430   4.920  11.602
92997W        W61215  26.268   3.720  12.991
92998W        W61216  44.323   9.660   0.267
92999W        W61217  43.035  40.476   3.732
93000W        W61218  38.755  14.104   1.382
93001W        W61219  23.514  40.395  14.330
93002W        W61220   6.693  26.834   0.436
93003W        W61221  28.212  18.874  12.572
93004W        W61222  39.540   8.971  13.441
93005W        W61223  21.610  11.357  14.274
93006W        W61224   8.143  18.111  10.625
93007W        W61225  15.596  28.411   2.549
93008W        W61226  40.461  42.026   2.755
93009W        W61227  18.192  29.444   3.176
93010W        W61228  25.213  16.652  10.478
93011W        W61229  11.644  25.688  11.556
93012W        W61230   7.570  27.425   2.688
93013W        W61231  41.618  19.023  13.175
93014W        W61232  36.409  44.967  13.418
93015W        W61233  16.515  27.843  13.310
93016W        W61234  17.192  17.783   3.288
93017W        W61235   2.193   9.229   0.218
93018W        W61236  40.557  15.048   3.248
93019W        W61237  14.187  36.454   4.034
93020W        W61238  38.002  11.481  13.898
93021W        W61239  32.507  40.925  12.449
93022W        W61240  35.023  41.303   1.832
93023W        W61241  29.417  29.224   1.811
93024W        W61242  42.274  24.518   1.465
93025W        W61243   3.702  31.654  14.379
93026W        W61244   2.086  37.932   2.219
93027W        W61245   3.237  33.110   1.282
93028W        W61246  28.185  33.919   4.792
93029W        W61247  11.643   7.178   1.370
93030W        W61248  35.521  18.565   0.387
93031W        W61249  29.638  35.115   3.721
93032W        W61250  32.718   8.798   1.329
93033W        W61251   5.789  11.786   4.910
93034W        W61252  17.122   8.439   2.012
93035W        W61253  19.577  38.806   3.705
93036W        W61254  43.112  38.407   4.926
93037W        W61255  24.280  35.099  13.133
93038W        W61256  25.546  37.545  14.232
93039W        W61257  38.874  42.387  12.470
93040W        W61258  21.555  28.404   4.303
93041W        W61259  24.025  35.606   2.242
93042W        W61260  21.119  27.649  10.845
93043W        W61261  16.361  30.393  12.842
93044W        W61262  42.576   1.441   2.257
93045W        W61263  14.735  20.219  12.102
93046W        W61264  34.066   5.148  13.403
93047W        W61265  16.804  31.640   0.444
93048W        W61266   3.887  40.246  10.548
93049W        W61267  42.557  16.844   4.583
93050W        W61268  20.491  26.847   3.357
93051W        W61269  19.655  23.956  10.759
93052W        W61270  29.407   3.389  13.904
93053W        W61271   7.863  11.713   4.361
93054W        W61272  40.808  20.263   4.109
93055W        W61273  27.476  39.742   0.601
93056W        W61274  32.283   2.907  12.618
93057W        W61275  25.783  35.259  10.758
93058W        W61276  15.113  36.772   1.154
93059W        W61277  13.246  11.846  11.124
93060W        W61278   7.781  19.545   3.256
93061W        W61279  33.677  40.505  10.601
93062W        W61280  36.624   6.339  13.548
93063W        W61281  26.718  11.770   1.388
93064W        W61282  26.625   0.428  13.229
93065W        W61283  11.619   8.268  11.872
93066W        W61284   8.764  26.249   2.200
93067W        W61285  34.438  10.287  14.034
93068W        W61286  18.442   4.499   4.011
93069W        W61287  10.288  24.700  11.205
93070W        W61288  13.091  39.554  14.415
93071W        W61289   3.822  35.696  13.835
93072W        W61290  24.599  33.383  12.951
93073W        W61291   7.314  38.277   3.787
93074W        W61292   9.930  24.690   2.911
93075W        W61293  39.070   1.017   4.780
93076W        W61294   3.849  38.823  11.704
93077W        W61295  30.425   2.784   0.618
93078W        W61296   0.742   1.995  11.888
93079W        W61297  22.696  23.472  11.148
93080W        W61298  32.569   8.129   0.261
93081W        W61299  16.757  26.495  10.556
93082W        W61300  32.327  41.177  11.198
93083W        W61301  19.218  18.380   2.181
93084W        W61302   5.215  41.961  14.787
93085W        W61303  36.077  42.007   2.792
93086W        W61304   5.352  19.532  13.409
93087W        W61305   4.924   2.250  12.482
93088W        W61306  23.758  14.170   4.711
93089W        W61307  41.406  40.319  13.268
93090W        W61308  18.603  41.934  14.545
93091W        W61309  43.744  22.174  12.495
93092W        W61310   3.779  12.810   3.741
93093W        W61311  27.991  30.546   3.117
93094W        W61312  40.827  18.273  12.527
93095W        W61313   8.660  19.818   0.370
93096W        W61314  23.550  13.737  13.003
93097W        W61315  40.380  34.539  12.926
93098W        W61316  43.587  28.386  13.964
93099W        W61317  39.993   9.174  11.596
93100W        W61318  18.086  38.939  11.849
93101W        W61319  13.125  25.806  11.145
93102W        W61320   1.586  10.878   3.184
93103W        W61321  35.173  27.010  14.866
93104W        W61322  30.833  17.689  14.871
93105W        W61323  31.986  19.530   4.604
93106W        W61324  17.633  18.594   0.387
93107W        W61325   6.820   1.619   0.590
93108W        W61326   2.401  31.201   1.699
93109W        W61327  37.077  26.624  14.295
93110W        W61328  17.555  33.402   2.265
93111W        W61329  25.528  16.704   3.465
93112W        W61330   5.073  26.944   4.056
93113W        W61331  32.356  24.623   2.159
93114W        W61332   3.528  41.496   3.693
93115W        W61333  41.523   9.887   4.128
93116W        W61334  11.854  31.956  11.410
93117W        W61335  39.317  36.775  11.522
93118W        W61336  24.661  35.981  10.604
93119W        W61337  24.017   0.039  12.575
93120W        W61338  35.976  36.931  11.067
93121W        W61339  15.323   5.396  14.181
93122W        W61340  30.055   4.808   3.386
93123W        W61341  15.396   1.415   0.765
93124W        W61342   2.269   0.785  12.516
93125W        W61343  15.555  33.164  13.867
93126W        W61344   0.899  21.245  13.081
93127W        W61345  30.236  23.968   3.258
93128W        W61346  32.113  17.990   4.766
93129W        W61347  42.965   4.949   0.871
93130W        W61348  22.649  44.292  13.492
93131W        W61349  14.358  20.151   4.315
93132W        W61350   5.965  14.336  12.655
93133W        W61351  12.356  10.146  14.384
93134W        W61352  24.532  32.210  14.483
93135W        W61353  35.558  11.173  11.917
93136W        W61354  28.987  18.268  11.128
93137W        W61355  19.845   7.629   1.678
93138W        W61356  37.510  11.249  14.952
93139W        W61357  38.294  44.887  12.361
93140W        W61358  16.867  16.771  11.135
93141W        W61359  18.849  21.054   1.914
93142W        W61360  44.527   7.850  13.730
93143W        W61361  18.213  21.489  14.221
93144W        W61362  18.006  21.716  10.484
93145W        W61363  26.013  30.821   1.745
93146W        W61364  15.133  42.038  10.600
93147W        W61365   5.929  25.157  14.309
93148W        W61366  18.114  40.703   1.642
93149W        W61367  38.902   6.670   3.742
93150W        W61368  35.558  36.951  11.365
93151W        W61369   6.256  42.039   2.926
93152W        W61370  19.540   8.634  13.946
93153W        W61371  40.986  21.996  11.566
93154W        W61372  38.121  19.366   1.347
93155W        W61373  16.629   8.285   2.189
93156W        W61374  42.388  12.265   1.448
93157W        W61375  15.104  13.994  14.807
93158W        W61376   6.379  23.604  14.025
93159W        W61377  13.544  16.239  12.859
93160W        W61378  40.976   9.369   1.239
93161W        W61379  11.095   3.193   1.924
93162W        W61380   3.609  23.717  13.552
93163W        W61381  23.014  14.216   3.262
93164W        W61382  24.725  44.291   1.336
93165W        W61383  23.282  35.825  11.989
93166W        W61384  19.168  44.002   0.342
93167W        W61385   6.397  19.430  12.025
93168W        W61386  36.395  37.237   0.061
93169W        W61387   9.036  38.058   4.207
93170W        W61388  22.554  43.739  14.311
93171W        W61389   0.384  20.172  14.077
93172W        W61390  26.175  25.146   2.445
93173W        W61391  33.008   9.211   1.521
93174W        W61392  20.209  13.260   0.303
93175W        W61393   2.972  37.371   0.430
93176W        W61394  11.316   0.748  13.918
93177W        W61395  20.574   8.860   0.752
93178W        W61396  19.118  21.570   0.696
93179W        W61397  34.558  33.360  10.558
93180W        W61398  35.875  35.931  10.954
93181W        W61399   8.827  24.462  12.311
93182W        W61400  14.548  41.002   0.989
93183W        W61401  15.104  31.995   0.482
93184W        W61402  16.626  21.857   1.859
93185W        W61403   0.468  15.274   0.645
93186W        W61404   3.641   4.084  13.748
93187W        W61405   0.024  37.407  10.859
93188W        W61406  34.447  42.309  13.111
93189W        W61407  29.074  13.870  11.311
93190W        W61408  12.720  44.451   2.851
93191W        W61409  35.722  15.158   0.462
93192W        W61410   0.293  18.669   0.006
93193W        W61411  42.401  36.044   1.879
93194W        W61412  13.785   7.079   0.322
93195W        W61413   3.414  33.659  12.644
93196W        W61414   2.891  39.041   2.214
93197W        W61415   7.004   0.029   0.035
93198W        W61416  15.057  21.542   3.089
93199W        W61417  12.718  42.583  12.330
93200W        W61418  44.859  20.998  11.918
93201W        W61419  43.944  23.501   3.255
93202W        W61420  26.896   3.349  14.168
93203W        W61421  30.013  26.952  13.433
93204W        W61422  21.426  21.624   4.682
93205W        W61423   8.883   7.997   1.267
93206W        W61424  17.596  25.954   3.274
93207W        W61425  44.514  16.140   0.202
93208W        W61426  33.838  27.055  10.529
93209W        W61427  40.776   4.997  14.487
93210W        W61428   4.816  30.596   2.604
93211W        W61429  23.575  34.202  12.501
93212W        W61430  17.847  23.165  14.019
93213W        W61431  44.246   0.071   4.860
93214W        W61432   0.456   9.518   0.414
93215W        W61433  29.145  39.005   2.368
93216W        W61434  32.317  23.769  11.084
93217W        W61435  44.688  10.103   0.916
93218W        W61436  38.416   1.140   9.914
93219W        W61437  15.273  39.478   2.481
93220W        W61438  29.451   2.701  10.695
93221W        W61439  41.007  20.002  14.810
93222W        W61440   2.024   5.163   3.222
93223W        W61441   6.839  13.677  13.400
93224W        W61442  10.319  19.873   3.689
93225W        W61443  32.451  44.340   4.170
93226W        W61444  12.569   9.140   3.203
93227W        W61445  44.941  29.200  11.136
93228W        W61446  42.977  32.517  11.049
93229W        W61447  31.593  23.285  14.242
93230W        W61448  32.076  15.332  12.939
93231W        W61449  36.004  10.142   1.739
93232W        W61450  21.237  22.735  14.614
93233W        W61451  16.749  24.143   3.698
93234W        W61452  22.413  32.316   4.483
93235W        W61453  29.659   8.194  13.786
93236W        W61454   5.384  35.393  13.843
93237W        W61455  22.646   2.728   2.789
93238W        W61456  26.587   5.186   4.615
93239W        W61457  25.418   1.005   4.931
93240W        W61458  44.472   6.424   2.697
93241W        W61459  43.179  36.486   4.490
93242W        W61460   5.873  42.879  13.591
93243W        W61461  39.522  27.978  12.980
93244W        W61462  10.133  41.308   2.829
93245W        W61463  42.931  33.965  10.845
93246W        W61464   7.675   7.764  10.756
93247W        W61465  35.138  12.220  11.252
93248W        W61466   1.899   0.418  14.733
93249W        W61467  33.661  32.507  13.918
93250W        W61468  19.999  12.741   0.441
93251W        W61469   0.279   0.047   0.445
93252W        W61470   6.532  23.280   4.765
93253W        W61471  44.231  41.466  12.998
93254W        W61472  21.709  19.060   0.216
93255W        W61473  39.839  21.787  10.601
93256W        W61474   6.762   6.374   0.984
93257W        W61475  32.423  16.345   1.780
93258W        W61476   0.783  28.664   1.634
93259W        W61477  21.163   4.030   4.995
93260W        W61478  15.208  15.536   4.114
93261W        W61479  32.723   8.099  13.455
93262W        W61480   4.852   0.369   3.173
93263W        W61481  40.426  20.075  10.611
93264W        W61482   8.331  39.281   0.902
93265W        W61483  17.815  41.526   0.878
93266W        W61484  18.488  38.330   0.313
93267W        W61485  25.177  27.477   1.678
93268W        W61486  21.698  10.333  11.531
93269W        W61487  30.136  29.206  12.525
93270W        W61488  32.495  37.273   2.254
93271W        W61489   2.959  23.656   3.649
93272W        W61490  32.635   8.692  13.996
93273W        W61491   0.496   8.379  12.467
93274W        W61492  15.335  34.530   4.918
93275W        W61493  30.720  41.160  11.845
93276W        W61494  15.155  15.990  13.506
93277W        W61495   3.207  31.370   4.367
93278W        W61496  42.320  33.224  12.965
93279W        W61497  13.616  27.921   4.141
93280W        W61498  20.639  12.871  14.862
93281W        W61499  37.093  22.059  13.891
93282W        W61500  44.788  38.410   3.143
93283W        W61501  28.462  42.851   3.267
93284W        W61502  40.737  30.029  11.101
93285W        W61503  15.565   7.283   3.751
93286W        W61504  35.460  14.067   1.333
93287W        W61505  33.560   3.849   1.737
93288W        W61506  33.899  12.342  11.367
93289W        W61507  34.544  18.389   1.884
93290W        W61508   7.451  40.778  12.890
93291W        W61509  39.183  33.634   4.580
93292W        W61510   3.427   2.765   3.814
93293W        W61511  16.460  23.022  11.181
93294W        W61512   0.502  24.337   0.891
93295W        W61513  16.352   4.403  11.175
93296W        W61514  10.628   0.406   1.745
93297W        W61515  18.281  18.720   1.966
93298W        W61516  22.144  43.257  14.878
93299W        W61517  42.302  24.995   0.273
93300W        W61518  21.752  32.897   2.023
93301W        W61519  36.044  22.118   4.403
93302W        W61520  39.487  12.704   1.464
93303W        W61521   3.714  16.850  10.151
93304W        W61522  25.510  30.887   4.310
93305W        W61523   3.239   8.788   0.324
93306W        W61524  14.867  33.519   4.094
93307W        W61525  37.791  18.130  14.120
93308W        W61526  20.990   7.828  14.459
93309W        W61527   8.425  29.873   1.861
93310W        W61528  44.555  33.559  11.677
93311W        W61529  20.467  11.168   0.378
93312W        W61530  41.386  34.807  13.977
93313W        W61531  24.016  39.922  14.898
93314W        W61532  42.431  28.108  10.749
93315W        W61533  19.687  33.773  12.931
93316W        W61534  11.847  29.661   4.882
93317W        W61535  39.771   9.829   3.193
93318W        W61536   0.025  22.133   3.540
93319W        W61537  18.988  23.500   2.305
93320W        W61538  27.390   3.231   0.991
93321W        W61539  22.232  40.786   0.450
93322W        W61540  28.590  25.637   3.232
93323W        W61541  43.271   8.189  13.306
93324W        W61542   8.687   2.885   2.283
93325W        W61543   1.856  40.451   0.788
93326W        W61544  39.593  14.298  14.863
93327W        W61545  41.209  17.163   1.151
93328W        W61546  38.271  12.639  13.782
93329W        W61547   8.489  29.795   0.211
93330W        W61548   5.860  44.935  14.535
93331W        W61549  27.243  36.884  14.476
93332W        W61550  40.504  24.800  12.891
93333W        W61551  18.767   0.847  13.538
93334W        W61552  15.645  20.465   0.492
93335W        W61553   8.979  28.519   1.743
93336W        W61554  20.613  19.995   3.349
93337W        W61555  25.721  36.867   2.787
93338W        W61556  38.380  42.192   2.216
93339W        W61557   9.893  11.818   1.793
93340W        W61558  43.358   6.966  11.647
93341W        W61559  44.387   9.392  11.081
93342W        W61560  18.233  34.817  13.432
93343W        W61561  19.777  12.144  10.667
93344W        W61562  25.386  24.948  14.970
93345W        W61563  12.849  21.771  14.591
93346W        W61564   9.683  12.705   4.202
93347W        W61565  43.514  21.274  11.636
93348W        W61566  31.493  19.961  14.431
93349W        W61567   0.363  26.438  10.862
93350W        W61568  14.270  44.377  14.269
93351W        W61569  29.521  12.981  10.097
93352W        W61570  20.634  14.584  13.500
93353W        W61571   5.392   9.441  12.739
93354W        W61572  38.249   8.925  11.133
93355W        W61573  36.452   9.059  12.636
93356W        W61574  16.792  33.259   2.707
93357W        W61575   3.820  23.452  14.738
93358W        W61576  31.111  36.220   4.544
93359W        W61577  35.380  10.739   1.431
93360W        W61578  31.490  40.393  14.270
93361W        W61579   8.977  14.284  10.644
93362W        W61580   7.634  16.050   4.385
93363W        W61581   8.277  14.507   2.755
93364W        W61582  32.818  30.713  11.807
93365W        W61583  11.596   3.750   1.263
93366W        W61584  15.633   9.219   0.454
93367W        W61585  36.689  23.209  11.124
93368W        W61586  32.984  38.377   3.123
93369W        W61587  37.284  17.032   0.224
93370W        W61588  42.983  11.302   3.381
93371W        W61589  33.139   6.628  10.631
93372W        W61590  31.863  38.945   5.197
93373W        W61591  30.899  11.404   5.058
93374W        W61592  18.854   2.214  13.073
93375W        W61593  20.253   0.776   2.598
93376W        W61594  31.532  41.574  10.706
93377W        W61595   7.834   7.265  10.859
93378W        W61596  41.267   8.568   1.721
93379W        W61597  28.164  12.309   4.005
93380W        W61598  26.679  24.495  13.819
93381W        W61599   2.000  13.413  11.492
93382W        W61600  13.673  36.763   0.878
93383W        W61601  16.524  38.787  12.913
93384W        W61602  16.446  16.799   4.704
93385W        W61603  17.670   2.756   1.491
93386W        W61604  11.322  40.419   4.133
93387W        W61605   1.373  37.325   0.798
93388W        W61606  19.102  21.226   1.505
93389W        W61607  42.142  20.983  12.103
93390W        W61608   8.689  39.040   3.564
93391W        W61609  37.313  21.453   3.616
93392W        W61610  15.782  43.638   3.269
93393W        W61611  43.057   6.620   4.197
93394W        W61612  12.833  44.767   1.369
93395W        W61613  13.190  31.415  11.523
93396W        W61614  24.781  35.440   0.416
93397W        W61615   3.232   9.782  11.961
93398W        W61616  37.349  33.407   4.745
93399W        W61617  42.879  26.475   0.869
93400W        W61618  34.720  41.663  10.725
93401W        W61619   6.266  14.457   4.753
93402W        W61620  33.909  23.996  14.835
93403W        W61621  36.225  17.059   2.524
93404W        W61622  24.005  23.720  14.698
93405W        W61623   7.317  34.044   0.518
93406W        W61624   2.250   2.011  14.352
93407W        W61625  17.501   3.325  10.537
93408W        W61626  43.064  26.911   4.134
93409W        W61627  42.937  16.017  14.956
93410W        W61628  41.440   6.212   2.945
93411W        W61629  38.476  28.072  11.053
93412W        W61630   4.900  17.139   2.194
93413W        W61631  15.144   3.411   3.685
93414W        W61632  18.496  28.993   3.230
93415W        W61633  31.583   8.215   4.049
93416W        W61634  41.569  14.234  10.565
93417W        W61635  42.039  27.504  11.569
93418W        W61636  23.165  44.849  10.471
93419W        W61637  22.119  37.661  11.734
93420W        W61638  37.989   8.146   4.866
93421W        W61639  28.531  24.926  13.940
93422W        W61640  37.305  40.415  14.864
93423W        W61641  25.981  34.699   4.557
93424W        W61642  38.486  40.620   2.402
93425W        W61643  20.972  28.536  10.549
93426W        W61644  19.575   6.296  11.598
93427W        W61645  17.248  16.990  11.620
93428W        W61646  14.018  12.317   1.641
93429W        W61647  16.203  37.558  10.998
93430W        W61648  17.523  35.572  11.640
93431W        W61649   5.330  25.533   0.889
93432W        W61650  31.807  13.803  10.417
93433W        W61651   2.724  25.063   0.298
93434W        W61652  36.379   0.194   3.071
93435W        W61653  19.450  44.516   4.204
93436W        W61654  44.363  31.194   0.257
93437W        W61655  17.734  23.035  10.995
93438W        W61656  31.138   6.719   2.240
93439W        W61657  13.107  38.642   1.786
93440W        W61658   2.507  15.845   2.261
93441W        W61659  27.659   9.232   4.256
93442W        W61660  28.176  27.659   4.248
93443W        W61661  26.149  37.864   0.838
93444W        W61662  34.568   9.885  12.017
93445W        W61663  30.216  44.363  13.155
93446W        W61664  29.393   4.511   4.043
93447W        W61665  40.797  35.500  13.800
93448W        W61666   4.307  37.405   0.430
93449W        W61667  14.146  12.837   1.668
93450W        W61668  16.750  20.468   3.874
93451W        W61669  27.994   5.851  12.608
93452W        W61670  18.444  15.580  13.312
93453W        W61671   9.881  26.546   3.311
93454W        W61672  16.739  40.376   3.729
93455W        W61673  18.995   0.941  11.143
93456W        W61674  20.341  33.137  13.078
93457W        W61675  29.178   0.940   3.839
93458W        W61676  13.575   9.455  13.405
93459W        W61677   9.338  14.189   2.421
93460W        W61678  26.504   9.608   1.908
93461W        W61679  44.680   7.932   0.610
93462W        W61680  30.264  37.888   1.879
93463W        W61681   1.967  27.597   0.998
93464W        W61682  40.703  30.164   1.532
93465W        W61683  30.166  17.286  12.723
93466W        W61684  27.879   8.830   4.561
93467W        W61685   7.242  37.547   0.921
93468W        W61686  16.339  34.014  10.554
93469W        W61687  15.882  33.513  12.409
93470W        W61688  33.476  16.720  14.678
93471W        W61689  25.049  30.507   1.762
93472W        W61690  10.762  41.934   2.573
93473W        W61691  32.392  30.470  10.905
93474W        W61692  14.144   5.736  14.534
93475W        W61693   5.766  32.400  13.284
93476W        W61694  31.445  32.997  12.140
93477W        W61695  40.600  10.462  12.807
93478W        W61696  37.927   9.095  10.628
93479W        W61697  26.773   1.515  14.852
93480W        W61698  38.345   1.723   4.601
93481W        W61699  26.988   1.814   4.227
93482W        W61700   5.968  33.051  14.639
93483W        W61701  23.039  37.229   5.201
93484W        W61702  37.134   6.324  14.484
93485W        W61703  28.562  42.450  13.406
93486W        W61704  22.731  32.505  11.172
93487W        W61705  12.303  15.316  13.517
93488W        W61706  44.762   6.336  11.458
93489W        W61707  40.885  32.444   4.234
93490W        W61708  26.095  13.535  13.501
93491W        W61709  26.586   7.507  14.106
93492W        W61710  37.346  41.253   0.278
93493W        W61711   2.720  21.216   2.884
93494W        W61712   7.851  10.146  12.029
93495W        W61713  43.228   3.947  12.186
93496W        W61714  17.208  30.784   4.944
93497W        W61715  37.850   0.909  11.126
93498W        W61716  33.144  34.455  12.001
93499W        W61717  13.831  34.634  11.904
93500W        W61718  14.816  29.834   4.967
93501W        W61719  20.630  34.875  14.591
93502W        W61720  27.539  44.026  13.001
93503W        W61721  11.698   2.454  10.043
93504W        W61722  30.711  39.789   0.391
93505W        W61723  37.052   0.452  12.971
93506W        W61724  23.331  31.448   2.847
93507W        W61725  28.053  36.266  12.234
93508W        W61726  15.561   1.436   2.147
93509W        W61727  27.678  35.489  12.001
93510W        W61728  38.356   0.859   5.546
93511W        W61729  35.260   1.841   3.683
93512W        W61730  43.277  29.254   0.841
93513W        W61731  35.370   6.100  13.873
93514W        W61732  31.430  24.991  10.705
93515W        W61733  35.703  35.450  10.793
93516W        W61734  10.851  18.853   3.212
93517W        W61735  21.604  11.649  12.125
93518W        W61736  37.906  22.741  10.629
93519W        W61737  34.459  40.538  11.582
93520W        W61738   2.591  20.188  14.383
93521W        W61739  13.755  16.017  11.899
93522W        W61740   0.873   2.888  12.633
93523W        W61741  20.216  32.822   3.758
93524W        W61742  33.193  12.239   4.231
93525W        W61743  22.455  23.250   3.819
93526W        W61744  28.731  37.537  10.778
93527W        W61745  12.066  26.623  11.623
93528W        W61746  37.669  17.722  11.967
93529W        W61747   5.278  30.603   4.866
93530W        W61748   8.628   5.891   0.031
93531W        W61749  19.777  42.459   2.731
93532W        W61750  26.060  17.954   0.292
93533W        W61751  15.395  27.691  13.002
93534W        W61752  29.375  27.582  12.615
93535W        W61753   5.942   4.212   2.769
93536W        W61754  25.963   1.394   0.420
93537W        W61755  30.569  12.239   3.489
93538W        W61756  40.370  36.330  12.509
93539W        W61757   6.454  38.118  13.491
93540W        W61758   7.328   4.704  12.400
93541W        W61759  34.660  30.935  14.807
93542W        W61760  29.334  31.912   1.436
93543W        W61761  24.986  13.134  12.338
93544W        W61762  37.138  32.798  14.474
93545W        W61763  16.688  30.001  14.502
93546W        W61764  21.002  24.903   0.777
93547W        W61765  43.599  29.674   0.754
93548W        W61766   5.080   1.311   0.442
93549W        W61767  42.287  22.133   1.349
93550W        W61768  22.662  22.556  14.362
93551W        W61769  23.027   5.846  13.826
93552W        W61770  41.896  39.913  10.218
93553W        W61771  21.634   0.910  10.754
93554W        W61772  44.795  10.102  14.454
93555W        W61773  11.627  38.630   1.355
93556W        W61774   4.601   8.671  12.006
93557W        W61775  11.575  14.517   4.606
93558W        W61776  40.581   1.586   2.620
93559W        W61777  38.893   0.255   0.798
93560W        W61778  44.232  21.511  14.516
93561W        W61779   7.898  29.057   0.265
93562W        W61780  41.387   2.271  14.363
93563W        W61781   7.807   8.722  10.272
93564W        W61782  29.006   3.804   0.943
93565W        W61783   4.959   5.680   2.306
93566W        W61784  37.961   0.450  13.051
93567W        W61785  17.633   9.564  12.025
93568W        W61786  41.791  19.171   2.265
93569W        W61787  25.426  27.594  10.687
93570W        W61788  19.184  13.264   3.909
93571W        W61789  26.299  22.482   0.157
93572W        W61790  32.275  22.282  12.166
93573W        W61791  22.510   7.836  13.842
93574W        W61792  38.769  15.614   3.114
93575W        W61793   9.089  15.051   3.465
93576W        W61794   2.718   7.237   2.537
93577W        W61795  33.858   3.277  13.522
93578W        W61796  27.092   2.853   2.319
93579W        W61797   1.245  32.128  14.849
93580W        W61798   2.277  19.312   2.208
93581W        W61799  17.628  29.199   3.743
93582W        W61800  19.553  20.702  14.722
93583W        W61801  37.589   7.956  11.997
93584W        W61802  36.366  41.832  12.690
93585W        W61803  34.265  33.629  13.434
93586W        W61804  20.055  40.389   1.017
93587W        W61805   3.095  30.701   1.190
93588W        W61806  21.674  11.096   1.333
93589W        W61807   6.428  37.434   2.280
93590W        W61808  29.487  14.782   0.392
93591W        W61809  42.325   1.973   2.148
93592W        W61810  10.201  20.762   0.911
93593W        W61811  12.080  31.031  14.326
93594W        W61812  37.914  26.485   2.807
93595W        W61813  26.182  32.693  13.998
93596W        W61814  24.238  35.163  11.369
93597W        W61815  13.203  12.578  10.363
93598W        W61816  21.963  29.582  11.532
93599W        W61817  16.739  12.419  11.999
93600W        W61818  15.793   0.004  14.944
93601W        W61819  19.592  20.892   0.201
93602W        W61820  38.021  35.183  10.978
93603W        W61821  38.085  32.578  12.170
93604W        W61822  33.314   0.933  14.428
93605W        W61823  16.361  13.883   3.654
93606W        W61824  16.217  10.515   1.351
93607W        W61825  28.559  16.465   3.670
93608W        W61826  44.354  44.179  11.625
93609W        W61827  44.037  12.670   1.370
93610W        W61828  22.104  11.916  13.393
93611W        W61829  42.391  33.510  13.481
93612W        W61830  17.169  14.900  14.732
93613W        W61831   7.039  19.120   4.235
93614W        W61832  24.219  37.000   3.071
93615W        W61833   4.808  35.845  10.415
93616W        W61834   9.375  20.644   4.246
93617W        W61835   7.165   2.831   4.110
93618W        W61836  43.041  14.650  12.485
93619W        W61837  39.918  41.286   3.616
93620W        W61838  16.593  38.854  14.079
93621W        W61839  26.628  27.172  14.693
93622W        W61840  33.431  26.299   5.464
93623W        W61841  15.699  14.119   3.340
93624W        W61842  12.492   8.702  10.749
93625W        W61843   8.529  23.652  10.241
93626W        W61844  24.067  30.649  13.411
93627W        W61845  44.882  29.982   3.293
93628W        W61846  25.225  23.379   3.608
93629W        W61847  36.837   4.485  13.051
93630W        W61848  39.844  13.677   0.459
93631W        W61849  15.394  29.494   3.911
93632W        W61850  10.201  41.201   0.063
93633W        W61851  15.077   9.353  12.108
93634W        W61852  41.215  41.513   3.230
93635W        W61853  34.651  29.006   0.789
93636W        W61854   0.364   4.308   2.053
93637W        W61855  15.510  38.887   2.572
93638W        W61856   5.132  13.427  11.613
93639W        W61857  34.221  41.553   3.194
93640W        W61858  39.868  10.603   0.772
93641W        W61859  19.451  32.091  13.365
93642W        W61860  42.482  30.384  11.455
93643W        W61861  27.915   3.237   3.180
93644W        W61862  13.465  19.655   0.543
93645W        W61863  12.358  30.077  14.756
93646W        W61864  34.044  14.733   0.647
93647W        W61865  32.726   4.402  13.438
93648W        W61866   5.128  32.425  10.650
93649W        W61867  10.173  18.656  13.955
93650W        W61868   9.437  19.314   2.359
93651W        W61869   6.418  13.966  11.640
93652W        W61870  16.227  12.458   5.040
93653W        W61871  23.779  11.806   4.996
93654W        W61872  28.195  40.393  13.937
93655W        W61873  22.983  31.646  12.049
93656W        W61874   4.220  40.559  11.580
93657W        W61875  14.499  14.529  12.079
93658W        W61876  41.388   7.117   0.462
93659W        W61877   2.436  15.332   2.193
93660W        W61878  27.669  43.319   0.392
93661W        W61879  15.654  21.080  13.845
93662W        W61880  13.872  20.314  12.011
93663W        W61881  32.459  22.993   0.508
93664W        W61882  30.468  11.682   0.582
93665W        W61883   3.147  35.011   3.207
93666W        W61884  16.756  21.388  14.804
93667W        W61885  23.092   4.076  13.324
93668W        W61886  33.633  18.844   2.230
93669W        W61887  39.034   8.232   1.362
93670W        W61888  20.760  40.984  13.365
93671W        W61889  15.353  32.306   5.046
93672W        W61890  28.224  32.421  11.472
93673W        W61891  10.655  25.659   0.611
93674W        W61892  41.009   4.375   1.860
93675W        W61893  13.151  15.093   0.758
93676W        W61894  14.612  43.382   3.269
93677W        W61895  35.543  44.374   1.807
93678W        W61896  31.106  21.285  13.555
93679W        W61897  44.821   3.490  13.741
93680W        W61898  39.356   5.813  10.954
93681W        W61899  44.079  42.722   3.715
93682W        W61900  27.780  22.242   2.344
93683W        W61901  26.998  24.143   0.955
93684W        W61902   1.745   0.824   5.017
93685W        W61903  36.855   6.274  12.112
93686W        W61904  25.864  30.840   2.302
93687W        W61905  21.191  33.548   2.729
93688W        W61906  32.242  37.819   4.618
93689W        W61907  36.086  12.790  12.973
93690W        W61908   5.728  30.502   3.571
93691W        W61909  18.018  15.359  10.759
93692W        W61910  43.578  37.549   3.177
93693W        W61911  18.219  35.709   4.967
93694W        W61912  14.643   4.180  11.468
93695W        W61913  36.474  38.172  11.174
93696W        W61914   1.059   4.693  11.947
93697W        W61915  43.284  44.777  12.459
93698W        W61916  20.775  30.545   3.759
93699W        W61917  28.701  14.774  14.175
93700W        W61918  10.382  28.374  12.882
93701W        W61919   1.221  28.749  10.696
93702W        W61920  31.387  37.802   4.438
93703W        W61921  25.735  40.006   3.256
93704W        W61922  37.975  32.852   2.831
93705W        W61923   1.221  34.634   2.404
93706W        W61924  29.411   9.708  12.137
93707W        W61925  44.321  27.080  11.182
93708W        W61926  44.174  11.649   4.117
93709W        W61927  39.025   5.772   2.518
93710W        W61928  17.627  38.959  11.612
93711W        W61929  10.117   7.780   0.937
93712W        W61930  16.814  30.648  12.821
93713W        W61931  43.084  23.568  14.385
93714W        W61932  29.632  20.152   1.640
93715W        W61933   4.183   7.922  12.090
93716W        W61934   2.793  26.657  13.373
93717W        W61935  20.642   2.156  10.726
93718W        W61936  12.007   7.455  12.553
93719W        W61937  26.183  42.825   4.817
93720W        W61938   4.852  39.135  10.760
93721W        W61939  27.667  25.049   1.458
93722W        W61940  36.762  23.278  14.261
93723W        W61941  40.928  24.519   1.794
93724W        W61942  24.696   2.820  11.517
93725W        W61943  32.922  10.164  10.540
93726W        W61944  35.548  36.957  13.756
93727W        W61945  35.403   4.109  13.970
93728W        W61946  11.285  42.285  11.240
93729W        W61947  17.141  19.034  13.863
93730W        W61948  33.607   1.735   0.019
93731W        W61949  42.115  24.522   4.437
93732W        W61950   1.856  20.318  11.480
93733W        W61951  39.615  25.694   4.198
93734W        W61952  42.754  34.474  11.553
93735W        W61953  40.007   8.607  11.502
93736W        W61954   8.362  40.544   1.599
93737W        W61955  10.904   9.301   0.499
93738W        W61956  25.656  37.809  13.525
93739W        W61957  27.938  15.322   3.646
93740W        W61958  41.067   9.846  10.806
93741W        W61959   5.179  29.288   1.362
93742W        W61960   6.771  16.828  12.913
93743W        W61961  17.718  20.531  11.888
93744W        W61962  24.647   4.183  10.557
93745W        W61963  30.934  36.922   4.698
93746W        W61964  38.866  31.143  13.603
93747W        W61965  13.726  14.148   0.019
93748W        W61966  32.181  33.985   1.291
93749W        W61967  28.520  18.326  13.551
93750W        W61968   5.524   1.607  10.721
93751W        W61969  16.063  27.336  14.694
93752W        W61970  26.281  22.994   0.327
93753W        W61971  37.729  29.012  14.929
93754W        W61972  44.849  32.933  11.815
93755W        W61973  29.335   7.267   2.282
93756W        W61974  43.344  19.322  14.810
93757W        W61975  41.214  28.762   0.269
93758W        W61976  44.764   6.686   3.717
93759W        W61977  30.858  19.344   3.732
93760W        W61978   0.069   8.673   2.451
93761W        W61979  18.795  23.570  12.841
93762W        W61980  18.603  23.042  10.745
93763W        W61981  24.813  13.367  11.922
93764W        W61982  44.840  20.246   2.293
93765W        W61983  11.436  20.297  12.416
93766W        W61984  37.613  15.755   0.458
93767W        W61985  32.404  36.354   0.749
93768W        W61986   7.384  32.707  14.785
93769W        W61987   6.334  39.377   3.757
93770W        W61988   9.937   1.182   2.173
93771W        W61989  25.924  32.057  14.787
93772W        W61990  33.861   2.221   3.248
93773W        W61991  21.310  44.365  13.934
93774W        W61992  10.567  20.294   1.394
93775W        W61993  36.302   5.428   1.172
93776W        W61994   0.600  20.322  11.574
93777W        W61995  17.716   0.390  10.312
93778W        W61996   1.715   3.216   0.783
93779W        W61997  17.698  17.046   0.327
93780W        W61998  35.576  17.755   4.461
93781W        W61999  35.617  21.162   4.242
93782W        W62000  28.622   1.416   0.686
93783W        W62001  11.542  17.321  11.630
93784W        W62002   4.436  27.125   3.235
93785W        W62003  36.682   9.122   4.575
93786W        W62004   1.826   4.129   0.468
93787W        W62005  30.160  39.993   3.262
93788W        W62006  36.893  39.476  12.900
93789W        W62007   9.000  15.939  13.981
93790W        W62008  37.247  21.219  10.231
93791W        W62009  14.313  11.424  11.168
93792W        W62010  23.647  25.404   0.519
93793W        W62011  35.887  34.546   3.131
93794W        W62012  44.180   0.429  14.387
93795W        W62013  20.241  16.189  13.374
93796W        W62014  37.361  37.835   1.889
93797W        W62015   2.770  42.507   1.842
93798W        W62016  21.814   0.955   3.712
93799W        W62017  13.212  40.514   4.682
93800W        W62018   0.971  38.986  12.429
93801W        W62019  31.026  14.767  10.628
93802W        W62020  35.833   2.047  12.289
93803W        W62021  31.540  12.316   0.238
93804W        W62022  28.564  38.863  10.713
93805W        W62023  34.738  11.815   0.967
93806W        W62024  24.522  26.837  14.186
93807W        W62025  32.735  43.010   9.853
93808W        W62026  25.152  12.581   1.415
93809W        W62027  19.084  18.293   1.683
93810W        W62028  27.568  25.388   4.264
93811W        W62029   9.986  10.343  14.457
93812W        W62030  41.335   4.876   1.182
93813W        W62031  19.677  29.346   1.708
93814W        W62032  14.424  41.989  14.034
93815W        W62033  39.832  38.538  11.246
93816W        W62034  41.943   1.939   3.774
93817W        W62035  42.337  43.679   1.635
93818W        W62036  21.077  44.858   0.187
93819W        W62037  35.813  11.105   0.260
93820W        W62038  44.344   4.729   2.717
93821W        W62039  39.498  24.178  11.120
93822W        W62040  34.376  27.147  13.469
93823W        W62041  28.520   0.756   0.745
93824W        W62042  43.804   5.252  11.912
93825W        W62043  16.192  17.109   2.130
93826W        W62044   2.240   0.259  13.298
93827W        W62045  30.959  32.906   0.310
93828W        W62046  12.273  13.073  14.347
93829W        W62047  36.586   2.008   1.841
93830W        W62048  44.285  33.836   3.158
93831W        W62049  36.984  30.735  10.773
93832W        W62050  35.927  15.094   1.905
93833W        W62051  44.193  31.939  12.679
93834W        W62052   1.992  41.001   4.177
93835W        W62053   3.751  22.851   3.528
93836W        W62054  33.793  14.347   1.764
93837W        W62055   6.253  44.362  13.489
93838W        W62056  33.735  40.766  11.045
93839W        W62057  39.084  42.840   3.356
93840W        W62058  19.339  29.045  12.837
93841W        W62059  36.304  23.217  13.442
93842W        W62060  18.861  30.505   3.836
93843W        W62061   8.567  11.967  14.158
93844W        W62062  43.365  39.496   4.711
93845W        W62063   7.711  37.665  13.029
93846W        W62064  32.865  25.239   2.759
93847W        W62065  32.990  22.270   4.071
93848W        W62066  41.778  30.879  11.195
93849W        W62067  23.507  41.511   3.618
93850W        W62068   5.742  42.969  14.555
93851W        W62069  30.408  29.620  14.790
93852W        W62070  43.787  10.793  13.885
93853W        W62071  32.281   6.360  10.786
93854W        W62072  38.264  44.855   0.171
93855W        W62073  11.452  22.552   1.262
93856W        W62074  15.026  39.950  14.947
93857W        W62075   3.874  23.593  12.659
93858W        W62076  23.596   7.704   2.860
93859W        W62077  12.740  38.828   2.133
93860W        W62078  32.040  16.518  13.554
93861W        W62079   3.157  11.796   2.371
93862W        W62080  42.552  21.232  11.894
93863W        W62081  23.424  12.686   3.348
93864W        W62082   9.690  23.604  14.114
93865W        W62083   4.165  24.955  13.545
93866W        W62084  37.362   8.676   4.598
93867W        W62085  19.490  20.069   3.691
93868W        W62086  36.234  27.407  10.140
93869W        W62087  13.413  34.684  12.584
93870W        W62088  16.414  25.065  13.353
93871W        W62089  44.264  42.281   1.660
93872W        W62090   9.205   7.406   3.402
93873W        W62091  16.109   7.408  11.887
93874W        W62092  29.954  23.094   1.320
93875W        W62093  11.318   8.284  12.907
93876W        W62094  34.490  39.196   4.712
93877W        W62095  27.568  27.491   0.341
93878W        W62096  33.832  42.550   0.300
93879W        W62097  31.312  31.627   2.706
93880W        W62098  30.504   6.383  14.405
93881W        W62099  20.340  31.239   3.257
93882W        W62100  32.802  16.191   4.678
93883W        W62101  18.680  38.086  14.377
93884W        W62102   6.170  38.608   3.246
93885W        W62103   4.856  28.672  11.015
93886W        W62104  28.439  18.752  14.614
93887W        W62105  10.288  18.807  12.619
93888W        W62106   8.447  36.099   4.193
93889W        W62107  27.972  37.767   1.891
93890W        W62108  18.672  18.627   1.639
93891W        W62109  11.732   0.450   3.158
93892W        W62110  26.465   6.821  12.380
93893W        W62111  33.822   8.789  14.383
93894W        W62112  24.058  27.448  10.556
93895W        W62113  23.482  20.938   3.164
93896W        W62114  38.909  23.442   0.843
93897W        W62115  15.722  28.332  13.737
93898W        W62116  31.919   4.287  12.271
93899W        W62117  14.852  23.249   4.764
93900W        W62118  16.844  40.401   4.253
93901W        W62119  17.227  27.056   4.597
93902W        W62120  25.016  12.904   3.047
93903W        W62121   2.253  42.419  10.735
93904W        W62122  32.894  29.761   4.528
93905W        W62123   5.230   5.489  11.244
93906W        W62124  14.429  35.374   1.415
93907W        W62125  23.389  34.586   1.851
93908W        W62126  26.200  15.316   2.286
93909W        W62127  18.481  38.414   3.829
93910W        W62128   4.709  43.966   0.956
93911W        W62129  12.336  19.253   2.095
93912W        W62130  23.026  37.595   4.280
93913W        W62131  34.405  34.283  10.703
93914W        W62132  13.046   2.587   2.746
93915W        W62133  28.682  40.770  12.511
93916W        W62134  44.882  44.329   3.904
93917W        W62135  35.631   7.784  12.137
93918W        W62136  17.991  23.924  13.877
93919W        W62137  30.434  25.982   0.168
93920W        W62138   3.490   4.245   1.536
93921W        W62139  15.113   8.162   0.969
93922W        W62140   8.359  34.116   3.072
93923W        W62141  15.558   0.354   2.614
93924W        W62142   6.281  31.256   0.974
93925W        W62143   9.657  16.950  11.110
93926W        W62144   9.503  19.110   1.506
93927W        W62145  23.329  23.049  14.017
93928W        W62146  32.993   0.503   3.804
93929W        W62147  36.905  30.470   3.046
93930W        W62148  41.357  33.549  10.108
93931W        W62149   2.962  23.511   4.680
93932W        W62150  29.092  21.271   1.820
93933W        W62151  35.927  38.131  13.508
93934W        W62152   0.903   3.882   1.849
93935W        W62153   2.722  37.425   2.783
93936W        W62154   3.291  30.995  12.603
93937W        W62155  37.087   3.728   0.313
93938W        W62156  39.428   3.937  13.505
93939W        W62157   2.797  39.071   3.641
93940W        W62158  17.610   8.711  11.919
93941W        W62159  34.695  32.550  11.538
93942W        W62160  26.669  13.701   3.729
93943W        W62161  22.209  29.512   3.109
93944W        W62162  18.895  17.205   3.967
93945W        W62163  14.326  19.855   2.263
93946W        W62164  18.547  10.706   3.084
93947W        W62165  28.370  40.514   4.068
93948W        W62166  29.205  20.508   1.322
93949W        W62167  20.239  20.677  11.235
93950W        W62168  42.078  32.176  12.983
93951W        W62169  30.698  29.602  13.474
93952W        W62170  14.243  23.003  11.114
93953W        W62171  43.917  25.865  13.447
93954W        W62172   1.504  32.727   0.850
93955W        W62173  10.975   4.714  10.135
93956W        W62174  20.814  20.206   0.998
93957W        W62175   1.342  41.902  10.593
93958W        W62176   8.315  16.515   4.574
93959W        W62177  21.243  18.872   2.394
93960W        W62178   9.801  10.074   3.161
93961W        W62179  25.041  32.861   3.540
93962W        W62180  44.811   5.834   0.548
93963W        W62181  43.857  36.851  13.506
93964W        W62182  41.540  33.501   3.117
93965W        W62183  25.045  16.470   3.408
93966W        W62184  24.199  23.513   1.715
93967W        W62185  30.161  38.964   2.450
93968W        W62186   8.558   0.179   4.033
93969W        W62187  43.886  15.687  12.820
93970W        W62188   4.770  35.972   2.816
93971W        W62189  17.469  29.642  13.413
93972W        W62190   6.160  17.502   1.151
93973W        W62191  31.417  11.305   0.288
93974W        W62192  14.574  20.491   3.263
93975W        W62193  36.032  26.191   2.338
93976W        W62194   4.240  42.723   3.166
93977W        W62195  11.642  25.075  14.024
93978W        W62196  24.005  15.160   2.382
93979W        W62197  31.715  31.383   1.508
93980W        W62198   8.371  15.577   4.585
93981W        W62199  16.843  17.643  11.696
93982W        W62200  33.856  35.443   1.482
93983W        W62201  27.057  16.864   3.599
93984W        W62202  26.576  31.867  12.464
93985W        W62203  35.138  30.654  13.132
93986W        W62204  34.915  28.113  14.493
93987W        W62205  33.582  17.066   4.182
93988W        W62206  16.570   7.212   1.675
93989W        W62207   4.162  28.959   0.765
93990W        W62208  40.294  21.394   2.182
93991W        W62209  43.319  40.463   1.277
93992W        W62210   9.990  25.522  14.593
93993W        W62211  10.860  25.923  12.875
93994W        W62212   2.314  33.592   2.172
93995W        W62213  26.039   3.185  10.652
93996W        W62214  24.202  35.487   3.565
93997W        W62215  26.537  35.845  14.978
93998W        W62216   6.438   6.137   4.197
93999W        W62217  16.800  28.064  12.363
94000W        W62218  21.239  19.029  11.185
94001W        W62219  16.224  43.336   4.933
94002W        W62220  37.900  13.194  10.458
94003W        W62221  36.313  23.938   2.753
94004W        W62222  31.069  12.556   0.155
94005W        W62223  31.630  33.346   0.018
94006W        W62224   2.657   3.191  13.545
94007W        W62225   3.539  25.013  13.901
94008W        W62226   2.761  24.582  10.959
94009W        W62227   2.913   2.450   2.659
94010W        W62228  26.671  11.045  12.912
94011W        W62229  10.138   1.188   4.179
94012W        W62230  11.943  13.728  12.474
94013W        W62231  35.886   6.007  12.048
94014W        W62232   0.776   9.841  13.058
94015W        W62233  29.435  25.687   1.704
94016W        W62234   7.352  38.556  13.005
94017W        W62235  12.484   9.183   0.417
94018W        W62236  27.855  31.669  12.867
94019W        W62237  26.971   1.901   1.000
94020W        W62238  23.113  20.225  13.586
94021W        W62239  18.642  43.740  13.784
94022W        W62240  24.658  35.479   4.367
94023W        W62241  38.860  20.345   4.097
94024W        W62242  41.503  20.424  13.128
94025W        W62243  20.900  43.313  13.523
94026W        W62244  17.670   5.290   2.669
94027W        W62245  42.061  26.459   2.852
94028W        W62246   4.382  42.803   2.156
94029W        W62247   2.640   5.576   2.739
94030W        W62248  21.638  26.995  11.667
94031W        W62249  20.082  22.991   1.811
94032W        W62250  17.255  26.778   4.158
94033W        W62251  15.763  27.301  12.881
94034W        W62252  25.921  14.232  10.691
94035W        W62253  33.612  18.661  11.485
94036W        W62254  35.801  43.927  11.560
94037W        W62255  19.629   2.698  12.620
94038W        W62256  38.484  36.342   4.148
94039W        W62257   6.066   6.725  12.028
94040W        W62258  29.914  27.058   1.453
94041W        W62259   5.763  11.764   4.387
94042W        W62260  19.546  43.378  11.239
94043W        W62261   2.773  23.499   0.343
94044W        W62262  29.189   5.473   0.786
94045W        W62263  19.754  18.677  14.772
94046W        W62264  35.267  10.254  10.392
94047W        W62265  41.892  17.822   1.964
94048W        W62266  21.261  35.325  13.925
94049W        W62267  12.659  41.525   3.835
94050W        W62268  11.760  35.563  11.903
94051W        W62269   7.365  39.862  12.123
94052W        W62270  15.414  20.463   5.024
94053W        W62271  28.108   7.851  12.585
94054W        W62272  19.068  13.690   3.583
94055W        W62273  32.051  31.478  10.639
94056W        W62274  14.449  19.490  12.117
94057W        W62275  44.078  22.315  12.927
94058W        W62276  16.991  34.855  10.565
94059W        W62277  32.572   2.341   3.627
94060W        W62278  21.289  40.853   0.854
94061W        W62279  42.033  27.112   4.122
94062W        W62280   2.092  31.727  10.508
94063W        W62281  37.839  24.732   4.148
94064W        W62282  10.738  28.989  11.068
94065W        W62283  28.092  32.414  12.429
94066W        W62284   6.777  37.649   4.267
94067W        W62285  19.635   6.769  14.980
94068W        W62286   2.632   4.910  13.609
94069W        W62287  37.082  32.945   0.751
94070W        W62288  15.529  40.093  11.097
94071W        W62289  41.985   9.709  13.052
94072W        W62290   4.021  41.321   3.623
94073W        W62291  33.426  27.734   1.886
94074W        W62292   0.878   2.909   2.519
94075W        W62293  37.705  43.872   2.011
94076W        W62294  28.893  17.891   1.360
94077W        W62295   7.924   8.823   1.747
94078W        W62296  19.216  18.804   2.966
94079W        W62297  12.030  10.021  13.544
94080W        W62298  41.205   3.931   4.072
94081W        W62299  11.160  17.764  13.501
94082W        W62300  14.219  27.642   4.958
94083W        W62301  25.242  10.246   3.145
94084W        W62302  10.305  27.535   0.861
94085W        W62303  14.869  39.790  12.558
94086W        W62304  20.888   1.355  10.721
94087W        W62305   4.901  19.230  10.517
94088W        W62306  15.327  43.444  10.710
94089W        W62307  31.060  37.932  13.840
94090W        W62308  26.829  19.668   2.285
94091W        W62309  41.003   3.205   2.165
94092W        W62310   4.894   2.936  11.118
94093W        W62311  22.123  30.673  13.512
94094W        W62312  14.544  33.651  10.847
94095W        W62313  35.326  27.741  13.064
94096W        W62314  22.585   2.605  13.307
94097W        W62315  15.588  22.285   1.768
94098W        W62316  41.590  19.704   0.449
94099W        W62317  24.227  32.515  14.948
94100W        W62318  44.657  24.073  12.363
94101W        W62319  44.411  37.753   2.697
94102W        W62320   4.371  18.747  14.217
94103W        W62321  31.429  42.499   3.625
94104W        W62322  44.124  26.680   2.142
94105W        W62323  16.532  12.353  13.861
94106W        W62324  35.776  19.611  14.006
94107W        W62325  30.911   3.494   1.838
94108W        W62326  17.803   0.225  10.796
94109W        W62327  14.283   9.287  14.802
94110W        W62328  26.443   2.432  12.708
94111W        W62329  21.713  18.760  10.753
94112W        W62330   2.293  38.192  11.605
94113W        W62331   1.021  18.167   4.602
94114W        W62332  11.132  21.124  10.629
94115W        W62333  23.536  25.264   1.805
94116W        W62334  35.092  24.993  11.178
94117W        W62335   7.763  28.648  14.905
94118W        W62336   5.681  15.693   1.739
94119W        W62337  35.461   6.195   0.879
94120W        W62338  26.183   3.515  13.478
94121W        W62339  16.555  42.872  10.370
94122W        W62340   4.071  17.801  13.911
94123W        W62341  20.805  42.951  12.391
94124W        W62342  10.531  13.500   1.724
94125W        W62343   9.713  35.105   4.653
94126W        W62344  32.632  44.930   0.902
94127W        W62345  22.319  24.596  13.499
94128W        W62346   2.458  27.220  10.861
94129W        W62347   1.765  13.423  13.962
94130W        W62348  24.014  42.563   3.439
94131W        W62349  10.819  18.580   5.298
94132W        W62350  26.300  13.080  13.464
94133W        W62351   4.447  39.272  13.964
94134W        W62352   3.885  43.452  12.370
94135W        W62353  44.474  40.513   4.641
94136W        W62354  15.804  15.220  14.472
94137W        W62355  38.415  30.150   1.191
94138W        W62356  21.688  16.955   0.260
94139W        W62357  36.068   1.710   9.910
94140W        W62358  12.652  34.557   0.577
94141W        W62359   7.216  39.549  13.311
94142W        W62360  11.281  15.572   0.836
94143W        W62361   2.535  11.560   3.603
94144W        W62362  23.194  44.243   0.776
94145W        W62363  27.687  11.135  14.863
94146W        W62364   5.273  37.317   4.114
94147W        W62365  43.316  18.068  14.539
94148W        W62366   6.380  31.011  11.558
94149W        W62367  27.561   3.811  12.896
94150W        W62368  20.994  20.959  11.159
94151W        W62369  34.537  16.719  11.773
94152W        W62370  25.650  25.436   1.293
94153W        W62371  25.473   9.243   3.778
94154W        W62372  44.475   4.029  10.647
94155W        W62373  20.559  30.896  12.042
94156W        W62374   9.772   4.760  11.996
94157W        W62375  16.271  41.289  13.530
94158W        W62376   8.801  32.636  10.722
94159W        W62377  36.927  44.767  11.686
94160W        W62378  44.011  29.610  11.458
94161W        W62379  31.575  11.721  13.794
94162W        W62380  23.350  43.481  11.658
94163W        W62381  12.369  37.024   2.185
94164W        W62382   8.569  14.294   0.181
94165W        W62383  13.093  37.065   3.625
94166W        W62384  37.092   9.453   4.574
94167W        W62385   8.892   4.261   4.883
94168W        W62386  21.154  41.421   3.651
94169W        W62387   5.572  39.481   1.060
94170W        W62388   1.948  20.814  11.422
94171W        W62389  36.423  29.022  10.320
94172W        W62390  42.261   6.419  11.204
94173W        W62391  10.619  10.767  10.381
94174W        W62392  11.674  43.529   3.691
94175W        W62393  40.786  16.864  10.710
94176W        W62394  42.732  27.816  11.187
94177W        W62395  15.375  38.007  11.513
94178W        W62396   7.058   2.306  14.435
94179W        W62397  29.689  21.284   5.005
94180W        W62398  43.097   8.628  11.131
94181W        W62399  33.576  25.027   3.640
94182W        W62400  17.412  22.551  13.383
94183W        W62401  36.036   6.631  11.439
94184W        W62402  36.573  29.536   3.250
94185W        W62403  29.035   2.109   4.577
94186W        W62404   4.892   8.760   0.951
94187W        W62405   1.944   9.937   4.674
94188W        W62406   8.690  13.682   2.246
94189W        W62407   5.040  44.817   4.860
94190W        W62408   4.352  40.582  12.935
94191W        W62409  18.286   3.300   3.761
94192W        W62410  20.113   3.757   1.406
94193W        W62411  42.527  40.341   3.672
94194W        W62412  32.918   3.484   1.810
94195W        W62413  11.269  22.979   1.504
94196W        W62414  41.454  24.734  10.573
94197W        W62415   2.712  42.155  10.868
94198W        W62416  32.163  25.641   0.434
94199W        W62417  41.125  19.311   3.294
94200W        W62418   6.374  14.777   1.438
94201W        W62419  28.092  34.099   2.826
94202W        W62420  36.659  21.433  10.228
94203W        W62421  34.673  24.024  14.372
94204W        W62422  17.500  22.582  14.759
94205W        W62423  42.308  26.245   1.686
94206W        W62424  28.214  12.890  11.866
94207W        W62425  42.825   3.436   1.141
94208W        W62426  30.488  22.529  13.441
94209W        W62427  29.352  35.286   1.262
94210W        W62428  16.033  35.848  11.654
94211W        W62429  25.006  15.286   2.208
94212W        W62430  12.977   9.845   2.697
94213W        W62431  28.046  34.533   1.225
94214W        W62432   4.902  44.580  14.525
94215W        W62433  22.252  11.570  10.328
94216W        W62434  36.717  16.824  13.991
94217W        W62435  15.047   6.720   1.787
94218W        W62436  40.365  43.522   3.795
94219W        W62437  16.672   3.771  13.921
94220W        W62438  29.929  43.477   2.208
94221W        W62439  32.557  27.082  13.806
94222W        W62440  23.675  18.471  11.964
94223W        W62441  34.543  25.972  10.677
94224W        W62442  21.739  18.840  13.461
94225W        W62443   4.314  18.481   4.599
94226W        W62444  10.669  27.752   4.203
94227W        W62445  33.304  37.057   3.210
94228W        W62446  38.453  21.967  10.673
94229W        W62447  10.807  38.892  12.592
94230W        W62448   2.238  17.241  10.713
94231W        W62449  34.359  41.304  10.584
94232W        W62450  37.830  43.653   0.037
94233W        W62451   4.724  34.439  11.576
94234W        W62452   7.136  35.061  11.567
94235W        W62453  20.423  42.424  10.711
94236W        W62454  29.233  33.360   2.842
94237W        W62455  21.485  35.641   5.347
94238W        W62456  15.515  13.560   9.872
94239W        W62457  39.038  36.444   0.250
94240W        W62458  28.488  15.169   4.406
94241W        W62459  14.220   9.283   1.348
94242W        W62460  44.389  24.603  12.382
94243W        W62461  19.617   4.922   3.155
94244W        W62462  35.205  32.485   0.993
94245W        W62463  40.606  16.777   1.570
94246W        W62464  26.529  15.075   1.378
94247W        W62465  42.004   8.270   2.590
94248W        W62466  40.945  31.687   1.821
94249W        W62467   8.905   2.482   3.896
94250W        W62468  38.406   4.032  11.122
94251W        W62469  22.531   6.245   4.802
94252W        W62470  28.237  36.043  11.038
94253W        W62471  30.519  35.337  13.788
94254W        W62472  19.475  34.893   3.856
94255W        W62473  18.792   8.983   2.710
94256W        W62474   9.817   9.545   4.772
94257W        W62475  18.967  42.023  12.218
94258W        W62476   1.672   0.055  12.587
94259W        W62477  19.147  33.647  12.500
94260W        W62478  15.190  24.463  13.419
94261W        W62479   3.058   9.458  13.287
94262W        W62480   7.625   2.106   3.191
94263W        W62481  32.420  36.433   0.231
94264W        W62482  37.264   8.179   1.846
94265W        W62483   4.180  43.381  11.634
94266W        W62484  10.144  23.992  14.005
94267W        W62485  28.391  27.545   3.228
94268W        W62486  40.050   8.877   3.256
94269W        W62487  12.861   9.441   1.826
94270W        W62488  30.698  34.065  11.019
94271W        W62489  38.024  32.036  13.786
94272W        W62490  24.787   4.856   4.363
94273W        W62491  29.943  44.834  13.643
94274W        W62492  43.983  35.412  11.088
94275W        W62493   3.879   1.494   0.526
94276W        W62494  16.389   2.115   0.958
94277W        W62495  38.949  29.679   2.639
94278W        W62496  10.866  30.620   2.921
94279W        W62497  25.863  19.788  12.512
94280W        W62498  40.569  15.169  11.237
94281W        W62499  28.192  12.401   1.389
94282W        W62500  10.756   7.286  12.580
94283W        W62501  34.990  12.620   0.949
94284W        W62502  27.128  20.703   1.740
94285W        W62503  30.266  32.545   3.659
94286W        W62504  26.694  42.002  10.789
94287W        W62505  44.897   2.236  10.755
94288W        W62506  23.710  31.868  13.021
94289W        W62507  38.808  36.248   4.585
94290W        W62508  36.180  15.184  11.972
94291W        W62509  21.511  17.452   0.308
94292W        W62510  13.706   2.188  14.813
94293W        W62511  27.183  21.173   0.880
94294W        W62512   3.475  17.088  14.357
94295W        W62513   3.515  38.554  11.094
94296W        W62514  27.799  36.348   3.778
94297W        W62515  21.754  38.809  14.172
94298W        W62516  27.643  26.080  14.263
94299W        W62517  25.495  18.613  14.292
94300W        W62518   9.472  43.014  10.589
94301W        W62519   9.573   6.874  13.342
94302W        W62520   8.678  31.385  11.741
94303W        W62521  16.319  26.154  12.075
94304W        W62522   8.433  19.741  14.331
94305W        W62523  19.558  20.629  13.065
94306W        W62524  28.447  31.102  13.589
94307W        W62525  22.699   3.403   4.404
94308W        W62526   2.728  29.288  12.634
94309W        W62527  33.152  22.617  10.680
94310W        W62528  18.795  25.032  10.733
94311W        W62529  22.717  33.452   4.984
94312W        W62530  24.948  15.837  10.230
94313W        W62531   2.464  22.735   3.691
94314W        W62532  39.549  19.064  14.388
94315W        W62533   9.258  19.650   3.158
94316W        W62534  12.395  24.993   1.330
94317W        W62535  40.362   0.318  11.215
94318W        W62536  44.927  27.132  12.952
94319W        W62537  12.090   0.916  11.489
94320W        W62538  15.800  39.866  10.706
94321W        W62539  31.371  31.040  14.432
94322W        W62540  28.934  21.070  12.882
94323W        W62541  16.031  34.503   0.907
94324W        W62542  10.666   2.946   1.114
94325W        W62543  20.743   4.705   0.700
94326W        W62544  13.683  35.057   1.810
94327W        W62545  14.581  12.679   0.701
94328W        W62546  43.246   9.516   3.362
94329W        W62547  39.926   0.541  12.954
94330W        W62548  42.600  11.137   1.833
94331W        W62549  15.841  43.902   5.514
94332W        W62550  31.959  16.129   0.565
94333W        W62551   7.866  21.860   0.871
94334W        W62552  25.015  25.915  12.327
94335W        W62553  39.879  34.316   0.844
94336W        W62554  31.609  29.565   0.433
94337W        W62555   5.981  41.232  12.602
94338W        W62556   8.180  40.959   1.842
94339W        W62557  25.581  33.977  14.720
94340W        W62558  20.621   4.941   2.958
94341W        W62559  16.556  39.763  11.095
94342W        W62560  38.398  14.380   2.203
94343W        W62561  27.870  25.494   2.952
94344W        W62562   4.078   4.512   2.221
94345W        W62563  40.374   5.919   4.935
94346W        W62564  23.547   1.307   2.761
94347W        W62565  12.743  14.112  12.106
94348W        W62566   6.433   0.735  11.094
94349W        W62567  28.554  15.165  12.300
94350W        W62568  18.084  32.051  12.623
94351W        W62569   7.190  33.043  12.962
94352W        W62570  31.667  38.912   0.317
94353W        W62571  23.617  21.397   0.484
94354W        W62572  28.526  25.694  12.489
94355W        W62573  28.288  39.791  11.169
94356W        W62574  20.899  12.784  11.944
94357W        W62575  19.989  40.845  12.867
94358W        W62576  20.332  37.470  12.422
94359W        W62577   8.518   6.721  11.312
94360W        W62578  16.624  43.502   5.204
94361W        W62579   1.359  10.052  12.764
94362W        W62580  14.727   6.305   0.941
94363W        W62581   3.682   8.765  14.415
94364W        W62582  33.801  29.424  12.456
94365W        W62583   1.904  20.632  10.924
94366W        W62584  20.667  14.325  11.076
94367W        W62585  18.960   5.850   0.860
94368W        W62586   9.667  23.077  11.030
94369W        W62587  34.098  39.728  12.551
94370W        W62588  11.701  32.088   1.726
94371W        W62589  22.727  36.861   0.804
94372W        W62590  24.656   5.221   3.134
94373W        W62591  14.403  43.395   1.839
94374W        W62592  14.437  27.063  11.384
94375W        W62593  38.146   0.694  10.080
94376W        W62594  30.681  13.293  14.897
94377W        W62595  37.025  29.352  14.800
94378W        W62596  19.201   6.387  12.818
94379W        W62597   4.848  38.290   0.861
94380W        W62598   1.301   4.067  13.828
94381W        W62599  15.769  21.133  11.929
94382W        W62600  18.246   7.711  12.932
94383W        W62601  11.220   0.924   2.886
94384W        W62602  18.723   8.570  10.216
94385W        W62603  11.888   7.157   0.484
94386W        W62604  43.548  31.985   3.350
94387W        W62605  39.964  34.347  12.664
94388W        W62606  37.010  42.452   3.634
94389W        W62607  34.101  32.418  13.587
94390W        W62608   9.864  26.184   2.953
94391W        W62609   4.344   6.444   1.027
94392W        W62610  18.281  36.967   1.301
94393W        W62611  29.531  16.508  12.898
94394W        W62612   9.459  26.652   9.921
94395W        W62613  14.129  10.172   0.259
94396W        W62614  32.898  42.022  10.950
94397W        W62615  43.940  30.993   1.335
94398W        W62616  39.185  34.163  14.292
94399W        W62617  21.218  30.911  11.617
94400W        W62618  38.189   8.342   2.039
94401W        W62619   7.075  19.591   1.881
94402W        W62620   3.677   6.827   3.680
94403W        W62621  24.077  44.222   3.741
94404W        W62622  38.481   2.180   3.216
94405W        W62623  13.575   2.451   0.759
94406W        W62624  41.483   6.170   3.636
94407W        W62625  42.940  13.360   4.310
94408W        W62626  10.197  37.831  10.568
94409W        W62627  12.750  32.402  12.559
94410W        W62628  23.110  10.714  14.821
94411W        W62629  33.891  21.521   4.589
94412W        W62630  20.477  26.525   1.288
94413W        W62631   8.129  15.030  12.873
94414W        W62632  34.439  28.753  13.077
94415W        W62633  22.225   7.377  11.545
94416W        W62634  29.405  18.640  12.083
94417W        W62635  19.962  40.963   4.801
94418W        W62636  11.369  21.440  13.462
94419W        W62637  24.557   7.875   0.402
94420W        W62638  40.370  40.436  12.133
94421W        W62639  18.855   8.883  13.591
94422W        W62640  19.843  26.720  11.677
94423W        W62641  35.883  19.229  11.950
94424W        W62642  30.455   0.989  11.625
94425W        W62643  20.108  30.448  13.617
94426W        W62644  36.389  44.302  10.891
94427W        W62645   0.893  15.000   4.654
94428W        W62646  21.525  19.897   2.327
94429W        W62647  11.049  42.342  14.865
94430W        W62648  28.181   9.634   2.299
94431W        W62649   0.937  31.266   1.887
94432W        W62650   4.398  44.421  13.756
94433W        W62651   5.096  14.219  11.788
94434W        W62652  42.899  33.941  12.906
94435W        W62653  21.572  11.781  13.474
94436W        W62654  10.556  28.382   1.946
94437W        W62655  39.192   7.516  11.171
94438W        W62656  31.981  42.444  10.803
94439W        W62657  28.902  44.102   2.801
94440W        W62658  15.638   5.671   2.348
94441W        W62659   9.083  10.400  11.195
94442W        W62660   0.825   4.303  11.709
94443W        W62661  35.131  26.563  12.754
94444W        W62662  11.141  15.722  10.689
94445W        W62663  38.703  34.985  12.298
94446W        W62664   9.409  16.790   1.209
94447W        W62665  16.668  21.692  10.587
94448W        W62666  35.435  16.034   0.390
94449W        W62667  18.770   1.364  10.910
94450W        W62668   1.335   4.240   3.099
94451W        W62669  23.713  18.068  11.076
94452W        W62670  21.624  10.780   4.547
94453W        W62671  21.741  36.815  13.431
94454W        W62672  37.729  32.577   4.656
94455W        W62673  29.876  30.449  12.962
94456W        W62674  33.776  16.218  11.569
94457W        W62675  44.893   4.994  10.637
94458W        W62676  10.219  39.607   3.519
94459W        W62677  24.886  44.119  11.056
94460W        W62678  35.704   8.898  12.906
94461W        W62679   7.789  19.164   1.442
94462W        W62680  31.435   8.422  12.950
94463W        W62681  20.987   0.739  13.059
94464W        W62682   8.703  43.550   3.108
94465W        W62683  38.874  22.282   1.688
94466W        W62684  11.899   4.767  12.639
94467W        W62685  41.127   1.757   1.372
94468W        W62686  32.566  21.327   3.824
94469W        W62687   5.977  26.533  14.304
94470W        W62688  14.419  12.587  11.641
94471W        W62689  38.450   1.702  14.761
94472W        W62690   7.461  10.330  14.985
94473W        W62691  43.199   2.542   1.260
94474W        W62692  37.266  12.327   0.350
94475W        W62693   0.233   2.785   0.348
94476W        W62694  11.021  17.406  11.713
94477W        W62695  41.801   8.881  13.450
94478W        W62696   1.071  21.231  11.615
94479W        W62697  11.770   3.326  13.554
94480W        W62698   0.475  16.039   1.786
94481W        W62699  34.002  10.933   4.384
94482W        W62700  15.301  29.684   0.488
94483W        W62701  23.616   3.842   1.709
94484W        W62702  37.075  27.238   5.108
94485W        W62703  16.627  25.373   2.465
94486W        W62704  13.370  24.079  13.987
94487W        W62705  14.704  41.698   0.165
94488W        W62706  12.576  30.852   2.919
94489W        W62707  16.732  35.158   4.094
94490W        W62708   5.089  29.347  13.308
94491W        W62709  35.490   1.688  14.042
94492W        W62710   0.316  29.437  12.923
94493W        W62711  20.617  23.595   0.730
94494W        W62712  21.222   9.816   3.070
94495W        W62713   6.921  15.772   1.791
94496W        W62714  20.422  20.592  11.701
94497W        W62715  40.328  41.504   1.451
94498W        W62716   7.726   2.189  11.500
94499W        W62717  25.251  29.982  14.581
94500W        W62718  40.471  10.323   0.267
94501W        W62719  26.636  27.089   0.564
94502W        W62720  28.140  13.752   3.582
94503W        W62721  27.494  28.782   1.494
94504W        W62722  25.917  27.502   2.597
94505W        W62723  34.867   4.845  11.132
94506W        W62724  38.163  27.469  12.037
94507W        W62725  39.047   5.822   4.602
94508W        W62726  26.278  16.262   0.905
94509W        W62727  17.661  44.870  14.209
94510W        W62728   4.326  38.680   2.792
94511W        W62729  37.569  38.380  11.488
94512W        W62730  40.033   1.437   1.231
94513W        W62731  10.165  39.478   0.299
94514W        W62732   5.112  33.645  11.166
94515W        W62733  37.058  24.978   2.182
94516W        W62734  14.143   0.298   2.410
94517W        W62735  35.128  44.982  11.065
94518W        W62736  15.642   1.384  11.924
94519W        W62737  18.315  12.368  13.941
94520W        W62738  20.813  23.901  13.431
94521W        W62739   3.335   3.860  13.392
94522W        W62740  26.110  37.796   4.018
94523W        W62741   1.448  24.630   1.019
94524W        W62742   3.527   6.125   3.144
94525W        W62743  41.972  35.048  13.390
94526W        W62744   6.323  13.218   2.462
94527W        W62745   3.222   6.824  13.785
94528W        W62746  13.075  24.055   4.467
94529W        W62747  32.493  25.983  14.710
94530W        W62748  33.026  31.470  12.874
94531W        W62749   3.313  39.374   0.339
94532W        W62750  27.066  35.480   1.799
94533W        W62751  32.933  12.262  14.842
94534W        W62752  27.554  38.465   2.021
94535W        W62753  21.187  17.190   4.034
94536W        W62754  30.022  26.099   1.697
94537W        W62755  13.650   3.348   1.003
94538W        W62756   7.779  29.089  12.831
94539W        W62757  32.604  10.394   0.488
94540W        W62758   5.619  18.253  10.496
94541W        W62759  36.937  41.894  13.485
94542W        W62760  38.247  26.478   3.286
94543W        W62761  32.903  17.181  13.513
94544W        W62762  41.028  27.531   1.363
94545W        W62763  14.612  18.705   0.364
94546W        W62764  15.553  10.741   0.273
94547W        W62765  36.976  10.609   4.442
94548W        W62766  37.559  10.745  14.830
94549W        W62767   4.773  26.073  10.683
94550W        W62768  43.490  16.032  10.696
94551W        W62769  26.151  10.592  13.329
94552W        W62770  17.404  16.612   1.862
94553W        W62771  41.252   8.579   4.580
94554W        W62772  22.922   6.298   4.384
94555W        W62773   8.992  25.300  11.589
94556W        W62774  17.782  14.939  12.091
94557W        W62775  17.758  24.234   1.907
94558W        W62776  18.398  31.182   1.683
94559W        W62777  43.671  21.784  13.865
94560W        W62778  24.692  20.188   0.578
94561W        W62779  13.176   2.450  12.123
94562W        W62780  19.633  32.960   3.319
94563W        W62781  38.001  30.565  10.775
94564W        W62782  24.685  18.817  12.774
94565W        W62783  37.996  14.318  13.805
94566W        W62784  19.035  35.861  13.388
94567W        W62785   8.190  40.962  11.525
94568W        W62786   9.891  24.744   4.223
94569W        W62787   4.243  17.794   1.311
94570W        W62788  16.282  20.909   4.705
94571W        W62789  10.381  43.507   0.687
94572W        W62790  42.841  23.517  12.952
94573W        W62791  29.715  44.683  12.361
94574W        W62792  39.777  19.191   3.258
94575W        W62793  26.733  29.947  14.448
94576W        W62794  38.863  15.529   0.992
94577W        W62795   4.207   0.152   2.317
94578W        W62796  44.278   4.867   1.301
94579W        W62797   2.303  33.168   0.433
94580W        W62798  33.385  21.375  12.023
94581W        W62799  42.176  13.313   2.981
94582W        W62800  37.322   0.087  11.818
94583W        W62801  41.582  38.867  13.978
94584W        W62802  14.831   7.154   3.202
94585W        W62803  13.078  18.152  12.909
94586W        W62804  20.182   9.813   0.653
94587W        W62805  32.634  28.751   0.273
94588W        W62806  42.080  35.372  11.484
94589W        W62807  16.152  21.442  12.056
94590W        W62808  33.902  24.171   2.935
94591W        W62809   0.426   5.627   3.198
94592W        W62810  20.487  28.271  14.476
94593W        W62811  19.603  37.254  14.995
94594W        W62812  20.653  39.966  13.426
94595W        W62813  17.584   6.706  14.335
94596W        W62814  23.492  16.373   2.680
94597W        W62815  37.998   7.698  11.656
94598W        W62816   0.391  13.878   0.698
94599W        W62817   1.989   3.856  14.368
94600W        W62818  36.066   9.925  11.871
94601W        W62819  10.630  36.859   0.422
94602W        W62820   3.298  10.765  10.670
94603W        W62821  22.185  32.985  10.806
94604W        W62822   9.354  43.329   1.312
94605W        W62823  40.448  35.092   1.409
94606W        W62824   3.410   8.235   2.678
94607W        W62825   2.529  28.482  14.967
94608W        W62826  23.993  29.137   4.085
94609W        W62827  14.222  10.961   2.750
94610W        W62828  14.200  42.027   1.439
94611W        W62829  42.526  16.572  13.323
94612W        W62830   2.693  32.133  11.574
94613W        W62831  39.358  38.316  12.961
94614W        W62832  28.009  29.159  11.421
94615W        W62833   6.839  13.561  13.948
94616W        W62834  12.618   0.100  14.684
94617W        W62835  44.774  16.185   4.830
94618W        W62836  44.259  32.430  14.543
94619W        W62837  17.602  34.033   4.809
94620W        W62838   3.851  13.538   4.779
94621W        W62839  17.199   8.294  14.767
94622W        W62840  36.214  26.959   5.188
94623W        W62841  41.419  39.797  10.399
94624W        W62842  12.638  39.731  14.629
94625W        W62843  23.114  13.359  12.460
94626W        W62844  21.688   1.344   1.807
94627W        W62845   0.368  25.477  13.115
94628W        W62846  17.280  14.270   1.617
94629W        W62847  15.745   7.051   3.307
94630W        W62848   4.329  17.958   4.568
94631W        W62849  33.283   5.691  12.920
94632W        W62850  40.045  15.290   2.422
94633W        W62851  39.165  20.692  10.619
94634W        W62852  12.842  27.793  13.986
94635W        W62853  31.341   4.215  12.970
94636W        W62854  11.605  37.055  14.939
94637W        W62855  21.937  23.179  10.661
94638W        W62856   8.741  22.479  11.616
94639W        W62857  21.537  38.342  14.046
94640W        W62858   1.430  25.328   2.437
94641W        W62859  39.821  36.151   2.423
94642W        W62860   2.396  25.192   4.161
94643W        W62861   4.685  19.007  11.833
94644W        W62862   9.498  24.615  13.919
94645W        W62863  36.757  27.563  14.974
94646W        W62864   9.861  41.443  11.623
94647W        W62865  32.136  38.875  12.570
94648W        W62866   4.813  39.304  13.582
94649W        W62867  40.146  39.142  13.640
94650W        W62868  21.001  31.491   5.044
94651W        W62869  27.917  33.904   3.806
94652W        W62870  40.478  19.002   2.231
94653W        W62871  17.636  28.537  13.764
94654W        W62872  15.705  41.995  13.622
94655W        W62873  37.098  29.095   2.692
94656W        W62874   1.674  23.229   1.693
94657W        W62875   1.361  11.880  10.602
94658W        W62876  16.346  34.601   1.314
94659W        W62877   4.253  26.301   2.671
94660W        W62878  22.104  19.584  11.971
94661W        W62879  21.150   9.477   3.877
94662W        W62880  16.137  10.946   3.372
94663W        W62881  29.399  42.961  12.327
94664W        W62882  20.407  12.799  12.087
94665W        W62883  39.816  10.655  14.411
94666W        W62884  34.964   1.190   0.407
94667W        W62885  36.085  41.998   0.722
94668W        W62886  31.034  24.442   4.119
94669W        W62887  38.834  43.113  13.011
94670W        W62888   7.287   1.827  13.424
94671W        W62889  39.266  38.940   1.298
94672W        W62890   0.768   5.801   2.805
94673W        W62891   3.326  31.099  13.627
94674W        W62892  20.410  17.667  11.439
94675W        W62893  28.433   4.622  12.682
94676W        W62894   7.955   7.335   3.431
94677W        W62895  23.273  15.879   1.155
94678W        W62896  34.884   3.659  14.977
94679W        W62897   1.262  14.293  12.479
94680W        W62898  18.157   6.301   0.409
94681W        W62899  17.568  40.846  12.174
94682W        W62900   6.678  16.164   4.579
94683W        W62901  42.459  18.990  14.386
94684W        W62902  22.074   1.844   0.184
94685W        W62903  31.529  22.971   3.333
94686W        W62904  26.655   6.843   3.657
94687W        W62905  24.933  43.060  14.948
94688W        W62906   2.251  15.170   1.192
94689W        W62907  26.019  37.475   2.115
94690W        W62908  19.137  34.829  13.323
94691W        W62909  28.584   9.645   2.633
94692W        W62910  33.707  22.225   2.704
94693W        W62911  13.918  15.019   3.100
94694W        W62912  37.098  17.544  14.324
94695W        W62913   1.508  10.716   0.400
94696W        W62914  44.037  21.686   3.756
94697W        W62915  19.519  40.485  10.451
94698W        W62916  38.586   1.952   3.700
94699W        W62917  20.502  35.552   0.038
94700W        W62918  32.617  42.891   0.141
94701W        W62919   7.380  12.483  10.773
94702W        W62920  39.433  31.413  11.450
94703W        W62921  38.333  21.752  12.339
94704W        W62922   9.164   4.201   2.649
94705W        W62923  12.219  22.581   3.397
94706W        W62924  38.777  43.991  14.878
94707W        W62925  11.716  12.271  14.192
94708W        W62926  35.630   2.454   0.911
94709W        W62927   0.295  14.800   0.802
94710W        W62928  19.575  34.031   4.360
94711W        W62929  18.276  35.488   0.754
94712W        W62930  37.914  17.296  10.724
94713W        W62931  26.580  17.855  11.667
94714W        W62932  34.318  27.986   0.856
94715W        W62933  35.724  11.200  11.417
94716W        W62934  19.052  26.997   3.153
94717W        W62935  39.369  20.609  14.477
94718W        W62936  10.236  33.075  12.891
94719W        W62937  21.222  21.277   1.654
94720W        W62938  31.678  27.426   3.354
94721W        W62939  20.871  31.482  12.845
94722W        W62940  38.091  31.438   0.831
94723W        W62941   2.288  26.207  11.548
94724W        W62942  25.562   2.183   4.109
94725W        W62943  18.742  11.689   4.603
94726W        W62944   3.775  23.817   3.620
94727W        W62945  19.686   5.259  13.485
94728W        W62946  16.244  12.530  12.849
94729W        W62947  44.823  22.944   1.015
94730W        W62948  38.174  20.650  12.285
94731W        W62949  17.677  39.799  11.944
94732W        W62950  27.987  10.749   1.833
94733W        W62951  26.765  34.013  12.217
94734W        W62952   6.977   6.588   2.618
94735W        W62953  39.726  41.295  10.792
94736W        W62954   5.381  12.935  10.813
94737W        W62955   8.394   9.406   1.415
94738W        W62956   4.288  36.878  12.181
94739W        W62957  18.770  24.064   1.765
94740W        W62958  12.805  28.843  14.291
94741W        W62959  17.758  41.944   1.924
94742W        W62960  18.812  31.457   1.909
94743W        W62961   9.419  38.543   0.914
94744W        W62962  35.536  15.009  10.697
94745W        W62963  37.046  26.930   3.166
94746W        W62964   3.780  19.613  14.189
94747W        W62965  30.290   3.013   4.521
94748W        W62966   2.384  23.280  11.166
94749W        W62967  17.607   0.562   0.479
94750W        W62968  28.329  13.709  12.411
94751W        W62969  35.035   3.412  14.542
94752W        W62970  13.717  19.816  13.290
94753W        W62971  10.053  34.429   2.576
94754W        W62972  10.170  33.061   0.847
94755W        W62973  19.668   2.890   0.870
94756W        W62974   2.296  27.355  13.336
94757W        W62975  27.904  24.889   0.160
94758W        W62976  35.449  25.189  11.615
94759W        W62977  43.199   6.207   3.136
94760W        W62978  12.203   1.988   3.822
94761W        W62979  34.604  15.627  13.588
94762W        W62980   6.220  17.570   9.845
94763W        W62981  17.119  33.371   1.818
94764W        W62982  17.690  24.987  12.517
94765W        W62983  38.308   4.371  13.030
94766W        W62984   8.298  22.261   3.795
94767W        W62985  27.823  28.486   3.827
94768W        W62986  23.553   1.696  13.366
94769W        W62987  26.960  17.299  14.968
94770W        W62988  14.155  10.237   1.295
94771W        W62989  37.521   7.590  14.557
94772W        W62990   5.791  33.061  12.667
94773W        W62991  12.601  10.896   1.869
94774W        W62992  22.593  43.207   2.432
94775W        W62993  25.260  27.563   1.161
94776W        W62994   6.440  29.047   3.264
94777W        W62995  31.487  16.019  11.040
94778W        W62996  13.658  25.625   1.685
94779W        W62997   4.173   2.795   2.789
94780W        W62998  43.520  29.383  14.359
94781W        W62999  29.771  32.628  11.750
94782W        W63000   1.394  37.808   4.681
94783W        W63001  31.884  17.184  10.814
94784W        W63002  19.232  35.475   0.175
94785W        W63003  28.273  37.185   5.041
94786W        W63004  22.939  34.445  12.899
94787W        W63005  31.839  15.704   0.291
94788W        W63006   6.865  40.767  14.957
94789W        W63007  43.900  42.484   4.147
94790W        W63008  20.924  37.333  14.816
94791W        W63009  35.665  41.831   3.217
94792W        W63010  22.366  34.062   4.343
94793W        W63011  12.610   7.968  14.148
94794W        W63012  37.261  10.127   3.185
94795W        W63013   6.353  28.425  12.640
94796W        W63014  23.738  16.725   1.374
94797W        W63015  18.067  33.966   5.528
94798W        W63016  28.114   7.995  14.514
94799W        W63017  13.737  30.790  11.570
94800W        W63018  40.101  11.360  11.941
94801W        W63019   8.612  26.146  12.651
94802W        W63020   2.097  18.456   3.236
94803W        W63021  20.684  18.725  12.083
94804W        W63022   7.586  23.930  12.032
94805W        W63023  17.126  27.108  12.975
94806W        W63024  15.500  17.952  11.451
94807W        W63025  26.447  31.228   2.607
94808W        W63026  43.944  20.285   4.228
94809W        W63027  44.525  20.135   1.888
94810W        W63028  13.027  34.006  11.878
94811W        W63029   1.711  11.154   3.617
94812W        W63030  33.324  42.800   4.324
94813W        W63031   6.423  15.379   3.169
94814W        W63032  32.584  34.523   0.426
94815W        W63033   3.279  37.144  14.758
94816W        W63034  21.142   5.671  11.060
94817W        W63035  27.747   9.344   0.745
94818W        W63036  29.994  13.538   4.493
94819W        W63037  35.788  12.255  12.048
94820W        W63038  19.488  44.965  12.010
94821W        W63039   3.833  15.194   0.805
94822W        W63040   8.197  10.257  13.820
94823W        W63041   2.957  25.915   2.370
94824W        W63042   9.057  44.894   4.596
94825W        W63043  25.435  29.015   4.583
94826W        W63044  15.759  29.888  14.918
94827W        W63045   5.306  18.606  11.614
94828W        W63046  10.068  15.741   5.020
94829W        W63047  35.497   8.140  10.468
94830W        W63048  32.603  11.118  12.333
94831W        W63049  15.183   4.959  12.856
94832W        W63050  11.124  40.995   4.175
94833W        W63051  26.603  13.434  11.425
94834W        W63052  25.012   3.763   2.173
94835W        W63053  28.923   0.699  13.354
94836W        W63054  32.972  42.193   0.794
94837W        W63055  11.342  39.071   4.468
94838W        W63056  41.542  25.523  11.163
94839W        W63057  15.261  15.498  13.352
94840W        W63058  36.655  15.215  13.042
94841W        W63059  27.622  44.421   3.093
94842W        W63060   9.944   1.393  13.031
94843W        W63061  21.232   9.357   3.369
94844W        W63062  31.576  42.220   3.227
94845W        W63063  12.082  19.110   3.843
94846W        W63064  15.840  18.585  12.886
94847W        W63065   7.017   8.445  14.999
94848W        W63066  39.955  29.455   1.648
94849W        W63067   5.440  35.394   4.252
94850W        W63068  28.541  10.260  10.225
94851W        W63069   3.571  42.402  10.576
94852W        W63070  13.137  42.542   1.777
94853W        W63071  30.185   1.366   0.846
94854W        W63072   4.941  22.526   2.702
94855W        W63073  29.952   4.209  12.392
94856W        W63074  44.340  22.661  10.741
94857W        W63075  13.426  15.173   3.025
94858W        W63076  15.110  42.974   9.610
94859W        W63077  17.504  31.941   2.857
94860W        W63078  11.081  27.301  12.464
94861W        W63079  41.564  21.157   4.322
94862W        W63080  15.892  41.424   0.693
94863W        W63081   3.788  14.649   0.023
94864W        W63082  31.162  23.685   4.527
94865W        W63083  42.144  18.529   0.988
94866W        W63084  33.560   4.909   2.339
94867W        W63085  40.942   8.891  14.405
94868W        W63086   8.646  21.503  13.984
94869W        W63087  21.003  36.847  11.288
94870W        W63088  19.897   7.257  11.555
94871W        W63089   9.859  23.489  12.559
94872W        W63090  36.533   0.306  10.241
94873W        W63091  44.382  31.353  11.563
94874W        W63092  15.058   2.639  13.465
94875W        W63093  41.626  11.085  12.079
94876W        W63094  20.162   8.249  11.926
94877W        W63095  36.350  26.507   4.965
94878W        W63096  10.338  22.518  10.696
94879W        W63097  24.079  33.658  11.815
94880W        W63098  28.191  15.786  12.931
94881W        W63099  22.667  11.680   3.637
94882W        W63100  41.500  39.690   3.445
94883W        W63101  30.051  17.609   0.744
94884W        W63102  31.913  11.749   4.085
94885W        W63103  27.016  37.474  12.803
94886W        W63104  13.846  30.117  14.828
94887W        W63105  10.559   1.764  11.545
94888W        W63106  40.534  23.994  12.537
94889W        W63107  42.799   9.086   4.605
94890W        W63108  31.406   5.265   3.755
94891W        W63109  38.614  33.338   0.647
94892W        W63110  36.433  34.939  12.147
94893W        W63111  16.568   6.355  11.078
94894W        W63112  33.450  37.753  13.296
94895W        W63113  33.833  44.905   0.290
94896W        W63114  37.483  29.646  10.811
94897W        W63115  27.555  19.482   0.292
94898W        W63116  23.588  43.474   2.708
94899W        W63117  36.408  30.521  14.750
94900W        W63118  36.390  38.432   2.218
94901W        W63119  10.790  24.570  10.913
94902W        W63120  10.103   3.615  12.480
94903W        W63121  10.371  30.348  12.032
94904W        W63122   3.528  28.197  14.282
94905W        W63123   1.346  21.544   0.499
94906W        W63124  36.172  19.582   2.836
94907W        W63125  17.641  29.971   0.646
94908W        W63126  37.046  13.730   4.859
94909W        W63127  39.207   0.173   4.642
94910W        W63128  36.573   6.345   1.638
94911W        W63129  37.819  21.300  13.045
94912W        W63130  12.713  18.532   3.971
94913W        W63131   1.923   1.284  10.677
94914W        W63132   9.286  24.389  11.103
94915W        W63133  12.717  38.509  11.597
94916W        W63134   1.225  25.985   3.176
94917W        W63135  28.823   7.270  12.042
94918W        W63136   1.305  41.351  12.829
94919W        W63137  24.796  22.482   0.723
94920W        W63138  44.088  36.456  14.266
94921W        W63139  29.696  27.192  12.513
94922W        W63140  31.775  10.526  11.236
94923W        W63141   4.822  39.729   2.315
94924W        W63142  22.168  25.074   4.616
94925W        W63143  28.942  32.406   0.350
94926W        W63144  24.011  33.331   4.316
94927W        W63145  12.152   9.005   0.779
94928W        W63146  43.261  22.532   3.931
94929W        W63147  42.619  38.506  10.480
94930W        W63148  20.321  18.125  13.867
94931W        W63149  39.384  31.050  12.798
94932W        W63150  36.989  40.416   1.211
94933W        W63151  17.237  40.760   1.174
94934W        W63152   4.100   2.971  14.843
94935W        W63153  13.203  31.932  11.642
94936W        W63154   5.916  11.463  13.291
94937W        W63155  38.338  29.100   0.963
94938W        W63156  18.359   9.839   2.263
94939W        W63157   3.838  17.728   4.023
94940W        W63158  38.816  39.389  14.515
94941W        W63159  35.938  40.598  12.946
94942W        W63160  36.164   4.933  13.431
94943W        W63161  38.536   0.156   4.051
94944W        W63162   2.381  29.012   3.200
94945W        W63163  20.144  28.073   3.116
94946W        W63164   0.963  22.374   2.553
94947W        W63165  16.127   8.646   1.014
94948W        W63166  12.891  10.314   4.566
94949W        W63167  23.229  15.375  14.246
94950W        W63168  22.820  11.635   1.663
94951W        W63169  38.798  18.770  11.126
94952W        W63170  15.078  14.929  10.567
94953W        W63171  10.093  24.244   2.649
94954W        W63172   1.304   9.925   2.252
94955W        W63173  41.943  44.003  12.485
94956W        W63174  31.907  25.542   4.253
94957W        W63175  31.633  39.809   2.225
94958W        W63176  26.695   1.935   0.241
94959W        W63177   9.164  12.849  14.986
94960W        W63178  19.681   3.148   0.414
94961W        W63179  15.573   1.974  13.884
94962W        W63180   4.017  35.292   2.700
94963W        W63181  14.761  28.006  10.673
94964W        W63182  28.733  44.431   1.294
94965W        W63183  42.030  37.808   1.599
94966W        W63184  14.226   5.266  11.603
94967W        W63185   8.799  20.806  10.595
94968W        W63186  29.185   8.766   1.217
94969W        W63187  27.699   3.422   1.353
94970W        W63188   3.320  25.914  14.029
94971W        W63189  44.890  16.266   0.536
94972W        W63190  40.954  22.481  13.626
94973W        W63191  13.136  16.949   2.685
94974W        W63192  33.876  11.359   3.155
94975W        W63193  31.134   2.281  12.248
94976W        W63194  17.317   3.656   2.302
94977W        W63195   8.687  10.450  14.031
94978W        W63196  15.254  17.504   1.229
94979W        W63197   9.822   1.273   1.432
94980W        W63198  35.015  27.154   0.530
94981W        W63199  35.830  31.940  10.449
94982W        W63200  41.212  27.112   4.578
94983W        W63201  22.694  33.401  10.230
94984W        W63202  41.308  16.359  12.319
94985W        W63203  23.104   4.765  13.815
94986W        W63204  32.934  19.135   0.671
94987W        W63205  19.301  30.010  14.975
94988W        W63206  20.713  18.275  13.570
94989W        W63207  24.176   9.233   2.237
94990W        W63208   4.773  30.496   5.034
94991W        W63209  19.552  43.727  13.818
94992W        W63210   4.759  29.242   5.045
94993W        W63211  11.780  37.085  14.017
94994W        W63212  36.758  16.115   0.191
94995W        W63213   1.647   5.353  10.646
94996W        W63214  23.123  33.568  12.228
94997W        W63215  10.109  33.341  11.170
94998W        W63216  44.859  10.298  11.329
94999W        W63217  18.185  37.151  11.118
95000W        W63218  14.643  35.584  10.606
95001W        W63219   9.898  18.297  11.607
95002W        W63220  17.685  10.270  12.432
95003W        W63221   1.670  10.245   0.287
95004W        W63222   4.783   3.253   2.207
95005W        W63223  15.521  19.674   1.116
95006W        W63224   3.788  32.814  12.494
95007W        W63225  25.631  27.065  12.613
95008W        W63226  27.106  20.544  14.242
95009W        W63227  23.235   0.497  11.138
95010W        W63228  30.465  41.583   4.159
95011W        W63229  19.025  10.690  11.104
95012W        W63230   1.835  17.881   1.160
95013W        W63231  29.973  19.335   2.557
95014W        W63232  21.013  27.454  13.380
95015W        W63233  34.072   9.136  11.923
95016W        W63234  34.181  31.428   1.385
95017W        W63235  42.937  28.082  14.359
95018W        W63236  15.290   8.276   3.699
95019W        W63237  10.595  37.376  13.793
95020W        W63238   8.244  15.241   1.821
95021W        W63239  37.560  18.572  12.270
95022W        W63240  28.516  33.159   1.830
95023W        W63241  27.196  28.353  12.915
95024W        W63242   1.966  20.502  12.757
95025W        W63243  12.927  17.865  14.077
95026W        W63244  31.957   8.412   4.322
95027W        W63245   6.372  17.033  12.022
95028W        W63246  38.901  39.379   4.371
95029W        W63247  32.016  11.956  14.674
95030W        W63248   2.984  39.923   2.755
95031W        W63249  12.932  40.556  14.517
95032W        W63250  11.669  39.294  14.408
95033W        W63251  32.552  41.293   4.239
95034W        W63252  21.639  24.980   0.436
95035W        W63253  31.446   7.322  14.269
95036W        W63254  35.251  38.945   1.539
95037W        W63255  41.355  30.496  14.992
95038W        W63256   3.517   6.392  13.942
95039W        W63257   0.933   2.761   4.460
95040W        W63258   9.765  27.658  10.571
95041W        W63259  37.962  23.979  12.178
95042W        W63260  29.027   7.757   4.749
95043W        W63261   3.660  11.049   2.664
95044W        W63262  20.809   2.350   0.356
95045W        W63263   1.183   1.267  11.970
95046W        W63264  43.386  32.458   3.259
95047W        W63265  15.768  27.264  12.073
95048W        W63266   8.817  13.101   3.757
95049W        W63267  20.607  44.988  14.949
95050W        W63268   9.853  12.679  14.456
95051W        W63269  23.068  29.225  13.488
95052W        W63270   6.307  33.718   2.863
95053W        W63271  43.296  42.084  11.492
95054W        W63272  36.485  31.506  12.490
95055W        W63273  28.874   4.978  13.326
95056W        W63274  14.638  39.327  11.690
95057W        W63275  37.952   4.321  12.102
95058W        W63276  28.542  20.068  14.806
95059W        W63277   6.790   4.358   2.794
95060W        W63278   3.702  17.303  13.753
95061W        W63279  24.056  22.062   4.610
95062W        W63280  12.251  25.421  12.222
95063W        W63281  39.079   6.951   4.357
95064W        W63282  20.868  15.520  13.456
95065W        W63283  44.762  33.033   2.309
95066W        W63284  34.902  40.856  11.129
95067W        W63285   0.789   6.181  13.074
95068W        W63286  23.119  13.107   4.098
95069W        W63287  20.071  35.144   1.437
95070W        W63288  23.517  18.649  11.109
95071W        W63289  11.120  41.818  12.592
95072W        W63290  31.482  32.672   1.663
95073W        W63291  23.715  16.422  12.041
95074W        W63292   3.217   2.504  12.090
95075W        W63293  20.490  31.965   2.880
95076W        W63294  26.593  13.763   4.648
95077W        W63295  36.641   0.310   2.626
95078W        W63296  11.441  44.256   3.790
95079W        W63297   1.790  36.049  14.747
95080W        W63298  16.208   1.681   1.855
95081W        W63299  38.345  21.476   1.974
95082W        W63300  40.318  24.512   1.643
95083W        W63301  38.521   9.900   4.771
95084W        W63302   8.117  32.595   4.302
95085W        W63303  31.984  24.536   1.692
95086W        W63304  11.325  43.513  12.446
95087W        W63305  39.141  18.692  12.610
95088W        W63306  19.481   4.753   1.346
95089W        W63307  27.939  40.332  13.483
95090W        W63308   3.936  26.571  12.395
95091W        W63309   7.365  28.662  12.018
95092W        W63310  35.568  17.047   0.387
95093W        W63311  27.473   7.329   3.717
95094W        W63312  41.401  11.165  14.917
95095W        W63313  39.310  16.941  10.720
95096W        W63314   7.496  27.676  10.767
95097W        W63315  16.064   1.450   1.384
95098W        W63316  13.260  30.214   1.243
95099W        W63317  14.549  26.245  12.455
95100W        W63318   1.831  10.104  12.314
95101W        W63319   3.915  41.535  11.470
95102W        W63320  18.776  33.683  12.061
95103W        W63321   7.316  11.782  14.239
95104W        W63322  10.752  32.587   3.495
95105W        W63323  41.923   2.204  10.337
95106W        W63324   4.433  35.348   1.413
95107W        W63325   4.730  24.931  11.986
95108W        W63326  24.009  28.772  13.909
95109W        W63327  18.082  40.897  10.948
95110W        W63328  42.734   4.740  14.336
95111W        W63329  13.089  32.447  13.892
95112W        W63330  20.180   5.992  12.420
95113W        W63331   9.899   1.614   1.856
95114W        W63332   5.898  34.850  13.331
95115W        W63333  19.748  12.108   4.431
95116W        W63334  36.003  35.253   3.641
95117W        W63335  20.266  10.628  12.531
95118W        W63336  18.078  39.083  14.333
95119W        W63337  37.325  44.196   4.272
95120W        W63338  34.875  10.423  13.773
95121W        W63339   6.465   8.538   0.785
95122W        W63340   6.214  28.223   1.286
95123W        W63341   5.126  22.585  12.917
95124W        W63342   1.227  42.303   4.372
95125W        W63343  14.186   0.976  13.295
95126W        W63344  27.968  43.716  12.926
95127W        W63345  28.926  27.278  12.890
95128W        W63346   6.751  39.496  10.176
95129W        W63347  26.986  27.173  11.133
95130W        W63348  24.212   5.907  10.390
95131W        W63349   1.273  40.546  12.812
95132W        W63350  29.080  33.475  11.632
95133W        W63351  30.892  10.654  13.909
95134W        W63352   1.878  36.350  11.657
95135W        W63353  16.605  13.337   1.411
95136W        W63354  23.686  33.355  12.082
95137W        W63355  16.283  33.878  13.920
95138W        W63356  37.461  22.749  12.274
95139W        W63357  24.215  11.332   2.053
95140W        W63358  39.988   4.750  11.082
95141W        W63359  44.238  38.511  11.604
95142W        W63360  30.603  35.845   4.952
95143W        W63361  44.805  34.375  12.402
95144W        W63362  19.438   0.800   1.286
95145W        W63363   9.835   5.377   2.212
95146W        W63364   5.696  31.621  11.462
95147W        W63365  32.101   4.945   0.937
95148W        W63366   2.720  12.735  11.519
95149W        W63367   5.765  21.047   1.897
95150W        W63368  11.526  33.393   1.368
95151W        W63369  39.558  32.237  13.621
95152W        W63370  26.038  30.374   3.861
95153W        W63371  16.683  15.893  11.066
95154W        W63372  40.771  40.462   0.974
95155W        W63373  24.556  13.836  10.675
95156W        W63374   6.313  38.237  14.864
95157W        W63375  14.639  19.715   2.675
95158W        W63376   3.449  22.201  14.335
95159W        W63377  24.485  21.684   1.917
95160W        W63378  29.585  41.567   1.754
95161W        W63379  25.554  38.652  11.031
95162W        W63380  29.733  42.979   1.913
95163W        W63381  18.067  33.167  14.275
95164W        W63382  21.317  37.835   5.768
95165W        W63383  12.407  22.320   1.475
95166W        W63384  42.009  28.924   2.417
95167W        W63385  28.137  25.090   1.134
95168W        W63386  30.723  21.080  14.944
95169W        W63387   1.071   0.635  10.968
95170W        W63388  15.487  42.870   3.800
95171W        W63389  26.671  18.790   1.007
95172W        W63390  25.486  41.238   5.144
95173W        W63391  39.492  32.333  12.501
95174W        W63392  38.801   4.867  14.516
95175W        W63393  41.293  13.205   2.291
95176W        W63394  25.047  37.325  13.850
95177W        W63395  23.921  19.281   2.189
95178W        W63396  18.718  20.787   0.362
95179W        W63397  31.286   1.465  13.927
95180W        W63398  34.007  10.723  10.945
95181W        W63399  24.628   6.621   4.670
95182W        W63400   7.130  39.491  14.525
95183W        W63401   6.923  15.607  13.496
95184W        W63402  40.400  35.853  14.369
95185W        W63403  41.872  14.203  11.799
95186W        W63404   0.227   2.698   1.150
95187W        W63405  27.124  42.870   4.448
95188W        W63406  34.234  36.121  12.474
95189W        W63407   0.904   3.701   2.343
95190W        W63408  35.840  32.565   3.139
95191W        W63409  39.430  12.229   1.303
95192W        W63410  33.289  33.515  12.341
95193W        W63411  42.566  37.104   3.851
95194W        W63412  12.925  15.744   0.903
95195W        W63413  28.940  18.375   2.283
95196W        W63414  28.543   2.840   4.163
95197W        W63415  41.304  11.582  13.373
95198W        W63416  17.940   7.973  13.308
95199W        W63417   2.575   7.510   0.360
95200W        W63418  30.128  12.696   2.101
95201W        W63419  38.950  33.600  12.097
95202W        W63420  15.672  29.677   1.297
95203W        W63421  27.605  12.962  10.455
95204W        W63422  34.730  41.318  13.087
95205W        W63423  24.028   1.654  11.424
95206W        W63424  24.402  38.330   3.720
95207W        W63425   3.878  20.996   0.933
95208W        W63426  17.301   0.876  12.393
95209W        W63427   7.971  27.962  14.373
95210W        W63428   2.913  11.818  11.379
95211W        W63429  16.881  16.518   1.856
95212W        W63430  37.426  37.047   3.958
95213W        W63431  21.135   6.321  13.627
95214W        W63432  11.311  16.620   3.028
95215W        W63433   4.483  35.055   0.951
95216W        W63434  34.226  38.032  14.459
95217W        W63435   1.538  42.913   0.109
95218W        W63436   1.066  39.905  12.440
95219W        W63437  17.590  44.273  14.872
95220W        W63438  41.861   7.275   9.900
95221W        W63439  41.504   2.778   2.770
95222W        W63440   4.835   3.792  13.440
95223W        W63441   1.210  40.778   1.259
95224W        W63442  28.870   2.043  14.239
95225W        W63443  25.972   0.006  14.337
95226W        W63444  30.502   4.258   0.927
95227W        W63445   9.100   0.911   0.555
95228W        W63446  36.930  17.595   4.142
95229W        W63447   7.855  15.284  14.126
95230W        W63448  22.760   5.438  11.948
95231W        W63449  35.425  29.920  14.488
95232W        W63450  14.975  41.437  13.514
95233W        W63451   1.468  37.362  11.872
95234W        W63452  43.807  44.586   4.696
95235W        W63453  25.625   0.258   1.352
95236W        W63454  22.977   6.170  12.487
95237W        W63455  28.297  10.721  10.342
95238W        W63456  31.669  10.593   3.478
95239W        W63457  42.926  17.233   4.674
95240W        W63458  18.749  16.781   1.753
95241W        W63459  17.591   2.835   2.469
95242W        W63460  23.086   7.939  11.511
95243W        W63461  32.365  19.023   2.755
95244W        W63462   2.231  14.156   4.525
95245W        W63463   1.001  26.299  14.504
95246W        W63464   8.849  19.081  11.190
95247W        W63465  27.131  37.225  13.228
95248W        W63466  30.132  30.587   0.468
95249W        W63467  30.012   2.869  12.306
95250W        W63468  20.227   3.822  12.874
95251W        W63469  11.220  29.174   0.251
95252W        W63470  44.485  42.742  14.992
95253W        W63471  25.057   1.340  10.782
95254W        W63472  41.411  38.497   2.451
95255W        W63473   0.253  12.456   2.820
95256W        W63474  28.230  13.748   2.647
95257W        W63475  37.513  19.309   2.779
95258W        W63476  19.497  36.836   1.820
95259W        W63477  25.687  16.214   2.620
95260W        W63478  41.391  28.225  10.681
95261W        W63479  17.762   1.758   3.206
95262W        W63480  44.276  28.630  13.444
95263W        W63481  35.049  33.572  12.053
95264W        W63482  28.408  25.256  11.029
95265W        W63483   4.316  35.894  12.165
95266W        W63484  18.594  33.652   0.718
95267W        W63485  34.459  27.490   0.755
95268W        W63486   5.978  29.481  10.599
95269W        W63487  29.696  12.167   4.478
95270W        W63488   1.973   9.530   1.286
95271W        W63489  26.285   5.940   0.433
95272W        W63490  24.993   8.665   4.836
95273W        W63491  11.849  22.945   1.294
95274W        W63492  35.503   1.683   4.878
95275W        W63493  29.197  16.943  12.929
95276W        W63494  20.156  27.500  11.070
95277W        W63495   2.936  16.181  13.403
95278W        W63496  37.810  32.865   1.361
95279W        W63497  28.979  13.316   3.500
95280W        W63498   5.903  35.910  13.393
95281W        W63499   9.183   5.503   3.552
95282W        W63500  35.409  36.134  10.977
95283W        W63501  41.268  29.702   0.334
95284W        W63502  32.182  33.654   0.871
95285W        W63503  44.360  41.242  11.615
95286W        W63504  34.514  21.535  12.200
95287W        W63505  44.760  14.641   2.276
95288W        W63506  15.778  21.665   2.600
95289W        W63507  31.638  28.017   1.689
95290W        W63508   7.829  39.584  14.929
95291W        W63509  19.464   1.560  11.569
95292W        W63510   6.413  29.563   1.713
95293W        W63511  32.940  37.133   0.452
95294W        W63512   5.693  24.769   2.598
95295W        W63513  44.150   1.844  10.270
95296W        W63514  31.638  18.148  14.848
95297W        W63515  24.954  28.105  14.745
95298W        W63516  40.842  39.349   2.456
95299W        W63517   8.628  31.013   4.275
95300W        W63518  14.698  36.336   4.298
95301W        W63519  34.598  36.127  11.293
95302W        W63520  33.457  20.683   1.725
95303W        W63521   8.393  27.963  12.677
95304W        W63522   9.345  40.850  12.861
95305W        W63523  22.085  34.336  11.970
95306W        W63524   4.005   7.735   4.357
95307W        W63525   9.814  19.854   4.122
95308W        W63526  29.911  11.505  11.608
95309W        W63527  37.467  44.797  14.244
95310W        W63528   5.976  26.855   4.415
95311W        W63529  22.497  34.190   3.347
95312W        W63530   6.117   2.373   2.210
95313W        W63531  34.087  16.080   4.183
95314W        W63532  32.524   0.000  13.923
95315W        W63533  27.930   6.766  14.036
95316W        W63534  38.305  24.658   1.666
95317W        W63535  34.430  33.555   1.451
95318W        W63536  13.977  34.632   4.289
95319W        W63537   9.368   5.359  14.013
95320W        W63538  12.411  20.734  11.004
95321W        W63539  35.204   5.206   0.962
95322W        W63540  31.998  29.675  12.903
95323W        W63541  30.633   5.962  13.449
95324W        W63542  25.995  36.075  12.380
95325W        W63543  40.654  20.190  12.433
95326W        W63544  14.808  39.852  13.971
95327W        W63545  43.433  27.706  10.602
95328W        W63546  43.308  40.343  12.806
95329W        W63547  19.198  13.270   1.232
95330W        W63548  33.219  21.817   4.188
95331W        W63549  31.991   9.426   1.199
95332W        W63550  13.598  35.464   0.263
95333W        W63551  25.495  36.033   3.642
95334W        W63552  43.256  27.641  12.102
95335W        W63553  32.821   4.356   0.743
95336W        W63554  29.877  39.951   1.867
95337W        W63555   6.603  21.450  13.959
95338W        W63556  33.001  32.863   0.850
95339W        W63557  11.166   1.862  12.374
95340W        W63558  17.756  33.773   4.391
95341W        W63559  37.402   7.302  10.465
95342W        W63560   3.409  44.059   3.477
95343W        W63561  18.211  37.398  10.657
95344W        W63562   2.255   4.830   4.940
95345W        W63563  20.667   1.669  13.384
95346W        W63564   3.531  26.612   2.302
95347W        W63565  12.111   2.460   2.784
95348W        W63566  38.349   7.848   2.018
95349W        W63567   5.356  42.827  13.538
95350W        W63568  41.297  42.620   3.672
95351W        W63569   1.307  20.972  12.357
95352W        W63570  38.069  13.760   3.324
95353W        W63571  25.124  24.343   1.533
95354W        W63572   2.432  44.051   2.599
95355W        W63573  36.405  35.027  13.538
95356W        W63574  19.669   3.127  11.661
95357W        W63575  39.460   9.933   2.784
95358W        W63576   9.074   3.876  11.440
95359W        W63577  25.878  16.901  14.256
95360W        W63578  37.963  28.534   2.715
95361W        W63579   3.451   3.965   5.029
95362W        W63580   6.749  11.393  11.180
95363W        W63581  40.374   3.430  14.897
95364W        W63582  26.571  19.933  13.124
95365W        W63583  12.220   5.381  13.319
95366W        W63584  21.135  21.480  14.128
95367W        W63585  31.133  33.319  13.392
95368W        W63586  25.669  35.095   0.798
95369W        W63587  20.072  31.056  12.855
95370W        W63588  18.554  31.078  10.957
95371W        W63589  32.722  10.194  11.905
95372W        W63590  29.317  20.209   0.231
95373W        W63591  26.120  14.535  13.536
95374W        W63592  13.877  23.974  11.385
95375W        W63593  30.689  27.594  11.135
95376W        W63594  33.402  39.140  12.422
95377W        W63595  12.561  39.341  12.577
95378W        W63596  35.654   0.662  14.028
95379W        W63597   5.982  13.165   4.723
95380W        W63598  36.992  16.985  12.925
95381W        W63599  12.708  29.001   0.341
95382W        W63600  20.246  12.407  14.933
95383W        W63601  36.462   9.653   2.396
95384W        W63602  20.273  44.039  12.141
95385W        W63603  13.232  29.647   1.297
95386W        W63604  10.836  23.244   3.734
95387W        W63605  38.931  43.292  11.512
95388W        W63606  30.246  22.012   3.660
95389W        W63607  21.500  21.687  11.336
95390W        W63608  28.671  42.096   1.797
95391W        W63609  14.489   6.080   4.940
95392W        W63610  41.586  28.467   3.256
95393W        W63611   4.713  15.481  10.783
95394W        W63612  24.334  17.024   4.674
95395W        W63613  13.028  42.905   0.981
95396W        W63614  18.087  39.820  12.818
95397W        W63615  17.023  38.452  11.494
95398W        W63616   2.829  42.989  14.706
95399W        W63617  15.671   3.014  14.835
95400W        W63618  38.221  17.632  11.925
95401W        W63619  16.094   1.507  10.351
95402W        W63620  18.008  32.151  13.130
95403W        W63621   0.294   8.303   1.352
95404W        W63622  13.851  43.174   3.282
95405W        W63623  44.638  28.986  14.227
95406W        W63624  19.994  15.859   3.697
95407W        W63625  26.607   0.086  14.800
95408W        W63626  35.312  26.214   4.261
95409W        W63627  31.445  22.991   3.870
95410W        W63628   9.083   2.276   1.708
95411W        W63629  40.528  18.642  11.426
95412W        W63630  35.513  17.219   1.903
95413W        W63631  38.862  19.928   1.209
95414W        W63632  19.235  14.336  12.453
95415W        W63633  32.937  14.086  14.884
95416W        W63634  12.074  18.349   2.357
95417W        W63635  19.189  15.634  12.013
95418W        W63636  39.873  35.560   3.032
95419W        W63637  15.739  37.785   1.767
95420W        W63638  30.994  28.259   2.746
95421W        W63639  16.527  19.473   2.873
95422W        W63640   9.807  12.088  12.870
95423W        W63641  37.325  24.747   2.904
95424W        W63642  16.212  36.230   3.763
95425W        W63643  10.096  27.550   2.633
95426W        W63644  44.952  12.221  13.494
95427W        W63645  33.873  44.696  13.341
95428W        W63646  15.182   0.803  14.525
95429W        W63647   7.793  43.903  10.859
95430W        W63648  29.927  35.387   2.376
95431W        W63649   0.611  19.026  14.793
95432W        W63650   9.944  27.175   4.101
95433W        W63651  19.210  13.686  14.456
95434W        W63652   0.776  29.512  13.656
95435W        W63653  13.872  44.621  11.976
95436W        W63654   4.872  22.518  14.018
95437W        W63655  19.100   6.929  12.810
95438W        W63656  28.699  11.331   1.842
95439W        W63657  17.801   4.795   2.781
95440W        W63658  31.338   2.533   5.395
95441W        W63659  28.571  16.891   2.854
95442W        W63660  14.798  41.554   2.772
95443W        W63661  36.369  28.103   3.834
95444W        W63662   3.266   3.464  10.317
95445W        W63663  20.128  25.119  14.767
95446W        W63664  13.650   6.596   0.537
95447W        W63665   5.195  23.057   4.706
95448W        W63666  38.967  23.146   0.087
95449W        W63667  30.541  21.997  11.036
95450W        W63668  24.524  11.329  11.545
95451W        W63669  35.136  28.829  10.341
95452W        W63670   7.913  34.571   4.124
95453W        W63671  18.011  13.991   3.550
95454W        W63672  25.026  42.830   0.405
95455W        W63673  21.590  14.115   1.731
95456W        W63674   2.529  10.633   4.205
95457W        W63675  22.201   1.446  10.994
95458W        W63676  25.599  21.501  12.791
95459W        W63677   7.796  22.440   3.719
95460W        W63678  30.288  20.565   3.502
95461W        W63679  36.519   3.182  10.752
95462W        W63680  29.951  42.297   1.374
95463W        W63681  16.794  20.057   3.072
95464W        W63682   1.294  37.342   0.283
95465W        W63683  13.039   3.752  11.124
95466W        W63684  16.763  34.122  14.823
95467W        W63685  32.872   3.455   2.728
95468W        W63686   3.845  32.139  11.080
95469W        W63687  44.476  29.986  13.472
95470W        W63688  16.151  13.116  14.236
95471W        W63689  18.723  13.744  13.337
95472W        W63690  16.037   0.752  12.424
95473W        W63691  25.287   4.117   0.416
95474W        W63692  35.031  25.729  12.391
95475W        W63693  20.298  14.489   5.445
95476W        W63694   7.220   9.591  10.833
95477W        W63695  31.383  24.146   4.368
95478W        W63696  23.716  41.543  13.963
95479W        W63697  20.630  17.134   0.355
95480W        W63698  40.412  34.705  11.697
95481W        W63699  35.079  17.804   0.288
95482W        W63700   6.389  18.235  13.829
95483W        W63701  39.047  10.195   0.484
95484W        W63702  44.572  27.625  14.262
95485W        W63703  38.148  12.105  10.821
95486W        W63704  14.185   9.868  13.941
95487W        W63705  31.628  26.950   0.637
95488W        W63706  29.450  26.587   3.706
95489W        W63707  24.206  33.900   1.926
95490W        W63708   6.748   7.181  11.598
95491W        W63709   0.881  20.817   4.504
95492W        W63710  43.583  42.165  12.650
95493W        W63711  11.906   3.928  13.520
95494W        W63712  13.706  41.059  11.160
95495W        W63713  15.221  31.653  14.838
95496W        W63714   6.133  33.459  13.418
95497W        W63715  22.962  15.819  12.192
95498W        W63716  41.471   2.022  10.564
95499W        W63717  14.796  12.841  12.978
95500W        W63718  36.493  17.875   4.280
95501W        W63719  11.097   7.446  13.433
95502W        W63720   4.267  11.039  14.106
95503W        W63721  22.039  21.023  13.846
95504W        W63722  35.419  34.422   2.960
95505W        W63723  36.792  22.022  12.587
95506W        W63724  28.663  26.197  13.324
95507W        W63725  23.027   4.363  12.906
95508W        W63726  22.707  22.182   1.636
95509W        W63727  33.884   3.203  14.885
95510W        W63728  32.908  29.651   0.772
95511W        W63729  34.072  17.742   4.523
95512W        W63730  21.700  18.258   2.066
95513W        W63731   7.040  35.778   1.925
95514W        W63732   4.593  27.270  14.548
95515W        W63733  17.144  27.626   3.515
95516W        W63734   8.697  36.070   4.647
95517W        W63735  17.978   1.726   1.876
95518W        W63736  16.213  36.349  14.479
95519W        W63737  28.911  24.240  12.102
95520W        W63738  28.045  38.597   0.826
95521W        W63739  11.436  37.762   2.901
95522W        W63740  27.253   4.782  13.977
95523W        W63741  20.677   6.444   4.096
95524W        W63742  33.013  38.084  11.994
95525W        W63743  27.105  36.079  13.942
95526W        W63744   5.743  29.443  13.114
95527W        W63745  22.537  11.262   2.858
95528W        W63746  42.744  40.713  13.586
95529W        W63747  39.448  28.031  10.222
95530W        W63748  32.842  22.918   3.343
95531W        W63749  33.372  23.479  14.879
95532W        W63750  29.737   6.617   5.019
95533W        W63751  25.144   1.929  12.484
95534W        W63752   2.162  23.567  13.358
95535W        W63753  26.912   5.208   1.086
95536W        W63754  21.912  27.008   4.129
95537W        W63755  12.691  22.249  11.908
95538W        W63756  25.199  37.923   0.678
95539W        W63757  32.006  38.200  13.013
95540W        W63758   6.227   0.650  14.764
95541W        W63759  16.735  20.774  13.474
95542W        W63760   2.392   9.734   0.322
95543W        W63761   6.905  22.703   3.488
95544W        W63762   3.294  41.908  11.682
95545W        W63763  14.522  27.527   4.494
95546W        W63764  28.904   8.227  13.026
95547W        W63765  11.119  33.682   2.108
95548W        W63766  40.813  16.244   3.902
95549W        W63767  38.515  41.205   3.224
95550W        W63768  33.403  19.509  14.847
95551W        W63769  21.586  29.599  12.775
95552W        W63770  27.562  12.807  12.530
95553W        W63771   3.216   3.754   0.786
95554W        W63772  20.439  13.087  12.513
95555W        W63773   0.921  21.882  13.900
95556W        W63774  38.018  22.164   3.833
95557W        W63775  32.238  29.509  14.768
95558W        W63776  35.438   1.577   2.428
95559W        W63777   8.751  31.146   1.845
95560W        W63778  20.637  31.059  13.991
95561W        W63779  17.231  20.584  12.028
95562W        W63780  21.897  22.137  14.931
95563W        W63781  21.679  18.535   0.227
95564W        W63782  24.230  38.542  12.474
95565W        W63783   3.211  37.577  13.895
95566W        W63784  21.029  34.543   2.661
95567W        W63785  27.510  26.667  12.158
95568W        W63786  34.847  34.621   3.381
95569W        W63787   4.648   6.429   4.640
95570W        W63788   2.931   5.838  13.405
95571W        W63789  13.052   8.952  14.541
95572W        W63790  13.772  37.381  11.074
95573W        W63791  38.488  11.707   2.762
95574W        W63792   6.265   8.999   3.577
95575W        W63793  36.864  40.514   2.820
95576W        W63794  12.213  13.535  14.109
95577W        W63795  44.427  14.848  14.718
95578W        W63796  24.879  22.911   4.335
95579W        W63797  33.881  12.812   4.327
95580W        W63798  16.740  21.768   4.385
95581W        W63799   9.855  40.925   2.248
95582W        W63800  18.685  27.596   0.422
95583W        W63801  19.063  10.208  14.346
95584W        W63802  30.751   5.706  14.338
95585W        W63803  15.520   2.697   1.586
95586W        W63804  15.786  20.080  12.722
95587W        W63805   0.935  40.278   4.669
95588W        W63806  25.124  27.155   3.247
95589W        W63807  39.070   9.285  14.017
95590W        W63808  20.136  35.638   1.312
95591W        W63809   2.484  23.621   3.822
95592W        W63810  26.031   6.481   3.133
95593W        W63811  25.521  36.138   2.204
95594W        W63812  32.642  21.639   0.258
95595W        W63813  18.703  42.581   0.108
95596W        W63814  38.592  12.751   1.208
95597W        W63815   0.183  16.223   1.397
95598W        W63816  29.451  30.863   3.771
95599W        W63817  38.058  21.338  12.551
95600W        W63818  13.156  41.023   4.603
95601W        W63819   1.088  32.477   0.686
95602W        W63820  38.394   4.832   2.757
95603W        W63821  16.808  36.787   1.252
95604W        W63822  14.545   0.361   4.942
95605W        W63823   1.818  26.904  13.024
95606W        W63824  31.587  34.656  11.958
95607W        W63825  32.901  31.650  14.294
95608W        W63826   7.913  19.629  11.851
95609W        W63827  34.733  23.545  12.678
95610W        W63828  39.342  37.319  14.621
95611W        W63829   1.249  28.242   3.907
95612W        W63830   1.579  42.327  11.440
95613W        W63831  15.258   8.223   4.599
95614W        W63832   1.969   6.825   0.640
95615W        W63833   1.285  21.453  12.212
95616W        W63834  31.360   2.789   0.565
95617W        W63835  37.331  29.018  13.988
95618W        W63836   1.510  15.689  14.183
95619W        W63837  33.498  26.597  11.462
95620W        W63838  19.756   0.937   3.635
95621W        W63839  39.878  23.196   4.248
95622W        W63840   2.048  33.954   4.281
95623W        W63841  42.318   0.400  10.641
95624W        W63842  42.911  24.040   0.027
95625W        W63843  36.711  26.721   2.256
95626W        W63844   3.493  17.080   4.586
95627W        W63845  15.819   9.908  10.820
95628W        W63846  21.156  23.853   1.276
95629W        W63847  43.199  33.398  14.456
95630W        W63848   8.830  11.699  10.788
95631W        W63849   0.925  35.474  13.111
95632W        W63850  27.158  23.247   0.458
95633W        W63851  29.612  39.426   1.048
95634W        W63852  42.295   6.163   0.779
95635W        W63853  10.835   2.794  14.389
95636W        W63854  43.456   1.236   0.015
95637W        W63855  31.991  43.442  11.723
95638W        W63856  29.760  31.163  11.073
95639W        W63857  36.658  38.431   3.221
95640W        W63858  33.555   3.747  13.456
95641W        W63859  39.971  28.659  12.480
95642W        W63860  13.044  25.074  10.666
95643W        W63861  17.307  39.949  11.045
95644W        W63862  32.936  39.649  11.153
95645W        W63863   5.284  18.123   3.568
95646W        W63864   4.217  21.565  12.047
95647W        W63865  17.606  14.266   3.763
95648W        W63866  32.659   8.459   2.710
95649W        W63867  23.665  35.011  11.187
95650W        W63868  43.582  15.326   2.238
95651W        W63869  40.807  32.368  11.141
95652W        W63870   9.015   1.222   2.713
95653W        W63871  33.647  32.651  11.542
95654W        W63872   1.858  16.860  12.050
95655W        W63873  11.643  32.110   0.837
95656W        W63874  41.934  13.140   1.445
95657W        W63875  35.391  31.398   2.984
95658W        W63876  32.368   0.501  12.083
95659W        W63877   2.048   5.030   0.892
95660W        W63878  36.502  11.622  12.788
95661W        W63879  34.355  13.641  13.869
95662W        W63880  40.840  40.372   3.362
95663W        W63881   4.125  11.813  13.611
95664W        W63882  22.338  29.058  13.029
95665W        W63883  22.159  34.664  14.893
95666W        W63884   9.000  17.307   0.403
95667W        W63885  10.203  30.147  12.504
95668W        W63886  24.141  43.910   3.311
95669W        W63887   4.338  23.911  14.378
95670W        W63888   9.877  36.610  11.693
95671W        W63889  12.672  44.932  14.186
95672W        W63890   6.185   4.396  12.019
95673W        W63891  22.737  19.159   3.175
95674W        W63892  32.883  17.278   3.873
95675W        W63893  14.677  43.844   2.062
95676W        W63894  25.463  32.867  13.022
95677W        W63895  14.761   3.751   3.753
95678W        W63896  20.254  26.654   1.742
95679W        W63897  10.830   1.589  11.133
95680W        W63898  21.723   9.839   2.819
95681W        W63899  17.574  16.327  12.424
95682W        W63900  34.818  42.259   0.237
95683W        W63901  13.097  15.175   3.686
95684W        W63902   5.058   5.949   0.653
95685W        W63903  40.772  41.866  11.294
95686W        W63904   1.942  25.028  13.900
95687W        W63905   7.885  29.229  12.013
95688W        W63906  39.597  44.526  13.492
95689W        W63907   6.741   4.372  13.811
95690W        W63908   5.437  21.967  13.460
95691W        W63909  21.678   1.378   2.341
95692W        W63910  32.153  34.649  12.902
95693W        W63911  18.035   0.253   0.842
95694W        W63912  24.623  14.835   1.216
95695W        W63913  13.819  43.278   9.842
95696W        W63914  28.216  29.369   4.593
95697W        W63915  22.434   2.344  10.297
95698W        W63916  12.063   0.498  10.638
95699W        W63917  12.862  19.093  13.413
95700W        W63918  25.510   1.861   0.251
95701W        W63919  14.771  14.153  12.310
95702W        W63920  33.990  27.247   2.355
95703W        W63921  27.730  29.126   2.276
95704W        W63922   1.430   9.841   4.549
95705W        W63923  35.211  12.186  12.932
95706W        W63924  28.204  41.817   1.866
95707W        W63925  29.994  36.234   1.625
95708W        W63926  36.342   4.354  13.063
95709W        W63927  12.557   4.229  11.693
95710W        W63928  21.508   8.892  12.768
95711W        W63929   6.605  20.203   2.414
95712W        W63930  35.335  34.181  11.279
95713W        W63931   9.426   3.894  11.059
95714W        W63932  16.600  25.631  11.996
95715W        W63933  31.497   7.675   0.066
95716W        W63934  41.338  28.460   3.882
95717W        W63935  32.627  24.317  12.116
95718W        W63936  35.226   9.039   3.737
95719W        W63937  11.329  25.543  11.151
95720W        W63938  30.042  12.123   1.275
95721W        W63939  25.978  17.178   0.865
95722W        W63940  22.731   8.341   1.782
95723W        W63941  19.059  19.526   4.485
95724W        W63942  35.395  20.615   2.698
95725W        W63943  11.633  12.562   2.026
95726W        W63944  43.505  43.239   0.005
95727W        W63945  18.544  20.494  11.513
95728W        W63946  21.961  13.227  12.405
95729W        W63947  28.433  17.993  14.487
95730W        W63948   8.360  13.056   0.574
95731W        W63949   7.212  20.584   0.940
95732W        W63950   9.299   2.852   2.430
95733W        W63951  43.693   8.871   0.125
95734W        W63952  18.054  24.430  12.027
95735W        W63953   8.736  12.679  14.733
95736W        W63954  31.679  18.664  12.619
95737W        W63955  21.103   5.181   1.352
95738W        W63956   3.242  29.166   2.255
95739W        W63957  18.781  29.669   1.368
95740W        W63958  27.390  40.419  11.993
95741W        W63959  25.976   8.139  10.781
95742W        W63960  33.814  29.471  11.111
95743W        W63961   5.967  11.388  14.696
95744W        W63962  37.869  26.960   0.223
95745W        W63963  34.838  14.803  12.368
95746W        W63964   0.486   3.219  13.846
95747W        W63965  23.527  41.244  11.060
95748W        W63966  18.154  44.946  13.347
95749W        W63967  21.418   1.077   5.131
95750W        W63968  37.358  17.758   4.687
95751W        W63969  42.441  22.604  14.397
95752W        W63970  44.904  15.961  13.871
95753W        W63971  38.847  17.076  11.644
95754W        W63972  36.403  24.474   3.740
95755W        W63973  23.667  21.433  11.584
95756W        W63974  29.713  30.318   0.315
95757W        W63975  17.152   3.906  13.781
95758W        W63976  40.787  37.403   3.356
95759W        W63977  10.603  32.024   4.831
95760W        W63978  31.400   9.855   2.872
95761W        W63979  16.211  24.601  13.526
95762W        W63980  28.995   0.198  13.478
95763W        W63981   2.861  25.261   4.682
95764W        W63982   6.846  38.948  13.508
95765W        W63983  20.160  30.084   3.151
95766W        W63984   4.220   0.898  11.884
95767W        W63985  34.076  36.384   3.305
95768W        W63986  35.108  11.677   4.566
95769W        W63987  18.995  25.989   3.138
95770W        W63988   4.634   7.617   2.301
95771W        W63989   8.431  40.058   1.424
95772W        W63990   9.248  23.350  11.101
95773W        W63991  33.388  26.153   1.775
95774W        W63992  29.517  39.123  13.433
95775W        W63993  33.552  43.219  11.396
95776W        W63994   6.573  29.402  10.739
95777W        W63995  28.945  32.649  12.078
95778W        W63996  22.421  44.685   0.270
95779W        W63997  40.917  29.062   3.483
95780W        W63998   0.820  23.678   4.441
95781W        W63999  39.281   6.275   4.641
95782W        W64000  22.066   6.258  13.931
95783W        W64001  38.248  21.094   0.371
95784W        W64002   7.875   7.770   0.286
95785W        W64003  27.588  21.521  11.718
95786W        W64004   7.391  18.085   1.300
95787W        W64005  40.718  23.783   1.622
95788W        W64006  12.267  25.500   1.302
95789W        W64007  32.894  42.461  12.212
95790W        W64008  25.628   7.629  12.432
95791W        W64009   5.885   5.158  12.530
95792W        W64010   5.980  22.749   2.619
95793W        W64011  16.193  21.114  11.612
95794W        W64012  32.705  11.310  10.905
95795W        W64013  38.795  10.279  10.281
95796W        W64014  32.845   2.560   2.496
95797W        W64015   7.255  28.264  12.950
95798W        W64016  37.420   2.825  12.489
95799W        W64017  26.055  37.406   3.689
95800W        W64018  18.921  22.897   0.464
95801W        W64019  16.341  42.008   1.981
95802W        W64020  32.034  26.921   4.604
95803W        W64021  39.688   2.079   3.319
95804W        W64022  25.651  31.110   0.539
95805W        W64023   6.367  39.491  10.833
95806W        W64024  21.586   7.990  13.873
95807W        W64025  39.662  12.391  13.337
95808W        W64026  16.401  14.978  11.875
95809W        W64027  40.051  10.118  11.594
95810W        W64028  42.748  31.796   2.338
95811W        W64029  22.674  18.590   2.802
95812W        W64030  23.740  35.751   2.659
95813W        W64031   8.631  25.744   2.216
95814W        W64032  36.414  32.857  12.464
95815W        W64033  19.526  16.087  11.561
95816W        W64034  20.846  22.226   3.711
95817W        W64035  17.061  11.848   5.084
95818W        W64036  33.516   1.316   0.312
95819W        W64037  14.391  22.157   3.334
95820W        W64038   1.674  36.500   3.763
95821W        W64039  23.472  21.313  11.101
95822W        W64040  19.138   9.311  13.449
95823W        W64041  30.189  20.170  12.474
95824W        W64042  42.347  42.468   2.259
95825W        W64043  43.362  39.814  14.219
95826W        W64044  40.424   6.291   2.942
95827W        W64045  40.463  36.385  14.498
95828W        W64046  37.242  15.822   0.972
95829W        W64047  20.067  41.119  11.989
95830W        W64048  31.375   1.714   0.004
95831W        W64049   5.802  30.237   0.224
95832W        W64050  44.416   0.703  10.652
95833W        W64051  39.429   0.929   1.698
95834W        W64052  18.843  16.863   3.280
95835W        W64053  22.995  36.055   4.330
95836W        W64054  30.567   4.024  14.822
95837W        W64055  19.251  38.322  14.927
95838W        W64056  40.472  17.639   3.717
95839W        W64057  19.713  31.818   4.436
95840W        W64058   8.659  28.108   1.705
95841W        W64059  20.681  26.445   2.639
95842W        W64060  44.867  21.255   4.052
95843W        W64061  21.986  33.838  11.909
95844W        W64062   4.335  32.131   2.178
95845W        W64063  37.367  21.918   4.573
95846W        W64064   8.200  39.145  10.390
95847W        W64065  42.341  25.033   2.229
95848W        W64066  24.980  23.993   1.891
95849W        W64067  32.817  20.596  11.077
95850W        W64068   0.510  44.893  13.275
95851W        W64069  40.149  23.640  12.699
95852W        W64070   0.479  11.322  13.526
95853W        W64071  39.231  30.876  13.856
95854W        W64072  44.757  33.524  14.380
95855W        W64073  31.443  12.673   1.966
95856W        W64074  29.031  28.174   0.916
95857W        W64075  42.055  34.074   0.200
95858W        W64076  38.835  18.425  13.984
95859W        W64077  19.024   5.717   3.612
95860W        W64078  36.103  38.465  13.111
95861W        W64079   2.029   3.077   0.400
95862W        W64080  43.117  30.977   2.151
95863W        W64081   7.111  18.194  14.503
95864W        W64082  18.156  33.115   1.169
95865W        W64083   1.729  25.606   4.667
95866W        W64084   8.040  41.962   1.985
95867W        W64085  29.339  12.141  11.612
95868W        W64086  15.033  36.849  13.507
95869W        W64087  37.684  36.087  14.119
95870W        W64088   9.620  37.416  13.021
95871W        W64089  29.537  11.952   1.349
95872W        W64090  43.553  26.042   2.724
95873W        W64091   7.841  22.964  13.068
95874W        W64092  42.212  24.454  11.957
95875W        W64093  42.858  10.664   0.539
95876W        W64094   1.183   9.669  14.826
95877W        W64095   1.859   4.412   4.347
95878W        W64096  14.625  11.627   3.745
95879W        W64097  19.834  12.576   2.515
95880W        W64098  11.568  16.656  10.608
95881W        W64099  25.487  30.033  11.588
95882W        W64100   2.847  12.370   2.207
95883W        W64101  22.173  34.153   2.689
95884W        W64102  24.988   0.486   4.325
95885W        W64103  23.532  31.932   4.363
95886W        W64104  43.319   2.691   2.655
95887W        W64105  30.588  19.719  12.283
95888W        W64106  44.264   3.805   3.613
95889W        W64107  23.587  15.158  11.615
95890W        W64108  23.719  33.011   3.616
95891W        W64109   5.729   7.622   3.705
95892W        W64110  44.426   6.667   0.261
95893W        W64111   2.661   1.403  12.058
95894W        W64112   6.722  39.052   0.833
95895W        W64113   5.322  24.025  14.594
95896W        W64114  42.353  16.197  12.650
95897W        W64115  38.778  31.423   2.297
95898W        W64116   5.831  22.252   2.719
95899W        W64117   4.230  13.627   2.912
95900W        W64118  12.708  34.672  11.511
95901W        W64119  14.826  34.599  11.686
95902W        W64120  41.275  26.203  11.899
95903W        W64121  19.233   9.103  13.913
95904W        W64122  17.787   0.692   4.582
95905W        W64123  36.357  16.862   0.863
95906W        W64124  21.741  13.608   1.890
95907W        W64125  15.337  18.454  12.960
95908W        W64126  17.102   0.068   1.596
95909W        W64127  30.949   1.021   2.902
95910W        W64128   6.343  39.812  11.239
95911W        W64129   8.354  18.139   9.757
95912W        W64130  31.531  25.613  13.533
95913W        W64131   8.897  13.358  12.541
95914W        W64132  42.980  19.062   1.516
95915W        W64133  30.870  35.626   2.299
95916W        W64134  30.166  14.658  12.027
95917W        W64135  17.337   5.294  10.665
95918W        W64136  24.224  29.378  10.968
95919W        W64137  15.336  15.578   0.481
95920W        W64138  41.281   4.472  13.065
95921W        W64139  29.325  29.089  14.064
95922W        W64140  14.786   9.333  13.062
95923W        W64141  13.161  27.510   4.637
95924W        W64142  19.203  34.855   0.716
95925W        W64143  35.926   7.756   4.261
95926W        W64144   9.555  36.943  11.132
95927W        W64145  17.677  18.328  13.063
95928W        W64146   4.724  27.789  11.475
95929W        W64147  11.192  17.247  14.886
95930W        W64148   3.758  24.020  11.663
95931W        W64149  19.481  22.955  12.408
95932W        W64150  26.514  23.572  14.225
95933W        W64151  35.545  36.989  10.382
95934W        W64152  37.890  36.439  14.450
95935W        W64153   3.416  20.955   2.858
95936W        W64154  44.962  42.991  14.947
95937W        W64155  36.449  32.548   1.283
95938W        W64156   0.032  39.143   1.247
95939W        W64157  34.850  33.678   4.829
95940W        W64158   1.440  18.652  11.303
95941W        W64159  34.519   5.605   1.394
95942W        W64160  18.702  10.677   2.587
95943W        W64161  18.288  20.069  12.445
95944W        W64162   7.441  11.547   4.115
95945W        W64163  33.082   9.912  14.249
95946W        W64164  17.286  15.055  13.413
95947W        W64165  19.324  35.379  12.492
95948W        W64166   6.941   0.808  12.013
95949W        W64167   8.300  18.161   4.457
95950W        W64168  27.057  44.645   2.402
95951W        W64169   3.297  43.729   2.991
95952W        W64170   7.690  27.598   4.919
95953W        W64171   6.327  24.523  14.013
95954W        W64172   9.242  30.322   0.774
95955W        W64173   1.783  32.352   1.102
95956W        W64174  20.192  30.051  14.853
95957W        W64175   6.240  24.573   3.613
95958W        W64176  41.264  29.081   0.795
95959W        W64177  35.312   2.009   1.456
95960W        W64178  40.910  28.727   1.634
95961W        W64179  15.593  11.413   2.717
95962W        W64180  28.333   0.342   3.895
95963W        W64181  41.839  36.010  11.231
95964W        W64182  30.136  39.583   3.697
95965W        W64183  23.013  36.469   3.219
95966W        W64184  27.751  32.198  14.995
95967W        W64185  13.369  25.151  13.611
95968W        W64186  27.513  13.364  11.288
95969W        W64187  35.549  36.947   1.018
95970W        W64188   7.056  30.495  13.836
95971W        W64189  41.134  16.877  11.535
95972W        W64190   5.774  39.650  10.184
95973W        W64191  12.435  38.890   3.726
95974W        W64192   7.936  21.011  13.879
95975W        W64193  41.902  41.539   4.670
95976W        W64194  44.926  44.047  12.300
95977W        W64195  41.375  29.518  13.069
95978W        W64196   0.523  16.717  10.978
95979W        W64197  39.930   4.239   0.975
95980W        W64198  37.990   5.747  12.590
95981W        W64199  40.098  39.537  13.302
95982W        W64200  16.260  21.725   0.499
95983W        W64201  28.765  12.093  11.994
95984W        W64202   6.315  43.229   2.286
95985W        W64203   8.152  11.856  12.505
95986W        W64204  41.951   8.086  13.885
95987W        W64205  23.456  25.652   3.583
95988W        W64206  24.507   8.926  14.524
95989W        W64207  42.412  25.987   4.381
95990W        W64208   2.893  35.550  13.889
95991W        W64209  39.287  25.160  12.374
95992W        W64210   2.859  42.456  13.973
95993W        W64211  38.126  15.153  11.082
95994W        W64212   4.524  20.819  10.356
95995W        W64213  22.629  37.441   2.359
95996W        W64214  34.878  11.543  12.463
95997W        W64215   5.597  20.142   3.130
95998W        W64216  12.561  21.166  11.226
95999W        W64217  40.423  21.502  10.769
96000W        W64218  20.234  11.221  14.561
96001W        W64219  11.699  24.165  10.754
96002W        W64220  10.583   6.955   4.288
96003W        W64221  31.064  10.558   2.383
96004W        W64222  27.675  16.283  11.217
96005W        W64223  31.888  13.615   0.436
96006W        W64224  26.648  41.459  14.114
96007W        W64225  21.642  21.153   1.923
96008W        W64226  14.918  12.636   0.306
96009W        W64227  11.237  18.273  12.543
96010W        W64228  17.178   7.082  12.443
96011W        W64229   4.802  34.480  12.577
96012W        W64230  33.962  37.578   4.838
96013W        W64231  27.947  29.440   1.922
96014W        W64232  44.266  22.064  12.487
96015W        W64233  17.847  23.958  13.371
96016W        W64234  20.252   1.452   2.406
96017W        W64235  13.757  24.814   3.171
96018W        W64236  22.976   4.467   1.712
96019W        W64237  18.282   4.589  13.427
96020W        W64238  23.727   5.215  13.870
96021W        W64239  17.329  30.087   4.346
96022W        W64240  35.359  27.589   2.617
96023W        W64241   3.803  15.556   0.227
96024W        W64242  38.825  40.853   0.063
96025W        W64243  36.789  42.447   2.302
96026W        W64244  19.830  43.296  13.727
96027W        W64245  28.703  18.178   4.592
96028W        W64246  38.638  23.390   1.294
96029W        W64247  14.293  13.264   0.939
96030W        W64248   7.980  20.096   1.980
96031W        W64249  41.491  32.948   2.351
96032W        W64250  40.534  17.510  12.879
96033W        W64251  32.982   1.557   2.759
96034W        W64252   5.474  17.289  13.975
96035W        W64253  42.496  14.764   0.021
96036W        W64254  36.555   3.024   0.504
96037W        W64255  15.700  17.631  13.046
96038W        W64256  15.144   4.209   0.797
96039W        W64257  32.483  35.343   2.297
96040W        W64258   7.170  12.747  14.523
96041W        W64259  35.055  40.510   4.615
96042W        W64260  25.011  11.702  12.100
96043W        W64261  32.246   7.958   1.090
96044W        W64262  28.599  31.953   3.659
96045W        W64263  38.797   5.287   2.718
96046W        W64264   0.358  42.144  14.099
96047W        W64265  24.938  26.862  12.015
96048W        W64266  16.454  18.492  10.422
96049W        W64267  38.451   3.907  13.792
96050W        W64268  38.269   7.869  13.121
96051W        W64269  14.402   6.517  13.798
96052W        W64270  10.623  25.539   2.351
96053W        W64271  23.558  30.995  12.961
96054W        W64272   4.491  15.421   1.935
96055W        W64273  28.028  36.487   1.282
96056W        W64274  22.208  43.322   2.759
96057W        W64275  43.569  14.615   3.202
96058W        W64276  26.612  21.402   2.689
96059W        W64277   7.415  35.866  12.113
96060W        W64278  26.881  23.097   2.795
96061W        W64279  16.307  30.215  13.308
96062W        W64280   4.859   6.206  14.439
96063W        W64281  42.999  32.040  14.364
96064W        W64282  37.568  39.997  12.091
96065W        W64283  17.435  24.672  14.444
96066W        W64284   4.295  23.826   4.285
96067W        W64285  23.040  22.487  12.638
96068W        W64286  44.341  26.225  11.289
96069W        W64287  32.841  34.049  12.124
96070W        W64288  24.573  34.332  14.341
96071W        W64289   1.531  36.472  14.927
96072W        W64290  13.178  17.720  13.639
96073W        W64291  42.338  30.891   0.332
96074W        W64292   3.849  35.342  10.534
96075W        W64293  14.951  32.121  13.066
96076W        W64294  25.527  30.508  11.912
96077W        W64295  28.409  14.939  11.030
96078W        W64296  32.639  13.228  12.866
96079W        W64297  30.627  12.187  10.464
96080W        W64298  12.924  37.570  11.368
96081W        W64299  44.002   9.700   2.205
96082W        W64300   3.577  39.653  11.630
96083W        W64301  42.928  40.501  12.147
96084W        W64302  42.844  13.817   4.058
96085W        W64303   7.294  31.513   2.164
96086W        W64304   9.607   0.854   0.620
96087W        W64305  11.705  11.824  13.933
96088W        W64306  43.893  28.797   4.960
96089W        W64307   5.518  24.916   0.029
96090W        W64308  44.300  42.793  11.710
96091W        W64309  42.209  11.715   3.120
96092W        W64310  11.509  16.704   2.157
96093W        W64311  34.656  40.857  11.935
96094W        W64312  16.616  12.588  12.496
96095W        W64313  33.056  13.479  10.622
96096W        W64314  34.819  32.210  14.377
96097W        W64315  15.587   6.105   4.508
96098W        W64316  12.105  15.684   2.825
96099W        W64317  44.916  22.649  12.927
96100W        W64318  43.900  43.004   1.148
96101W        W64319  19.392  17.622   2.941
96102W        W64320   7.802   0.827   3.261
96103W        W64321  29.434  13.534  14.246
96104W        W64322  37.947  23.946   1.374
96105W        W64323   7.426  25.338   5.018
96106W        W64324  12.573   7.696  11.224
96107W        W64325  38.458   6.494  12.551
96108W        W64326  41.835  21.541   3.930
96109W        W64327  36.580   0.197  12.919
96110W        W64328   1.399  21.854   1.394
96111W        W64329  16.012  40.955   4.072
96112W        W64330  23.836   9.048  13.257
96113W        W64331  11.282  14.166   3.160
96114W        W64332  28.487  32.391   2.592
96115W        W64333   5.246  38.775   0.821
96116W        W64334   4.938  27.155   1.790
96117W        W64335  43.903   1.814   0.580
96118W        W64336  41.106   2.590   3.609
96119W        W64337  14.302  35.066   0.913
96120W        W64338   9.720  34.453   1.681
96121W        W64339  22.326   9.199  14.940
96122W        W64340  12.374  34.780  12.443
96123W        W64341   6.748   0.719   2.327
96124W        W64342   5.790   6.851  14.205
96125W        W64343  32.587  27.719   1.958
96126W        W64344  40.953  36.849  10.674
96127W        W64345  34.626   6.842   0.474
96128W        W64346  30.919  15.364  10.603
96129W        W64347  21.548  30.019   3.304
96130W        W64348  36.476   7.918   1.307
96131W        W64349  32.145  28.801   5.384
96132W        W64350  27.504   2.446   1.429
96133W        W64351  25.658  20.499  14.526
96134W        W64352   4.147  32.915  13.375
96135W        W64353  13.832  36.174   4.307
96136W        W64354  16.212  27.305  13.405
96137W        W64355  23.480  32.169  13.973
96138W        W64356   9.367   9.626  14.168
96139W        W64357   0.865  39.446  11.697
96140W        W64358   5.613  44.947   2.267
96141W        W64359  40.027  28.347   4.778
96142W        W64360  23.606  43.954   0.912
96143W        W64361  41.276   1.259   2.153
96144W        W64362   7.030  30.461  11.973
96145W        W64363  41.082  32.223  10.702
96146W        W64364   4.411  33.422  10.221
96147W        W64365  42.063  42.458   4.580
96148W        W64366  28.889   6.784   1.252
96149W        W64367  43.932  42.700  13.444
96150W        W64368  28.636  14.523  12.879
96151W        W64369  40.241  27.449   4.301
96152W        W64370  38.458  42.491  14.758
96153W        W64371  33.176   7.722  14.721
96154W        W64372  25.725  25.896   4.788
96155W        W64373  31.901   3.285  11.655
96156W        W64374  37.058  31.408  13.564
96157W        W64375  33.230  35.707   4.074
96158W        W64376  40.072  33.998   1.233
96159W        W64377  39.343   7.691   0.724
96160W        W64378  14.728   4.913  13.490
96161W        W64379  31.490  23.939   0.902
96162W        W64380  43.987  41.815   0.678
96163W        W64381  10.365  13.347  11.090
96164W        W64382   2.965  19.571  14.915
96165W        W64383  36.305  22.074  12.451
96166W        W64384   9.412  36.986   3.151
96167W        W64385  44.143   7.326  11.688
96168W        W64386  28.584  29.399  12.448
96169W        W64387   2.169   2.271   4.742
96170W        W64388   4.816  38.804   4.626
96171W        W64389  44.177   2.352   2.344
96172W        W64390  28.997  31.508   1.419
96173W        W64391   9.061   0.511   1.671
96174W        W64392  31.894  30.556  14.939
96175W        W64393  26.587  16.157  13.564
96176W        W64394   4.667  44.925   2.308
96177W        W64395   9.328   6.402   2.380
96178W        W64396  12.067   6.853  14.782
96179W        W64397  10.306  20.606  13.946
96180W        W64398   7.647  18.116  14.525
96181W        W64399  23.766  41.167   3.862
96182W        W64400  35.009  38.080  13.451
96183W        W64401   0.357  37.389   2.318
96184W        W64402  42.585  13.364   4.713
96185W        W64403   9.637  23.099  11.895
96186W        W64404  19.309   9.784  14.482
96187W        W64405  12.212  28.231   1.688
96188W        W64406  44.795   0.820   0.940
96189W        W64407  20.716  13.826   4.074
96190W        W64408  19.381  43.362  13.434
96191W        W64409   4.284   2.612   3.282
96192W        W64410  43.370  38.031   2.230
96193W        W64411  38.896   2.855   2.406
96194W        W64412  35.468   3.508  14.276
96195W        W64413  26.528  13.381  12.338
96196W        W64414  23.300   3.734  11.866
96197W        W64415  10.878  12.168   2.485
96198W        W64416   3.133  30.779   2.517
96199W        W64417  14.197  29.418  12.080
96200W        W64418  31.023  22.860  10.948
96201W        W64419  18.197  33.701  11.594
96202W        W64420  39.540  18.101   0.322
96203W        W64421  25.533  17.298  13.536
96204W        W64422  42.332  13.509   3.433
96205W        W64423  31.371   7.288  11.184
96206W        W64424  42.187  27.813  11.096
96207W        W64425   0.880   9.743   1.994
96208W        W64426  30.900   9.928   4.572
96209W        W64427  20.121  28.322  10.677
96210W        W64428   5.296  15.673   0.290
96211W        W64429  13.391  43.645   3.998
96212W        W64430  35.228  27.729   1.744
96213W        W64431  18.351  15.766  10.686
96214W        W64432  28.700   9.575  12.645
96215W        W64433   4.922   2.506  13.886
96216W        W64434  24.648  27.440  13.984
96217W        W64435  19.832  23.193  12.040
96218W        W64436  16.495  22.728  14.834
96219W        W64437   9.770  14.273   0.787
96220W        W64438  12.700  42.489   1.005
96221W        W64439  11.135  13.869  14.635
96222W        W64440  21.193   8.667  13.434
96223W        W64441  31.371  29.405  10.784
96224W        W64442  32.487  31.959   3.312
96225W        W64443  44.858  10.968   1.137
96226W        W64444   8.977  40.491   1.550
96227W        W64445  32.072  23.466  13.416
96228W        W64446  16.030   5.651  11.567
96229W        W64447  39.068   6.754   0.285
96230W        W64448  19.305  42.637   1.844
96231W        W64449  39.789  29.986  12.571
96232W        W64450  22.007   6.764  13.837
96233W        W64451  10.765   9.869  11.417
96234W        W64452  14.278  17.728  14.771
96235W        W64453   5.796  39.466   2.989
96236W        W64454  15.441  29.399  10.692
96237W        W64455  31.390  17.156  14.932
96238W        W64456   0.788  10.522   1.559
96239W        W64457   2.437  42.878  11.655
96240W        W64458  20.530  34.481   4.042
96241W        W64459  33.971  23.486  12.499
96242W        W64460   7.905   0.850  13.934
96243W        W64461  15.111  20.252  14.843
96244W        W64462  28.080  16.631  13.179
96245W        W64463  23.558  16.062  10.713
96246W        W64464  17.589  27.677   1.285
96247W        W64465  17.516  26.311  13.484
96248W        W64466  11.685  37.503   3.726
96249W        W64467   7.624  34.856   3.148
96250W        W64468  16.835   1.194  11.550
96251W        W64469   4.235  12.947   1.151
96252W        W64470  33.488  40.366  11.965
96253W        W64471   3.318  27.578   4.552
96254W        W64472  33.921  11.863   1.346
96255W        W64473   6.178  44.264   0.886
96256W        W64474   5.447  37.798   0.073
96257W        W64475  10.382   5.173   0.079
96258W        W64476  40.820   9.416  13.567
96259W        W64477  11.138  40.467   4.612
96260W        W64478   0.998   0.431   0.914
96261W        W64479  28.423  28.535  10.441
96262W        W64480  37.990  26.064   2.438
96263W        W64481  37.624   9.454   3.642
96264W        W64482  23.209  35.118   0.785
96265W        W64483  22.949  25.567  10.688
96266W        W64484  21.474  22.535   1.843
96267W        W64485  44.590  20.378   0.726
96268W        W64486   1.675  14.747  12.202
96269W        W64487  13.701  11.116  12.383
96270W        W64488  17.946  34.604   0.327
96271W        W64489  26.600   1.973  14.743
96272W        W64490  27.715   1.083   1.770
96273W        W64491  20.970  10.754  14.920
96274W        W64492  30.134  16.177  11.555
96275W        W64493   6.224   6.241  12.246
96276W        W64494   9.312  18.218   0.572
96277W        W64495  40.441   4.166  11.653
96278W        W64496  41.801  30.045   2.135
96279W        W64497   3.419  42.832  11.234
96280W        W64498  24.524  29.027   0.086
96281W        W64499   8.541  13.197  14.699
96282W        W64500  33.605   6.094   1.276
96283W        W64501  17.639   9.895  12.865
96284W        W64502  37.416   6.139   0.848
96285W        W64503  34.492   0.861  10.670
96286W        W64504  38.899  17.166  12.152
96287W        W64505  18.360  24.443  11.577
96288W        W64506  34.493  30.620  11.484
96289W        W64507  18.843  38.606  14.379
96290W        W64508  11.678  40.309   0.884
96291W        W64509  19.983   1.841   2.688
96292W        W64510  14.697   0.716  11.191
96293W        W64511  32.769  15.940  11.052
96294W        W64512  15.738  10.164  12.940
96295W        W64513  33.000  27.153  11.148
96296W        W64514  44.492   2.840  13.001
96297W        W64515  25.956  30.883  11.466
96298W        W64516   8.802  31.489   2.678
96299W        W64517  41.869   3.328   2.310
96300W        W64518  32.674  38.051   3.361
96301W        W64519  15.313  41.569  10.777
96302W        W64520  29.513   1.659  14.853
96303W        W64521   4.737  17.783   3.140
96304W        W64522   3.529  12.611  11.152
96305W        W64523   3.209  33.072  14.610
96306W        W64524   3.002   7.701   0.796
96307W        W64525   1.643  19.044  10.434
96308W        W64526  27.101   7.361   0.919
96309W        W64527  44.537  22.192   5.018
96310W        W64528  23.082  32.923   2.184
96311W        W64529   1.005  44.387  10.709
96312W        W64530  22.008  11.721  14.395
96313W        W64531   4.972  28.864  14.936
96314W        W64532   7.869  18.793  13.336
96315W        W64533  37.450  16.569  13.441
96316W        W64534  29.191  35.926  14.492
96317W        W64535   8.296   1.060   3.210
96318W        W64536   5.462  33.117  14.900
96319W        W64537  20.180  34.059  14.081
96320W        W64538  40.333  37.210   0.079
96321W        W64539  42.297  43.542   2.131
96322W        W64540  13.920  43.595   1.844
96323W        W64541   3.294  37.743   1.021
96324W        W64542  24.702   6.601  13.035
96325W        W64543   8.792  35.379   2.879
96326W        W64544  19.199  20.885   0.536
96327W        W64545  41.185  29.055  12.896
96328W        W64546  25.195  36.638  11.277
96329W        W64547  34.709  33.136  14.351
96330W        W64548  42.558   6.879   0.528
96331W        W64549  26.462   2.869  14.818
96332W        W64550  39.368  11.213   0.327
96333W        W64551  17.874   6.332  12.943
96334W        W64552   7.255  37.811   4.064
96335W        W64553   0.743   7.758  10.898
96336W        W64554  43.383  15.828   3.283
96337W        W64555  40.217  26.675   2.163
96338W        W64556  35.113  11.691  10.193
96339W        W64557  24.187  42.294   0.742
96340W        W64558  12.492   8.165  13.439
96341W        W64559   9.460  19.600  14.343
96342W        W64560  18.504   2.411  11.865
96343W        W64561  40.492   9.328   1.033
96344W        W64562  39.615  15.604   3.495
96345W        W64563   4.656  34.773   4.962
96346W        W64564  11.119  28.157   0.262
96347W        W64565  30.380  14.377  11.567
96348W        W64566  35.836   0.426  11.556
96349W        W64567  30.653   4.911   1.736
96350W        W64568  23.891  22.601  13.304
96351W        W64569  29.973   0.339   2.228
96352W        W64570  16.771  25.874   2.547
96353W        W64571  41.568  22.802   1.665
96354W        W64572  11.068  24.579   0.367
96355W        W64573  24.868   1.598  11.187
96356W        W64574  43.787  18.236   0.495
96357W        W64575   7.805  18.635   0.395
96358W        W64576   0.805   7.743  11.870
96359W        W64577  30.577  26.634   4.545
96360W        W64578  25.028   6.453   0.642
96361W        W64579  44.496  17.783  13.495
96362W        W64580   6.302  11.381  13.633
96363W        W64581  25.212  20.572  14.227
96364W        W64582  17.876   5.319  10.687
96365W        W64583  26.025  11.611  13.066
96366W        W64584  18.523  28.994   0.179
96367W        W64585  13.534  36.448  11.996
96368W        W64586  29.845   7.451  11.070
96369W        W64587  30.323   1.329   2.384
96370W        W64588  16.000  17.206  14.770
96371W        W64589   2.034  13.596   3.338
96372W        W64590  31.295  34.605   3.831
96373W        W64591  24.892  30.585   3.242
96374W        W64592  13.754  23.952   3.707
96375W        W64593  33.343  23.188   1.421
96376W        W64594  26.571  24.026  14.537
96377W        W64595   8.222  33.557  14.366
96378W        W64596  30.573  44.747  14.565
96379W        W64597   7.853  24.183  10.389
96380W        W64598   4.309   1.955   3.274
96381W        W64599  10.247  15.192  14.719
96382W        W64600  17.165   8.340   0.269
96383W        W64601   2.913  11.753   1.453
96384W        W64602  44.375  24.005   3.632
96385W        W64603  29.675  11.977   2.610
96386W        W64604   2.236   3.807  14.867
96387W        W64605  31.038  44.125   1.285
96388W        W64606  31.772  15.430   1.674
96389W        W64607  20.553  31.686  10.304
96390W        W64608  12.111  31.741  13.584
96391W        W64609  36.371  36.468  13.954
96392W        W64610  26.930   6.687  10.644
96393W        W64611   8.974  27.737  11.287
96394W        W64612   0.982  39.952  10.813
96395W        W64613  24.623  37.891  10.749
96396W        W64614  19.390  38.634  14.503
96397W        W64615  29.971  22.196  12.532
96398W        W64616  23.717  31.884  10.378
96399W        W64617  42.453  26.279  11.536
96400W        W64618  17.955   4.404   2.188
96401W        W64619  16.703  35.656   3.016
96402W        W64620  39.128  20.535  14.932
96403W        W64621  32.871  15.410  13.533
96404W        W64622  34.761   9.717   4.521
96405W        W64623  39.815  28.996   2.827
96406W        W64624  42.945  33.911  13.901
96407W        W64625  30.879   5.857  11.105
96408W        W64626  41.838  31.840   4.235
96409W        W64627  26.055   9.636  14.139
96410W        W64628   5.178   0.000   3.607
96411W        W64629  44.879  14.214  11.611
96412W        W64630   7.781  21.280   4.521
96413W        W64631  23.466   5.654   2.840
96414W        W64632  26.159  25.737   5.001
96415W        W64633  34.668  37.416   0.200
96416W        W64634  33.645  30.631   1.399
96417W        W64635   5.889  19.975   0.913
96418W        W64636  36.812   5.147   1.387
96419W        W64637  22.696  29.996  13.797
96420W        W64638  33.552  13.658  10.664
96421W        W64639  35.945  43.487   0.020
96422W        W64640  32.047  37.915  10.910
96423W        W64641   4.834  42.714  13.866
96424W        W64642   4.747  44.666   0.366
96425W        W64643  25.977   5.243   0.538
96426W        W64644  16.029   0.261   2.881
96427W        W64645  11.910   3.163   2.170
96428W        W64646  21.542  26.932   1.414
96429W        W64647  43.384  44.808   4.443
96430W        W64648  30.932  20.037  11.171
96431W        W64649  42.882  16.532  14.272
96432W        W64650  28.979  28.504  12.540
96433W        W64651  35.918  33.234   3.507
96434W        W64652  34.994  19.299   2.831
96435W        W64653  11.600   1.428  10.866
96436W        W64654  20.582  27.122   0.642
96437W        W64655  12.906  15.555   4.686
96438W        W64656   6.360  16.223  12.534
96439W        W64657  44.276  37.605   0.829
96440W        W64658   0.903   2.507   0.026
96441W        W64659  12.000  38.474  13.869
96442W        W64660  31.077  31.462  12.394
96443W        W64661  10.407   5.812   5.020
96444W        W64662   9.350   3.188   2.851
96445W        W64663   5.244  39.332   2.832
96446W        W64664   3.349  43.219  13.053
96447W        W64665  20.987  38.720  12.385
96448W        W64666  23.883  40.108   4.250
96449W        W64667  15.260  40.814  14.802
96450W        W64668  36.029  27.434  13.873
96451W        W64669   1.624  20.454   4.891
96452W        W64670  25.935  32.553   4.734
96453W        W64671  36.081   2.762  10.933
96454W        W64672   5.434  25.186   3.639
96455W        W64673   0.266  43.322   3.269
96456W        W64674  40.380   9.137  13.554
96457W        W64675  16.187  12.017  10.626
96458W        W64676  11.945  21.459  10.958
96459W        W64677  21.419  38.490  12.694
96460W        W64678   9.804  41.877  10.542
96461W        W64679  22.418  34.437  12.936
96462W        W64680   2.971  36.574  13.065
96463W        W64681  33.085   0.875   4.731
96464W        W64682  10.619   4.398   0.888
96465W        W64683  20.648  19.737   2.890
96466W        W64684  17.251   3.029   2.815
96467W        W64685  26.010   2.143   4.412
96468W        W64686  28.698  13.548  10.298
96469W        W64687  42.790  11.643   1.967
96470W        W64688  12.819  31.697  10.622
96471W        W64689   9.981  39.961   0.261
96472W        W64690  42.832   7.624  14.141
96473W        W64691  34.914  38.137  11.679
96474W        W64692   3.012  15.794  14.968
96475W        W64693  30.001  32.475   0.416
96476W        W64694   5.966  12.995   1.393
96477W        W64695  17.680  40.837   4.668
96478W        W64696  24.573  16.670   3.227
96479W        W64697  26.097  34.590  13.247
96480W        W64698  36.859  20.538  13.443
96481W        W64699  34.820  35.107   2.156
96482W        W64700  29.973  10.897   4.136
96483W        W64701  44.591  38.391   5.017
96484W        W64702  14.713   1.841   0.013
96485W        W64703  30.991  15.434   3.831
96486W        W64704  16.055  26.182   0.743
96487W        W64705  10.752   3.159   4.570
96488W        W64706   3.599  40.197   4.575
96489W        W64707  14.669  16.163   4.735
96490W        W64708  43.959  30.035  13.357
96491W        W64709  27.435  18.748   3.630
96492W        W64710   9.797  41.441   3.200
96493W        W64711  11.741   2.267  10.596
96494W        W64712  40.723  15.754  14.730
96495W        W64713  38.068  13.584  14.483
96496W        W64714  28.276   9.566   3.714
96497W        W64715  34.602  17.305   1.402
96498W        W64716  39.425  40.261  10.170
96499W        W64717  39.179  34.151   2.435
96500W        W64718  15.756  39.944  13.050
96501W        W64719  36.967  29.675  10.667
96502W        W64720  19.633  29.651  10.640
96503W        W64721   2.301  30.037   2.385
96504W        W64722  14.897  24.975   3.702
96505W        W64723  31.370  11.682   1.731
96506W        W64724  22.780  18.019  11.888
96507W        W64725  36.870   7.691  11.049
96508W        W64726  19.991  42.899   0.233
96509W        W64727  16.770  15.077  13.390
96510W        W64728   4.341   5.268   3.656
96511W        W64729   1.846  40.208   1.386
96512W        W64730   7.686   5.757  11.285
96513W        W64731  19.783  20.781   4.400
96514W        W64732  16.607   2.652  13.476
96515W        W64733  14.729  24.539   2.272
96516W        W64734  14.114   7.113   3.861
96517W        W64735   3.361  18.187   2.625
96518W        W64736  17.826  19.622  12.844
96519W        W64737  44.876   5.955   1.074
96520W        W64738  14.276  24.094   2.718
96521W        W64739  44.794  42.881  13.020
96522W        W64740  41.536  23.988   1.327
96523W        W64741  37.246   5.910  12.118
96524W        W64742  14.055   2.834   3.209
96525W        W64743  12.403   2.434   3.655
96526W        W64744  30.039  40.463  11.208
96527W        W64745  37.377  12.903  12.423
96528W        W64746  34.550  37.021   0.523
96529W        W64747  27.193  22.687   2.737
96530W        W64748  10.397  39.402   1.957
96531W        W64749   4.158  26.558   1.734
96532W        W64750  31.564  22.792  14.396
96533W        W64751  10.263  32.327   3.586
96534W        W64752   9.194  33.579   0.860
96535W        W64753  13.665   6.103   0.776
96536W        W64754   6.293  41.436   1.666
96537W        W64755  42.057   7.306  11.973
96538W        W64756  36.298   0.839   3.667
96539W        W64757  33.375  43.861  14.359
96540W        W64758  43.260   3.362  14.482
96541W        W64759  30.683  38.512   4.089
96542W        W64760  38.022  41.011  10.557
96543W        W64761  17.514  19.170   0.956
96544W        W64762   3.712  39.268   3.797
96545W        W64763  37.530  12.601  11.957
96546W        W64764  25.127  15.115  14.425
96547W        W64765  18.171  22.636   0.231
96548W        W64766   6.221  28.929  14.368
96549W        W64767  16.481  30.714  13.219
96550W        W64768   8.897  22.546  13.064
96551W        W64769   5.419  31.558  13.942
96552W        W64770  13.745   9.113  14.005
96553W        W64771  31.528   2.302   3.243
96554W        W64772  20.595   2.048  14.950
96555W        W64773   6.619   7.355  13.853
96556W        W64774  14.412  32.376   4.437
96557W        W64775  18.079  18.589   2.987
96558W        W64776  40.750  20.920  11.657
96559W        W64777   6.318  28.619   4.680
96560W        W64778  21.754  41.789   4.387
96561W        W64779  22.697   2.490   3.259
96562W        W64780  10.279  42.039   1.234
96563W        W64781  30.563   7.348   3.929
96564W        W64782   9.969  44.833  10.947
96565W        W64783  25.248  16.515   0.637
96566W        W64784  17.905  11.430  12.141
96567W        W64785  41.969  18.859  11.089
96568W        W64786   8.827  15.732  11.324
96569W        W64787  24.126   5.277   4.665
96570W        W64788  26.183  34.507  14.245
96571W        W64789  18.686   8.001   2.719
96572W        W64790  36.067  29.538   3.135
96573W        W64791   1.773   3.695  12.566
96574W        W64792  21.738  21.792  13.786
96575W        W64793  27.122  19.527  12.821
96576W        W64794   8.163  35.010  11.661
96577W        W64795  44.848  22.541   0.675
96578W        W64796  10.334  40.571  13.450
96579W        W64797  16.622  36.412   3.099
96580W        W64798  35.092  37.007  11.653
96581W        W64799  21.073   2.754   2.763
96582W        W64800  16.418  39.056  13.627
96583W        W64801  27.787  38.279  13.477
96584W        W64802  33.986  31.675  12.064
96585W        W64803  13.868  14.659   3.688
96586W        W64804  23.153  32.590  10.144
96587W        W64805  17.420  30.283   4.809
96588W        W64806   1.663  44.155   0.989
96589W        W64807   8.316  39.559   2.644
96590W        W64808   7.806  11.462   3.510
96591W        W64809  16.709  14.371  11.167
96592W        W64810  29.277  34.006  10.570
96593W        W64811  16.718   6.928  12.685
96594W        W64812   0.845  25.157  12.507
96595W        W64813   9.845  10.355  13.174
96596W        W64814  32.852  33.513  12.052
96597W        W64815  42.575  37.031   0.907
96598W        W64816  38.751   3.956  10.387
96599W        W64817  22.308  11.570  12.439
96600W        W64818  44.913  10.467   1.250
96601W        W64819   2.491   3.137   1.334
96602W        W64820  20.771   9.432   4.223
96603W        W64821  26.723   0.997  13.066
96604W        W64822  23.558  28.652   4.770
96605W        W64823  12.106  25.863  13.885
96606W        W64824  20.186  24.203  10.704
96607W        W64825  36.042   8.908   2.166
96608W        W64826  28.173  37.959   2.350
96609W        W64827  16.312  43.307   1.165
96610W        W64828  21.733  35.898   2.183
96611W        W64829  26.553  24.698  11.885
96612W        W64830  14.596  41.063   1.865
96613W        W64831  38.947  40.062   2.662
96614W        W64832   1.203  23.997   4.608
96615W        W64833  43.936  11.779  13.471
96616W        W64834  11.875  30.370   2.136
96617W        W64835   6.140  30.555   1.682
96618W        W64836  25.731  29.448  14.836
96619W        W64837   3.035  18.570   1.076
96620W        W64838  26.097  23.167   2.511
96621W        W64839  37.913  11.842   0.724
96622W        W64840  21.836  31.098  13.411
96623W        W64841   8.459   0.245   2.303
96624W        W64842  22.525  11.749  12.009
96625W        W64843  24.683   6.826   0.947
96626W        W64844  34.238  37.491   2.621
96627W        W64845  10.346  12.916  13.454
96628W        W64846  44.486  31.207   4.102
96629W        W64847  11.414  32.473   1.916
96630W        W64848  38.475  32.086  14.992
96631W        W64849  20.248   8.856   4.918
96632W        W64850  27.921  14.079  10.682
96633W        W64851  10.900   4.342   0.455
96634W        W64852  18.610  38.129  10.678
96635W        W64853   7.190  42.788  13.950
96636W        W64854  39.433  27.736   4.860
96637W        W64855  42.984  31.018   1.134
96638W        W64856  31.621  20.998   3.677
96639W        W64857  38.156  35.558   4.178
96640W        W64858  23.228  12.362   1.231
96641W        W64859  21.564  22.174   1.261
96642W        W64860  20.559   4.288  14.468
96643W        W64861  18.775   6.092  12.902
96644W        W64862  27.269  17.254  13.896
96645W        W64863  29.586   3.754  11.501
96646W        W64864   7.428   0.057  11.147
96647W        W64865  24.484  20.159   2.096
96648W        W64866  18.654  31.157  12.090
96649W        W64867   0.454   8.736   4.395
96650W        W64868  36.436  34.075  11.956
96651W        W64869   3.260  30.745   0.708
96652W        W64870   3.240  40.920  12.424
96653W        W64871  32.416  42.023  14.157
96654W        W64872   9.274  34.545  14.947
96655W        W64873   4.905  28.999   3.317
96656W        W64874  30.334  15.959  13.890
96657W        W64875  39.631  15.724   9.977
96658W        W64876   5.588   1.154  11.202
96659W        W64877  31.243  44.864  10.603
96660W        W64878  11.011   3.462   4.249
96661W        W64879  25.219   2.860   1.761
96662W        W64880  13.801   4.639   3.988
96663W        W64881  43.419  28.772   3.365
96664W        W64882   5.203  17.451   1.909
96665W        W64883  36.585  21.980  13.966
96666W        W64884   1.638  37.410   1.496
96667W        W64885  23.785   8.195  10.993
96668W        W64886  30.072  22.249  13.435
96669W        W64887   8.758   9.258   0.503
96670W        W64888   7.386  18.616   4.797
96671W        W64889  24.979  23.882   1.342
96672W        W64890  25.156  15.982   3.217
96673W        W64891  23.967  40.681  14.409
96674W        W64892  19.469   1.477   2.819
96675W        W64893   7.599  13.412   1.866
96676W        W64894  41.217  31.597  13.542
96677W        W64895  26.913   1.693  10.415
96678W        W64896  16.664  26.098   4.188
96679W        W64897   4.831  36.419  12.569
96680W        W64898  30.728  31.624   3.732
96681W        W64899  20.088   8.933   0.973
96682W        W64900   9.451  42.503   4.452
96683W        W64901  36.588  37.428   4.244
96684W        W64902  20.712  32.208   3.266
96685W        W64903   8.264  41.398  13.280
96686W        W64904   3.204  27.872   3.059
96687W        W64905   2.910  24.341  13.961
96688W        W64906   6.972  29.959   3.137
96689W        W64907  37.380  32.149  10.299
96690W        W64908  24.073  44.169  11.648
96691W        W64909  29.607  11.372  11.225
96692W        W64910   5.903  38.288   0.475
96693W        W64911  12.587  19.083   3.992
96694W        W64912  14.315   7.813  13.538
96695W        W64913  43.353   5.103  14.135
96696W        W64914  11.562   4.873   4.669
96697W        W64915  23.609  37.103  13.591
96698W        W64916  20.221  24.754  10.507
96699W        W64917  35.714  44.627   0.504
96700W        W64918  12.611  26.115   3.289
96701W        W64919   9.062  25.570   5.113
96702W        W64920   0.460  33.964   4.679
96703W        W64921  39.811  20.717  12.577
96704W        W64922  25.045  42.805  14.137
96705W        W64923  43.467  20.052   3.174
96706W        W64924  26.490  23.960   0.049
96707W        W64925   0.901  13.632   1.954
96708W        W64926  18.733  23.091  14.005
96709W        W64927  23.844  28.561   2.325
96710W        W64928   9.763  37.106  11.575
96711W        W64929  43.630  27.495  14.358
96712W        W64930   6.883  19.477  12.818
96713W        W64931  14.413  13.074   3.735
96714W        W64932  43.308  10.875   2.956
96715W        W64933  35.218   9.299  11.079
96716W        W64934  30.035  23.571   2.576
96717W        W64935  13.389  31.081  10.739
96718W        W64936  34.885  38.879   5.099
96719W        W64937  34.411  18.254  13.530
96720W        W64938  10.729  28.215   1.448
96721W        W64939  33.048   1.258   3.184
96722W        W64940  12.730  21.587  13.627
96723W        W64941  15.102   2.184  14.228
96724W        W64942  28.643  16.071   1.643
96725W        W64943  30.232  34.996   2.259
96726W        W64944  27.408  26.580   1.331
96727W        W64945  37.508  18.073   0.103
96728W        W64946  39.534   7.700  11.553
96729W        W64947  12.446  33.979  12.882
96730W        W64948  34.334   1.838  14.454
96731W        W64949  38.470  23.732   0.800
96732W        W64950  31.497   2.332  10.767
96733W        W64951  41.904  20.638  10.913
96734W        W64952   5.539   9.353   1.038
96735W        W64953  17.334  12.039   1.001
96736W        W64954  44.467  36.536   4.674
96737W        W64955  24.809   4.677  13.071
96738W        W64956  10.300  25.502   2.790
96739W        W64957  10.871  37.373   4.097
96740W        W64958  20.140  15.035  11.042
96741W        W64959   2.417  14.333   1.851
96742W        W64960  19.835   6.139   2.733
96743W        W64961  35.402   3.696  14.852
96744W        W64962   2.427  21.676   0.340
96745W        W64963  38.834  41.757  13.465
96746W        W64964   1.916   2.179   1.052
96747W        W64965  12.277   7.145  13.005
96748W        W64966   0.454  24.511  10.657
96749W        W64967  22.588  41.959   1.747
96750W        W64968  37.334   1.221  14.895
96751W        W64969  34.151  22.548   3.131
96752W        W64970   9.772  24.775  13.404
96753W        W64971  41.724  44.455  12.384
96754W        W64972  21.464   6.740   1.403
96755W        W64973   2.912  40.586  14.130
96756W        W64974  16.141  34.651  11.903
96757W        W64975   5.347  34.562   3.308
96758W        W64976  21.190  24.769  14.530
96759W        W64977   2.753  33.133  14.876
96760W        W64978  17.754  35.096  11.649
96761W        W64979  17.439  11.187  11.507
96762W        W64980  23.515  24.783   1.197
96763W        W64981   7.348  15.884  10.762
96764W        W64982   5.696  39.404  13.131
96765W        W64983  27.934  15.597  11.676
96766W        W64984  23.237  39.343   0.354
96767W        W64985  27.136  27.794   0.335
96768W        W64986  43.368  18.752  12.654
96769W        W64987  24.609   4.498  12.011
96770W        W64988   3.174  27.250  14.482
96771W        W64989  28.687  40.232  13.848
96772W        W64990  41.472   2.343  10.105
96773W        W64991  26.363  33.466   2.807
96774W        W64992  27.112  15.988  12.824
96775W        W64993  39.030  27.135  14.316
96776W        W64994  38.062  16.120   1.708
96777W        W64995  36.846  30.460  11.171
96778W        W64996  23.300  22.838  11.598
96779W        W64997   6.106  15.769   1.475
96780W        W64998   4.658   1.683  14.246
96781W        W64999  36.590  18.337   2.493
96782W        W65000  35.940  23.305  11.467
96783W        W65001   7.890   9.299  12.889
96784W        W65002  23.732  35.677  10.717
96785W        W65003  34.496  20.977   0.921
96786W        W65004  38.394  13.271   0.879
96787W        W65005  16.643  16.280   3.212
96788W        W65006   9.403  40.394  13.110
96789W        W65007   3.246  30.946   3.610
96790W        W65008   6.460  25.871   1.377
96791W        W65009  42.234   0.557   3.195
96792W        W65010  23.990  30.907   4.187
96793W        W65011  44.540   9.534  10.275
96794W        W65012  41.524  12.837   4.828
96795W        W65013  36.383  15.029   4.479
96796W        W65014  40.025   6.754  13.022
96797W        W65015   6.072  29.886   2.887
96798W        W65016  44.100  30.602   0.994
96799W        W65017  44.639  12.200  13.063
96800W        W65018  24.044   9.731   2.334
96801W        W65019  28.886   1.926  12.468
96802W        W65020  42.383  26.340  10.164
96803W        W65021   8.278  11.316   1.371
96804W        W65022  22.455  41.723  13.375
96805W        W65023  33.153  41.307   0.995
96806W        W65024  37.547   9.177   4.624
96807W        W65025  26.715  40.737   3.378
96808W        W65026  18.596  41.751   1.403
96809W        W65027  24.639  30.493   1.228
96810W        W65028  18.952  23.901  11.947
96811W        W65029   5.831  35.325  13.107
96812W        W65030   5.812  40.283  13.346
96813W        W65031   0.776  28.731   2.142
96814W        W65032  11.165  40.926   1.855
96815W        W65033  36.822  13.207  12.025
96816W        W65034   3.476  11.172  13.470
96817W        W65035  22.669  12.808   0.490
96818W        W65036  24.165  37.864  11.685
96819W        W65037  41.976  39.631   0.927
96820W        W65038  10.611   5.629   4.554
96821W        W65039  16.689   9.888   4.265
96822W        W65040  44.991   2.591  11.639
96823W        W65041  11.561  14.495  12.806
96824W        W65042  24.480  38.519  12.037
96825W        W65043  27.303  29.408  11.703
96826W        W65044   8.059  27.097  11.075
96827W        W65045  39.952  39.876   4.811
96828W        W65046  11.114  20.756   2.756
96829W        W65047  30.656  34.400  10.604
96830W        W65048   9.358  44.704   4.220
96831W        W65049  12.618  32.895  12.489
96832W        W65050   4.488  33.392  14.588
96833W        W65051  25.695   2.751   1.928
96834W        W65052  11.239  20.539  14.929
96835W        W65053  11.820   7.388  13.041
96836W        W65054  36.772  44.214   3.249
96837W        W65055   2.486   1.040  12.901
96838W        W65056  30.139  22.555  12.947
96839W        W65057   3.224  15.086   4.516
96840W        W65058  43.525   4.663  13.926
96841W        W65059  39.073   1.204   2.799
96842W        W65060   3.465   5.231   0.900
96843W        W65061  35.808  19.673  11.618
96844W        W65062  34.881  14.789   4.547
96845W        W65063  22.898  15.725   4.679
96846W        W65064   3.287  24.634  11.097
96847W        W65065  29.575  38.852   3.778
96848W        W65066  35.244  22.592  13.972
96849W        W65067  31.307  39.789   3.512
96850W        W65068  37.323  29.549   5.010
96851W        W65069  21.650  41.911  11.985
96852W        W65070   2.019  13.843  11.784
96853W        W65071  20.681   5.103   0.372
96854W        W65072  36.801   6.247   4.997
96855W        W65073  33.969  24.251   4.410
96856W        W65074   8.606  12.188  14.979
96857W        W65075  15.063   3.735   2.923
96858W        W65076  15.733  43.365   2.838
96859W        W65077  24.265   1.124   2.735
96860W        W65078   3.803  18.604   2.718
96861W        W65079  44.102   9.650   0.769
96862W        W65080   8.891  14.281  14.741
96863W        W65081  39.070   3.757   1.413
96864W        W65082  10.822   0.385   3.489
96865W        W65083   8.548  33.379  13.962
96866W        W65084  27.523  10.005  13.987
96867W        W65085  11.658   4.382  13.647
96868W        W65086  18.179  18.069  12.399
96869W        W65087  40.760  31.264  13.458
96870W        W65088  32.393  33.272  14.963
96871W        W65089  33.164  41.490  13.366
96872W        W65090   1.964  38.551   3.870
96873W        W65091  44.668  26.142   4.846
96874W        W65092   4.904  32.320  12.899
96875W        W65093  25.515   7.889  10.668
96876W        W65094  26.690  16.428  11.228
96877W        W65095  44.735   0.835   2.354
96878W        W65096  42.385  40.407   1.177
96879W        W65097  17.309  18.501   1.952
96880W        W65098  22.766  11.615  10.234
96881W        W65099  17.662   5.613  13.539
96882W        W65100  19.205  21.719  11.570
96883W        W65101   5.142   7.907  13.065
96884W        W65102   0.728  35.490   2.770
96885W        W65103  15.317  29.660   2.946
96886W        W65104  30.045   5.198  13.424
96887W        W65105   7.227  22.022  13.733
96888W        W65106  24.683  36.559  11.233
96889W        W65107   6.691  10.155  11.594
96890W        W65108   4.957  23.937   2.270
96891W        W65109  23.482   4.403   1.710
96892W        W65110  21.147  27.690  14.186
96893W        W65111   7.459  42.219   3.594
96894W        W65112  20.614  22.579  10.547
96895W        W65113   3.311  27.943   0.257
96896W        W65114  24.637  27.289   1.706
96897W        W65115  40.563  15.011   1.531
96898W        W65116  41.494  40.244  10.658
96899W        W65117  12.389  29.871   3.427
96900W        W65118  15.892  18.791   5.083
96901W        W65119   0.068  27.554  14.440
96902W        W65120  24.719   9.723   3.690
96903W        W65121  27.714  36.714  14.207
96904W        W65122   3.395  27.007   1.939
96905W        W65123  38.823  12.564  11.517
96906W        W65124   0.895  43.871  13.473
96907W        W65125  31.826   9.128   5.061
96908W        W65126  19.106   4.873  10.339
96909W        W65127  13.285  12.704   3.320
96910W        W65128  42.850  39.537   3.178
96911W        W65129  22.193  35.557   1.679
96912W        W65130  37.488  34.446   4.689
96913W        W65131  17.620  40.316  12.062
96914W        W65132   3.850   5.503   3.627
96915W        W65133   1.546  35.006   1.163
96916W        W65134  21.183  15.068   2.351
96917W        W65135  15.964  34.520  14.520
96918W        W65136   1.748  18.252  13.369
96919W        W65137  34.706  29.057  13.410
96920W        W65138   1.196  43.156   2.333
96921W        W65139  23.241  26.178  14.538
96922W        W65140  21.097   7.278  13.841
96923W        W65141  40.285   3.220   4.054
96924W        W65142   0.516  41.498   2.234
96925W        W65143  25.482   8.464  14.887
96926W        W65144  16.420  38.364   2.313
96927W        W65145  24.672  34.429   1.972
96928W        W65146   6.450   7.178   3.696
96929W        W65147  35.194   5.022   0.183
96930W        W65148  16.662  25.199   3.813
96931W        W65149  29.471   5.551   1.743
96932W        W65150  30.976  28.032  13.084
96933W        W65151  14.006  31.163   4.201
96934W        W65152  33.811  33.316  11.082
96935W        W65153  41.896   2.268   4.656
96936W        W65154  36.963   3.215   0.216
96937W        W65155  15.508  17.036  11.879
96938W        W65156  24.803  13.676  14.425
96939W        W65157   6.797  44.905  12.527
96940W        W65158  30.530  26.232  14.703
96941W        W65159  23.799   3.024   0.950
96942W        W65160  26.594  43.615   1.912
96943W        W65161  14.768  13.518  11.069
96944W        W65162  20.222   9.622   3.817
96945W        W65163   6.438  26.569   4.066
96946W        W65164   2.391   6.309  13.067
96947W        W65165  25.257  22.253   0.731
96948W        W65166   2.882  36.345   3.199
96949W        W65167  24.169  16.653  10.620
96950W        W65168  10.171  12.244   1.731
96951W        W65169  38.173  15.814  12.531
96952W        W65170  36.595  15.287  14.871
96953W        W65171  42.874   1.235   1.380
96954W        W65172  34.338  29.128   2.297
96955W        W65173  34.001  29.895  13.373
96956W        W65174  13.898  26.040  13.888
96957W        W65175  10.291   4.147  11.628
96958W        W65176  35.626  20.101  12.520
96959W        W65177  28.644  11.283  13.745
96960W        W65178   6.670  27.673   0.117
96961W        W65179   3.677   8.090   2.248
96962W        W65180  33.192   9.448  14.004
96963W        W65181  33.985  35.375   4.549
96964W        W65182   2.725  27.193   2.554
96965W        W65183  35.793  17.831   3.711
96966W        W65184  21.711  34.401  12.334
96967W        W65185  20.827   7.678   1.758
96968W        W65186  37.802  18.774   3.788
96969W        W65187  40.908  21.124  13.763
96970W        W65188  35.051  39.522  13.524
96971W        W65189  26.035   2.319  12.989
96972W        W65190  29.096  36.372  14.224
96973W        W65191   9.125  14.481  14.242
96974W        W65192   1.070  31.482  12.166
96975W        W65193  39.436  40.545   4.843
96976W        W65194  36.066  11.107   1.905
96977W        W65195   6.908   8.676   2.843
96978W        W65196  13.531   8.909   2.936
96979W        W65197   5.238  30.856  10.658
96980W        W65198  32.724   7.540  13.446
96981W        W65199   1.850  17.033   2.371
96982W        W65200  44.787  37.053   4.185
96983W        W65201   0.732  19.013   5.162
96984W        W65202  42.023  31.114   1.463
96985W        W65203  26.039  29.611   1.494
96986W        W65204  11.280  14.568   0.982
96987W        W65205  18.164  18.917  11.419
96988W        W65206  38.906   6.911   1.004
96989W        W65207  12.184   4.421   4.242
96990W        W65208   3.654  12.600  13.933
96991W        W65209  21.754  13.304  13.457
96992W        W65210  21.380  36.372   2.353
96993W        W65211   9.580  41.797  12.411
96994W        W65212  29.602  32.045   0.939
96995W        W65213  32.638  37.873  13.019
96996W        W65214  23.006  28.125   0.719
96997W        W65215  19.957   4.513   0.219
96998W        W65216  20.249  19.671  11.978
96999W        W65217   8.834   3.563   4.505
97000W        W65218  42.038  29.626  13.905
97001W        W65219  27.664  43.820   0.658
97002W        W65220  31.201  29.117  11.940
97003W        W65221  41.399  13.305  14.918
97004W        W65222  22.686  29.574   1.208
97005W        W65223  14.795  26.054  10.548
97006W        W65224   3.533   9.176   0.538
97007W        W65225   5.487  29.488   1.985
97008W        W65226  19.423  25.959  12.960
97009W        W65227  35.078  23.274   3.677
97010W        W65228   9.145  36.002   3.894
97011W        W65229  42.502  15.584  13.386
97012W        W65230  12.816   2.479   0.033
97013W        W65231  20.166  25.786  11.959
97014W        W65232  30.917  19.070  13.860
97015W        W65233   3.198   7.318   3.765
97016W        W65234  27.403  18.247   3.799
97017W        W65235  41.320  14.811   3.715
97018W        W65236   2.744  31.548  13.532
97019W        W65237  11.347  15.755  11.172
97020W        W65238  35.069  10.871   4.067
97021W        W65239   3.751  18.115   0.663
97022W        W65240  38.260  16.591  11.311
97023W        W65241  20.315  14.352  11.460
97024W        W65242  37.846  31.135  13.388
97025W        W65243  32.573   9.872  14.287
97026W        W65244   5.714  20.570  12.149
97027W        W65245  44.688  40.348   4.192
97028W        W65246  17.730  34.874   3.346
97029W        W65247  43.044  37.788  12.977
97030W        W65248  21.547   4.622   0.447
97031W        W65249  16.323  38.053  13.515
97032W        W65250  23.175  31.466   2.357
97033W        W65251  20.215  26.188   2.686
97034W        W65252  38.532  24.966  12.095
97035W        W65253   5.883   6.472   0.743
97036W        W65254  22.266  32.500   0.908
97037W        W65255  16.208   2.137  12.558
97038W        W65256  41.737  21.708  14.839
97039W        W65257   8.479  44.818   4.452
97040W        W65258  13.876  13.118   4.304
97041W        W65259   1.770  19.732  14.406
97042W        W65260  34.015  33.527  10.650
97043W        W65261  30.618  16.825  13.909
97044W        W65262  30.003   6.240   4.426
97045W        W65263  44.736   6.275  14.437
97046W        W65264   4.397   8.370   2.223
97047W        W65265   7.531  33.557   4.997
97048W        W65266  28.243  31.158   4.228
97049W        W65267   7.075  36.885   4.493
97050W        W65268   5.656  18.208  14.942
97051W        W65269   0.153  41.585  14.986
97052W        W65270  35.517  16.788  11.784
97053W        W65271  31.503  14.008  12.499
97054W        W65272  13.551  16.933   0.958
97055W        W65273  34.181  26.577  11.283
97056W        W65274  28.149  31.891  13.991
97057W        W65275  34.451  10.764   4.138
97058W        W65276  40.935   6.291   2.832
97059W        W65277  23.256   8.239  14.534
97060W        W65278  26.137  27.906   3.835
97061W        W65279  20.989  41.101  12.071
97062W        W65280  12.775  19.755   4.677
97063W        W65281  44.048   1.293   3.312
97064W        W65282  27.457   5.607  14.506
97065W        W65283  13.846  11.689   4.227
97066W        W65284  41.789  18.020  11.378
97067W        W65285  28.273  29.060  12.805
97068W        W65286  43.435  30.992  14.459
97069W        W65287   6.603  32.662  13.017
97070W        W65288  28.750  37.225   2.281
97071W        W65289  29.040  21.835   3.310
97072W        W65290   6.646  30.508   3.720
97073W        W65291   5.802  34.367   3.557
97074W        W65292   0.808  41.068   2.597
97075W        W65293  27.673  16.073  12.050
97076W        W65294   2.171  22.853  11.403
97077W        W65295  29.130   6.466   3.789
97078W        W65296  42.467  21.603  13.089
97079W        W65297   3.646  44.759   2.385
97080W        W65298  28.634   3.790  13.767
97081W        W65299  24.730  10.153  12.137
97082W        W65300  27.022   2.152  10.634
97083W        W65301  27.113  17.527   2.520
97084W        W65302  24.460  39.268   1.411
97085W        W65303  38.595   3.543   1.323
97086W        W65304  31.152  14.064  14.925
97087W        W65305  39.066  28.158   2.809
97088W        W65306  39.000   0.778   0.434
97089W        W65307  35.771  22.157   0.980
97090W        W65308  20.742  19.041   0.207
97091W        W65309  44.123  23.562  13.498
97092W        W65310   0.056  30.775   2.245
97093W        W65311  23.711  15.615  13.292
97094W        W65312  40.053  33.967   2.137
97095W        W65313  29.258  21.251   0.328
97096W        W65314   0.942  34.467   3.598
97097W        W65315   8.624   7.909   3.939
97098W        W65316  28.392  36.642  10.419
97099W        W65317  42.290  15.326  13.957
97100W        W65318  40.119   1.771   3.388
97101W        W65319  24.023  26.992  10.318
97102W        W65320  31.833  30.053   0.382
97103W        W65321  31.603   7.287  11.754
97104W        W65322  39.925  32.331   4.108
97105W        W65323  37.458  39.348  10.743
97106W        W65324  20.571  19.356   4.152
97107W        W65325  32.099  17.491  11.162
97108W        W65326  34.860  33.102  11.992
97109W        W65327  16.024   9.942   2.988
97110W        W65328  11.301  30.132  10.621
97111W        W65329   1.241  31.500  10.756
97112W        W65330  41.601  44.701   0.439
97113W        W65331   5.142  14.700  14.759
97114W        W65332   0.974  13.695   4.844
97115W        W65333   5.350   2.964  10.877
97116W        W65334  23.065  12.923   3.631
97117W        W65335  37.530   9.731   4.529
97118W        W65336  13.108  23.001  11.778
97119W        W65337  39.504   5.926   2.274
97120W        W65338  26.617  21.498  11.975
97121W        W65339  37.961  38.794  10.649
97122W        W65340   7.200   3.250   3.733
97123W        W65341  32.063  36.605  13.099
97124W        W65342  39.759  14.805  11.152
97125W        W65343  14.722  16.732  13.313
97126W        W65344   1.001  19.207   4.737
97127W        W65345  13.709  35.347   2.719
97128W        W65346  13.337  16.160  14.667
97129W        W65347   1.016  11.613  10.283
97130W        W65348  32.612  30.100   3.934
97131W        W65349  17.769  24.639  14.845
97132W        W65350  42.692   1.211  10.616
97133W        W65351  17.039  33.104   4.839
97134W        W65352  37.818   4.249  13.028
97135W        W65353  34.405  15.842  14.466
97136W        W65354   4.670   5.027   4.941
97137W        W65355  27.030  40.053  14.235
97138W        W65356   5.792  27.052  10.828
97139W        W65357  17.430  37.457   1.285
97140W        W65358  16.697  30.982   2.417
97141W        W65359   6.396  33.730   1.501
97142W        W65360  27.494  23.670  13.097
97143W        W65361  25.074  33.884  14.581
97144W        W65362  34.125   7.772   1.808
97145W        W65363  13.193  41.988  13.176
97146W        W65364  32.118  33.051   1.399
97147W        W65365  19.649  34.908   3.369
97148W        W65366  13.691  30.608  13.985
97149W        W65367  18.712   6.255  12.023
97150W        W65368  41.830  38.925  10.563
97151W        W65369  25.100  22.591  11.992
97152W        W65370  11.743  42.452   2.656
97153W        W65371  12.427  31.419  13.133
97154W        W65372  11.189   1.713   3.333
97155W        W65373  42.623  23.076  13.118
97156W        W65374  37.024  21.613  11.967
97157W        W65375  42.309  17.763   4.122
97158W        W65376  17.418  36.774  12.013
97159W        W65377  27.626  40.139  12.357
97160W        W65378  18.464  27.932  11.142
97161W        W65379  42.314  37.520   0.008
97162W        W65380  37.432  37.331   4.479
97163W        W65381  10.858  37.569  12.922
97164W        W65382  41.955  29.922   3.639
97165W        W65383  34.652  29.693  12.834
97166W        W65384  17.873  21.343   0.422
97167W        W65385  44.706  34.525  11.558
97168W        W65386   5.799  10.436   1.785
97169W        W65387   7.352   0.223   3.138
97170W        W65388  43.860  32.666   3.785
97171W        W65389  15.157  43.000   1.799
97172W        W65390  39.898   5.314  13.608
97173W        W65391   3.942   8.556  14.826
97174W        W65392   3.304  12.570   2.881
97175W        W65393  36.008  21.820   3.353
97176W        W65394  42.323  32.967   4.073
97177W        W65395  16.414  41.488  13.996
97178W        W65396   5.740  16.508  14.451
97179W        W65397  38.417  15.592   4.203
97180W        W65398  22.712  10.899   4.569
97181W        W65399  34.674  41.217   2.308
97182W        W65400   1.838  43.728   1.258
97183W        W65401   8.310   7.935  14.259
97184W        W65402  17.571  29.582  12.378
97185W        W65403  20.763  36.548  14.436
97186W        W65404  34.114  14.801  14.728
97187W        W65405  30.923  35.452   3.223
97188W        W65406   7.662   7.629   2.617
97189W        W65407  35.943  31.116  10.618
97190W        W65408  19.229  36.883   0.004
97191W        W65409  26.106  25.651  10.249
97192W        W65410  10.953  23.037  11.433
97193W        W65411  40.357  33.125   0.874
97194W        W65412  25.279   4.404   3.186
97195W        W65413  24.177  27.702  12.530
97196W        W65414  23.088  38.915   2.165
97197W        W65415  38.071  22.134   4.358
97198W        W65416  26.669  44.417   2.731
97199W        W65417  10.626  26.159   4.312
97200W        W65418  15.512   2.744  12.564
97201W        W65419  39.372  16.556  10.367
97202W        W65420  38.389  15.665  14.298
97203W        W65421  34.135   8.309   0.892
97204W        W65422  28.717   9.557   2.126
97205W        W65423  22.715  31.913   5.036
97206W        W65424   4.008  15.921  12.288
97207W        W65425  32.010   5.922   5.399
97208W        W65426  19.109   9.509  11.688
97209W        W65427  20.301  21.957   0.860
97210W        W65428   0.942  35.948   1.648
97211W        W65429   3.901  29.351  11.487
97212W        W65430  31.395  41.415   1.333
97213W        W65431   9.851  31.008   2.653
97214W        W65432   0.280  36.775   4.241
97215W        W65433  14.715   4.773  12.997
97216W        W65434   9.121  29.419   2.471
97217W        W65435  25.745  15.771   1.275
97218W        W65436   0.140  30.265  11.972
97219W        W65437  30.534  24.980  13.387
97220W        W65438  38.334  29.638  14.502
97221W        W65439  38.066  25.466  14.002
97222W        W65440  13.768   7.912   4.312
97223W        W65441   2.515  21.616  13.528
97224W        W65442   1.036  16.765   0.187
97225W        W65443  22.704  28.616   1.515
97226W        W65444  16.736   2.843  10.656
97227W        W65445  40.873  43.604   2.136
97228W        W65446  32.365  44.383   3.244
97229W        W65447  42.770  11.931   0.889
97230W        W65448  41.851  23.823  13.051
97231W        W65449  40.463  32.954   3.667
97232W        W65450   6.480  23.094  13.306
97233W        W65451  12.322  37.559  14.620
97234W        W65452  26.948   9.218  13.231
97235W        W65453  41.295  10.201   3.680
97236W        W65454  41.910  33.992  11.354
97237W        W65455  13.307  19.141  12.602
97238W        W65456  21.328  44.000   1.496
97239W        W65457  40.112  18.364   4.887
97240W        W65458   7.191   4.123  11.594
97241W        W65459  20.761  36.878  12.114
97242W        W65460  37.380  23.187  11.435
97243W        W65461  10.800  17.643   2.864
97244W        W65462  18.508  14.879   3.039
97245W        W65463  32.921  10.994   3.066
97246W        W65464  23.195  42.994   1.478
97247W        W65465  27.281  32.843  14.310
97248W        W65466  10.204   4.932   3.534
97249W        W65467  25.982  39.989   1.546
97250W        W65468  22.856  16.619  11.569
97251W        W65469  10.412  40.596  12.103
97252W        W65470  32.412  16.775  11.628
97253W        W65471  14.521  39.502  13.450
97254W        W65472  33.866  41.405  14.422
97255W        W65473   4.333   0.236  11.130
97256W        W65474  40.322  33.968   3.111
97257W        W65475  11.338  34.799   2.790
97258W        W65476  21.713  12.744   4.505
97259W        W65477   1.212  17.685   3.498
97260W        W65478  37.492  43.135  12.808
97261W        W65479  36.209  35.585  11.126
97262W        W65480  44.436  41.371   1.874
97263W        W65481  43.403  28.759   4.334
97264W        W65482   8.407  30.969  13.530
97265W        W65483  21.208  16.250   1.805
97266W        W65484   9.360  36.809  11.619
97267W        W65485   1.719  30.471  14.262
97268W        W65486   2.236  19.562   0.556
97269W        W65487  17.157  44.554   2.859
97270W        W65488  38.120  39.505  11.534
97271W        W65489  13.718  14.855  10.973
97272W        W65490   5.079  39.985  10.463
97273W        W65491   3.241  29.143   3.588
97274W        W65492  28.897  17.335   4.127
97275W        W65493   1.869   5.386  11.129
97276W        W65494  40.674   8.594   4.896
97277W        W65495  31.188   4.767  12.018
97278W        W65496  26.747  34.250  10.758
97279W        W65497  24.980  28.442  10.739
97280W        W65498   4.219  43.097   4.492
97281W        W65499  24.108   2.377  10.695
97282W        W65500   7.333  12.316  14.309
97283W        W65501  42.473  17.560  13.617
97284W        W65502  33.307  39.014  11.545
97285W        W65503  16.451  20.537  13.844
97286W        W65504  14.218   4.209  14.586
97287W        W65505   5.925   1.434   0.271
97288W        W65506  27.171   5.342   2.287
97289W        W65507  27.822  26.494   0.422
97290W        W65508  19.339  42.918   3.438
97291W        W65509  23.035  16.859   0.189
97292W        W65510  14.453   5.733  12.977
97293W        W65511  34.893  14.625   0.963
97294W        W65512  10.703  42.418   1.368
97295W        W65513   8.321  23.683  11.106
97296W        W65514  24.655  25.223  10.446
97297W        W65515  42.115  18.360   2.192
97298W        W65516  25.042  30.131   4.256
97299W        W65517  17.259  41.595  10.568
97300W        W65518  18.420   2.191  10.891
97301W        W65519  29.791  27.999   1.307
97302W        W65520  29.123  11.319  14.293
97303W        W65521  35.446  12.918  13.387
97304W        W65522  43.098  35.200  10.526
97305W        W65523  32.845  36.591  13.407
97306W        W65524   1.677  21.121   1.117
97307W        W65525  11.850   9.323  14.388
97308W        W65526  41.072  14.628  12.952
97309W        W65527  15.367  29.171  12.154
97310W        W65528   2.755  29.974  14.606
97311W        W65529  17.102  34.598  13.971
97312W        W65530  35.591  15.824  12.066
97313W        W65531  42.670  25.300   0.024
97314W        W65532  16.655  41.131   0.064
97315W        W65533  43.482  19.660  11.707
97316W        W65534  41.688   0.455  14.197
97317W        W65535   4.889  23.044   0.481
97318W        W65536  24.234  35.542   4.103
97319W        W65537  39.110   3.661  11.955
97320W        W65538  13.860  38.943  12.380
97321W        W65539  31.927  20.160   1.720
97322W        W65540  20.009  22.785  11.193
97323W        W65541  39.821   3.575   5.264
97324W        W65542  14.593  14.164   2.520
97325W        W65543  34.485  34.370   1.089
97326W        W65544  20.030  40.066   3.807
97327W        W65545  36.203  42.905   2.179
97328W        W65546  39.511  41.937   1.384
97329W        W65547  34.395  28.050   1.800
97330W        W65548   4.562  18.126  11.809
97331W        W65549   9.622  18.051  11.952
97332W        W65550  30.364  31.658   2.239
97333W        W65551  12.190  39.020   1.695
97334W        W65552  21.595  25.231  12.013
97335W        W65553  21.643   9.255  11.123
97336W        W65554   1.308  33.153   2.265
97337W        W65555  32.170  35.119   1.448
97338W        W65556  21.742  11.298  13.423
97339W        W65557  23.072  41.015  11.912
97340W        W65558  12.424  23.893  11.188
97341W        W65559  44.892  19.698   0.021
97342W        W65560   9.550  16.805  14.532
97343W        W65561   7.124   9.466   1.752
97344W        W65562  17.428  16.597  11.969
97345W        W65563  13.635  24.352   2.323
97346W        W65564  44.026  36.323   4.749
97347W        W65565  12.239  32.591   2.269
97348W        W65566   9.557  41.437  12.039
97349W        W65567  11.109  22.178  12.898
97350W        W65568   7.228  26.754  13.302
97351W        W65569  23.136   4.312   0.176
97352W        W65570   2.211   3.323  13.795
97353W        W65571  43.663  44.570   9.839
97354W        W65572  10.131  19.340   1.102
97355W        W65573   6.165  17.103   1.778
97356W        W65574  35.800  39.948  12.559
97357W        W65575  17.999  25.040   2.290
97358W        W65576  11.223  19.637   4.619
97359W        W65577  28.669   1.887   0.446
97360W        W65578  37.944   3.539   0.023
97361W        W65579  40.737  42.309  13.481
97362W        W65580  19.185  15.290  14.548
97363W        W65581  13.159  42.971  13.304
97364W        W65582  24.071  42.951  13.411
97365W        W65583  42.250  23.106   1.281
97366W        W65584  32.912  20.765   0.882
97367W        W65585   4.890  28.469  14.562
97368W        W65586  19.054   1.283   3.893
97369W        W65587  43.374  30.178  14.062
97370W        W65588  39.281  31.490  10.790
97371W        W65589   6.946  14.266  12.361
97372W        W65590  21.538   8.868  14.766
97373W        W65591  31.319   1.866   2.393
97374W        W65592   4.022  13.192   1.941
97375W        W65593  12.163  43.214   0.308
97376W        W65594  27.670  27.054   4.547
97377W        W65595  41.922   2.772   4.567
97378W        W65596  29.006  19.972  13.376
97379W        W65597  26.525  38.350   0.323
97380W        W65598  32.943  10.563   1.479
97381W        W65599  29.524   9.113  14.489
97382W        W65600   4.048   0.832  10.923
97383W        W65601  28.479   6.632   4.949
97384W        W65602   0.368   4.099  10.776
97385W        W65603  35.162   2.305   2.520
97386W        W65604  37.506   1.917   3.662
97387W        W65605  26.144  13.918   1.900
97388W        W65606  13.362  15.735  12.077
97389W        W65607  11.672  17.095  14.757
97390W        W65608  24.704  36.483   2.790
97391W        W65609  25.652   9.934   3.232
97392W        W65610  17.162  41.342   3.536
97393W        W65611  31.986  16.652   3.195
97394W        W65612  32.386  16.695   4.201
97395W        W65613  36.272  42.400   2.308
97396W        W65614  43.304  32.580   4.156
97397W        W65615  19.832   5.606   1.899
97398W        W65616   3.839   5.825   0.178
97399W        W65617   9.177  37.832  12.536
97400W        W65618  34.890  32.141  13.536
97401W        W65619   2.919  41.675  10.852
97402W        W65620   5.320  33.232   4.487
97403W        W65621   6.584  36.891   2.717
97404W        W65622   7.845  13.638   4.592
97405W        W65623  43.488  37.810   1.361
97406W        W65624  33.980   7.998   4.044
97407W        W65625  17.830  25.472  12.444
97408W        W65626   2.789  38.781  12.502
97409W        W65627   4.014  13.637   0.273
97410W        W65628  11.053  19.718   2.668
97411W        W65629  17.024  34.066   1.126
97412W        W65630  37.033  42.948   3.795
97413W        W65631  31.996  36.157   0.387
97414W        W65632   8.849  44.744   4.119
97415W        W65633  13.060  26.678   9.936
97416W        W65634  34.347   6.089  14.940
97417W        W65635  41.424  37.997   4.541
97418W        W65636   7.951  24.696  12.539
97419W        W65637   7.336   4.787   4.890
97420W        W65638  32.165  43.048   9.939
97421W        W65639  33.552  42.107   3.696
97422W        W65640  23.519  18.605   3.282
97423W        W65641  35.965  37.772  12.518
97424W        W65642  21.018  41.781  14.941
97425W        W65643  21.191  20.133   1.949
97426W        W65644  10.358  28.225  13.770
97427W        W65645  23.269  37.417   0.160
97428W        W65646  20.760  16.743  14.403
97429W        W65647  39.608  43.088  11.528
97430W        W65648  19.308  32.134   1.451
97431W        W65649   3.669  14.587  13.141
97432W        W65650  10.287   1.566  11.163
97433W        W65651   1.911  23.040   0.333
97434W        W65652  27.516  43.351   2.932
97435W        W65653  27.417  23.537   2.197
97436W        W65654  26.309  31.424  14.273
97437W        W65655  19.566  43.339   3.666
97438W        W65656  21.400   9.092   4.156
97439W        W65657  38.899   5.632  11.167
97440W        W65658  44.410  30.435   2.895
97441W        W65659  36.526  10.708  14.398
97442W        W65660  42.008  13.625  11.642
97443W        W65661  30.479   1.801  14.686
97444W        W65662  20.692  40.302  13.829
97445W        W65663  44.744   6.274  11.964
97446W        W65664  23.470  36.170  13.411
97447W        W65665  17.287  35.863  12.134
97448W        W65666   4.151   7.773  13.948
97449W        W65667  35.955  37.638   5.045
97450W        W65668  35.120   8.669   0.880
97451W        W65669  32.802  24.704  13.262
97452W        W65670  19.291  39.582  14.353
97453W        W65671  15.680   3.811   4.156
97454W        W65672   7.387  11.405  11.583
97455W        W65673   5.667  31.056   2.682
97456W        W65674  25.618  43.732  13.253
97457W        W65675  41.873  11.901  14.449
97458W        W65676  36.104  40.328   0.228
97459W        W65677  38.446  16.732   2.237
97460W        W65678   8.178   3.351  11.594
97461W        W65679  24.013  31.085  14.029
97462W        W65680   3.550  38.334  14.222
97463W        W65681  16.006  27.174   2.634
97464W        W65682  16.962  20.465  13.865
97465W        W65683  14.203  11.079   0.212
97466W        W65684  37.793  39.976   4.573
97467W        W65685   5.110  21.221  10.981
97468W        W65686  27.272  11.691   3.142
97469W        W65687  39.841  21.327   4.673
97470W        W65688  17.765  23.919  11.541
97471W        W65689  21.979  36.180   3.997
97472W        W65690  34.389  44.294   3.230
97473W        W65691   2.164  32.167   0.791
97474W        W65692  25.747   8.509  12.038
97475W        W65693  16.618  20.668   1.291
97476W        W65694  29.698  26.045  14.463
97477W        W65695   1.301  27.455  13.829
97478W        W65696  39.104   3.193  14.769
97479W        W65697   8.653  20.749   3.733
97480W        W65698  44.813   9.630   2.619
97481W        W65699  35.329   1.529   9.713
97482W        W65700   3.455  15.220  12.034
97483W        W65701  11.539   2.447   4.176
97484W        W65702  23.690  29.563   4.207
97485W        W65703   0.784  27.365   3.805
97486W        W65704  41.153  42.344   3.241
97487W        W65705  42.244   0.316  13.332
97488W        W65706  40.726   8.682   2.795
97489W        W65707  38.042  35.762   0.855
97490W        W65708  21.036  13.184  13.043
97491W        W65709   4.809   3.420  11.368
97492W        W65710  44.146   5.492   0.727
97493W        W65711   2.312   6.724   1.362
97494W        W65712  15.237  35.072  12.931
97495W        W65713  21.930  13.656   3.110
97496W        W65714  22.118  30.348   4.736
97497W        W65715   7.730   1.731   0.361
97498W        W65716  29.746  30.892   3.360
97499W        W65717  33.930  34.378  14.311
97500W        W65718  42.128  17.236  13.956
97501W        W65719   8.598  29.086  12.464
97502W        W65720  41.347  40.894   2.680
97503W        W65721  23.706  16.810   3.818
97504W        W65722  36.471  15.769   1.679
97505W        W65723  29.533   0.923   4.638
97506W        W65724  10.900   5.338   3.153
97507W        W65725   3.358   9.276  12.916
97508W        W65726  16.589  29.954   1.904
97509W        W65727   0.952  23.950  11.220
97510W        W65728  10.877  28.125  11.888
97511W        W65729  25.562   8.563   5.343
97512W        W65730  24.195  30.706   0.345
97513W        W65731  28.148  32.253   4.937
97514W        W65732  23.084  42.006  11.337
97515W        W65733   7.626  14.311   1.814
97516W        W65734  18.213   1.954  11.511
97517W        W65735   8.452  41.946  11.738
97518W        W65736  44.034  23.687   4.584
97519W        W65737  22.791  34.672   4.285
97520W        W65738   6.767   9.900  11.118
97521W        W65739   5.952   4.898   1.763
97522W        W65740  17.779   4.966  12.679
97523W        W65741   6.417  18.253   2.188
97524W        W65742   5.642   0.705  13.109
97525W        W65743  33.432  26.704   4.026
97526W        W65744  15.457  29.459  11.208
97527W        W65745  18.877  41.311   1.441
97528W        W65746  21.626  37.983   0.956
97529W        W65747  33.383  41.521   1.438
97530W        W65748  38.823  19.455   2.865
97531W        W65749  24.202  34.696   4.594
97532W        W65750  12.119  17.476   4.586
97533W        W65751   4.065   7.187  11.086
97534W        W65752  10.506  13.875  11.039
97535W        W65753  31.357  31.028  12.546
97536W        W65754  13.784  19.638  11.480
97537W        W65755  22.560  38.862   0.448
97538W        W65756  44.834   3.672   2.353
97539W        W65757  22.918  38.626  12.370
97540W        W65758  13.178  33.410  10.523
97541W        W65759  17.055  12.893  12.523
97542W        W65760  41.524  19.613   1.340
97543W        W65761   6.569  40.454  13.912
97544W        W65762  34.586  14.112   1.346
97545W        W65763  12.886  14.113   4.955
97546W        W65764  11.270  31.273   4.861
97547W        W65765  38.632  36.928  14.325
97548W        W65766   5.332   7.002  12.981
97549W        W65767  12.862  11.141  11.502
97550W        W65768  27.903  24.136   3.701
97551W        W65769  20.501   5.389  14.975
97552W        W65770  10.482   8.986   1.389
97553W        W65771  20.123  24.619  11.005
97554W        W65772   9.164   2.171  14.915
97555W        W65773  38.017  20.598   0.285
97556W        W65774  28.075  12.503   4.552
97557W        W65775  19.200  24.282  14.376
97558W        W65776  18.045  25.179   1.782
97559W        W65777  43.420  26.669  12.064
97560W        W65778  35.272   2.087   4.631
97561W        W65779  23.937   3.869   3.250
97562W        W65780  13.692  14.169  13.997
97563W        W65781  11.852  42.532  14.416
97564W        W65782  22.290  31.025  14.717
97565W        W65783   1.297  31.899   1.685
97566W        W65784  44.295   5.343   2.069
97567W        W65785   0.823   9.110   1.192
97568W        W65786  11.035   7.650   2.842
97569W        W65787  27.242  15.275   3.119
97570W        W65788  12.348  38.508  10.618
97571W        W65789   7.819  18.503  11.331
97572W        W65790  34.583  31.716  12.395
97573W        W65791   9.224  18.334   3.719
97574W        W65792  44.207  25.885   4.669
97575W        W65793  22.189  10.382   1.287
97576W        W65794  21.671  40.591   0.320
97577W        W65795  22.564  28.180   4.893
97578W        W65796  16.681  40.833  14.314
97579W        W65797  37.063  10.827   2.453
97580W        W65798  32.194   4.610  13.102
97581W        W65799  23.942  24.441  13.871
97582W        W65800  43.056  29.754   2.244
97583W        W65801  21.237  24.207  10.708
97584W        W65802   6.715  34.407   4.565
97585W        W65803  26.544  32.381  11.634
97586W        W65804  43.312  12.663   3.228
97587W        W65805  20.146  42.615  11.117
97588W        W65806  18.627  16.736   4.676
97589W        W65807  44.751   8.070  11.155
97590W        W65808   6.333   0.419   2.246
97591W        W65809  14.240  41.042   0.499
97592W        W65810  17.259  33.910  14.901
97593W        W65811   4.787  22.608  10.141
97594W        W65812  20.975  36.856  12.597
97595W        W65813  26.611  20.056  14.053
97596W        W65814  26.015  16.664   2.572
97597W        W65815  29.333   4.898  13.497
97598W        W65816  19.587  13.752  14.841
97599W        W65817  20.443  20.350   3.725
97600W        W65818  24.571   4.678  12.590
97601W        W65819  21.652  44.253   1.867
97602W        W65820  24.521  24.932   1.886
97603W        W65821  17.273  36.107  13.909
97604W        W65822  39.564  10.218   0.542
97605W        W65823   8.442  16.660   0.316
97606W        W65824  24.151   6.853   4.545
97607W        W65825  42.128   8.695   1.427
97608W        W65826   9.019  11.426  10.371
97609W        W65827   6.119  34.492  12.965
97610W        W65828   5.345  32.412  14.889
97611W        W65829  29.966   5.093   2.800
97612W        W65830  40.342  37.130  11.275
97613W        W65831  28.148  23.062  12.242
97614W        W65832  16.982   2.207   3.284
97615W        W65833  42.918   4.449   2.722
97616W        W65834  37.311  39.991   4.394
97617W        W65835  34.426  44.024  11.486
97618W        W65836  35.289  34.362   2.192
97619W        W65837  15.721  41.730   3.710
97620W        W65838  21.972  44.416  11.259
97621W        W65839  22.775  15.823   2.301
97622W        W65840  39.232  41.347  10.466
97623W        W65841  41.092  20.689  13.983
97624W        W65842  42.412  31.853  10.682
97625W        W65843  28.717  19.055  14.937
97626W        W65844  14.710  36.143   1.973
97627W        W65845  18.967  17.370   3.228
97628W        W65846   7.256   2.295  11.645
97629W        W65847  18.047  20.134   2.881
97630W        W65848  41.874   2.059  12.006
97631W        W65849  43.981  43.082   0.234
97632W        W65850  35.005   7.048   0.792
97633W        W65851  16.752   9.313   1.367
97634W        W65852  18.996  24.039   2.250
97635W        W65853   2.089  40.026  11.917
97636W        W65854   7.730  28.494  13.494
97637W        W65855   3.194  43.237   5.317
97638W        W65856  12.597  17.267  11.575
97639W        W65857  42.917  25.215  14.081
97640W        W65858  15.159  23.500   1.919
97641W        W65859   5.736  16.046   3.645
97642W        W65860  15.839  21.039   1.006
97643W        W65861  25.210  41.488  14.857
97644W        W65862   0.441  38.041   4.610
97645W        W65863  26.162  37.115  12.554
97646W        W65864  14.405   5.230   0.413
97647W        W65865  16.374   2.909   2.879
97648W        W65866  15.592   2.764  14.367
97649W        W65867   3.495   4.721   2.641
97650W        W65868  38.111   0.176  10.788
97651W        W65869  20.232  33.069   5.115
97652W        W65870  25.147  20.017   0.388
97653W        W65871   0.222  27.693  10.626
97654W        W65872  32.183  10.260   2.818
97655W        W65873  21.527  13.041  13.085
97656W        W65874  27.914  38.306  11.944
97657W        W65875  19.488  24.791  14.003
97658W        W65876  28.110   6.436  10.299
97659W        W65877  34.719  39.948   3.152
97660W        W65878   1.583  17.353  11.190
97661W        W65879  19.491  43.722   1.332
97662W        W65880  24.237   5.215  13.874
97663W        W65881  34.380  41.460   3.673
97664W        W65882  17.040  21.509  12.894
97665W        W65883  12.348  15.203  14.428
97666W        W65884  16.643   2.691   3.695
97667W        W65885   3.989  32.604  11.213
97668W        W65886  15.731  20.987  14.837
97669W        W65887  18.505  38.674  10.172
97670W        W65888  24.796  26.412   2.866
97671W        W65889   9.269  19.568   1.670
97672W        W65890   4.223  36.463  11.430
97673W        W65891  10.737  33.832   4.175
97674W        W65892  34.019  36.962  11.228
97675W        W65893  19.007  19.176  13.625
97676W        W65894   5.322  35.637   3.792
97677W        W65895  36.934  38.347  14.956
97678W        W65896  23.478  29.703  11.607
97679W        W65897   7.718  34.752  13.433
97680W        W65898  35.431  33.096  14.906
97681W        W65899  17.298  42.407   4.740
97682W        W65900  16.891   5.417   1.136
97683W        W65901  38.955   1.825  14.790
97684W        W65902  40.945  28.628   4.302
97685W        W65903  29.424  32.050   4.205
97686W        W65904  16.221   5.378   2.425
97687W        W65905  20.416  15.352   5.063
97688W        W65906   8.543  42.199   4.612
97689W        W65907   4.773  12.138  12.375
97690W        W65908  40.848  11.448   3.442
97691W        W65909  36.496   6.320  11.603
97692W        W65910  17.757  28.929  10.718
97693W        W65911  28.063  22.171  12.594
97694W        W65912   0.050  27.655   1.328
97695W        W65913   8.669  43.441   4.078
97696W        W65914  33.546  40.573  11.492
97697W        W65915  24.903  11.690  11.520
97698W        W65916   7.275  33.627   1.411
97699W        W65917   8.364  38.979   0.457
97700W        W65918   2.193  27.484   4.257
97701W        W65919  43.240  38.021  13.405
97702W        W65920   5.042  32.525   4.252
97703W        W65921  26.615  17.576  12.111
97704W        W65922  38.761  43.160   4.189
97705W        W65923  36.890  44.293   4.949
97706W        W65924  33.891   1.967   3.716
97707W        W65925  21.979   9.519  11.432
97708W        W65926   1.305  12.139  14.866
97709W        W65927  33.504   6.839   4.290
97710W        W65928  26.533  42.996   2.888
97711W        W65929  10.353  10.620  11.468
97712W        W65930  16.292   6.202   2.910
97713W        W65931  23.916  16.119   0.353
97714W        W65932  28.168  17.050   2.240
97715W        W65933  26.167  12.346   0.821
97716W        W65934   5.249  38.091  13.209
97717W        W65935  35.042   5.527   3.636
97718W        W65936  40.908  17.381   2.400
97719W        W65937  42.933   0.885   2.651
97720W        W65938  23.808  21.064  12.404
97721W        W65939   3.317  40.873  13.422
97722W        W65940  19.228   3.002  11.378
97723W        W65941  43.032  37.935   4.591
97724W        W65942   9.405   6.045   0.460
97725W        W65943  12.334  34.927  14.536
97726W        W65944  20.829  21.586  13.503
97727W        W65945  17.003  25.005  13.356
97728W        W65946   9.734   3.273  10.751
97729W        W65947  16.570  23.994   0.463
97730W        W65948   1.551  29.618   2.805
97731W        W65949  22.189  38.200  11.173
97732W        W65950   5.564  41.349   0.297
97733W        W65951   3.265  15.713  12.006
97734W        W65952  15.508  14.556   2.718
97735W        W65953  38.929   9.167   1.815
97736W        W65954  29.983  18.589   0.834
97737W        W65955   7.526  35.961   0.614
97738W        W65956   4.465  22.040  12.249
97739W        W65957  16.506   2.065   5.410
97740W        W65958  39.107  39.763   1.283
97741W        W65959  21.554  36.533   2.902
97742W        W65960  39.967  11.766   0.167
97743W        W65961  23.783  32.449   5.032
97744W        W65962  39.545  36.856  14.763
97745W        W65963   3.888  14.869  11.319
97746W        W65964  37.371  36.403  14.393
97747W        W65965  26.584  35.736  10.823
97748W        W65966   4.461  22.648   1.780
97749W        W65967  13.595  23.602  12.918
97750W        W65968  43.517  20.748   1.308
97751W        W65969  15.159  26.451   0.753
97752W        W65970  11.804  36.999   3.837
97753W        W65971  40.259  42.799  10.471
97754W        W65972  29.270  35.045  13.976
97755W        W65973  13.320  40.290  13.000
97756W        W65974  38.380  15.876   3.349
97757W        W65975  44.485   9.357  13.929
97758W        W65976  32.279   1.166  11.548
97759W        W65977  37.502  10.654  11.639
97760W        W65978  16.867  43.020  13.433
97761W        W65979   6.447  31.695   1.829
97762W        W65980   5.231  42.793   3.169
97763W        W65981  37.076  31.863  13.300
97764W        W65982  40.148  34.768   0.089
97765W        W65983   2.770  12.181  12.135
97766W        W65984  17.272   8.409   4.398
97767W        W65985  40.718   3.409   0.844
97768W        W65986  37.342  12.438  13.441
97769W        W65987  22.431  36.689  14.871
97770W        W65988  39.949  30.823  11.470
97771W        W65989  44.636  28.557  11.614
97772W        W65990  11.915  13.426  13.615
97773W        W65991  34.352  42.175   2.309
97774W        W65992  39.848  44.664  11.991
97775W        W65993  40.281  34.897  14.610
97776W        W65994   8.115  24.128   4.276
97777W        W65995  15.709  22.514  11.673
97778W        W65996  28.492  28.147   3.395
97779W        W65997  20.221   4.852  12.509
97780W        W65998   3.108  30.883  11.645
97781W        W65999  24.337  39.393  11.181
97782W        W66000  24.683  44.534  12.099
97783W        W66001  20.228  39.345  12.795
97784W        W66002  24.249   4.852   4.388
97785W        W66003  39.983   9.378   3.274
97786W        W66004  38.275  18.771  11.046
97787W        W66005   6.635   1.102  13.379
97788W        W66006   5.127   3.783  10.848
97789W        W66007  36.064  12.317   1.349
97790W        W66008   9.648  12.354   1.765
97791W        W66009  17.780   4.457  12.529
97792W        W66010  10.802  14.224   4.216
97793W        W66011   4.245  29.354  11.976
97794W        W66012  21.686  10.811  11.704
97795W        W66013  30.519  15.781  10.669
97796W        W66014   8.945   8.290   3.149
97797W        W66015  11.898  26.520  10.888
97798W        W66016  30.955   2.934   3.655
97799W        W66017  41.314   7.143   0.977
97800W        W66018  12.624  25.123   0.868
97801W        W66019  27.972   6.286  14.804
97802W        W66020  44.979  22.236   2.290
97803W        W66021  26.418  35.961   0.801
97804W        W66022  12.629  10.111   0.338
97805W        W66023  10.168  32.225  12.078
97806W        W66024  32.088  42.865   4.987
97807W        W66025  15.065  40.985   0.895
97808W        W66026  10.163  29.613   2.190
97809W        W66027  41.297  24.930   4.570
97810W        W66028  33.016  26.948   1.631
97811W        W66029  30.462  20.906   3.158
97812W        W66030  27.598   9.775   4.126
97813W        W66031  23.215  43.240  13.959
97814W        W66032  10.253  44.072   4.694
97815W        W66033  21.178   5.447  10.585
97816W        W66034  39.120  42.883   1.319
97817W        W66035   8.347   2.663   0.900
97818W        W66036   0.371  39.320  10.921
97819W        W66037  32.849  25.737   2.999
97820W        W66038   9.696  14.592   2.870
97821W        W66039  20.567   7.503   3.260
97822W        W66040  24.813  35.980   0.248
97823W        W66041   5.869  27.512  14.460
97824W        W66042  13.433  30.614  13.081
97825W        W66043  34.950  34.966  12.115
97826W        W66044  29.084  29.482   3.291
97827W        W66045   9.283   3.673   1.637
97828W        W66046  37.627  26.735   3.674
97829W        W66047  26.101  27.703   3.040
97830W        W66048  37.476  43.322  10.733
97831W        W66049   3.350  36.314  14.275
97832W        W66050   9.954  38.510  12.007
97833W        W66051  15.255  25.581   4.450
97834W        W66052  31.898  13.481   4.439
97835W        W66053  14.862   0.720   1.275
97836W        W66054  34.885  26.685  12.336
97837W        W66055   4.429  21.716   3.601
97838W        W66056  38.839  14.258   1.885
97839W        W66057  25.979  43.091  13.432
97840W        W66058  28.089  43.905   1.450
97841W        W66059  11.067  22.605   0.015
97842W        W66060  27.917   8.375   0.931
97843W        W66061  24.024  14.840  10.691
97844W        W66062  37.995  41.486   3.781
97845W        W66063  14.653  41.844   2.191
97846W        W66064   8.876   4.214   2.228
97847W        W66065  38.108  19.601   3.266
97848W        W66066  28.626  10.289   4.088
97849W        W66067  43.768  37.130   2.907
97850W        W66068  40.970  18.897   0.934
97851W        W66069   0.950  25.977   1.298
97852W        W66070  15.378   6.769  10.491
97853W        W66071  11.584  16.976  10.182
97854W        W66072   4.918  10.123   1.361
97855W        W66073   1.258  23.645  13.808
97856W        W66074  41.007  15.308   2.389
97857W        W66075  43.018  26.757  11.692
97858W        W66076  38.843  39.978   3.163
97859W        W66077  42.559  15.117   2.317
97860W        W66078  23.975   1.974   0.145
97861W        W66079  27.568  26.373  11.179
97862W        W66080  39.767  34.437   0.251
97863W        W66081  28.318   8.802   2.745
97864W        W66082  35.147  30.935   3.659
97865W        W66083  18.749  11.923  14.231
97866W        W66084   3.331   2.440  14.385
97867W        W66085  30.140  40.531  14.418
97868W        W66086   9.254  42.967  10.135
97869W        W66087  43.732  20.740  12.354
97870W        W66088   6.677  29.159  11.679
97871W        W66089  31.096  31.118  12.989
97872W        W66090  16.572  30.469  14.797
97873W        W66091  44.040   7.377   3.904
97874W        W66092  26.782   4.121   2.244
97875W        W66093  17.204   0.494  13.953
97876W        W66094  39.313   1.434  13.502
97877W        W66095   7.760  29.072   3.673
97878W        W66096   3.545   5.236   3.290
97879W        W66097   6.868  33.065   4.623
97880W        W66098  27.583  29.621  12.474
97881W        W66099  21.668  26.886   0.015
97882W        W66100  25.768  11.385  11.170
97883W        W66101  16.029   8.942  12.094
97884W        W66102  30.617  33.103  11.589
97885W        W66103   8.829  22.009   0.965
97886W        W66104  31.630  16.728  14.780
97887W        W66105  17.247  42.652  12.263
97888W        W66106  34.129   8.186  11.526
97889W        W66107  37.939   5.252   3.178
97890W        W66108  13.586  12.819   0.895
97891W        W66109   5.139   0.715   2.419
97892W        W66110   8.416  30.460  14.032
97893W        W66111  28.318  31.530   0.826
97894W        W66112  41.255  26.668  13.042
97895W        W66113  21.668   7.459   3.938
97896W        W66114  43.757  36.240   1.078
97897W        W66115  25.028  17.805  13.940
97898W        W66116  22.489  38.462   4.823
97899W        W66117  43.454  26.939  14.007
97900W        W66118   7.067  34.082   1.080
97901W        W66119  17.585  19.151   1.792
97902W        W66120  36.107  35.350   0.383
97903W        W66121  44.228  44.248  14.957
97904W        W66122  41.261   4.667  13.551
97905W        W66123   6.330  37.433  10.445
97906W        W66124  22.659  40.807   2.609
97907W        W66125  12.134  30.459   0.036
97908W        W66126  19.598  43.683   3.222
97909W        W66127   8.199  21.409   4.200
97910W        W66128  36.448  12.848   0.913
97911W        W66129  42.041  14.924  13.261
97912W        W66130  30.431  15.361  10.379
97913W        W66131  12.302  27.723   2.432
97914W        W66132  27.718   8.955  12.002
97915W        W66133   6.192  11.695   3.276
97916W        W66134  43.846  11.119   2.344
97917W        W66135   2.157  29.063   1.683
97918W        W66136  11.576  36.771   1.752
97919W        W66137  42.812  16.788   3.767
97920W        W66138  33.872  24.623  12.004
97921W        W66139  22.271  14.177  13.828
97922W        W66140  18.288  43.808  11.128
97923W        W66141   5.314  18.501  10.801
97924W        W66142  10.426  35.526  13.328
97925W        W66143  44.961  11.783  12.982
97926W        W66144  40.507  39.110   4.663
97927W        W66145  16.549   5.927   3.699
97928W        W66146  11.685  16.309  14.375
97929W        W66147  19.707  23.171  11.034
97930W        W66148   5.347  19.770   1.278
97931W        W66149  39.767  20.006   2.690
97932W        W66150  42.839  39.429  12.026
97933W        W66151  13.392   4.286   2.208
97934W        W66152  11.795  36.900  11.651
97935W        W66153  17.771  36.079  14.071
97936W        W66154   9.824  20.990  12.513
97937W        W66155  16.139  33.357  13.782
97938W        W66156  17.729  12.083   0.311
97939W        W66157  18.132  37.648   4.127
97940W        W66158  40.809  14.852  14.465
97941W        W66159   2.787   4.486  13.326
97942W        W66160  34.871   8.264   3.859
97943W        W66161  14.950   7.639   1.688
97944W        W66162  31.420   1.251   5.493
97945W        W66163  43.232  31.258   4.846
97946W        W66164  22.274  13.131   0.366
97947W        W66165   2.766   5.165  14.070
97948W        W66166  16.732   1.814  14.756
97949W        W66167  28.769  25.427  10.713
97950W        W66168  23.464  20.313  14.748
97951W        W66169  14.645  34.051   3.313
97952W        W66170   7.230   5.341   1.619
97953W        W66171  24.112  17.122   2.444
97954W        W66172  31.837   2.866  10.073
97955W        W66173  38.015  14.022  10.985
97956W        W66174   9.849  40.543  10.514
97957W        W66175  40.014   6.458  12.587
97958W        W66176   5.608   4.739  11.232
97959W        W66177   9.355  26.608  13.964
97960W        W66178  19.318  43.766  12.435
97961W        W66179  38.982  27.446   1.729
97962W        W66180  28.059  42.952  13.807
97963W        W66181  31.909  43.273   2.398
97964W        W66182   1.011  40.745  12.062
97965W        W66183  20.528  44.058  10.334
97966W        W66184   0.940   4.875   4.587
97967W        W66185   6.343  12.774   3.698
97968W        W66186   5.652  21.060  13.757
97969W        W66187  32.577  29.604   2.152
97970W        W66188  23.701  43.357   4.685
97971W        W66189  17.181  23.576  14.875
97972W        W66190  43.374   9.658   4.120
97973W        W66191  40.294  32.132   3.803
97974W        W66192  37.601  18.376   1.968
97975W        W66193   4.784   4.851   3.178
97976W        W66194   9.363  21.501  13.390
97977W        W66195   2.702   1.744  11.676
97978W        W66196  28.851  15.612   0.433
97979W        W66197   0.815  29.491  11.594
97980W        W66198  33.047  34.461   3.740
97981W        W66199  14.331  24.155   4.169
97982W        W66200  22.747   3.801  13.001
97983W        W66201  33.453  36.162  11.949
97984W        W66202  25.797  34.374   3.087
97985W        W66203  14.191   6.148  11.945
97986W        W66204  17.142  34.625   2.337
97987W        W66205  38.010  24.974   3.702
97988W        W66206  22.730   1.805   2.793
97989W        W66207  40.656  20.754  12.144
97990W        W66208  31.328  20.838   1.910
97991W        W66209  32.859  19.607  11.095
97992W        W66210  17.094  29.606  12.158
97993W        W66211   9.594  19.721   9.518
97994W        W66212  34.510   1.962  11.635
97995W        W66213  41.280  10.160   0.134
97996W        W66214   0.346  25.832  13.495
97997W        W66215  25.576  32.563   4.151
97998W        W66216   1.288  13.317  12.056
97999W        W66217  39.946  28.291   4.170
98000W        W66218  26.345  37.492   2.498
98001W        W66219  43.350  17.627  11.510
98002W        W66220  28.098  13.616  14.295
98003W        W66221  40.851  43.314   0.457
98004W        W66222  15.658  27.001  14.739
98005W        W66223  40.530  34.945   3.786
98006W        W66224  38.529  40.499   4.605
98007W        W66225   4.185   6.931  14.387
98008W        W66226  16.933   4.470  13.361
98009W        W66227   2.853  23.086  12.506
98010W        W66228  18.513  25.613   4.390
98011W        W66229  37.836  42.912  13.140
98012W        W66230   4.943  17.862  12.124
98013W        W66231  25.995  33.439  12.023
98014W        W66232  29.987  15.226  14.280
98015W        W66233  42.054   0.236  11.775
98016W        W66234  40.770   0.702  11.860
98017W        W66235  14.560  34.997  14.000
98018W        W66236  30.661  35.486   1.750
98019W        W66237  35.085  20.094  10.417
98020W        W66238  23.728  20.736  13.542
98021W        W66239  27.535  22.292  13.078
98022W        W66240  18.674  23.527  10.610
98023W        W66241   6.340   7.178   0.839
98024W        W66242  10.858  36.070   3.671
98025W        W66243  19.071  25.204   2.734
98026W        W66244  24.090  23.146  12.422
98027W        W66245   7.307  39.885   2.324
98028W        W66246  32.137  36.544  14.524
98029W        W66247  32.508  44.732   2.904
98030W        W66248  24.695  29.567  11.071
98031W        W66249  14.306  14.137  12.546
98032W        W66250   7.613  13.129  11.978
98033W        W66251  31.855  13.830   3.537
98034W        W66252  20.968  14.141   0.084
98035W        W66253  13.624   7.709   3.861
98036W        W66254  18.016  38.770   1.901
98037W        W66255  18.315  18.702  14.827
98038W        W66256  19.151  35.960   0.434
98039W        W66257  44.028   3.650  11.146
98040W        W66258   3.904  18.515  14.436
98041W        W66259  11.360   5.436  14.913
98042W        W66260  22.776  29.640  14.492
98043W        W66261  15.996  36.609   4.057
98044W        W66262   9.801   9.751  13.913
98045W        W66263  33.610  26.511  14.374
98046W        W66264   4.405  42.923  14.668
98047W        W66265   0.136   5.460  10.581
98048W        W66266  10.049  31.879  14.999
98049W        W66267  37.940  37.343  10.619
98050W        W66268  17.041  17.109   1.356
98051W        W66269  28.723  30.403   1.525
98052W        W66270  42.910  39.313   2.698
98053W        W66271  30.662  31.535   4.599
98054W        W66272   5.691  17.082   0.397
98055W        W66273  44.779  27.912  10.491
98056W        W66274  29.959  25.925  12.116
98057W        W66275  16.191  42.435   4.592
98058W        W66276  24.563  42.765  11.260
98059W        W66277  37.836  39.470  13.806
98060W        W66278  10.686  19.307  11.214
98061W        W66279   1.700  10.259   4.334
98062W        W66280  21.174  15.132  13.609
98063W        W66281  42.925  28.652  12.839
98064W        W66282  17.267   1.503  11.573
98065W        W66283   6.236  30.998   0.386
98066W        W66284  30.638  22.541   0.645
98067W        W66285  28.262  30.539   1.766
98068W        W66286  29.160   4.949  10.604
98069W        W66287  32.643  37.398  11.141
98070W        W66288  16.495  18.847  11.419
98071W        W66289  13.921  21.009  10.207
98072W        W66290  33.986   1.896  14.022
98073W        W66291  44.425  23.679  11.365
98074W        W66292  14.225  20.437  14.926
98075W        W66293  10.879  30.190   4.169
98076W        W66294  41.578  20.984  11.093
98077W        W66295  13.083  36.008   2.759
98078W        W66296   7.047   4.701   3.518
98079W        W66297  23.276  37.518  12.139
98080W        W66298  44.055   3.307   4.873
98081W        W66299  33.532  43.810  11.971
98082W        W66300   9.272  15.570  14.794
98083W        W66301  42.893  41.171   2.248
98084W        W66302  32.428  35.356  12.808
98085W        W66303  36.126  22.851  12.495
98086W        W66304   2.819  22.641   1.908
98087W        W66305   2.154   6.407   2.739
98088W        W66306   9.249  24.140   4.550
98089W        W66307   8.210   2.750   4.357
98090W        W66308  23.156  43.986   0.305
98091W        W66309   4.343  22.968   2.196
98092W        W66310  15.256   7.612  13.454
98093W        W66311  12.430   7.774  12.049
98094W        W66312  24.036  20.130  12.752
98095W        W66313   2.007  36.440   2.743
98096W        W66314  14.114  44.271  11.673
98097W        W66315  22.500  27.932   2.254
98098W        W66316  44.216  39.974  11.176
98099W        W66317  30.362   5.761   2.246
98100W        W66318  19.124   7.577  14.870
98101W        W66319  27.593  31.933  13.954
98102W        W66320  44.203  41.491  13.857
98103W        W66321  25.697  34.555  11.486
98104W        W66322  41.988   9.108   2.768
98105W        W66323  38.859   8.328   3.166
98106W        W66324  32.910  37.462  12.087
98107W        W66325   6.210  42.722   0.878
98108W        W66326  39.067  44.486  10.663
98109W        W66327  21.760  16.179  10.863
98110W        W66328  17.117  25.437   4.611
98111W        W66329  20.238  16.703   4.875
98112W        W66330  23.781  32.902   2.793
98113W        W66331  13.246  12.804   0.226
98114W        W66332   5.506  40.702   5.318
98115W        W66333  40.263  33.483   3.749
98116W        W66334  11.765  14.503  10.709
98117W        W66335  26.566  29.438  11.047
98118W        W66336  30.656  22.892   1.058
98119W        W66337  43.519  36.825   1.214
98120W        W66338   0.328  22.985   1.300
98121W        W66339   4.314   3.891   4.358
98122W        W66340  38.368  43.363   3.639
98123W        W66341  20.842  39.528   2.176
98124W        W66342  20.229  42.411   1.719
98125W        W66343   0.376  42.486  13.710
98126W        W66344  13.742  20.513   2.580
98127W        W66345  28.150  26.975  11.608
98128W        W66346   5.149  23.525  12.378
98129W        W66347   1.878  17.219  13.527
98130W        W66348  20.721  12.346   1.291
98131W        W66349  27.200  23.799   4.046
98132W        W66350  39.086  12.836   1.010
98133W        W66351  24.601   0.540  10.586
98134W        W66352  26.036  43.485   0.408
98135W        W66353  44.900   7.022   4.093
98136W        W66354  27.208  30.545  13.901
98137W        W66355  42.545  14.569   2.434
98138W        W66356   1.240  11.868   2.459
98139W        W66357  28.771  33.117  10.994
98140W        W66358   7.001  18.243   3.004
98141W        W66359  23.267  18.132   4.071
98142W        W66360   7.156  23.876   0.322
98143W        W66361  38.042  12.662  11.962
98144W        W66362  35.215   1.221   3.696
98145W        W66363   3.378  13.051  11.939
98146W        W66364  40.952   8.389  14.350
98147W        W66365  42.367  23.165  14.927
98148W        W66366  22.588  29.447   3.699
98149W        W66367   1.376   4.541   3.507
98150W        W66368  33.932  26.900  11.570
98151W        W66369  29.533  42.020   0.821
98152W        W66370  12.639  23.017  14.927
98153W        W66371  24.728  43.776   1.408
98154W        W66372  39.168   5.030   1.758
98155W        W66373  29.175  17.514  12.858
98156W        W66374  16.364  39.870  11.555
98157W        W66375   8.646  26.301  13.497
98158W        W66376  21.499  13.928  14.266
98159W        W66377  15.163   5.137  11.645
98160W        W66378   6.399  18.339  13.322
98161W        W66379  37.533  16.194   0.729
98162W        W66380  33.578   1.936  12.089
98163W        W66381  43.359  42.438  12.002
98164W        W66382  38.045  28.413  13.929
98165W        W66383  33.912  44.501   4.431
98166W        W66384  42.430   7.826  10.823
98167W        W66385  43.833  27.533   2.475
98168W        W66386  14.255  13.091   2.278
98169W        W66387   7.916  41.361   3.023
98170W        W66388  29.409  35.461   0.328
98171W        W66389  34.539  32.721  13.473
98172W        W66390  14.290  13.196  14.267
98173W        W66391  42.251  43.843  10.655
98174W        W66392  23.636  35.572   3.426
98175W        W66393   6.380  28.165  11.407
98176W        W66394  22.070   2.482   0.867
98177W        W66395   7.936  25.147  14.225
98178W        W66396  40.311  37.335   1.861
98179W        W66397  13.081  25.698   3.737
98180W        W66398  33.496  27.427   2.300
98181W        W66399   8.709   7.141   0.746
98182W        W66400  17.752  25.664  10.712
98183W        W66401   6.817  42.693   4.464
98184W        W66402   9.657  22.248  14.312
98185W        W66403   6.327  38.436   1.773
98186W        W66404   7.388  35.514  11.537
98187W        W66405  33.150  29.846  13.078
98188W        W66406  23.412  25.736   2.769
98189W        W66407  20.776  25.516  14.260
98190W        W66408   8.410  16.071   3.678
98191W        W66409   7.268  15.816   0.737
98192W        W66410  21.051  20.039  11.937
98193W        W66411  18.011  25.989   0.948
98194W        W66412  24.988  27.884  10.834
98195W        W66413  27.081  34.870   3.213
98196W        W66414  44.370  31.116   3.607
98197W        W66415   7.004  14.551   3.109
98198W        W66416  25.573  22.710   2.676
98199W        W66417  32.573  18.575   2.122
98200W        W66418   3.320  14.249   4.881
98201W        W66419  34.437  25.075  10.401
98202W        W66420  39.422  32.300   0.482
98203W        W66421  42.929  35.500  11.515
98204W        W66422  37.380  24.217   2.890
98205W        W66423   0.333  42.296   3.140
98206W        W66424  20.311  13.320   4.586
98207W        W66425  10.657  20.023   4.062
98208W        W66426  13.744  38.525  14.837
98209W        W66427  30.437  39.552   4.120
98210W        W66428  30.886  44.952   4.481
98211W        W66429  15.244  33.420   2.341
98212W        W66430   3.643  28.604  11.992
98213W        W66431   2.930  39.855  10.408
98214W        W66432   8.314  11.065  14.300
98215W        W66433  21.501   8.181  10.700
98216W        W66434  30.212   6.239  12.385
98217W        W66435  21.815  31.468   0.728
98218W        W66436  37.494  32.373   3.693
98219W        W66437  17.622   2.755  14.386
98220W        W66438  13.099  33.881  14.342
98221W        W66439  14.904  44.971  13.296
98222W        W66440   4.002  22.059  11.992
98223W        W66441  19.357  41.223   2.735
98224W        W66442   7.003  37.783   1.750
98225W        W66443  20.848  33.495   9.931
98226W        W66444  12.443  12.914  10.976
98227W        W66445  28.463  15.936   2.663
98228W        W66446  44.474   4.037   3.197
98229W        W66447   4.858   8.310  14.222
98230W        W66448   3.742  26.005   0.334
98231W        W66449  29.937   2.142   4.882
98232W        W66450  10.869  14.218  13.414
98233W        W66451   8.859  36.882  14.048
98234W        W66452  13.640   0.022   2.364
98235W        W66453   8.200   9.793   1.708
98236W        W66454  22.829  43.519  11.625
98237W        W66455  38.937  25.898  14.452
98238W        W66456   1.462  20.559  11.185
98239W        W66457  15.575  13.669   4.164
98240W        W66458   5.511  22.213   3.339
98241W        W66459  20.275  25.693  10.626
98242W        W66460  36.942  19.559   1.456
98243W        W66461  34.848  26.574  11.857
98244W        W66462  24.462  22.290  11.250
98245W        W66463  20.145   5.396   0.918
98246W        W66464  12.702  13.678  10.463
98247W        W66465   1.909  43.868   3.409
98248W        W66466  26.976  27.982  12.428
98249W        W66467  18.045  15.886   9.676
98250W        W66468  35.828  35.417  11.787
98251W        W66469  40.860  19.076  13.854
98252W        W66470  32.496  27.540   0.586
98253W        W66471  24.722  40.124   3.121
98254W        W66472   3.888  28.023   1.202
98255W        W66473  39.343  28.207   1.931
98256W        W66474   9.385  38.414   3.702
98257W        W66475   4.500  28.612  12.862
98258W        W66476   4.567  27.569  13.627
98259W        W66477   4.883  19.893   0.894
98260W        W66478   4.905  34.836   3.707
98261W        W66479  10.586  28.504  11.142
98262W        W66480  28.485   0.009  14.250
98263W        W66481  40.891  40.788  14.351
98264W        W66482  24.291  28.628  13.467
98265W        W66483  11.744  31.219   3.138
98266W        W66484  44.240   6.626   2.272
98267W        W66485  44.298  40.987   2.239
98268W        W66486  40.851  13.936   2.278
98269W        W66487  24.217  28.702  12.566
98270W        W66488  28.184  11.428  13.529
98271W        W66489   5.229  12.151   0.249
98272W        W66490   1.825  13.370  12.013
98273W        W66491  36.465  24.519   0.637
98274W        W66492  13.654  41.744  14.474
98275W        W66493  11.173  13.838  13.747
98276W        W66494  27.234  11.049  10.365
98277W        W66495  39.250   8.254  14.471
98278W        W66496   4.933  24.398  11.159
98279W        W66497  29.439  31.231  13.639
98280W        W66498  23.534  19.577   0.456
98281W        W66499  11.373  33.528  12.567
98282W        W66500  18.183  36.468  11.593
98283W        W66501  19.620  16.282   1.419
98284W        W66502  18.223  33.994  12.990
98285W        W66503  44.066  43.851  11.891
98286W        W66504   2.209  43.381   1.433
98287W        W66505  43.843  22.739   4.559
98288W        W66506  22.954  24.753  14.745
98289W        W66507  14.681  25.454   3.684
98290W        W66508  29.137   2.321   1.812
98291W        W66509  35.161  34.116   3.493
98292W        W66510  13.098  23.710  12.833
98293W        W66511  23.021   3.216   2.257
98294W        W66512  28.254   6.644   3.708
98295W        W66513  41.318  14.206  13.818
98296W        W66514  14.389  30.576  14.591
98297W        W66515  21.941  35.774  11.949
98298W        W66516  44.844   5.000   3.336
98299W        W66517  44.478  36.651  12.900
98300W        W66518  28.010  23.678  11.980
98301W        W66519  15.059   2.916  10.685
98302W        W66520  25.519   5.959   3.685
98303W        W66521  20.118  27.886  13.366
98304W        W66522  31.224  42.021   3.670
98305W        W66523  29.393  25.500   1.221
98306W        W66524  41.443   9.628   3.686
98307W        W66525  13.364  15.356   4.104
98308W        W66526  33.565   1.423  14.335
98309W        W66527  41.233  18.689   2.818
98310W        W66528  19.978  38.443   0.328
98311W        W66529  11.256  43.332   1.094
98312W        W66530  19.897   1.763  14.495
98313W        W66531  31.872  15.666  14.365
98314W        W66532  16.032  39.347   0.486
98315W        W66533  40.582  24.916   1.915
98316W        W66534  27.304   1.151   4.552
98317W        W66535  18.827  14.284   1.772
98318W        W66536  13.815  12.659  10.968
98319W        W66537  19.661  44.741  10.785
98320W        W66538  42.266  15.385   2.805
98321W        W66539  29.875   7.354  12.021
98322W        W66540  39.280  41.408  13.490
98323W        W66541  18.781  14.813   0.771
98324W        W66542  16.749  36.224   1.231
98325W        W66543  22.692   7.277   0.525
98326W        W66544  12.860  18.884   1.928
98327W        W66545  41.276  28.448  11.497
98328W        W66546  38.141  11.357  12.984
98329W        W66547  43.565  30.630   4.588
98330W        W66548  22.236  36.000  10.692
98331W        W66549  38.962  17.302   0.283
98332W        W66550   2.011  37.351  10.632
98333W        W66551  13.586  18.921   4.171
98334W        W66552  29.234  16.124   3.380
98335W        W66553   9.900  35.459  13.341
98336W        W66554   1.722   2.225  12.982
98337W        W66555  14.160  17.307  11.241
98338W        W66556  17.161   7.637   2.657
98339W        W66557  37.033   0.841   4.395
98340W        W66558   5.320  39.042   4.577
98341W        W66559  15.078  38.070   3.058
98342W        W66560  14.677  42.253   4.328
98343W        W66561   6.348   1.652   5.114
98344W        W66562  21.666  26.978   3.676
98345W        W66563  28.145  22.034  10.799
98346W        W66564  28.215  20.993   0.535
98347W        W66565  27.899  23.534  13.433
98348W        W66566  12.221  33.846  11.508
98349W        W66567   2.248   7.799  13.338
98350W        W66568   8.337  32.092  13.526
98351W        W66569  14.555   9.347  12.588
98352W        W66570  31.205  40.802  12.596
98353W        W66571  35.445   4.955  11.622
98354W        W66572  18.144   5.292   1.755
98355W        W66573  13.754   5.211  10.683
98356W        W66574  35.638   0.887   1.868
98357W        W66575  10.732  21.272  14.765
98358W        W66576  33.240  40.279   0.522
98359W        W66577  36.769   9.697  11.628
98360W        W66578  43.393  40.018   2.346
98361W        W66579   1.086  42.412  11.418
98362W        W66580  41.029  33.186  11.888
98363W        W66581   9.690  41.415   2.197
98364W        W66582   6.977   2.350   4.093
98365W        W66583  42.518   1.973  12.420
98366W        W66584  33.408  10.822   1.341
98367W        W66585  31.336  11.464  13.224
98368W        W66586  29.694  30.501   1.205
98369W        W66587  39.935  25.713   2.467
98370W        W66588  24.050   7.763  12.891
98371W        W66589  30.333  32.203   5.154
98372W        W66590  10.745   7.812   1.751
98373W        W66591  26.141  43.972  13.954
98374W        W66592   6.638  19.580  11.511
98375W        W66593  39.435   9.169  14.408
98376W        W66594   4.698  27.109  13.369
98377W        W66595  18.645  21.817  14.874
98378W        W66596  36.082  17.754   0.414
98379W        W66597   2.746   4.562   2.769
98380W        W66598  32.521  10.809   1.250
98381W        W66599  32.979  27.494   0.377
98382W        W66600  26.904  26.012   2.283
98383W        W66601   5.941  28.148   1.713
98384W        W66602  12.637  20.048  11.400
98385W        W66603  30.000  27.671   0.958
98386W        W66604   8.037  17.363  12.216
98387W        W66605  28.749   5.302   2.670
98388W        W66606  29.429  32.051   2.924
98389W        W66607  28.531  19.649   0.621
98390W        W66608   5.489  41.717  11.740
98391W        W66609   6.530  30.169  12.857
98392W        W66610  44.408  44.914   4.393
98393W        W66611  22.871  21.024   3.983
98394W        W66612   4.693  22.722   3.663
98395W        W66613  34.758  43.048   2.223
98396W        W66614  40.884  32.555   0.329
98397W        W66615   3.735   1.310   4.053
98398W        W66616   5.276  25.936  10.634
98399W        W66617  13.279  40.338   3.363
98400W        W66618  11.230   1.497  13.614
98401W        W66619  40.391  31.589  12.576
98402W        W66620  41.801  10.911  14.314
98403W        W66621  27.408  25.700  14.531
98404W        W66622  10.417  10.253   2.131
98405W        W66623  37.049  42.451   1.861
98406W        W66624   6.899  11.365   2.792
98407W        W66625  24.582  11.194   1.325
98408W        W66626   6.651  35.265   0.471
98409W        W66627  22.473  20.981  11.940
98410W        W66628  36.532  25.680  14.029
98411W        W66629  41.793  36.647   0.834
98412W        W66630   4.471  25.921  13.530
98413W        W66631  12.168   4.832  10.487
98414W        W66632  23.272   2.200   2.358
98415W        W66633   4.892  13.061  11.875
98416W        W66634  44.506  13.855   4.947
98417W        W66635  20.790  34.170   2.907
98418W        W66636  29.980  21.106  10.194
98419W        W66637  39.316  13.009  13.424
98420W        W66638   8.802  26.657   4.644
98421W        W66639  10.443  35.806  10.716
98422W        W66640  12.791   3.672  13.321
98423W        W66641  15.899   2.925   2.699
98424W        W66642  21.851  21.088  14.389
98425W        W66643  36.303   9.862  10.410
98426W        W66644  41.616  39.231   1.744
98427W        W66645  42.509  21.286  12.404
98428W        W66646  30.040  35.396  14.041
98429W        W66647  43.612   4.268  14.269
98430W        W66648  13.817  25.616  10.642
98431W        W66649  39.108  16.331  13.090
98432W        W66650  24.528  28.028  11.572
98433W        W66651  39.394  27.100   2.939
98434W        W66652  36.630  39.781   3.254
98435W        W66653   1.366  39.466   3.604
98436W        W66654  19.246   4.751   3.914
98437W        W66655  31.973   5.124  11.167
98438W        W66656   7.399   8.134   2.185
98439W        W66657  21.174  25.418   0.659
98440W        W66658   7.243  43.666   0.911
98441W        W66659  14.173  37.113   0.777
98442W        W66660  39.486   3.483   3.153
98443W        W66661  31.641  36.891   1.377
98444W        W66662  30.542   9.344   1.443
98445W        W66663  26.168  41.872  12.909
98446W        W66664  11.093  20.718   0.524
98447W        W66665   4.344  40.948  13.441
98448W        W66666  15.211  23.789   0.955
98449W        W66667  40.451  36.975  10.799
98450W        W66668   0.272  33.422  12.324
98451W        W66669  26.711  23.555   4.067
98452W        W66670  23.206   4.703   2.691
98453W        W66671  28.624   7.837  14.991
98454W        W66672  19.243   0.435  11.955
98455W        W66673   2.454  36.116   4.064
98456W        W66674   0.306  10.311   2.351
98457W        W66675   6.939  10.769  14.265
98458W        W66676   4.780  42.024  14.513
98459W        W66677  37.068  43.958  11.237
98460W        W66678  36.861  20.318   2.069
98461W        W66679   6.282  11.072  12.210
98462W        W66680   6.871   2.377  14.932
98463W        W66681   0.393  24.858  13.715
98464W        W66682  25.091   4.692  12.049
98465W        W66683   1.491  22.053  12.953
98466W        W66684   2.453  30.383  10.657
98467W        W66685  20.046   2.786   2.857
98468W        W66686  42.369  21.639   2.589
98469W        W66687   5.200  16.298  12.807
98470W        W66688  34.902   3.609   3.732
98471W        W66689   0.843  28.435  12.516
98472W        W66690  24.785  21.239  12.449
98473W        W66691  10.846   5.693   1.182
98474W        W66692  13.372  15.262  14.444
98475W        W66693   5.050   6.499  10.683
98476W        W66694  16.563   3.945  11.155
98477W        W66695   3.512  37.479  14.317
98478W        W66696  35.669   3.747   1.642
98479W        W66697  12.826  42.812   5.002
98480W        W66698  24.014  31.819   3.464
98481W        W66699   2.605  34.681   3.769
98482W        W66700  14.843  40.381  10.448
98483W        W66701  41.574  12.808   2.480
98484W        W66702  38.320  44.223  14.499
98485W        W66703  37.598  15.124   3.890
98486W        W66704  27.246  26.107   2.727
98487W        W66705   8.895  10.532   3.115
98488W        W66706  21.639  15.147  13.359
98489W        W66707  43.737  24.752   1.513
98490W        W66708  18.209  18.688  13.245
98491W        W66709  43.713  43.781   0.747
98492W        W66710  34.992  17.173  14.027
98493W        W66711  18.438  14.623  13.321
98494W        W66712  18.311  35.450  13.865
98495W        W66713  43.336   9.714  12.014
98496W        W66714  25.734  33.334   4.565
98497W        W66715  38.863  32.029  14.085
98498W        W66716  31.009   8.835   1.990
98499W        W66717   0.760  41.034  11.555
98500W        W66718  43.233  22.173  11.142
98501W        W66719   3.874   4.058   0.212
98502W        W66720  31.582  15.865   1.896
98503W        W66721  26.688  41.519  13.073
98504W        W66722  29.950   2.962  13.338
98505W        W66723   4.268   9.033   0.327
98506W        W66724  44.393  20.325  13.432
98507W        W66725  30.077  32.546   4.844
98508W        W66726  21.854  14.003   0.689
98509W        W66727  32.147   7.383   4.539
98510W        W66728  22.302  13.355  12.021
98511W        W66729   1.707  40.764  14.810
98512W        W66730   0.386  25.706   3.753
98513W        W66731   6.818  16.162  11.541
98514W        W66732  33.899   9.267   4.646
98515W        W66733  28.849  25.533  13.468
98516W        W66734  44.367  37.386   4.122
98517W        W66735  10.861  31.152   4.510
98518W        W66736  20.477  35.176  12.890
98519W        W66737  10.295  14.001   4.315
98520W        W66738  33.500  43.788   1.855
98521W        W66739  10.951  19.212   3.613
98522W        W66740  34.101  16.723   0.422
98523W        W66741  14.313  34.491   1.717
98524W        W66742  29.546  25.370   3.089
98525W        W66743  43.739  37.171  13.119
98526W        W66744  41.201   6.742   4.601
98527W        W66745  18.263  21.650   3.247
98528W        W66746   7.444  15.584  13.434
98529W        W66747  35.835  13.551   3.813
98530W        W66748  28.421  23.713  11.616
98531W        W66749   8.967   5.326  13.249
98532W        W66750  36.535  14.964   2.342
98533W        W66751  14.756  21.145   4.469
98534W        W66752  21.642  18.594  12.431
98535W        W66753   1.813   7.261   0.909
98536W        W66754  12.107   6.300  13.339
98537W        W66755  31.319  14.178   4.225
98538W        W66756   8.243   2.180  11.201
98539W        W66757  11.769  37.928  10.176
98540W        W66758   5.318  31.601   0.927
98541W        W66759  11.431   4.547  12.566
98542W        W66760  34.878  13.015  10.850
98543W        W66761  36.518  27.620   4.025
98544W        W66762  22.629  20.406  13.371
98545W        W66763  10.354  16.049   4.125
98546W        W66764  10.165  26.245   4.117
98547W        W66765   3.498  32.640   2.222
98548W        W66766  38.618  41.205  12.905
98549W        W66767   4.252   7.545   2.853
98550W        W66768  15.953   8.416  14.011
98551W        W66769  20.680  25.553  13.404
98552W        W66770  22.865  27.123   1.798
98553W        W66771  15.345  26.908  14.334
98554W        W66772  23.844  35.180  10.725
98555W        W66773  31.890  24.860  11.989
98556W        W66774  34.480  11.449   0.179
98557W        W66775  24.265  40.504  11.110
98558W        W66776  16.392   1.181   1.848
98559W        W66777  42.405  13.664   4.286
98560W        W66778  13.206   8.272   2.563
98561W        W66779  42.306  39.799   3.956
98562W        W66780  24.334  34.930   5.063
98563W        W66781  20.005  13.159   3.147
98564W        W66782   5.855  33.055  11.194
98565W        W66783   6.170  29.649   4.034
98566W        W66784  21.551  16.290   2.747
98567W        W66785  13.848  44.050   0.214
98568W        W66786  27.338   2.208  12.479
98569W        W66787  33.604  27.063  14.838
98570W        W66788  13.127  17.317   4.507
98571W        W66789  34.875   3.678   1.315
98572W        W66790  27.693  44.925  11.595
98573W        W66791  11.092  42.386   2.646
98574W        W66792  26.846   8.529   2.591
98575W        W66793  19.958   6.155   4.917
98576W        W66794   7.680  26.277   4.161
98577W        W66795   0.453  10.295  12.577
98578W        W66796  28.087  33.943   0.937
98579W        W66797  24.982   5.031   0.820
98580W        W66798  17.011  40.282   3.169
98581W        W66799  33.606  44.841   3.258
98582W        W66800  25.396  40.524   3.407
98583W        W66801  39.371  23.166  10.570
98584W        W66802  40.484  25.927   0.242
98585W        W66803  31.761   8.872  12.932
98586W        W66804  39.005   2.666   1.466
98587W        W66805  42.090  21.428   2.183
98588W        W66806  11.282  30.367   2.696
98589W        W66807  13.584  44.316  11.669
98590W        W66808  23.099   8.922  11.807
98591W        W66809  33.970  34.628  13.393
98592W        W66810  33.540  20.877  12.145
98593W        W66811  27.529  43.399  14.453
98594W        W66812  40.540  28.757  13.391
98595W        W66813  27.540   6.422   2.722
98596W        W66814  11.564  31.579   2.448
98597W        W66815  36.329   0.509  14.517
98598W        W66816  32.394   6.946   9.834
98599W        W66817  27.335  40.465   4.203
98600W        W66818  38.745   3.001   0.657
98601W        W66819  30.793  40.940   3.664
98602W        W66820  21.494  35.676   2.911
98603W        W66821  24.034   1.485  13.426
98604W        W66822   7.169  43.469   4.728
98605W        W66823   5.388  20.335   2.698
98606W        W66824  15.299  39.329  13.069
98607W        W66825  19.113  17.876   0.366
98608W        W66826  42.964   2.271   3.211
98609W        W66827   5.367  18.962   2.970
98610W        W66828  31.845  32.499  14.651
98611W        W66829  20.737  15.180  13.887
98612W        W66830  36.388  41.346  13.485
98613W        W66831  34.047   7.901  14.982
98614W        W66832  39.982  44.251  12.262
98615W        W66833   6.411  29.423  14.385
98616W        W66834  27.529  19.263  11.578
98617W        W66835   4.098  34.674   0.956
98618W        W66836  39.272   5.272  11.713
98619W        W66837  15.486  24.576   4.547
98620W        W66838  38.389  30.076  13.011
98621W        W66839  23.616  37.613   2.262
98622W        W66840  15.021  23.195  14.959
98623W        W66841  43.264  34.549  14.655
98624W        W66842   2.358  33.971  14.044
98625W        W66843  14.767  40.795  11.050
98626W        W66844   7.890   5.783   3.719
98627W        W66845  10.101  21.975  13.033
98628W        W66846  10.117  37.383   3.566
98629W        W66847  27.990  19.314  10.937
98630W        W66848  28.628  15.285  14.081
98631W        W66849  34.465  25.753   3.202
98632W        W66850  33.346  37.960  13.767
98633W        W66851  41.926  11.220   1.709
98634W        W66852  40.867  34.804  13.035
98635W        W66853  44.539   2.434  14.504
98636W        W66854   2.680  21.759  13.042
98637W        W66855   7.727  36.718  12.246
98638W        W66856   7.350  25.504  14.551
98639W        W66857   5.698  17.151   5.422
98640W        W66858  32.886  20.242   0.965
98641W        W66859  37.884   8.864  14.127
98642W        W66860  28.054  41.296   0.979
98643W        W66861  26.553   2.091   1.536
98644W        W66862  17.597   3.886  11.252
98645W        W66863  44.893   2.533   3.832
98646W        W66864  41.043  11.764   3.792
98647W        W66865   8.654  33.328   1.119
98648W        W66866   3.224  24.897  12.913
98649W        W66867   9.918  39.372   0.877
98650W        W66868   5.599   0.205  11.012
98651W        W66869  22.543  10.723   2.220
98652W        W66870   6.721   9.367  12.576
98653W        W66871   6.899  13.851  11.642
98654W        W66872   5.818  30.382  13.526
98655W        W66873  36.333   2.031  12.431
98656W        W66874  10.126  43.817   2.156
98657W        W66875  36.045  44.962   4.702
98658W        W66876  11.267   9.321   3.580
98659W        W66877  12.885  28.084   3.353
98660W        W66878   1.453  43.850   0.279
98661W        W66879  16.146  36.579   0.459
98662W        W66880   3.396  15.465   2.721
98663W        W66881  42.550  38.013   4.360
98664W        W66882  15.176   4.700   4.172
98665W        W66883  17.390  26.610   4.976
98666W        W66884   9.685  32.358   3.191
98667W        W66885   3.490  39.460   2.185
98668W        W66886  38.798  23.974  12.879
98669W        W66887  13.873  33.600  13.545
98670W        W66888  18.233  23.839  14.334
98671W        W66889   2.387  22.601   4.201
98672W        W66890  17.114  20.028   4.686
98673W        W66891  22.581  11.219  14.549
98674W        W66892   1.490  40.105  12.654
98675W        W66893   3.374  22.531   1.175
98676W        W66894  11.078  23.471   0.362
98677W        W66895  11.146  15.843  13.882
98678W        W66896  38.460   6.785  14.503
98679W        W66897  37.509   2.470  13.547
98680W        W66898  26.548  37.012  12.945
98681W        W66899  14.780  17.772  10.619
98682W        W66900  10.811   5.652  12.964
98683W        W66901   6.244  35.181  12.442
98684W        W66902   6.761  28.842  12.566
98685W        W66903  25.430  41.931   0.236
98686W        W66904  41.906  11.924  12.102
98687W        W66905  15.346   0.267   0.339
98688W        W66906   7.285  35.480  14.397
98689W        W66907   1.894  21.260   4.544
98690W        W66908  32.618   0.318   4.186
98691W        W66909  20.064  33.360  11.308
98692W        W66910  13.809  24.071  13.019
98693W        W66911  43.295  44.712  14.892
98694W        W66912  29.441  24.938  13.822
98695W        W66913  37.867  32.507   0.525
98696W        W66914  31.567  30.361  11.136
98697W        W66915  29.746  31.452  11.925
98698W        W66916  30.516  42.687  12.756
98699W        W66917  38.818   5.864   0.365
98700W        W66918  22.979  15.327  11.560
98701W        W66919  30.185   5.692  13.441
98702W        W66920  18.876   2.586  14.303
98703W        W66921  10.533  22.671   0.029
98704W        W66922  44.871  14.252   3.251
98705W        W66923   6.280  24.149   0.768
98706W        W66924  26.563   5.296  14.030
98707W        W66925   1.527   9.294  13.371
98708W        W66926  33.804  29.110   0.607
98709W        W66927  31.648  36.111   3.239
98710W        W66928  18.688  41.927   2.966
98711W        W66929  32.159  23.250   2.274
98712W        W66930  20.458  26.611  13.545
98713W        W66931  16.610  10.254   3.148
98714W        W66932  32.008  42.922   0.856
98715W        W66933  22.996  18.136   4.523
98716W        W66934  38.565  16.665  12.254
98717W        W66935   0.356   6.088  12.825
98718W        W66936  39.263   9.893  10.730
98719W        W66937   7.831   4.186   4.687
98720W        W66938  12.414  25.007  12.973
98721W        W66939  26.710  19.095  11.987
98722W        W66940   3.303  31.839  14.934
98723W        W66941  25.018  23.025   0.328
98724W        W66942  37.069  10.383  12.635
98725W        W66943  25.563  23.217  11.145
98726W        W66944  29.586  18.905   0.914
98727W        W66945  28.937  33.068   0.039
98728W        W66946   5.134  37.910  10.712
98729W        W66947  40.123  44.023  11.377
98730W        W66948  17.731  21.683   3.269
98731W        W66949  18.317  29.998   1.240
98732W        W66950  34.466  34.462   2.189
98733W        W66951  37.631  14.355   2.772
98734W        W66952  42.124  26.994  11.273
98735W        W66953  24.765  37.814  13.504
98736W        W66954  29.605  39.006   3.265
98737W        W66955  40.057  15.356   4.328
98738W        W66956  19.593   4.291  14.340
98739W        W66957  27.421  23.663   1.290
98740W        W66958   2.152   4.673  13.606
98741W        W66959  41.476  41.290  14.751
98742W        W66960  19.544   1.294   2.283
98743W        W66961   4.456   9.875  10.756
98744W        W66962  19.971  17.607  10.136
98745W        W66963   5.271  20.958  13.394
98746W        W66964  33.705  25.514   4.535
98747W        W66965  29.072  42.278   0.932
98748W        W66966  37.170  28.397   4.415
98749W        W66967   1.782   7.145  12.842
98750W        W66968  33.869  30.932   0.261
98751W        W66969  20.458  19.084  14.769
98752W        W66970  26.867  27.885  10.706
98753W        W66971  38.650  11.228  12.101
98754W        W66972   0.196  27.664  12.494
98755W        W66973  24.933  38.184  13.904
98756W        W66974  24.975   8.236  14.873
98757W        W66975  25.433  28.617   3.837
98758W        W66976  21.211  38.934  13.849
98759W        W66977  11.642  39.493   3.739
98760W        W66978   9.113  23.465  12.988
98761W        W66979  32.669   2.671  14.231
98762W        W66980  18.772  30.607  13.044
98763W        W66981  18.879  17.404   2.704
98764W        W66982  28.025   8.873   1.199
98765W        W66983  25.163  14.404   2.788
98766W        W66984  42.764   8.773  13.422
98767W        W66985  41.461  37.574   4.864
98768W        W66986  18.311  27.125   1.274
98769W        W66987  25.801  37.782   0.456
98770W        W66988  42.391   9.293  14.974
98771W        W66989  28.969   0.845   0.470
98772W        W66990   9.965  36.360   0.320
98773W        W66991  34.354  38.540  14.352
98774W        W66992   9.295  42.863   4.108
98775W        W66993  25.551  26.407  11.468
98776W        W66994  40.107   6.983  12.567
98777W        W66995  33.568  15.231   3.919
98778W        W66996  36.439  41.956  10.648
98779W        W66997  22.315   8.500  13.494
98780W        W66998  29.892  32.144  12.039
98781W        W66999  13.706  35.601   4.104
98782W        W67000  42.602   3.654   2.618
98783W        W67001  23.078   8.547   5.303
98784W        W67002  12.786  43.434   0.991
98785W        W67003  11.507  33.621   4.828
98786W        W67004  29.118  25.183   4.630
98787W        W67005  28.723  25.105   3.240
98788W        W67006  36.402  36.835  14.745
98789W        W67007   3.684   0.168  11.556
98790W        W67008  13.907  12.438   2.139
98791W        W67009   1.754   9.688   2.190
98792W        W67010  31.114  43.284   3.774
98793W        W67011   2.883  41.868   4.585
98794W        W67012  42.203  36.668  11.252
98795W        W67013  41.809  44.943  13.135
98796W        W67014   3.499  34.970  10.612
98797W        W67015  17.859  12.772  10.736
98798W        W67016  23.494   0.361   1.755
98799W        W67017  30.515  29.441   4.244
98800W        W67018   5.538   3.475   5.049
98801W        W67019  41.527  14.769   5.068
98802W        W67020  12.239   9.202  10.668
98803W        W67021  26.215  39.956   3.728
98804W        W67022  38.037  35.094  11.492
98805W        W67023  15.658  17.060   1.977
98806W        W67024  41.118  19.854  12.490
98807W        W67025  27.524  39.627   4.102
98808W        W67026   7.443   7.760  13.856
98809W        W67027  41.036  42.535  14.811
98810W        W67028  20.626   0.281   1.749
98811W        W67029  31.151  18.218  12.160
98812W        W67030  28.685  42.550  11.233
98813W        W67031  21.559  41.495   0.398
98814W        W67032  44.704  35.827   0.856
98815W        W67033  39.455  23.972  12.138
98816W        W67034  23.662  36.349  14.111
98817W        W67035  35.406  14.863   4.548
98818W        W67036  13.985  27.719   2.782
98819W        W67037  31.395  33.722  14.136
98820W        W67038  30.320  23.325   4.384
98821W        W67039  17.791  17.131  14.830
98822W        W67040  37.763  18.124  12.698
98823W        W67041  34.342   1.977   2.684
98824W        W67042  39.979  41.020  13.943
98825W        W67043  30.946  34.924   4.122
98826W        W67044  13.372   0.291  11.159
98827W        W67045  16.820   0.813  14.718
98828W        W67046  38.380  33.974   3.698
98829W        W67047  36.918   4.261   1.518
98830W        W67048  38.943  22.496  14.680
98831W        W67049  27.220  34.021  11.970
98832W        W67050   3.947  37.548   2.258
98833W        W67051  33.293  21.235   3.238
98834W        W67052  11.932  27.134  14.007
98835W        W67053  19.936  30.820  10.657
98836W        W67054  31.421  25.467   3.354
98837W        W67055   1.765   3.352   3.187
98838W        W67056  19.351  37.607   4.161
98839W        W67057   0.375   9.706   4.772
98840W        W67058  14.257  43.633   2.274
98841W        W67059  13.441  11.340   4.184
98842W        W67060   3.474  16.319   2.301
98843W        W67061  18.585  33.096   1.470
98844W        W67062   8.732   3.025   0.150
98845W        W67063  13.758  31.881  10.965
98846W        W67064   1.212  30.124  12.110
98847W        W67065  12.734  25.912  12.580
98848W        W67066  29.837  24.089  14.090
98849W        W67067  42.318  17.574   3.166
98850W        W67068  11.639  35.985  13.049
98851W        W67069  37.362  32.031   1.296
98852W        W67070  11.824  24.227   0.697
98853W        W67071  21.423  11.016  12.982
98854W        W67072  20.978  23.404  13.450
98855W        W67073  36.319   4.065   3.175
98856W        W67074  23.757  28.687   4.282
98857W        W67075  15.344  33.013  10.664
98858W        W67076  11.764   0.284  12.620
98859W        W67077   3.544  17.302   2.870
98860W        W67078  13.568  38.508   2.017
98861W        W67079   5.652   9.920   1.676
98862W        W67080  43.278  41.675   1.832
98863W        W67081  11.661  25.754  13.604
98864W        W67082   9.546  16.546   1.624
98865W        W67083  16.097  38.074   3.941
98866W        W67084   5.384  18.565  12.502
98867W        W67085  38.838  28.130   0.965
98868W        W67086  20.772  18.627   4.582
98869W        W67087   0.876  34.011   3.835
98870W        W67088  31.711   9.672   0.385
98871W        W67089  19.243  37.502  13.791
98872W        W67090  33.547  27.081   2.710
98873W        W67091  34.866  29.251  12.088
98874W        W67092   7.358  26.130   0.897
98875W        W67093  33.030   7.314   1.374
98876W        W67094  44.920  40.345  12.395
98877W        W67095  31.618  16.723  13.882
98878W        W67096  15.351  40.463   1.794
98879W        W67097   0.919   0.830   1.988
98880W        W67098  18.604   0.484  11.233
98881W        W67099  19.504  41.903   0.112
98882W        W67100  43.852   0.537   2.303
98883W        W67101  35.296  43.871  11.577
98884W        W67102  17.221  15.655  10.437
98885W        W67103   5.782  22.521   4.243
98886W        W67104   9.949   1.229   3.657
98887W        W67105  40.314   1.953  11.678
98888W        W67106  18.617  19.679   2.774
98889W        W67107  44.437  36.508   3.706
98890W        W67108  34.494  29.140   4.541
98891W        W67109  12.213  32.329   0.861
98892W        W67110   8.898  36.326   3.600
98893W        W67111  42.386  35.704   2.708
98894W        W67112  10.826  16.925  11.710
98895W        W67113  27.567  24.887   4.169
98896W        W67114   2.293  28.402  11.960
98897W        W67115  30.817  26.303   0.307
98898W        W67116   6.382  33.054  11.107
98899W        W67117   3.314  11.867   4.310
98900W        W67118  17.261  44.991   2.559
98901W        W67119  13.642  43.051   0.308
98902W        W67120  33.362  19.150  13.541
98903W        W67121  16.312  23.080  14.451
98904W        W67122  37.381  38.807   3.318
98905W        W67123  15.959  31.460  11.890
98906W        W67124   9.117  26.881  12.902
98907W        W67125   8.450  42.197  12.197
98908W        W67126  16.526  35.264   3.327
98909W        W67127  10.450  26.958  12.986
98910W        W67128  43.451  37.999  11.499
98911W        W67129  13.965  15.313  12.576
98912W        W67130  36.347  41.103   4.297
98913W        W67131  33.060   2.871  10.929
98914W        W67132   5.251  11.670   0.037
98915W        W67133  22.290  37.144   3.185
98916W        W67134  33.397  37.531   4.129
98917W        W67135  18.980  36.008   3.242
98918W        W67136  27.257   8.345  11.167
98919W        W67137   5.068   5.666   0.198
98920W        W67138   0.276  15.465  12.118
98921W        W67139  12.276  23.979   4.853
98922W        W67140  37.751  32.554  12.570
98923W        W67141  29.076   2.813  10.281
98924W        W67142  36.128  44.464  14.088
98925W        W67143  27.232  23.562  12.659
98926W        W67144  16.601  17.275   1.119
98927W        W67145  10.920   1.744   5.028
98928W        W67146  19.335   7.017   4.083
98929W        W67147  31.150   3.363  13.860
98930W        W67148  22.453   8.484  14.862
98931W        W67149  44.277  13.074  10.344
98932W        W67150  17.272  19.045   2.752
98933W        W67151  14.072  10.859   1.795
98934W        W67152  33.286  14.274   0.852
98935W        W67153   7.447  18.767  12.056
98936W        W67154  24.164  25.685   3.068
98937W        W67155   3.254  29.781  14.784
98938W        W67156  12.121   6.330   1.673
98939W        W67157  34.508  39.759  11.372
98940W        W67158   7.524  21.570  10.686
98941W        W67159  15.257   0.180  12.409
98942W        W67160  22.455  25.566   3.916
98943W        W67161  35.814  35.116   4.119
98944W        W67162  17.271  14.620   0.688
98945W        W67163   4.269  33.964   2.457
98946W        W67164   9.237  15.906  10.581
98947W        W67165  39.865  28.125  11.585
98948W        W67166  13.580  18.193  14.439
98949W        W67167   8.370  18.355  10.238
98950W        W67168  44.377  37.264   2.808
98951W        W67169  41.856  18.299   1.750
98952W        W67170  24.536  17.670   3.211
98953W        W67171  17.714  33.911  11.151
98954W        W67172  22.837  13.622   1.894
98955W        W67173  13.181  28.565   4.585
98956W        W67174   4.892   0.538  14.041
98957W        W67175  36.749  12.684  10.767
98958W        W67176   4.332   5.735  14.989
98959W        W67177  29.748  22.296   2.211
98960W        W67178  27.331  42.517   2.651
98961W        W67179  21.282  25.884  11.875
98962W        W67180   3.220   1.371   4.587
98963W        W67181   0.382  17.370  11.150
98964W        W67182   1.127  17.556  11.117
98965W        W67183  29.465  27.511  14.539
98966W        W67184   3.696  37.437   2.710
98967W        W67185  12.540  26.522   1.322
98968W        W67186  42.219  40.548   2.679
98969W        W67187  13.364  12.676  11.868
98970W        W67188   2.305   2.809  12.996
98971W        W67189   6.788  10.639   3.338
98972W        W67190  40.522  20.983   2.399
98973W        W67191  19.698  21.306   4.275
98974W        W67192  19.652  42.981  12.462
98975W        W67193  34.149  28.911   0.956
98976W        W67194  17.070  16.070   1.614
98977W        W67195  36.581   2.265   2.329
98978W        W67196  34.934   5.726   2.614
98979W        W67197  35.365  31.569   4.860
98980W        W67198  32.057   9.221  13.265
98981W        W67199   2.003  10.669  14.536
98982W        W67200  24.131  44.100  14.821
98983W        W67201   9.788  44.878  14.960
98984W        W67202  11.175  44.000   5.481
98985W        W67203   5.870  39.883  12.979
98986W        W67204  13.700  18.205  12.291
98987W        W67205  13.825  26.196  12.077
98988W        W67206   1.992  14.117   4.067
98989W        W67207  16.800  21.071   2.651
98990W        W67208  33.534  26.542   2.632
98991W        W67209  18.282  36.863   2.782
98992W        W67210  32.030   8.787   0.551
98993W        W67211  42.443  28.601  12.664
98994W        W67212   3.851  15.171  14.883
98995W        W67213  26.217  23.104   2.007
98996W        W67214  43.802  20.699   4.569
98997W        W67215   9.444   1.329   3.630
98998W        W67216   1.579  17.185   2.801
98999W        W67217  16.749   6.271  12.130
99000W        W67218   5.416  19.836   0.225
99001W        W67219  17.541  26.398   2.370
99002W        W67220  21.544   7.207  12.272
99003W        W67221  18.639  10.231   4.773
99004W        W67222  38.911  12.078  11.647
99005W        W67223  30.472   0.425   2.393
99006W        W67224  44.753  26.274  13.959
99007W        W67225  32.015  43.204   1.880
99008W        W67226  20.767   0.951   4.610
99009W        W67227   8.305   0.701  14.758
99010W        W67228  33.970  26.488  12.165
99011W        W67229  37.882  44.252  14.829
99012W        W67230   3.332  32.862   2.683
99013W        W67231  34.355  22.617   2.648
99014W        W67232   5.132  40.042   3.487
99015W        W67233  18.842   0.403  14.497
99016W        W67234  15.700  32.593  13.358
99017W        W67235  26.823  41.943   0.451
99018W        W67236   7.261  25.611   3.192
99019W        W67237  18.581   6.795   0.857
99020W        W67238  24.623  12.918  14.037
99021W        W67239  14.106  28.923  11.152
99022W        W67240  21.551  28.479  14.789
99023W        W67241  28.497  11.344   4.093
99024W        W67242  12.901  30.489   3.797
99025W        W67243  11.675   7.960  11.444
99026W        W67244  13.795  24.304   4.116
99027W        W67245   2.200  24.588  11.057
99028W        W67246  14.143  16.616  14.593
99029W        W67247  16.203  22.003   3.824
99030W        W67248  17.378   7.257  11.662
99031W        W67249  10.723  37.772   0.208
99032W        W67250   8.247  15.173   2.792
99033W        W67251   0.918   5.229  13.993
99034W        W67252  34.524  28.149  11.602
99035W        W67253  32.806  20.499   4.259
99036W        W67254  34.281  34.456  12.990
99037W        W67255   8.924   3.198  12.739
99038W        W67256   6.955  24.521   2.349
99039W        W67257  40.989  42.272   0.250
99040W        W67258   3.952   0.423   3.145
99041W        W67259  44.370  37.548  14.858
99042W        W67260   3.456  24.621   0.754
99043W        W67261  11.313  15.113  13.359
99044W        W67262  33.964   6.118  12.030
99045W        W67263   6.427  33.657  12.430
99046W        W67264   7.123  14.581   4.964
99047W        W67265  38.004  30.881  12.960
99048W        W67266  27.072  22.479  12.988
99049W        W67267  31.070   9.348  10.501
99050W        W67268  12.209   3.768  14.842
99051W        W67269  14.522  40.906   2.358
99052W        W67270  14.398  40.095  14.181
99053W        W67271  19.396  42.451   3.193
99054W        W67272   9.313  15.706  11.470
99055W        W67273  19.148   5.178   3.636
99056W        W67274  20.086  35.460  14.065
99057W        W67275  11.320  39.837  11.667
99058W        W67276   6.823  35.918  12.931
99059W        W67277   8.915  20.795  14.982
99060W        W67278  22.495   3.721   4.772
99061W        W67279  10.824  26.960   3.376
99062W        W67280  32.155   2.684   3.983
99063W        W67281  14.556  19.730   5.010
99064W        W67282  33.692  12.243   4.065
99065W        W67283  35.485  24.008   1.641
99066W        W67284  31.765  12.197   4.305
99067W        W67285  28.043  27.631   0.984
99068W        W67286   7.397  21.268  11.584
99069W        W67287  11.974  36.145   3.814
99070W        W67288  18.244  39.950  10.878
99071W        W67289  10.873  34.541   2.749
99072W        W67290  11.253  22.265   0.372
99073W        W67291  35.996  36.194   4.692
99074W        W67292  11.581  24.026  13.428
99075W        W67293  41.875  34.651  13.962
99076W        W67294  41.869   1.538  12.016
99077W        W67295  17.262   5.734   3.194
99078W        W67296  16.438  40.363   1.741
99079W        W67297  25.523  14.327   4.019
99080W        W67298  23.004  25.150  13.057
99081W        W67299  31.479  35.485  14.366
99082W        W67300   9.425  20.602   3.251
99083W        W67301  16.221  37.394  12.492
99084W        W67302  10.780  26.025  13.835
99085W        W67303  36.151  24.945  11.963
99086W        W67304  23.147  12.975  14.972
99087W        W67305  44.953  21.196   4.570
99088W        W67306   2.161   9.588   3.226
99089W        W67307  30.960  10.418  11.560
99090W        W67308   5.036   2.601   0.692
99091W        W67309  38.067  18.286   0.734
99092W        W67310  34.333  21.749   3.746
99093W        W67311  37.105  16.353  13.859
99094W        W67312  38.637  15.418  13.417
99095W        W67313  22.183  22.467   4.416
99096W        W67314  22.518   5.707  11.598
99097W        W67315  40.216  22.254   0.013
99098W        W67316  35.623   0.330   2.667
99099W        W67317  16.638  23.123  10.686
99100W        W67318  21.652  16.169  11.612
99101W        W67319   2.256   1.116  12.024
99102W        W67320  37.832  19.174   3.158
99103W        W67321   5.272   6.877  11.415
99104W        W67322  28.007  34.619  11.119
99105W        W67323  29.179  44.248  14.269
99106W        W67324  30.697   6.414  12.349
99107W        W67325  11.276  33.367  14.946
99108W        W67326  43.483  31.696  13.014
99109W        W67327  31.412  37.514   3.251
99110W        W67328  34.012  36.495  12.758
99111W        W67329  15.333  12.619   4.118
99112W        W67330  19.302  34.403   3.781
99113W        W67331  13.144  32.724   0.811
99114W        W67332  37.430  38.830  10.682
99115W        W67333  43.560  11.337  14.498
99116W        W67334  19.819  37.439  12.887
99117W        W67335  12.582   5.364   2.850
99118W        W67336  10.191   0.305   1.241
99119W        W67337   3.477  14.162   1.923
99120W        W67338  22.553  18.286  10.899
99121W        W67339  43.911  20.381   3.273
99122W        W67340  25.690   5.649   4.054
99123W        W67341   0.412   4.999  10.685
99124W        W67342  37.196  42.799  14.945
99125W        W67343  13.435   5.200   1.689
99126W        W67344  28.751   2.904   4.629
99127W        W67345  26.150  22.021   9.867
99128W        W67346   3.104  16.170  11.626
99129W        W67347  11.070  33.546  14.065
99130W        W67348  18.116  39.039  10.834
99131W        W67349  26.917  33.601  11.929
99132W        W67350  22.643  40.229  10.422
99133W        W67351  41.952  15.705   2.450
99134W        W67352  11.097   0.501  14.391
99135W        W67353  22.643   4.208   0.382
99136W        W67354  22.562   7.358   1.543
99137W        W67355   0.892  24.013   4.999
99138W        W67356  39.291   7.241   0.950
99139W        W67357  24.249  11.273  13.158
99140W        W67358  17.587  37.668  12.493
99141W        W67359  15.632  20.041  13.463
99142W        W67360  36.826  18.554   4.526
99143W        W67361  19.531  39.995  14.088
99144W        W67362  44.998  22.020   2.775
99145W        W67363  17.778  41.230  13.863
99146W        W67364  44.766  44.067  12.826
99147W        W67365  13.150  10.247   0.384
99148W        W67366  32.653  41.847   2.968
99149W        W67367  36.430  31.013  14.443
99150W        W67368  26.658  17.763   1.772
99151W        W67369  35.359   0.149   3.088
99152W        W67370  26.876  14.225   1.640
99153W        W67371  12.253  28.710  10.648
99154W        W67372   5.767   7.483  14.159
99155W        W67373   7.885  40.064   3.723
99156W        W67374  14.069  24.988   1.088
99157W        W67375  34.062  28.601  12.005
99158W        W67376  14.828  34.603   1.763
99159W        W67377  43.921  26.988   4.086
99160W        W67378  15.978  18.153  11.543
99161W        W67379  34.153  44.567   1.792
99162W        W67380  44.628  35.037  12.964
99163W        W67381  42.759  36.792   4.448
99164W        W67382  40.923  22.961   2.323
99165W        W67383  36.522  44.737   1.822
99166W        W67384   6.417  42.161  11.817
99167W        W67385   1.680  14.547   4.129
99168W        W67386  14.461  41.387  13.420
99169W        W67387  13.374  21.699   2.308
99170W        W67388   8.307  36.920   3.192
99171W        W67389   7.643  22.709  14.979
99172W        W67390  42.880  40.033   0.930
99173W        W67391  16.641  13.950  12.054
99174W        W67392  11.536   4.271  11.468
99175W        W67393  19.588  10.854   0.425
99176W        W67394   8.383  31.268  13.951
99177W        W67395  16.027  22.176  12.605
99178W        W67396  38.298  35.954   3.880
99179W        W67397  12.817  27.483   1.203
99180W        W67398  16.760   9.711   2.441
99181W        W67399  29.003  13.768   4.326
99182W        W67400  14.051   6.225   3.830
99183W        W67401   0.902  32.411   4.551
99184W        W67402   7.241   9.380   4.306
99185W        W67403  34.681   8.366  12.204
99186W        W67404  43.733   4.255  13.466
99187W        W67405  37.774  25.009   2.837
99188W        W67406  14.639  30.655   4.129
99189W        W67407  18.111  34.531   2.494
99190W        W67408  16.868  20.567   1.766
99191W        W67409   8.308  40.626  11.957
99192W        W67410  38.520  29.588  12.215
99193W        W67411  37.043  19.062   4.579
99194W        W67412  21.441  25.624   4.080
99195W        W67413  30.021  31.057   0.699
99196W        W67414  13.199  42.409   0.809
99197W        W67415  25.987  10.566   4.207
99198W        W67416  12.658  41.420  13.323
99199W        W67417  11.150   2.810   2.285
99200W        W67418   7.318  30.479   1.198
99201W        W67419   0.362  34.333  13.056
99202W        W67420  39.900  24.066   4.722
99203W        W67421  31.956  20.876  10.239
99204W        W67422  16.610  11.412  11.082
99205W        W67423  37.958  21.538  12.048
99206W        W67424   6.917  26.584  12.476
99207W        W67425  18.681  43.807   0.399
99208W        W67426   1.125  12.142   0.385
99209W        W67427  11.248  18.714   4.678
99210W        W67428  23.000  20.545  13.986
99211W        W67429   4.164   0.988  14.341
99212W        W67430  15.244  32.552  12.992
99213W        W67431  32.006  22.346   0.225
99214W        W67432  28.592   0.167  12.883
99215W        W67433   6.498  19.696  12.465
99216W        W67434  42.434  39.989  14.551
99217W        W67435  25.916  25.017   3.351
99218W        W67436  13.286  16.011   1.811
99219W        W67437  19.732   4.465   1.853
99220W        W67438   2.360  41.877   4.534
99221W        W67439   8.825  37.561   4.924
99222W        W67440  28.109  24.506   2.810
99223W        W67441  20.160  22.160  13.373
99224W        W67442  33.535  32.585  10.660
99225W        W67443  17.076  11.952   3.618
99226W        W67444  16.251  31.025  14.267
99227W        W67445  39.373  22.023  10.691
99228W        W67446  38.451  29.432  10.810
99229W        W67447   5.857  36.215   1.215
99230W        W67448  37.486  20.554   2.348
99231W        W67449  10.782  16.184   1.272
99232W        W67450  28.772  41.731  13.805
99233W        W67451  20.498   6.276  14.883
99234W        W67452  23.017  33.085   1.337
99235W        W67453   5.749   6.740   3.829
99236W        W67454  27.967  21.740  13.425
99237W        W67455  38.277  10.874   2.667
99238W        W67456  35.955  18.245   0.216
99239W        W67457  11.439  19.280  12.463
99240W        W67458   8.786   8.575  11.699
99241W        W67459   5.892  43.324  14.200
99242W        W67460   9.814   5.243   3.047
99243W        W67461  22.205  38.364  12.147
99244W        W67462   9.759  23.115   0.907
99245W        W67463  37.736   5.944   1.245
99246W        W67464   3.641  34.872  11.384
99247W        W67465  43.947  37.533   2.657
99248W        W67466  21.959  39.342   4.205
99249W        W67467  24.126  19.449  13.457
99250W        W67468   9.886  20.012   0.493
99251W        W67469  29.542  23.315   5.078
99252W        W67470  35.466  14.169   0.341
99253W        W67471  13.912  39.006  14.959
99254W        W67472  14.157  10.642   4.293
99255W        W67473  20.640  29.353  12.486
99256W        W67474  25.082  17.938   1.725
99257W        W67475   9.385  25.141   1.959
99258W        W67476  35.615  10.779   1.893
99259W        W67477  10.301  22.564  11.476
99260W        W67478  23.158  13.205   2.671
99261W        W67479  15.292  27.169  13.071
99262W        W67480  31.925   0.928  11.265
99263W        W67481  42.256  25.188  13.306
99264W        W67482  13.518   3.965  11.961
99265W        W67483  29.123  18.741  14.778
99266W        W67484  33.140  31.554   1.286
99267W        W67485   8.590  44.800  13.461
99268W        W67486  38.543  28.623   0.250
99269W        W67487  41.656  41.882  11.000
99270W        W67488  34.850   9.861   3.485
99271W        W67489  13.734  12.870   4.744
99272W        W67490   2.804  22.106  13.512
99273W        W67491   6.262  37.226   5.030
99274W        W67492   3.697   6.462   4.783
99275W        W67493   2.343  41.764   2.453
99276W        W67494  18.818  34.425   1.313
99277W        W67495   7.138  28.002   0.381
99278W        W67496  22.518   2.695   0.508
99279W        W67497  37.426   8.859  14.388
99280W        W67498  16.969  23.984   2.287
99281W        W67499  28.202  38.646  13.324
99282W        W67500  43.132  13.527  13.410
99283W        W67501  26.702  29.013   2.284
99284W        W67502  44.391   3.764  14.957
99285W        W67503   7.485  29.525  10.621
99286W        W67504  34.986  35.672   4.543
99287W        W67505  26.248  30.257   3.405
99288W        W67506  30.059   6.162  12.863
99289W        W67507  20.741  18.810  13.741
99290W        W67508  43.412   7.788  12.009
99291W        W67509  16.211  32.005  14.400
99292W        W67510  38.068  33.519  13.514
99293W        W67511  25.570   7.927  13.391
99294W        W67512  37.538  40.619  14.443
99295W        W67513  40.036  22.133   2.672
99296W        W67514  31.530   8.666  11.532
99297W        W67515  13.531   2.868   0.225
99298W        W67516  20.572   9.173  11.026
99299W        W67517  10.377  35.976   3.922
99300W        W67518  26.610  43.548   4.103
99301W        W67519   0.512   9.484  13.307
99302W        W67520   6.861  34.714  13.489
99303W        W67521  27.474  35.434   4.016
99304W        W67522  23.040   5.291   2.583
99305W        W67523  38.489  17.543  14.633
99306W        W67524  36.580  23.641  11.399
99307W        W67525  28.366   5.732  11.159
99308W        W67526  40.144   0.440  11.663
99309W        W67527  30.006  20.575  14.382
99310W        W67528  26.693  26.237  11.283
99311W        W67529  33.406  10.618   2.337
99312W        W67530  38.624  28.578   3.971
99313W        W67531  19.679  38.440   3.255
99314W        W67532   8.839  14.715   3.199
99315W        W67533  10.895  35.010   2.967
99316W        W67534  18.575  29.481  12.872
99317W        W67535  10.877  31.430  12.570
99318W        W67536  21.341  17.511   3.278
99319W        W67537  15.288  19.481  12.005
99320W        W67538  36.965  25.385   0.721
99321W        W67539   1.787  11.648  13.363
99322W        W67540   6.971  41.454   3.741
99323W        W67541  21.686  27.011  10.765
99324W        W67542  17.818  11.205   3.766
99325W        W67543   7.760   1.830   4.660
99326W        W67544  19.676  24.460   4.866
99327W        W67545  39.785   6.255  13.616
99328W        W67546  43.014  37.381  14.335
99329W        W67547  36.413  10.788  10.618
99330W        W67548  35.922  31.961  14.433
99331W        W67549  42.029   0.755  11.695
99332W        W67550  37.459  27.882   1.755
99333W        W67551  13.132  42.137  13.659
99334W        W67552  14.653  33.830  14.655
99335W        W67553   0.858  30.556  12.160
99336W        W67554  16.249  15.921   4.498
99337W        W67555  16.116  13.476   3.093
99338W        W67556  19.176   8.257  13.655
99339W        W67557  15.514  37.537   4.580
99340W        W67558   9.154  27.981  11.851
99341W        W67559   0.717   8.820  12.608
99342W        W67560  41.047  35.048   2.388
99343W        W67561  27.401  40.808  14.425
99344W        W67562  21.609  24.773  10.686
99345W        W67563  34.710  36.116  14.021
99346W        W67564   6.617  42.323  14.954
99347W        W67565  25.993  40.077  12.472
99348W        W67566  23.412  35.610   0.933
99349W        W67567  25.522   5.208  12.554
99350W        W67568  34.509  32.602  14.452
99351W        W67569   6.223   3.604  13.953
99352W        W67570  18.698  43.451   2.436
99353W        W67571  22.657  22.636   1.946
99354W        W67572  10.786   3.645  14.833
99355W        W67573   5.365  18.121  13.446
99356W        W67574  23.114   2.349  14.418
99357W        W67575  28.987   6.883  11.502
99358W        W67576  23.372  44.056   1.769
99359W        W67577  34.372  35.569  13.343
99360W        W67578  34.147  35.876   2.450
99361W        W67579   2.762  35.909  14.974
99362W        W67580  18.788  22.189   4.739
99363W        W67581   8.903  14.861  12.748
99364W        W67582  43.706  34.465  12.463
99365W        W67583  33.573  44.963   2.259
99366W        W67584  32.927  43.781   3.633
99367W        W67585   7.685  27.632   4.389
99368W        W67586  13.125  40.547  11.314
99369W        W67587   9.655   9.205   0.006
99370W        W67588   6.446  23.722   0.035
99371W        W67589  32.379   7.124   4.154
99372W        W67590  23.406  18.111   0.321
99373W        W67591  27.334  33.124  13.867
99374W        W67592  12.665  12.323   2.921
99375W        W67593  43.710  44.980  12.837
99376W        W67594   7.228   8.909   0.779
99377W        W67595   2.042   4.889  14.479
99378W        W67596  22.182   5.593   4.081
99379W        W67597  17.565  14.168   1.185
99380W        W67598  32.547  17.760   4.481
99381W        W67599  10.641  43.394  12.882
99382W        W67600   5.580   3.808  11.059
99383W        W67601  35.323  20.555  11.104
99384W        W67602   2.302  38.294   2.597
99385W        W67603   9.859  41.095   4.539
99386W        W67604  44.416  33.591   1.374
99387W        W67605  35.297   5.707   0.866
99388W        W67606  20.566  13.606  10.634
99389W        W67607   1.866  37.080  14.414
99390W        W67608   7.574   0.430  14.107
99391W        W67609  15.691  31.977  12.557
99392W        W67610  38.280  21.621   3.597
99393W        W67611  17.027  42.100   2.629
99394W        W67612  39.811   1.808   5.422
99395W        W67613   8.767  41.890  10.658
99396W        W67614  30.435  28.666   0.024
99397W        W67615  31.016  18.674  11.895
99398W        W67616  14.212  38.330   4.911
99399W        W67617  36.820  29.089  10.646
99400W        W67618   1.663  16.261  14.066
99401W        W67619  31.539  33.448   3.020
99402W        W67620   8.973  16.426  14.863
99403W        W67621  26.424  38.792   2.778
99404W        W67622   8.858  11.157  11.518
99405W        W67623   4.127  33.331   1.775
99406W        W67624  40.720  24.232  14.956
99407W        W67625  28.625  24.769  11.700
99408W        W67626  28.162   3.401   0.060
99409W        W67627  26.736  36.468  13.939
99410W        W67628  41.802  31.540  13.733
99411W        W67629  13.378  19.942  12.923
99412W        W67630  40.902  27.049  12.933
99413W        W67631  18.487   2.290   2.434
99414W        W67632  41.990  17.734  13.925
99415W        W67633  30.265  13.746  13.349
99416W        W67634  37.599  17.306   4.778
99417W        W67635  10.463  29.011  10.631
99418W        W67636  12.126   6.435  12.451
99419W        W67637   5.683  32.531   0.760
99420W        W67638   9.926  13.117   2.185
99421W        W67639  31.215  35.105   3.695
99422W        W67640  15.706  18.617  11.097
99423W        W67641  28.992  44.672  13.575
99424W        W67642  16.074  14.004  13.984
99425W        W67643  23.229  24.047  14.996
99426W        W67644  31.683  21.285  11.502
99427W        W67645  26.762  15.183   1.848
99428W        W67646   9.724  21.754  11.725
99429W        W67647  18.637  36.368  11.071
99430W        W67648  12.307  22.079   0.845
99431W        W67649  30.524   4.683   1.262
99432W        W67650   4.783  30.908   0.903
99433W        W67651   5.178  37.942  14.197
99434W        W67652  21.936  26.959   3.243
99435W        W67653  22.588  33.908  14.442
99436W        W67654  41.092  15.385   0.977
99437W        W67655  44.707  38.285  11.624
99438W        W67656  38.410  25.590  11.392
99439W        W67657   4.493  42.795  11.047
99440W        W67658  31.839  36.901   2.702
99441W        W67659  26.800  13.519   3.029
99442W        W67660   7.638  35.823  12.609
99443W        W67661  39.637  44.246   1.385
99444W        W67662  13.444  23.104  12.764
99445W        W67663   1.410  11.407   2.358
99446W        W67664  11.815  37.840   4.245
99447W        W67665  11.458  27.018   1.121
99448W        W67666  36.478  39.036  13.314
99449W        W67667  28.948  42.062  12.822
99450W        W67668  12.647  12.765  13.985
99451W        W67669  34.757  32.533   3.901
99452W        W67670  38.991   8.481   0.887
99453W        W67671  28.146   9.111   3.457
99454W        W67672  37.811   0.066  11.635
99455W        W67673   4.210  10.826   1.188
99456W        W67674   6.281   3.809  12.968
99457W        W67675  25.308  43.728   2.018
99458W        W67676  27.598   4.191   0.058
99459W        W67677  43.000  21.124  12.499
99460W        W67678  12.924   2.125   2.193
99461W        W67679  27.208   1.382  11.741
99462W        W67680  13.123  23.497   1.664
99463W        W67681  30.857   4.156   3.202
99464W        W67682   7.621  36.775   1.337
99465W        W67683  35.384  22.548   4.206
99466W        W67684  17.087  16.193  12.448
99467W        W67685  27.343  40.537  10.728
99468W        W67686  23.489  34.362  10.718
99469W        W67687   3.348  41.493  10.573
99470W        W67688  41.537  16.805   0.976
99471W        W67689  41.277   9.121   3.697
99472W        W67690  32.363  11.340  11.321
99473W        W67691   3.664  29.567   3.065
99474W        W67692  12.195  19.091   4.345
99475W        W67693   8.392  39.342   1.744
99476W        W67694  36.834   5.909  13.331
99477W        W67695  38.017  24.496  13.593
99478W        W67696  14.747  16.901   4.187
99479W        W67697   2.289  31.108   0.892
99480W        W67698  14.128  44.385   4.120
99481W        W67699   5.856  14.793   1.695
99482W        W67700  23.478  17.595   0.321
99483W        W67701  39.422  26.920  11.880
99484W        W67702  14.648  25.627  13.836
99485W        W67703  38.707  22.702  12.543
99486W        W67704  27.490   8.330   3.842
99487W        W67705  38.882  30.086   2.270
99488W        W67706  44.235  37.573   2.217
99489W        W67707   5.272  21.692   1.482
99490W        W67708  34.528  33.475  13.885
99491W        W67709  43.521  32.544  11.084
99492W        W67710  41.696   7.848   3.284
99493W        W67711  33.466  44.378  13.368
99494W        W67712  39.798   8.598   3.856
99495W        W67713  39.500  38.307  14.253
99496W        W67714   2.222  10.624  10.472
99497W        W67715  13.329   5.187   2.259
99498W        W67716   7.370   2.235  14.874
99499W        W67717  26.319   3.942   4.665
99500W        W67718   3.924  37.872   4.316
99501W        W67719  42.462  24.778   4.165
99502W        W67720  28.212  21.151  12.438
99503W        W67721  31.646  42.315  11.213
99504W        W67722  16.127  10.158   4.393
99505W        W67723  36.161  43.282   0.442
99506W        W67724  26.649  32.398  14.063
99507W        W67725   5.020  37.688  11.623
99508W        W67726  27.434  42.323   3.717
99509W        W67727  21.114  15.438  14.577
99510W        W67728  21.824   9.268  14.917
99511W        W67729  35.064  37.966  11.203
99512W        W67730  33.428  21.612  14.345
99513W        W67731  10.048  32.607  13.012
99514W        W67732  21.846   6.848  11.994
99515W        W67733  18.812  24.647   3.774
99516W        W67734  44.571  20.468  11.049
99517W        W67735  14.945  15.850   4.421
99518W        W67736  24.457  31.401  10.429
99519W        W67737  28.119  15.373  12.119
99520W        W67738  40.716  17.291  11.575
99521W        W67739  14.283   3.430   2.305
99522W        W67740  31.259   8.949  12.750
99523W        W67741   6.061  34.902   2.310
99524W        W67742  27.267   7.445  12.516
99525W        W67743  18.104   9.471  11.173
99526W        W67744   6.455  36.547  10.913
99527W        W67745  28.307  43.391  14.580
99528W        W67746  11.394  31.718  14.281
99529W        W67747  37.950   8.307   3.349
99530W        W67748  23.978  11.150   1.642
99531W        W67749  35.046   1.521  12.082
99532W        W67750  41.324  11.308  14.050
99533W        W67751  15.747  25.872  12.859
99534W        W67752  15.690   1.679   1.681
99535W        W67753  32.168  24.223   3.069
99536W        W67754  27.379   1.944   1.438
99537W        W67755  36.271  42.563   5.105
99538W        W67756   4.853  39.048   0.554
99539W        W67757  21.034   3.547  11.586
99540W        W67758  17.301   8.794   0.497
99541W        W67759  22.860  37.241   1.390
99542W        W67760  30.400  16.809   0.817
99543W        W67761  39.069  40.855  14.080
99544W        W67762  19.295  32.187   2.018
99545W        W67763   2.621  16.005  12.517
99546W        W67764   7.914  19.193   3.658
99547W        W67765  27.637  16.539  13.449
99548W        W67766  14.665  31.190  13.120
99549W        W67767  39.697  32.276  14.291
99550W        W67768  32.138  31.517   1.224
99551W        W67769  12.224   0.591  11.931
99552W        W67770  11.240   6.313  14.517
99553W        W67771  22.441  40.362  13.428
99554W        W67772  35.496  36.426   0.122
99555W        W67773  24.297  17.707  14.443
99556W        W67774  36.233   0.506  12.473
99557W        W67775  32.021  29.978  14.905
99558W        W67776  35.531  21.681   4.644
99559W        W67777  42.256  21.668   1.670
99560W        W67778  32.345   1.989  12.038
99561W        W67779   8.311  43.176   3.824
99562W        W67780   9.129  30.943   2.143
99563W        W67781  36.902  28.451  13.262
99564W        W67782  35.150  26.424  14.223
99565W        W67783  40.328   7.267  14.922
99566W        W67784  27.196  10.700   3.478
99567W        W67785  16.335  41.049   1.387
99568W        W67786  40.779  24.482  11.182
99569W        W67787  42.439  40.809  11.865
99570W        W67788  34.187  40.303   3.677
99571W        W67789   0.551  33.037  14.623
99572W        W67790  15.819   2.583  10.880
99573W        W67791   3.823   4.298   4.436
99574W        W67792  39.583  16.538  12.389
99575W        W67793  38.366  41.212   4.082
99576W        W67794   0.032  16.292   1.899
99577W        W67795  39.400  22.461   0.365
99578W        W67796  16.334   0.369  13.082
99579W        W67797  20.019  31.518  11.166
99580W        W67798  35.503  23.291   2.710
99581W        W67799   4.361  29.605  11.544
99582W        W67800  38.359   1.336  11.676
99583W        W67801  31.168  31.987  13.816
99584W        W67802  39.777  40.668   2.748
99585W        W67803  24.810  12.204  12.845
99586W        W67804   0.608  18.313   1.931
99587W        W67805   8.974  25.587  14.893
99588W        W67806  12.893  39.553   1.521
99589W        W67807  17.612  15.116   1.365
99590W        W67808   3.549  12.258   3.250
99591W        W67809  19.209  18.318  12.610
99592W        W67810   6.095  35.668  12.337
99593W        W67811  31.630  11.416   0.769
99594W        W67812  11.843  39.767  12.383
99595W        W67813  29.583   7.893  11.244
99596W        W67814   5.800  37.493  11.015
99597W        W67815  44.740  27.093   4.074
99598W        W67816  26.729  17.080  13.029
99599W        W67817  12.307  13.808  12.071
99600W        W67818  19.975   7.905   4.823
99601W        W67819  14.717   0.015  13.806
99602W        W67820  39.817  28.293  12.073
99603W        W67821  39.860  30.399  13.740
99604W        W67822  23.254  17.275  11.165
99605W        W67823  44.825  44.833   4.674
99606W        W67824  23.358   2.161   4.530
99607W        W67825  33.373  30.930  14.372
99608W        W67826  25.122  13.721  13.540
99609W        W67827   9.315  14.544   5.375
99610W        W67828  30.083  21.602   2.866
99611W        W67829   3.062   0.485  10.480
99612W        W67830  20.569  23.524  13.154
99613W        W67831  37.561  16.804  11.939
99614W        W67832  20.781  25.979  14.028
99615W        W67833  13.053  12.778   0.761
99616W        W67834  44.523  11.384  14.183
99617W        W67835   3.272  33.691   3.113
99618W        W67836  14.697  10.436  13.423
99619W        W67837  18.985  37.361   4.421
99620W        W67838   4.809  14.180   2.221
99621W        W67839  38.708  24.426  13.094
99622W        W67840   3.663  28.485   1.934
99623W        W67841   7.357  24.779   2.186
99624W        W67842   6.153  36.104  12.603
99625W        W67843  11.710  10.377   2.899
99626W        W67844   1.943  39.334  12.508
99627W        W67845   4.200  27.170  14.871
99628W        W67846  29.520  23.208  12.505
99629W        W67847  34.509  29.901  13.270
99630W        W67848   9.879  38.787  11.164
99631W        W67849   2.755  23.189   3.778
99632W        W67850  34.993  35.406  12.388
99633W        W67851  25.703  38.338  14.834
99634W        W67852  32.123  37.337   2.624
99635W        W67853  42.804  33.179   0.740
99636W        W67854   8.893  21.419  13.104
99637W        W67855  23.666  40.826   4.786
99638W        W67856   1.360  43.003  13.591
99639W        W67857  18.650   6.916   3.374
99640W        W67858  12.865  34.966   0.338
99641W        W67859  34.484  31.379  14.546
99642W        W67860  24.160   9.608  11.591
99643W        W67861   7.468   9.407  14.556
99644W        W67862  16.073  40.758   1.750
99645W        W67863  10.876  19.182  13.509
99646W        W67864  26.429  15.100   0.469
99647W        W67865  33.213  34.348  13.837
99648W        W67866   5.480  32.080  11.571
99649W        W67867   5.905  21.726   1.804
99650W        W67868  26.967   1.726   2.420
99651W        W67869  14.705  30.223  14.333
99652W        W67870  19.409  31.068  11.467
99653W        W67871   3.316  12.859  13.513
99654W        W67872  23.580  44.861   3.735
99655W        W67873  10.211  11.288  12.884
99656W        W67874   5.759  24.330   1.304
99657W        W67875   9.035  13.135  14.579
99658W        W67876  41.019  11.674  12.035
99659W        W67877   6.753  12.619  13.344
99660W        W67878   9.792  27.209   2.352
99661W        W67879  44.904   3.032   3.746
99662W        W67880  11.891  42.051   1.736
99663W        W67881  39.420  34.475   1.490
99664W        W67882  27.693   4.304  14.556
99665W        W67883  38.367  32.697  13.140
99666W        W67884  23.272  20.654  11.828
99667W        W67885  28.096  35.899  11.877
99668W        W67886  30.501  16.231   2.840
99669W        W67887  34.613  42.848   4.244
99670W        W67888  13.660  30.878  12.653
99671W        W67889  31.057  22.674  14.294
99672W        W67890   1.976   0.870  12.930
99673W        W67891  39.876   8.788   0.644
99674W        W67892  29.011  39.960   4.509
99675W        W67893   3.481  23.557   4.825
99676W        W67894   5.229   8.180   1.060
99677W        W67895  35.034   8.563   4.644
99678W        W67896  11.176  10.728   4.672
99679W        W67897  30.423  13.682  12.852
99680W        W67898  30.471  20.503   4.486
99681W        W67899  39.614  35.922   3.632
99682W        W67900  11.813  30.320   4.090
99683W        W67901  22.500  18.135  12.294
99684W        W67902  10.357  16.187   5.053
99685W        W67903  10.035  13.835   0.884
99686W        W67904   8.454  25.707  14.886
99687W        W67905   5.398  36.470  12.560
99688W        W67906  16.735  21.651  11.662
99689W        W67907   7.329  33.820  13.311
99690W        W67908  19.621  10.735  12.400
99691W        W67909  31.573   5.739   1.015
99692W        W67910  15.775  15.535  14.036
99693W        W67911   0.988  10.747   0.280
99694W        W67912  33.441  39.747  11.008
99695W        W67913  25.134  19.655  12.574
99696W        W67914  26.482  11.260   2.557
99697W        W67915  10.113  37.928  12.521
99698W        W67916  29.892  17.611   9.505
99699W        W67917  19.999   6.158  11.906
99700W        W67918   4.195  13.301  11.196
99701W        W67919   3.300  41.003   2.108
99702W        W67920  13.846   8.652   4.892
99703W        W67921  15.851  36.513   2.804
99704W        W67922   4.850  18.647  12.533
99705W        W67923   3.027   9.209   0.568
99706W        W67924  14.673  12.924   4.981
99707W        W67925  42.246  25.745   1.799
99708W        W67926  25.689  10.478   3.246
99709W        W67927  19.617   4.832   0.444
99710W        W67928  36.166   0.953   1.379
99711W        W67929  26.123  33.519  13.966
99712W        W67930  15.336  12.887  10.399
99713W        W67931  43.756   5.303   1.996
99714W        W67932  42.071   7.346  14.746
99715W        W67933   7.401   3.335   2.227
99716W        W67934  22.812  41.348  13.401
99717W        W67935  10.344   6.763   1.642
99718W        W67936  20.455  21.511   0.463
99719W        W67937  15.541   3.806  13.046
99720W        W67938  15.189   7.173   1.499
99721W        W67939  40.583   1.813   0.850
99722W        W67940  41.757  39.279  14.543
99723W        W67941  28.501   0.401   3.041
99724W        W67942   1.800   4.312   3.305
99725W        W67943  27.956  26.534   1.403
99726W        W67944   3.330  14.374  10.825
99727W        W67945  34.831   8.869  14.532
99728W        W67946  29.964  34.646   4.559
99729W        W67947  32.769  26.235  11.322
99730W        W67948   5.861   5.297  13.397
99731W        W67949   1.288   2.030  10.742
99732W        W67950  28.333   4.060   0.285
99733W        W67951   3.631   0.375   0.366
99734W        W67952  25.233  17.929  11.472
99735W        W67953  37.817   0.985  12.910
99736W        W67954  16.111  12.895  11.108
99737W        W67955  11.114  25.819   0.439
99738W        W67956  43.431  23.600  11.232
99739W        W67957  27.009  10.405  11.976
99740W        W67958  17.645  17.549   3.148
99741W        W67959  24.625   0.368  11.568
99742W        W67960  12.653  35.152  14.890
99743W        W67961   2.111  21.218   3.574
99744W        W67962  20.973  25.156  10.306
99745W        W67963  14.370  20.585   2.803
99746W        W67964  40.126  24.528  11.501
99747W        W67965   2.863  19.138  11.733
99748W        W67966  27.046  12.717  14.331
99749W        W67967  29.550  12.244  14.034
99750W        W67968  32.667   4.846  12.037
99751W        W67969  39.578   3.220  12.908
99752W        W67970  38.483   7.482   1.678
99753W        W67971  33.581  17.786  11.868
99754W        W67972  37.960  36.067   4.251
99755W        W67973  17.652  18.110   0.956
99756W        W67974  30.588  10.818  11.544
99757W        W67975   6.101  24.209   3.967
99758W        W67976  11.964  39.837   0.377
99759W        W67977   9.666  43.386   4.542
99760W        W67978  25.149  37.256  14.385
99761W        W67979  18.576  15.961  11.126
99762W        W67980  15.243   8.762  13.465
99763W        W67981   7.783  30.104   3.090
99764W        W67982   5.324   0.752   4.924
99765W        W67983  31.172  22.273   2.250
99766W        W67984   6.688  36.414  12.892
99767W        W67985  11.626  35.310   1.271
99768W        W67986   9.874  16.452   2.839
99769W        W67987  17.642   7.707   4.362
99770W        W67988   3.917  35.178   0.307
99771W        W67989  25.002   9.371   2.856
99772W        W67990  26.687  26.287   4.080
99773W        W67991  38.107  44.957   4.254
99774W        W67992  20.237  14.576  11.911
99775W        W67993  16.578  15.327   0.612
99776W        W67994  31.524  13.325  13.793
99777W        W67995  18.554  12.064   4.905
99778W        W67996  44.024   7.323   0.071
99779W        W67997  16.553  15.512   2.858
99780W        W67998  10.200   6.479  14.393
99781W        W67999  16.753  43.230   4.774
99782W        W68000  40.470  44.225  13.010
99783W        W68001  29.552  32.850   4.544
99784W        W68002  29.291  10.089   3.213
99785W        W68003  17.174   3.547   2.803
99786W        W68004  26.052  14.087  14.282
99787W        W68005   4.360  12.877  12.962
99788W        W68006  23.964  33.679  10.650
99789W        W68007  10.384  13.796  12.640
99790W        W68008  41.449  11.828  14.735
99791W        W68009  24.174   6.296  11.191
99792W        W68010   4.666  30.982  13.954
99793W        W68011   0.340  27.193  13.813
99794W        W68012  43.727  37.800  12.343
99795W        W68013  18.583  43.086  13.227
99796W        W68014  27.717  44.419  12.134
99797W        W68015  14.300  16.347   2.112
99798W        W68016  13.426  32.116   1.208
99799W        W68017  38.088   7.611   3.240
99800W        W68018  35.648   8.707   0.818
99801W        W68019   2.749  21.145  14.453
99802W        W68020  40.401  28.459   4.418
99803W        W68021   8.973   7.862  13.948
99804W        W68022  15.339  36.452   1.496
99805W        W68023   8.081  44.821  13.613
99806W        W68024  15.455  12.620  14.761
99807W        W68025  35.397   2.852   4.073
99808W        W68026  16.938  24.167  13.760
99809W        W68027  30.662  37.669   5.199
99810W        W68028  32.829  29.184  13.966
99811W        W68029   7.877  16.569   2.892
99812W        W68030  32.237  36.335  12.433
99813W        W68031  15.484  20.226  10.557
99814W        W68032  25.384   5.847  10.780
99815W        W68033  21.193  31.421  11.609
99816W        W68034  24.168  35.623  14.397
99817W        W68035  17.051  16.278  14.202
99818W        W68036   5.800  44.990   4.121
99819W        W68037   0.720  40.475   2.721
99820W        W68038  13.595   9.425   4.269
99821W        W68039  12.225  41.448  11.141
99822W        W68040  28.040  16.714  12.675
99823W        W68041  41.049  15.293  13.469
99824W        W68042  41.523   4.822   1.654
99825W        W68043  11.776  41.401  11.418
99826W        W68044  11.529  16.147   9.681
99827W        W68045  32.579  37.597   2.683
99828W        W68046   8.621  41.641  12.121
99829W        W68047  41.439  18.864   4.242
99830W        W68048  20.845  37.550   0.294
99831W        W68049  20.280  13.752  13.564
99832W        W68050  32.061  24.212   3.575
99833W        W68051  39.002  39.091  10.649
99834W        W68052  16.483  30.372   3.929
99835W        W68053  44.810   9.163  11.256
99836W        W68054  32.714  29.565   3.073
99837W        W68055  10.793  36.587   3.648
99838W        W68056   8.424  39.839  13.274
99839W        W68057  37.551   0.687  14.088
99840W        W68058   2.760  18.212   3.784
99841W        W68059  24.462   8.183  12.331
99842W        W68060  30.035  32.649  12.172
99843W        W68061  36.529  37.237  10.777
99844W        W68062  12.907  27.565  11.268
99845W        W68063  25.146  37.076   3.709
99846W        W68064  17.702  12.984  14.083
99847W        W68065  29.998   2.951   2.819
99848W        W68066   8.363  39.926   0.394
99849W        W68067  44.542  43.566  14.602
99850W        W68068   2.761  39.394  10.684
99851W        W68069   1.510   6.458   1.495
99852W        W68070  40.985  20.648  11.292
99853W        W68071  34.903   4.818  11.644
99854W        W68072  39.749  30.641   3.267
99855W        W68073  21.255  39.578  14.531
99856W        W68074   5.614  23.062  11.723
99857W        W68075  28.210  34.608  12.878
99858W        W68076   8.349   2.288   1.734
99859W        W68077   9.792  22.580   2.431
99860W        W68078  40.978  43.229  11.997
99861W        W68079  32.304  19.105  13.550
99862W        W68080  19.032  25.165   0.902
99863W        W68081  39.971   9.217  10.746
99864W        W68082  12.392  14.608   4.583
99865W        W68083  24.163  36.929  11.614
99866W        W68084  24.116  28.101   2.197
99867W        W68085   5.326  24.228   3.236
99868W        W68086   1.344  31.205   3.344
99869W        W68087   8.246   6.416  10.808
99870W        W68088  24.038  24.103   4.993
99871W        W68089   3.387  44.740  11.528
99872W        W68090  12.615  16.345  11.141
99873W        W68091   7.751  26.693  11.133
99874W        W68092  16.526  31.104   3.671
99875W        W68093  26.603  26.108  14.755
99876W        W68094  40.306  12.750  12.519
99877W        W68095  42.980  32.266  12.436
99878W        W68096  37.705  32.063  13.371
99879W        W68097  33.381   2.957   0.754
99880W        W68098  21.904  43.363   1.821
99881W        W68099   8.185  16.485   2.338
99882W        W68100  39.750   5.888   3.261
99883W        W68101  44.022   8.880  14.714
99884W        W68102  31.125  15.601   3.349
99885W        W68103   7.566  21.071  14.773
99886W        W68104   2.675  15.103  12.467
99887W        W68105   4.232  27.845   0.430
99888W        W68106   3.276   7.221  14.314
99889W        W68107   0.440   7.588  12.874
99890W        W68108  24.510  24.407   1.985
99891W        W68109  38.959  37.589   4.426
99892W        W68110  41.979  14.045   0.949
99893W        W68111   8.558  36.025   0.642
99894W        W68112  36.126  34.094   2.290
99895W        W68113  25.556   6.791   4.202
99896W        W68114  43.622  35.436   2.632
99897W        W68115  13.185  43.923   1.957
99898W        W68116  17.119  15.101  11.597
99899W        W68117  24.668  37.781   0.817
99900W        W68118  23.652  37.723   0.382
99901W        W68119  28.136   9.369   1.378
99902W        W68120  19.079  22.982   2.252
99903W        W68121  19.586  26.942   0.374
99904W        W68122   4.080  22.170   1.012
99905W        W68123   6.271   7.720  14.022
99906W        W68124  38.860  42.398   3.556
99907W        W68125  33.898  31.039  10.308
99908W        W68126  29.113   2.872  13.266
99909W        W68127  43.277  17.651   3.603
99910W        W68128  22.700   4.705  11.559
99911W        W68129  23.070  22.590  13.991
99912W        W68130   9.178  42.807   3.242
99913W        W68131  37.779  13.782   0.369
99914W        W68132  39.960  21.082  13.437
99915W        W68133  43.403  37.355   1.062
99916W        W68134  26.416   4.458  13.714
99917W        W68135   4.666  39.930  14.022
99918W        W68136  39.572  14.300  10.785
99919W        W68137  24.348  19.128  11.554
99920W        W68138   1.245   1.868   3.420
99921W        W68139  20.814   8.949  11.797
99922W        W68140  35.915  24.991   4.083
99923W        W68141  43.762  19.097  13.821
99924W        W68142  12.572  42.972  10.318
99925W        W68143  33.256  33.558  13.373
99926W        W68144   4.233   9.312   2.789
99927W        W68145   5.980  24.558   0.895
99928W        W68146  22.212  42.748  13.455
99929W        W68147  42.579  12.235   4.554
99930W        W68148  27.005  15.320   1.300
99931W        W68149  43.197  18.577   0.873
99932W        W68150  29.551  20.366   3.731
99933W        W68151  39.565  18.058   1.822
99934W        W68152   8.347  25.555   4.348
99935W        W68153   0.738  43.075   3.262
99936W        W68154  43.003  19.595  11.504
99937W        W68155  23.130  37.283   9.468
99938W        W68156  13.617   1.294  14.570
99939W        W68157  11.661  22.050  14.549
99940W        W68158  24.626  14.819   2.158
99941W        W68159  36.924  38.836   3.588
99942W        W68160  29.897  40.865   2.125
99943W        W68161  13.066  33.359  13.837
99944W        W68162  19.528  15.980   3.881
99945W        W68163  21.751  24.644   2.777
99946W        W68164  33.887  35.629   2.007
99947W        W68165  21.632  40.037   2.763
99948W        W68166  43.463  13.766  12.577
99949W        W68167   0.865  44.816  14.219
99950W        W68168  34.855   1.231  11.431
99951W        W68169  42.211  34.617   0.809
99952W        W68170  42.572  17.155   3.410
99953W        W68171   1.980  27.166  10.683
99954W        W68172  36.351   9.794   3.379
99955W        W68173   6.922  38.558   0.701
99956W        W68174  19.609   9.287  11.116
99957W        W68175  23.291  24.726   3.766
99958W        W68176  43.801  32.171  12.414
99959W        W68177  23.703  16.070  13.537
99960W        W68178  44.975  34.862   4.340
99961W        W68179  35.814  15.662   0.469
99962W        W68180  36.443  13.818  14.410
99963W        W68181  31.833  24.020   1.726
99964W        W68182  43.396   1.940  14.253
99965W        W68183   4.609   8.980   5.038
99966W        W68184  21.651  41.923  14.220
99967W        W68185  38.848  21.941  11.152
99968W        W68186  16.919  16.328   0.992
99969W        W68187  32.918  13.239   1.883
99970W        W68188  27.931  17.992  14.407
99971W        W68189  27.481  27.625  14.483
99972W        W68190  13.108  21.689  12.881
99973W        W68191  12.289  29.290  13.468
99974W        W68192  24.995  18.136   1.241
99975W        W68193  31.050   9.392  11.375
99976W        W68194  10.375  32.207  10.714
99977W        W68195  31.951  43.594  12.210
99978W        W68196  24.751  22.162   2.360
99979W        W68197  17.234  30.639  10.716
99980W        W68198  16.060  21.254   0.592
99981W        W68199  13.813  18.615  11.441
99982W        W68200   4.687  21.040  11.222
99983W        W68201   3.294  14.716  11.202
99984W        W68202  36.071  30.639  10.783
99985W        W68203   5.425   1.293  13.816
99986W        W68204   7.515  19.938   1.766
99987W        W68205  37.604  28.615   2.195
99988W        W68206  37.867   7.255  12.880
99989W        W68207  15.002   8.553  14.989
99990W        W68208  25.342  44.723   2.799
99991W        W68209  39.042  37.588   2.393
99992W        W68210  32.032   5.573  11.435
99993W        W68211  25.583   2.991   1.310
99994W        W68212  34.593   8.648   3.159
99995W        W68213  27.504  12.146  13.265
99996W        W68214  14.139  24.990  12.019
99997W        W68215  36.665  18.690  11.923
99998W        W68216  23.706  11.317   2.796
99999W        W68217  14.673  24.726   0.072
    0W        W68218   2.275  29.397  13.502
    1W        W68219  12.511  27.476  14.783
    2W        W68220  25.195   7.348   2.673
    3W        W68221   6.272  35.280   2.602
    4W        W68222  38.656  39.814   1.008
    5W        W68223  30.882  24.146   4.544
    6W        W68224   6.548  10.683  11.529
    7W        W68225  40.624  34.544  13.403
    8W        W68226   4.650  15.094  13.989
    9W        W68227  11.140  43.851   2.207
   10W        W68228  30.433  36.010   1.849
   11W        W68229  24.122  36.494   9.897
   12W        W68230  43.599  41.480   2.772
   13W        W68231  30.032  32.688   2.248
   14W        W68232  33.706   4.285   1.413
   15W        W68233  42.488   3.873   1.227
   16W        W68234   8.056   9.326   1.917
   17W        W68235   8.148  19.670  14.745
   18W        W68236  22.608  40.113   3.194
   19W        W68237   7.353   1.860  14.392
   20W        W68238  39.456   9.204  12.565
   21W        W68239   3.734  26.943   3.768
   22W        W68240  42.789  43.951   2.765
   23W        W68241  41.281  18.800   0.408
   24W        W68242  35.860  36.267  12.806
   25W        W68243  24.171  39.410  13.478
   26W        W68244  16.235  19.102   0.310
   27W        W68245  35.979   2.558  12.329
   28W        W68246  21.767   2.087  12.378
   29W        W68247  11.275  26.292   2.197
   30W        W68248  15.729   0.504   2.166
   31W        W68249   9.257   2.831   4.425
   32W        W68250  25.251  24.019   2.323
   33W        W68251  23.607  37.907   1.837
   34W        W68252  17.146   8.747  13.965
   35W        W68253  21.211  28.663   2.218
   36W        W68254  44.320  16.469   4.870
   37W        W68255  10.120  32.651  13.517
   38W        W68256  23.754  18.112   1.822
   39W        W68257   2.438  16.812  10.472
   40W        W68258  21.622  35.707   3.945
   41W        W68259  23.554  10.085  12.516
   42W        W68260   7.386   6.773   4.722
   43W        W68261   0.359  24.041   0.481
   44W        W68262  30.240   6.820   1.628
   45W        W68263   0.750  37.061   1.119
   46W        W68264  24.012  17.248  13.092
   47W        W68265  11.063   8.947  11.224
   48W        W68266  35.199  17.492   3.210
   49W        W68267   4.333  44.751   1.030
   50W        W68268  21.988  27.064   2.335
   51W        W68269   0.762  11.093  11.553
   52W        W68270  13.104  31.014   0.364
   53W        W68271  18.422  30.371   5.125
   54W        W68272  25.999  34.020   0.484
   55W        W68273  40.855  13.264   1.469
   56W        W68274  11.762  14.369   3.244
   57W        W68275  10.680  44.935   1.980
   58W        W68276   7.575   2.347  14.407
   59W        W68277  22.609   0.522  10.507
   60W        W68278  41.803  30.348   3.279
   61W        W68279  40.593  40.275  10.419
   62W        W68280  32.632  16.322   0.340
   63W        W68281   8.290  18.317  12.458
   64W        W68282  20.349   1.646  14.741
   65W        W68283   4.758  25.184   0.539
   66W        W68284  34.875   0.741  13.429
   67W        W68285  26.749  32.232   4.959
   68W        W68286  17.825  27.997   3.074
   69W        W68287  18.789  21.117   2.882
   70W        W68288  30.978  32.617  10.911
   71W        W68289   7.914  32.962  11.410
   72W        W68290  32.682  17.838   3.947
   73W        W68291  30.363   5.205   3.655
   74W        W68292  32.923   2.069   2.809
   75W        W68293  35.139   2.474  13.802
   76W        W68294  30.364  22.996   1.638
   77W        W68295  44.038  42.813   2.806
   78W        W68296   6.821  44.007  10.944
   79W        W68297  35.002  13.343   1.280
   80W        W68298  33.135  14.327  11.468
   81W        W68299  19.524  16.311   3.490
   82W        W68300  25.329  11.313   3.278
   83W        W68301  19.180  36.113  13.833
   84W        W68302  14.700  31.646   0.329
   85W        W68303  34.970  40.951   4.910
   86W        W68304  20.624  40.336   0.334
   87W        W68305  27.521  33.599   2.219
   88W        W68306  29.319  41.898   4.528
   89W        W68307   1.301  12.215  11.370
   90W        W68308  41.545  17.168  11.149
   91W        W68309  11.732  17.026   0.707
   92W        W68310  43.359   1.986   0.420
   93W        W68311  37.169  25.833  14.798
   94W        W68312  20.532   4.563   3.311
   95W        W68313  29.205  34.816  11.582
   96W        W68314  30.367  34.404   3.631
   97W        W68315   3.675   9.943  12.807
   98W        W68316  20.101  34.075   4.089
   99W        W68317  19.691  37.300   1.911
  100W        W68318  41.296  18.353   2.401
  101W        W68319  26.468  25.230  13.471
  102W        W68320  28.840  30.770  11.097
  103W        W68321  44.691   8.749  12.614
  104W        W68322  16.288  17.318  11.428
  105W        W68323  28.744  13.665  13.465
  106W        W68324  43.200  21.294   1.437
  107W        W68325   4.473  39.570   3.708
  108W        W68326  31.131  22.493   4.184
  109W        W68327   5.730  35.127  14.128
  110W        W68328  41.288   9.135  13.508
  111W        W68329  27.727  41.620  14.159
  112W        W68330  27.626  18.387   0.613
  113W        W68331  41.705  37.449   2.409
  114W        W68332   7.640  20.001  12.893
  115W        W68333   9.769  27.927   4.578
  116W        W68334  40.962  12.878   1.086
  117W        W68335   1.798  33.805  12.007
  118W        W68336  19.181  23.763  14.360
  119W        W68337   6.418  14.085   3.983
  120W        W68338  42.524  19.749   3.186
  121W        W68339  17.712  42.800  12.042
  122W        W68340  37.429  13.104  14.874
  123W        W68341  28.583  13.131  13.056
  124W        W68342  19.158  40.492   2.003
  125W        W68343  37.969  23.989  13.416
  126W        W68344   1.598  34.144   0.782
  127W        W68345  31.722  29.399  12.070
  128W        W68346   0.258  23.495  10.667
  129W        W68347  32.928  15.164   2.280
  130W        W68348  39.543  31.212  14.334
  131W        W68349  38.116  23.996   2.309
  132W        W68350  34.005  18.499   3.236
  133W        W68351  27.033   6.550   2.766
  134W        W68352  37.496   9.868   1.478
  135W        W68353  30.865  29.405  14.920
  136W        W68354   3.257   9.605   0.298
  137W        W68355  11.654  29.855  11.785
  138W        W68356  31.001  20.501   1.637
  139W        W68357  38.962  15.501  14.848
  140W        W68358  44.294   6.558  14.346
  141W        W68359  35.574  15.851   1.647
  142W        W68360  31.635  21.224  14.841
  143W        W68361  14.645   1.063   4.550
  144W        W68362  20.247  17.138  11.857
  145W        W68363  17.600  21.747  13.859
  146W        W68364  37.777  27.121   1.370
  147W        W68365  32.165  41.221   0.725
  148W        W68366  44.344   2.248   0.880
  149W        W68367   9.920  30.864   0.094
  150W        W68368  34.180  33.451  14.873
  151W        W68369   0.866  10.391   1.017
  152W        W68370   8.203   6.199   3.724
  153W        W68371   0.280  32.406  11.193
  154W        W68372  21.966  43.959  12.982
  155W        W68373  18.416  39.310   4.231
  156W        W68374   0.742  30.545   1.754
  157W        W68375   9.424  12.849  12.062
  158W        W68376  40.445  41.098  11.013
  159W        W68377  13.351  43.327   4.415
  160W        W68378   2.634  17.069  14.922
  161W        W68379  21.799   9.788  12.767
  162W        W68380  29.003  26.651  12.345
  163W        W68381  42.708   4.739   3.100
  164W        W68382  30.056  14.219   2.885
  165W        W68383  16.669  27.011   4.572
  166W        W68384  33.546   0.311   0.435
  167W        W68385   8.677  21.662  12.212
  168W        W68386  30.489  41.569   1.373
  169W        W68387  28.521  36.529  11.448
  170W        W68388  28.039   2.491  12.898
  171W        W68389   7.668  31.638  11.221
  172W        W68390  11.883  43.754   1.808
  173W        W68391  35.933   0.099   4.198
  174W        W68392  14.304  42.318  11.143
  175W        W68393  24.161  17.565   1.438
  176W        W68394   6.259  34.401  11.133
  177W        W68395  14.282  42.511   1.611
  178W        W68396  37.337  38.530  11.929
  179W        W68397  23.030  38.607   2.604
  180W        W68398   2.371  24.593  12.361
  181W        W68399  15.532  25.232  13.978
  182W        W68400  23.976  20.744  13.982
  183W        W68401  34.915  26.702   2.838
  184W        W68402  25.434  22.263   0.206
  185W        W68403   5.434   2.695  12.991
  186W        W68404   1.887  35.596  13.003
  187W        W68405   3.271   4.430   4.883
  188W        W68406  33.975  39.494  13.012
  189W        W68407   6.249   5.765   2.172
  190W        W68408   5.882  12.154   0.421
  191W        W68409  10.774  40.222  12.081
  192W        W68410  30.739  13.086   4.542
  193W        W68411   5.590  33.010   4.090
  194W        W68412  13.585  41.035   3.851
  195W        W68413  10.898  15.328  11.901
  196W        W68414  15.794  25.567   4.087
  197W        W68415   9.783  14.181   3.202
  198W        W68416  19.651  29.940   3.920
  199W        W68417   8.461  17.587   3.561
  200W        W68418  21.088  12.676  12.874
  201W        W68419  33.923   7.110   2.615
  202W        W68420  36.315  35.118  14.966
  203W        W68421   3.766  33.971   1.307
  204W        W68422  29.144   4.352  11.127
  205W        W68423  21.636  32.600   3.091
  206W        W68424  12.140  44.610   3.325
  207W        W68425  31.054   2.574  11.490
  208W        W68426   3.334  34.127  11.803
  209W        W68427  20.086   2.770   4.377
  210W        W68428  13.658  40.464   2.907
  211W        W68429  33.493  27.513  13.494
  212W        W68430   4.431  26.133   0.839
  213W        W68431  38.902  32.111   4.779
  214W        W68432  41.474   5.650   3.738
  215W        W68433  37.642  28.693  11.098
  216W        W68434   5.063  21.512  14.928
  217W        W68435  20.103  35.657  12.053
  218W        W68436  15.815  33.306  11.053
  219W        W68437  27.294   5.977   1.884
  220W        W68438  17.049   4.845  10.616
  221W        W68439  42.064   7.084   4.953
  222W        W68440  34.079  41.317   0.939
  223W        W68441  24.279  14.694   3.106
  224W        W68442   2.506  40.419  12.855
  225W        W68443  34.709  10.889  11.514
  226W        W68444   0.709  31.012  14.808
  227W        W68445  20.682  24.671  11.748
  228W        W68446  18.534  26.221  13.841
  229W        W68447  37.860  28.165   1.956
  230W        W68448  34.038  14.361  10.657
  231W        W68449  35.266  16.773   1.672
  232W        W68450  44.794  43.785   4.829
  233W        W68451  29.310   8.500   4.355
  234W        W68452   2.729   3.720  12.159
  235W        W68453  21.286  36.417  11.457
  236W        W68454  39.146  42.861  11.718
  237W        W68455  33.393  14.249  14.529
  238W        W68456  42.911   9.389  12.079
  239W        W68457  30.665  44.519   3.648
  240W        W68458  19.266  25.544   3.363
  241W        W68459   1.287  13.304  14.073
  242W        W68460  26.014   1.905   3.959
  243W        W68461  43.569  23.500   0.419
  244W        W68462  29.583  30.089  14.848
  245W        W68463  12.706  36.666  11.401
  246W        W68464  43.591  10.761   1.695
  247W        W68465  33.582  40.402   2.706
  248W        W68466   2.652  21.883  13.961
  249W        W68467  31.720  44.901  11.990
  250W        W68468  18.516  36.907   1.869
  251W        W68469  30.239  40.524   3.201
  252W        W68470  19.572  11.728   4.730
  253W        W68471  20.395  24.439  12.689
  254W        W68472  39.508  16.420  10.877
  255W        W68473   7.875  29.235   1.318
  256W        W68474  31.140  35.330   1.921
  257W        W68475   1.369   3.634   2.144
  258W        W68476  44.262  31.481   4.489
  259W        W68477  35.991  13.774  13.010
  260W        W68478  22.446  34.408   0.722
  261W        W68479  38.839   5.538  11.663
  262W        W68480  32.296  37.343   4.344
  263W        W68481  15.700  28.150   4.195
  264W        W68482  18.689  33.143  12.155
  265W        W68483   2.210  23.182   3.781
  266W        W68484  42.922   3.224   3.332
  267W        W68485  38.476  10.504  14.285
  268W        W68486  10.708  39.041   2.826
  269W        W68487  23.217  23.725  13.347
  270W        W68488   6.211   6.330   1.133
  271W        W68489  27.565  22.662   3.702
  272W        W68490   1.396  31.326  14.352
  273W        W68491  35.178  32.685  11.987
  274W        W68492  29.419  32.064  12.518
  275W        W68493  19.196  33.129  10.613
  276W        W68494  17.069  36.936  14.270
  277W        W68495   4.296  22.794  11.485
  278W        W68496  24.060  31.183  13.535
  279W        W68497  43.337  31.892  12.548
  280W        W68498  37.398  35.073   3.717
  281W        W68499   8.608  31.625   0.255
  282W        W68500  18.602  25.054   2.876
  283W        W68501   1.789  39.361   1.493
  284W        W68502  19.797  20.708   2.646
  285W        W68503  10.595  35.164   0.630
  286W        W68504   6.639  44.285  13.821
  287W        W68505  31.214  31.497   1.330
  288W        W68506  25.461  28.870  11.173
  289W        W68507  30.499  34.139   0.364
  290W        W68508   9.794  17.028   1.462
  291W        W68509   0.834   9.164   2.343
  292W        W68510  19.293  22.775  13.042
  293W        W68511  37.114  28.739   0.479
  294W        W68512  18.855  30.954   1.816
  295W        W68513  19.320  25.285   5.048
  296W        W68514  15.720   0.818  13.614
  297W        W68515  23.106  18.338  11.105
  298W        W68516  21.031   6.775   3.809
  299W        W68517  43.869  10.883  12.075
  300W        W68518  13.187  41.472  14.877
  301W        W68519   7.843  30.365   5.024
  302W        W68520  28.158  31.563  14.803
  303W        W68521   9.787  25.077  10.778
  304W        W68522   4.209  22.741   2.724
  305W        W68523  24.495  10.210   4.515
  306W        W68524  15.053  14.369   1.166
  307W        W68525   2.562  18.997  12.522
  308W        W68526  13.735   4.484   4.885
  309W        W68527  18.662  35.488   4.800
  310W        W68528   4.106   0.858   3.669
  311W        W68529  28.945  10.366   1.820
  312W        W68530  43.857  25.889  12.494
  313W        W68531  28.630  34.371  13.856
  314W        W68532  21.946  29.863  10.481
  315W        W68533  22.115  15.166   0.755
  316W        W68534  30.373  25.570  12.065
  317W        W68535  28.142  31.994   2.273
  318W        W68536  36.087  13.297   2.697
  319W        W68537  33.401  31.144  10.520
  320W        W68538  13.387  24.494   1.686
  321W        W68539  39.283  25.502   1.693
  322W        W68540   3.767  17.663   1.478
  323W        W68541  21.721  16.787   1.125
  324W        W68542  41.097  22.903   1.838
  325W        W68543  20.747  13.254   1.298
  326W        W68544  15.236  30.413  14.424
  327W        W68545  38.306  14.419  13.403
  328W        W68546   4.273  12.593   0.770
  329W        W68547  12.229  37.412  14.130
  330W        W68548   1.339  39.905   4.633
  331W        W68549  13.522  10.932  10.691
  332W        W68550  35.014  42.945  11.014
  333W        W68551  20.528  21.239   3.752
  334W        W68552  40.260  42.957  12.348
  335W        W68553  15.376   7.434   4.210
  336W        W68554  35.048  18.727   4.598
  337W        W68555   4.907   3.333  10.795
  338W        W68556  25.570  44.369   1.924
  339W        W68557   9.596   7.340  13.558
  340W        W68558   2.880  31.689  11.741
  341W        W68559  14.590  26.638   2.593
  342W        W68560  31.988  15.196  14.460
  343W        W68561   2.311  16.096   0.248
  344W        W68562  20.723   8.327   0.015
  345W        W68563  14.024  12.207  10.785
  346W        W68564  29.673  40.532  12.560
  347W        W68565  26.759  11.574   4.560
  348W        W68566  39.409  19.168  13.890
  349W        W68567  32.379  23.275   4.256
  350W        W68568  14.553  14.085   3.414
  351W        W68569   2.361  23.761   3.358
  352W        W68570  14.529  19.631   0.160
  353W        W68571  26.308  42.445  12.161
  354W        W68572   3.199  21.676   0.866
  355W        W68573  41.555   6.237  13.526
  356W        W68574  40.742  35.534  10.808
  357W        W68575  39.577   5.834   4.631
  358W        W68576  24.066  23.352  11.570
  359W        W68577  34.365  17.195  11.565
  360W        W68578  20.259  24.628  12.026
  361W        W68579  33.458  23.705  10.967
  362W        W68580  41.331  22.049  14.751
  363W        W68581   2.377  22.081   2.852
  364W        W68582  29.954  44.285   1.653
  365W        W68583  15.016  13.366   9.838
  366W        W68584  17.644  26.962  11.132
  367W        W68585  16.215  37.392  11.976
  368W        W68586  38.378  14.488   1.289
  369W        W68587  41.603  16.799   1.888
  370W        W68588   2.366  41.719  12.927
  371W        W68589   0.959  17.314  10.333
  372W        W68590   1.909  30.421   4.071
  373W        W68591   9.171   1.217  14.773
  374W        W68592  21.431  24.219   0.976
  375W        W68593   7.949  38.428  14.557
  376W        W68594  40.567  44.480   1.217
  377W        W68595  16.513   4.094  13.006
  378W        W68596  19.119   1.689  13.396
  379W        W68597  43.441  31.912  10.669
  380W        W68598  25.524   3.282  11.761
  381W        W68599  17.714   8.265   3.568
  382W        W68600   9.468  13.866   1.752
  383W        W68601  38.354  30.118   2.288
  384W        W68602  26.700  28.404   1.760
  385W        W68603  39.515   8.208  11.548
  386W        W68604  42.029  41.325  14.825
  387W        W68605  31.077  34.133   3.705
  388W        W68606  37.705  20.641   5.009
  389W        W68607  41.469  42.294  13.886
  390W        W68608   3.673  43.337   2.442
  391W        W68609  19.172  10.436   2.689
  392W        W68610   0.941  20.253  10.718
  393W        W68611  36.861  32.970   0.294
  394W        W68612   4.951  37.650  13.351
  395W        W68613  16.640  40.459   4.720
  396W        W68614  12.688  21.473   1.444
  397W        W68615  13.747  20.632  12.391
  398W        W68616   1.380  11.432  13.613
  399W        W68617  20.685   0.522   2.402
  400W        W68618   3.076  42.978   0.672
  401W        W68619  14.211  22.806  14.464
  402W        W68620  21.235  14.247   4.572
  403W        W68621  15.895  36.191  13.848
  404W        W68622  42.093   5.696  12.524
  405W        W68623  29.078  36.877  12.441
  406W        W68624  40.012  36.276   3.730
  407W        W68625   5.764  17.604  12.666
  408W        W68626   9.468  12.520  13.551
  409W        W68627  10.319  10.414  12.912
  410W        W68628  29.281  17.716  10.317
  411W        W68629  22.557  25.605  12.092
  412W        W68630  26.969  10.636  13.568
  413W        W68631  39.387   2.212   3.705
  414W        W68632  37.562  30.154   0.077
  415W        W68633  37.518   5.432  14.363
  416W        W68634  12.034  35.361   4.498
  417W        W68635  37.882  16.227  12.600
  418W        W68636  40.402  39.050   1.253
  419W        W68637  19.294  28.576  13.111
  420W        W68638   7.001  12.582   2.310
  421W        W68639  11.763  24.952  11.136
  422W        W68640  32.018  18.391  13.985
  423W        W68641  20.780  15.053  14.407
  424W        W68642  16.215   1.499   3.342
  425W        W68643  12.172  19.598  12.392
  426W        W68644   3.027  41.650   0.459
  427W        W68645  24.247   7.736  12.411
  428W        W68646  25.640   0.823   3.907
  429W        W68647  37.322  18.659   0.308
  430W        W68648  42.199  27.234   3.254
  431W        W68649  27.710   5.777   1.532
  432W        W68650  23.479  31.450   1.959
  433W        W68651  26.949   8.225  10.776
  434W        W68652  29.175  23.981   4.758
  435W        W68653  40.277  40.867   2.745
  436W        W68654  39.826  22.073   3.628
  437W        W68655  42.943  19.192  11.201
  438W        W68656  19.968  26.998  11.037
  439W        W68657  44.981  32.575   3.225
  440W        W68658  36.386  18.806  10.807
  441W        W68659  35.771  18.284  11.954
  442W        W68660  30.187   3.734   0.518
  443W        W68661  24.045  14.726   3.582
  444W        W68662  35.742  27.412   3.558
  445W        W68663   6.091  22.876  10.364
  446W        W68664  23.541  18.903   2.143
  447W        W68665  19.025  11.955  10.653
  448W        W68666   2.193   9.859  13.983
  449W        W68667  34.404  24.978   4.860
  450W        W68668  38.060  39.883  14.418
  451W        W68669   7.944   1.400   1.200
  452W        W68670  21.143  12.249  11.656
  453W        W68671  44.938  27.457   2.813
  454W        W68672  26.442  22.073  13.149
  455W        W68673  44.229  43.264   1.477
  456W        W68674  26.950   1.058   0.689
  457W        W68675   3.293  28.415  13.466
  458W        W68676  29.315   5.797   3.103
  459W        W68677  25.197  25.062   2.600
  460W        W68678  10.383  27.861  12.958
  461W        W68679  21.722  16.560   3.243
  462W        W68680  18.285  16.730  10.267
  463W        W68681  23.280  35.973   0.263
  464W        W68682   0.588  22.802   2.364
  465W        W68683  18.170  18.210   2.160
  466W        W68684  31.618  14.280  12.925
  467W        W68685   3.605  44.772  12.450
  468W        W68686  26.656  44.613   3.207
  469W        W68687  35.666  19.575   2.836
  470W        W68688  22.506  24.545   1.413
  471W        W68689   7.158  12.547   0.006
  472W        W68690  20.266  40.273   3.015
  473W        W68691  34.006   1.803   1.351
  474W        W68692  14.294  42.589   4.267
  475W        W68693  20.339  14.831  10.623
  476W        W68694  38.717   9.992   0.919
  477W        W68695  35.863  16.192   2.215
  478W        W68696   8.271  32.810  12.084
  479W        W68697   8.416  14.615  11.271
  480W        W68698  40.837  42.343  11.591
  481W        W68699  42.917   6.402  13.744
  482W        W68700  21.926  35.844   5.165
  483W        W68701  15.123  28.195   2.643
  484W        W68702   8.861  44.499   1.190
  485W        W68703  34.098  15.048  12.841
  486W        W68704  30.448  35.587   3.598
  487W        W68705  21.296  34.974  11.719
  488W        W68706  25.098  30.032   2.313
  489W        W68707   3.513  42.419   4.860
  490W        W68708  27.318   2.864  12.867
  491W        W68709  16.127  23.255  10.694
  492W        W68710  19.777  39.106   1.399
  493W        W68711  39.576  26.504   1.579
  494W        W68712  33.465  33.062  12.089
  495W        W68713  31.625  37.047   3.151
  496W        W68714   6.940  18.770   4.617
  497W        W68715  26.619  40.288  11.137
  498W        W68716  32.210  11.304  10.816
  499W        W68717  41.896  24.280   1.877
  500W        W68718  32.109  14.288   0.491
  501W        W68719  15.086  36.923   1.642
  502W        W68720   2.329  15.510   4.120
  503W        W68721  27.108  41.829  14.800
  504W        W68722  19.166  16.742   4.767
  505W        W68723  29.167  41.383   3.198
  506W        W68724  13.567   1.773   2.746
  507W        W68725   0.416   9.760   3.730
  508W        W68726   6.680   0.444   1.408
  509W        W68727  40.824  35.969   1.451
  510W        W68728  31.322  36.855   2.764
  511W        W68729  44.076  18.918  11.462
  512W        W68730  25.009  19.604   5.111
  513W        W68731  36.041  26.645   3.165
  514W        W68732  42.569  28.192   3.275
  515W        W68733  27.081  31.450  14.713
  516W        W68734   9.866  44.106   3.136
  517W        W68735  30.944  31.888   1.825
  518W        W68736  21.476   0.423  10.705
  519W        W68737  13.036  23.680   2.141
  520W        W68738  26.125  25.613   2.188
  521W        W68739  29.473   7.679   0.431
  522W        W68740  16.829  25.604   0.689
  523W        W68741  32.001  29.705   0.754
  524W        W68742   5.647  19.796  13.725
  525W        W68743  15.051  39.399   4.185
  526W        W68744  43.975  34.907  12.437
  527W        W68745  33.705   5.923  12.728
  528W        W68746  41.459  43.511   0.812
  529W        W68747  44.279  22.553   2.619
  530W        W68748  16.729  38.909  11.552
  531W        W68749  17.167  37.012   4.373
  532W        W68750  16.593  10.165   2.260
  533W        W68751  23.341  29.950   1.194
  534W        W68752   6.166  30.892   2.954
  535W        W68753  41.599  10.929   4.025
  536W        W68754  12.642  24.525  12.885
  537W        W68755  34.424   6.684  14.984
  538W        W68756  17.548  13.316   2.443
  539W        W68757  40.875  17.729  12.501
  540W        W68758  25.082  38.667   2.863
  541W        W68759  18.510  22.173   3.257
  542W        W68760  38.565  37.483  13.431
  543W        W68761  37.465  41.137  13.307
  544W        W68762  36.529  17.532  11.186
  545W        W68763  42.807  39.232   2.194
  546W        W68764  43.362  27.616   2.734
  547W        W68765  24.760  32.499  11.073
  548W        W68766   4.995  29.644   1.697
  549W        W68767   1.394  14.556   1.861
  550W        W68768  19.564  39.926  10.634
  551W        W68769  17.030  42.867   4.509
  552W        W68770  19.209  35.596  13.819
  553W        W68771   5.923  29.971  14.776
  554W        W68772  35.650  40.904   2.169
  555W        W68773  44.278  16.795   0.883
  556W        W68774  28.305   6.150   0.810
  557W        W68775  11.857   1.065  14.841
  558W        W68776  28.209   5.664   5.270
  559W        W68777  38.921  32.929  10.581
  560W        W68778   8.243   7.777   3.439
  561W        W68779  42.769   3.629  13.980
  562W        W68780   0.076   5.757   2.370
  563W        W68781  12.825  21.908   2.358
  564W        W68782  34.421  10.572   0.480
  565W        W68783  18.235  21.229  12.974
  566W        W68784  20.303   2.356   3.622
  567W        W68785  35.928  32.390  11.359
  568W        W68786  35.001  16.622   2.830
  569W        W68787  10.905  38.314   0.982
  570W        W68788   3.292  23.195   0.494
  571W        W68789  29.397  18.322  12.515
  572W        W68790   2.433  16.483  11.377
  573W        W68791  43.852  39.578  11.212
  574W        W68792   5.240  43.433   1.463
  575W        W68793  25.995   7.741  14.587
  576W        W68794   0.475  31.428   1.766
  577W        W68795   9.907  29.782   0.393
  578W        W68796  23.485  26.552   1.316
  579W        W68797  12.214  17.099  10.610
  580W        W68798  29.564   0.457   0.923
  581W        W68799  43.550  28.241   4.246
  582W        W68800  13.002  34.063  13.289
  583W        W68801  27.561  32.205   0.997
  584W        W68802   9.270  18.016   4.153
  585W        W68803   4.547  43.756   1.400
  586W        W68804  40.064  38.707   2.198
  587W        W68805  27.613  15.823  12.941
  588W        W68806  22.241  23.648  14.968
  589W        W68807  44.550   3.479  10.539
  590W        W68808   2.309  21.216   2.564
  591W        W68809  35.533  41.377   4.430
  592W        W68810   8.169  18.665   4.461
  593W        W68811  29.093  12.624   0.316
  594W        W68812  27.995   7.178   2.448
  595W        W68813   6.666  30.367   1.670
  596W        W68814  40.960  17.023   2.793
  597W        W68815  14.284  27.222   0.966
  598W        W68816   7.787  19.014   0.046
  599W        W68817   3.696   8.299   3.312
  600W        W68818  30.947  14.138   3.229
  601W        W68819  44.339  36.029  13.420
  602W        W68820  21.324  35.043   1.300
  603W        W68821  40.371  10.178   1.411
  604W        W68822  21.839   7.843   4.247
  605W        W68823  22.775  43.081   4.677
  606W        W68824  34.711  41.798   2.304
  607W        W68825  10.313  44.890   4.140
  608W        W68826  14.231   8.868   0.640
  609W        W68827  11.209  16.981   1.247
  610W        W68828  38.543   4.988  13.388
  611W        W68829  36.021   5.873   1.702
  612W        W68830   7.152  31.535   1.277
  613W        W68831  16.383   4.277   3.975
  614W        W68832  41.506  27.442  11.608
  615W        W68833   1.104  17.289   5.173
  616W        W68834  30.622  36.647  10.693
  617W        W68835   4.746   1.027   0.739
  618W        W68836  35.208  43.761  13.835
  619W        W68837   4.494  36.926   2.568
  620W        W68838  17.209  30.484   1.806
  621W        W68839   1.779  17.665  14.795
  622W        W68840  13.315  42.515  10.324
  623W        W68841  13.844  33.133   1.248
  624W        W68842  10.644  15.850  10.694
  625W        W68843  23.798   1.908  11.940
  626W        W68844  23.177  23.978  10.596
  627W        W68845  16.641  22.579  11.513
  628W        W68846  31.010  38.921   3.946
  629W        W68847  22.284  14.307  12.438
  630W        W68848  17.324  40.734  13.503
  631W        W68849  28.135  43.849   0.942
  632W        W68850  13.134   5.160   0.662
  633W        W68851  41.221  15.129   0.261
  634W        W68852  39.467  26.979  12.903
  635W        W68853  21.073  17.691   2.896
  636W        W68854   0.039   9.779   4.104
  637W        W68855  43.886  43.405  10.692
  638W        W68856   6.488  20.765  11.061
  639W        W68857  31.604  32.363   1.121
  640W        W68858   4.928  35.375  12.612
  641W        W68859  34.034  28.005   2.735
  642W        W68860  38.311  17.641   3.744
  643W        W68861   2.491  43.357   0.944
  644W        W68862  35.812   1.396   4.119
  645W        W68863  39.517  38.088  13.411
  646W        W68864  28.310  13.240   4.172
  647W        W68865  36.125  26.736  12.839
  648W        W68866  10.526  28.605   4.738
  649W        W68867  34.506  20.273   4.604
  650W        W68868   9.586  29.642   3.284
  651W        W68869  20.039  39.060   3.829
  652W        W68870   3.296  38.909   3.625
  653W        W68871  35.354  28.558  12.599
  654W        W68872  21.506  32.105  12.563
  655W        W68873  19.640  36.635   0.794
  656W        W68874  26.197  16.192  13.929
  657W        W68875  26.117  17.846   1.697
  658W        W68876  34.858  19.695  12.402
  659W        W68877   9.314   2.013  14.249
  660W        W68878   4.470  28.110  13.441
  661W        W68879  12.510   1.745   3.034
  662W        W68880   7.233  42.014   2.450
  663W        W68881  19.488  16.046  10.629
  664W        W68882  17.654  22.110   1.230
  665W        W68883  11.256  44.961   0.679
  666W        W68884  24.640  44.013  13.835
  667W        W68885  21.473   2.363  13.341
  668W        W68886  26.216  15.027  12.615
  669W        W68887  33.477  37.503  11.545
  670W        W68888  43.758  27.684  12.116
  671W        W68889  42.732   1.800   3.484
  672W        W68890  36.184   7.203   4.386
  673W        W68891   2.521  37.984   4.473
  674W        W68892  32.412   2.572  13.792
  675W        W68893  39.427  43.937   0.680
  676W        W68894  20.758  11.176  10.385
  677W        W68895  19.695   1.161  14.042
  678W        W68896   9.922  36.893   3.386
  679W        W68897  13.815  31.190   1.447
  680W        W68898  42.769   4.492  11.983
  681W        W68899  26.371  25.858  11.424
  682W        W68900  14.587   8.281   2.484
  683W        W68901  24.604  34.381   3.856
  684W        W68902   9.859   5.260  12.924
  685W        W68903   2.004  19.018   4.535
  686W        W68904  34.414  40.213  11.193
  687W        W68905  44.516  22.468   2.162
  688W        W68906  15.174  23.258  10.594
  689W        W68907   2.177  32.279   2.820
  690W        W68908   8.209  35.215  10.474
  691W        W68909  11.234  32.863  14.818
  692W        W68910  34.300  31.814   2.822
  693W        W68911  38.382   6.324  12.060
  694W        W68912  44.492   7.470  14.948
  695W        W68913  27.940  20.288  10.558
  696W        W68914   6.811  31.653  12.963
  697W        W68915  23.640  25.502   9.771
  698W        W68916   2.465  43.509   1.888
  699W        W68917  13.734  32.581   3.660
  700W        W68918  11.637  38.611  11.260
  701W        W68919  30.742  22.011   2.187
  702W        W68920   3.261  43.356  10.563
  703W        W68921  41.352  15.094   4.663
  704W        W68922   0.045  13.353  12.505
  705W        W68923  16.793  35.825  12.986
  706W        W68924  18.873   2.020  14.407
  707W        W68925  33.043  32.460  10.732
  708W        W68926  35.920  18.693   1.551
  709W        W68927  33.062   6.186   2.124
  710W        W68928  14.216  30.193  10.547
  711W        W68929   9.925  23.618   4.149
  712W        W68930   5.663  22.037   1.435
  713W        W68931  22.016  20.454   3.230
  714W        W68932  34.173  29.285   4.956
  715W        W68933  16.435  38.613  14.984
  716W        W68934  13.272   4.823   0.066
  717W        W68935  31.545  25.404   1.199
  718W        W68936  16.352  32.559  11.445
  719W        W68937   7.181  29.996   1.331
  720W        W68938  36.358  37.491   4.713
  721W        W68939  41.904  42.206   2.428
  722W        W68940   1.920  17.367   3.228
  723W        W68941  42.084  13.669  12.145
  724W        W68942  11.633  21.090  12.200
  725W        W68943   0.080  10.474   0.337
  726W        W68944  11.749  38.863  11.692
  727W        W68945  14.271   7.160  10.741
  728W        W68946  39.799   9.089   3.668
  729W        W68947  34.132  25.545   0.421
  730W        W68948  19.648  11.578   2.779
  731W        W68949   1.782  22.735   1.643
  732W        W68950  29.614   1.808  14.352
  733W        W68951  23.950  32.180   1.471
  734W        W68952  14.044  29.866  11.832
  735W        W68953  17.313   3.364  12.914
  736W        W68954   8.630  26.476   5.108
  737W        W68955  11.389  39.442   3.259
  738W        W68956  15.503  32.784   2.426
  739W        W68957   7.892  29.510  13.701
  740W        W68958  35.337  23.545   1.828
  741W        W68959  33.344  28.983   4.320
  742W        W68960  31.045  19.889   3.821
  743W        W68961  35.963  40.580  11.870
  744W        W68962  17.608   6.709   2.792
  745W        W68963  43.939  23.059  11.838
  746W        W68964  36.084  42.434  13.481
  747W        W68965  26.119  24.745  12.134
  748W        W68966  41.263  20.695  13.490
  749W        W68967   9.219  18.386   5.043
  750W        W68968  33.177   3.217  12.489
  751W        W68969   0.223  25.170   0.053
  752W        W68970  25.556  17.827   0.410
  753W        W68971   7.783  37.167  13.111
  754W        W68972  11.271  36.993   2.089
  755W        W68973  30.543  18.923   4.931
  756W        W68974  22.136  39.305   1.241
  757W        W68975  18.430  43.926   2.090
  758W        W68976  13.313  24.150  13.064
  759W        W68977   9.115  16.712  12.368
  760W        W68978  44.747  31.723   4.551
  761W        W68979  16.258  20.566   3.781
  762W        W68980  39.226   2.970  11.217
  763W        W68981  16.885   9.802  12.533
  764W        W68982  22.980  19.025   4.490
  765W        W68983  34.613  30.118   3.872
  766W        W68984  28.702  38.758   0.223
  767W        W68985  38.718   8.727  11.052
  768W        W68986  39.134  21.628   2.361
  769W        W68987   8.830  10.163   2.746
  770W        W68988  22.721  44.730  12.170
  771W        W68989  43.511  29.130  13.906
  772W        W68990  38.377  38.657   0.120
  773W        W68991  12.052  20.298   1.233
  774W        W68992   7.424   0.279   3.648
  775W        W68993  16.238   7.818   1.448
  776W        W68994   0.891  41.348  12.470
  777W        W68995  27.034  28.159   4.745
  778W        W68996  35.739  40.109  11.692
  779W        W68997   9.404   4.118  13.550
  780W        W68998  33.653   3.386  10.483
  781W        W68999  15.100  36.087   1.209
  782W        W69000  43.943  14.586   4.607
  783W        W69001  11.303  41.468   2.232
  784W        W69002  17.037  38.923  12.807
  785W        W69003  36.404  17.563  12.457
  786W        W69004  27.879   2.197   2.179
  787W        W69005  14.673  28.675  14.309
  788W        W69006  29.729  15.743   2.287
  789W        W69007  36.882  14.752  13.565
  790W        W69008  44.989  26.602  12.993
  791W        W69009  12.283  21.302   1.194
  792W        W69010  36.959  22.916  11.565
  793W        W69011  42.142  24.740   5.149
  794W        W69012  30.708   1.732   1.656
  795W        W69013  13.892  21.705   4.441
  796W        W69014  23.536  37.860   2.705
  797W        W69015  25.375  21.134   1.192
  798W        W69016  36.102  23.804   2.264
  799W        W69017  16.043  10.629   0.800
  800W        W69018  18.738  15.967   4.205
  801W        W69019  26.986  19.500  11.077
  802W        W69020  22.054  21.732   2.576
  803W        W69021  10.671   3.644   3.311
  804W        W69022  10.204  21.747   0.899
  805W        W69023   0.276  35.128  11.211
  806W        W69024  37.522  32.414  11.137
  807W        W69025  16.599  43.226  13.913
  808W        W69026   0.885  32.352   3.664
  809W        W69027  15.663  24.442   2.373
  810W        W69028  36.769  17.558  14.734
  811W        W69029  35.627  26.148  13.896
  812W        W69030   0.010  44.960   3.669
  813W        W69031  42.484  12.050   1.929
  814W        W69032   1.414  38.505  13.809
  815W        W69033  28.454  12.762  10.855
  816W        W69034  38.276  28.677  14.330
  817W        W69035  14.675   1.440  10.755
  818W        W69036   6.209  28.588   3.153
  819W        W69037   0.944  32.648   1.633
  820W        W69038  28.654  28.746  11.875
  821W        W69039  19.287  43.752  11.016
  822W        W69040  32.021  16.116   1.073
  823W        W69041  40.912  16.516   2.700
  824W        W69042  37.862  41.768  12.536
  825W        W69043  16.415  11.636   0.233
  826W        W69044  37.900  36.818   2.581
  827W        W69045  11.932  27.696   1.604
  828W        W69046  13.544   3.650   3.218
  829W        W69047  30.593  14.181  13.290
  830W        W69048  35.228  35.474  10.551
  831W        W69049  16.975  22.129   3.377
  832W        W69050  30.568  23.850   4.830
  833W        W69051  14.721  16.776  12.309
  834W        W69052   8.209  41.468   1.930
  835W        W69053  25.217  38.066   4.978
  836W        W69054   8.211  17.316  11.718
  837W        W69055  39.438  16.066   1.365
  838W        W69056  24.191  42.717   1.053
  839W        W69057  11.219  23.252  14.363
  840W        W69058   0.422  42.958  13.253
  841W        W69059  23.043  38.384   0.287
  842W        W69060   2.484  27.937   4.344
  843W        W69061  33.164   6.353   1.195
  844W        W69062   1.022  18.780   3.784
  845W        W69063  38.094  29.367   3.774
  846W        W69064  39.937  11.555   3.125
  847W        W69065  18.144  33.592   2.970
  848W        W69066   3.817  22.372   2.629
  849W        W69067  14.105   2.444  11.166
  850W        W69068  30.063   7.466   3.825
  851W        W69069  42.493  34.880  14.922
  852W        W69070  13.282  20.821   3.708
  853W        W69071   0.830  19.055  13.159
  854W        W69072  28.350  38.852   2.774
  855W        W69073  15.429  37.461  11.570
  856W        W69074  13.012  20.296  12.881
  857W        W69075  41.044  31.099  10.726
  858W        W69076  15.015   9.252  13.537
  859W        W69077  38.458   1.637   4.078
  860W        W69078  36.955  26.121  12.461
  861W        W69079  12.585  32.393  13.943
  862W        W69080  17.199  21.311   1.393
  863W        W69081  28.516   5.559   1.273
  864W        W69082  28.135   9.522  12.829
  865W        W69083  28.067  11.744  12.304
  866W        W69084  39.628   6.744   2.862
  867W        W69085  29.562  19.778  11.157
  868W        W69086  22.236  41.404  10.332
  869W        W69087  19.470   1.976  11.879
  870W        W69088  37.403  23.116  10.592
  871W        W69089  30.519  36.404  12.553
  872W        W69090  32.595  43.351   3.706
  873W        W69091  38.591   5.741  12.886
  874W        W69092  34.532   9.776  13.868
  875W        W69093  18.594  41.601  12.992
  876W        W69094  13.827   1.562   1.840
  877W        W69095   2.319  33.543   1.646
  878W        W69096  23.546  14.029   0.170
  879W        W69097  42.952  21.444  12.110
  880W        W69098  17.174   5.296  13.111
  881W        W69099  28.045  20.345   2.719
  882W        W69100  21.071  33.375   5.128
  883W        W69101  42.073  29.069  10.582
  884W        W69102  37.779  40.463  13.981
  885W        W69103  25.092  44.741  14.339
  886W        W69104  25.893  26.048  13.788
  887W        W69105   9.657  28.053   0.705
  888W        W69106  27.511  16.768  11.007
  889W        W69107   1.422  33.682   2.264
  890W        W69108  10.477  19.280  12.557
  891W        W69109  21.811  42.406  13.536
  892W        W69110   2.788  28.201   4.703
  893W        W69111  12.067   1.912  13.445
  894W        W69112  31.656  22.753   4.321
  895W        W69113   6.463  34.170   0.255
  896W        W69114  22.022   3.956  12.428
  897W        W69115  12.433   3.365  11.589
  898W        W69116   1.339  40.648  13.929
  899W        W69117  39.763  39.394  10.998
  900W        W69118  37.427  16.653  14.226
  901W        W69119   5.277   7.438  14.881
  902W        W69120  33.734   2.420   2.765
  903W        W69121   6.138  37.380   0.058
  904W        W69122  32.948  19.871   1.888
  905W        W69123  25.956  36.987   1.954
  906W        W69124   0.606  30.496   3.881
  907W        W69125  13.284  33.650   3.255
  908W        W69126  22.134  24.815   0.384
  909W        W69127  10.409  39.243   3.203
  910W        W69128   7.679   4.954   0.012
  911W        W69129  18.565  20.002   1.407
  912W        W69130  33.945  37.757  11.536
  913W        W69131  31.013  20.481  12.541
  914W        W69132  36.356  22.658   3.712
  915W        W69133  25.129  43.490   4.513
  916W        W69134  19.665  41.898  13.610
  917W        W69135  21.794  37.071   0.953
  918W        W69136  22.934  29.710  13.423
  919W        W69137  24.601  22.593  13.959
  920W        W69138  42.634  44.883   3.714
  921W        W69139  10.184  20.838   3.470
  922W        W69140   7.910  11.380   0.010
  923W        W69141   5.144  44.730   2.332
  924W        W69142   4.809  37.237   4.651
  925W        W69143  39.593  13.342  13.130
  926W        W69144  32.565  34.570   0.966
  927W        W69145  44.276   1.991  12.107
  928W        W69146   0.067   9.268   2.879
  929W        W69147  13.208  23.006  12.304
  930W        W69148  41.910  10.725   2.476
  931W        W69149  35.039  20.621   3.380
  932W        W69150   8.517  41.607  12.853
  933W        W69151  21.195  33.143   4.669
  934W        W69152  32.096  39.113  13.025
  935W        W69153  36.475  24.192  14.388
  936W        W69154  31.474  38.872  14.394
  937W        W69155  15.021  30.683   4.483
  938W        W69156  17.293  12.213   2.290
  939W        W69157  28.281   9.008   9.773
  940W        W69158   3.242  24.313  11.761
  941W        W69159  16.076  31.668  11.428
  942W        W69160  38.655  21.786  13.588
  943W        W69161  29.269  35.948  13.949
  944W        W69162  22.787  40.616  11.187
  945W        W69163  42.565  44.176  11.184
  946W        W69164  22.890  12.616   3.248
  947W        W69165  12.715  32.692  12.972
  948W        W69166  39.617  31.770  14.429
  949W        W69167  24.065   8.337  12.070
  950W        W69168   5.743  19.627   4.902
  951W        W69169   3.176  32.376   1.763
  952W        W69170  11.891  33.111   4.088
  953W        W69171  38.348  26.963  10.579
  954W        W69172  39.339  28.934  10.667
  955W        W69173  12.320  22.614  13.601
  956W        W69174   4.256  10.758   3.916
  957W        W69175   4.154  31.169   2.782
  958W        W69176  43.217   6.427  12.879
  959W        W69177  17.069  12.038   4.105
  960W        W69178  25.953  34.877   3.721
  961W        W69179  16.631   9.077  10.741
  962W        W69180  17.890  12.418   3.642
  963W        W69181  25.753  10.666  12.989
  964W        W69182  28.595   6.125  13.035
  965W        W69183  12.668  42.960   1.936
  966W        W69184  43.254  18.601  11.767
  967W        W69185   9.468  29.083  11.538
  968W        W69186  16.265   2.825  10.935
  969W        W69187  10.355   4.759   1.765
  970W        W69188  41.883  16.407  12.596
  971W        W69189   4.219  25.026   2.280
  972W        W69190  36.566  21.751  14.437
  973W        W69191  31.033  25.939   1.567
  974W        W69192  31.931  18.035  11.163
  975W        W69193   7.135  29.458   3.133
  976W        W69194  35.460  13.577   1.206
  977W        W69195   8.721  19.520  13.932
  978W        W69196  25.065  24.264   0.994
  979W        W69197  34.577  13.744   3.276
  980W        W69198  26.650  36.371  10.706
  981W        W69199   2.241   6.939  11.620
  982W        W69200  19.057   3.850  10.984
  983W        W69201  39.117  17.528   2.327
  984W        W69202  27.485  28.541   3.400
  985W        W69203  33.685  40.397   3.635
  986W        W69204  25.508  38.473   3.685
  987W        W69205   5.443  25.473  11.542
  988W        W69206  20.550  19.402   3.321
  989W        W69207   3.989   9.089   0.751
  990W        W69208  35.014  15.653  10.712
  991W        W69209  23.300  41.301   4.093
  992W        W69210   4.183  36.816  12.686
  993W        W69211  13.770  29.230  13.043
  994W        W69212  17.815  36.356  12.916
  995W        W69213  26.659  27.987   3.812
  996W        W69214  42.793   5.110  13.963
  997W        W69215   1.856  31.026  10.998
  998W        W69216  11.439  25.808   3.360
  999W        W69217  41.548  16.776   2.703
 1000W        W69218  24.456   3.412   3.751
 1001W        W69219  24.736  16.319  10.149
 1002W        W69220   0.775   5.723  14.910
 1003W        W69221  18.449  32.927  11.756
 1004W        W69222   8.681   5.536   2.901
 1005W        W69223  31.555   9.308  14.037
 1006W        W69224  11.395  22.966   2.908
 1007W        W69225  24.629  18.690  14.319
 1008W        W69226  18.579  36.328   3.174
 1009W        W69227  12.266   0.859  10.139
 1010W        W69228   3.370   7.478   1.952
 1011W        W69229  24.702   7.968  13.384
 1012W        W69230  12.689  41.272  12.787
 1013W        W69231  34.435  44.984  14.007
 1014W        W69232  36.496  10.108  13.436
 1015W        W69233  17.464  32.417  11.112
 1016W        W69234  41.779  33.156  12.970
 1017W        W69235   1.842  44.292  11.807
 1018W        W69236  18.758  30.667   0.728
 1019W        W69237  29.290  20.995   2.695
 1020W        W69238  29.207  17.229   2.218
 1021W        W69239  21.141  42.900   0.842
 1022W        W69240   8.195  33.650  10.229
 1023W        W69241  21.601  40.426  12.665
 1024W        W69242  24.192  17.259   3.330
 1025W        W69243  41.871  26.114   4.170
 1026W        W69244  30.651  21.602  14.987
 1027W        W69245  42.554   5.599   1.337
 1028W        W69246  22.786   5.242  10.160
 1029W        W69247   2.892  26.985   4.414
 1030W        W69248  41.837  18.713  13.521
 1031W        W69249  34.440  16.962  14.857
 1032W        W69250  31.169  16.181   2.386
 1033W        W69251  24.274   1.719  11.884
 1034W        W69252  40.841  38.520   0.232
 1035W        W69253  14.372  12.905  13.808
 1036W        W69254  26.630  28.066  13.564
 1037W        W69255  26.192  14.088  10.270
 1038W        W69256  13.447   8.983  13.601
 1039W        W69257  40.991  43.747  11.998
 1040W        W69258  12.006   3.202  10.444
 1041W        W69259  23.784  19.854   3.676
 1042W        W69260  24.748   2.246   1.305
 1043W        W69261  27.924  20.184   0.280
 1044W        W69262  19.733  15.137  13.697
 1045W        W69263  44.954  23.020  11.542
 1046W        W69264  41.438  20.773  12.739
 1047W        W69265  12.352  35.895  11.704
 1048W        W69266  34.811  39.314  11.509
 1049W        W69267   9.278  44.248  13.604
 1050W        W69268  15.239  42.700   1.401
 1051W        W69269  27.639  33.074   0.386
 1052W        W69270  10.573   6.774  14.825
 1053W        W69271   7.124  24.161   2.743
 1054W        W69272   5.853  16.769  14.939
 1055W        W69273  23.549   3.931  13.453
 1056W        W69274  12.214  12.680   1.253
 1057W        W69275   6.645  35.995  14.712
 1058W        W69276  31.934   3.518   2.562
 1059W        W69277  21.277  13.263   1.305
 1060W        W69278  22.212   3.473   5.115
 1061W        W69279   0.905  15.925  10.871
 1062W        W69280  25.988  36.056  11.525
 1063W        W69281  41.286  23.723  10.902
 1064W        W69282   9.862  19.516  12.106
 1065W        W69283  22.591  18.258  12.810
 1066W        W69284  30.565  13.158  12.033
 1067W        W69285  18.978  27.999   2.395
 1068W        W69286   8.800   1.186   4.280
 1069W        W69287   2.646  20.602   4.069
 1070W        W69288  13.976  42.933   4.493
 1071W        W69289  21.621  37.373   4.872
 1072W        W69290  26.194  21.529   4.897
 1073W        W69291  36.927   5.500   5.846
 1074W        W69292   0.867  25.804  14.412
 1075W        W69293  23.065  36.449  13.793
 1076W        W69294  27.047  20.329  12.307
 1077W        W69295  17.636  43.316  11.162
 1078W        W69296  41.553  10.311  10.513
 1079W        W69297  42.727  25.716  14.118
 1080W        W69298  28.167  31.649  13.332
 1081W        W69299  15.797  20.334   3.834
 1082W        W69300  20.253  30.486  14.524
 1083W        W69301   7.626  33.845   3.699
 1084W        W69302   3.900  27.077   3.308
 1085W        W69303  40.012  21.152   4.158
 1086W        W69304  23.167  22.762   2.664
 1087W        W69305  24.637  33.912   3.275
 1088W        W69306  17.241  11.710   0.622
 1089W        W69307  14.581  25.267   1.901
 1090W        W69308   8.722  28.048   3.622
 1091W        W69309  18.597  12.283  11.965
 1092W        W69310  33.319  28.480  12.507
 1093W        W69311  16.785  31.129  13.042
 1094W        W69312  28.681  40.404  11.646
 1095W        W69313  41.551  23.770  11.909
 1096W        W69314   4.751  12.346   3.667
 1097W        W69315  16.515  10.775  12.451
 1098W        W69316  10.794  44.780   4.323
 1099W        W69317  26.227   5.670  14.686
 1100W        W69318  16.208   7.639   2.375
 1101W        W69319  44.029  22.439  11.142
 1102W        W69320  38.885   6.154  14.866
 1103W        W69321  29.498   4.841   2.215
 1104W        W69322  10.849  15.972  14.937
 1105W        W69323   0.838  42.480  10.936
 1106W        W69324  16.790   9.571  10.716
 1107W        W69325  26.553  14.589   4.969
 1108W        W69326  31.491  12.588  12.400
 1109W        W69327  32.401  10.778  13.305
 1110W        W69328  26.549  17.804   3.200
 1111W        W69329  31.586  36.416  13.995
 1112W        W69330  31.422  37.999   2.801
 1113W        W69331  13.365   6.349   2.904
 1114W        W69332  35.314  19.492  11.560
 1115W        W69333  29.560   2.751   5.042
 1116W        W69334   8.960  14.242   9.787
 1117W        W69335   9.655   2.916  13.792
 1118W        W69336  20.458  29.458   0.606
 1119W        W69337  24.675  34.024   2.292
 1120W        W69338  25.992  43.963  12.012
 1121W        W69339  33.111  35.177  10.741
 1122W        W69340   6.717  17.684  12.462
 1123W        W69341  14.769  36.098  11.412
 1124W        W69342  43.847  15.022  11.176
 1125W        W69343  33.293  29.398  12.336
 1126W        W69344  29.247  25.747   2.898
 1127W        W69345  15.715  29.247  13.429
 1128W        W69346  12.577  37.514   0.357
 1129W        W69347  12.754  44.051   0.389
 1130W        W69348   2.678  41.335   3.177
 1131W        W69349  27.904  18.719  12.967
 1132W        W69350  29.043   8.371  10.805
 1133W        W69351  25.087   9.788   0.898
 1134W        W69352   8.920  11.639   1.831
 1135W        W69353  25.578   4.742  10.453
 1136W        W69354   3.835  43.012   1.422
 1137W        W69355   0.426   2.278  14.299
 1138W        W69356  34.068  19.293  14.050
 1139W        W69357   7.328  21.108   0.831
 1140W        W69358  35.888  30.135  14.292
 1141W        W69359  22.475  41.837  10.556
 1142W        W69360  18.847   2.652  11.512
 1143W        W69361  27.115   3.371   0.536
 1144W        W69362   9.701  33.539   2.613
 1145W        W69363  44.767  17.004   2.166
 1146W        W69364  10.434  34.804   3.948
 1147W        W69365  12.293  11.605  12.118
 1148W        W69366   0.525  12.812  11.087
 1149W        W69367   5.166  39.473  10.517
 1150W        W69368  38.957   7.546   2.653
 1151W        W69369   8.018  42.370  12.430
 1152W        W69370  25.305   1.640  13.034
 1153W        W69371  22.089  36.966  10.609
 1154W        W69372   3.637  32.143   1.313
 1155W        W69373  19.109  37.936  10.606
 1156W        W69374  27.798  19.091   3.563
 1157W        W69375  28.541  20.999   3.188
 1158W        W69376   9.699  35.511  14.785
 1159W        W69377  44.778  19.443  11.135
 1160W        W69378  18.236  18.103   4.159
 1161W        W69379  30.437  40.030  13.777
 1162W        W69380  21.272  25.503  11.171
 1163W        W69381   8.008  30.839   2.759
 1164W        W69382  37.849  13.264   3.263
 1165W        W69383  16.339  38.433  10.884
 1166W        W69384  16.687   2.105  12.885
 1167W        W69385   8.163  37.089   2.697
 1168W        W69386  23.490  30.972   1.028
 1169W        W69387  15.863  31.957  14.806
 1170W        W69388  31.853  23.316   2.686
 1171W        W69389  42.089  34.001   3.768
 1172W        W69390  39.001  43.050  14.388
 1173W        W69391   3.270  12.368   3.655
 1174W        W69392  43.922  30.927   0.318
 1175W        W69393   9.950  36.576  13.855
 1176W        W69394  21.864  15.277   0.304
 1177W        W69395  20.125   4.617   3.609
 1178W        W69396  29.127  25.674   4.229
 1179W        W69397  19.960  17.948   1.269
 1180W        W69398  12.732  12.644   1.219
 1181W        W69399  33.710  37.850   3.339
 1182W        W69400  33.925  31.994  10.383
 1183W        W69401  10.243  10.479   0.337
 1184W        W69402  37.358  43.371   4.669
 1185W        W69403  21.723  37.137  12.068
 1186W        W69404  31.145  42.331   2.355
 1187W        W69405  24.013  37.379   1.303
 1188W        W69406  17.606  18.757  13.368
 1189W        W69407  12.598  44.980  12.643
 1190W        W69408  43.204  36.037   3.750
 1191W        W69409  33.064   9.674   3.731
 1192W        W69410  15.599  33.966  12.421
 1193W        W69411  11.927  37.822  11.515
 1194W        W69412   4.865   8.097   1.426
 1195W        W69413  41.984  25.620  13.303
 1196W        W69414  14.761  33.998  13.615
 1197W        W69415  22.783  43.304   0.749
 1198W        W69416   7.899  33.151   2.231
 1199W        W69417  16.355  33.352  14.831
 1200W        W69418  36.080  17.691   1.346
 1201W        W69419  34.212   9.544  12.206
 1202W        W69420  20.516  16.819  11.060
 1203W        W69421   3.989   3.523  12.864
 1204W        W69422  22.681   4.083  10.755
 1205W        W69423   5.342  34.555   4.380
 1206W        W69424  30.462  25.270  12.960
 1207W        W69425  30.987  39.776  11.740
 1208W        W69426   7.755  39.665   4.587
 1209W        W69427  13.680   5.958  14.458
 1210W        W69428  29.005   3.858   4.451
 1211W        W69429   7.297   8.380  13.593
 1212W        W69430   7.835  30.698  14.364
 1213W        W69431  21.285  32.062  13.466
 1214W        W69432   2.965  40.485  13.186
 1215W        W69433  27.423  31.105  13.485
 1216W        W69434  25.519  18.403  12.357
 1217W        W69435  25.951   7.378  12.766
 1218W        W69436   5.272  38.920  13.964
 1219W        W69437  11.824  10.310  10.477
 1220W        W69438  43.994  40.056   0.882
 1221W        W69439   2.702  29.735   3.298
 1222W        W69440  18.703  20.584  11.989
 1223W        W69441   4.009  38.353   0.653
 1224W        W69442   4.686  34.873   1.403
 1225W        W69443  19.109   1.765   4.765
 1226W        W69444  34.295  18.774   0.315
 1227W        W69445   4.485  32.595   2.379
 1228W        W69446  20.561   4.812   3.808
 1229W        W69447  41.262  39.373   2.146
 1230W        W69448  42.408  44.224   1.495
 1231W        W69449   1.287   6.367   0.241
 1232W        W69450  13.531  19.443  12.957
 1233W        W69451   0.756  24.707  11.013
 1234W        W69452  40.565  43.762   0.805
 1235W        W69453  27.707  21.317  13.288
 1236W        W69454   9.414  17.762  12.716
 1237W        W69455   0.966  25.533   3.135
 1238W        W69456  10.245  30.293   1.637
 1239W        W69457  35.176  38.486  11.947
 1240W        W69458   6.266  14.815  13.890
 1241W        W69459  20.099  44.233  12.595
 1242W        W69460  40.424  31.024  11.494
 1243W        W69461  29.513   8.960   4.309
 1244W        W69462   6.585   0.807   3.720
 1245W        W69463  40.455  28.477   1.679
 1246W        W69464  22.648  31.971  14.799
 1247W        W69465  30.432  42.741   4.963
 1248W        W69466  31.003  27.253  14.488
 1249W        W69467  21.428  21.158   0.337
 1250W        W69468   5.159  22.792  10.920
 1251W        W69469   2.365  12.703   5.279
 1252W        W69470  31.553  22.255   1.876
 1253W        W69471  17.541  20.735   4.141
 1254W        W69472   0.982  37.458  10.536
 1255W        W69473  42.766   2.729  14.078
 1256W        W69474  25.886  22.775   2.251
 1257W        W69475  21.238  18.136  14.428
 1258W        W69476  23.064   1.052   3.179
 1259W        W69477  29.982  27.136   2.430
 1260W        W69478  37.025   7.775  14.606
 1261W        W69479   8.863  28.244  14.358
 1262W        W69480  39.358   8.421   2.651
 1263W        W69481  25.650   9.299   2.065
 1264W        W69482  23.510  23.693  12.901
 1265W        W69483  31.579  32.221  14.043
 1266W        W69484  40.946  41.372   3.710
 1267W        W69485  41.930  15.502   4.999
 1268W        W69486  23.252  24.782   1.914
 1269W        W69487   3.420  18.522  13.498
 1270W        W69488  20.821  17.830  13.299
 1271W        W69489   4.721  43.854  13.797
 1272W        W69490   5.897  34.558  11.527
 1273W        W69491  26.399   7.787   2.280
 1274W        W69492  28.157   9.699   1.787
 1275W        W69493  27.174  41.333   1.256
 1276W        W69494  25.675  31.166   1.922
 1277W        W69495  38.709  19.126   2.221
 1278W        W69496  21.193  33.876  14.826
 1279W        W69497  32.772  12.408  12.879
 1280W        W69498  30.155  42.381  14.403
 1281W        W69499  15.337  15.748  10.394
 1282W        W69500  35.531  25.236  12.563
 1283W        W69501  37.836  34.443  12.548
 1284W        W69502  39.260  32.327  11.977
 1285W        W69503  43.996  14.748  10.751
 1286W        W69504  32.517  37.356  12.901
 1287W        W69505  11.680  28.168  11.098
 1288W        W69506  38.453  27.706   4.895
 1289W        W69507   7.369  37.067   3.015
 1290W        W69508  26.723  10.734  11.454
 1291W        W69509  30.025  35.352   4.419
 1292W        W69510  21.075   2.455  11.566
 1293W        W69511  31.599  22.235   4.322
 1294W        W69512  44.995   6.851  13.190
 1295W        W69513  13.854  36.867  11.946
 1296W        W69514  43.538  22.002  10.663
 1297W        W69515  38.122  24.093  13.909
 1298W        W69516  40.225  35.506  13.384
 1299W        W69517  11.710  21.649  14.211
 1300W        W69518  29.537  19.706  14.365
 1301W        W69519   2.081  26.917   0.427
 1302W        W69520  23.073   9.960   1.777
 1303W        W69521  44.447  36.424   2.683
 1304W        W69522  24.918   1.435   4.759
 1305W        W69523   6.363  23.502  11.461
 1306W        W69524  21.091  30.212   1.708
 1307W        W69525  29.583  36.947  12.631
 1308W        W69526   0.477  32.612  14.920
 1309W        W69527  27.746   5.864   4.140
 1310W        W69528  15.088   6.850   4.100
 1311W        W69529   6.019  38.290  12.109
 1312W        W69530  22.015  33.299   3.306
 1313W        W69531   4.934  37.372  12.907
 1314W        W69532  35.911  30.809  13.642
 1315W        W69533   1.935   8.917   2.649
 1316W        W69534  32.197   7.957  12.038
 1317W        W69535  21.532  24.217  11.987
 1318W        W69536  27.864  39.059   9.936
 1319W        W69537  11.938   9.113   0.296
 1320W        W69538  44.758   5.151   4.908
 1321W        W69539  24.557   9.219  12.062
 1322W        W69540  44.803  41.684  10.868
 1323W        W69541  17.533  43.303  10.646
 1324W        W69542  23.993  24.010   2.821
 1325W        W69543  28.652  37.537  11.280
 1326W        W69544  27.227  44.228  13.366
 1327W        W69545   5.819  11.670  12.201
 1328W        W69546   4.330  28.500  11.595
 1329W        W69547  25.916  38.631  11.422
 1330W        W69548   5.751  15.584   3.857
 1331W        W69549  32.242  16.973  12.070
 1332W        W69550  26.421  29.296   4.508
 1333W        W69551   6.964  18.685  11.691
 1334W        W69552  30.018  41.699   2.049
 1335W        W69553  30.580   0.769   3.247
 1336W        W69554  30.359   4.903  14.829
 1337W        W69555  25.193  27.741  12.088
 1338W        W69556  12.181  28.052  12.392
 1339W        W69557  14.326  13.295   4.188
 1340W        W69558  18.130  13.774   0.443
 1341W        W69559  19.135  35.884   1.888
 1342W        W69560  16.126  22.679  12.635
 1343W        W69561   2.769  34.659  14.844
 1344W        W69562  40.193  39.445   1.491
 1345W        W69563   8.166  25.043   4.566
 1346W        W69564  42.137  23.225  13.011
 1347W        W69565  11.586  35.302   4.232
 1348W        W69566  32.646  29.129  13.028
 1349W        W69567   1.903  18.673  13.941
 1350W        W69568  26.564   7.890   3.641
 1351W        W69569  42.197  24.281  13.114
 1352W        W69570  15.824  10.147   1.293
 1353W        W69571  21.713  44.480  10.811
 1354W        W69572   8.679  40.306   1.936
 1355W        W69573  14.810   1.796  13.497
 1356W        W69574  25.170  23.629  14.584
 1357W        W69575  13.303   9.808  11.982
 1358W        W69576  12.824  11.159   2.282
 1359W        W69577   7.262  27.555   1.349
 1360W        W69578  17.645  23.754   0.363
 1361W        W69579  16.243  26.321   3.168
 1362W        W69580  15.862   1.238   3.075
 1363W        W69581   4.589  17.954  13.921
 1364W        W69582  17.745  29.225   2.807
 1365W        W69583   0.660  37.769  14.840
 1366W        W69584   1.432   0.250   4.225
 1367W        W69585   6.173   5.374   1.748
 1368W        W69586  17.662  38.181  12.719
 1369W        W69587   9.506  15.602  10.234
 1370W        W69588  20.110  32.887   0.822
 1371W        W69589  29.668  19.691  10.345
 1372W        W69590  33.354  37.779  14.838
 1373W        W69591  13.465   0.719   2.647
 1374W        W69592  35.632  24.943  11.206
 1375W        W69593  12.619  19.359   4.998
 1376W        W69594  17.804  43.277   0.941
 1377W        W69595  15.852  23.245  13.107
 1378W        W69596  27.180  33.078   2.214
 1379W        W69597  21.761  19.595   3.587
 1380W        W69598  34.791  33.898  12.885
 1381W        W69599  36.615  42.234   1.013
 1382W        W69600  22.618  16.627   0.482
 1383W        W69601  40.413   4.165  13.499
 1384W        W69602  42.942  29.658   3.442
 1385W        W69603  24.963   2.766  12.024
 1386W        W69604  37.513  40.823   2.700
 1387W        W69605  13.679  43.279   2.816
 1388W        W69606   1.051  33.439   5.004
 1389W        W69607  44.362  36.001   2.391
 1390W        W69608   9.239  18.680  14.288
 1391W        W69609   9.614  43.834  13.351
 1392W        W69610  30.603  40.464   1.686
 1393W        W69611   4.011  17.129  12.866
 1394W        W69612  37.820  34.828   9.989
 1395W        W69613  12.111   4.661   2.387
 1396W        W69614  12.779  14.068   4.461
 1397W        W69615   9.133   5.800   0.012
 1398W        W69616  43.004  28.064  11.987
 1399W        W69617  17.698  35.536   0.400
 1400W        W69618  11.809  33.057   3.096
 1401W        W69619   0.987  33.114   1.820
 1402W        W69620  25.481  38.199  13.052
 1403W        W69621   6.898   8.715  13.402
 1404W        W69622   7.607  27.212   4.008
 1405W        W69623   7.667  39.937  10.497
 1406W        W69624  31.610  22.531   2.346
 1407W        W69625  12.775  23.121   1.716
 1408W        W69626  21.060  24.439  12.004
 1409W        W69627  14.586   8.580   1.759
 1410W        W69628  34.132  44.953  11.117
 1411W        W69629  36.347  38.837  10.601
 1412W        W69630  18.687  12.131   1.299
 1413W        W69631  16.173  15.854  14.111
 1414W        W69632  39.878  17.581  11.174
 1415W        W69633  40.172  40.730   4.873
 1416W        W69634  39.252  14.286  13.749
 1417W        W69635  12.903  30.617   2.587
 1418W        W69636  16.650   3.398   0.741
 1419W        W69637   4.951  36.186  13.578
 1420W        W69638  29.107   4.872   3.772
 1421W        W69639  17.538  30.914   0.620
 1422W        W69640  43.560  34.174   4.541
 1423W        W69641  10.362  19.812  13.901
 1424W        W69642  30.535  26.054   1.672
 1425W        W69643   5.466   8.858  10.307
 1426W        W69644   2.267  20.388  11.197
 1427W        W69645  13.788  19.985   2.565
 1428W        W69646   2.216  44.092  13.004
 1429W        W69647  36.537  30.064  14.481
 1430W        W69648  17.665  11.833  10.981
 1431W        W69649  44.078  32.444  12.011
 1432W        W69650  10.170  39.614   2.898
 1433W        W69651  30.683  15.710   1.925
 1434W        W69652  21.492  18.291  10.726
 1435W        W69653   8.434  43.623  10.218
 1436W        W69654  13.585   0.230   1.147
 1437W        W69655  22.238  30.522  11.218
 1438W        W69656   2.986  39.321  13.267
 1439W        W69657   9.189  23.841   1.663
 1440W        W69658   0.316  19.887  12.829
 1441W        W69659  29.615  43.844  12.444
 1442W        W69660  15.100  43.330   3.100
 1443W        W69661   3.736  35.668   0.320
 1444W        W69662  21.497  37.480   0.816
 1445W        W69663  41.959  10.882  12.542
 1446W        W69664  17.812  39.515  14.932
 1447W        W69665   2.254  18.646   4.825
 1448W        W69666   9.315  18.981  13.366
 1449W        W69667  36.507  15.207  12.506
 1450W        W69668  31.152  11.416   2.756
 1451W        W69669  11.608  39.118   2.923
 1452W        W69670  18.076  19.446   3.666
 1453W        W69671  27.340   5.717  13.112
 1454W        W69672  39.418  11.189   1.270
 1455W        W69673  24.530  12.563   2.298
 1456W        W69674  12.136  14.100  12.921
 1457W        W69675  14.143  15.560   3.741
 1458W        W69676  41.456   6.859   2.152
 1459W        W69677  32.717  29.813  14.393
 1460W        W69678  35.133  20.737  12.024
 1461W        W69679  30.218  32.046  13.608
 1462W        W69680  36.557   7.914  14.374
 1463W        W69681  21.003  23.263  10.712
 1464W        W69682  18.200  37.933   2.740
 1465W        W69683  24.409  16.142  11.408
 1466W        W69684  43.683  35.207   3.795
 1467W        W69685  19.490  36.120  13.359
 1468W        W69686  40.483  28.181   2.651
 1469W        W69687  33.572  38.897  13.941
 1470W        W69688   1.498  28.764  12.896
 1471W        W69689  12.748  13.221   3.323
 1472W        W69690  13.806  11.292   2.645
 1473W        W69691  22.543   6.067  13.992
 1474W        W69692  30.718  41.439   3.183
 1475W        W69693  13.778  40.877  12.049
 1476W        W69694  10.694  33.815   1.884
 1477W        W69695  42.964   8.002   3.666
 1478W        W69696  43.539   1.194   4.430
 1479W        W69697   5.158  41.047  14.113
 1480W        W69698  30.299   4.151   2.793
 1481W        W69699  34.027  20.681   3.331
 1482W        W69700  22.989  10.230   1.051
 1483W        W69701  15.314  28.508   1.671
 1484W        W69702  42.504  21.861  13.539
 1485W        W69703  33.051  28.228   1.446
 1486W        W69704  20.093  22.468   1.736
 1487W        W69705  17.366  29.072   4.158
 1488W        W69706  38.689  42.570  11.081
 1489W        W69707  31.739  25.874   2.142
 1490W        W69708  39.292   7.211  14.025
 1491W        W69709  10.348  19.706  11.208
 1492W        W69710  23.709  16.211   4.715
 1493W        W69711   0.500  32.735  13.394
 1494W        W69712  16.694  37.903   0.108
 1495W        W69713  43.229   1.564   4.247
 1496W        W69714   2.060  23.018   1.983
 1497W        W69715   7.633  17.308  11.143
 1498W        W69716  29.132  12.706  13.675
 1499W        W69717  27.088  28.083   0.814
 1500W        W69718  19.530  34.910   2.378
 1501W        W69719  15.334  31.650  10.290
 1502W        W69720  29.769   7.462  10.343
 1503W        W69721  19.129  35.013   4.222
 1504W        W69722  43.831  41.330  14.478
 1505W        W69723  20.406   2.260  12.029
 1506W        W69724  21.502  29.710   0.715
 1507W        W69725  13.411  16.753   2.307
 1508W        W69726  11.175  38.632   4.099
 1509W        W69727  10.553  34.271   0.977
 1510W        W69728   1.076  25.016   1.067
 1511W        W69729  40.868  36.074   2.395
 1512W        W69730  28.504  43.214  14.049
 1513W        W69731  43.672   2.929   2.935
 1514W        W69732  11.262   5.421  13.005
 1515W        W69733  11.799  33.935   1.370
 1516W        W69734  19.157  28.521   2.635
 1517W        W69735  17.024   4.188   4.396
 1518W        W69736  36.632  39.708   0.900
 1519W        W69737  42.007   6.644  11.674
 1520W        W69738  14.600   2.794   9.792
 1521W        W69739  39.497  44.770  10.657
 1522W        W69740  10.363  31.923  11.149
 1523W        W69741  20.520  20.570   3.232
 1524W        W69742  35.593  42.831  11.730
 1525W        W69743  34.539  31.750   1.894
 1526W        W69744  17.675  23.608  12.143
 1527W        W69745  35.014  14.073  10.731
 1528W        W69746  24.550  10.342  10.278
 1529W        W69747  17.831  20.775   4.568
 1530W        W69748  22.019  31.032   0.468
 1531W        W69749   7.961  35.140   2.339
 1532W        W69750   8.751  34.644  14.354
 1533W        W69751  41.861  36.560  13.861
 1534W        W69752   8.822  23.953   0.508
 1535W        W69753  16.188  34.560   0.397
 1536W        W69754  38.330  27.261  14.549
 1537W        W69755   7.226  27.969  13.701
 1538W        W69756  28.200  40.586  11.604
 1539W        W69757   5.225  25.235   4.093
 1540W        W69758  38.929  15.542   4.117
 1541W        W69759   7.860  20.363   2.889
 1542W        W69760  29.415  22.190  10.262
 1543W        W69761  34.209   1.848  12.954
 1544W        W69762  22.193  28.695   3.573
 1545W        W69763   5.041  11.323   0.856
 1546W        W69764  14.677  18.751   3.253
 1547W        W69765  24.570  18.286   0.245
 1548W        W69766   3.286  34.787  14.392
 1549W        W69767  17.614  37.149  12.535
 1550W        W69768   0.852  33.816  11.159
 1551W        W69769   7.655   5.992   2.375
 1552W        W69770  10.133  11.398  11.098
 1553W        W69771  31.556  29.631  11.652
 1554W        W69772  39.318   9.047  11.141
 1555W        W69773  34.959  44.442  12.874
 1556W        W69774  20.822  16.898  14.917
 1557W        W69775  25.145  18.590   1.474
 1558W        W69776  39.062  29.497  12.421
 1559W        W69777   4.956  11.512  10.231
 1560W        W69778  11.015  25.417   0.896
 1561W        W69779  20.607   9.173  13.913
 1562W        W69780  31.272  31.596  12.865
 1563W        W69781  26.905  12.727   0.676
 1564W        W69782  43.950  12.490  13.012
 1565W        W69783   2.887  16.075  14.511
 1566W        W69784   8.601  13.712  13.938
 1567W        W69785  39.810  10.282  14.762
 1568W        W69786   5.890   6.354  14.924
 1569W        W69787  11.616   4.623   2.214
 1570W        W69788   4.111  43.202  10.698
 1571W        W69789  43.505   5.722  13.546
 1572W        W69790  44.525   8.275  11.585
 1573W        W69791  15.615  14.208  13.883
 1574W        W69792  38.388  19.178   3.191
 1575W        W69793  36.086   4.423   9.906
 1576W        W69794  44.927  39.369   4.192
 1577W        W69795   9.140  43.291  13.886
 1578W        W69796  25.516  33.176  13.426
 1579W        W69797  35.622   1.452  12.609
 1580W        W69798  36.993  33.998  11.178
 1581W        W69799   1.844  36.886  11.709
 1582W        W69800  18.719  20.298   0.065
 1583W        W69801  36.334  25.270   4.040
 1584W        W69802   1.949  33.970   2.279
 1585W        W69803  21.246  22.311  14.309
 1586W        W69804  32.439  31.147  10.557
 1587W        W69805  11.466  17.713  10.012
 1588W        W69806  30.324  22.676   0.248
 1589W        W69807   0.506   7.274   4.550
 1590W        W69808   0.252  34.475   4.751
 1591W        W69809   9.852  26.125  13.019
 1592W        W69810  39.861  16.209  12.103
 1593W        W69811  25.236  20.024  14.120
 1594W        W69812  37.153  19.574  13.390
 1595W        W69813  40.548  42.858  11.938
 1596W        W69814  19.608   6.184  13.907
 1597W        W69815  41.853  37.347   0.289
 1598W        W69816   7.437  17.789  11.056
 1599W        W69817  25.304  30.027  12.063
 1600W        W69818   7.194   0.738   1.977
 1601W        W69819  15.775  41.416  10.580
 1602W        W69820  22.253   7.899  12.409
 1603W        W69821  41.315   9.746   0.483
 1604W        W69822  18.736  36.861  12.921
 1605W        W69823  40.434  38.914   4.164
 1606W        W69824  15.420   4.654  12.520
 1607W        W69825  25.963  33.862   3.719
 1608W        W69826   8.358  21.058   2.420
 1609W        W69827  16.615  17.793  10.746
 1610W        W69828  31.139   1.604   5.017
 1611W        W69829  36.015   3.887   4.109
 1612W        W69830  34.081  17.292   0.520
 1613W        W69831  10.285  32.993   1.758
 1614W        W69832  21.754   3.678   0.255
 1615W        W69833  13.841  20.458   1.216
 1616W        W69834  24.672  36.325   2.161
 1617W        W69835  31.587  17.098   2.483
 1618W        W69836  16.616  37.902   2.204
 1619W        W69837   2.813  44.753   3.972
 1620W        W69838  25.970  18.727  14.084
 1621W        W69839  43.320  33.678   4.536
 1622W        W69840  34.880   6.694   4.549
 1623W        W69841   0.745  31.416   2.355
 1624W        W69842  13.223   7.826   2.266
 1625W        W69843  31.375  36.808  12.760
 1626W        W69844  37.288  42.810  13.132
 1627W        W69845  24.514  23.096   5.072
 1628W        W69846  44.339  29.955   3.744
 1629W        W69847  36.014  20.779  11.495
 1630W        W69848   1.312   0.741  13.252
 1631W        W69849  14.990  32.847   2.349
 1632W        W69850  25.662   7.564   9.930
 1633W        W69851  10.792  32.001   4.361
 1634W        W69852  21.039  27.987  13.379
 1635W        W69853  39.813  16.393   3.977
 1636W        W69854  44.696  35.611   2.633
 1637W        W69855  23.614   0.394   2.870
 1638W        W69856  11.239   2.465  10.626
 1639W        W69857  41.624  15.807   3.711
 1640W        W69858  19.075  34.815   3.523
 1641W        W69859  43.892  28.568   3.517
 1642W        W69860  30.978  14.542   0.079
 1643W        W69861  31.763  18.370   0.289
 1644W        W69862  34.830  14.198   3.267
 1645W        W69863  36.933  16.495  14.343
 1646W        W69864   0.570  42.452  13.217
 1647W        W69865  16.604   5.688  14.775
 1648W        W69866  21.521  35.830  14.329
 1649W        W69867   4.789   9.902   4.902
 1650W        W69868  44.629   3.219   1.617
 1651W        W69869   8.224  26.722   0.872
 1652W        W69870   9.473  43.420  10.262
 1653W        W69871  21.095   6.975  10.657
 1654W        W69872  22.253  17.590  13.903
 1655W        W69873  15.954  29.496  11.384
 1656W        W69874  18.210   4.234  12.609
 1657W        W69875  21.185   1.277  14.787
 1658W        W69876  30.922  13.975   4.474
 1659W        W69877  12.717  38.012  11.219
 1660W        W69878  20.052  31.643   3.124
 1661W        W69879  37.347   5.217  10.277
 1662W        W69880  11.706  15.740   2.487
 1663W        W69881  28.164   2.080  13.952
 1664W        W69882   9.185  27.970  12.361
 1665W        W69883   4.430  37.414   2.429
 1666W        W69884  20.707  14.030  11.537
 1667W        W69885   4.649  27.729   1.719
 1668W        W69886  30.163  22.028  14.421
 1669W        W69887  23.795  17.762  13.077
 1670W        W69888  39.762  33.455  11.154
 1671W        W69889  38.831  10.661   4.561
 1672W        W69890   3.125  23.912   4.988
 1673W        W69891  42.056  17.592  10.640
 1674W        W69892  40.365  16.560  10.654
 1675W        W69893  18.189  35.044   4.229
 1676W        W69894  26.644  19.783   4.769
 1677W        W69895  16.481   4.302  14.947
 1678W        W69896  23.788   2.751  11.910
 1679W        W69897  28.091  22.780   2.674
 1680W        W69898  32.649  14.935  13.508
 1681W        W69899  29.530  43.933  13.453
 1682W        W69900   0.977  44.343  11.706
 1683W        W69901   0.285   5.157   3.081
 1684W        W69902   1.858  18.478  14.935
 1685W        W69903   2.940  18.374   1.658
 1686W        W69904   8.015   9.866   0.392
 1687W        W69905  17.055  15.231   0.423
 1688W        W69906  17.284  31.565   3.690
 1689W        W69907  30.172  13.315   4.062
 1690W        W69908  29.200  23.056  13.479
 1691W        W69909  28.876  18.757  14.316
 1692W        W69910  10.114   1.376   2.630
 1693W        W69911   3.360  10.018   3.280
 1694W        W69912  13.742  12.410  14.446
 1695W        W69913  13.150   8.304   2.055
 1696W        W69914  18.329  12.264   5.326
 1697W        W69915  31.245  14.823  12.380
 1698W        W69916  11.391  28.171   2.227
 1699W        W69917  11.171  40.941   3.288
 1700W        W69918  34.447  28.920  12.143
 1701W        W69919   1.666  38.911  13.291
 1702W        W69920  25.575  42.437   0.227
 1703W        W69921   2.383  26.669   3.215
 1704W        W69922   3.913   0.377   3.654
 1705W        W69923  37.859  41.323   0.274
 1706W        W69924  22.600  33.635   2.211
 1707W        W69925  13.912  41.599   2.145
 1708W        W69926  10.270  30.958  14.737
 1709W        W69927   2.643   7.179   2.028
 1710W        W69928  25.579  19.178   2.951
 1711W        W69929   4.139  37.337  14.947
 1712W        W69930  14.328  25.557  14.903
 1713W        W69931  17.522  30.376   2.222
 1714W        W69932  12.945  39.948   0.628
 1715W        W69933  42.959   4.704   2.273
 1716W        W69934  20.989   7.302  12.862
 1717W        W69935  35.426   1.863  11.606
 1718W        W69936  29.434   6.108  14.203
 1719W        W69937  10.873  18.637  13.320
 1720W        W69938  21.622   3.811   4.610
 1721W        W69939  31.689  24.057   0.439
 1722W        W69940  42.616   8.734  10.990
 1723W        W69941  42.729   9.730   2.655
 1724W        W69942  34.668  39.803  14.441
 1725W        W69943  12.405  17.704   3.730
 1726W        W69944  40.509  15.827   1.908
 1727W        W69945  21.236  37.272  11.468
 1728W        W69946  28.128   0.801   3.732
 1729W        W69947   4.964  44.799  10.932
 1730W        W69948   5.765  20.676   0.813
 1731W        W69949  44.964  20.590   1.405
 1732W        W69950  17.778  21.662  14.436
 1733W        W69951  13.712  34.345  12.856
 1734W        W69952   2.729  33.928  14.403
 1735W        W69953  26.775  29.303   0.222
 1736W        W69954  10.277  18.026   3.399
 1737W        W69955  17.082  43.862   4.603
 1738W        W69956  33.825  22.508   4.488
 1739W        W69957  43.964  29.346  13.877
 1740W        W69958  22.592  22.479   5.161
 1741W        W69959  30.446  20.210  14.891
 1742W        W69960  18.166  43.854   3.413
 1743W        W69961  27.957  44.716  11.186
 1744W        W69962  33.374  24.682  12.086
 1745W        W69963  35.735  27.789   1.758
 1746W        W69964  28.076  10.688   0.833
 1747W        W69965   2.338  33.979   1.371
 1748W        W69966  30.113  39.827  10.591
 1749W        W69967  16.560  27.112  14.791
 1750W        W69968  14.590  30.281   5.034
 1751W        W69969   5.287  15.290   3.262
 1752W        W69970   8.121  10.956   0.241
 1753W        W69971   3.154  40.489   9.998
 1754W        W69972   3.801  11.080  13.870
 1755W        W69973  29.710  44.528   1.273
 1756W        W69974  33.829  13.739  12.379
 1757W        W69975  19.540  44.006   4.161
 1758W        W69976  14.153  28.054  13.097
 1759W        W69977  37.989  16.730   2.463
 1760W        W69978  25.946  20.251  13.412
 1761W        W69979  12.686  33.024  13.358
 1762W        W69980   8.112  12.316   0.925
 1763W        W69981  26.093   6.390  12.889
 1764W        W69982   4.455   5.132  14.988
 1765W        W69983  38.148   1.371  13.040
 1766W        W69984  27.948  24.174  12.115
 1767W        W69985   6.457   1.370  10.820
 1768W        W69986  21.011  14.646   1.375
 1769W        W69987  37.879  26.257   1.109
 1770W        W69988  41.089   0.996  11.123
 1771W        W69989  20.647  19.042  12.505
 1772W        W69990  15.170  14.850   2.061
 1773W        W69991  13.679  21.245  11.914
 1774W        W69992  43.369  42.421   2.852
 1775W        W69993  42.072  35.969  12.769
 1776W        W69994  32.094   7.262  13.436
 1777W        W69995  26.619  27.164   4.642
 1778W        W69996  28.326  14.540  13.880
 1779W        W69997   3.890  40.884   3.263
 1780W        W69998  32.495   9.005  10.707
 1781W        W69999  43.914   6.869  14.842
 1782W        W70000  36.282  20.941   1.729
 1783W        W70001  40.878  39.405   0.143
 1784W        W70002   5.134   9.271   3.332
 1785W        W70003  30.463  41.213  11.076
 1786W        W70004  14.195  38.320  14.707
 1787W        W70005  27.481   6.658   2.004
 1788W        W70006  28.224   2.728  12.479
 1789W        W70007  11.616  38.790   5.155
 1790W        W70008  15.253   0.429   1.967
 1791W        W70009  26.375  19.770  12.576
 1792W        W70010  44.954  31.088  14.226
 1793W        W70011  36.053  32.840   1.017
 1794W        W70012  41.356   4.873   3.070
 1795W        W70013  35.349  26.111  14.748
 1796W        W70014  31.487  28.570  13.947
 1797W        W70015  25.509  16.310  12.409
 1798W        W70016  13.820  33.127   2.803
 1799W        W70017  25.277  14.620  12.397
 1800W        W70018  32.124   6.191   2.205
 1801W        W70019   0.449  31.163  13.420
 1802W        W70020  16.122  41.989  11.627
 1803W        W70021  33.858  18.247   4.675
 1804W        W70022  39.146  11.204  12.881
 1805W        W70023  41.805   0.214   4.551
 1806W        W70024   3.782  43.091   3.280
 1807W        W70025  20.997  27.704  11.611
 1808W        W70026  31.144  26.991   5.410
 1809W        W70027  36.883  42.309   3.149
 1810W        W70028   4.761  28.562  13.368
 1811W        W70029  44.266   1.351   1.418
 1812W        W70030   5.663  40.892  12.141
 1813W        W70031  17.935  38.275   1.036
 1814W        W70032  39.798  18.680   4.585
 1815W        W70033  28.715  14.207   4.215
 1816W        W70034   1.874  23.958  12.104
 1817W        W70035  20.716  34.338   1.431
 1818W        W70036   5.823  15.053   0.295
 1819W        W70037   6.349  14.286   1.172
 1820W        W70038  43.575  38.328   1.402
 1821W        W70039   2.298  37.840  14.202
 1822W        W70040  24.070  28.330   1.299
 1823W        W70041  33.945  10.393  10.572
 1824W        W70042  18.582  42.790   1.458
 1825W        W70043  41.745   7.625  11.724
 1826W        W70044  44.020  14.580  14.979
 1827W        W70045  43.055  40.489  14.935
 1828W        W70046  17.717  17.744   2.646
 1829W        W70047  19.977  16.844  13.904
 1830W        W70048  17.080  39.552   4.382
 1831W        W70049  25.018   0.816  10.795
 1832W        W70050  41.148   6.842   3.445
 1833W        W70051  40.446   6.007   0.305
 1834W        W70052  42.352  17.264   4.307
 1835W        W70053   8.528   0.502  14.346
 1836W        W70054  22.478  31.887  13.802
 1837W        W70055  35.094   9.310  14.435
 1838W        W70056  22.737   0.713   4.084
 1839W        W70057  12.313  38.345  14.865
 1840W        W70058  14.855   8.143  12.974
 1841W        W70059  29.778  21.346  12.584
 1842W        W70060   9.256   8.471   3.598
 1843W        W70061  26.929  42.033  12.553
 1844W        W70062  42.790  35.998  11.544
 1845W        W70063  36.261  12.031   3.609
 1846W        W70064   3.186  37.742  13.366
 1847W        W70065  39.702  22.725   1.967
 1848W        W70066   8.875  19.049  14.081
 1849W        W70067   8.095   1.907   3.307
 1850W        W70068   6.853  37.324   2.636
 1851W        W70069  26.545  35.368  11.764
 1852W        W70070  34.173  15.107   2.945
 1853W        W70071  26.126  39.641   2.878
 1854W        W70072  22.072  43.331  11.192
 1855W        W70073   3.477  34.406  12.207
 1856W        W70074   1.468   1.472   3.691
 1857W        W70075  20.091  15.747  14.322
 1858W        W70076  36.317  36.622   4.574
 1859W        W70077  27.629  12.335   4.233
 1860W        W70078  28.753   0.474   4.817
 1861W        W70079  10.445  17.747   5.131
 1862W        W70080  30.577  22.870  14.370
 1863W        W70081   0.863  39.634  13.059
 1864W        W70082  34.649  14.238   2.775
 1865W        W70083  10.450  32.524  11.671
 1866W        W70084  35.349   0.255  14.271
 1867W        W70085  33.348  41.749  12.946
 1868W        W70086  25.942  10.363   2.360
 1869W        W70087  41.205  42.467   0.700
 1870W        W70088  18.533  34.759   5.060
 1871W        W70089  36.602   0.268  11.109
 1872W        W70090  34.218  34.503   4.163
 1873W        W70091  39.567  15.287   4.631
 1874W        W70092  23.209  20.739  13.558
 1875W        W70093  16.789  21.030   2.071
 1876W        W70094  14.028   7.732  13.111
 1877W        W70095  24.137  28.077  13.474
 1878W        W70096  42.009   4.363   0.313
 1879W        W70097   4.837   2.774  10.113
 1880W        W70098  33.117  34.048  13.426
 1881W        W70099  26.467   0.826   0.821
 1882W        W70100  26.729  12.728  14.782
 1883W        W70101  39.450   6.357  12.504
 1884W        W70102  26.296  22.336  11.132
 1885W        W70103   9.932  39.008   4.293
 1886W        W70104  11.299  21.635   1.293
 1887W        W70105   2.663  30.940   1.325
 1888W        W70106  17.118   8.125   2.427
 1889W        W70107  34.259  27.476  13.862
 1890W        W70108  15.270  30.631  11.382
 1891W        W70109  36.568  32.847  10.675
 1892W        W70110  35.962  27.692   3.181
 1893W        W70111  40.897  25.527   3.847
 1894W        W70112  35.897   9.847  12.871
 1895W        W70113  30.592  28.730   1.476
 1896W        W70114  12.656   5.846   4.638
 1897W        W70115  42.732  36.170   3.600
 1898W        W70116  40.081  41.655   2.744
 1899W        W70117  30.717   1.405  11.453
 1900W        W70118  23.516  31.047   4.907
 1901W        W70119   9.423  19.444  14.842
 1902W        W70120   0.507  36.643   1.872
 1903W        W70121  18.129  14.042  14.998
 1904W        W70122   6.195  22.285  14.798
 1905W        W70123  17.323  14.752  12.340
 1906W        W70124  32.924   4.146   0.241
 1907W        W70125  37.489   7.674   0.904
 1908W        W70126  30.165  37.432   4.724
 1909W        W70127   3.814  14.649   3.243
 1910W        W70128   3.529  30.191  10.885
 1911W        W70129  33.130  40.995  10.552
 1912W        W70130  12.907  29.350  14.358
 1913W        W70131  12.834  39.058  13.888
 1914W        W70132  36.328   5.874  11.869
 1915W        W70133  21.183  42.174  14.113
 1916W        W70134  26.073  16.159  12.054
 1917W        W70135  28.109   6.359  14.299
 1918W        W70136  43.429   0.101   1.628
 1919W        W70137  37.344  32.585   0.421
 1920W        W70138  23.259  21.068   2.263
 1921W        W70139  42.168  24.889  11.022
 1922W        W70140  21.827  28.734  12.496
 1923W        W70141  24.291   9.586   1.244
 1924W        W70142  23.681  27.632   2.211
 1925W        W70143  19.768  30.192   0.340
 1926W        W70144   4.170  21.291   4.036
 1927W        W70145  40.618   4.305  14.863
 1928W        W70146  20.647   6.414  12.889
 1929W        W70147  11.251  35.294  14.101
 1930W        W70148   4.301   4.817   3.965
 1931W        W70149  27.622  23.662   2.659
 1932W        W70150  23.784  25.184   1.364
 1933W        W70151  14.779  23.482  11.627
 1934W        W70152  34.832   2.012  14.407
 1935W        W70153   9.666   7.311  14.058
 1936W        W70154  37.198  28.555  14.190
 1937W        W70155   0.069  32.609   2.223
 1938W        W70156  24.801  40.074   2.240
 1939W        W70157  35.057   8.328   0.420
 1940W        W70158  19.596   8.599   1.701
 1941W        W70159  35.523  28.286  11.535
 1942W        W70160  20.240   0.228  11.212
 1943W        W70161  39.483  36.155   3.187
 1944W        W70162  32.518   0.591   2.338
 1945W        W70163  41.784  13.822   0.181
 1946W        W70164  32.606  36.947  11.424
 1947W        W70165  28.132  38.442   4.642
 1948W        W70166  14.827  20.774   2.619
 1949W        W70167  36.905  14.115   3.127
 1950W        W70168  17.040  42.876  11.275
 1951W        W70169  12.684  10.041  14.782
 1952W        W70170  40.941  39.358   1.237
 1953W        W70171  35.346  17.268  13.647
 1954W        W70172   8.417  25.491   1.244
 1955W        W70173  40.355   0.927  11.639
 1956W        W70174  21.007  40.548  13.496
 1957W        W70175  14.405  39.410   3.193
 1958W        W70176  11.289  12.738  11.995
 1959W        W70177  15.759  31.598   3.668
 1960W        W70178  17.716  33.857  12.155
 1961W        W70179   3.350  10.020  12.401
 1962W        W70180  21.198   3.900  10.628
 1963W        W70181   9.734   7.387   1.260
 1964W        W70182  36.325  28.519   1.370
 1965W        W70183  40.375  32.631   4.153
 1966W        W70184  21.728  22.535  11.426
 1967W        W70185  34.151  11.310   2.704
 1968W        W70186  12.759  12.923  14.467
 1969W        W70187   0.021  31.723  11.194
 1970W        W70188  32.363   0.261  14.353
 1971W        W70189  24.872   3.729  13.077
 1972W        W70190  38.888   1.945   3.024
 1973W        W70191  12.436  27.921   3.154
 1974W        W70192  16.254  15.713   1.941
 1975W        W70193  41.089  44.773  11.092
 1976W        W70194  13.463  16.012  13.724
 1977W        W70195  16.319  42.017  14.458
 1978W        W70196  20.864  18.175   3.676
 1979W        W70197  29.823  22.628   0.465
 1980W        W70198  32.109  38.397  14.800
 1981W        W70199   1.030   9.541  10.950
 1982W        W70200  18.901  23.442   0.511
 1983W        W70201  10.758  18.090  13.812
 1984W        W70202   4.364   6.249  11.895
 1985W        W70203   7.882  32.160   2.265
 1986W        W70204  13.111  18.613   3.261
 1987W        W70205  16.165  11.170   1.944
 1988W        W70206  36.260  28.444  14.560
 1989W        W70207   7.901  38.314   4.249
 1990W        W70208  36.111  10.384  14.355
 1991W        W70209  22.569   3.323   3.711
 1992W        W70210  30.086  20.580  13.857
 1993W        W70211   3.543   0.797   0.685
 1994W        W70212  37.928  24.483   3.692
 1995W        W70213  28.597  13.399  14.391
 1996W        W70214  19.564  13.926  11.539
 1997W        W70215  18.777   3.667  11.736
 1998W        W70216  36.980  17.676   0.196
 1999W        W70217  20.033  43.757  13.565
 2000W        W70218  17.702   8.425   2.571
 2001W        W70219   6.590  42.972  13.025
 2002W        W70220  11.063   2.333   1.857
 2003W        W70221   7.836  13.665   0.881
 2004W        W70222  33.817  44.845  10.679
 2005W        W70223   5.456  15.333   1.433
 2006W        W70224  20.042   7.713   1.187
 2007W        W70225  21.444   3.887   1.485
 2008W        W70226  32.865  21.760  13.569
 2009W        W70227   5.508  25.488   2.281
 2010W        W70228  43.453   2.929  10.850
 2011W        W70229  16.559  12.094   2.841
 2012W        W70230  13.735   5.931  10.724
 2013W        W70231  15.315  43.631  14.491
 2014W        W70232  21.933  17.162   2.740
 2015W        W70233  19.108  15.031   3.324
 2016W        W70234  33.602   0.424   1.380
 2017W        W70235  11.507   2.704   0.899
 2018W        W70236   5.331  11.257   1.751
 2019W        W70237  44.417  22.072  13.301
 2020W        W70238  39.973  42.471  10.773
 2021W        W70239  43.368  25.533   3.437
 2022W        W70240   8.440  29.770  12.992
 2023W        W70241   0.785  38.464  12.432
 2024W        W70242  40.776  19.356  11.595
 2025W        W70243  10.409  18.254  10.749
 2026W        W70244  44.713  39.326   0.384
 2027W        W70245  17.252  15.566  13.375
 2028W        W70246  34.387  35.846  14.817
 2029W        W70247  18.114  35.328  13.395
 2030W        W70248  10.215  12.110  13.667
 2031W        W70249  27.767  19.805   2.385
 2032W        W70250  40.845  12.741  12.584
 2033W        W70251   4.980  31.039   3.306
 2034W        W70252  18.480  18.546  10.792
 2035W        W70253   8.252  11.616   2.708
 2036W        W70254  27.672   8.683  12.439
 2037W        W70255  41.621  18.497   0.679
 2038W        W70256  41.573  25.782   0.424
 2039W        W70257   3.352  36.232   4.047
 2040W        W70258   5.747  11.193  12.409
 2041W        W70259  39.507  35.967  12.096
 2042W        W70260  43.280  20.254   2.174
 2043W        W70261  41.978   1.273   3.166
 2044W        W70262  42.357  32.878   4.730
 2045W        W70263  19.256  41.013  12.418
 2046W        W70264   2.273   2.387   4.248
 2047W        W70265  20.716  37.688  10.638
 2048W        W70266  19.306  20.573   0.910
 2049W        W70267   6.154  17.719   5.003
 2050W        W70268   3.745  33.024   1.236
 2051W        W70269  32.201  28.287  11.620
 2052W        W70270  42.033  31.238   2.361
 2053W        W70271  26.416   1.605   9.899
 2054W        W70272  10.284   2.999   3.816
 2055W        W70273   5.298  39.939   2.221
 2056W        W70274  28.622  11.789  11.120
 2057W        W70275  39.185   0.434  12.481
 2058W        W70276   7.120  11.330  13.936
 2059W        W70277  26.539  31.912  14.339
 2060W        W70278  21.303  17.185  13.596
 2061W        W70279  28.044  43.215  11.139
 2062W        W70280  44.870  38.776  11.622
 2063W        W70281   8.647  44.076  11.012
 2064W        W70282  42.153   0.735  14.118
 2065W        W70283   1.458  22.503   3.882
 2066W        W70284  25.651  15.225  10.943
 2067W        W70285   3.708  41.513  13.005
 2068W        W70286  30.675  35.693  10.695
 2069W        W70287  31.633  21.740  14.840
 2070W        W70288   7.762  35.390   1.443
 2071W        W70289  42.487  32.209   0.721
 2072W        W70290  17.022   0.165  11.977
 2073W        W70291   5.411  23.819   2.494
 2074W        W70292  16.180  43.315  13.418
 2075W        W70293   2.866  16.928  11.172
 2076W        W70294  35.203   5.014  12.088
 2077W        W70295   0.882  30.622   2.628
 2078W        W70296  23.570  39.053  14.078
 2079W        W70297  40.956  24.098   3.202
 2080W        W70298  24.197   7.933  11.173
 2081W        W70299  26.654  35.328   4.881
 2082W        W70300  25.821  14.381   9.939
 2083W        W70301   8.797   3.323  11.863
 2084W        W70302  23.667  21.673  13.077
 2085W        W70303  34.406  32.436   4.256
 2086W        W70304  44.569  17.621   1.417
 2087W        W70305  11.835  24.203   0.183
 2088W        W70306  41.714  30.683  14.578
 2089W        W70307   5.807  12.240  11.520
 2090W        W70308  33.128  18.813  12.627
 2091W        W70309   0.938  22.809  12.143
 2092W        W70310  28.051  36.892  12.963
 2093W        W70311  30.423  16.553  14.337
 2094W        W70312  28.048   9.037   3.946
 2095W        W70313   5.201  41.431  10.999
 2096W        W70314  42.760   5.167   4.594
 2097W        W70315  21.690   4.408  13.073
 2098W        W70316   7.319   8.488   0.463
 2099W        W70317  26.681  17.305   3.116
 2100W        W70318  12.119  38.558  13.004
 2101W        W70319  44.591  22.588  12.475
 2102W        W70320  31.420  40.215   3.856
 2103W        W70321  30.053  29.197   4.121
 2104W        W70322  31.509   6.908   5.288
 2105W        W70323  40.242  14.230  11.441
 2106W        W70324  17.844  24.688   2.674
 2107W        W70325   1.419  33.178  13.400
 2108W        W70326  11.549  18.005  12.229
 2109W        W70327  24.078  30.315   3.327
 2110W        W70328  13.267  28.995  14.486
 2111W        W70329  44.309  23.724  12.999
 2112W        W70330  11.152  23.787  10.703
 2113W        W70331  15.111   8.650   0.847
 2114W        W70332  44.354  20.254  10.634
 2115W        W70333  21.119  44.800  13.708
 2116W        W70334  37.128  40.909   3.045
 2117W        W70335  21.886   4.845  12.082
 2118W        W70336  18.534   1.228  10.463
 2119W        W70337  41.455  32.285   0.642
 2120W        W70338  36.002  24.026   4.583
 2121W        W70339  11.121   2.280  12.029
 2122W        W70340   4.944  11.268   1.355
 2123W        W70341  39.847  36.324  13.867
 2124W        W70342  33.512  36.129   4.132
 2125W        W70343  25.524   2.697  11.149
 2126W        W70344  42.355  18.237   0.019
 2127W        W70345  12.500  30.139  12.871
 2128W        W70346  14.365  35.962   3.425
 2129W        W70347  36.600  29.242   2.832
 2130W        W70348   6.958  19.763  13.246
 2131W        W70349  43.230   8.640  13.596
 2132W        W70350  23.527  10.497   4.667
 2133W        W70351  12.189  33.861   2.694
 2134W        W70352  11.630  13.111   0.550
 2135W        W70353   4.752  10.666  11.795
 2136W        W70354  40.823  33.553  12.620
 2137W        W70355  13.016  32.451  14.774
 2138W        W70356  11.788  12.919  12.027
 2139W        W70357  32.197  38.552   2.749
 2140W        W70358  44.807  34.168  11.913
 2141W        W70359  35.675  26.681   5.096
 2142W        W70360  29.870  20.322   3.344
 2143W        W70361   9.859  15.926  12.037
 2144W        W70362   9.526  24.060  13.854
 2145W        W70363  25.432  33.222   0.784
 2146W        W70364   1.515   1.905  13.876
 2147W        W70365   8.355  16.836   4.974
 2148W        W70366  25.003   5.823  11.646
 2149W        W70367  17.618  21.002   2.186
 2150W        W70368  12.059  34.589   2.328
 2151W        W70369   6.784  25.332  11.801
 2152W        W70370  44.009  44.547   1.214
 2153W        W70371  21.020  35.033   0.870
 2154W        W70372  14.774  35.050  12.652
 2155W        W70373  40.917   6.433   1.295
 2156W        W70374  20.989  39.996  11.915
 2157W        W70375  18.029  33.529  11.127
 2158W        W70376  13.139  32.440   2.830
 2159W        W70377  17.896  16.478   1.742
 2160W        W70378  27.979  24.180  14.749
 2161W        W70379  42.340  42.414  10.671
 2162W        W70380  26.109   8.985  11.117
 2163W        W70381  21.707  44.010   2.328
 2164W        W70382   8.408  34.326  10.645
 2165W        W70383  43.923   5.763  14.098
 2166W        W70384  42.025  32.539   3.860
 2167W        W70385  15.762  21.824   4.041
 2168W        W70386  34.064  24.639   2.762
 2169W        W70387   2.697   1.817  10.752
 2170W        W70388  38.078  22.960   3.824
 2171W        W70389  37.671  10.228  14.853
 2172W        W70390  15.982   9.577  10.464
 2173W        W70391  44.509  40.676  11.580
 2174W        W70392   6.479  24.660   2.251
 2175W        W70393  13.814  19.319  13.375
 2176W        W70394  25.676  27.056   4.773
 2177W        W70395  31.124  28.987   4.516
 2178W        W70396  21.333  34.544  12.673
 2179W        W70397  22.257  39.909  12.656
 2180W        W70398  33.683  43.680   9.630
 2181W        W70399   5.580  36.963  13.395
 2182W        W70400  26.095   9.661  14.937
 2183W        W70401  26.888   1.937   3.378
 2184W        W70402   2.697  44.092  11.416
 2185W        W70403   2.720  26.405  11.206
 2186W        W70404  10.007   3.958  14.338
 2187W        W70405  10.848  29.144  11.553
 2188W        W70406  43.318  17.278   5.010
 2189W        W70407  29.515  12.874  12.048
 2190W        W70408  41.341  44.741  14.952
 2191W        W70409  15.516  29.435   1.762
 2192W        W70410  21.633  39.590  12.785
 2193W        W70411  12.111  36.981   4.648
 2194W        W70412  32.128  10.626   4.348
 2195W        W70413   3.065   6.150   3.391
 2196W        W70414  25.030  41.730  13.847
 2197W        W70415  44.207  38.362  12.421
 2198W        W70416  31.363  38.831  13.211
 2199W        W70417  24.156   3.850  12.634
 2200W        W70418  21.141  27.706  12.948
 2201W        W70419   4.366  17.332  12.348
 2202W        W70420  43.687  18.784   3.997
 2203W        W70421  40.432  24.486   4.160
 2204W        W70422  43.589  29.705  13.954
 2205W        W70423  36.147  34.333   2.750
 2206W        W70424  36.378  16.186   1.377
 2207W        W70425  37.021  41.961  11.521
 2208W        W70426  13.211  29.953  12.104
 2209W        W70427  34.565  44.556   3.721
 2210W        W70428   5.214  30.085   1.350
 2211W        W70429  26.379  17.219   4.351
 2212W        W70430  17.076  21.411  10.800
 2213W        W70431  33.134  32.387   4.558
 2214W        W70432  15.542  40.964  13.077
 2215W        W70433  37.245  31.621   3.442
 2216W        W70434  41.923  30.961   3.829
 2217W        W70435  12.492  27.251   0.887
 2218W        W70436  11.584   6.877   3.232
 2219W        W70437  31.515  34.041  11.585
 2220W        W70438  41.996  12.224   1.814
 2221W        W70439  13.677   4.443   3.546
 2222W        W70440  41.555  32.375  14.759
 2223W        W70441  13.679  36.620  11.524
 2224W        W70442  16.793  21.186   1.064
 2225W        W70443   1.019  40.228  12.004
 2226W        W70444  27.228   6.860  11.507
 2227W        W70445  30.446  33.340  12.966
 2228W        W70446  21.591   1.806   0.377
 2229W        W70447   2.279  33.502   4.049
 2230W        W70448  20.222   0.924   1.695
 2231W        W70449  41.464  41.573  10.620
 2232W        W70450  27.370  30.305  14.806
 2233W        W70451  23.549  31.922   2.805
 2234W        W70452  38.010  10.282   1.950
 2235W        W70453  12.034  43.781   1.316
 2236W        W70454  41.022  32.197   1.788
 2237W        W70455   8.802  19.306  14.982
 2238W        W70456   1.806  29.993  11.196
 2239W        W70457  27.448  23.183   3.646
 2240W        W70458  31.525  27.626  10.762
 2241W        W70459  30.009  38.631  10.745
 2242W        W70460   3.002  29.368  11.664
 2243W        W70461  37.011   4.295  13.527
 2244W        W70462  37.541  44.671  12.865
 2245W        W70463  40.316   3.137  14.445
 2246W        W70464  36.991  22.718  13.980
 2247W        W70465  23.427  27.997  14.868
 2248W        W70466  26.214  15.815  10.625
 2249W        W70467  17.818  35.020   4.586
 2250W        W70468  25.661  30.475  11.122
 2251W        W70469  24.265  30.336  14.347
 2252W        W70470  29.181  44.938   3.641
 2253W        W70471  25.523  34.977  10.423
 2254W        W70472  24.028  19.951  13.477
 2255W        W70473  42.606  32.517  12.213
 2256W        W70474  23.495   1.757   1.827
 2257W        W70475  24.192  35.426  14.871
 2258W        W70476  24.397  43.230  12.527
 2259W        W70477  26.504   8.833  10.813
 2260W        W70478  11.970  35.625   3.155
 2261W        W70479  18.262  37.439   3.669
 2262W        W70480  42.109   6.749  10.831
 2263W        W70481   2.314  13.506  12.086
 2264W        W70482   2.939  26.841   1.270
 2265W        W70483  40.364  22.433  12.307
 2266W        W70484  12.180  18.580  10.565
 2267W        W70485  31.621  41.263  14.965
 2268W        W70486  22.295  33.027   0.812
 2269W        W70487  44.448   7.302   1.800
 2270W        W70488  24.508  14.120  14.401
 2271W        W70489   7.884  25.483   1.385
 2272W        W70490   1.910  29.075  13.652
 2273W        W70491   2.779  20.484  13.850
 2274W        W70492   2.458  30.988   2.204
 2275W        W70493  25.701  16.830  13.336
 2276W        W70494  33.974  27.619  12.589
 2277W        W70495  37.842  40.754  10.955
 2278W        W70496  40.958  19.160   2.837
 2279W        W70497  32.126   6.259  14.384
 2280W        W70498   8.752  43.413  12.641
 2281W        W70499  16.122  44.547  14.908
 2282W        W70500  28.158  38.163   3.675
 2283W        W70501  23.663  23.225   1.814
 2284W        W70502  39.465  21.571  12.227
 2285W        W70503  18.509  19.034   0.621
 2286W        W70504  11.366  43.708  11.033
 2287W        W70505  12.085  31.693   2.315
 2288W        W70506  35.010  14.824  14.099
 2289W        W70507  38.495  16.368   3.268
 2290W        W70508  29.170   3.852  13.963
 2291W        W70509  20.186   7.705  10.795
 2292W        W70510  16.285   4.965  11.033
 2293W        W70511  23.932  16.565  12.803
 2294W        W70512  35.052  12.262  14.973
 2295W        W70513  18.232  21.620   2.209
 2296W        W70514  32.119  23.541  10.657
 2297W        W70515  18.500  41.522   1.890
 2298W        W70516   5.363  36.924   2.584
 2299W        W70517   4.189  11.782   2.324
 2300W        W70518  21.010  13.336   2.147
 2301W        W70519  18.601  11.762  11.121
 2302W        W70520  10.702  11.170   3.800
 2303W        W70521  26.788  11.694   0.389
 2304W        W70522   9.300   6.101  14.496
 2305W        W70523  34.928  40.128  14.721
 2306W        W70524  30.306  32.427   0.861
 2307W        W70525   9.179   1.463  10.570
 2308W        W70526  38.702   3.039  11.206
 2309W        W70527   1.565  25.190   1.846
 2310W        W70528   2.337  15.177   1.704
 2311W        W70529   6.299   6.181  13.091
 2312W        W70530  39.378  44.756   3.664
 2313W        W70531  21.308  32.153   1.857
 2314W        W70532   3.098  28.999  10.613
 2315W        W70533  25.254  30.445   4.719
 2316W        W70534  30.902  34.176  12.149
 2317W        W70535  36.882  20.259   0.189
 2318W        W70536  24.011  44.032  11.124
 2319W        W70537  38.257   1.455  11.069
 2320W        W70538  21.963  21.512   4.751
 2321W        W70539  18.373   4.625   3.537
 2322W        W70540   5.775  17.304   9.702
 2323W        W70541  11.825   6.354   3.244
 2324W        W70542  20.629  41.529   0.778
 2325W        W70543  34.228  18.002  14.917
 2326W        W70544  23.456  18.093  14.428
 2327W        W70545  19.965  11.811  11.404
 2328W        W70546  13.088  25.557  12.517
 2329W        W70547   3.906  34.972  10.937
 2330W        W70548  27.866  21.800   2.614
 2331W        W70549  26.925  11.140   4.242
 2332W        W70550  31.428  18.791  13.054
 2333W        W70551  17.086   1.301  14.433
 2334W        W70552  29.421  29.091   3.162
 2335W        W70553  36.072  11.161   0.803
 2336W        W70554  19.195  27.392  13.389
 2337W        W70555  24.666  16.537   1.847
 2338W        W70556   6.791  23.941  12.967
 2339W        W70557   4.048  42.471  13.573
 2340W        W70558   3.880  40.773  10.882
 2341W        W70559  35.391  43.854   2.701
 2342W        W70560  32.709  30.632   1.193
 2343W        W70561  18.680   0.797  10.763
 2344W        W70562  12.589   7.556   3.018
 2345W        W70563  16.532  43.937   5.493
 2346W        W70564   4.755   6.098  13.590
 2347W        W70565   2.493   3.194   2.359
 2348W        W70566  25.674  28.981   1.424
 2349W        W70567   5.338  30.869  11.562
 2350W        W70568   5.933  39.170   1.271
 2351W        W70569  36.200  30.345   4.095
 2352W        W70570  28.362   7.886   2.793
 2353W        W70571  42.290  20.831  12.550
 2354W        W70572  34.134  36.970   1.411
 2355W        W70573   5.780  44.896   0.844
 2356W        W70574  29.543   7.255  13.961
 2357W        W70575  11.156  42.236   1.251
 2358W        W70576  29.970   6.630  11.456
 2359W        W70577  29.000  38.345  14.345
 2360W        W70578  19.714  43.256   1.393
 2361W        W70579  37.561  27.620   0.028
 2362W        W70580  15.061  16.398   1.973
 2363W        W70581   0.303  32.346  12.494
 2364W        W70582   4.479  39.296  14.855
 2365W        W70583   0.007  42.480  14.883
 2366W        W70584  30.135  33.129  10.658
 2367W        W70585  36.418  19.526   2.365
 2368W        W70586   6.064   4.888   2.251
 2369W        W70587  27.339  19.714   4.115
 2370W        W70588  18.159   6.582   1.439
 2371W        W70589  36.810  24.753  13.026
 2372W        W70590  39.278  36.864  13.286
 2373W        W70591   0.227   2.175   2.301
 2374W        W70592   2.647   6.099   4.183
 2375W        W70593   0.315   9.116  12.996
 2376W        W70594  36.711  35.667  11.069
 2377W        W70595  40.352  35.095  11.302
 2378W        W70596  21.792   7.220  13.034
 2379W        W70597  33.769  24.570  11.464
 2380W        W70598  21.490  17.248  14.794
 2381W        W70599   2.412  20.883  11.208
 2382W        W70600  23.036  35.806   1.243
 2383W        W70601  21.530  36.501   4.773
 2384W        W70602  36.863  40.786  10.683
 2385W        W70603  32.878   9.326  10.825
 2386W        W70604  36.614   5.467  12.131
 2387W        W70605  38.742  22.925   1.052
 2388W        W70606  42.978  18.635   2.348
 2389W        W70607  10.300  40.775  12.593
 2390W        W70608  39.884  13.867  14.891
 2391W        W70609  39.831  30.939   3.949
 2392W        W70610  22.637  36.323   1.747
 2393W        W70611  34.680   2.953  11.044
 2394W        W70612  41.224  28.209  13.747
 2395W        W70613  16.256  41.875   1.486
 2396W        W70614  17.753   0.059   0.400
 2397W        W70615  15.173  33.324   3.205
 2398W        W70616  12.080  17.851   2.375
 2399W        W70617  16.342  42.429   3.670
 2400W        W70618  23.407  28.984   3.067
 2401W        W70619  11.195  35.450   4.522
 2402W        W70620  21.752   4.140   0.513
 2403W        W70621  44.712  14.841   2.755
 2404W        W70622  28.220  27.013  14.237
 2405W        W70623  16.603   4.189  13.651
 2406W        W70624  19.970  43.503  14.683
 2407W        W70625  28.618  39.949   2.366
 2408W        W70626  11.216  37.910   0.941
 2409W        W70627  14.663  34.361   1.328
 2410W        W70628  31.640  19.518  14.023
 2411W        W70629  17.730  29.062  13.793
 2412W        W70630  43.851  17.131  13.355
 2413W        W70631  41.994  28.096   1.001
 2414W        W70632   7.388  43.054  11.112
 2415W        W70633  32.209  29.631   3.110
 2416W        W70634  35.619  41.740   4.908
 2417W        W70635  38.382   6.097   4.860
 2418W        W70636  24.323  14.517   4.122
 2419W        W70637   4.783   8.804  12.894
 2420W        W70638  40.236   6.180   4.317
 2421W        W70639  17.838  30.691   3.704
 2422W        W70640   9.641  18.832  13.762
 2423W        W70641   9.653  30.411   3.880
 2424W        W70642  23.872  23.566   0.742
 2425W        W70643  26.409   9.871  14.555
 2426W        W70644  12.807  26.871  12.976
 2427W        W70645  39.820  34.562  14.739
 2428W        W70646   1.482  19.714   3.431
 2429W        W70647  40.923   4.935  11.467
 2430W        W70648  16.801  38.848   0.347
 2431W        W70649  22.950   3.775  14.497
 2432W        W70650  22.382  10.273   2.469
 2433W        W70651   9.392  19.999   5.429
 2434W        W70652  18.361   9.457   1.934
 2435W        W70653  27.113   3.933   4.601
 2436W        W70654  40.650  16.753  11.610
 2437W        W70655  22.142  42.752   0.015
 2438W        W70656  29.403  29.992  12.345
 2439W        W70657  43.594  24.105   2.345
 2440W        W70658   5.623  12.271   2.695
 2441W        W70659  37.439  29.117  13.007
 2442W        W70660  44.920   4.324  13.404
 2443W        W70661  11.721  44.846   4.903
 2444W        W70662   4.808  19.514   2.582
 2445W        W70663   9.211  17.085   0.851
 2446W        W70664  15.084   7.862  12.410
 2447W        W70665  35.449  33.200  11.616
 2448W        W70666  20.065   3.618   4.721
 2449W        W70667  42.295  40.712   0.782
 2450W        W70668  37.056  29.133   1.270
 2451W        W70669  42.651   3.344  11.246
 2452W        W70670  42.698  32.967  11.142
 2453W        W70671  16.844  35.650  10.704
 2454W        W70672  31.878   7.274  12.222
 2455W        W70673  40.553  27.049  14.489
 2456W        W70674  39.709  36.683  13.520
 2457W        W70675  43.295  16.093   3.724
 2458W        W70676  23.062  29.818  10.700
 2459W        W70677  30.366  26.589  13.389
 2460W        W70678  33.046  14.716   0.726
 2461W        W70679  34.114  43.428  13.110
 2462W        W70680  38.552   5.065   2.303
 2463W        W70681  27.525  44.732   0.179
 2464W        W70682  27.546  25.213   2.376
 2465W        W70683   5.719   5.280  12.034
 2466W        W70684  40.484  42.722   2.220
 2467W        W70685  37.535   0.777   1.691
 2468W        W70686   5.742  21.178   4.125
 2469W        W70687  11.802   8.842   4.611
 2470W        W70688  30.700  11.374   0.947
 2471W        W70689  37.311  16.048  10.761
 2472W        W70690   6.315  22.184  12.351
 2473W        W70691   5.329  15.512  11.041
 2474W        W70692  39.467  37.566  13.606
 2475W        W70693  34.894   3.333   4.161
 2476W        W70694  17.463   6.083   4.033
 2477W        W70695  41.237  43.449   3.258
 2478W        W70696  26.291   7.029   0.230
 2479W        W70697   6.923   5.879   1.589
 2480W        W70698  31.515  35.698   1.810
 2481W        W70699  23.258   8.636  12.188
 2482W        W70700  27.081  24.993  12.457
 2483W        W70701   5.361  10.722   1.860
 2484W        W70702  10.921  28.255   3.369
 2485W        W70703  33.880  33.521   2.321
 2486W        W70704  27.005   0.176  13.507
 2487W        W70705  11.981   9.573   4.651
 2488W        W70706  28.515  20.593  10.615
 2489W        W70707  39.021   9.134   4.495
 2490W        W70708   8.431  25.016   1.919
 2491W        W70709  18.964  17.861  12.551
 2492W        W70710   3.707  16.888   2.623
 2493W        W70711   9.664  13.330   4.689
 2494W        W70712  25.038  44.561  14.832
 2495W        W70713  43.286  11.404  14.944
 2496W        W70714  33.479  43.901  13.843
 2497W        W70715  10.294  22.694  12.364
 2498W        W70716  22.331  23.333   3.326
 2499W        W70717   7.850   5.704  10.805
 2500W        W70718   2.202   0.032   0.464
 2501W        W70719  41.954  23.886   2.690
 2502W        W70720  24.583  32.916   0.455
 2503W        W70721  31.153  20.130   2.939
 2504W        W70722  31.088  37.159  14.534
 2505W        W70723  12.333  17.346  12.013
 2506W        W70724   1.907   6.816  12.459
 2507W        W70725  31.075  12.607   2.687
 2508W        W70726   4.855  28.958   4.245
 2509W        W70727  30.644  14.385  10.717
 2510W        W70728   0.964  37.703   0.417
 2511W        W70729  25.097   0.932  13.834
 2512W        W70730  12.621   7.619  12.522
 2513W        W70731  32.729   5.790  13.511
 2514W        W70732  43.354  40.001   4.568
 2515W        W70733  42.936  23.476  11.119
 2516W        W70734  44.800  18.414  10.839
 2517W        W70735  22.192  18.332  14.445
 2518W        W70736  16.187  24.466   1.675
 2519W        W70737   8.009  34.534   2.618
 2520W        W70738  35.496  43.105   3.314
 2521W        W70739  24.253  35.728   4.610
 2522W        W70740  31.936  16.600  11.638
 2523W        W70741  14.233  18.281   4.682
 2524W        W70742  15.468  22.713  12.089
 2525W        W70743  10.282   9.737   4.882
 2526W        W70744   2.924  37.010  11.413
 2527W        W70745  32.124  29.156  12.861
 2528W        W70746  25.456  27.514  13.444
 2529W        W70747  40.335   5.877   1.678
 2530W        W70748   7.879  26.291  14.988
 2531W        W70749  44.285  20.495   4.577
 2532W        W70750  17.861   9.725   2.353
 2533W        W70751  37.142   5.508  10.676
 2534W        W70752  41.457  41.049  12.219
 2535W        W70753  16.472  19.249   2.374
 2536W        W70754   1.793  18.980  14.859
 2537W        W70755   0.659  37.880  10.499
 2538W        W70756   1.219   2.170  12.053
 2539W        W70757  26.974  41.085  14.294
 2540W        W70758  30.452  12.271  14.902
 2541W        W70759  42.003  35.541  14.522
 2542W        W70760   9.255  31.462  12.010
 2543W        W70761   5.147  30.975  13.016
 2544W        W70762  21.247  13.605  11.947
 2545W        W70763  19.637  43.710   0.391
 2546W        W70764  17.710  28.014  11.969
 2547W        W70765  32.115  44.445  13.237
 2548W        W70766   1.215   6.360  12.290
 2549W        W70767  25.447  11.065  13.404
 2550W        W70768  16.224  44.568   2.933
 2551W        W70769  19.661  23.512   3.941
 2552W        W70770  19.692   3.479  10.778
 2553W        W70771  20.068  21.480  11.626
 2554W        W70772  28.407  18.789  13.059
 2555W        W70773   5.984  34.378  14.995
 2556W        W70774  39.292   7.725  13.911
 2557W        W70775   9.492  27.666  12.070
 2558W        W70776  14.684  21.232   1.697
 2559W        W70777  12.107   4.004  10.779
 2560W        W70778   8.588  38.528   2.210
 2561W        W70779  31.146  20.281  10.760
 2562W        W70780   1.750   9.159   3.581
 2563W        W70781  44.432  12.779  11.122
 2564W        W70782  37.681  25.663   4.988
 2565W        W70783  39.022  36.424   1.194
 2566W        W70784   4.943  31.954   0.756
 2567W        W70785  37.992  43.220  13.545
 2568W        W70786  20.288  41.865   1.482
 2569W        W70787  32.607  10.758  14.771
 2570W        W70788  30.751   2.613  11.087
 2571W        W70789  19.777  28.974   0.738
 2572W        W70790  44.835  36.916  10.838
 2573W        W70791  12.774  17.070   3.680
 2574W        W70792  24.651  42.517   2.701
 2575W        W70793  14.150  37.870  12.974
 2576W        W70794  43.725  38.794  11.163
 2577W        W70795  23.775  13.599  14.475
 2578W        W70796   2.996   7.861  11.367
 2579W        W70797  22.574  31.432  14.030
 2580W        W70798  44.020  16.529  12.418
 2581W        W70799  43.077  36.012   3.236
 2582W        W70800  44.944  36.688  14.786
 2583W        W70801  42.674  41.526  10.223
 2584W        W70802  36.365  22.247  11.436
 2585W        W70803  12.535  18.562   2.216
 2586W        W70804  18.039  12.792   0.317
 2587W        W70805   6.662  16.051  13.374
 2588W        W70806  36.110  23.797  11.532
 2589W        W70807  17.121   2.926  13.435
 2590W        W70808   3.552  34.930  14.805
 2591W        W70809  38.748  35.416  13.537
 2592W        W70810  38.329  38.159  14.931
 2593W        W70811  38.598  22.193  12.949
 2594W        W70812  30.460   2.742   2.777
 2595W        W70813  19.590  26.972   4.326
 2596W        W70814   8.776   1.142  10.472
 2597W        W70815  41.034   8.466   3.150
 2598W        W70816  22.522  31.015   0.673
 2599W        W70817  12.765  37.349  12.897
 2600W        W70818  39.264  41.338  10.981
 2601W        W70819  36.295  29.179   1.689
 2602W        W70820  21.176  38.984  11.966
 2603W        W70821  43.252  29.459   2.608
 2604W        W70822   8.197  29.390   3.073
 2605W        W70823  32.027  35.098  14.981
 2606W        W70824  30.103  12.215  12.178
 2607W        W70825  30.424   0.402   1.310
 2608W        W70826  27.156  37.424   9.948
 2609W        W70827  14.482  15.854  10.587
 2610W        W70828   9.557  39.487  13.559
 2611W        W70829   3.207   1.429   1.337
 2612W        W70830  31.041  26.970  13.460
 2613W        W70831  31.230   1.017  13.005
 2614W        W70832  31.710  36.063  14.969
 2615W        W70833  23.137  25.984  12.482
 2616W        W70834  35.439  43.836  14.290
 2617W        W70835  33.546  27.506   4.427
 2618W        W70836  29.176  25.313  14.713
 2619W        W70837  38.141  18.838  10.169
 2620W        W70838  31.351  12.656  13.289
 2621W        W70839   4.860  38.064   1.870
 2622W        W70840  21.235  21.034   0.802
 2623W        W70841  44.003   8.168  11.494
 2624W        W70842  36.578  25.592   1.030
 2625W        W70843  43.013  28.117   1.915
 2626W        W70844  33.501  32.602   1.990
 2627W        W70845  16.329  38.429   1.688
 2628W        W70846   8.621  25.201  14.898
 2629W        W70847   3.758  27.319   4.479
 2630W        W70848  25.744  39.926  12.017
 2631W        W70849   9.372  36.931   1.173
 2632W        W70850   5.472  25.972  13.364
 2633W        W70851  39.877  27.419   3.090
 2634W        W70852  37.053  24.029  12.467
 2635W        W70853   4.401  10.848  12.646
 2636W        W70854  17.204   6.264   0.425
 2637W        W70855  39.519  36.064  14.604
 2638W        W70856   3.048  38.968  12.074
 2639W        W70857  42.953   0.746  13.585
 2640W        W70858   7.609  23.700  12.527
 2641W        W70859  13.174  38.955  10.601
 2642W        W70860  40.971  17.131  14.876
 2643W        W70861  34.126  32.639   2.721
 2644W        W70862   1.008  44.980  13.313
 2645W        W70863  41.029  20.490   3.705
 2646W        W70864  39.883  40.811  12.943
 2647W        W70865   0.316  27.233   2.546
 2648W        W70866  40.423  31.141   3.029
 2649W        W70867   4.606  29.136   0.504
 2650W        W70868  11.221   2.476  14.515
 2651W        W70869  19.124   2.748  12.386
 2652W        W70870  35.871  29.359  13.610
 2653W        W70871   0.456  18.570  14.544
 2654W        W70872  36.027  40.940   1.258
 2655W        W70873   2.933  18.327  13.333
 2656W        W70874   8.709  14.695   9.941
 2657W        W70875  25.526  16.228   3.637
 2658W        W70876  24.232  14.190   4.516
 2659W        W70877  34.777  23.044  11.517
 2660W        W70878  40.538   5.353  10.336
 2661W        W70879   0.489  17.688   3.177
 2662W        W70880   8.821  12.321  13.851
 2663W        W70881   0.826  14.905  11.855
 2664W        W70882  36.976  28.594  10.542
 2665W        W70883  34.458   0.480  14.888
 2666W        W70884  36.048  41.508   4.558
 2667W        W70885  28.679   3.513  12.011
 2668W        W70886  32.541  11.951  13.003
 2669W        W70887   1.310   2.547  12.861
 2670W        W70888  10.342  30.090   3.100
 2671W        W70889  32.996   7.119   1.862
 2672W        W70890  13.784  17.865   4.107
 2673W        W70891   3.687  23.447  11.809
 2674W        W70892  26.147  43.462  12.127
 2675W        W70893  44.275   1.207   2.801
 2676W        W70894  26.664   8.624   1.047
 2677W        W70895  16.824  18.094   0.444
 2678W        W70896  21.191   5.248   0.316
 2679W        W70897  35.839  20.532  13.463
 2680W        W70898  18.492  38.981   1.881
 2681W        W70899  16.897   8.014   1.815
 2682W        W70900  17.072   9.412   0.384
 2683W        W70901  35.379  34.613   3.445
 2684W        W70902  43.973  37.907  13.605
 2685W        W70903  44.882  35.425  13.229
 2686W        W70904  32.200  24.157   1.372
 2687W        W70905  12.546  14.251   0.526
 2688W        W70906  18.641   4.002  12.676
 2689W        W70907   1.845  33.584  12.749
 2690W        W70908  17.633  15.908  11.082
 2691W        W70909  42.185  36.117   5.122
 2692W        W70910   5.212  14.342   3.283
 2693W        W70911  22.557   2.874  14.182
 2694W        W70912  33.441  17.547  10.398
 2695W        W70913   2.348  42.414  14.109
 2696W        W70914  20.761   9.664   2.844
 2697W        W70915  37.317  12.110  11.184
 2698W        W70916  32.537  18.281   3.609
 2699W        W70917  43.446  37.436  10.992
 2700W        W70918  32.255   7.787  13.414
 2701W        W70919  14.676  16.695  11.339
 2702W        W70920  12.573  27.669   3.584
 2703W        W70921  14.276  42.065   5.028
 2704W        W70922  44.247   0.997  11.901
 2705W        W70923  14.052  34.139   0.315
 2706W        W70924  35.473   7.817   2.280
 2707W        W70925  33.511  28.602   5.339
 2708W        W70926  40.772  28.635  11.951
 2709W        W70927  43.861  14.504  11.186
 2710W        W70928  34.640  25.282   3.303
 2711W        W70929  27.945  19.269  12.858
 2712W        W70930  20.802  33.819   1.389
 2713W        W70931   1.901  42.487  13.856
 2714W        W70932   0.785  14.845   0.613
 2715W        W70933  20.573  29.603  13.306
 2716W        W70934  35.033   2.934   4.480
 2717W        W70935  32.415   6.655  12.444
 2718W        W70936  43.828  25.476  14.773
 2719W        W70937  19.012  29.775  11.133
 2720W        W70938  23.324  19.331  12.569
 2721W        W70939  36.043  39.200  11.029
 2722W        W70940  15.710  43.420   0.513
 2723W        W70941  44.018  30.903   3.291
 2724W        W70942  44.290  28.505   3.117
 2725W        W70943  11.686  38.772  14.338
 2726W        W70944   3.424  28.735   3.318
 2727W        W70945  27.735  11.815   3.373
 2728W        W70946  40.953  23.531   0.695
 2729W        W70947   8.697  28.940   3.625
 2730W        W70948  21.833  16.075  14.766
 2731W        W70949  43.662  34.568   2.843
 2732W        W70950  10.096  21.416   3.127
 2733W        W70951  27.545  38.499  13.908
 2734W        W70952  44.727  15.572  11.172
 2735W        W70953  25.048  25.932   4.038
 2736W        W70954  29.920  11.341  12.495
 2737W        W70955  17.801  39.720   4.854
 2738W        W70956  42.812  21.564   0.761
 2739W        W70957  41.037  11.158  13.549
 2740W        W70958  38.825  13.922  12.493
 2741W        W70959  31.956  19.780   1.337
 2742W        W70960  15.630  33.380   3.536
 2743W        W70961  22.595  16.743   1.575
 2744W        W70962   1.814  15.841  13.771
 2745W        W70963  33.764  27.547   2.744
 2746W        W70964   6.275  10.681   3.303
 2747W        W70965  17.224   0.497   4.527
 2748W        W70966   2.510  24.182   4.147
 2749W        W70967  36.908  39.935  10.441
 2750W        W70968  43.978  21.230   0.833
 2751W        W70969  10.114  31.505   3.184
 2752W        W70970  37.203  34.779   5.028
 2753W        W70971  38.449  32.751  13.636
 2754W        W70972  42.479  33.596   0.798
 2755W        W70973  39.011  33.628   3.097
 2756W        W70974  23.995  32.209  10.040
 2757W        W70975   9.726  44.241   1.668
 2758W        W70976  43.937  20.130   4.767
 2759W        W70977  23.254  23.491   3.303
 2760W        W70978  29.405  24.479  12.970
 2761W        W70979  39.573   4.401   0.032
 2762W        W70980   7.014  19.870   4.971
 2763W        W70981  15.128  15.795  14.395
 2764W        W70982   1.326  41.499  10.949
 2765W        W70983  14.031  25.406   1.384
 2766W        W70984  36.554  42.702  13.754
 2767W        W70985  20.839  34.851  13.108
 2768W        W70986  23.446  30.245  12.909
 2769W        W70987  16.181   3.457   3.616
 2770W        W70988   4.713  22.651   4.354
 2771W        W70989  36.670  19.085   2.452
 2772W        W70990  10.222   4.399  13.008
 2773W        W70991   5.228   2.160   3.249
 2774W        W70992  37.295  26.465   1.399
 2775W        W70993  11.155  40.391  12.430
 2776W        W70994  12.093   1.620   4.148
 2777W        W70995  31.467  14.026   3.163
 2778W        W70996  10.989  32.833   2.720
 2779W        W70997  39.297  29.904  12.629
 2780W        W70998  36.430  24.636   4.637
 2781W        W70999  12.567  27.466  13.445
 2782W        W71000  24.206  10.391  14.623
 2783W        W71001  24.730  23.007   0.799
 2784W        W71002  10.406  27.257  14.131
 2785W        W71003  38.062  43.001   3.404
 2786W        W71004  20.169  24.101   3.317
 2787W        W71005  11.167  43.264  12.885
 2788W        W71006   6.800  23.626   4.239
 2789W        W71007   8.619  30.817   0.721
 2790W        W71008  36.472  33.864   1.958
 2791W        W71009   9.252  34.984   0.306
 2792W        W71010  44.262  29.255   1.146
 2793W        W71011   1.111   2.074   1.023
 2794W        W71012   1.861  27.660   4.627
 2795W        W71013  19.744  21.640  13.046
 2796W        W71014  10.747  38.378  10.816
 2797W        W71015  39.028  28.537   3.309
 2798W        W71016  15.814  43.368   1.896
 2799W        W71017  10.662   1.772   3.497
 2800W        W71018  23.609  37.644  11.747
 2801W        W71019  13.735  25.766   1.168
 2802W        W71020  29.022  26.961   1.774
 2803W        W71021  44.371  27.981  12.911
 2804W        W71022  17.110  42.683   3.240
 2805W        W71023  42.162  14.084  13.509
 2806W        W71024  43.442  40.739   1.712
 2807W        W71025   6.698  44.085   2.887
 2808W        W71026  44.341  20.927  14.057
 2809W        W71027  41.722   6.279   4.099
 2810W        W71028  27.132  27.089   4.514
 2811W        W71029  29.081  42.966  14.753
 2812W        W71030  22.713  15.569   0.753
 2813W        W71031  12.843   6.923  11.743
 2814W        W71032   9.638  23.552   2.349
 2815W        W71033   6.523  41.560   0.191
 2816W        W71034   4.820  35.792   1.006
 2817W        W71035  25.696  18.589   2.300
 2818W        W71036  16.405  13.221  14.669
 2819W        W71037  19.315  37.036   0.927
 2820W        W71038   0.732   8.215  12.025
 2821W        W71039  24.197  44.922  12.064
 2822W        W71040  30.277  37.578  13.552
 2823W        W71041  17.592  15.289   2.404
 2824W        W71042  40.676  30.593   1.183
 2825W        W71043  14.309   0.234  14.434
 2826W        W71044  20.456  32.435  11.153
 2827W        W71045   5.902  19.433  14.624
 2828W        W71046  34.112  10.731  14.157
 2829W        W71047  26.035  19.216  14.349
 2830W        W71048   0.348  16.678   0.750
 2831W        W71049   6.947  34.544  14.410
 2832W        W71050  12.147  17.491  12.461
 2833W        W71051  26.724  30.011  12.096
 2834W        W71052  11.750  41.646   9.909
 2835W        W71053  32.875   4.363  12.064
 2836W        W71054   2.207  15.232   2.676
 2837W        W71055  38.580  37.413   4.088
 2838W        W71056  15.323   8.818   2.198
 2839W        W71057   7.045  13.786   3.675
 2840W        W71058  27.701  42.032   1.832
 2841W        W71059   1.513  27.038   3.998
 2842W        W71060  24.068  24.010   1.903
 2843W        W71061  27.714  18.176  13.961
 2844W        W71062  17.252  10.644   3.430
 2845W        W71063  19.294  40.234  12.783
 2846W        W71064  18.592   1.541  11.889
 2847W        W71065  41.271  13.347  11.821
 2848W        W71066  35.604  21.709   1.784
 2849W        W71067  10.658   7.790  14.383
 2850W        W71068  10.771   8.126   1.226
 2851W        W71069  19.011  23.162   3.197
 2852W        W71070   3.881   7.649  12.412
 2853W        W71071  38.953  27.525   2.258
 2854W        W71072  23.754  23.130   4.106
 2855W        W71073  15.630  27.474  14.952
 2856W        W71074  21.158  25.029   0.287
 2857W        W71075  32.413  18.390  13.085
 2858W        W71076  13.068  12.250   3.212
 2859W        W71077  27.165  22.732   1.862
 2860W        W71078  30.501  28.082   2.643
 2861W        W71079  21.036  23.934  11.977
 2862W        W71080  11.023  39.330  12.414
 2863W        W71081   0.209  28.627  11.560
 2864W        W71082  10.822  44.262  11.041
 2865W        W71083  15.599  35.287  13.316
 2866W        W71084  11.475  29.277  14.386
 2867W        W71085   8.740  38.883   4.073
 2868W        W71086  31.100  26.625   2.702
 2869W        W71087  43.277   1.238   2.850
 2870W        W71088  12.868  19.600   3.252
 2871W        W71089  38.093  23.752   3.295
 2872W        W71090   9.344  38.607  14.339
 2873W        W71091   4.980  11.193   3.254
 2874W        W71092   1.579   3.341   1.296
 2875W        W71093   7.052   6.532   1.366
 2876W        W71094  29.940  36.661  13.563
 2877W        W71095  36.087  25.665   3.337
 2878W        W71096  21.048  34.519  11.673
 2879W        W71097  30.844  24.081  11.539
 2880W        W71098   7.707  32.158  12.046
 2881W        W71099  42.993  18.082   3.213
 2882W        W71100   6.652   9.176  13.424
 2883W        W71101  26.428   8.800   4.749
 2884W        W71102  10.707  29.979   0.723
 2885W        W71103  12.228  24.696  13.382
 2886W        W71104   8.779  26.508  12.997
 2887W        W71105  44.283  40.509  13.025
 2888W        W71106  37.534  44.323  14.035
 2889W        W71107  41.369  26.302   2.764
 2890W        W71108   3.921  17.672  11.977
 2891W        W71109  14.599   3.908  11.940
 2892W        W71110  24.242  24.716   0.651
 2893W        W71111  16.363  36.269  11.630
 2894W        W71112  37.355  44.887  10.873
 2895W        W71113  10.661   7.717   4.789
 2896W        W71114   1.577   6.779   0.234
 2897W        W71115  21.544  35.118   4.076
 2898W        W71116  17.310  36.940   1.316
 2899W        W71117  39.318  16.709   4.538
 2900W        W71118  31.779   1.219   4.494
 2901W        W71119  15.997  35.407   3.397
 2902W        W71120   0.340  22.483   4.620
 2903W        W71121  21.020  32.865  10.195
 2904W        W71122  39.500  36.704   1.022
 2905W        W71123  36.519  36.276  10.447
 2906W        W71124  22.802  24.554   3.656
 2907W        W71125  27.240  44.461  14.258
 2908W        W71126  24.941  39.104   1.183
 2909W        W71127  36.087   6.810   2.239
 2910W        W71128   4.629  37.338   2.905
 2911W        W71129  15.606  35.703  12.527
 2912W        W71130  34.389   1.446   1.934
 2913W        W71131   7.499  41.078   2.857
 2914W        W71132  19.623  38.954  13.867
 2915W        W71133  21.978   9.950   4.115
 2916W        W71134   2.701  42.328  13.449
 2917W        W71135  42.904   8.080   0.023
 2918W        W71136  28.180  32.933   2.197
 2919W        W71137   0.191  12.437   0.365
 2920W        W71138   1.248   1.469   0.366
 2921W        W71139  30.466  21.623   3.343
 2922W        W71140  21.895  20.046  11.121
 2923W        W71141  44.413  23.885   9.838
 2924W        W71142  20.062  18.736   3.466
 2925W        W71143  14.894  21.947   3.433
 2926W        W71144  44.234  21.948  11.126
 2927W        W71145  26.017  38.311   4.623
 2928W        W71146  35.541   9.278  12.184
 2929W        W71147  26.944  31.406   2.474
 2930W        W71148  37.323  22.074  11.196
 2931W        W71149  19.276  19.762  11.886
 2932W        W71150  38.303  32.900  11.088
 2933W        W71151  35.237   9.065  10.236
 2934W        W71152  23.081  34.927  13.569
 2935W        W71153   8.981  13.674  13.541
 2936W        W71154  17.101  44.048   2.662
 2937W        W71155  23.627   2.509  14.471
 2938W        W71156  36.841  42.497   1.386
 2939W        W71157  40.779   2.916  11.680
 2940W        W71158   2.842  31.129  12.392
 2941W        W71159  25.420  14.960   4.570
 2942W        W71160  37.067   9.613   1.313
 2943W        W71161   8.019  30.864   0.206
 2944W        W71162  23.793  34.115   1.663
 2945W        W71163  25.974   4.439  12.550
 2946W        W71164  12.136  22.574  12.061
 2947W        W71165  34.548  24.445   2.955
 2948W        W71166   1.399  24.340   2.291
 2949W        W71167  17.965  20.305   0.450
 2950W        W71168  21.341  40.462  14.930
 2951W        W71169   6.817  10.394  11.175
 2952W        W71170  16.126  13.699  10.698
 2953W        W71171  27.761   9.639  11.100
 2954W        W71172  30.330  19.104   3.516
 2955W        W71173  13.381   0.919   4.010
 2956W        W71174  31.513  44.775   0.796
 2957W        W71175  18.585  10.876  14.326
 2958W        W71176  30.549  38.942  11.391
 2959W        W71177   3.996  41.943  12.921
 2960W        W71178   5.786  34.883  12.815
 2961W        W71179   2.532  38.857   1.304
 2962W        W71180  22.491  35.875  11.131
 2963W        W71181   6.309  29.874  11.868
 2964W        W71182  21.497   3.474  11.937
 2965W        W71183   7.868  11.133  11.578
 2966W        W71184  13.436  41.898  11.531
 2967W        W71185  40.920  18.153   4.252
 2968W        W71186   5.521  43.310   4.212
 2969W        W71187  44.997  18.505   5.267
 2970W        W71188  11.513   1.300  10.376
 2971W        W71189  44.785  36.614  11.248
 2972W        W71190  35.106  32.946   2.221
 2973W        W71191  17.316   2.462   3.657
 2974W        W71192  21.442  20.610  12.906
 2975W        W71193  31.567  23.930  14.035
 2976W        W71194   9.411  23.654  13.381
 2977W        W71195   2.266  28.674   0.859
 2978W        W71196   6.166  37.863   0.827
 2979W        W71197  32.160  33.211   9.695
 2980W        W71198  34.329  24.684   1.515
 2981W        W71199  29.565  33.666   4.080
 2982W        W71200  17.204   3.735   0.186
 2983W        W71201  24.490  17.801  10.748
 2984W        W71202  21.510   2.484  14.753
 2985W        W71203  31.628  26.574  14.004
 2986W        W71204  26.544  44.086  13.010
 2987W        W71205   1.661  21.768  12.439
 2988W        W71206  28.614  29.511  11.167
 2989W        W71207  37.867  25.761   0.963
 2990W        W71208  30.045   8.241   3.214
 2991W        W71209  28.999  31.931  14.371
 2992W        W71210  22.732   8.673   4.550
 2993W        W71211  34.426   3.388   2.827
 2994W        W71212  42.366  42.222   2.732
 2995W        W71213  25.755   3.338   3.378
 2996W        W71214  12.023  28.081   3.403
 2997W        W71215  27.980  28.415  14.087
 2998W        W71216   3.830  26.050  11.638
 2999W        W71217   8.417  41.140   0.988
 3000W        W71218   1.183   9.898  13.964
 3001W        W71219  25.940   4.614  13.892
 3002W        W71220   2.474   3.726   3.319
 3003W        W71221   5.776  20.746  12.644
 3004W        W71222   9.917  12.983   1.246
 3005W        W71223   1.179  21.726  12.623
 3006W        W71224  14.621   5.437  13.419
 3007W        W71225  31.196  31.414   3.390
 3008W        W71226  31.211  27.926  11.565
 3009W        W71227  14.203   0.878  11.241
 3010W        W71228  27.075  22.727   4.188
 3011W        W71229  18.126   0.292   4.693
 3012W        W71230  20.058  18.739   2.317
 3013W        W71231  40.537  40.727  10.678
 3014W        W71232   9.354  24.350  13.000
 3015W        W71233   6.185  27.899  14.387
 3016W        W71234  40.693  10.217   2.327
 3017W        W71235  36.382  18.733   2.779
 3018W        W71236   0.751  37.069   3.073
 3019W        W71237  26.612  14.441  13.444
 3020W        W71238  11.735  42.955   2.814
 3021W        W71239  20.226   6.897  14.753
 3022W        W71240  24.293  21.067  12.603
 3023W        W71241   9.187  30.585   3.638
 3024W        W71242   5.234   0.802   4.403
 3025W        W71243  36.001  14.036   4.828
 3026W        W71244   8.892  42.839  14.010
 3027W        W71245  19.179  33.539  14.895
 3028W        W71246  42.713   9.284   2.375
 3029W        W71247  21.751   9.331  12.512
 3030W        W71248  28.869  23.750  13.068
 3031W        W71249  17.212  36.035  14.812
 3032W        W71250  11.422  11.069  12.367
 3033W        W71251  27.388  39.552  10.779
 3034W        W71252  30.711  22.636  13.892
 3035W        W71253  37.117  36.394   1.765
 3036W        W71254  20.280  30.437   2.321
 3037W        W71255   9.813   5.896  14.403
 3038W        W71256  18.380  32.598   0.397
 3039W        W71257   8.304  35.022  13.476
 3040W        W71258   5.219   6.208  12.523
 3041W        W71259  31.365  33.457  12.372
 3042W        W71260  34.751  43.990  12.473
 3043W        W71261  34.557   3.761  10.724
 3044W        W71262  34.715   2.380  14.088
 3045W        W71263  28.084  35.367  10.656
 3046W        W71264  34.843   9.786  14.335
 3047W        W71265  38.961  40.975   0.538
 3048W        W71266  15.345  38.362  13.386
 3049W        W71267  36.360  39.504  14.698
 3050W        W71268  23.019  20.375  14.463
 3051W        W71269  35.019  39.400   1.353
 3052W        W71270   8.505  33.125  14.436
 3053W        W71271  32.364  33.387   3.619
 3054W        W71272  22.972  13.810   4.564
 3055W        W71273  31.798   5.699  12.109
 3056W        W71274   7.560  32.163  14.281
 3057W        W71275   5.262  19.217  12.993
 3058W        W71276  11.162   0.371  12.602
 3059W        W71277  13.818  35.520  13.826
 3060W        W71278  15.663  30.609   0.475
 3061W        W71279  39.964  37.865   2.400
 3062W        W71280  37.116  23.556  10.682
 3063W        W71281  39.510  17.760   0.938
 3064W        W71282  43.755  22.679   3.650
 3065W        W71283  33.119  20.946   2.064
 3066W        W71284  13.545  22.131   3.721
 3067W        W71285   5.726  17.012   2.770
 3068W        W71286  36.929  32.409   4.067
 3069W        W71287  23.186  25.156  13.556
 3070W        W71288  15.892  26.616   2.232
 3071W        W71289  34.659   3.149   0.309
 3072W        W71290  20.312   0.281   2.958
 3073W        W71291  36.203  19.684  14.317
 3074W        W71292   3.335  18.017  13.459
 3075W        W71293  22.406  36.663   3.279
 3076W        W71294  12.679   4.337  13.048
 3077W        W71295  12.185  15.028  13.109
 3078W        W71296  20.828  38.615  13.478
 3079W        W71297  23.691  29.015   2.097
 3080W        W71298  13.752   1.507  11.645
 3081W        W71299  31.559   2.664   2.589
 3082W        W71300  10.878  37.404  10.387
 3083W        W71301  42.834  42.349  13.955
 3084W        W71302   2.071  16.962   0.222
 3085W        W71303  42.771  38.069   3.321
 3086W        W71304  36.906  43.460   4.905
 3087W        W71305  19.142  19.016   4.381
 3088W        W71306  12.263  23.939  13.908
 3089W        W71307  36.389  20.608   2.858
 3090W        W71308   6.497   0.516   0.516
 3091W        W71309  33.543  27.438   3.646
 3092W        W71310  22.759  21.199  12.479
 3093W        W71311  28.666  29.448   4.017
 3094W        W71312   9.400  24.971  11.657
 3095W        W71313  20.368  14.163   0.728
 3096W        W71314  42.818  17.021  14.486
 3097W        W71315   5.801   1.712  13.814
 3098W        W71316  40.416  29.719   4.781
 3099W        W71317  39.359  24.447  11.934
 3100W        W71318  10.701  24.014  13.790
 3101W        W71319  20.994  24.242   1.934
 3102W        W71320   8.710  30.613   4.594
 3103W        W71321  24.825  44.419   3.210
 3104W        W71322   0.363  23.120  13.547
 3105W        W71323  34.367  27.900  12.043
 3106W        W71324  23.722  26.102  10.975
 3107W        W71325  17.109  25.222   3.254
 3108W        W71326  44.076  21.075  13.254
 3109W        W71327  17.268   7.218  13.309
 3110W        W71328   0.336  25.991   0.303
 3111W        W71329  23.798   9.489  14.287
 3112W        W71330   9.010  11.528   4.528
 3113W        W71331   3.898   9.185  11.807
 3114W        W71332  44.756  28.606   0.445
 3115W        W71333  11.634  41.593   3.600
 3116W        W71334   4.274  38.611   1.015
 3117W        W71335  44.283   6.463   0.803
 3118W        W71336   9.338  19.567   4.173
 3119W        W71337  26.142  12.157  10.834
 3120W        W71338  27.688  33.092   2.310
 3121W        W71339  10.765  21.693  11.223
 3122W        W71340   2.858  34.535  10.751
 3123W        W71341  33.116  41.021  11.834
 3124W        W71342   1.187  36.659   3.782
 3125W        W71343  36.181  28.930  12.478
 3126W        W71344   4.750  19.473   4.985
 3127W        W71345  42.767  29.790   0.924
 3128W        W71346  22.209  18.273   3.219
 3129W        W71347  22.854  17.130   1.798
 3130W        W71348  43.741  41.017   0.972
 3131W        W71349  14.092  32.087  10.660
 3132W        W71350   1.907  16.935   5.005
 3133W        W71351  25.621   8.430  13.317
 3134W        W71352   7.927  23.916   3.846
 3135W        W71353  19.807  16.876  11.845
 3136W        W71354  44.356   3.211  11.184
 3137W        W71355  31.379   8.353  13.461
 3138W        W71356  14.811  10.817  13.036
 3139W        W71357  39.963  19.814  13.925
 3140W        W71358  29.565  20.584   4.196
 3141W        W71359  22.199  23.750   4.422
 3142W        W71360  34.437   1.003  11.169
 3143W        W71361  16.495  13.630   1.849
 3144W        W71362   5.997  42.670  11.866
 3145W        W71363  12.101   3.771   1.333
 3146W        W71364  40.919   1.987  11.248
 3147W        W71365  10.575  37.995  11.110
 3148W        W71366  21.060   6.745   2.377
 3149W        W71367  12.890  23.738   3.731
 3150W        W71368  39.219  40.410  14.876
 3151W        W71369  40.918  27.661   1.869
 3152W        W71370   3.758  43.345   0.196
 3153W        W71371   7.160  11.631  13.222
 3154W        W71372  21.232  20.811   2.684
 3155W        W71373  35.935  44.419  11.696
 3156W        W71374   2.407  32.156  11.109
 3157W        W71375  31.592   3.716   2.220
 3158W        W71376  23.601  31.128   3.382
 3159W        W71377   5.418  13.110   1.741
 3160W        W71378   3.133  17.115   3.770
 3161W        W71379  25.770  16.974   0.424
 3162W        W71380  10.402  33.477   3.827
 3163W        W71381  21.626  15.239   3.625
 3164W        W71382  33.523  27.751   4.901
 3165W        W71383  29.547  30.493  12.521
 3166W        W71384   1.085  38.931   3.268
 3167W        W71385  22.656  30.433  12.502
 3168W        W71386  22.554  13.548  11.586
 3169W        W71387   6.921  42.395   2.252
 3170W        W71388  15.723  29.065   0.513
 3171W        W71389  26.051   1.784   1.994
 3172W        W71390   3.216  40.741  11.572
 3173W        W71391   3.502   6.389  11.693
 3174W        W71392  14.159  26.569  12.589
 3175W        W71393  27.477   5.061  14.516
 3176W        W71394  27.132  32.484   0.983
 3177W        W71395  22.521  21.265  13.857
 3178W        W71396  40.492  41.834  10.478
 3179W        W71397   9.705  22.625   2.951
 3180W        W71398  32.869  30.697  10.994
 3181W        W71399  22.867  12.086  14.497
 3182W        W71400  42.442  20.559   2.164
 3183W        W71401  38.818  11.509  12.551
 3184W        W71402  31.670  44.411   2.711
 3185W        W71403   6.123  36.156  11.603
 3186W        W71404   9.194  41.824  13.259
 3187W        W71405  21.190   2.392   1.226
 3188W        W71406  27.649  11.089   4.703
 3189W        W71407  36.589  35.764  10.355
 3190W        W71408  27.669   5.208   2.301
 3191W        W71409  38.477  29.147  11.261
 3192W        W71410  32.379  33.505   4.536
 3193W        W71411  19.520  12.410  14.315
 3194W        W71412  35.138  18.951   2.482
 3195W        W71413   5.578  15.677  14.798
 3196W        W71414  15.920  16.367  14.892
 3197W        W71415  16.835  36.089  11.609
 3198W        W71416  22.646  38.581  13.053
 3199W        W71417   8.775  10.282   4.660
 3200W        W71418  27.009  25.419  12.118
 3201W        W71419  19.289  23.730   4.221
 3202W        W71420  28.978  20.290   2.290
 3203W        W71421  41.837  39.062  13.572
 3204W        W71422  29.103  23.016   9.777
 3205W        W71423  18.244  20.726   3.578
 3206W        W71424  17.289  23.228  11.138
 3207W        W71425  38.595   1.174   0.954
 3208W        W71426  31.892  39.850  14.274
 3209W        W71427   5.287  37.898  13.689
 3210W        W71428  43.933  17.558  12.356
 3211W        W71429   9.552   7.083   1.640
 3212W        W71430  42.848  44.176  11.619
 3213W        W71431  37.839  16.835  14.872
 3214W        W71432  11.916  17.674  12.011
 3215W        W71433  20.070  35.488   1.852
 3216W        W71434  21.137  36.997  10.824
 3217W        W71435   0.013   3.026  13.699
 3218W        W71436  22.661   7.256  10.763
 3219W        W71437  23.310  44.237   4.726
 3220W        W71438  21.722  25.401  10.642
 3221W        W71439  31.984   2.551  12.399
 3222W        W71440  15.838  23.025   2.348
 3223W        W71441  37.042  40.095   3.067
 3224W        W71442   1.480   4.459  12.844
 3225W        W71443  41.332  44.752  14.025
 3226W        W71444   4.043   2.843   1.850
 3227W        W71445  25.074  43.910  11.477
 3228W        W71446  29.126   7.754  13.009
 3229W        W71447  10.656  36.361   3.201
 3230W        W71448  23.685  12.786   4.407
 3231W        W71449  27.562  39.800   0.075
 3232W        W71450  31.330  16.267  14.781
 3233W        W71451   5.786  32.707   1.658
 3234W        W71452  32.956  27.547  12.410
 3235W        W71453  37.446  40.431   4.601
 3236W        W71454  11.196  31.949  12.000
 3237W        W71455   1.980  14.746   1.820
 3238W        W71456  29.571  29.364   3.615
 3239W        W71457   2.212  32.282   3.706
 3240W        W71458  26.712   3.687   0.369
 3241W        W71459  21.657  21.734   0.972
 3242W        W71460  23.564  20.590  10.681
 3243W        W71461   1.365  37.731   1.168
 3244W        W71462  42.781  39.369   4.086
 3245W        W71463  40.542  28.079  14.762
 3246W        W71464  22.816  18.638  13.378
 3247W        W71465   8.887  29.394   3.793
 3248W        W71466  23.271  41.388  14.286
 3249W        W71467  21.276  42.544   0.424
 3250W        W71468  36.479   8.639   4.618
 3251W        W71469  23.685  22.501  14.599
 3252W        W71470  16.689  15.524  12.548
 3253W        W71471  26.500  30.056   4.919
 3254W        W71472  39.926  31.150  13.987
 3255W        W71473   3.220  33.875  12.228
 3256W        W71474  23.505  10.371   2.464
 3257W        W71475  20.306  40.479  14.562
 3258W        W71476   6.842  36.555   3.734
 3259W        W71477   5.354  35.486   3.307
 3260W        W71478   2.034  39.350   2.385
 3261W        W71479  41.210   0.989  14.327
 3262W        W71480  37.415  28.082   1.265
 3263W        W71481  13.472  21.531   1.820
 3264W        W71482  30.062  32.391  11.399
 3265W        W71483  28.201  12.921   1.400
 3266W        W71484  31.988  42.349   4.895
 3267W        W71485  26.681   4.961  11.360
 3268W        W71486  29.486  23.890   1.171
 3269W        W71487  38.997  38.493   0.796
 3270W        W71488   4.348  13.954  12.913
 3271W        W71489  13.677  16.737  11.464
 3272W        W71490  26.358  42.255   0.285
 3273W        W71491  24.171   6.384   3.756
 3274W        W71492  39.466  40.065   1.489
 3275W        W71493   0.484   5.271  14.919
 3276W        W71494  30.069  21.808   0.819
 3277W        W71495  23.010  39.781  13.061
 3278W        W71496   5.689   5.295  13.904
 3279W        W71497   8.443  37.347   1.728
 3280W        W71498   3.360  12.332  13.585
 3281W        W71499  38.719  10.416   4.084
 3282W        W71500   0.541  25.961  11.565
 3283W        W71501  26.976  19.161  13.168
 3284W        W71502  34.589  19.756   3.385
 3285W        W71503  18.306   0.396   1.844
 3286W        W71504  11.674  35.741   3.627
 3287W        W71505  22.282  21.408  10.972
 3288W        W71506  41.877   2.949  11.446
 3289W        W71507  31.108   1.817  11.476
 3290W        W71508  40.179  39.398   5.045
 3291W        W71509   6.687   6.167   4.634
 3292W        W71510  24.484  17.685   4.107
 3293W        W71511   8.288  10.151  14.723
 3294W        W71512  28.492   5.694  12.516
 3295W        W71513  41.026  40.579  10.619
 3296W        W71514  40.104   8.402  12.020
 3297W        W71515  29.662   9.938   1.440
 3298W        W71516  28.240  14.472  11.170
 3299W        W71517  29.172  25.740  12.566
 3300W        W71518  15.486   5.412  11.112
 3301W        W71519  26.671  28.557  11.141
 3302W        W71520  17.259  29.526   3.615
 3303W        W71521  26.978   8.967   1.314
 3304W        W71522  38.968   5.480   0.826
 3305W        W71523  18.171  18.781  11.910
 3306W        W71524  17.016  12.180  13.874
 3307W        W71525  25.568  27.370   0.209
 3308W        W71526  30.120  39.829   0.024
 3309W        W71527  19.083  39.814  13.006
 3310W        W71528  44.234   6.486  13.583
 3311W        W71529  26.905  41.121  11.668
 3312W        W71530  34.440  31.974   4.511
 3313W        W71531  21.442   7.297   4.473
 3314W        W71532  39.114  35.839   1.913
 3315W        W71533  30.835  16.343  13.949
 3316W        W71534  24.458  39.429  12.112
 3317W        W71535  32.591  10.853   0.744
 3318W        W71536   0.411   5.468   2.655
 3319W        W71537  16.389   5.316   0.356
 3320W        W71538  41.685  36.856  12.486
 3321W        W71539  12.660  19.751  12.470
 3322W        W71540  20.034  37.968   4.301
 3323W        W71541  11.373  29.628  10.797
 3324W        W71542  32.631   2.218  13.444
 3325W        W71543  40.842  44.914  14.040
 3326W        W71544  33.330  12.129  13.438
 3327W        W71545   0.166  15.292   3.373
 3328W        W71546   1.388  17.983   1.459
 3329W        W71547  12.148  31.865   4.339
 3330W        W71548  36.977  44.954   2.830
 3331W        W71549   2.744  38.538   2.315
 3332W        W71550   0.194  11.220   4.000
 3333W        W71551  11.321  27.924   2.689
 3334W        W71552  10.784  18.895  12.740
 3335W        W71553  43.520   3.731   1.742
 3336W        W71554  40.940  30.519   4.641
 3337W        W71555   1.537  41.935  11.108
 3338W        W71556  30.396  32.940   0.769
 3339W        W71557   7.563   2.897   2.809
 3340W        W71558  24.837  15.611   4.520
 3341W        W71559  27.470   1.871  10.762
 3342W        W71560  39.872  38.645   4.490
 3343W        W71561  25.119  11.134   3.714
 3344W        W71562  15.867  34.091   3.616
 3345W        W71563  16.858  41.402   1.751
 3346W        W71564   4.410  16.427   1.766
 3347W        W71565  13.356  12.274   3.619
 3348W        W71566  33.143   1.799  11.065
 3349W        W71567  26.580  44.907  13.345
 3350W        W71568  17.552  14.933  14.382
 3351W        W71569  36.850  14.328   0.809
 3352W        W71570  20.442  19.276  11.694
 3353W        W71571   1.789  32.571   3.834
 3354W        W71572  16.748  27.515   1.739
 3355W        W71573   7.761  22.043  10.623
 3356W        W71574  26.977  33.832   0.462
 3357W        W71575  16.586  13.123  12.565
 3358W        W71576  39.841  33.056   4.551
 3359W        W71577  29.512  34.112   0.729
 3360W        W71578  29.388  27.915   4.325
 3361W        W71579  29.418  26.820   4.219
 3362W        W71580   6.080  12.538  11.199
 3363W        W71581   3.724   6.159  13.359
 3364W        W71582  17.350   2.430   0.253
 3365W        W71583  31.642  28.519  11.755
 3366W        W71584  30.953  14.698   5.466
 3367W        W71585  18.166  11.533   0.830
 3368W        W71586  44.417  10.172   3.589
 3369W        W71587   0.532   5.936  14.316
 3370W        W71588  18.171  14.560  12.841
 3371W        W71589  44.367  39.418  13.827
 3372W        W71590  34.541  17.764  13.641
 3373W        W71591  27.214  29.209   1.371
 3374W        W71592   1.889   3.959   4.086
 3375W        W71593  16.323  10.405  12.125
 3376W        W71594  42.333  27.712   0.907
 3377W        W71595  37.559  26.726   1.044
 3378W        W71596  42.352  23.679  12.901
 3379W        W71597   5.962  16.414  11.510
 3380W        W71598  13.470  28.655  11.062
 3381W        W71599  15.945  33.535  10.194
 3382W        W71600  17.332  41.511   0.660
 3383W        W71601  34.944  17.679   3.830
 3384W        W71602  33.880  32.099  14.807
 3385W        W71603  17.744  21.996   3.740
 3386W        W71604   2.249  28.528  10.718
 3387W        W71605  40.998  28.953   2.606
 3388W        W71606   6.071   0.021   1.293
 3389W        W71607  26.645  22.115  10.790
 3390W        W71608  30.392  19.590  10.814
 3391W        W71609  14.194  24.446   2.315
 3392W        W71610   2.679  25.110  14.378
 3393W        W71611  38.607  30.630  14.361
 3394W        W71612  24.680  44.332   4.549
 3395W        W71613  19.542  11.942   1.809
 3396W        W71614   4.992  23.873  11.194
 3397W        W71615   7.892  17.207   4.102
 3398W        W71616  23.772  23.091  14.295
 3399W        W71617  42.474  23.141   2.829
 3400W        W71618  44.867   4.174   2.219
 3401W        W71619  25.459  18.105  14.419
 3402W        W71620  35.554  16.998   1.287
 3403W        W71621   1.614  44.288   0.490
 3404W        W71622  28.095   2.320   4.577
 3405W        W71623  10.829  16.782  14.069
 3406W        W71624  12.263  28.485  13.889
 3407W        W71625   8.854  19.341  10.753
 3408W        W71626  17.309  26.632  13.935
 3409W        W71627  13.676   9.683  13.853
 3410W        W71628  27.179   6.833  12.928
 3411W        W71629  10.266  12.264  12.108
 3412W        W71630  27.901  41.585  12.365
 3413W        W71631  21.577  34.571   4.026
 3414W        W71632   9.880  26.660   4.207
 3415W        W71633   5.370  34.604   3.835
 3416W        W71634  37.612  29.062  13.526
 3417W        W71635  25.364  34.368  11.131
 3418W        W71636  15.340  11.541  12.963
 3419W        W71637  25.072  29.427   3.668
 3420W        W71638   1.012  26.960   1.612
 3421W        W71639  43.821  12.769  14.297
 3422W        W71640  32.660  26.155   0.585
 3423W        W71641  27.661  19.802   4.546
 3424W        W71642  29.574   1.298  14.471
 3425W        W71643   0.512  22.316   2.244
 3426W        W71644  34.693  13.604   2.409
 3427W        W71645  34.909   7.621  11.462
 3428W        W71646  43.269  11.597   4.267
 3429W        W71647  37.869  36.122   1.229
 3430W        W71648  40.058  30.567   3.707
 3431W        W71649   2.978  10.364   3.224
 3432W        W71650  15.725  21.685  12.973
 3433W        W71651  37.304  27.110  14.349
 3434W        W71652  38.212  34.576  14.408
 3435W        W71653  32.816  14.969   0.340
 3436W        W71654   7.926   6.283  12.409
 3437W        W71655  36.853   8.681   1.407
 3438W        W71656  16.796   6.313   4.601
 3439W        W71657  42.090  34.536  13.482
 3440W        W71658  24.556  39.324   3.866
 3441W        W71659  13.854  36.795  14.876
 3442W        W71660  31.058  12.367  11.219
 3443W        W71661  13.375  36.017   3.208
 3444W        W71662  27.448   9.752   1.543
 3445W        W71663  30.460  30.452  10.933
 3446W        W71664  30.183  13.725   1.676
 3447W        W71665   1.234  15.550   1.800
 3448W        W71666   4.834  44.884  13.304
 3449W        W71667  10.691   9.188   4.249
 3450W        W71668  30.106  14.753   3.036
 3451W        W71669  14.206  17.150   1.302
 3452W        W71670  30.192  44.700   3.829
 3453W        W71671   9.836  43.923   0.208
 3454W        W71672  13.885  37.304  14.801
 3455W        W71673   0.021  36.433  11.658
 3456W        W71674  42.555  20.332  11.628
 3457W        W71675  39.877   9.242   4.600
 3458W        W71676  24.218  43.325  11.806
 3459W        W71677  43.716  17.655   2.668
 3460W        W71678  12.645  14.861  13.815
 3461W        W71679  26.003  35.100   1.621
 3462W        W71680  26.568  33.234  11.844
 3463W        W71681  34.934  34.710  11.138
 3464W        W71682  21.777  17.046  13.461
 3465W        W71683  15.189  13.070  11.960
 3466W        W71684  33.050  18.667  11.281
 3467W        W71685  17.558  37.133  11.618
 3468W        W71686  28.697  40.058  12.070
 3469W        W71687   6.847   0.444   3.187
 3470W        W71688  35.384  15.796   3.554
 3471W        W71689  20.609  43.971   0.730
 3472W        W71690  10.564  12.597  13.832
 3473W        W71691  28.651  30.886  14.466
 3474W        W71692   6.613   6.757  13.336
 3475W        W71693  25.033  17.095  14.573
 3476W        W71694  40.979  24.704  13.158
 3477W        W71695  35.044   9.658   2.642
 3478W        W71696  37.254  23.560  12.555
 3479W        W71697  22.063  15.285   4.026
 3480W        W71698  31.382  22.976  10.594
 3481W        W71699  39.399  29.438  11.991
 3482W        W71700   2.204   5.487  12.418
 3483W        W71701  23.452  10.027   3.917
 3484W        W71702  44.342  35.018  11.078
 3485W        W71703  44.952  32.073  13.370
 3486W        W71704  36.330  30.071  14.004
 3487W        W71705  32.199  14.735  14.427
 3488W        W71706  12.661  41.362  14.903
 3489W        W71707  11.415  24.536  13.946
 3490W        W71708  29.666  25.219   3.574
 3491W        W71709  26.705  42.513  13.920
 3492W        W71710  41.055  22.507  10.761
 3493W        W71711   1.941   1.460  13.555
 3494W        W71712  19.305  10.314  13.524
 3495W        W71713  29.120  10.184  14.795
 3496W        W71714  36.571   7.219   3.260
 3497W        W71715   4.975  18.690   2.228
 3498W        W71716  10.821  36.385   4.556
 3499W        W71717   1.514  16.294  12.887
 3500W        W71718  11.439   3.284  11.708
 3501W        W71719  18.598  13.753  11.995
 3502W        W71720  30.069   4.490   0.771
 3503W        W71721  15.591  32.402  11.892
 3504W        W71722  36.656  26.046  11.090
 3505W        W71723  17.284   0.251   4.080
 3506W        W71724   7.785  11.140   1.332
 3507W        W71725  29.137  26.390  13.182
 3508W        W71726  25.726  41.435   2.951
 3509W        W71727  34.343   6.909   0.913
 3510W        W71728  23.601  33.849   1.263
 3511W        W71729  19.761  34.895  14.764
 3512W        W71730  35.501  12.972   2.162
 3513W        W71731  21.460   3.856  12.627
 3514W        W71732  14.760  43.833  12.333
 3515W        W71733  26.742   8.225  13.993
 3516W        W71734  11.790   4.827  10.839
 3517W        W71735  10.113   7.512  14.292
 3518W        W71736  31.630  41.037   4.362
 3519W        W71737  28.792  24.645   2.142
 3520W        W71738  37.941   7.166  13.889
 3521W        W71739  14.754  18.234   1.397
 3522W        W71740  14.422  33.543   2.455
 3523W        W71741  21.931  42.778   1.862
 3524W        W71742  27.397  36.818   2.569
 3525W        W71743  19.293  10.488  11.489
 3526W        W71744  36.934  22.715   3.525
 3527W        W71745   9.822  16.211   5.139
 3528W        W71746  40.761  38.504  14.726
 3529W        W71747  34.379   5.916  14.396
 3530W        W71748   1.809  35.868   1.862
 3531W        W71749  30.494  36.591   2.349
 3532W        W71750  44.008  16.129   0.343
 3533W        W71751  40.450   4.711   3.363
 3534W        W71752  11.107  41.466  11.991
 3535W        W71753  41.918  35.006  12.356
 3536W        W71754   8.238  28.918   2.644
 3537W        W71755  38.939  34.102  12.072
 3538W        W71756  18.010  44.503  14.099
 3539W        W71757   5.918  18.559   0.243
 3540W        W71758  21.495  25.090  10.288
 3541W        W71759  32.666  25.905   5.049
 3542W        W71760  37.424  11.146   3.186
 3543W        W71761  23.202  21.606   2.255
 3544W        W71762  17.696  15.097  13.064
 3545W        W71763   3.797  21.840  13.804
 3546W        W71764  36.949   4.156  12.115
 3547W        W71765  41.029  22.007   3.783
 3548W        W71766  13.520  44.883  14.060
 3549W        W71767  38.502  24.322   2.168
 3550W        W71768  43.321  32.953   1.832
 3551W        W71769  20.498   3.488   4.189
 3552W        W71770  13.221  26.093   2.365
 3553W        W71771  23.736  42.211   3.202
 3554W        W71772  21.036  39.887  13.819
 3555W        W71773   6.416  15.735  14.273
 3556W        W71774  10.544  10.766  10.939
 3557W        W71775  39.794  27.269   4.094
 3558W        W71776   0.500  29.462   0.057
 3559W        W71777   6.318  33.910  13.594
 3560W        W71778  38.672   8.638  12.464
 3561W        W71779  30.651   5.915   2.652
 3562W        W71780   0.978  10.263   0.057
 3563W        W71781   7.252  24.061   3.257
 3564W        W71782   7.651  20.106  11.959
 3565W        W71783  35.154  35.064  10.854
 3566W        W71784  12.614  15.331  12.551
 3567W        W71785  16.742  22.627   0.297
 3568W        W71786  26.687  18.077  14.894
 3569W        W71787   7.877  44.333   1.417
 3570W        W71788  24.190  44.366  10.305
 3571W        W71789  12.255  37.338   1.782
 3572W        W71790  30.423   2.222  14.950
 3573W        W71791   5.739   3.424  13.765
 3574W        W71792  44.786  18.902  11.249
 3575W        W71793  37.666  20.662  12.199
 3576W        W71794  36.585  32.261  14.913
 3577W        W71795  28.569   5.025   1.443
 3578W        W71796   9.829  13.405  11.566
 3579W        W71797  37.421  43.092   1.697
 3580W        W71798  35.183  12.306   4.138
 3581W        W71799  13.080  14.019  11.651
 3582W        W71800  40.042  21.991   0.836
 3583W        W71801  39.756  39.021   1.901
 3584W        W71802  23.111   8.293   3.286
 3585W        W71803  42.179  29.843   1.048
 3586W        W71804  10.316   5.426  10.344
 3587W        W71805  12.239  42.031  10.513
 3588W        W71806  44.057  42.505  11.284
 3589W        W71807  43.462  16.123  13.537
 3590W        W71808  25.192  29.200  13.429
 3591W        W71809   3.182  28.498   1.772
 3592W        W71810  19.038  36.869  12.499
 3593W        W71811  20.864  38.041  11.718
 3594W        W71812  19.362   1.455  14.379
 3595W        W71813   9.080  32.816   2.763
 3596W        W71814  27.267   3.223  11.654
 3597W        W71815  23.019   6.270   1.334
 3598W        W71816  27.313  35.862   3.262
 3599W        W71817  14.555   7.702   4.289
 3600W        W71818  15.159  11.800   4.680
 3601W        W71819  11.790  28.140   2.931
 3602W        W71820   9.156  34.498   0.467
 3603W        W71821  32.679  35.812   2.199
 3604W        W71822  19.311   5.206   0.270
 3605W        W71823  22.406  21.243   4.942
 3606W        W71824   5.651  34.504  11.991
 3607W        W71825  29.176  40.283  11.694
 3608W        W71826  28.928  37.264   3.374
 3609W        W71827  10.311  10.235   3.645
 3610W        W71828  32.151  44.487   0.026
 3611W        W71829   2.235   9.810  12.495
 3612W        W71830  21.120  42.806  11.729
 3613W        W71831  38.315  24.097   4.866
 3614W        W71832   1.833  23.734   1.701
 3615W        W71833   6.929  29.401   0.344
 3616W        W71834  23.510  30.948   4.403
 3617W        W71835   4.650   3.278  13.389
 3618W        W71836   4.950  14.634  11.042
 3619W        W71837  40.427   6.672  13.357
 3620W        W71838  14.057   0.973   1.851
 3621W        W71839  15.589   5.187  14.601
 3622W        W71840   4.769  18.085   4.951
 3623W        W71841  16.196  19.037  14.302
 3624W        W71842  20.016   1.767   0.453
 3625W        W71843   1.350  14.191  11.599
 3626W        W71844   8.648  39.107  11.978
 3627W        W71845   4.715  29.334   4.553
 3628W        W71846  13.928  36.178  10.887
 3629W        W71847  35.425  23.546  12.075
 3630W        W71848   2.986  14.771  11.609
 3631W        W71849  34.470   7.490  11.203
 3632W        W71850  19.750  22.470  12.424
 3633W        W71851  11.657  36.486   3.114
 3634W        W71852   8.840  22.996   1.725
 3635W        W71853  32.970  36.415  12.039
 3636W        W71854   9.947   0.144   5.065
 3637W        W71855   8.327   1.287   2.196
 3638W        W71856   2.784  35.635   2.676
 3639W        W71857  11.728  32.586   2.318
 3640W        W71858   1.594  42.977   0.958
 3641W        W71859  26.697  27.658   1.477
 3642W        W71860  11.775  40.316  14.422
 3643W        W71861  23.274  32.883   4.539
 3644W        W71862   9.658   0.433   0.294
 3645W        W71863  35.906  36.286  11.753
 3646W        W71864  38.258   3.150   5.049
 3647W        W71865  19.837  19.116   3.763
 3648W        W71866   0.888  23.129  13.477
 3649W        W71867  12.310  21.086   0.690
 3650W        W71868   0.250   7.295  13.328
 3651W        W71869  39.810  39.535   1.837
 3652W        W71870   4.883  34.036  10.960
 3653W        W71871  16.619  26.120  14.781
 3654W        W71872  12.280  26.908  13.097
 3655W        W71873   9.172  26.639   2.714
 3656W        W71874   7.265  28.897   3.774
 3657W        W71875   3.574  12.896   1.802
 3658W        W71876  33.106  38.847   2.941
 3659W        W71877  26.564   9.347  11.515
 3660W        W71878   2.146   3.677   3.724
 3661W        W71879   9.971   6.443   1.340
 3662W        W71880  27.965  17.371   2.972
 3663W        W71881   2.419   1.541  14.306
 3664W        W71882  26.081  22.599  11.524
 3665W        W71883  12.710  30.963   0.720
 3666W        W71884   7.826  41.578  13.926
 3667W        W71885  40.053   3.757   2.190
 3668W        W71886  11.312  43.081   1.539
 3669W        W71887  24.714  16.275  14.978
 3670W        W71888  39.258  20.723   2.783
 3671W        W71889  43.045   2.243   2.680
 3672W        W71890  39.563   1.429  12.046
 3673W        W71891  21.324  32.562  12.424
 3674W        W71892  39.870  42.383   1.359
 3675W        W71893  10.746   0.255   2.978
 3676W        W71894  36.371   4.211  14.795
 3677W        W71895  30.316   8.770  14.193
 3678W        W71896   9.875  19.802  11.447
 3679W        W71897   8.476  34.190   3.566
 3680W        W71898  30.056  42.307  10.630
 3681W        W71899  18.798   7.587   4.941
 3682W        W71900  12.767  25.248   5.005
 3683W        W71901  35.426  13.125   0.239
 3684W        W71902  28.822  18.669   2.710
 3685W        W71903  31.140  39.265   1.784
 3686W        W71904   1.991  24.567   4.578
 3687W        W71905  25.896   0.127  12.557
 3688W        W71906   9.158   5.803  12.471
 3689W        W71907   2.853   2.191  11.513
 3690W        W71908   0.985  31.593  14.060
 3691W        W71909   0.550  20.209   0.560
 3692W        W71910  24.247  44.849   2.478
 3693W        W71911   3.364  39.126  10.219
 3694W        W71912  24.324  24.496  11.552
 3695W        W71913  43.190  23.918  13.014
 3696W        W71914  11.882  43.478  13.947
 3697W        W71915  19.528   7.665   0.476
 3698W        W71916  40.362  36.035   0.951
 3699W        W71917  15.229  27.145   0.024
 3700W        W71918  19.686  35.038   0.632
 3701W        W71919  16.676  25.545   4.863
 3702W        W71920  30.050  10.430  13.584
 3703W        W71921  30.022   9.638   2.751
 3704W        W71922  30.856  11.620   1.750
 3705W        W71923  22.795  26.248   3.256
 3706W        W71924  31.733   9.641   4.445
 3707W        W71925  32.481   9.260   1.308
 3708W        W71926   7.218   1.923  12.912
 3709W        W71927  35.476  23.988  12.888
 3710W        W71928  18.021  13.292  10.695
 3711W        W71929  27.574  16.572  12.210
 3712W        W71930  31.490  29.962   4.830
 3713W        W71931  36.640   1.018  14.909
 3714W        W71932  24.587  29.606   3.563
 3715W        W71933  34.329  23.444   1.479
 3716W        W71934  29.103  16.153   1.889
 3717W        W71935  43.333   4.296   4.682
 3718W        W71936  13.051  13.503  11.655
 3719W        W71937  41.273  19.696   0.876
 3720W        W71938  11.106   3.622   5.057
 3721W        W71939   4.007  19.309   3.258
 3722W        W71940  12.539   0.915   0.348
 3723W        W71941  44.603  12.559  13.697
 3724W        W71942   9.773  42.656   1.669
 3725W        W71943   0.176  19.509   4.082
 3726W        W71944  36.582   9.213  13.123
 3727W        W71945   1.919  42.390   4.890
 3728W        W71946  28.977  15.397   2.371
 3729W        W71947  28.974  12.812   4.642
 3730W        W71948  34.004   5.331  14.984
 3731W        W71949  28.139  44.967  10.748
 3732W        W71950  23.979  21.188  11.937
 3733W        W71951   8.768  25.564   4.664
 3734W        W71952  26.229   4.913  11.661
 3735W        W71953  15.251  37.950   1.906
 3736W        W71954  36.590  39.589   4.078
 3737W        W71955   1.723  34.464   2.312
 3738W        W71956  29.146  43.755  14.438
 3739W        W71957  13.312  19.766  12.003
 3740W        W71958  38.566   5.755  13.835
 3741W        W71959   8.209  23.603   3.258
 3742W        W71960  20.403  37.794   2.233
 3743W        W71961  26.011  14.768  13.058
 3744W        W71962   3.906  37.002  10.943
 3745W        W71963   0.837  11.913  14.825
 3746W        W71964   5.901  37.243  11.870
 3747W        W71965  26.977  21.178  13.460
 3748W        W71966  44.789  19.042  13.598
 3749W        W71967  22.469  10.914   0.781
 3750W        W71968   9.278   6.771  10.197
 3751W        W71969  34.516  11.999   2.718
 3752W        W71970  34.983  36.154   4.943
 3753W        W71971  27.202  34.004  14.072
 3754W        W71972  27.136  20.407   1.294
 3755W        W71973  15.856  42.663   9.861
 3756W        W71974   4.680  26.688   3.329
 3757W        W71975  38.735   6.260   4.515
 3758W        W71976  40.505  13.654   3.620
 3759W        W71977  35.137  19.465   1.249
 3760W        W71978  39.848  22.238   1.303
 3761W        W71979  20.980  23.730   3.685
 3762W        W71980  25.973   8.814   1.215
 3763W        W71981  24.746  12.234   4.227
 3764W        W71982  12.137  39.547   2.136
 3765W        W71983  11.145  33.585   4.433
 3766W        W71984   4.322  43.532   3.753
 3767W        W71985  39.521  39.285   0.010
 3768W        W71986  33.128  42.053   1.778
 3769W        W71987   3.005  37.917   4.303
 3770W        W71988  21.100   8.609  14.640
 3771W        W71989   8.329  38.460   3.133
 3772W        W71990  29.623  15.676   0.957
 3773W        W71991  14.862  43.009  14.911
 3774W        W71992  25.773   3.485  13.187
 3775W        W71993  11.313   8.566  10.987
 3776W        W71994  22.060   6.186   1.618
 3777W        W71995  36.085  18.591  14.038
 3778W        W71996  44.918  41.739   0.485
 3779W        W71997   8.062  27.463   4.075
 3780W        W71998  37.150  11.360  11.958
 3781W        W71999  18.185   5.242  11.125
 3782W        W72000  10.092  39.510   2.370
 3783W        W72001   7.102  36.851   2.623
 3784W        W72002  14.869  27.790  10.182
 3785W        W72003  14.611   7.449  12.044
 3786W        W72004  28.945   9.877  13.003
 3787W        W72005  17.626  12.630   2.732
 3788W        W72006  27.518  22.614   1.208
 3789W        W72007  14.257   3.671   3.711
 3790W        W72008  19.662  42.915  13.385
 3791W        W72009  25.804  22.962   0.693
 3792W        W72010   7.405   2.699   0.963
 3793W        W72011  16.993  32.342  13.377
 3794W        W72012  44.596  44.084  13.975
 3795W        W72013   6.436   3.451   3.201
 3796W        W72014  33.062   0.537   2.022
 3797W        W72015  33.488  35.944   1.796
 3798W        W72016  28.149  28.134  10.643
 3799W        W72017  11.954  26.126   4.784
 3800W        W72018  28.687  27.128   3.170
 3801W        W72019  28.330  26.449   0.286
 3802W        W72020  39.344  32.847   2.785
 3803W        W72021   4.911  42.264   1.393
 3804W        W72022  13.046  41.003  14.752
 3805W        W72023  23.951   9.116   4.571
 3806W        W72024   8.862  18.773   5.091
 3807W        W72025   9.212  22.835  10.995
 3808W        W72026  24.493   0.193   3.694
 3809W        W72027  43.867  35.751   0.928
 3810W        W72028   9.849  22.005  12.543
 3811W        W72029   4.934  29.844  13.387
 3812W        W72030  20.106  40.517  13.601
 3813W        W72031  25.425  11.399  11.578
 3814W        W72032  40.315  40.596  11.152
 3815W        W72033   0.314  18.234   3.254
 3816W        W72034  35.474  24.339   2.939
 3817W        W72035  36.402   0.012   1.328
 3818W        W72036  34.845  19.235   4.587
 3819W        W72037   7.385  12.312  12.483
 3820W        W72038  13.842   9.679   1.502
 3821W        W72039   7.690  10.365  11.128
 3822W        W72040  10.839  27.645  11.203
 3823W        W72041  11.881  32.314   0.422
 3824W        W72042  42.566  24.192   3.797
 3825W        W72043   4.951  35.656  13.516
 3826W        W72044   7.435  21.112   2.688
 3827W        W72045  42.270   1.236  11.951
 3828W        W72046   5.810   7.164   2.715
 3829W        W72047  23.006  26.545  14.245
 3830W        W72048  16.090  19.594   0.274
 3831W        W72049   5.884  32.541   4.108
 3832W        W72050   7.971  25.136  13.458
 3833W        W72051  28.475  38.556   1.842
 3834W        W72052  27.229  29.866  10.933
 3835W        W72053   9.925   1.310   0.561
 3836W        W72054  17.430  11.386  14.348
 3837W        W72055  24.893  38.140   2.877
 3838W        W72056  26.733  11.585  11.367
 3839W        W72057   0.716  41.486  14.424
 3840W        W72058   4.469  13.740  11.149
 3841W        W72059  41.744  24.402  11.799
 3842W        W72060  12.905   5.468  11.774
 3843W        W72061  37.973   8.114   2.442
 3844W        W72062  12.886  38.580   2.913
 3845W        W72063   9.782   4.957  13.338
 3846W        W72064  40.055   1.660  12.045
 3847W        W72065  40.301  15.797   2.836
 3848W        W72066  30.849  22.572  12.490
 3849W        W72067  40.334  23.304  12.079
 3850W        W72068  14.217  40.920  13.532
 3851W        W72069   2.732   9.491  12.882
 3852W        W72070  34.579  12.153  13.690
 3853W        W72071  23.862  32.344  10.535
 3854W        W72072  13.692  17.743   0.638
 3855W        W72073  38.469  35.895  13.626
 3856W        W72074   9.282  14.584  13.534
 3857W        W72075  16.200  22.255  14.024
 3858W        W72076  36.394  19.316   0.930
 3859W        W72077  42.908  41.500  13.325
 3860W        W72078  22.942  40.353   3.667
 3861W        W72079  21.527   4.154   2.319
 3862W        W72080  16.320  35.505  12.079
 3863W        W72081   2.445   6.174   3.700
 3864W        W72082  40.399  41.087   3.573
 3865W        W72083  26.083  31.874   3.734
 3866W        W72084  14.531  37.328   0.446
 3867W        W72085  11.060  38.396  14.735
 3868W        W72086  44.481  31.727   4.086
 3869W        W72087   5.156  31.966   5.131
 3870W        W72088  24.477   8.209   0.855
 3871W        W72089  37.709   4.484  13.895
 3872W        W72090  40.264  22.404   5.044
 3873W        W72091  41.017  44.504   3.278
 3874W        W72092  29.865  22.608   1.129
 3875W        W72093   1.235  24.462  13.096
 3876W        W72094  32.007  38.131   4.956
 3877W        W72095  27.215  13.236  14.342
 3878W        W72096  44.776   8.507  11.999
 3879W        W72097  25.252  14.892   1.513
 3880W        W72098  29.424   1.459   3.785
 3881W        W72099  43.885  13.643   4.868
 3882W        W72100   5.201  13.678   4.707
 3883W        W72101  26.634  22.982   4.091
 3884W        W72102  35.975  32.896   1.808
 3885W        W72103  22.939  18.990   0.530
 3886W        W72104  14.555  44.827   3.217
 3887W        W72105  21.760   8.368   4.170
 3888W        W72106  25.634  32.607  13.990
 3889W        W72107  16.197  23.570  13.322
 3890W        W72108  15.256  29.989   1.169
 3891W        W72109  19.341  37.871  12.402
 3892W        W72110  11.295  23.295  10.656
 3893W        W72111  35.302  30.543  11.928
 3894W        W72112  38.132  20.062  13.982
 3895W        W72113  39.688  42.221   0.341
 3896W        W72114  33.809  36.873  13.512
 3897W        W72115  27.557  21.593  14.946
 3898W        W72116  10.638  18.271   3.062
 3899W        W72117  39.462  29.645   2.244
 3900W        W72118  10.574  17.197   2.747
 3901W        W72119  41.288  40.646  12.507
 3902W        W72120  19.618  29.648   3.168
 3903W        W72121  22.029  36.361   1.499
 3904W        W72122  10.868  15.032  11.450
 3905W        W72123  24.197   5.872   5.145
 3906W        W72124  37.832  18.138  12.202
 3907W        W72125   7.161  43.260  10.680
 3908W        W72126  25.913  33.024  10.642
 3909W        W72127  36.420  27.740   4.523
 3910W        W72128   0.069  17.084  13.451
 3911W        W72129  40.449   0.354  12.079
 3912W        W72130  17.328   0.995  11.615
 3913W        W72131  26.981  13.284   1.646
 3914W        W72132  40.071  42.537  12.582
 3915W        W72133  34.844  15.874   1.330
 3916W        W72134  19.625  43.320   2.274
 3917W        W72135  27.628   2.690   0.980
 3918W        W72136  33.165   2.836  10.081
 3919W        W72137  31.814  27.109   2.902
 3920W        W72138  22.601   3.452   2.059
 3921W        W72139  15.633  43.296  12.071
 3922W        W72140   0.007  42.511  10.320
 3923W        W72141   1.816  25.754   3.751
 3924W        W72142  30.884   7.205  12.060
 3925W        W72143  25.309  30.062   0.092
 3926W        W72144   5.182  18.196   2.459
 3927W        W72145  33.671  13.846   0.230
 3928W        W72146  10.203  41.437  14.318
 3929W        W72147  20.705  13.636   5.126
 3930W        W72148  29.572   0.861  14.196
 3931W        W72149   2.796  38.410   2.820
 3932W        W72150   7.193  17.240  14.490
 3933W        W72151   5.507  41.323  11.393
 3934W        W72152  32.199  11.958   4.475
 3935W        W72153   4.377  31.882   4.069
 3936W        W72154  23.942  38.666   2.816
 3937W        W72155  37.972  21.776   0.675
 3938W        W72156  43.497  44.792   3.449
 3939W        W72157  18.748  37.123   1.435
 3940W        W72158  44.569  29.994  14.057
 3941W        W72159  10.278  26.486   1.776
 3942W        W72160  16.033  15.264  12.105
 3943W        W72161  11.733  37.896   3.319
 3944W        W72162  38.769  20.430  13.517
 3945W        W72163  37.988  42.768   2.071
 3946W        W72164   5.207  22.561  10.466
 3947W        W72165   0.236  41.794  11.823
 3948W        W72166  39.356   8.547  10.261
 3949W        W72167  21.694  28.425   2.334
 3950W        W72168   4.418  11.639   3.362
 3951W        W72169  19.007  43.247  14.921
 3952W        W72170  36.623  11.347  14.945
 3953W        W72171   1.968   3.896   4.972
 3954W        W72172   7.389  33.118   4.703
 3955W        W72173   4.091  30.266   2.359
 3956W        W72174  31.114  39.479   0.304
 3957W        W72175   8.976  13.248   2.355
 3958W        W72176  30.490  13.840  12.354
 3959W        W72177  20.735  13.808  11.075
 3960W        W72178   6.304  41.245   4.920
 3961W        W72179  34.302  17.723   0.740
 3962W        W72180  15.735   3.273  14.378
 3963W        W72181   2.801  13.316   0.626
 3964W        W72182   8.289  15.328  11.584
 3965W        W72183  19.242  31.647   1.633
 3966W        W72184  15.365  30.438   0.922
 3967W        W72185  26.701   1.529  12.111
 3968W        W72186  44.334   5.590  10.841
 3969W        W72187  24.069  29.114  14.856
 3970W        W72188  34.344  34.908   4.520
 3971W        W72189   8.672  10.741   3.984
 3972W        W72190   3.415  39.925  11.208
 3973W        W72191  23.191  16.778   4.046
 3974W        W72192  17.098  32.625   4.685
 3975W        W72193  29.471  33.120   1.813
 3976W        W72194  25.107  20.521  12.142
 3977W        W72195   0.453  22.547  12.253
 3978W        W72196  28.486  34.332   0.368
 3979W        W72197  15.852  41.558  13.351
 3980W        W72198  30.076   7.709  10.684
 3981W        W72199  23.226   6.902   2.625
 3982W        W72200   1.696  26.955  11.208
 3983W        W72201  15.294   0.091  11.023
 3984W        W72202  34.520  20.524   0.653
 3985W        W72203   7.180  26.106   3.276
 3986W        W72204  14.862  10.385   4.034
 3987W        W72205   6.702  37.788  13.117
 3988W        W72206  38.473  28.921  10.789
 3989W        W72207  30.549  28.122  13.789
 3990W        W72208  27.689  21.105  12.450
 3991W        W72209  23.222  30.670   3.325
 3992W        W72210  42.325  30.186   4.409
 3993W        W72211  11.792  22.424  12.971
 3994W        W72212   9.689  34.578  13.111
 3995W        W72213  15.568  42.148   1.790
 3996W        W72214  29.546  38.299   3.730
 3997W        W72215  35.417  17.699  11.120
 3998W        W72216   4.923  12.617   4.095
 3999W        W72217  15.261  16.796   2.263
 4000W        W72218  23.752  23.657   3.679
 4001W        W72219   4.727  18.109  11.309
 4002W        W72220  28.143   3.966   4.603
 4003W        W72221  35.593  30.084   1.693
 4004W        W72222   3.841   6.158  12.013
 4005W        W72223  27.289   9.400   3.919
 4006W        W72224   3.697  33.113   3.486
 4007W        W72225  40.406   8.108   4.194
 4008W        W72226   8.022   2.375   4.050
 4009W        W72227  34.881  10.384   4.086
 4010W        W72228   7.884  19.165  13.868
 4011W        W72229   0.020   2.189  12.437
 4012W        W72230  26.621  10.885  14.567
 4013W        W72231  24.959   4.607  11.549
 4014W        W72232   4.325  30.689  13.397
 4015W        W72233  19.088  18.620  13.891
 4016W        W72234  25.754  32.908   1.740
 4017W        W72235  36.404  38.671  10.102
 4018W        W72236  26.767  24.867  11.476
 4019W        W72237  11.274   5.268  13.524
 4020W        W72238   7.232   4.355   1.601
 4021W        W72239  26.252   7.988   4.633
 4022W        W72240  19.171  43.273  12.522
 4023W        W72241  37.406   8.335  13.554
 4024W        W72242  13.090  39.810  13.011
 4025W        W72243  40.347  37.306  13.780
 4026W        W72244  35.600  16.346   0.868
 4027W        W72245  35.561  43.468  10.563
 4028W        W72246  13.242   5.830   2.841
 4029W        W72247  24.163  20.232   0.774
 4030W        W72248  19.638   3.196  13.104
 4031W        W72249  22.175  38.593   3.032
 4032W        W72250  26.188  31.192   2.110
 4033W        W72251   9.854  33.868  14.409
 4034W        W72252  25.597  24.135   0.219
 4035W        W72253  32.787  32.602   3.623
 4036W        W72254  26.803  39.414   1.182
 4037W        W72255  28.632  34.426  11.948
 4038W        W72256  38.790  26.142  14.022
 4039W        W72257   6.404  25.607  12.108
 4040W        W72258  35.874  21.603   2.365
 4041W        W72259  24.517   7.361   1.729
 4042W        W72260  29.994  13.330   0.489
 4043W        W72261  36.722  35.633  11.888
 4044W        W72262  11.724  14.661   0.036
 4045W        W72263  33.998  30.220  14.331
 4046W        W72264  12.759  43.568  14.526
 4047W        W72265  11.346  25.184  13.138
 4048W        W72266  15.216  32.202  12.622
 4049W        W72267  38.355  17.599  13.186
 4050W        W72268  22.010  26.992   0.977
 4051W        W72269   3.999  14.141   1.948
 4052W        W72270  36.140  36.641  11.451
 4053W        W72271  27.325  21.021   0.029
 4054W        W72272  15.431  13.129   4.210
 4055W        W72273  20.713  24.631   4.012
 4056W        W72274  22.533  41.438   0.985
 4057W        W72275  30.231  37.644  14.052
 4058W        W72276  40.084   9.534   0.335
 4059W        W72277  21.748  24.548   0.720
 4060W        W72278  36.634  21.491  13.491
 4061W        W72279  38.597  32.925  11.496
 4062W        W72280   8.156  10.625  11.151
 4063W        W72281  24.879  30.870  13.610
 4064W        W72282   4.484  26.578  14.492
 4065W        W72283  17.248  33.110  10.823
 4066W        W72284  31.427   9.704  10.664
 4067W        W72285   8.935  29.475  10.679
 4068W        W72286  40.547  18.392   1.875
 4069W        W72287   7.626   9.900  14.403
 4070W        W72288   5.392  38.366  13.898
 4071W        W72289  17.099  29.991   1.981
 4072W        W72290  33.456  18.284   5.026
 4073W        W72291  18.317  42.666   1.895
 4074W        W72292   4.895   6.440   0.938
 4075W        W72293  18.042  23.923  11.963
 4076W        W72294   4.955  20.165   1.826
 4077W        W72295   1.787  34.211   3.090
 4078W        W72296   4.299  24.772  14.910
 4079W        W72297  42.069  10.610  14.720
 4080W        W72298   5.417  44.668  14.616
 4081W        W72299  17.997  22.121   3.275
 4082W        W72300  31.477   4.404   4.014
 4083W        W72301  43.572  43.222  12.565
 4084W        W72302  20.041   5.348  11.531
 4085W        W72303  15.758  22.023  13.915
 4086W        W72304   8.185  41.958  13.043
 4087W        W72305  10.123   2.487  10.978
 4088W        W72306  20.425  39.066   4.736
 4089W        W72307   6.445  25.626   3.695
 4090W        W72308   5.323   3.198   1.464
 4091W        W72309  44.138   9.763  12.539
 4092W        W72310   3.173   4.886  13.832
 4093W        W72311  19.163  11.420   2.597
 4094W        W72312   8.739   0.825   2.891
 4095W        W72313  10.704  36.894   1.430
 4096W        W72314  28.406  43.522   1.286
 4097W        W72315  21.490  39.094   1.725
 4098W        W72316  23.738  34.460  11.576
 4099W        W72317  37.595  44.740  13.742
 4100W        W72318  21.526   5.328  11.546
 4101W        W72319  14.271  38.985   4.075
 4102W        W72320  40.499   9.452  13.143
 4103W        W72321  33.936  35.312  11.375
 4104W        W72322  39.515   3.958   0.312
 4105W        W72323   7.685  29.469   3.191
 4106W        W72324  35.986   8.037   3.194
 4107W        W72325  27.884  20.168  14.764
 4108W        W72326   2.859  26.363  13.813
 4109W        W72327   2.922  22.162  14.340
 4110W        W72328  43.447  13.634   1.783
 4111W        W72329   3.444  13.259   4.310
 4112W        W72330   8.165  18.819   2.356
 4113W        W72331   1.710  11.126  13.345
 4114W        W72332  39.968  15.348  12.804
 4115W        W72333  40.011  12.018   3.311
 4116W        W72334  18.441  33.082   1.974
 4117W        W72335  18.965  24.420  11.978
 4118W        W72336  17.018   6.487   4.112
 4119W        W72337  44.517  11.835  14.445
 4120W        W72338  18.611   5.460   0.090
 4121W        W72339  20.775  40.891  12.480
 4122W        W72340  40.942  29.995  12.012
 4123W        W72341  31.920  12.095   3.168
 4124W        W72342  29.595  10.700   0.772
 4125W        W72343  26.128   2.103  14.920
 4126W        W72344   2.335  17.662  14.866
 4127W        W72345   3.419   0.375  12.612
 4128W        W72346   4.579  38.785   1.521
 4129W        W72347  33.604   4.189  13.006
 4130W        W72348  44.812  16.627  12.020
 4131W        W72349  42.759  39.828  13.370
 4132W        W72350  24.214   9.523  12.469
 4133W        W72351   4.264   3.121   3.192
 4134W        W72352  43.303  33.168   0.889
 4135W        W72353  27.752  10.275   1.769
 4136W        W72354  36.429  41.353   0.480
 4137W        W72355  35.035   3.248  12.434
 4138W        W72356  30.454  27.196   0.796
 4139W        W72357  29.122  38.635   3.653
 4140W        W72358  21.633   2.692  12.970
 4141W        W72359  34.901  22.571   2.599
 4142W        W72360  41.699  25.987  14.064
 4143W        W72361  12.136   8.265   3.131
 4144W        W72362  33.059   6.232   4.681
 4145W        W72363  38.847   4.413   5.492
 4146W        W72364  41.929  36.658  12.064
 4147W        W72365  38.598   3.448  13.311
 4148W        W72366  21.445  10.658   1.442
 4149W        W72367   6.601  19.040  12.864
 4150W        W72368   9.795   3.197   0.129
 4151W        W72369  43.002  42.101   1.008
 4152W        W72370   7.260  10.947   0.504
 4153W        W72371   8.291  21.575  11.171
 4154W        W72372  29.067  42.928  11.198
 4155W        W72373  15.198   1.710  12.553
 4156W        W72374  25.474   3.541   1.223
 4157W        W72375   6.501  32.081   3.626
 4158W        W72376  10.405  33.247   0.420
 4159W        W72377   4.411  35.559  11.322
 4160W        W72378  29.537  17.624   2.272
 4161W        W72379  27.912  12.168  11.505
 4162W        W72380  42.081  16.627  10.640
 4163W        W72381  17.144  24.272  12.717
 4164W        W72382  12.366  23.625   2.741
 4165W        W72383   3.414   7.409  13.836
 4166W        W72384  42.854  23.330  10.629
 4167W        W72385  27.089  16.832  14.227
 4168W        W72386  21.491  19.173   0.655
 4169W        W72387  32.551  22.166   2.211
 4170W        W72388  30.712  13.840  14.754
 4171W        W72389  27.704  35.502   3.058
 4172W        W72390  17.179  33.108   3.192
 4173W        W72391  11.745  18.414  12.490
 4174W        W72392   8.858   2.562   0.861
 4175W        W72393  34.963   0.763   0.712
 4176W        W72394   1.237  36.492  10.703
 4177W        W72395  23.751  19.048   3.126
 4178W        W72396   7.917  28.403  14.078
 4179W        W72397  26.447  36.306  12.450
 4180W        W72398  14.800  32.070   1.780
 4181W        W72399  16.341  16.322   2.785
 4182W        W72400  31.268  27.485  14.909
 4183W        W72401  19.303  21.144   0.985
 4184W        W72402  15.803  43.612   5.079
 4185W        W72403  15.221  44.430   1.765
 4186W        W72404   6.093  15.591  11.371
 4187W        W72405  24.099  13.723   3.087
 4188W        W72406   7.677  15.611   5.347
 4189W        W72407   3.251  41.863   0.040
 4190W        W72408  24.071  38.480   0.351
 4191W        W72409  14.058  26.163   1.683
 4192W        W72410  21.927  21.235   0.265
 4193W        W72411  19.286  29.914   1.370
 4194W        W72412  15.697  38.905  13.095
 4195W        W72413  13.796  26.498   4.619
 4196W        W72414  40.435   4.971  13.913
 4197W        W72415  37.350  26.708  11.943
 4198W        W72416  41.972  17.541   2.402
 4199W        W72417   7.682  15.670  14.815
 4200W        W72418  22.818   0.313  14.426
 4201W        W72419  29.260  19.563  12.414
 4202W        W72420  32.610  21.309  14.833
 4203W        W72421  38.917  29.384   0.293
 4204W        W72422  21.215  36.427   1.117
 4205W        W72423  27.173  20.480   5.091
 4206W        W72424  14.720  37.255   1.844
 4207W        W72425  44.225  38.086  10.999
 4208W        W72426  39.057   4.011   4.775
 4209W        W72427  40.782  25.197  13.089
 4210W        W72428  22.115  31.153   2.969
 4211W        W72429   6.151  23.699  13.040
 4212W        W72430  23.070  16.327  12.318
 4213W        W72431  36.387  29.383  10.734
 4214W        W72432   0.730   9.079   0.383
 4215W        W72433  22.252  28.502   3.093
 4216W        W72434  26.625  12.623  12.083
 4217W        W72435   7.627  34.390   3.687
 4218W        W72436   5.434   3.444   1.005
 4219W        W72437   2.009  10.011  11.831
 4220W        W72438  34.950  37.047   3.388
 4221W        W72439  40.914  24.474   3.664
 4222W        W72440  42.220  17.651  14.895
 4223W        W72441  11.047  36.037   0.965
 4224W        W72442  21.300  12.542   5.074
 4225W        W72443   8.303   2.772  14.967
 4226W        W72444  39.854  40.344   4.613
 4227W        W72445  11.821  33.213  12.083
 4228W        W72446   7.095  40.392  14.116
 4229W        W72447  24.237  44.798  12.988
 4230W        W72448   3.147  30.168  13.105
 4231W        W72449  18.738  44.726   2.813
 4232W        W72450   4.621  43.111  10.663
 4233W        W72451  33.139  25.473   5.321
 4234W        W72452  23.663  41.845  13.531
 4235W        W72453   5.573  18.274   1.531
 4236W        W72454  16.531   1.213  12.438
 4237W        W72455   1.578   2.214   2.616
 4238W        W72456  40.429   0.267   0.026
 4239W        W72457  37.040   1.932   0.060
 4240W        W72458  22.153   2.847   1.300
 4241W        W72459  33.661  22.560  10.701
 4242W        W72460  28.019   5.853   1.937
 4243W        W72461  28.677  30.895   4.269
 4244W        W72462  26.415  42.482   2.884
 4245W        W72463   9.745  42.987  13.114
 4246W        W72464  22.897  42.920   4.194
 4247W        W72465  27.462  18.708   3.082
 4248W        W72466   4.902  21.312   3.608
 4249W        W72467  34.561  17.396   4.042
 4250W        W72468  11.958   5.750  12.456
 4251W        W72469  17.242  36.628  13.878
 4252W        W72470  34.416   6.746  12.441
 4253W        W72471  35.082  14.700  10.694
 4254W        W72472  27.532   7.401   2.667
 4255W        W72473  30.701  30.374  14.201
 4256W        W72474  28.416  25.550  14.978
 4257W        W72475  31.032  24.942   0.041
 4258W        W72476  36.548  35.764  12.363
 4259W        W72477  34.595  14.388   3.696
 4260W        W72478   1.240  21.433  13.584
 4261W        W72479   2.459   5.729  12.027
 4262W        W72480  17.635  11.929  14.373
 4263W        W72481   1.587  10.189   1.906
 4264W        W72482   4.571  34.400   1.285
 4265W        W72483  18.236  42.165   1.761
 4266W        W72484  40.482  21.458   1.283
 4267W        W72485   0.051  29.860   0.874
 4268W        W72486  24.246  21.647   3.220
 4269W        W72487  36.830  11.583   4.183
 4270W        W72488  22.302   4.127   3.997
 4271W        W72489   5.239  21.801  12.064
 4272W        W72490  24.466  20.157   2.600
 4273W        W72491  38.279  24.352   1.244
 4274W        W72492  32.234  25.956   2.263
 4275W        W72493  22.502  38.435   4.305
 4276W        W72494   8.314   5.459  12.181
 4277W        W72495   3.807  25.010   0.350
 4278W        W72496  23.871  26.593  14.963
 4279W        W72497  28.808  41.800   4.564
 4280W        W72498  26.746  40.565   1.589
 4281W        W72499   9.621  23.153   4.774
 4282W        W72500  43.547  21.212  12.489
 4283W        W72501  15.160   1.279  14.769
 4284W        W72502  25.073  42.861   2.798
 4285W        W72503  38.324  15.143   1.819
 4286W        W72504  25.731  31.709  13.920
 4287W        W72505  20.732  20.527  11.231
 4288W        W72506  43.257  30.090   3.395
 4289W        W72507  18.749  13.198  14.812
 4290W        W72508   3.895   3.284   1.656
 4291W        W72509   8.324  32.315  14.889
 4292W        W72510   3.066  18.645  11.086
 4293W        W72511  35.833  35.569   2.692
 4294W        W72512  23.982   0.953  12.421
 4295W        W72513   2.177   1.725  11.662
 4296W        W72514  17.240  29.992   9.841
 4297W        W72515  39.831  23.453  14.546
 4298W        W72516   6.774  11.958  14.950
 4299W        W72517  12.857   5.367   4.551
 4300W        W72518  39.415  34.304   1.984
 4301W        W72519  18.543  44.510   3.212
 4302W        W72520  10.191   2.369  10.491
 4303W        W72521  24.534  16.853   4.198
 4304W        W72522  27.184   7.465   1.933
 4305W        W72523  22.674   9.809  13.861
 4306W        W72524  11.921  43.505   2.249
 4307W        W72525   9.197  23.429   4.136
 4308W        W72526  35.982   6.366   0.888
 4309W        W72527  10.085  33.594   3.438
 4310W        W72528   1.398  34.598   3.830
 4311W        W72529  33.622  20.163  10.666
 4312W        W72530  24.516  24.427  14.693
 4313W        W72531  28.925   2.147   3.564
 4314W        W72532  25.115  15.095  13.418
 4315W        W72533   7.842   0.423   0.805
 4316W        W72534  12.655  26.682   3.713
 4317W        W72535  23.274   2.469  11.124
 4318W        W72536  27.068  41.273   0.725
 4319W        W72537  36.054  37.081   4.860
 4320W        W72538  28.674   9.633   0.298
 4321W        W72539  43.282   4.877  11.504
 4322W        W72540   8.726  38.450   4.847
 4323W        W72541  37.840  44.232   9.985
 4324W        W72542   7.868  26.911  10.622
 4325W        W72543  22.235  44.793  11.995
 4326W        W72544  34.502  44.432  13.174
 4327W        W72545  29.446  32.920  13.993
 4328W        W72546   6.104  16.118  14.400
 4329W        W72547  34.529  15.637   4.608
 4330W        W72548  43.910  38.831  13.414
 4331W        W72549  41.352  25.739  10.735
 4332W        W72550  37.560  29.144  12.181
 4333W        W72551  42.895  10.453  10.692
 4334W        W72552  33.702  44.545   3.675
 4335W        W72553  36.815   9.778  10.552
 4336W        W72554  18.764  34.976   3.075
 4337W        W72555  16.020  15.174  10.835
 4338W        W72556   4.497  35.700   5.162
 4339W        W72557  26.766   5.695  11.911
 4340W        W72558   6.577   1.545  13.066
 4341W        W72559  44.404   3.239  11.691
 4342W        W72560   1.380   7.822  14.256
 4343W        W72561  19.217  25.884  11.310
 4344W        W72562  44.842  37.682   2.409
 4345W        W72563  38.250   7.705  14.910
 4346W        W72564  40.095  32.594   3.698
 4347W        W72565  21.281  27.889   0.766
 4348W        W72566  37.045  18.319  10.805
 4349W        W72567  11.448   8.833   4.208
 4350W        W72568  13.158   0.414   0.885
 4351W        W72569  29.413  38.343  14.820
 4352W        W72570  22.183  17.610   4.689
 4353W        W72571   8.693   7.118  14.325
 4354W        W72572  42.221  24.388   2.315
 4355W        W72573  24.573  31.211  14.368
 4356W        W72574   8.235  42.457   0.846
 4357W        W72575   1.930  28.293  14.100
 4358W        W72576  18.223  33.950  12.099
 4359W        W72577  13.537  11.655  11.593
 4360W        W72578  42.228  16.910   0.536
 4361W        W72579   0.084  35.015   1.394
 4362W        W72580   6.010  40.779   9.746
 4363W        W72581  12.216  26.430   2.182
 4364W        W72582  24.480  40.049  10.788
 4365W        W72583  25.449  17.365  11.599
 4366W        W72584  30.617  32.397   1.287
 4367W        W72585  24.544  41.906   0.943
 4368W        W72586   7.273   2.988   3.248
 4369W        W72587  27.434  18.122  13.461
 4370W        W72588   1.460  26.289   1.346
 4371W        W72589  32.376  32.331   0.408
 4372W        W72590  42.790  18.172  13.820
 4373W        W72591   4.131  44.771   1.496
 4374W        W72592  11.857  43.903   4.029
 4375W        W72593  29.930  33.014  13.064
 4376W        W72594   3.155  15.145   2.374
 4377W        W72595  12.105  35.163   3.346
 4378W        W72596  22.795  32.883  13.224
 4379W        W72597  34.792  40.466  13.919
 4380W        W72598  26.743  24.999  13.864
 4381W        W72599  11.746  14.728  14.044
 4382W        W72600   9.651  24.498   4.610
 4383W        W72601   2.851  32.499  11.893
 4384W        W72602  36.948   0.928   2.565
 4385W        W72603   2.739  43.661  10.526
 4386W        W72604   5.021  19.562   3.749
 4387W        W72605   0.912   4.337  14.492
 4388W        W72606   5.295  31.138   0.670
 4389W        W72607   2.974  22.403  10.352
 4390W        W72608   0.461  10.304   0.019
 4391W        W72609  11.377  12.641  13.435
 4392W        W72610   6.932  43.946   4.764
 4393W        W72611  17.361  23.920   4.995
 4394W        W72612  34.954   1.327  14.767
 4395W        W72613  24.066  20.715  10.528
 4396W        W72614  36.865  31.410   3.140
 4397W        W72615  18.131  37.848  10.397
 4398W        W72616  16.401   3.845   0.841
 4399W        W72617  13.614   8.434   2.277
 4400W        W72618  33.582  16.759   1.649
 4401W        W72619  38.228  41.784   1.894
 4402W        W72620  20.143  21.305   2.332
 4403W        W72621  35.339  10.252  14.107
 4404W        W72622  43.302  33.081   4.582
 4405W        W72623  11.190  24.290  10.739
 4406W        W72624  23.005  28.607  11.639
 4407W        W72625  38.189  23.785  11.464
 4408W        W72626  28.910  18.075   1.851
 4409W        W72627   2.187  24.039   3.770
 4410W        W72628  28.500  44.120   1.631
 4411W        W72629  22.058  13.172  12.993
 4412W        W72630  13.403  24.566  12.492
 4413W        W72631  26.945  20.794   2.742
 4414W        W72632   5.995  34.801  14.487
 4415W        W72633  16.766   9.327   2.773
 4416W        W72634  18.395  29.943   2.873
 4417W        W72635  19.619   0.754   3.161
 4418W        W72636  38.957  28.209  12.053
 4419W        W72637  43.275  38.968  11.023
 4420W        W72638  41.714   3.958   3.943
 4421W        W72639  13.764   6.716   4.547
 4422W        W72640   8.959  34.190  11.900
 4423W        W72641  24.088  10.794   2.249
 4424W        W72642  30.546  22.980  10.838
 4425W        W72643  30.685  26.988  11.588
 4426W        W72644   3.619  11.674   9.867
 4427W        W72645  30.281   7.679  14.298
 4428W        W72646   2.230   8.950   2.093
 4429W        W72647  43.090  28.954  11.920
 4430W        W72648  44.459  21.153  12.911
 4431W        W72649  33.121  38.019   0.642
 4432W        W72650  29.831   1.254   2.260
 4433W        W72651   5.387  30.217   0.806
 4434W        W72652  14.761  24.118  12.230
 4435W        W72653  29.405   6.373  12.021
 4436W        W72654  15.983  37.080   2.746
 4437W        W72655  11.734  38.924   2.444
 4438W        W72656  26.135  30.877   3.781
 4439W        W72657   7.284  27.264   0.922
 4440W        W72658   1.014  14.409  14.737
 4441W        W72659  23.963  24.985  13.098
 4442W        W72660  29.453  23.564  14.722
 4443W        W72661   3.439  39.851   4.226
 4444W        W72662  43.512  35.754   3.422
 4445W        W72663   0.030  35.258   4.007
 4446W        W72664  42.869  35.563   4.874
 4447W        W72665  25.755   4.522   1.498
 4448W        W72666  17.737  14.200   1.912
 4449W        W72667  29.415  28.197  11.194
 4450W        W72668  39.640  11.667  10.719
 4451W        W72669  39.434   4.227   3.670
 4452W        W72670  13.192  39.815  13.525
 4453W        W72671  23.646   0.798   4.757
 4454W        W72672  24.723  25.745   2.320
 4455W        W72673  42.643  33.354   5.005
 4456W        W72674  33.035  29.928  11.445
 4457W        W72675   6.413   5.730  14.004
 4458W        W72676  31.051  41.548   0.856
 4459W        W72677  35.578  32.051  14.822
 4460W        W72678  22.192   1.502  11.962
 4461W        W72679  13.659  14.581  11.952
 4462W        W72680  22.154  35.293  11.960
 4463W        W72681  44.634  11.362  12.954
 4464W        W72682  31.600  33.062  12.629
 4465W        W72683  18.760  10.176   4.273
 4466W        W72684  36.560  33.572  11.933
 4467W        W72685   0.889  15.569   4.715
 4468W        W72686  32.180  14.674   4.221
 4469W        W72687  20.421  18.315   2.272
 4470W        W72688   6.011  10.227   3.262
 4471W        W72689  42.546  17.395   3.855
 4472W        W72690   3.488  42.803  11.757
 4473W        W72691  39.956  17.744  14.272
 4474W        W72692  37.447  42.956  14.508
 4475W        W72693   3.372  20.490  13.967
 4476W        W72694   3.474  11.906   3.814
 4477W        W72695  42.740  33.531   0.349
 4478W        W72696  14.649  34.261  12.188
 4479W        W72697  29.335  43.887  12.908
 4480W        W72698  21.194  19.336   0.222
 4481W        W72699  40.796  11.670  13.335
 4482W        W72700  14.840   9.260   3.860
 4483W        W72701  11.313  11.860  10.594
 4484W        W72702  33.563  16.233   1.837
 4485W        W72703  19.004  44.045  10.703
 4486W        W72704   5.895  19.731   1.364
 4487W        W72705  44.822   7.519   0.344
 4488W        W72706  13.484  26.002  10.746
 4489W        W72707  43.353  37.078   3.215
 4490W        W72708  31.601  19.105  10.751
 4491W        W72709   0.837  22.628  11.206
 4492W        W72710  42.241  26.239   0.106
 4493W        W72711   1.748  34.728  14.889
 4494W        W72712  27.631  19.752   3.641
 4495W        W72713  44.454  33.986   4.148
 4496W        W72714  19.154   8.843   0.330
 4497W        W72715  36.456  26.711   1.810
 4498W        W72716  23.299  40.967   0.028
 4499W        W72717  32.934   1.195  11.711
 4500W        W72718   7.777  16.207  11.501
 4501W        W72719   9.351   0.336  10.309
 4502W        W72720   6.132  19.287   3.158
 4503W        W72721  24.553  36.238  11.595
 4504W        W72722  19.794  31.932  14.987
 4505W        W72723  31.052  21.850   0.994
 4506W        W72724  34.914  36.591  11.403
 4507W        W72725   0.739  24.462  13.799
 4508W        W72726   3.293  19.400  11.920
 4509W        W72727  36.906   9.902  12.622
 4510W        W72728  37.018  35.621   0.278
 4511W        W72729   7.950  13.697  13.319
 4512W        W72730   7.495  27.437  12.520
 4513W        W72731  24.660  29.151  10.775
 4514W        W72732  39.539  33.908  13.953
 4515W        W72733  37.479  23.076   1.799
 4516W        W72734  13.878   1.520   0.464
 4517W        W72735   9.628  28.693  13.059
 4518W        W72736  35.633   1.436   1.000
 4519W        W72737  44.256  21.205   1.262
 4520W        W72738  30.084  28.426   3.725
 4521W        W72739  17.363  39.989   4.669
 4522W        W72740  17.787   6.467  13.909
 4523W        W72741  28.528  20.213  13.312
 4524W        W72742  16.179   9.769   2.512
 4525W        W72743  36.348  33.951   4.692
 4526W        W72744  43.659  32.360  13.931
 4527W        W72745   0.358  17.127  10.692
 4528W        W72746  23.299   1.900   4.063
 4529W        W72747  28.702  26.615  11.926
 4530W        W72748  17.984   2.497  14.632
 4531W        W72749  26.110  31.535  13.247
 4532W        W72750  44.499   8.141   2.254
 4533W        W72751  12.288   6.944   1.917
 4534W        W72752  31.810  11.731  12.479
 4535W        W72753  32.978   6.521  13.049
 4536W        W72754   9.676  21.693  13.026
 4537W        W72755  31.274  19.548   0.327
 4538W        W72756  39.794  37.646  11.925
 4539W        W72757  25.876  43.821   3.731
 4540W        W72758   3.761  37.435  11.698
 4541W        W72759  41.764   0.771  12.585
 4542W        W72760  21.476  24.830   4.235
 4543W        W72761  44.458  40.748   5.094
 4544W        W72762  42.039   5.415  14.434
 4545W        W72763  25.698  15.828   9.857
 4546W        W72764   1.616  13.781  11.385
 4547W        W72765   2.850   8.158   3.611
 4548W        W72766  31.545  37.315  12.815
 4549W        W72767  21.231  36.023   0.249
 4550W        W72768   9.841  13.261   4.175
 4551W        W72769  23.811  24.540  10.210
 4552W        W72770  11.551  23.726   0.414
 4553W        W72771  34.981  10.130   1.726
 4554W        W72772  36.298  13.839   3.950
 4555W        W72773   0.877  11.668   4.378
 4556W        W72774  12.167  26.077  10.769
 4557W        W72775  23.107   0.489  12.677
 4558W        W72776  44.513  37.454  10.807
 4559W        W72777  35.863  28.149  11.913
 4560W        W72778   9.808  21.718  10.696
 4561W        W72779   6.329  32.987   0.435
 4562W        W72780  37.885  14.362  10.607
 4563W        W72781   7.961  32.980  13.378
 4564W        W72782  35.893  43.247   0.898
 4565W        W72783  40.425  14.458   0.141
 4566W        W72784  14.661   4.709  14.923
 4567W        W72785  17.423  16.291  13.811
 4568W        W72786   2.298  24.462  12.831
 4569W        W72787  23.246  10.916   4.544
 4570W        W72788  35.401  42.686  12.736
 4571W        W72789   5.282  37.347  12.479
 4572W        W72790  34.923  29.595  13.309
 4573W        W72791  34.914  41.366   0.445
 4574W        W72792  25.229   8.337   0.324
 4575W        W72793  19.430  33.088  13.350
 4576W        W72794  32.029  33.664  14.979
 4577W        W72795  10.436  15.828  10.205
 4578W        W72796  32.355  21.995   1.547
 4579W        W72797   5.205  29.019  11.620
 4580W        W72798  38.815  33.589   1.900
 4581W        W72799  44.317  27.041   3.773
 4582W        W72800  28.645  38.387   3.739
 4583W        W72801  27.920   0.988  12.126
 4584W        W72802  36.335  14.551  10.966
 4585W        W72803   2.595  39.924  11.729
 4586W        W72804  29.499  43.823   3.851
 4587W        W72805  35.217  28.251   4.595
 4588W        W72806   6.221  28.304  13.498
 4589W        W72807  23.724  27.114  13.609
 4590W        W72808   8.412  40.652   2.204
 4591W        W72809  15.378  37.412  12.844
 4592W        W72810  27.504  39.831  14.536
 4593W        W72811  44.546  16.263   3.060
 4594W        W72812  20.489  23.900  14.740
 4595W        W72813  32.967   1.027  12.199
 4596W        W72814   5.098  25.582  13.349
 4597W        W72815  10.584  32.582  12.158
 4598W        W72816  24.553  18.685   2.236
 4599W        W72817  43.194  32.558   4.659
 4600W        W72818  19.317  26.358  13.821
 4601W        W72819  17.300   1.829  14.446
 4602W        W72820  44.371  21.233   4.095
 4603W        W72821  23.978  35.103  12.175
 4604W        W72822   7.025  27.437  11.629
 4605W        W72823  34.492  20.591  14.234
 4606W        W72824   6.943  28.996   3.246
 4607W        W72825   5.839  28.621   1.415
 4608W        W72826  19.675  23.233  13.917
 4609W        W72827  12.746  33.076  12.016
 4610W        W72828  37.828  43.309  14.453
 4611W        W72829  31.693  17.173   4.911
 4612W        W72830  36.385  13.570   1.111
 4613W        W72831   4.869   9.673   4.448
 4614W        W72832   0.278  44.504   0.541
 4615W        W72833   2.946  22.651   2.903
 4616W        W72834  39.783  33.531  12.300
 4617W        W72835  39.447  12.096  10.458
 4618W        W72836   2.936   1.206   1.820
 4619W        W72837  16.256   6.646   2.658
 4620W        W72838  17.358   8.331  11.447
 4621W        W72839  35.531  19.827   1.057
 4622W        W72840  18.034   2.431  11.700
 4623W        W72841  36.490   3.265   0.042
 4624W        W72842  31.069  39.702   9.759
 4625W        W72843  37.439  24.043  13.377
 4626W        W72844  31.016  39.885   1.377
 4627W        W72845  39.837  19.182  14.869
 4628W        W72846  33.626   8.372   3.250
 4629W        W72847  17.138  10.940  14.349
 4630W        W72848   1.443   2.898   0.483
 4631W        W72849  31.933  28.997  13.331
 4632W        W72850   5.194   4.658   0.283
 4633W        W72851  16.206  21.669   2.299
 4634W        W72852   1.289   1.666  14.290
 4635W        W72853  39.316   1.779   5.198
 4636W        W72854  36.061  14.741   2.301
 4637W        W72855  20.021   7.719   0.362
 4638W        W72856  12.122  14.717  14.476
 4639W        W72857  40.589  10.885   2.802
 4640W        W72858  13.311   3.338  10.376
 4641W        W72859  15.967  22.163   4.388
 4642W        W72860   3.350  37.743   0.462
 4643W        W72861   9.790  33.543  10.651
 4644W        W72862  10.392  42.736   0.493
 4645W        W72863  42.019  25.541   2.223
 4646W        W72864   6.198  14.742  12.454
 4647W        W72865   0.296  10.004   0.389
 4648W        W72866  40.414  35.810  11.636
 4649W        W72867  41.483   9.765   2.393
 4650W        W72868  42.506  34.237  13.070
 4651W        W72869  44.541  27.995  13.840
 4652W        W72870   3.362   2.952  11.805
 4653W        W72871   9.859  36.616   3.852
 4654W        W72872  13.755  17.756  14.201
 4655W        W72873   1.301  12.879   1.116
 4656W        W72874   8.788  18.003   3.643
 4657W        W72875  36.978  10.211   4.060
 4658W        W72876  32.577   4.185   1.402
 4659W        W72877  36.784   5.607   1.163
 4660W        W72878  30.505  27.727  13.431
 4661W        W72879  18.462  38.398   4.340
 4662W        W72880  29.985  34.940   4.124
 4663W        W72881  32.066   2.324   4.621
 4664W        W72882  40.737  18.550   2.788
 4665W        W72883  14.022   5.762   4.150
 4666W        W72884  24.041   7.268  13.496
 4667W        W72885  11.126  28.674   0.340
 4668W        W72886  22.855  26.626   1.136
 4669W        W72887  30.686  21.586  13.628
 4670W        W72888  16.138   4.728   4.319
 4671W        W72889  42.936  28.604  11.488
 4672W        W72890  41.582  23.706   4.180
 4673W        W72891  10.652  36.636  11.295
 4674W        W72892   1.244   8.618  11.282
 4675W        W72893  30.211  28.589  11.043
 4676W        W72894  36.219  40.731   4.939
 4677W        W72895  38.033  31.390  12.968
 4678W        W72896  42.064  37.108   0.871
 4679W        W72897   3.228  25.842   3.523
 4680W        W72898  16.615  15.146   0.114
 4681W        W72899  22.462   9.252   0.473
 4682W        W72900  28.012  26.640   0.890
 4683W        W72901   5.490  26.491   2.872
 4684W        W72902  15.213   2.196  14.735
 4685W        W72903  38.315  36.355  12.217
 4686W        W72904   5.678   6.157  13.919
 4687W        W72905   0.687   5.183   3.968
 4688W        W72906  29.034  17.402   1.396
 4689W        W72907  35.491   3.466   0.748
 4690W        W72908  22.480   9.621   1.341
 4691W        W72909  22.836   0.366  13.097
 4692W        W72910  18.564  18.627   0.292
 4693W        W72911  40.839   2.991  11.193
 4694W        W72912  33.383  44.071   2.723
 4695W        W72913  21.311  10.650   0.281
 4696W        W72914  37.854   6.762   2.712
 4697W        W72915  20.166  21.637  10.720
 4698W        W72916  19.255  35.223   3.210
 4699W        W72917  26.781  17.232  14.010
 4700W        W72918  40.620  25.449   0.348
 4701W        W72919  19.928   9.524  12.751
 4702W        W72920  31.914   0.634   2.650
 4703W        W72921   0.636  10.828   0.795
 4704W        W72922  21.696  27.444  13.452
 4705W        W72923  22.136   8.923   2.451
 4706W        W72924  14.596  40.161   0.100
 4707W        W72925  21.160  36.871   0.334
 4708W        W72926  28.283  18.226  12.060
 4709W        W72927  32.058   6.690   0.211
 4710W        W72928  10.240  35.456  12.007
 4711W        W72929  33.569  12.534  13.671
 4712W        W72930   8.297   8.495  13.494
 4713W        W72931  12.727  35.678  14.025
 4714W        W72932  42.016  10.165  10.686
 4715W        W72933  43.962  43.537  12.717
 4716W        W72934  38.782  12.958  12.371
 4717W        W72935   2.695   2.260  11.024
 4718W        W72936  23.472   9.381  13.374
 4719W        W72937  17.638  38.555   3.224
 4720W        W72938  33.340   2.630   0.274
 4721W        W72939  15.383  26.266  12.928
 4722W        W72940   4.381  13.356   4.180
 4723W        W72941  30.872  40.928  11.304
 4724W        W72942  32.445  32.870  14.599
 4725W        W72943  31.707  19.858   5.185
 4726W        W72944  21.738   5.976   2.397
 4727W        W72945  11.325   8.822  13.585
 4728W        W72946  29.010  27.532  14.230
 4729W        W72947   8.262  44.651  12.154
 4730W        W72948   1.333  19.789   2.224
 4731W        W72949  17.255  11.268  13.338
 4732W        W72950  39.948  33.087   3.675
 4733W        W72951  18.642   7.327  13.547
 4734W        W72952  29.102   7.088  12.427
 4735W        W72953  11.440  27.653  12.879
 4736W        W72954  32.356  19.323  12.905
 4737W        W72955  22.339  42.551  11.504
 4738W        W72956  40.263   7.923  12.967
 4739W        W72957   7.392  39.998  13.621
 4740W        W72958  30.878  23.543   0.363
 4741W        W72959  11.023  40.387   1.647
 4742W        W72960   0.249   0.378  14.605
 4743W        W72961   7.238  20.535  14.383
 4744W        W72962   7.772  40.291  13.837
 4745W        W72963  13.113  22.188  11.120
 4746W        W72964  16.392  37.590  12.948
 4747W        W72965  27.697   5.794  14.916
 4748W        W72966  16.675  40.563   2.904
 4749W        W72967  15.625  29.063   4.067
 4750W        W72968  38.569  41.723  12.995
 4751W        W72969  21.418   5.779   2.872
 4752W        W72970  44.920   7.789   3.677
 4753W        W72971   3.151  11.606  13.489
 4754W        W72972   8.897  12.283  14.421
 4755W        W72973  44.713  22.212  14.914
 4756W        W72974   8.627   8.713   3.186
 4757W        W72975  14.263  38.852  13.785
 4758W        W72976   3.852  36.610   0.323
 4759W        W72977  27.489   8.364  14.826
 4760W        W72978  39.244  30.574   3.280
 4761W        W72979  10.447  28.613  10.282
 4762W        W72980  31.868   9.620  14.788
 4763W        W72981  10.154  18.835   2.558
 4764W        W72982  30.018  30.397  11.667
 4765W        W72983  41.447  42.116   0.395
 4766W        W72984   7.383  43.134   5.047
 4767W        W72985  20.531  33.933  12.713
 4768W        W72986  33.934  39.768   1.343
 4769W        W72987  13.284  31.968   4.983
 4770W        W72988  15.934   3.190   3.198
 4771W        W72989  37.159  13.368  14.082
 4772W        W72990  16.724   7.660  10.597
 4773W        W72991  23.502   7.776   0.219
 4774W        W72992  34.888  11.650   3.609
 4775W        W72993  43.369  15.703  10.286
 4776W        W72994  14.447  12.047  11.498
 4777W        W72995  38.370   5.641   3.297
 4778W        W72996  14.291  42.958   5.371
 4779W        W72997  34.314  38.739  10.619
 4780W        W72998  37.541  36.463   3.355
 4781W        W72999   9.720  25.088   0.735
 4782W        W73000  22.127  24.588  10.612
 4783W        W73001  28.118   9.750  10.575
 4784W        W73002  11.297  27.386  11.288
 4785W        W73003  32.811   2.833  12.484
 4786W        W73004  36.408   7.931  11.529
 4787W        W73005   6.196  22.680  14.045
 4788W        W73006  20.117  12.796   3.617
 4789W        W73007  28.268   6.257   1.686
 4790W        W73008  12.938  18.617  11.650
 4791W        W73009  23.785   9.239  11.597
 4792W        W73010  12.962   9.183   5.034
 4793W        W73011  20.483  27.156   4.386
 4794W        W73012  43.022  33.663   0.771
 4795W        W73013   3.101  20.409   1.870
 4796W        W73014   5.695  40.748   2.657
 4797W        W73015  21.583  38.570   3.811
 4798W        W73016  13.811  12.608   4.289
 4799W        W73017  34.163  25.885  12.948
 4800W        W73018  14.314  29.681  12.528
 4801W        W73019  14.641  24.123   3.669
 4802W        W73020  27.715  35.320  12.537
 4803W        W73021   3.659  27.644  13.501
 4804W        W73022  11.269  42.717   4.503
 4805W        W73023  16.096   8.968   3.248
 4806W        W73024  35.229   6.332  10.990
 4807W        W73025  34.706  30.150  12.535
 4808W        W73026  14.410  28.943  13.876
 4809W        W73027  13.106  12.164  13.910
 4810W        W73028  22.128  33.152   4.434
 4811W        W73029  32.604  39.017   2.957
 4812W        W73030  30.627  27.979   0.383
 4813W        W73031  29.522  25.410   2.176
 4814W        W73032  36.376  20.610  11.133
 4815W        W73033  21.442  31.979   2.808
 4816W        W73034   4.772  40.076   1.928
 4817W        W73035   3.351   9.731  14.226
 4818W        W73036  14.873   2.820   0.830
 4819W        W73037  24.221  37.589  14.357
 4820W        W73038   3.487  39.256  12.525
 4821W        W73039  12.226   4.968  12.000
 4822W        W73040  39.380  26.534  13.118
 4823W        W73041   6.146  33.506  11.183
 4824W        W73042  13.752  39.431   1.503
 4825W        W73043  43.445  24.952  10.630
 4826W        W73044   4.675   3.687  14.892
 4827W        W73045  12.135  25.027   3.936
 4828W        W73046  43.888  44.846   3.073
 4829W        W73047   2.645  40.707   0.264
 4830W        W73048   7.355   7.946  14.361
 4831W        W73049  25.096  34.544   3.757
 4832W        W73050  15.281  38.477   2.803
 4833W        W73051  42.485  37.969   2.905
 4834W        W73052  10.931  26.517   4.519
 4835W        W73053   9.864   4.243  10.377
 4836W        W73054  28.863   2.597  11.916
 4837W        W73055  24.979  23.965   2.793
 4838W        W73056   4.434  19.146   4.188
 4839W        W73057  17.120  13.665  11.029
 4840W        W73058  26.103   0.489   0.654
 4841W        W73059  12.140  39.583  14.384
 4842W        W73060  22.978  12.109  11.570
 4843W        W73061  19.246  28.098  13.359
 4844W        W73062  10.285  13.507  13.061
 4845W        W73063  35.412  26.175   0.274
 4846W        W73064   4.598  40.871   2.694
 4847W        W73065  27.744  29.426   4.359
 4848W        W73066  35.087  38.766  12.842
 4849W        W73067   9.704  24.509  11.593
 4850W        W73068   7.335  35.262   2.898
 4851W        W73069  17.568  35.603  14.305
 4852W        W73070  22.050  16.578   2.792
 4853W        W73071  41.915  14.563   3.629
 4854W        W73072   8.725  39.622   1.340
 4855W        W73073  40.015   5.419  10.474
 4856W        W73074  27.053  42.058  13.416
 4857W        W73075  19.368  22.083   2.425
 4858W        W73076   1.733  28.634  13.478
 4859W        W73077  29.552  23.593  10.213
 4860W        W73078  22.228  22.111   4.029
 4861W        W73079  22.368  36.544   2.488
 4862W        W73080  14.247  27.577  12.873
 4863W        W73081  29.567  42.538  13.105
 4864W        W73082  12.179  42.078   2.212
 4865W        W73083  17.098  12.966  10.384
 4866W        W73084  24.019  19.580   9.767
 4867W        W73085  25.161   0.298  11.660
 4868W        W73086  20.770  30.508   2.464
 4869W        W73087  22.321  11.245  10.726
 4870W        W73088  35.183  10.214   3.669
 4871W        W73089  43.113  13.927   0.382
 4872W        W73090  40.401   7.292   4.590
 4873W        W73091  39.610  19.565   1.493
 4874W        W73092   1.780  13.719  12.764
 4875W        W73093  26.240  15.232   1.776
 4876W        W73094  42.787   0.320  13.338
 4877W        W73095   8.024  29.994  13.284
 4878W        W73096   9.719  27.113   1.157
 4879W        W73097  37.405  15.664  14.412
 4880W        W73098  44.441  19.612   2.797
 4881W        W73099  30.091   2.219  10.930
 4882W        W73100   8.468  17.326  10.297
 4883W        W73101   7.584  18.679   1.292
 4884W        W73102  32.052  18.999   3.200
 4885W        W73103  21.568  18.521  14.392
 4886W        W73104  35.509  34.481  10.454
 4887W        W73105  29.515  22.772   5.044
 4888W        W73106  32.079   1.213  14.896
 4889W        W73107  34.700   5.602  10.386
 4890W        W73108  31.410  22.540   0.410
 4891W        W73109  11.804   9.284  10.398
 4892W        W73110  42.733  40.903   3.746
 4893W        W73111  16.729  36.870   4.622
 4894W        W73112  20.915  34.846  12.049
 4895W        W73113  26.436   8.631   1.977
 4896W        W73114  14.834  31.807   1.315
 4897W        W73115   4.300   3.945   4.854
 4898W        W73116  20.115  34.036  13.057
 4899W        W73117  23.280   9.348  11.570
 4900W        W73118  32.982  14.458   0.278
 4901W        W73119   0.979  22.112  12.889
 4902W        W73120  39.305  14.711  12.624
 4903W        W73121   4.432  13.796   1.734
 4904W        W73122  21.307  32.378   1.384
 4905W        W73123  17.609  44.246   1.641
 4906W        W73124  37.490  12.443   2.283
 4907W        W73125  19.622  37.685   2.896
 4908W        W73126  24.139  10.826  12.925
 4909W        W73127  43.338  19.268  12.595
 4910W        W73128   3.511  10.261   4.717
 4911W        W73129   6.148  34.877  13.939
 4912W        W73130  43.999  34.531   1.575
 4913W        W73131  27.589  38.441  14.806
 4914W        W73132  21.441  15.914  14.430
 4915W        W73133  31.143  38.910   1.415
 4916W        W73134   2.432   8.371  12.505
 4917W        W73135   2.664  14.319   2.319
 4918W        W73136   4.085  42.422   9.817
 4919W        W73137  33.852  29.186   2.442
 4920W        W73138  20.214  44.288   3.147
 4921W        W73139  20.675  28.384  12.872
 4922W        W73140  24.037  10.474   9.889
 4923W        W73141  29.929  20.710   3.844
 4924W        W73142  35.633  12.204  13.811
 4925W        W73143  29.967  43.960   0.458
 4926W        W73144  41.190  25.666   1.937
 4927W        W73145  21.012  29.798   4.185
 4928W        W73146  34.681   8.781   4.989
 4929W        W73147   0.001  11.788   4.534
 4930W        W73148  22.729   5.091  13.766
 4931W        W73149  11.108  11.032   3.301
 4932W        W73150  23.945  28.277   4.567
 4933W        W73151  32.655  40.417   1.308
 4934W        W73152   8.120   9.972  14.267
 4935W        W73153  25.173   8.751  10.513
 4936W        W73154  27.033  43.557  14.367
 4937W        W73155  30.482  16.246  10.892
 4938W        W73156  15.283  15.350  12.415
 4939W        W73157  16.649  20.716   3.436
 4940W        W73158  43.772  35.045   1.785
 4941W        W73159  10.164  20.195  14.183
 4942W        W73160  11.132  32.697  14.336
 4943W        W73161  31.355   2.785   9.873
 4944W        W73162  19.279   7.409  12.048
 4945W        W73163  30.059  43.988   4.439
 4946W        W73164   7.461  34.801   4.213
 4947W        W73165  14.885  39.630   3.729
 4948W        W73166  17.582  43.848   2.752
 4949W        W73167  30.946  38.544   3.597
 4950W        W73168   4.993  27.051  10.171
 4951W        W73169  13.136  36.533  14.393
 4952W        W73170  18.916  33.528   1.400
 4953W        W73171   8.947  22.276  13.514
 4954W        W73172  32.910  42.523   0.399
 4955W        W73173  24.610  30.451   4.102
 4956W        W73174  11.253  18.538   3.170
 4957W        W73175  15.166  37.803   1.403
 4958W        W73176   4.076  42.562   4.120
 4959W        W73177  24.828   0.619   0.395
 4960W        W73178  16.076  41.316  11.525
 4961W        W73179  44.542  29.866   2.918
 4962W        W73180  30.884  32.234  11.850
 4963W        W73181  33.040   7.310  11.969
 4964W        W73182  26.860  20.962  12.953
 4965W        W73183   0.786  22.036   3.520
 4966W        W73184  23.995  34.571  10.612
 4967W        W73185  38.715  43.484  14.579
 4968W        W73186  25.879   1.459  11.835
 4969W        W73187  13.347  15.487   1.756
 4970W        W73188  34.891   6.159   2.896
 4971W        W73189  23.513  24.186   2.798
 4972W        W73190  26.337   8.829  10.296
 4973W        W73191  19.220  18.248   3.682
 4974W        W73192  35.475  30.322  12.875
 4975W        W73193  38.507  35.292   2.284
 4976W        W73194  17.097  10.350   2.293
 4977W        W73195  35.018  24.191  13.056
 4978W        W73196  15.832  33.806  11.947
 4979W        W73197  41.887   5.883   2.830
 4980W        W73198  29.805   5.097   1.869
 4981W        W73199  32.595   1.856   3.864
 4982W        W73200  17.316  39.592  10.660
 4983W        W73201  16.481  27.094  11.646
 4984W        W73202  16.738  29.412   3.766
 4985W        W73203  11.735  19.815   0.383
 4986W        W73204  35.170  15.318   3.673
 4987W        W73205  34.342   7.396   2.785
 4988W        W73206  24.127  41.231  13.913
 4989W        W73207  29.709  11.214   4.461
 4990W        W73208  29.941   1.510   1.285
 4991W        W73209  19.086   8.384   4.685
 4992W        W73210  42.831  39.332   0.452
 4993W        W73211  20.572  32.002   1.829
 4994W        W73212  42.980  11.533   1.153
 4995W        W73213  18.090   8.687   2.756
 4996W        W73214   3.241  16.484  12.046
 4997W        W73215  10.662   5.398   4.070
 4998W        W73216  18.165  44.904   4.363
 4999W        W73217  40.081  35.441  14.409
 5000W        W73218  33.963  11.228   3.638
 5001W        W73219  10.844  16.964   0.128
 5002W        W73220  43.698   0.781   0.981
 5003W        W73221   3.816  10.827  14.856
 5004W        W73222   7.853  10.082  11.529
 5005W        W73223  35.263  20.275   3.069
 5006W        W73224  20.194  12.209   0.412
 5007W        W73225  23.559  20.382  11.487
 5008W        W73226  31.898  34.630  13.352
 5009W        W73227  16.535  21.812  12.205
 5010W        W73228  19.255   2.964   2.305
 5011W        W73229  33.517  18.245  12.116
 5012W        W73230  30.153  32.769  12.658
 5013W        W73231  12.156   5.705   4.881
 5014W        W73232  28.112  10.829  12.360
 5015W        W73233  20.673  11.857  12.884
 5016W        W73234  18.570  16.075   9.706
 5017W        W73235  16.156  32.132   1.202
 5018W        W73236  40.556  30.643   3.712
 5019W        W73237   9.792  23.993   4.764
 5020W        W73238   5.546  37.192   0.235
 5021W        W73239  32.992  37.091   3.632
 5022W        W73240   8.086  17.090  11.261
 5023W        W73241   4.348   9.773   3.028
 5024W        W73242  11.915  42.475   3.918
 5025W        W73243  40.029   4.476  11.509
 5026W        W73244  18.347   1.880  14.377
 5027W        W73245   0.826  22.777   0.844
 5028W        W73246  28.120  27.769   5.097
 5029W        W73247  23.949  26.082   1.916
 5030W        W73248   9.753   7.131   2.727
 5031W        W73249  27.951  21.561   3.092
 5032W        W73250  12.421  10.606   0.389
 5033W        W73251  12.882  19.571  11.722
 5034W        W73252  15.301   2.332  12.803
 5035W        W73253  26.827  37.816  12.458
 5036W        W73254  21.182  31.349  14.056
 5037W        W73255  24.937  35.388  12.161
 5038W        W73256   9.964   3.407   2.283
 5039W        W73257  24.592   6.654   0.448
 5040W        W73258  38.096  29.226  13.457
 5041W        W73259  29.660   0.315   3.806
 5042W        W73260  34.445  32.222  13.277
 5043W        W73261  15.575  29.017  12.963
 5044W        W73262  27.766  39.791  11.092
 5045W        W73263  36.819  24.893   0.693
 5046W        W73264   4.789  44.192   3.662
 5047W        W73265  12.882  40.721   2.196
 5048W        W73266  13.560   1.581  13.605
 5049W        W73267  30.896  18.300  13.421
 5050W        W73268  28.839  37.241   2.804
 5051W        W73269  21.027   7.990  10.535
 5052W        W73270  28.508   6.753   4.395
 5053W        W73271  36.036  26.967   3.648
 5054W        W73272  26.596  15.885   2.964
 5055W        W73273  44.992  14.569   1.791
 5056W        W73274  24.200  18.865  12.588
 5057W        W73275  23.025  16.267   1.380
 5058W        W73276   3.039  17.573  11.666
 5059W        W73277  31.009  36.757  12.083
 5060W        W73278   8.778  38.580   3.356
 5061W        W73279  35.853  39.882   0.280
 5062W        W73280  38.065  11.828   4.033
 5063W        W73281  39.926  21.743  12.413
 5064W        W73282  15.738  20.331   2.327
 5065W        W73283  39.100  27.646  14.805
 5066W        W73284  32.619  32.704  12.416
 5067W        W73285  22.007  32.520   2.256
 5068W        W73286  40.889  15.635  12.921
 5069W        W73287  21.751   4.826   3.777
 5070W        W73288  23.744  31.491   0.297
 5071W        W73289  33.371  34.481  11.542
 5072W        W73290   9.448  37.339   1.843
 5073W        W73291  11.611  33.655   2.270
 5074W        W73292  20.112  19.594   4.082
 5075W        W73293  10.774  24.115   3.179
 5076W        W73294  20.054  24.805   0.744
 5077W        W73295   5.491   5.655   1.506
 5078W        W73296  29.564  30.866  10.697
 5079W        W73297  13.630  23.080  13.815
 5080W        W73298  39.301   9.334   0.865
 5081W        W73299  14.562  16.235   0.306
 5082W        W73300  23.616  15.892   1.953
 5083W        W73301  36.581  31.929  13.490
 5084W        W73302  10.825  21.131   1.863
 5085W        W73303  40.696  32.136  10.306
 5086W        W73304  31.857  29.606  10.860
 5087W        W73305  27.677  13.572   0.805
 5088W        W73306  22.050   1.984  12.824
 5089W        W73307  29.198  36.375   2.661
 5090W        W73308  22.804   9.741  13.000
 5091W        W73309  27.808   6.439  13.259
 5092W        W73310   6.888  17.467   2.200
 5093W        W73311  29.493  22.594   2.574
 5094W        W73312   8.759  10.068  10.779
 5095W        W73313  27.545   7.156   4.551
 5096W        W73314   2.473  42.211   3.688
 5097W        W73315  40.838   9.955  13.590
 5098W        W73316  31.177   5.441   5.218
 5099W        W73317   4.745  35.969  14.018
 5100W        W73318  18.464  34.481  11.360
 5101W        W73319  44.838  38.628  12.905
 5102W        W73320  34.601  14.913  14.445
 5103W        W73321   6.289  18.057  11.985
 5104W        W73322  10.658  27.927   3.693
 5105W        W73323  16.033  17.649   0.405
 5106W        W73324  22.280  32.793  11.289
 5107W        W73325  33.232   8.261  12.425
 5108W        W73326  44.722   9.184  14.370
 5109W        W73327  40.744  23.592   3.731
 5110W        W73328  37.815  27.426  12.442
 5111W        W73329  15.387   0.924   4.993
 5112W        W73330  34.564   1.764   4.190
 5113W        W73331  33.632  10.119   1.757
 5114W        W73332   8.883  44.878  13.871
 5115W        W73333  37.566  24.696  11.995
 5116W        W73334   7.166  27.035   1.362
 5117W        W73335   3.296  35.978   1.740
 5118W        W73336   9.771  30.456   0.901
 5119W        W73337  27.521  37.115  10.690
 5120W        W73338  14.076  20.559   4.164
 5121W        W73339   2.360  24.244   2.406
 5122W        W73340  40.519  10.321   0.783
 5123W        W73341  16.440   6.983  13.443
 5124W        W73342   5.397   0.699  11.053
 5125W        W73343  15.560  43.552  12.977
 5126W        W73344   5.829  11.323   1.969
 5127W        W73345   1.962  44.783  11.718
 5128W        W73346  38.956  26.195  12.048
 5129W        W73347  23.301  34.377   3.277
 5130W        W73348  12.362  24.442  12.467
 5131W        W73349  13.261  10.938  13.775
 5132W        W73350  16.583  21.663  12.712
 5133W        W73351  37.068  37.370   1.923
 5134W        W73352  40.877   3.319  14.868
 5135W        W73353  19.575   9.196   4.944
 5136W        W73354   2.918  16.640  14.090
 5137W        W73355  20.989  37.815  11.056
 5138W        W73356  13.574  28.729   4.888
 5139W        W73357   9.776   5.228   0.390
 5140W        W73358  43.303   5.152   4.407
 5141W        W73359  44.366  18.506  12.105
 5142W        W73360  27.552   5.871  10.755
 5143W        W73361  22.245  31.978   3.520
 5144W        W73362   2.770  25.694   3.756
 5145W        W73363  33.658  42.445  11.170
 5146W        W73364  21.642  42.819   0.988
 5147W        W73365   3.402   4.174   0.513
 5148W        W73366  40.362  36.575   0.873
 5149W        W73367  14.495  28.223   4.204
 5150W        W73368  21.625   0.494   2.879
 5151W        W73369  29.524  24.229   3.642
 5152W        W73370  36.861   3.792  12.484
 5153W        W73371   4.439   7.557  13.414
 5154W        W73372  18.596  22.535  10.788
 5155W        W73373   8.931  20.782   3.306
 5156W        W73374  30.292  14.171   2.417
 5157W        W73375  39.998  39.277  11.436
 5158W        W73376  27.968  35.899   0.462
 5159W        W73377  18.470  13.604   2.352
 5160W        W73378  23.779  43.569  11.932
 5161W        W73379  11.571  20.280   4.118
 5162W        W73380  36.109  15.153  14.897
 5163W        W73381  29.058  21.566   4.864
 5164W        W73382  23.038  10.465  11.115
 5165W        W73383  12.036   1.402  13.509
 5166W        W73384  11.103  27.438   2.603
 5167W        W73385  39.347  34.406  11.373
 5168W        W73386  19.345  40.038   2.781
 5169W        W73387  12.325  15.257   4.223
 5170W        W73388  41.633   7.154  13.658
 5171W        W73389  24.676  24.280   0.164
 5172W        W73390  37.018  42.457   4.176
 5173W        W73391  35.605  12.574  12.967
 5174W        W73392   6.635  15.653  14.809
 5175W        W73393  30.916  11.882   4.142
 5176W        W73394  13.282  39.004   3.848
 5177W        W73395  42.882  26.896  13.409
 5178W        W73396   6.000  42.453   2.797
 5179W        W73397  38.024  42.256  14.508
 5180W        W73398   6.615  24.041   2.803
 5181W        W73399  40.333  19.693   4.524
 5182W        W73400  27.011  17.539  12.865
 5183W        W73401  27.161   5.747  12.220
 5184W        W73402  11.135  33.044   4.490
 5185W        W73403  10.093   1.822   2.311
 5186W        W73404  15.095  32.606  13.843
 5187W        W73405  14.319   8.888  12.512
 5188W        W73406  33.145  39.932  14.368
 5189W        W73407   1.462  31.036   3.836
 5190W        W73408   3.841   9.353  11.331
 5191W        W73409   5.173  33.749  12.264
 5192W        W73410  25.222  29.161   0.481
 5193W        W73411   6.838  42.815  11.961
 5194W        W73412   4.994  30.104   4.146
 5195W        W73413   3.182  36.646   3.767
 5196W        W73414   8.759   1.305   3.171
 5197W        W73415   2.087   1.495   1.834
 5198W        W73416  37.167  22.265  14.754
 5199W        W73417   4.082  17.077  14.011
 5200W        W73418  26.410  22.181   2.785
 5201W        W73419   9.681  34.572   4.238
 5202W        W73420  21.154  24.757   2.943
 5203W        W73421  37.927  37.779  12.144
 5204W        W73422  21.314  37.342   2.201
 5205W        W73423  18.572  17.273  11.251
 5206W        W73424   5.282  19.415   2.753
 5207W        W73425  10.723  14.844  10.879
 5208W        W73426  24.679  19.672   1.914
 5209W        W73427  19.647  36.864   3.710
 5210W        W73428  33.030  12.861  13.842
 5211W        W73429  43.447  34.430  11.964
 5212W        W73430   3.947   5.704  12.453
 5213W        W73431  27.505  42.603   4.673
 5214W        W73432  28.562  30.166   4.564
 5215W        W73433  12.678  20.679   0.786
 5216W        W73434  40.430  23.553   1.267
 5217W        W73435  27.070  37.607   2.915
 5218W        W73436   8.960   9.358  11.994
 5219W        W73437  14.055   9.223  10.767
 5220W        W73438  23.136  23.571  10.919
 5221W        W73439   1.397   8.357  14.361
 5222W        W73440  16.615  21.929   2.509
 5223W        W73441  36.033   8.392   2.282
 5224W        W73442  16.750  26.160  12.856
 5225W        W73443  26.990  27.671  14.283
 5226W        W73444  39.033   8.354   2.245
 5227W        W73445  30.949  25.565  13.755
 5228W        W73446  26.069  41.155   2.635
 5229W        W73447  35.448   4.217  14.876
 5230W        W73448   1.256  43.918   0.780
 5231W        W73449  21.523  41.984   3.954
 5232W        W73450  12.291  34.167  13.376
 5233W        W73451  14.218  37.467   3.105
 5234W        W73452  10.869   0.498   4.001
 5235W        W73453  36.966  19.117  12.089
 5236W        W73454  25.575  13.918   1.207
 5237W        W73455  12.818   3.837   3.922
 5238W        W73456  11.268  38.392   0.196
 5239W        W73457   1.004  18.099  14.916
 5240W        W73458   4.087  34.359   1.381
 5241W        W73459  41.024  38.527  12.037
 5242W        W73460   9.800   0.730   2.901
 5243W        W73461  17.581  11.694  13.444
 5244W        W73462  18.765  27.945  10.716
 5245W        W73463  29.119  35.252  12.420
 5246W        W73464  30.346  38.037  11.461
 5247W        W73465   3.814   6.845   2.340
 5248W        W73466   9.447   3.987   3.031
 5249W        W73467  12.717  23.548   0.389
 5250W        W73468  33.597   0.662  13.119
 5251W        W73469   5.749  19.259  10.803
 5252W        W73470   1.525  30.056   4.174
 5253W        W73471  42.774  16.420  12.872
 5254W        W73472  33.549  23.312  12.167
 5255W        W73473  30.358  19.025   2.659
 5256W        W73474  29.419  29.555   2.652
 5257W        W73475  41.755  34.072  13.334
 5258W        W73476  41.928  31.241   4.831
 5259W        W73477  31.462  30.919   2.327
 5260W        W73478  26.548  25.189   5.494
 5261W        W73479   8.872  44.703   0.293
 5262W        W73480  44.561  33.906   3.647
 5263W        W73481  41.467  29.358   3.405
 5264W        W73482   6.792  44.855   0.878
 5265W        W73483   8.473  27.781  12.212
 5266W        W73484  19.174  34.532  13.741
 5267W        W73485  38.566   8.821   0.391
 5268W        W73486  16.653  41.342  12.638
 5269W        W73487   2.645   6.313  12.136
 5270W        W73488   8.295   6.996   2.771
 5271W        W73489   6.760  33.879  13.877
 5272W        W73490  32.698  20.741  13.051
 5273W        W73491  13.665  36.514  14.128
 5274W        W73492   9.188  28.164  11.035
 5275W        W73493  11.774   5.107  14.924
 5276W        W73494  25.319  41.391  13.363
 5277W        W73495  24.587   0.512   4.644
 5278W        W73496  35.577  35.177  13.924
 5279W        W73497   7.833  44.538   2.443
 5280W        W73498  22.733  19.632  10.964
 5281W        W73499  44.190   2.365   4.719
 5282W        W73500   5.699   7.591   0.525
 5283W        W73501  37.820  28.064  14.936
 5284W        W73502  42.748   9.444   3.117
 5285W        W73503  11.383  41.923  14.008
 5286W        W73504   1.758  39.487  14.596
 5287W        W73505  10.763  44.431   2.170
 5288W        W73506  26.968  26.538   2.251
 5289W        W73507  40.003  33.420  13.249
 5290W        W73508  21.625  41.758   1.859
 5291W        W73509   5.687  28.138  14.365
 5292W        W73510   9.637  17.407  13.071
 5293W        W73511  12.850  34.530  12.528
 5294W        W73512  19.221  33.071   3.585
 5295W        W73513  33.146  23.550   4.593
 5296W        W73514  38.403   3.010   4.571
 5297W        W73515  29.064   3.013   5.057
 5298W        W73516  20.885  19.839  10.416
 5299W        W73517  38.888  29.160   2.686
 5300W        W73518  15.116  15.217   3.676
 5301W        W73519  40.074  19.558  11.606
 5302W        W73520  42.030  12.025   2.697
 5303W        W73521   8.224   0.905   0.219
 5304W        W73522   5.383   6.711   2.746
 5305W        W73523  13.852  12.089  13.526
 5306W        W73524  41.553  41.365   2.780
 5307W        W73525  37.312  11.272   3.668
 5308W        W73526  41.008   6.731   0.858
 5309W        W73527   0.729  23.158   3.660
 5310W        W73528  23.467  23.645   0.445
 5311W        W73529  36.637   2.385  13.433
 5312W        W73530  13.202  11.773  11.990
 5313W        W73531  40.437  15.167   4.647
 5314W        W73532  29.514  24.732   3.622
 5315W        W73533  20.406  27.643  11.541
 5316W        W73534  30.876  42.924  14.372
 5317W        W73535  19.868  23.697  12.046
 5318W        W73536  30.745  24.753  12.118
 5319W        W73537  18.618  37.566  14.531
 5320W        W73538  26.718   5.079   1.900
 5321W        W73539   2.427  44.508  14.350
 5322W        W73540  13.401   2.940   0.719
 5323W        W73541  31.122  43.903   4.436
 5324W        W73542  24.055  31.905  12.284
 5325W        W73543   6.168  31.960   2.288
 5326W        W73544  27.914   2.198   0.749
 5327W        W73545  14.335  22.604  10.788
 5328W        W73546  26.976   2.981  12.052
 5329W        W73547  20.438  11.902   1.275
 5330W        W73548  14.810  25.723   1.687
 5331W        W73549  28.651  20.645  11.182
 5332W        W73550   1.688  10.365   2.929
 5333W        W73551  17.467  29.925  11.997
 5334W        W73552  11.570  32.985  14.408
 5335W        W73553  29.662  15.741   0.029
 5336W        W73554  33.930   6.703  11.154
 5337W        W73555  20.528   0.504  14.984
 5338W        W73556  16.225  21.733   1.347
 5339W        W73557  21.015  32.457   2.248
 5340W        W73558  14.542  15.029  13.816
 5341W        W73559  19.054  19.873   0.388
 5342W        W73560   2.009  21.019  11.971
 5343W        W73561  40.327  29.107   2.658
 5344W        W73562  15.662  32.942   4.406
 5345W        W73563  41.080   7.288  13.620
 5346W        W73564  19.280  41.931   3.192
 5347W        W73565  15.639  25.637   5.004
 5348W        W73566  43.562  10.229   1.891
 5349W        W73567  13.321  27.857   3.214
 5350W        W73568  44.882  22.590   3.318
 5351W        W73569   0.442  21.226  13.350
 5352W        W73570   4.249  19.085  12.097
 5353W        W73571  26.647  10.564  13.153
 5354W        W73572  36.998  10.723   3.939
 5355W        W73573   3.162  12.711   1.400
 5356W        W73574  18.755  31.941   3.610
 5357W        W73575   5.903  27.673   3.331
 5358W        W73576  13.135  31.462  13.787
 5359W        W73577  11.183  11.987  14.040
 5360W        W73578  38.632  26.112   0.618
 5361W        W73579  37.589  24.938  13.528
 5362W        W73580  28.591  16.924   4.036
 5363W        W73581  23.217  13.409   1.261
 5364W        W73582   7.278   8.392   2.619
 5365W        W73583  37.833  21.806  13.007
 5366W        W73584   7.392   9.724   1.191
 5367W        W73585  39.135   4.405  12.654
 5368W        W73586  28.716  29.991   2.302
 5369W        W73587  21.099  15.602   2.319
 5370W        W73588   1.019  10.686  13.294
 5371W        W73589  17.301  13.771   1.415
 5372W        W73590  27.215   4.047   4.111
 5373W        W73591   1.801  31.404   2.350
 5374W        W73592  14.509  12.318   1.466
 5375W        W73593  38.139  11.307  11.979
 5376W        W73594  35.896  41.109  13.013
 5377W        W73595   2.858  40.417   2.656
 5378W        W73596   7.835   3.864   1.228
 5379W        W73597  19.631  31.672   3.937
 5380W        W73598  12.116  25.153   0.914
 5381W        W73599   2.977  30.166  12.169
 5382W        W73600   0.987   8.988  14.916
 5383W        W73601  37.165  25.724  11.989
 5384W        W73602  40.349  30.968   4.057
 5385W        W73603  33.408  24.734  11.094
 5386W        W73604   7.845  20.441   4.200
 5387W        W73605   8.654  14.602  14.392
 5388W        W73606  44.716  44.501   0.925
 5389W        W73607  25.640  23.106  11.632
 5390W        W73608  17.225  10.911  10.667
 5391W        W73609   0.436  29.142   2.198
 5392W        W73610  21.388  19.012  14.331
 5393W        W73611  36.110  13.164   0.700
 5394W        W73612   0.271  12.865  11.557
 5395W        W73613  29.372  34.698   2.773
 5396W        W73614  21.399   9.139   0.902
 5397W        W73615  38.790  20.225   2.189
 5398W        W73616  22.643  10.282  13.600
 5399W        W73617  14.384   4.360  11.909
 5400W        W73618  32.344  36.854  13.841
 5401W        W73619  13.837  42.411  10.278
 5402W        W73620  24.991   7.917   3.768
 5403W        W73621   7.121  42.916   3.148
 5404W        W73622  34.018  20.022   2.609
 5405W        W73623  43.293  15.442   0.438
 5406W        W73624   0.692  18.090  11.796
 5407W        W73625  23.920  41.780   2.667
 5408W        W73626  27.133   1.907  14.977
 5409W        W73627   0.779   6.144   0.870
 5410W        W73628  41.862  13.768   4.258
 5411W        W73629  17.166  44.680  11.087
 5412W        W73630  27.349  33.876   3.208
 5413W        W73631   9.523   8.864  10.394
 5414W        W73632  11.045  34.808   1.699
 5415W        W73633  39.090  16.993   4.168
 5416W        W73634  40.353  21.308  13.936
 5417W        W73635  15.471  22.093   4.382
 5418W        W73636  24.682  40.945   3.675
 5419W        W73637  18.273   5.159  13.643
 5420W        W73638  26.623   6.014  14.556
 5421W        W73639  33.146  22.823   0.999
 5422W        W73640  43.577  15.670  12.399
 5423W        W73641  27.092  19.255   1.892
 5424W        W73642  42.799   3.387  10.756
 5425W        W73643  33.454  17.024  14.004
 5426W        W73644  44.396  15.572   1.900
 5427W        W73645  13.442   9.861   2.953
 5428W        W73646  40.028   8.672  10.775
 5429W        W73647  32.080  29.139   4.702
 5430W        W73648  24.824  11.167   3.294
 5431W        W73649  28.616  18.173   2.645
 5432W        W73650  42.362  40.068   0.135
 5433W        W73651  20.202  43.721  12.564
 5434W        W73652  33.971  35.657   0.124
 5435W        W73653   1.241  16.127  14.340
 5436W        W73654  43.526  11.259  12.181
 5437W        W73655  32.878  20.126   3.817
 5438W        W73656  22.708  31.500   0.503
 5439W        W73657   2.991   2.018  11.997
 5440W        W73658  35.017   4.248  11.561
 5441W        W73659  11.094   4.835  14.134
 5442W        W73660  25.203  38.341   3.267
 5443W        W73661  22.752  20.559   1.796
 5444W        W73662   3.374  17.470   1.783
 5445W        W73663  26.578  31.417  13.449
 5446W        W73664  29.024  17.992  12.704
 5447W        W73665  36.453  29.923   4.156
 5448W        W73666  31.471  30.175  13.754
 5449W        W73667  12.248  43.892   2.175
 5450W        W73668   1.953  28.405  11.153
 5451W        W73669  35.126  35.935  10.249
 5452W        W73670   0.183   4.044  12.205
 5453W        W73671  36.390  39.983  11.270
 5454W        W73672  41.047  42.007  13.921
 5455W        W73673  38.998  27.097   2.594
 5456W        W73674   2.090  29.660   4.518
 5457W        W73675  30.471  39.413   0.028
 5458W        W73676  41.049   3.157   4.979
 5459W        W73677   8.400  31.305  10.576
 5460W        W73678  41.170   5.904  11.422
 5461W        W73679  27.233  18.192   0.887
 5462W        W73680   2.201   8.007  11.189
 5463W        W73681   3.892   1.303  14.018
 5464W        W73682   4.871  26.206   3.302
 5465W        W73683  12.932   9.093  13.442
 5466W        W73684  21.047   0.424   4.000
 5467W        W73685  12.602  40.721   0.741
 5468W        W73686  22.060  43.485   3.267
 5469W        W73687  24.034  30.972   3.665
 5470W        W73688  42.689  11.145   2.645
 5471W        W73689  28.898   9.675  14.825
 5472W        W73690   8.959  29.515   0.220
 5473W        W73691  32.833  22.643   2.889
 5474W        W73692  11.304  12.421   3.855
 5475W        W73693  12.892  22.517  11.546
 5476W        W73694  34.754  20.262  12.939
 5477W        W73695  24.240  13.174   1.191
 5478W        W73696   3.627  41.743   0.871
 5479W        W73697  37.386  10.724   4.746
 5480W        W73698  39.907  37.888  10.669
 5481W        W73699   2.406  39.685   3.995
 5482W        W73700   1.416  21.585   2.759
 5483W        W73701  39.227  12.581  14.134
 5484W        W73702  41.188  25.207  12.754
 5485W        W73703  28.526   2.819   1.899
 5486W        W73704  39.039  40.316  12.412
 5487W        W73705   5.976  43.306   0.631
 5488W        W73706  15.195  32.675  14.673
 5489W        W73707  32.532  13.222  14.880
 5490W        W73708  38.245   0.422  14.445
 5491W        W73709  30.190  41.910   3.832
 5492W        W73710   0.362   2.487  10.805
 5493W        W73711  41.913  29.574   1.417
 5494W        W73712  31.161  41.830   0.396
 5495W        W73713  28.689  20.788   2.261
 5496W        W73714  38.979  41.370   5.275
 5497W        W73715   5.405  33.534   1.804
 5498W        W73716  28.179  36.191  10.245
 5499W        W73717  26.018  15.500  12.593
 5500W        W73718  15.153  22.120  10.796
 5501W        W73719  34.548  12.933   3.572
 5502W        W73720  11.403  44.707  13.807
 5503W        W73721  14.010  25.133   4.282
 5504W        W73722  17.259  18.097  10.547
 5505W        W73723  31.500  39.996  13.922
 5506W        W73724   2.409  11.278  12.109
 5507W        W73725  36.483  13.915  13.478
 5508W        W73726  34.018  38.475   0.680
 5509W        W73727  22.055   8.428   2.160
 5510W        W73728  25.928  38.298  11.021
 5511W        W73729   6.796  41.369  11.622
 5512W        W73730  11.346  18.321   2.657
 5513W        W73731   4.756  41.544  12.612
 5514W        W73732  38.158  37.518   1.982
 5515W        W73733   4.761  17.094   4.588
 5516W        W73734   8.431  23.026  13.656
 5517W        W73735   4.723   3.235   4.660
 5518W        W73736  35.984  35.792   3.600
 5519W        W73737  38.780  10.441   2.317
 5520W        W73738  32.896  19.561  14.800
 5521W        W73739   2.779   1.701   3.214
 5522W        W73740  24.189  30.135  13.864
 5523W        W73741  33.099  17.358  11.182
 5524W        W73742   0.915  43.889  11.975
 5525W        W73743  19.720   9.101  14.033
 5526W        W73744  32.010   3.945   3.651
 5527W        W73745   9.390   4.710  11.616
 5528W        W73746  16.057  17.162   0.652
 5529W        W73747  19.503  35.857  11.117
 5530W        W73748  40.252  22.437   4.183
 5531W        W73749  29.637  12.647   2.291
 5532W        W73750  18.707   6.177  14.350
 5533W        W73751  19.109   9.424   4.558
 5534W        W73752   9.808  34.075  10.588
 5535W        W73753  27.608  13.558  14.474
 5536W        W73754   4.113  42.358   1.832
 5537W        W73755  29.205  40.446   2.326
 5538W        W73756   9.449  35.097  11.990
 5539W        W73757  44.606  36.485  14.375
 5540W        W73758  16.300  43.388   1.676
 5541W        W73759  19.819  27.028  14.876
 5542W        W73760  17.829  33.436  11.826
 5543W        W73761  23.222  19.815   3.607
 5544W        W73762  44.183  24.784  13.871
 5545W        W73763   8.432  16.815  10.281
 5546W        W73764  41.110  29.453   2.188
 5547W        W73765  12.734  11.898  10.987
 5548W        W73766  29.006  44.825  13.071
 5549W        W73767   3.446  11.643  13.055
 5550W        W73768  11.857  22.928   2.159
 5551W        W73769   2.304  34.459  12.609
 5552W        W73770  25.525  44.520   3.756
 5553W        W73771   8.897  34.441   3.361
 5554W        W73772  36.680  13.149   1.285
 5555W        W73773   7.651  26.096   2.144
 5556W        W73774  23.221  44.502   0.311
 5557W        W73775  36.011   9.303   1.367
 5558W        W73776   8.116  28.956  12.404
 5559W        W73777  15.563  14.910  10.766
 5560W        W73778   2.524   3.313   0.773
 5561W        W73779  23.291  44.815   4.145
 5562W        W73780  13.628  10.464   2.270
 5563W        W73781  37.856  18.233  14.712
 5564W        W73782  36.909   4.767   3.161
 5565W        W73783  39.114  30.598  12.940
 5566W        W73784  17.985   4.181   0.264
 5567W        W73785  16.269  22.243   1.241
 5568W        W73786  16.701  24.895   4.218
 5569W        W73787   7.891  11.285  14.496
 5570W        W73788  29.729  26.480  14.170
 5571W        W73789   9.500  15.415  12.994
 5572W        W73790  44.295   4.325   3.609
 5573W        W73791  11.223  37.098  10.639
 5574W        W73792  11.848  40.599   3.764
 5575W        W73793  13.344  41.444   0.723
 5576W        W73794  43.171  25.174  14.959
 5577W        W73795  18.048  26.489   2.323
 5578W        W73796  11.324  26.161  13.559
 5579W        W73797  27.470  35.329  11.097
 5580W        W73798   8.252  40.852   0.582
 5581W        W73799  38.757   7.093   2.774
 5582W        W73800  18.288  38.484   2.762
 5583W        W73801   1.168  13.181   1.889
 5584W        W73802  24.026   5.831  11.929
 5585W        W73803  29.005  27.432   0.435
 5586W        W73804  11.647  30.981  12.824
 5587W        W73805  22.133  16.235   4.086
 5588W        W73806   2.842  38.421   0.400
 5589W        W73807   4.338  18.832   1.403
 5590W        W73808  40.412  14.539   1.447
 5591W        W73809  28.796   0.938   3.060
 5592W        W73810  20.686   8.743  14.268
 5593W        W73811  42.472  31.545   4.262
 5594W        W73812  29.971  37.799  11.172
 5595W        W73813   0.658  30.367   4.401
 5596W        W73814   4.028  15.392  12.466
 5597W        W73815  27.642   2.733  11.536
 5598W        W73816  40.203  23.025   0.437
 5599W        W73817  30.113  11.960   0.310
 5600W        W73818  28.344  25.921  12.080
 5601W        W73819  43.299  37.487   0.017
 5602W        W73820  17.435  25.097  13.002
 5603W        W73821  30.683  27.018  12.490
 5604W        W73822  37.701  29.011   4.607
 5605W        W73823  13.837  21.700  11.002
 5606W        W73824  14.176  43.360  13.063
 5607W        W73825  23.601  39.372  12.683
 5608W        W73826  34.507   0.335  11.859
 5609W        W73827  21.588  17.010   4.306
 5610W        W73828  13.027   7.860  14.469
 5611W        W73829  17.213  10.101   1.229
 5612W        W73830  32.000  21.698  11.464
 5613W        W73831   7.880   1.485  14.857
 5614W        W73832  15.030  33.655   1.367
 5615W        W73833   3.792  30.525   9.693
 5616W        W73834  29.112  36.826  14.469
 5617W        W73835  32.006  38.071  12.066
 5618W        W73836   3.189   1.027  11.041
 5619W        W73837   4.314   9.145   1.696
 5620W        W73838   1.344  13.430   5.109
 5621W        W73839  30.726  38.071   1.745
 5622W        W73840  36.410   6.781   4.168
 5623W        W73841  10.319  43.074  11.508
 5624W        W73842  19.032  24.040  13.944
 5625W        W73843  41.301  22.472   2.674
 5626W        W73844  17.272  18.274   0.603
 5627W        W73845  43.888   1.830  14.099
 5628W        W73846  13.045  19.440  12.253
 5629W        W73847  31.540  35.354  14.925
 5630W        W73848  25.158   9.223   3.340
 5631W        W73849  16.625  28.060  13.842
 5632W        W73850  35.862  16.766  11.012
 5633W        W73851  21.078  31.913   1.457
 5634W        W73852  27.946   3.367  12.456
 5635W        W73853   2.297  20.536  14.061
 5636W        W73854   8.752  24.127   0.978
 5637W        W73855   3.028  42.016  11.250
 5638W        W73856  24.130  28.981  14.360
 5639W        W73857  24.800  24.657  11.623
 5640W        W73858  31.499   3.947  11.704
 5641W        W73859  18.000  40.193   4.713
 5642W        W73860  24.095  44.714   0.732
 5643W        W73861  27.959  17.927   1.294
 5644W        W73862  15.615  18.829  12.320
 5645W        W73863  41.361   3.691   3.640
 5646W        W73864  18.962  26.698  12.573
 5647W        W73865  25.171  39.536  12.697
 5648W        W73866  38.514  13.118   2.883
 5649W        W73867  21.598   1.696   0.880
 5650W        W73868  21.596  24.472   0.215
 5651W        W73869  44.557  30.621   2.285
 5652W        W73870  35.586   1.173  14.017
 5653W        W73871  11.648   6.157  12.488
 5654W        W73872  42.838  37.593  14.764
 5655W        W73873  37.700   3.889   4.142
 5656W        W73874  13.618   6.654   0.020
 5657W        W73875  41.260   6.585  12.063
 5658W        W73876  29.957   7.586   4.869
 5659W        W73877  10.662  39.424  10.511
 5660W        W73878  40.065  31.118  11.892
 5661W        W73879  12.282  12.728  10.500
 5662W        W73880  30.465  15.679   2.828
 5663W        W73881  42.172  24.358  11.066
 5664W        W73882  36.294  29.618   0.816
 5665W        W73883  14.807   3.834   4.687
 5666W        W73884  33.184  39.581   0.301
 5667W        W73885   1.006  35.077   2.273
 5668W        W73886   6.541  23.000  10.623
 5669W        W73887   7.330  37.848  12.481
 5670W        W73888  12.201   9.721  11.357
 5671W        W73889  42.853  41.294  10.664
 5672W        W73890   1.642   8.315   3.099
 5673W        W73891  40.782  44.309   2.873
 5674W        W73892  34.933  19.265  12.117
 5675W        W73893   9.292   8.345   4.457
 5676W        W73894  27.486  14.876  11.557
 5677W        W73895  23.118  15.060  14.670
 5678W        W73896   7.947  23.611   2.822
 5679W        W73897  26.711  44.258  12.470
 5680W        W73898  34.612   8.676  12.618
 5681W        W73899   5.880  29.289  12.379
 5682W        W73900  33.088   8.733   2.643
 5683W        W73901  26.378  32.031   4.141
 5684W        W73902   9.115  19.037  11.991
 5685W        W73903  12.142  10.573   4.850
 5686W        W73904  16.764   0.746  12.384
 5687W        W73905   0.299  11.943  11.594
 5688W        W73906  20.180  15.536   4.614
 5689W        W73907   5.811  15.041   2.387
 5690W        W73908  13.001  13.272   0.387
 5691W        W73909  37.011  26.067  12.984
 5692W        W73910  11.308  41.816  13.078
 5693W        W73911  40.408  17.988   4.080
 5694W        W73912  14.077  17.302   3.158
 5695W        W73913   8.558  24.435  11.862
 5696W        W73914  43.998   6.293  14.020
 5697W        W73915  26.509   1.333  13.444
 5698W        W73916  25.082  14.882   2.969
 5699W        W73917   4.735   4.956  13.838
 5700W        W73918  28.120  31.742   3.657
 5701W        W73919  37.555  14.580   4.773
 5702W        W73920  35.574   7.143   1.815
 5703W        W73921  25.051  35.320  12.873
 5704W        W73922  29.602  11.859   0.448
 5705W        W73923  10.829   2.842  10.631
 5706W        W73924  10.966  31.197  11.567
 5707W        W73925  36.367  29.194  12.924
 5708W        W73926  28.360  37.048  11.210
 5709W        W73927  34.937   6.231   2.385
 5710W        W73928  39.142  11.811  14.636
 5711W        W73929  27.757  21.746   1.501
 5712W        W73930  30.511  23.383  12.487
 5713W        W73931  22.789  14.514  14.405
 5714W        W73932  35.941  40.115   3.667
 5715W        W73933  11.786  34.827  13.013
 5716W        W73934   3.853  23.597   4.105
 5717W        W73935  31.905  40.467  14.572
 5718W        W73936   6.122  20.466  11.857
 5719W        W73937  32.085  35.175   4.596
 5720W        W73938  19.733  38.797   4.608
 5721W        W73939  25.665   4.710   4.199
 5722W        W73940  21.772   4.420  11.136
 5723W        W73941  41.441  13.518   3.448
 5724W        W73942  39.408  26.578   0.480
 5725W        W73943  29.442   0.006   1.220
 5726W        W73944   9.131  38.839  13.940
 5727W        W73945  23.740  35.970   3.123
 5728W        W73946   6.230  32.657  14.481
 5729W        W73947  15.340  35.615   1.335
 5730W        W73948   2.294  17.816   3.672
 5731W        W73949  28.649  13.128  11.980
 5732W        W73950  43.329  13.392  13.943
 5733W        W73951  44.993  15.986   3.945
 5734W        W73952  33.135  32.520  11.654
 5735W        W73953  38.596  22.229  14.947
 5736W        W73954  35.836  25.588   2.870
 5737W        W73955   8.631  25.560  11.250
 5738W        W73956  41.846  31.130  14.042
 5739W        W73957  43.950  12.590  13.814
 5740W        W73958  13.606  41.905   3.292
 5741W        W73959  15.769  33.020   4.920
 5742W        W73960   8.966  14.743   1.833
 5743W        W73961  41.806   1.009   4.071
 5744W        W73962  37.784  24.793  10.675
 5745W        W73963  24.291  42.514   4.292
 5746W        W73964  24.722  26.985   0.929
 5747W        W73965   7.915   5.676   2.731
 5748W        W73966  39.920  27.264   1.578
 5749W        W73967   3.052   4.957  13.310
 5750W        W73968  25.007  28.242   4.498
 5751W        W73969   0.967  42.434  12.535
 5752W        W73970  21.074  42.926   4.333
 5753W        W73971   4.387  10.008   0.592
 5754W        W73972  15.024  20.067  10.702
 5755W        W73973  16.597  20.443   0.233
 5756W        W73974  11.374  34.936  12.692
 5757W        W73975  42.478   4.561   5.128
 5758W        W73976  43.406  41.906   0.756
 5759W        W73977  41.358  30.458  13.062
 5760W        W73978  20.773  16.699   4.873
 5761W        W73979  39.015  30.171   1.737
 5762W        W73980  25.347  20.029   4.842
 5763W        W73981   9.863   6.348   2.284
 5764W        W73982  19.258  15.585  12.906
 5765W        W73983   9.350  16.633  11.368
 5766W        W73984  40.777  31.633  13.838
 5767W        W73985   9.766  29.595  12.116
 5768W        W73986   6.119  23.725   4.223
 5769W        W73987  42.317   0.039   0.947
 5770W        W73988  37.871  31.527   2.431
 5771W        W73989  36.181  39.501   0.197
 5772W        W73990  12.821  39.457  12.159
 5773W        W73991  44.917  11.353   4.877
 5774W        W73992  43.043  27.684  11.629
 5775W        W73993  44.395  13.320  14.057
 5776W        W73994  27.383  31.375  14.282
 5777W        W73995  27.598  25.095   4.724
 5778W        W73996   8.232  39.568  14.616
 5779W        W73997  15.351  40.541   0.877
 5780W        W73998   6.499  39.549  12.180
 5781W        W73999   5.673  17.245   1.848
 5782W        W74000  18.621  37.792   5.052
 5783W        W74001  12.467  39.277   1.335
 5784W        W74002   4.377  10.381  11.525
 5785W        W74003   0.995  36.811   1.526
 5786W        W74004   5.718  24.952   0.702
 5787W        W74005  30.663   8.102  11.586
 5788W        W74006  19.272   4.241  12.099
 5789W        W74007  42.992  18.083  11.150
 5790W        W74008  16.347   1.292  10.736
 5791W        W74009  24.876   4.735   0.366
 5792W        W74010  43.739  25.402   2.038
 5793W        W74011  31.176   0.588   3.058
 5794W        W74012  19.703  21.027  13.881
 5795W        W74013   9.148  29.437  14.207
 5796W        W74014   7.779  20.329  12.490
 5797W        W74015   5.458  39.489   3.794
 5798W        W74016   2.830  37.072  13.105
 5799W        W74017  39.937  16.864   1.435
 5800W        W74018   0.544  19.738   0.318
 5801W        W74019   4.980   7.384  11.091
 5802W        W74020   8.732  28.737  12.807
 5803W        W74021  37.822  31.421   1.270
 5804W        W74022  19.090  13.592   0.845
 5805W        W74023  13.568  39.957   2.667
 5806W        W74024  40.409  19.481  14.128
 5807W        W74025  26.000  30.614  13.294
 5808W        W74026  13.316  31.031  13.433
 5809W        W74027  33.211   1.532  12.014
 5810W        W74028  17.200  12.423  11.678
 5811W        W74029   1.289   2.735  13.356
 5812W        W74030   4.606  39.358   0.878
 5813W        W74031  29.376  12.190   2.242
 5814W        W74032  28.003  17.105   5.261
 5815W        W74033   9.702  27.494  12.932
 5816W        W74034  22.940   1.910   0.950
 5817W        W74035   0.777  23.292   0.824
 5818W        W74036   0.905   1.691   2.718
 5819W        W74037  21.530  15.441  11.094
 5820W        W74038  44.405  44.154   2.687
 5821W        W74039   1.115  15.513  11.147
 5822W        W74040  29.650  35.080  11.530
 5823W        W74041  26.231  28.621   2.742
 5824W        W74042  19.658   2.443  13.583
 5825W        W74043   8.993  24.540  13.830
 5826W        W74044   1.837  38.481   2.887
 5827W        W74045  35.079  16.457  12.151
 5828W        W74046  21.373  22.270   3.730
 5829W        W74047  15.825  12.738  10.665
 5830W        W74048   3.992  35.067   2.208
 5831W        W74049  13.123  31.225   0.878
 5832W        W74050  21.051  10.289   3.224
 5833W        W74051  27.990  25.254  13.277
 5834W        W74052  34.112  24.524   3.243
 5835W        W74053  17.764  26.391  13.039
 5836W        W74054  22.678  17.149   3.242
 5837W        W74055  24.246   5.666   1.298
 5838W        W74056  13.510  36.900  14.496
 5839W        W74057   8.983  41.339   0.396
 5840W        W74058  35.361   5.789   4.581
 5841W        W74059  34.733   4.516   2.940
 5842W        W74060  25.262  34.847  12.877
 5843W        W74061   8.820   2.628   3.376
 5844W        W74062   2.361  12.280   3.860
 5845W        W74063  44.843  36.761   3.491
 5846W        W74064   3.181  22.227   1.977
 5847W        W74065   9.151  20.228  13.799
 5848W        W74066  26.735  13.735  14.757
 5849W        W74067  27.074  43.734   1.720
 5850W        W74068  24.680  30.610   0.547
 5851W        W74069  26.876  26.762   1.347
 5852W        W74070  42.806  20.549  13.941
 5853W        W74071  38.849   4.456   4.618
 5854W        W74072  29.757  39.378  13.830
 5855W        W74073   9.773  15.633  14.605
 5856W        W74074  26.239  36.696   4.892
 5857W        W74075  13.718  20.991   3.411
 5858W        W74076  32.913  23.201  11.528
 5859W        W74077   9.952  34.493  11.424
 5860W        W74078   3.895  13.199  14.990
 5861W        W74079  40.040  28.062  13.501
 5862W        W74080   4.983  19.761  14.908
 5863W        W74081  32.928  36.993   4.750
 5864W        W74082  10.704   4.197  12.981
 5865W        W74083  23.250  14.862  10.824
 5866W        W74084  29.575  31.715   0.035
 5867W        W74085  22.045   1.151   4.106
 5868W        W74086   6.191  16.157   3.159
 5869W        W74087  43.202  32.139  13.861
 5870W        W74088  22.120   1.366  13.356
 5871W        W74089  18.112  23.829   2.821
 5872W        W74090  19.312  39.867   0.690
 5873W        W74091  31.995  31.935   3.713
 5874W        W74092   0.888   5.102  10.978
 5875W        W74093  38.880  25.913  12.600
 5876W        W74094  18.628  18.481  13.043
 5877W        W74095  22.612   4.799   3.795
 5878W        W74096  26.794  24.490   2.331
 5879W        W74097  28.251   8.345   5.001
 5880W        W74098   3.011  10.254   4.557
 5881W        W74099  40.020  29.600   4.030
 5882W        W74100  37.320   6.903  11.187
 5883W        W74101  24.104   2.947  14.476
 5884W        W74102  17.239  39.506  11.991
 5885W        W74103   2.008  22.579   1.207
 5886W        W74104  40.601  37.743   1.882
 5887W        W74105  20.453   0.500   3.388
 5888W        W74106  41.941  32.656  14.962
 5889W        W74107  25.603  41.293   2.459
 5890W        W74108  23.563   6.308   0.667
 5891W        W74109  30.213  17.757   4.132
 5892W        W74110  39.121  13.362   4.626
 5893W        W74111  15.941  20.675  11.140
 5894W        W74112   8.137  23.506   0.419
 5895W        W74113  26.511  30.326   2.684
 5896W        W74114  34.892  34.346  11.490
 5897W        W74115  22.634  16.623  14.959
 5898W        W74116   8.917  30.996  13.550
 5899W        W74117  24.191  34.422   1.836
 5900W        W74118  30.493   4.194   0.375
 5901W        W74119  11.337  22.898  12.546
 5902W        W74120  28.575  10.579  11.546
 5903W        W74121   1.511  22.226  11.610
 5904W        W74122  20.759  16.728   3.020
 5905W        W74123  17.498   5.707   3.665
 5906W        W74124  23.201  41.552   1.723
 5907W        W74125   2.896  10.154   2.150
 5908W        W74126   3.689  42.920  10.628
 5909W        W74127  18.718  11.805   3.778
 5910W        W74128   9.687  35.028  11.510
 5911W        W74129   9.350  13.678  11.531
 5912W        W74130   8.892  22.512   3.174
 5913W        W74131  21.402  19.085   2.882
 5914W        W74132  44.995  41.605   3.683
 5915W        W74133  19.240  24.750  10.769
 5916W        W74134  20.911   3.129  13.296
 5917W        W74135  35.921   5.123  11.504
 5918W        W74136   3.247  18.737   4.330
 5919W        W74137  29.730  24.796   4.993
 5920W        W74138  38.027  39.037  14.018
 5921W        W74139  17.924  35.956   9.884
 5922W        W74140  14.871  25.082   2.310
 5923W        W74141   1.973   1.540   3.840
 5924W        W74142   5.480   9.794   4.464
 5925W        W74143  31.017  43.582   2.171
 5926W        W74144   0.373   8.725   3.869
 5927W        W74145   8.228  14.209  13.388
 5928W        W74146   0.757  24.586   0.365
 5929W        W74147   7.777  16.846  12.968
 5930W        W74148  10.263  26.963  11.927
 5931W        W74149  37.963  44.117   1.229
 5932W        W74150   3.810  37.918  14.460
 5933W        W74151  20.617  34.809   2.266
 5934W        W74152  38.901  11.368  14.739
 5935W        W74153  15.728  28.201   1.799
 5936W        W74154   6.138  43.804   2.646
 5937W        W74155   7.283   1.846   4.931
 5938W        W74156  31.004  36.159   0.572
 5939W        W74157  28.741  14.138  13.201
 5940W        W74158  20.652  29.913   0.053
 5941W        W74159  42.492   9.623   3.535
 5942W        W74160   1.763  22.786  13.289
 5943W        W74161  14.767  28.085   2.286
 5944W        W74162   1.797  31.968   3.549
 5945W        W74163  28.025  42.494  11.484
 5946W        W74164   8.836  41.165   5.195
 5947W        W74165  31.060  11.970   2.652
 5948W        W74166  27.059   1.727  13.475
 5949W        W74167   2.124  33.461  12.227
 5950W        W74168  31.912  44.362  14.576
 5951W        W74169  42.482  41.049   4.224
 5952W        W74170  29.223  15.849   2.291
 5953W        W74171  32.009  17.994   0.670
 5954W        W74172  36.139  10.362  10.674
 5955W        W74173   6.321  31.560   3.158
 5956W        W74174  12.681  19.045  13.943
 5957W        W74175   9.596  40.846  10.175
 5958W        W74176  32.968  19.293   4.557
 5959W        W74177  39.245  38.491  13.804
 5960W        W74178   0.394  25.609  14.483
 5961W        W74179  30.480  23.311  11.222
 5962W        W74180  38.385  34.943   1.137
 5963W        W74181   0.152  33.433  12.810
 5964W        W74182  38.311  23.846   3.978
 5965W        W74183  34.746  26.726   4.950
 5966W        W74184  23.119  15.103   2.251
 5967W        W74185  31.261  27.646   1.766
 5968W        W74186  29.073  26.701   2.478
 5969W        W74187   7.143  12.290   3.701
 5970W        W74188  17.660  12.808   3.313
 5971W        W74189  20.514  16.774  13.942
 5972W        W74190   2.243  20.910  10.295
 5973W        W74191  16.936  43.110   3.626
 5974W        W74192  26.557  12.344  11.643
 5975W        W74193   6.444  15.380   1.385
 5976W        W74194  18.016  28.494   1.299
 5977W        W74195   8.986  24.827   4.083
 5978W        W74196  30.083  35.964   3.711
 5979W        W74197  15.387   6.705   1.380
 5980W        W74198   8.290   9.839  10.671
 5981W        W74199   6.148  35.804   1.785
 5982W        W74200  40.837   2.673   1.233
 5983W        W74201  15.515   6.933   1.849
 5984W        W74202  12.199   3.155  10.991
 5985W        W74203   3.851   3.926  10.469
 5986W        W74204  21.335  32.629   9.801
 5987W        W74205  25.794  41.304  14.531
 5988W        W74206  27.622  38.703  12.175
 5989W        W74207   2.172   8.883  11.597
 5990W        W74208  32.489  21.745  11.403
 5991W        W74209  35.553  17.525   1.284
 5992W        W74210  24.096  20.746   0.728
 5993W        W74211  36.453   8.118   4.541
 5994W        W74212  37.084  21.576  11.444
 5995W        W74213  22.740  14.839  12.071
 5996W        W74214  13.504  17.156  12.503
 5997W        W74215  25.652  27.202  11.631
 5998W        W74216  37.415   7.864  13.928
 5999W        W74217  12.627  25.971  11.057
 6000W        W74218  15.339   9.213  14.458
 6001W        W74219  25.420   7.297   0.361
 6002W        W74220  23.362  24.366   0.467
 6003W        W74221  34.767  14.431  14.336
 6004W        W74222   4.273  25.482   3.152
 6005W        W74223  41.793  26.193   1.659
 6006W        W74224  25.058  28.003   2.146
 6007W        W74225  28.400  37.623  12.120
 6008W        W74226  25.673   2.276   0.546
 6009W        W74227  37.757   0.072   1.204
 6010W        W74228   7.103  20.701  13.018
 6011W        W74229  13.534  26.029  14.815
 6012W        W74230  29.569  42.978  11.379
 6013W        W74231   7.235   5.908  13.419
 6014W        W74232  21.427  10.611   3.370
 6015W        W74233  16.819  27.950   4.621
 6016W        W74234  17.519   9.753   1.944
 6017W        W74235   9.390  37.897  13.031
 6018W        W74236  38.766  14.081  11.390
 6019W        W74237   9.792  20.513  13.984
 6020W        W74238   6.972  25.184  12.590
 6021W        W74239  42.263  23.643  14.779
 6022W        W74240   2.266  42.601  12.083
 6023W        W74241  26.695  44.892  11.506
 6024W        W74242  22.137  25.588   4.333
 6025W        W74243  17.995  41.448  11.532
 6026W        W74244  31.966  40.308  14.073
 6027W        W74245  21.798   7.786  11.612
 6028W        W74246   6.739  31.968   0.651
 6029W        W74247   5.859  36.956  14.865
 6030W        W74248   1.367   0.876   2.842
 6031W        W74249  14.354  28.748  10.742
 6032W        W74250   7.278  43.737   1.697
 6033W        W74251  12.141  26.162   3.612
 6034W        W74252   1.809   4.438  13.277
 6035W        W74253  12.296  38.530  11.874
 6036W        W74254  26.909  38.327   2.259
 6037W        W74255  16.664  22.474   0.959
 6038W        W74256  29.937  32.247  14.471
 6039W        W74257   2.434   1.679   2.206
 6040W        W74258  39.810  28.202  14.793
 6041W        W74259  43.904   1.492   1.774
 6042W        W74260   0.378   7.447  11.072
 6043W        W74261  15.917  11.202  10.556
 6044W        W74262  18.688   5.829  14.741
 6045W        W74263  27.891   3.154   0.890
 6046W        W74264   3.710   2.445  11.945
 6047W        W74265  39.823   8.930  11.157
 6048W        W74266   3.939  26.265  14.925
 6049W        W74267   5.140  23.287  11.066
 6050W        W74268  37.995  21.651   1.595
 6051W        W74269   8.398   0.488   0.892
 6052W        W74270  12.712  26.511  14.851
 6053W        W74271   0.118   5.568   0.849
 6054W        W74272   0.326  33.031  11.988
 6055W        W74273  26.616   9.302   4.547
 6056W        W74274  16.183  15.114  14.806
 6057W        W74275  10.233  29.826  12.076
 6058W        W74276  18.857  11.666  14.659
 6059W        W74277  30.384  44.276  14.347
 6060W        W74278   7.600  13.070   0.850
 6061W        W74279  40.903   7.746  11.204
 6062W        W74280  34.040   6.421  10.733
 6063W        W74281   2.958   0.824  13.970
 6064W        W74282   1.031  39.773  11.278
 6065W        W74283  44.694  40.459   1.813
 6066W        W74284  39.838  26.577  10.802
 6067W        W74285  38.644  19.969  12.508
 6068W        W74286  27.026  44.797  13.118
 6069W        W74287   5.884   7.945   2.877
 6070W        W74288  23.689  31.070  11.598
 6071W        W74289  24.435  37.591  13.838
 6072W        W74290  10.812  18.579  10.263
 6073W        W74291  11.641   7.992  10.622
 6074W        W74292  39.957   0.845  12.508
 6075W        W74293  29.701   1.868   0.947
 6076W        W74294  25.230  39.783   3.616
 6077W        W74295  20.076   6.701   3.227
 6078W        W74296   1.959  30.504  13.798
 6079W        W74297  39.512  13.082  14.973
 6080W        W74298  10.697   8.369   0.609
 6081W        W74299  23.771  17.716   2.727
 6082W        W74300  23.897   6.007  12.392
 6083W        W74301  23.133  34.575  10.383
 6084W        W74302  27.951  36.507  14.842
 6085W        W74303  16.359  14.144   0.786
 6086W        W74304  31.399  20.521   4.240
 6087W        W74305  37.745  41.716   4.176
 6088W        W74306   1.422  19.991  10.651
 6089W        W74307   1.408  42.213  12.414
 6090W        W74308  13.867   3.319  13.016
 6091W        W74309  18.223  17.658  11.398
 6092W        W74310  40.664  32.037  12.904
 6093W        W74311  37.029  35.274  12.948
 6094W        W74312  25.664   2.185   1.054
 6095W        W74313  41.401  26.202   0.686
 6096W        W74314  11.639   6.241   1.906
 6097W        W74315  39.568  18.691  10.630
 6098W        W74316  16.680  12.354   1.265
 6099W        W74317  38.151  22.439   2.163
 6100W        W74318   6.545  18.362   3.202
 6101W        W74319  22.220  43.577  10.772
 6102W        W74320  35.146  10.143   4.474
 6103W        W74321  40.177   6.460   0.303
 6104W        W74322   8.408  29.671  12.472
 6105W        W74323  14.292  37.958  13.831
 6106W        W74324  31.024  21.245   4.484
 6107W        W74325  43.896  10.290  14.035
 6108W        W74326   9.754  31.958  11.537
 6109W        W74327  42.945  39.630  11.532
 6110W        W74328  32.521  24.900   3.805
 6111W        W74329  24.652   8.893  10.425
 6112W        W74330  36.378  28.004   2.239
 6113W        W74331  39.545  21.857   2.190
 6114W        W74332   2.674  13.823   2.474
 6115W        W74333  17.160  10.413   0.170
 6116W        W74334  21.695  20.788  11.919
 6117W        W74335  22.880   1.495   0.308
 6118W        W74336   0.683  41.243   4.049
 6119W        W74337  20.985  19.081   0.666
 6120W        W74338   8.842  27.711  12.623
 6121W        W74339  23.292  24.017   1.468
 6122W        W74340  18.650   2.542   0.413
 6123W        W74341   7.438  41.935   1.979
 6124W        W74342  16.982   4.390  12.270
 6125W        W74343  10.827  26.096  11.129
 6126W        W74344  19.610  17.165  10.486
 6127W        W74345  43.283  13.107   2.512
 6128W        W74346  24.464  11.179  14.293
 6129W        W74347  42.331   7.666  13.161
 6130W        W74348  33.448   1.789   3.511
 6131W        W74349  33.717  27.171   4.050
 6132W        W74350  33.660  15.831   3.311
 6133W        W74351  24.952   6.387   1.163
 6134W        W74352  34.097  39.566   0.430
 6135W        W74353  31.044  23.181   3.569
 6136W        W74354  38.828  30.164  14.286
 6137W        W74355  32.867   4.541   3.647
 6138W        W74356   4.958  20.211  10.895
 6139W        W74357  32.251  39.100  14.822
 6140W        W74358  25.995   2.664  10.674
 6141W        W74359   8.717  22.101   2.853
 6142W        W74360  25.725  15.700  10.705
 6143W        W74361  32.884  11.409   4.058
 6144W        W74362  18.147  15.268   5.489
 6145W        W74363  20.800   7.752   0.726
 6146W        W74364  31.149  16.526   1.467
 6147W        W74365  19.535  27.457   1.849
 6148W        W74366  27.960  36.132  13.496
 6149W        W74367  32.862  27.298   2.667
 6150W        W74368  30.856  22.118  12.910
 6151W        W74369  13.236  10.065  14.025
 6152W        W74370  34.407  11.637   3.077
 6153W        W74371  32.003  18.760  11.529
 6154W        W74372  19.803  25.966  14.431
 6155W        W74373  26.134  28.738  13.624
 6156W        W74374   9.367  39.926  12.382
 6157W        W74375   9.761  20.805   1.300
 6158W        W74376   4.682   6.151   4.197
 6159W        W74377   6.212  32.650   2.816
 6160W        W74378  21.327  23.832   1.804
 6161W        W74379  19.540  22.454   3.768
 6162W        W74380  40.791  35.107   3.341
 6163W        W74381  35.006  13.927   0.402
 6164W        W74382   1.878  12.506   3.822
 6165W        W74383  14.530  14.791   4.882
 6166W        W74384  22.466  30.997   0.178
 6167W        W74385   6.114  28.157  10.959
 6168W        W74386  42.873  12.765   1.882
 6169W        W74387  26.086  33.550   1.898
 6170W        W74388  11.663  37.824  12.597
 6171W        W74389  20.515  34.032   3.318
 6172W        W74390  25.954   3.814   3.332
 6173W        W74391   2.313  37.661   4.087
 6174W        W74392   9.806  13.648   0.343
 6175W        W74393  32.363  17.268   1.764
 6176W        W74394  30.618  20.306  13.943
 6177W        W74395  31.895   9.778   2.811
 6178W        W74396  40.808  24.611   3.157
 6179W        W74397  31.224  10.886  14.886
 6180W        W74398  11.085  44.016   0.936
 6181W        W74399  11.209  15.889   2.370
 6182W        W74400  30.072  24.600   0.388
 6183W        W74401  13.857  41.266  14.415
 6184W        W74402   8.695  16.654   4.263
 6185W        W74403  41.205  26.180  14.153
 6186W        W74404  21.198  24.748  11.593
 6187W        W74405  27.918  11.617   0.932
 6188W        W74406  42.490  24.094  14.741
 6189W        W74407  26.005   0.831  13.800
 6190W        W74408  18.323  21.094   4.460
 6191W        W74409  10.742   1.982   1.668
 6192W        W74410   2.874  37.433   4.799
 6193W        W74411  43.715   1.444  12.213
 6194W        W74412  44.550  20.715   2.355
 6195W        W74413  28.893   8.820   3.632
 6196W        W74414  37.864  14.194   4.648
 6197W        W74415  42.770   4.257  11.056
 6198W        W74416  17.313  42.462   0.866
 6199W        W74417  29.661  35.130   2.731
 6200W        W74418  26.301  22.455  11.984
 6201W        W74419  24.577  16.241   1.267
 6202W        W74420  33.666  19.678  11.374
 6203W        W74421  21.863  17.622   0.702
 6204W        W74422  31.380  18.803   3.411
 6205W        W74423  15.540  42.560  14.322
 6206W        W74424  39.368  17.822  14.874
 6207W        W74425  12.344  34.112   4.775
 6208W        W74426   3.220  27.755  14.376
 6209W        W74427  34.943  13.692  13.300
 6210W        W74428  10.925  28.214   4.032
 6211W        W74429   8.337   9.264   2.363
 6212W        W74430  39.113  15.641  12.612
 6213W        W74431   4.786  12.350   4.526
 6214W        W74432  29.474  41.180  10.423
 6215W        W74433  25.560   0.570  10.944
 6216W        W74434  33.645  15.341   4.470
 6217W        W74435  38.905  31.166  10.697
 6218W        W74436  23.525  39.901  12.828
 6219W        W74437  27.684  33.929   0.005
 6220W        W74438   7.700   7.398  12.503
 6221W        W74439  17.248  26.133  13.025
 6222W        W74440  35.192   5.345   2.336
 6223W        W74441  39.470  29.749   2.747
 6224W        W74442  18.350  29.130  10.750
 6225W        W74443   7.773  38.466   0.098
 6226W        W74444  29.900  33.968  13.070
 6227W        W74445  38.877  31.470  11.476
 6228W        W74446  39.600   9.289   0.426
 6229W        W74447  43.858  41.022   4.372
 6230W        W74448  40.668  32.464   3.769
 6231W        W74449  32.527  10.326  14.018
 6232W        W74450  14.082  28.528   1.168
 6233W        W74451  33.533   5.777  12.228
 6234W        W74452  25.620   2.921  14.713
 6235W        W74453  19.758  40.858   2.371
 6236W        W74454  25.049  33.651  12.883
 6237W        W74455  23.412  21.936  11.442
 6238W        W74456  27.558  16.599   3.611
 6239W        W74457   8.382  13.082  12.814
 6240W        W74458   5.987   9.426   2.808
 6241W        W74459   8.154  26.941   2.208
 6242W        W74460  15.808  27.105  14.262
 6243W        W74461  20.584  28.373  11.151
 6244W        W74462   9.404  14.670  11.699
 6245W        W74463  17.877  12.046   0.824
 6246W        W74464  28.596   3.508  11.181
 6247W        W74465  23.657  13.599  12.524
 6248W        W74466  34.905   7.419   1.137
 6249W        W74467  28.709   3.198   2.681
 6250W        W74468  19.266   7.948   0.821
 6251W        W74469  19.637  30.677  14.479
 6252W        W74470  32.668  13.364   1.450
 6253W        W74471  32.446  35.146  11.191
 6254W        W74472  14.551  35.092  14.897
 6255W        W74473   9.734  36.174   2.193
 6256W        W74474  27.158  44.226   4.266
 6257W        W74475  25.960  27.993  14.891
 6258W        W74476  33.055  30.790   5.408
 6259W        W74477  44.954  11.964  12.037
 6260W        W74478  13.669  15.571   1.337
 6261W        W74479  44.705  15.367   0.366
 6262W        W74480  33.851  11.158   4.952
 6263W        W74481  30.167  21.222   0.788
 6264W        W74482   7.170   9.149   2.181
 6265W        W74483  15.055  37.556  14.044
 6266W        W74484  29.581  34.003  12.499
 6267W        W74485  23.941  38.882   0.980
 6268W        W74486  36.079  18.994  12.355
 6269W        W74487  36.144   6.425  14.418
 6270W        W74488  32.047  27.463  10.819
 6271W        W74489  17.235  38.832   1.334
 6272W        W74490  22.281  26.742  10.424
 6273W        W74491   7.937   3.622   3.295
 6274W        W74492   2.715  42.833   4.785
 6275W        W74493   6.170   1.962   3.159
 6276W        W74494  38.850   6.906   3.245
 6277W        W74495  25.266  13.238   0.358
 6278W        W74496   7.007   2.186   2.301
 6279W        W74497  29.881   6.634   1.315
 6280W        W74498  13.520  31.857   4.164
 6281W        W74499  28.329  19.801  12.150
 6282W        W74500  13.156  14.779  14.387
 6283W        W74501  30.112  42.694  14.818
 6284W        W74502   4.721  38.840   0.995
 6285W        W74503   2.165  30.283   2.832
 6286W        W74504   8.204  33.353  14.856
 6287W        W74505   8.574  42.739   1.154
 6288W        W74506  34.124   3.430   4.672
 6289W        W74507   2.129  42.536   2.253
 6290W        W74508  11.369  30.407   1.717
 6291W        W74509   0.291   6.253   4.497
 6292W        W74510  16.174  29.283   0.358
 6293W        W74511  16.561  20.783  12.576
 6294W        W74512  27.122   3.786  11.677
 6295W        W74513  12.111   9.352  14.850
 6296W        W74514  13.015  25.991  13.060
 6297W        W74515  32.784  23.574  12.877
 6298W        W74516  34.638  36.995  12.367
 6299W        W74517  24.533   8.136  11.512
 6300W        W74518   1.393   8.556   0.798
 6301W        W74519  37.995  28.585   1.689
 6302W        W74520  41.059  33.144  12.407
 6303W        W74521  20.467  15.953   4.559
 6304W        W74522  24.077  36.715   4.619
 6305W        W74523   3.876  44.587  11.616
 6306W        W74524  29.215  42.939  11.744
 6307W        W74525  32.872  19.632   0.836
 6308W        W74526  39.968   4.903  14.188
 6309W        W74527  34.992  34.687   2.899
 6310W        W74528  39.797  34.781  13.906
 6311W        W74529  14.432  41.029  10.747
 6312W        W74530  33.210   4.509  10.839
 6313W        W74531  17.567  25.169   2.028
 6314W        W74532  24.588  13.590  11.516
 6315W        W74533  37.019  33.916   4.113
 6316W        W74534  21.215  24.684   3.809
 6317W        W74535  33.019  44.099   0.059
 6318W        W74536   9.302   0.560  11.167
 6319W        W74537  27.702  18.366   1.116
 6320W        W74538  42.223  25.716   3.992
 6321W        W74539  19.009  11.029  14.019
 6322W        W74540   7.338  10.891   1.415
 6323W        W74541  26.715  42.560  12.978
 6324W        W74542   1.015   0.713   3.203
 6325W        W74543  12.732  24.244   1.770
 6326W        W74544  22.293  28.128   2.688
 6327W        W74545   3.073   4.225   1.867
 6328W        W74546   7.674   3.410   1.756
 6329W        W74547  22.399  11.787   4.160
 6330W        W74548  18.685  11.860   2.846
 6331W        W74549  11.777  39.998  11.460
 6332W        W74550  21.535  28.637  12.967
 6333W        W74551  20.871  11.307   3.153
 6334W        W74552  32.005  37.452   2.129
 6335W        W74553  29.641   4.261   3.610
 6336W        W74554   0.789  11.124  14.550
 6337W        W74555  14.852   2.303   3.858
 6338W        W74556  29.037  13.108   0.490
 6339W        W74557   5.209   3.466   4.605
 6340W        W74558  29.397  22.865  13.923
 6341W        W74559  34.693   5.847   0.546
 6342W        W74560  27.515   3.798  10.714
 6343W        W74561  23.429   5.585   0.937
 6344W        W74562  41.512   3.504   1.963
 6345W        W74563   7.320  44.076  14.945
 6346W        W74564   6.824  11.799  12.060
 6347W        W74565  11.547  40.244   1.707
 6348W        W74566  40.359  22.106  14.470
 6349W        W74567  39.520  21.165   0.999
 6350W        W74568   9.452  26.176   2.656
 6351W        W74569  24.028  43.519  11.002
 6352W        W74570   2.442   8.539   0.937
 6353W        W74571  31.478  11.987   3.439
 6354W        W74572   2.847   3.397   2.703
 6355W        W74573  34.343  17.833   2.541
 6356W        W74574  12.230  13.848   0.428
 6357W        W74575  14.604  26.048   2.319
 6358W        W74576   7.100   0.871  13.363
 6359W        W74577  14.524  19.225  10.498
 6360W        W74578  30.729  17.321  12.659
 6361W        W74579  44.103  35.432  10.093
 6362W        W74580  32.751  12.850   1.411
 6363W        W74581  39.454  36.068  14.105
 6364W        W74582  19.939  16.154   1.819
 6365W        W74583   7.878   1.999  14.933
 6366W        W74584   3.699  22.304   4.722
 6367W        W74585   8.456   9.202   3.746
 6368W        W74586   6.710  44.967  13.058
 6369W        W74587   4.736  21.633  12.026
 6370W        W74588  41.770  36.546   2.771
 6371W        W74589   0.255   0.767   4.861
 6372W        W74590  16.455  18.361  11.613
 6373W        W74591  24.739   3.833   2.691
 6374W        W74592  18.213   5.014  13.143
 6375W        W74593   1.527  10.327   4.824
 6376W        W74594  25.998  34.172  12.843
 6377W        W74595   4.259  22.248   4.031
 6378W        W74596  23.791  11.221   2.295
 6379W        W74597  35.984  32.665   0.518
 6380W        W74598  19.830   6.790  11.776
 6381W        W74599   9.361  17.676  12.198
 6382W        W74600   3.699  39.198  11.398
 6383W        W74601  24.011   3.350   3.084
 6384W        W74602   7.127  35.044   2.466
 6385W        W74603  24.720  22.021  13.950
 6386W        W74604  31.738  40.505  10.725
 6387W        W74605  34.530   8.692   1.382
 6388W        W74606  15.266  39.601  11.433
 6389W        W74607  28.983  39.306  13.374
 6390W        W74608  11.410  42.403   3.059
 6391W        W74609  42.749  33.916  13.416
 6392W        W74610  17.255  12.343   4.474
 6393W        W74611  43.821  38.812   0.071
 6394W        W74612  35.531  19.315   3.349
 6395W        W74613  25.988  17.772  12.372
 6396W        W74614  22.124  33.161   2.812
 6397W        W74615  41.944   8.303   0.308
 6398W        W74616  20.260  25.259  12.828
 6399W        W74617  12.367  32.387   0.240
 6400W        W74618  28.497  39.734   0.109
 6401W        W74619  23.771  36.093   0.187
 6402W        W74620   1.781  29.878   2.297
 6403W        W74621  40.622   0.635   4.989
 6404W        W74622  36.384  40.808  13.140
 6405W        W74623  18.661   3.515  12.420
 6406W        W74624  25.386   3.882  10.567
 6407W        W74625   3.123  10.498   0.311
 6408W        W74626   2.389  22.590  14.397
 6409W        W74627   6.653  11.191  14.087
 6410W        W74628  11.232  38.397   3.654
 6411W        W74629  38.603  39.814   4.160
 6412W        W74630  37.348  29.358   0.273
 6413W        W74631  35.084  37.886  13.943
 6414W        W74632  21.209  11.633   2.625
 6415W        W74633  34.081  24.954  13.204
 6416W        W74634  31.446  43.479  11.715
 6417W        W74635  20.515  12.643   0.345
 6418W        W74636  27.777  30.355   4.710
 6419W        W74637  41.073  11.689  11.222
 6420W        W74638  17.723   6.785   3.639
 6421W        W74639   8.338  10.899  10.731
 6422W        W74640  13.646   8.402  14.898
 6423W        W74641  42.082  40.777  10.636
 6424W        W74642  11.308   6.783   1.154
 6425W        W74643  27.436   2.094  13.479
 6426W        W74644  24.928   4.354  12.394
 6427W        W74645  10.147  24.257  11.447
 6428W        W74646  23.121  35.472   2.718
 6429W        W74647  12.847  17.354  13.897
 6430W        W74648  22.112  43.042  12.498
 6431W        W74649  30.042  30.953  12.986
 6432W        W74650  18.169  38.918  13.366
 6433W        W74651   4.183  11.341  11.450
 6434W        W74652  36.376  18.362   4.258
 6435W        W74653  38.325  42.301   0.373
 6436W        W74654  41.320  18.072  13.033
 6437W        W74655  14.698   1.857   1.890
 6438W        W74656   3.764  32.655  14.052
 6439W        W74657  40.502  37.242   9.690
 6440W        W74658  37.733  13.170   2.321
 6441W        W74659  15.713  42.639  11.533
 6442W        W74660  39.821  30.467   4.170
 6443W        W74661  44.052  30.081   2.769
 6444W        W74662  35.279  17.770   1.641
 6445W        W74663  27.119  40.767   0.601
 6446W        W74664  22.689  33.632  12.526
 6447W        W74665  34.225   9.724   4.551
 6448W        W74666  23.641  36.398  11.211
 6449W        W74667  36.513  22.045   2.679
 6450W        W74668   1.237  24.288  11.523
 6451W        W74669   8.250  21.605   4.667
 6452W        W74670  36.619  26.578  11.351
 6453W        W74671  30.424  18.771   3.885
 6454W        W74672  19.677  19.536  14.088
 6455W        W74673  12.820  18.150   2.257
 6456W        W74674  29.469   2.182  12.447
 6457W        W74675  33.461  34.365  12.611
 6458W        W74676   4.783  11.815   3.685
 6459W        W74677  33.198  39.996  11.441
 6460W        W74678  26.196   4.651   1.827
 6461W        W74679  32.069  13.939   0.083
 6462W        W74680  42.042  10.623   4.091
 6463W        W74681   1.037  35.883   0.242
 6464W        W74682  23.697  35.384  14.469
 6465W        W74683  39.711  26.371   3.216
 6466W        W74684  24.092   3.841  14.580
 6467W        W74685  24.663  18.183   2.071
 6468W        W74686  30.170  21.558  12.851
 6469W        W74687  43.038   3.184  14.915
 6470W        W74688   6.685   7.766   4.447
 6471W        W74689  10.846  20.246  10.659
 6472W        W74690  27.046  30.450   2.762
 6473W        W74691   4.784   7.566  14.639
 6474W        W74692  44.176  11.110  12.956
 6475W        W74693  16.699   1.688  11.483
 6476W        W74694  38.939   7.034  12.040
 6477W        W74695   1.752  39.866  13.399
 6478W        W74696  43.790  28.983  12.499
 6479W        W74697  32.762  43.956   4.090
 6480W        W74698  31.548  33.491   2.498
 6481W        W74699  10.879  30.565   4.510
 6482W        W74700   1.438   3.177   2.787
 6483W        W74701  41.507  12.361  10.739
 6484W        W74702  38.034  43.542   1.015
 6485W        W74703   3.694  42.334  11.060
 6486W        W74704  44.052  27.955  11.158
 6487W        W74705  23.780   6.350  12.004
 6488W        W74706   0.430  38.563   2.431
 6489W        W74707   0.223  25.333  13.616
 6490W        W74708  16.627  32.149   4.131
 6491W        W74709  32.857  23.219   0.788
 6492W        W74710  41.896  28.891  12.388
 6493W        W74711  18.054  39.633   4.056
 6494W        W74712  33.037   1.302  13.456
 6495W        W74713  21.320  19.848   4.837
 6496W        W74714  25.252  32.086   0.948
 6497W        W74715  16.989   4.280  12.887
 6498W        W74716  41.114  19.708   0.246
 6499W        W74717   2.469   6.671  11.240
 6500W        W74718  33.342   9.772   1.443
 6501W        W74719  26.069  34.608  14.738
 6502W        W74720  30.809  19.061   4.162
 6503W        W74721  23.381  12.140  10.632
 6504W        W74722  21.922  42.085  12.666
 6505W        W74723  30.586  33.885   3.716
 6506W        W74724  39.729  13.953  12.848
 6507W        W74725  20.730  16.086   4.142
 6508W        W74726  33.350  19.164  14.471
 6509W        W74727  36.144  38.395  14.087
 6510W        W74728  37.445   8.160   3.374
 6511W        W74729   0.011  13.662   0.357
 6512W        W74730   3.312   2.318  10.709
 6513W        W74731  33.987   7.954   2.277
 6514W        W74732  22.247  37.652   3.113
 6515W        W74733   8.803  31.456   3.652
 6516W        W74734   3.151  14.072   0.527
 6517W        W74735  27.740  12.012  11.966
 6518W        W74736  42.938   2.181  14.133
 6519W        W74737  30.533  10.575   0.782
 6520W        W74738  19.611  18.200  10.763
 6521W        W74739  12.888  33.021   4.445
 6522W        W74740  33.991   7.999  13.927
 6523W        W74741  27.150  11.561  12.516
 6524W        W74742   7.434  42.950   2.740
 6525W        W74743   0.656   3.006  11.243
 6526W        W74744   7.796  20.637   1.470
 6527W        W74745  23.855  32.003  11.799
 6528W        W74746   3.012  41.865  12.099
 6529W        W74747  42.577   8.823   1.650
 6530W        W74748  24.683  18.463  14.776
 6531W        W74749  32.139  13.233  14.497
 6532W        W74750  29.389  44.870  12.007
 6533W        W74751  13.222  37.951  13.311
 6534W        W74752  25.630  39.326  13.554
 6535W        W74753   1.378  33.583   1.735
 6536W        W74754  36.456   7.737   4.163
 6537W        W74755  42.925  41.702  11.506
 6538W        W74756   3.827  36.990  11.936
 6539W        W74757  15.770   5.189   2.231
 6540W        W74758   7.367  30.505  14.455
 6541W        W74759  31.989  34.393   1.689
 6542W        W74760   0.598  35.510  12.702
 6543W        W74761  32.383  16.793   0.443
 6544W        W74762  44.378  21.460  10.187
 6545W        W74763  41.404  39.985  12.850
 6546W        W74764   3.665   4.819   2.148
 6547W        W74765  35.495  21.241  13.454
 6548W        W74766  22.445  22.291  12.979
 6549W        W74767  18.288  26.529   2.789
 6550W        W74768   4.367  39.306  12.276
 6551W        W74769   4.457  22.279   2.680
 6552W        W74770  22.945  37.283  11.167
 6553W        W74771  18.072  43.085  10.476
 6554W        W74772  36.065  18.379   2.448
 6555W        W74773   6.440  19.979   2.843
 6556W        W74774  37.370  22.280  14.266
 6557W        W74775  41.510  42.012   1.902
 6558W        W74776   7.187  37.343   4.271
 6559W        W74777  11.874  38.419   3.343
 6560W        W74778  11.930  16.125   3.693
 6561W        W74779  25.666  36.401  10.560
 6562W        W74780   5.054  29.640   4.875
 6563W        W74781  27.565  27.685   3.094
 6564W        W74782  37.099   3.295   0.688
 6565W        W74783  26.694  20.698   9.923
 6566W        W74784  19.646  24.495   0.828
 6567W        W74785  44.160  12.128   4.404
 6568W        W74786  28.415  41.601   3.649
 6569W        W74787  30.959   0.921  11.523
 6570W        W74788  14.082  18.336  12.622
 6571W        W74789   0.961   4.370   2.796
 6572W        W74790   7.911  20.716  11.094
 6573W        W74791  30.872   9.779   0.516
 6574W        W74792   4.485  14.117  14.963
 6575W        W74793   8.768  32.381  13.391
 6576W        W74794  38.595   7.471  13.343
 6577W        W74795  43.028  28.633   4.660
 6578W        W74796  28.753  28.091  12.776
 6579W        W74797  19.061  34.241   4.248
 6580W        W74798  27.953   8.223  11.620
 6581W        W74799  16.593  11.678  13.280
 6582W        W74800   5.284   8.345   0.032
 6583W        W74801  33.790  11.354   4.113
 6584W        W74802  27.974   3.867  14.938
 6585W        W74803  21.977  14.860   3.728
 6586W        W74804  26.539  33.946   3.037
 6587W        W74805  10.156  34.393  10.825
 6588W        W74806  12.462  21.129   4.570
 6589W        W74807  22.615  43.794   0.698
 6590W        W74808  18.513  25.241   2.405
 6591W        W74809  12.890  44.540   3.631
 6592W        W74810  22.509  11.206  12.089
 6593W        W74811  39.165  42.577   1.708
 6594W        W74812   5.262   8.376   2.346
 6595W        W74813  37.975   1.942   4.303
 6596W        W74814  44.335   9.321  14.833
 6597W        W74815  29.020  11.074   3.315
 6598W        W74816  20.340  32.442   2.974
 6599W        W74817  38.298  24.002   0.398
 6600W        W74818  29.128  41.345   1.854
 6601W        W74819  42.306  11.272   4.059
 6602W        W74820   4.206  33.029   2.180
 6603W        W74821  23.232  23.177   4.080
 6604W        W74822  32.520  31.846   2.483
 6605W        W74823  38.349   3.783  14.768
 6606W        W74824  36.860  18.754   2.114
 6607W        W74825  42.567  30.873  10.818
 6608W        W74826  13.156  27.672  11.703
 6609W        W74827  20.445   1.671  10.750
 6610W        W74828  30.505  33.344   4.556
 6611W        W74829   8.295  35.132   4.405
 6612W        W74830  35.153  31.009  14.935
 6613W        W74831  44.533   9.824   4.224
 6614W        W74832  41.313   7.828  11.529
 6615W        W74833  25.145  26.657   1.633
 6616W        W74834  33.523  24.095  12.949
 6617W        W74835  21.045  37.976   1.413
 6618W        W74836   5.008   7.830  14.232
 6619W        W74837  33.141  41.941   3.947
 6620W        W74838  20.086  19.749  11.044
 6621W        W74839  43.255  17.694   1.672
 6622W        W74840  11.368  34.122   2.222
 6623W        W74841  42.821  43.569  10.970
 6624W        W74842   6.002  22.650  11.208
 6625W        W74843  25.193  25.589  11.979
 6626W        W74844  39.900  40.593  11.945
 6627W        W74845  18.229  22.889   3.721
 6628W        W74846  16.164  23.529  14.283
 6629W        W74847  31.795  35.452  13.912
 6630W        W74848  34.651  12.290  11.144
 6631W        W74849  26.502  41.862  11.288
 6632W        W74850  30.369  26.940   1.236
 6633W        W74851   0.850  19.968   2.266
 6634W        W74852   0.744   5.472  14.449
 6635W        W74853  24.667  13.838  13.914
 6636W        W74854  40.343  40.394   4.128
 6637W        W74855  24.641  40.007  14.123
 6638W        W74856  39.144   3.550   4.995
 6639W        W74857  31.080   8.242   3.221
 6640W        W74858  21.656  19.805  13.964
 6641W        W74859  34.147  41.003  14.600
 6642W        W74860   7.812  29.598   3.690
 6643W        W74861  30.563  18.188  14.872
 6644W        W74862  37.073  11.354  11.448
 6645W        W74863   4.438  26.526  12.395
 6646W        W74864  41.690  40.730   2.275
 6647W        W74865  39.584   1.261  13.020
 6648W        W74866  29.726  16.590   0.454
 6649W        W74867  21.145  44.850   0.696
 6650W        W74868  38.541  15.313  12.611
 6651W        W74869   3.921  41.862  11.038
 6652W        W74870  16.216   0.157  12.022
 6653W        W74871   8.274   7.988  13.501
 6654W        W74872  17.561  36.994   3.565
 6655W        W74873   1.467   6.957  13.901
 6656W        W74874  39.754  17.038  13.513
 6657W        W74875  11.220   4.011  11.023
 6658W        W74876  41.447  20.146  10.776
 6659W        W74877  11.282  29.156   2.163
 6660W        W74878  28.262  16.845  10.453
 6661W        W74879  16.617  16.780   1.308
 6662W        W74880  32.137   3.594   4.068
 6663W        W74881  42.677   3.285   0.261
 6664W        W74882  35.877  13.877   0.437
 6665W        W74883  44.847  25.595   3.054
 6666W        W74884  37.452   6.270  14.909
 6667W        W74885  13.407  36.913   3.236
 6668W        W74886  42.515  40.738   3.336
 6669W        W74887   1.877  21.845   2.755
 6670W        W74888  35.085  11.523  12.940
 6671W        W74889   9.465  13.560  13.363
 6672W        W74890  22.510  31.942   0.302
 6673W        W74891  37.028  25.888   0.950
 6674W        W74892  37.556   7.333   4.432
 6675W        W74893  12.891  25.614   3.259
 6676W        W74894   3.275  22.034   3.329
 6677W        W74895  20.612   1.019  14.083
 6678W        W74896  37.308  42.911   4.230
 6679W        W74897  27.397  24.948   1.928
 6680W        W74898  24.699   5.932   4.341
 6681W        W74899  15.550  43.967  14.122
 6682W        W74900  29.403   4.223   0.315
 6683W        W74901  10.328  20.078   0.188
 6684W        W74902  15.094   4.591   2.252
 6685W        W74903  44.333   0.958  13.717
 6686W        W74904  10.609  25.408  10.371
 6687W        W74905  25.564   7.989  14.746
 6688W        W74906  34.781  19.780  10.715
 6689W        W74907  40.068  20.883   2.155
 6690W        W74908  42.536  39.532   1.795
 6691W        W74909  34.957  32.366   3.135
 6692W        W74910  20.614  14.029   1.908
 6693W        W74911  14.503  42.340  12.090
 6694W        W74912  25.621   2.674   0.892
 6695W        W74913  32.020   8.486  11.667
 6696W        W74914  20.999   6.794   3.273
 6697W        W74915  14.310  10.631  12.999
 6698W        W74916  23.491  40.833   1.350
 6699W        W74917   0.992  41.106   0.869
 6700W        W74918   6.558  39.156   9.825
 6701W        W74919   9.741   5.736  11.185
 6702W        W74920  33.935  40.831   1.819
 6703W        W74921  39.606  42.170  11.049
 6704W        W74922  36.382  16.148   3.749
 6705W        W74923  28.221  30.188   2.332
 6706W        W74924  13.635  37.349   1.903
 6707W        W74925  36.846  15.943   1.955
 6708W        W74926  44.748   0.553   1.397
 6709W        W74927  20.016  40.371   0.471
 6710W        W74928  27.470  17.276   2.786
 6711W        W74929  40.187  41.247  12.448
 6712W        W74930  15.167  35.655  14.044
 6713W        W74931  25.008   5.901   3.572
 6714W        W74932  27.592  41.308   0.055
 6715W        W74933   5.960  12.295  14.238
 6716W        W74934  38.429  12.412   2.279
 6717W        W74935  21.168  19.341   4.952
 6718W        W74936   9.601   6.186   4.750
 6719W        W74937  18.019  14.602   1.763
 6720W        W74938   8.193  24.510   4.616
 6721W        W74939  29.760   8.596   3.502
 6722W        W74940  33.092  10.645  11.956
 6723W        W74941  18.133  30.655  11.795
 6724W        W74942  38.271  10.176   2.392
 6725W        W74943  42.758  11.148  13.912
 6726W        W74944  36.996  24.437   0.871
 6727W        W74945  41.158   2.118   5.003
 6728W        W74946  16.675   3.727   2.747
 6729W        W74947  38.578  36.005  14.642
 6730W        W74948  29.273  28.089  12.607
 6731W        W74949  31.379  23.199   4.369
 6732W        W74950   1.909  15.244  10.180
 6733W        W74951  40.542  36.884   1.814
 6734W        W74952   2.689  38.883  13.328
 6735W        W74953  38.836  25.807   4.700
 6736W        W74954  12.143   4.958   0.522
 6737W        W74955   7.994  41.492  12.870
 6738W        W74956  11.580  32.607  14.032
 6739W        W74957  28.825  21.771  12.127
 6740W        W74958  43.897  21.546   2.587
 6741W        W74959  17.115  33.067  11.845
 6742W        W74960  24.492  12.634   0.453
 6743W        W74961  30.193  28.899   2.784
 6744W        W74962  32.526  30.486   1.638
 6745W        W74963   3.931  37.175   1.596
 6746W        W74964  28.662  44.057   0.088
 6747W        W74965  16.792  25.928  14.322
 6748W        W74966  27.077  21.393  14.798
 6749W        W74967  11.597  27.312  12.506
 6750W        W74968  30.987  12.839   3.698
 6751W        W74969  33.915   1.680   3.275
 6752W        W74970  29.046  14.604   3.279
 6753W        W74971  22.520  15.596  13.815
 6754W        W74972  24.963  25.162   3.150
 6755W        W74973   8.248  28.192  11.965
 6756W        W74974  36.081  39.535   0.703
 6757W        W74975  19.111  18.733   3.473
 6758W        W74976  38.871  43.346   3.702
 6759W        W74977  32.106  38.079  11.399
 6760W        W74978  34.846  39.503  14.030
 6761W        W74979  44.481  33.749   2.250
 6762W        W74980  22.600   5.369  13.365
 6763W        W74981   3.653  22.331  13.865
 6764W        W74982   5.512  14.091   4.590
 6765W        W74983  29.873   6.414   2.669
 6766W        W74984  11.561  44.018  10.643
 6767W        W74985  20.902  38.537  10.058
 6768W        W74986  15.243  41.977  11.151
 6769W        W74987  34.748  30.389   2.433
 6770W        W74988  30.411  36.637  11.587
 6771W        W74989  32.799   5.806   1.902
 6772W        W74990  26.601  32.591  10.597
 6773W        W74991   6.002  44.332   9.679
 6774W        W74992  39.928  26.337  12.588
 6775W        W74993   8.445  41.259   1.506
 6776W        W74994  14.829   0.464  13.184
 6777W        W74995  18.610  23.281  13.535
 6778W        W74996  35.805  42.358  12.007
 6779W        W74997   7.204   3.301   2.831
 6780W        W74998  39.529  23.475   1.341
 6781W        W74999  40.452   6.188   2.056
 6782W        W75000  18.429  24.680  12.676
 6783W        W75001  37.370  28.157   2.211
 6784W        W75002  13.255  37.167  12.031
 6785W        W75003  41.956  11.845   4.347
 6786W        W75004  11.201  17.992  14.494
 6787W        W75005  32.471  17.715   1.502
 6788W        W75006  17.526  29.575   4.100
 6789W        W75007  26.665   5.387   2.358
 6790W        W75008  29.213  15.241   0.511
 6791W        W75009  34.484  21.102  13.283
 6792W        W75010  39.978   0.952   0.893
 6793W        W75011  19.075   4.007  14.357
 6794W        W75012   3.779  26.918   4.806
 6795W        W75013  36.152  23.128   3.751
 6796W        W75014   5.473  37.880   4.199
 6797W        W75015  35.901   9.556   3.265
 6798W        W75016   3.507  33.540   1.207
 6799W        W75017  15.992  32.045   3.519
 6800W        W75018  27.424  28.208   1.273
 6801W        W75019  34.867   5.215   2.725
 6802W        W75020  14.780   7.558   2.809
 6803W        W75021  11.417   5.201   4.275
 6804W        W75022  38.366  34.272  11.728
 6805W        W75023  42.491   7.626   2.789
 6806W        W75024  11.463  39.020   3.928
 6807W        W75025  40.833  13.023   4.175
 6808W        W75026   9.206  17.108   2.746
 6809W        W75027  39.847   0.665  12.015
 6810W        W75028   3.894   1.170   2.219
 6811W        W75029  18.601  30.029   2.174
 6812W        W75030   4.398  41.972   2.043
 6813W        W75031  30.793  11.880   5.245
 6814W        W75032  40.191  17.682  11.647
 6815W        W75033   1.806  17.399  12.097
 6816W        W75034  34.643  40.422   3.910
 6817W        W75035  36.906  37.944   3.156
 6818W        W75036  25.530  41.812  11.274
 6819W        W75037  39.438   0.828  12.283
 6820W        W75038   1.532   7.410  14.539
 6821W        W75039   3.290   8.306  12.047
 6822W        W75040  25.753  35.927  10.740
 6823W        W75041  15.193   6.385   0.700
 6824W        W75042  12.801  40.031   4.112
 6825W        W75043  30.858   4.277  12.820
 6826W        W75044  31.882   8.349   0.775
 6827W        W75045  20.165  38.018   3.655
 6828W        W75046  33.600  13.847   0.749
 6829W        W75047  20.124   4.228   3.188
 6830W        W75048   2.168  41.459   3.087
 6831W        W75049  19.700   5.369  11.940
 6832W        W75050  40.303  29.622  14.442
 6833W        W75051   7.527   4.579   3.259
 6834W        W75052   6.313  37.488  10.971
 6835W        W75053  37.449  38.866   4.204
 6836W        W75054  37.922  41.224  11.212
 6837W        W75055  36.489  32.033   1.129
 6838W        W75056  35.450  14.817  13.491
 6839W        W75057  23.156   3.581  13.328
 6840W        W75058  15.845  31.065  14.599
 6841W        W75059   0.992   1.416  13.032
 6842W        W75060  35.117  20.138  12.544
 6843W        W75061  40.288  27.407  11.983
 6844W        W75062   7.339  27.559  11.239
 6845W        W75063  29.371  11.614  11.605
 6846W        W75064  33.392  30.933   0.481
 6847W        W75065   6.641  43.275   1.873
 6848W        W75066  33.420  14.369  12.072
 6849W        W75067  37.695  20.967  12.656
 6850W        W75068  18.186  35.927  14.912
 6851W        W75069  14.974  17.110   0.772
 6852W        W75070  43.926  19.069   3.655
 6853W        W75071  28.316  34.412  13.434
 6854W        W75072  28.554   2.506  12.849
 6855W        W75073   1.471  29.965  14.933
 6856W        W75074  28.356  39.487   3.197
 6857W        W75075  10.523  41.449  14.750
 6858W        W75076  44.881  44.036   2.913
 6859W        W75077   1.796  30.877   0.979
 6860W        W75078   1.717  13.282   4.766
 6861W        W75079  31.969  20.608   1.997
 6862W        W75080  36.417   8.326   3.286
 6863W        W75081   8.241  11.228   4.902
 6864W        W75082  28.548  21.645   2.129
 6865W        W75083   0.798  34.915  12.016
 6866W        W75084  22.307   0.433  13.094
 6867W        W75085  21.706  31.649   0.252
 6868W        W75086  43.256  19.737  13.880
 6869W        W75087  21.620  30.039   1.822
 6870W        W75088  38.841  16.688  13.363
 6871W        W75089  37.607   9.330   2.215
 6872W        W75090  40.613  34.418   4.623
 6873W        W75091  34.627   3.784  14.491
 6874W        W75092   1.289  15.132  12.116
 6875W        W75093  31.785   3.894  10.965
 6876W        W75094  36.510  10.334   1.684
 6877W        W75095  10.710   6.873   3.810
 6878W        W75096  14.630   0.571   4.491
 6879W        W75097  44.488   0.319  12.465
 6880W        W75098  15.859  16.245  13.981
 6881W        W75099  18.941  41.116   3.644
 6882W        W75100  36.885  31.133  14.197
 6883W        W75101   9.792   6.762  12.893
 6884W        W75102  39.070  35.196  14.973
 6885W        W75103  31.113  30.614   1.344
 6886W        W75104  24.886   1.079  11.216
 6887W        W75105  34.596  13.438   3.679
 6888W        W75106  34.864  35.955   0.003
 6889W        W75107  17.708  32.805   0.402
 6890W        W75108  15.746  40.091  14.368
 6891W        W75109  17.994  36.382   0.658
 6892W        W75110  32.065  11.374  14.550
 6893W        W75111  43.438  44.234   4.909
 6894W        W75112  20.730  19.993   0.537
 6895W        W75113   2.322   8.709   4.629
 6896W        W75114  27.982  37.318   0.999
 6897W        W75115  26.660  36.758   1.274
 6898W        W75116  36.804  25.620   2.732
 6899W        W75117  20.033  30.699   0.865
 6900W        W75118  33.819  30.105  10.368
 6901W        W75119  27.973   1.179  12.591
 6902W        W75120   8.904  16.840   0.183
 6903W        W75121   1.284  36.391   2.298
 6904W        W75122  19.434  13.190   0.787
 6905W        W75123  28.169  10.756  11.853
 6906W        W75124  19.051  35.722  10.322
 6907W        W75125  18.726  28.040   4.568
 6908W        W75126  23.489  28.027   0.899
 6909W        W75127  28.424  29.982  11.128
 6910W        W75128  36.896  41.542   3.686
 6911W        W75129   4.886  10.719  12.835
 6912W        W75130   4.973   9.105  11.485
 6913W        W75131  26.734  43.750   0.497
 6914W        W75132  27.837  20.590  12.183
 6915W        W75133  35.604  27.992   4.326
 6916W        W75134  22.603  20.067   1.773
 6917W        W75135  30.918  15.919   2.757
 6918W        W75136   8.339  38.490   4.021
 6919W        W75137   3.956   2.028   0.791
 6920W        W75138  34.834  40.547   2.334
 6921W        W75139  23.171  42.488  11.562
 6922W        W75140  40.595  12.820   1.665
 6923W        W75141  40.577   7.481  10.744
 6924W        W75142  41.405   1.110   2.637
 6925W        W75143   6.734  42.893   0.758
 6926W        W75144  12.267  12.637  13.579
 6927W        W75145  12.781  27.918  12.536
 6928W        W75146   0.936  27.376   1.323
 6929W        W75147  39.340  20.974  14.082
 6930W        W75148  20.810  36.603  11.689
 6931W        W75149  40.502  34.056  14.284
 6932W        W75150   4.639  37.407   5.095
 6933W        W75151  41.823   8.695  14.965
 6934W        W75152  24.172  44.870  13.892
 6935W        W75153   4.550  31.185  13.504
 6936W        W75154  21.694  43.378  12.945
 6937W        W75155  10.589  42.853  14.936
 6938W        W75156  10.377  17.358  10.904
 6939W        W75157  12.326  11.253  14.013
 6940W        W75158  35.012  15.669   0.823
 6941W        W75159   9.965   6.803  11.162
 6942W        W75160  42.034  31.769   4.888
 6943W        W75161   9.937  44.053  12.967
 6944W        W75162  26.612  39.814   2.932
 6945W        W75163  33.205  20.572  13.086
 6946W        W75164  32.040  37.636   1.105
 6947W        W75165  41.841  14.976  11.433
 6948W        W75166  10.658  40.989   3.265
 6949W        W75167   4.059  14.622   4.533
 6950W        W75168  33.753  33.768  13.438
 6951W        W75169   2.668   7.648  13.633
 6952W        W75170  16.567   2.152  14.033
 6953W        W75171  13.784  33.045   1.873
 6954W        W75172   3.128  44.324  11.194
 6955W        W75173  41.876  29.279  11.561
 6956W        W75174   7.429   3.722   2.590
 6957W        W75175  29.108  38.826  13.512
 6958W        W75176  20.102  38.583  11.280
 6959W        W75177   1.157   7.480  10.723
 6960W        W75178   0.357  23.987  14.503
 6961W        W75179  19.305  15.486   0.010
 6962W        W75180  37.103  40.089  11.843
 6963W        W75181  12.899  23.650  11.038
 6964W        W75182   6.510  43.218   5.280
 6965W        W75183  19.572   9.001  10.688
 6966W        W75184  44.404   0.866  14.243
 6967W        W75185  27.074  25.240   9.733
 6968W        W75186  34.849  19.790   4.650
 6969W        W75187  17.502  18.630   3.091
 6970W        W75188  38.019   0.196  14.853
 6971W        W75189  28.929  35.609   0.336
 6972W        W75190  33.023  40.539   4.291
 6973W        W75191  38.977   7.204   0.033
 6974W        W75192   3.314  19.077  10.930
 6975W        W75193  42.101  40.459   0.378
 6976W        W75194   8.262   5.344  10.788
 6977W        W75195  43.998   2.420  11.535
 6978W        W75196  44.339  44.854  12.171
 6979W        W75197  13.326  16.756   0.490
 6980W        W75198  23.054  31.110   4.643
 6981W        W75199  23.973  17.728   4.098
 6982W        W75200  25.466  17.885  12.433
 6983W        W75201  14.495  44.326   3.182
 6984W        W75202  20.235   7.343  10.233
 6985W        W75203  44.194   9.333   3.323
 6986W        W75204  37.518  41.748   0.284
 6987W        W75205  32.930   9.139   4.122
 6988W        W75206   1.795   5.748  14.838
 6989W        W75207  18.772  16.604   2.294
 6990W        W75208  40.207  13.798   3.175
 6991W        W75209  17.753  17.027  11.905
 6992W        W75210  34.469  43.249   4.607
 6993W        W75211  27.480  15.371  11.637
 6994W        W75212  28.200  24.745   2.366
 6995W        W75213  10.933  22.240   4.149
 6996W        W75214  32.003  22.507   4.785
 6997W        W75215  30.878  21.217   3.211
 6998W        W75216  33.506  42.026   1.408
 6999W        W75217   1.603  23.248   2.903
 7000W        W75218  22.129   4.482  12.508
 7001W        W75219   5.694  26.988  13.930
 7002W        W75220  41.017  43.886   1.732
 7003W        W75221  39.549   8.182   1.382
 7004W        W75222   7.392  17.880   0.813
 7005W        W75223  44.365  19.437  13.740
 7006W        W75224  26.581  23.536   2.693
 7007W        W75225  21.254  39.716  12.433
 7008W        W75226  24.063  40.322   1.216
 7009W        W75227  37.289  15.817   2.615
 7010W        W75228  30.085   5.842   0.031
 7011W        W75229  29.358   0.950  10.562
 7012W        W75230  23.154  23.016   3.118
 7013W        W75231  35.666  25.645  11.406
 7014W        W75232   0.040   5.957  14.164
 7015W        W75233  29.927  41.713   0.008
 7016W        W75234  26.991  34.435   1.269
 7017W        W75235  22.021  30.525  14.935
 7018W        W75236  37.865  42.300  11.230
 7019W        W75237  27.019  28.853   1.742
 7020W        W75238  19.645  23.593   2.924
 7021W        W75239  20.691  14.928   3.340
 7022W        W75240  20.143   6.171   3.212
 7023W        W75241   9.223  32.310   2.780
 7024W        W75242  27.080   0.664   2.431
 7025W        W75243  14.645  23.906   0.372
 7026W        W75244  20.650  26.934   2.861
 7027W        W75245  44.804  18.927   2.063
 7028W        W75246  12.775  10.890   3.263
 7029W        W75247  35.573  11.647  11.623
 7030W        W75248  13.186   6.659  13.165
 7031W        W75249  27.533  40.577   3.725
 7032W        W75250   2.913   1.926   1.387
 7033W        W75251  13.202  18.998  14.010
 7034W        W75252  33.925  34.431   1.254
 7035W        W75253   3.886  38.046   2.384
 7036W        W75254   3.761  44.525  12.940
 7037W        W75255   7.710  39.818   1.346
 7038W        W75256  42.885  33.974   1.728
 7039W        W75257  13.268  24.503   2.675
 7040W        W75258  18.207   7.684   1.698
 7041W        W75259  10.656  33.596   4.643
 7042W        W75260  40.926  39.372  12.335
 7043W        W75261  20.568   3.806  10.600
 7044W        W75262  22.106  11.838   2.188
 7045W        W75263  36.917   8.268  12.827
 7046W        W75264   3.885  29.340   0.932
 7047W        W75265   1.023  33.004  11.379
 7048W        W75266  25.892   2.363  11.435
 7049W        W75267   9.901   6.170   0.599
 7050W        W75268   9.554  40.562   2.502
 7051W        W75269   1.401  44.207  11.467
 7052W        W75270   6.622  15.731  12.635
 7053W        W75271  11.352  40.942   4.692
 7054W        W75272  12.350  19.336  11.049
 7055W        W75273  24.014  13.388  14.897
 7056W        W75274  30.898  41.482  11.104
 7057W        W75275  25.167   3.549  14.365
 7058W        W75276  20.310  37.492   0.403
 7059W        W75277  39.054  44.243  14.021
 7060W        W75278  33.351  27.595  14.444
 7061W        W75279   4.154  36.532   3.620
 7062W        W75280  42.013  12.725  13.092
 7063W        W75281  20.229  24.558  11.506
 7064W        W75282  18.634  30.162  12.125
 7065W        W75283  11.575   2.906   0.407
 7066W        W75284  44.964  12.113  14.313
 7067W        W75285  43.449   8.302   0.853
 7068W        W75286  38.053  18.126  13.132
 7069W        W75287   8.741  42.568   0.697
 7070W        W75288  37.073  20.779  13.022
 7071W        W75289  44.771  44.946  10.557
 7072W        W75290  25.531  39.002   1.902
 7073W        W75291  13.135  27.868   5.073
 7074W        W75292   3.415  44.389  14.992
 7075W        W75293  40.389  43.782   2.366
 7076W        W75294   6.873  30.896  12.582
 7077W        W75295  38.524   0.331  14.862
 7078W        W75296  27.215  36.676  13.997
 7079W        W75297  10.116  28.324  12.053
 7080W        W75298  17.690   2.697  12.552
 7081W        W75299  20.763  17.316  11.033
 7082W        W75300  36.546  29.120   4.598
 7083W        W75301  42.672  30.401  12.079
 7084W        W75302  11.988  18.221  12.068
 7085W        W75303  21.218  32.978  11.146
 7086W        W75304  21.034  39.243  12.442
 7087W        W75305  18.670   5.503  11.045
 7088W        W75306  24.745  36.860   0.945
 7089W        W75307  39.502  37.975  10.976
 7090W        W75308  14.785  13.751  13.418
 7091W        W75309  43.341  15.582  12.836
 7092W        W75310  15.644  23.022  11.679
 7093W        W75311   7.760  20.012  13.862
 7094W        W75312   0.431  28.411  11.969
 7095W        W75313  43.887  34.839  13.849
 7096W        W75314  43.901   6.903   4.151
 7097W        W75315   9.107   8.400  13.022
 7098W        W75316   6.823   3.208  12.020
 7099W        W75317  30.404  27.186  12.884
 7100W        W75318  21.104  35.536   1.712
 7101W        W75319  30.676  25.981   1.175
 7102W        W75320  40.846  25.264  11.369
 7103W        W75321  25.203   5.041   4.070
 7104W        W75322   2.329   6.982  13.930
 7105W        W75323  29.684  16.652   5.042
 7106W        W75324   7.712  16.796   3.839
 7107W        W75325  20.551   3.474  12.648
 7108W        W75326  36.605  35.130  14.129
 7109W        W75327  35.017  36.409  14.361
 7110W        W75328  37.160  28.213   0.434
 7111W        W75329  34.617  37.865   3.295
 7112W        W75330  16.502   0.260   3.655
 7113W        W75331   0.002  13.980  13.926
 7114W        W75332  20.254  18.364   1.341
 7115W        W75333  30.991  25.471  14.962
 7116W        W75334   8.896  36.456  14.515
 7117W        W75335   4.181  33.008   3.731
 7118W        W75336  18.278  11.426   2.825
 7119W        W75337  42.281  30.977  11.244
 7120W        W75338  30.625  11.906  13.407
 7121W        W75339  33.948  39.952   0.798
 7122W        W75340  28.191  29.986   3.740
 7123W        W75341  11.665  21.834   3.279
 7124W        W75342  23.263  17.797  11.083
 7125W        W75343   8.709   2.939   1.194
 7126W        W75344  21.984   2.856  12.461
 7127W        W75345  28.858   5.451   3.736
 7128W        W75346  12.932  13.522  13.182
 7129W        W75347  20.503  36.951   1.485
 7130W        W75348  30.421  38.859  14.318
 7131W        W75349  39.007   7.259  13.581
 7132W        W75350  41.267  17.140   1.658
 7133W        W75351  19.749  25.576   4.646
 7134W        W75352   9.619  10.679   1.186
 7135W        W75353  42.882  35.362  14.529
 7136W        W75354  13.487   0.513   5.028
 7137W        W75355  10.982   7.093  13.914
 7138W        W75356  44.479  11.805  12.776
 7139W        W75357   3.992  16.861   0.012
 7140W        W75358  25.446  24.181  11.967
 7141W        W75359  14.615  37.125  11.616
 7142W        W75360  15.133  27.857  12.357
 7143W        W75361  34.784  39.448  11.036
 7144W        W75362   0.561  15.685   0.330
 7145W        W75363  16.982  30.111  12.027
 7146W        W75364  23.170  14.066  13.054
 7147W        W75365  39.928  20.942  14.879
 7148W        W75366  16.255   0.969   4.549
 7149W        W75367   2.237   6.406   0.408
 7150W        W75368   1.311   2.842  14.985
 7151W        W75369  19.256  25.257  10.860
 7152W        W75370   3.822  29.279  10.986
 7153W        W75371  29.607   2.477   4.612
 7154W        W75372  31.101  30.128   2.757
 7155W        W75373  12.196  40.889   0.451
 7156W        W75374  14.732  16.576   2.347
 7157W        W75375  28.163  37.510   1.448
 7158W        W75376  24.322  35.666  11.403
 7159W        W75377  11.427  13.365  13.793
 7160W        W75378  13.267  30.437   2.266
 7161W        W75379  23.205   0.321  11.641
 7162W        W75380  29.003  21.721   0.818
 7163W        W75381  37.944  27.110   0.854
 7164W        W75382  32.484  22.335   4.657
 7165W        W75383   5.191  19.648  11.615
 7166W        W75384  35.583  39.417   4.116
 7167W        W75385  36.597  38.351  13.069
 7168W        W75386   5.247  33.704  14.188
 7169W        W75387  39.569  28.663  11.040
 7170W        W75388  10.271  35.429  13.814
 7171W        W75389   5.369   8.852   0.773
 7172W        W75390  38.688   1.432   3.643
 7173W        W75391  40.049  19.276   1.349
 7174W        W75392  39.804  34.553   2.770
 7175W        W75393  10.828  19.480  14.427
 7176W        W75394   3.762   8.970  12.922
 7177W        W75395  33.210  38.498  11.638
 7178W        W75396   0.368  28.694  13.305
 7179W        W75397  36.239  36.173  11.248
 7180W        W75398  25.683  14.093   1.681
 7181W        W75399  22.321  26.198   5.101
 7182W        W75400   3.116  24.680  13.378
 7183W        W75401  13.356   7.213   3.232
 7184W        W75402  23.438  38.593  13.829
 7185W        W75403  16.588   5.317  14.360
 7186W        W75404  35.648  24.436  14.482
 7187W        W75405  27.878  10.413  12.598
 7188W        W75406  15.692  35.739  13.611
 7189W        W75407  24.986  40.291  12.943
 7190W        W75408  35.066  42.185   2.280
 7191W        W75409  32.031   2.047  12.435
 7192W        W75410  35.723  39.067  12.370
 7193W        W75411   7.172   1.712  10.650
 7194W        W75412  17.582   4.937  13.156
 7195W        W75413  35.382  26.217  12.476
 7196W        W75414   0.780  26.718  11.194
 7197W        W75415  36.109  44.280  14.599
 7198W        W75416  14.646  33.562   3.593
 7199W        W75417   0.699   1.181  14.285
 7200W        W75418  44.527  32.782  12.781
 7201W        W75419  35.274  33.027   0.393
 7202W        W75420  35.008  22.793   3.407
 7203W        W75421   7.911  27.184  14.948
 7204W        W75422  18.094  31.459   3.323
 7205W        W75423   4.820  24.146   3.135
 7206W        W75424  15.551  29.506  11.717
 7207W        W75425  43.806  24.671   3.281
 7208W        W75426  17.902   6.538   3.203
 7209W        W75427  28.566   0.902   4.021
 7210W        W75428  43.346  15.301  12.044
 7211W        W75429  23.055  12.590   4.139
 7212W        W75430  38.871  34.374   0.167
 7213W        W75431   9.992  27.918  11.475
 7214W        W75432  27.100   5.318   3.358
 7215W        W75433   1.938  15.718   4.640
 7216W        W75434   6.871  40.495  11.590
 7217W        W75435  33.645  31.586  10.493
 7218W        W75436  37.985  39.969  13.871
 7219W        W75437   9.609  43.164   1.746
 7220W        W75438   0.307  17.163   3.970
 7221W        W75439  34.475  12.193  12.046
 7222W        W75440  17.365   8.910  12.589
 7223W        W75441  25.626  29.479  13.299
 7224W        W75442  16.171   7.618  12.380
 7225W        W75443  40.049  15.682   2.084
 7226W        W75444  22.910  44.007   2.999
 7227W        W75445   8.181  33.445   1.353
 7228W        W75446   6.307  23.140   0.780
 7229W        W75447  30.126  31.934   0.917
 7230W        W75448   0.783   4.614  10.864
 7231W        W75449  35.967  29.210   0.246
 7232W        W75450  23.635  18.550   0.460
 7233W        W75451  18.760  11.155  14.742
 7234W        W75452   1.813   8.765   3.917
 7235W        W75453  10.857  31.154   2.852
 7236W        W75454  27.627  30.118  11.662
 7237W        W75455  38.868  28.438  11.589
 7238W        W75456  15.172  17.317  14.367
 7239W        W75457  13.855   6.238   4.322
 7240W        W75458  16.562  42.444   1.856
 7241W        W75459   8.070  35.272  11.039
 7242W        W75460  15.548  35.272   2.148
 7243W        W75461  19.513  44.344  12.105
 7244W        W75462  34.919  21.224  12.028
 7245W        W75463   1.251  34.604  14.849
 7246W        W75464  21.001   9.868  13.866
 7247W        W75465  31.369  42.960   0.786
 7248W        W75466  13.161  10.731  13.299
 7249W        W75467  39.294  26.626   4.148
 7250W        W75468  43.244  23.165   2.214
 7251W        W75469  30.752  15.793  11.533
 7252W        W75470  35.575  37.333   3.110
 7253W        W75471   5.804  19.041   0.500
 7254W        W75472   5.209  39.705   0.755
 7255W        W75473  18.214  28.986   2.765
 7256W        W75474   8.757  27.531   3.709
 7257W        W75475  43.639  40.876  12.600
 7258W        W75476  43.843  15.914   1.817
 7259W        W75477  36.244  21.635  11.875
 7260W        W75478  15.514  40.781  11.876
 7261W        W75479   1.762  38.403   1.858
 7262W        W75480  22.082  15.194  10.854
 7263W        W75481   4.420  27.455  10.720
 7264W        W75482  15.645   4.867  13.493
 7265W        W75483  24.044  27.903  11.387
 7266W        W75484  28.611  35.180  10.715
 7267W        W75485   6.928  16.678  11.515
 7268W        W75486  22.602  10.252  13.066
 7269W        W75487  42.782  28.513  11.956
 7270W        W75488  22.703  28.067  13.273
 7271W        W75489   9.273   7.132   1.194
 7272W        W75490  16.235  25.155   0.748
 7273W        W75491  15.554  31.441   1.812
 7274W        W75492   6.590   8.498  13.030
 7275W        W75493  36.639  20.915  10.326
 7276W        W75494  35.378   6.864   2.741
 7277W        W75495  31.442  19.101   0.074
 7278W        W75496   4.847  14.724   0.912
 7279W        W75497  42.512  37.795   0.398
 7280W        W75498  21.563  17.146  10.784
 7281W        W75499  42.458  40.891  13.966
 7282W        W75500  34.577  14.115   2.265
 7283W        W75501   1.311  11.032  13.020
 7284W        W75502  39.825  29.483  14.307
 7285W        W75503   4.206  39.709  14.065
 7286W        W75504   7.351   5.053   3.270
 7287W        W75505   2.819  40.957   1.784
 7288W        W75506  44.816  43.752  13.238
 7289W        W75507  27.930  11.426  13.074
 7290W        W75508   7.782  28.258   1.381
 7291W        W75509   2.417  37.600  13.752
 7292W        W75510  17.829   5.044   0.517
 7293W        W75511  15.625   7.231   1.202
 7294W        W75512   4.016  12.528   4.099
 7295W        W75513  14.905  22.225  13.372
 7296W        W75514  38.301  31.160   2.297
 7297W        W75515  34.175   4.493   1.352
 7298W        W75516  10.807  32.058  10.937
 7299W        W75517  11.108  35.794   1.965
 7300W        W75518   7.283  44.629  12.414
 7301W        W75519  38.302  10.199   0.682
 7302W        W75520  10.769  26.031   2.902
 7303W        W75521   1.366   0.280  13.508
 7304W        W75522  16.265  23.055   2.034
 7305W        W75523  35.022  24.154  10.824
 7306W        W75524  20.151  42.048  13.387
 7307W        W75525  24.192  26.696  14.563
 7308W        W75526  11.340  43.006  12.450
 7309W        W75527  23.844  31.494   2.840
 7310W        W75528  26.701  36.214   1.216
 7311W        W75529  27.220  39.311   0.893
 7312W        W75530  42.918   7.286  12.415
 7313W        W75531  29.819   5.962  12.104
 7314W        W75532  20.574   7.769   1.200
 7315W        W75533  42.366  38.418   3.649
 7316W        W75534  28.221  28.413  12.045
 7317W        W75535   0.370  26.433  14.827
 7318W        W75536   6.107  44.371  14.927
 7319W        W75537  27.031  34.828   0.327
 7320W        W75538  36.557  24.191   3.344
 7321W        W75539  41.669  16.549  13.430
 7322W        W75540  25.341  40.018  13.498
 7323W        W75541   9.405   9.668   1.157
 7324W        W75542  28.900   5.389   1.595
 7325W        W75543  13.132   9.785   2.188
 7326W        W75544  28.657  42.618   1.798
 7327W        W75545   8.816  35.772   0.262
 7328W        W75546  34.110   6.786   0.410
 7329W        W75547  39.956  33.359  10.644
 7330W        W75548  17.573  36.243   2.272
 7331W        W75549   1.351  42.420   3.792
 7332W        W75550   3.916  11.711   3.628
 7333W        W75551  25.024  20.254   4.036
 7334W        W75552  36.408  36.299   0.521
 7335W        W75553  35.591  17.738  12.060
 7336W        W75554   6.521   4.004   1.467
 7337W        W75555  22.581  14.368  11.994
 7338W        W75556  17.798   6.217   4.396
 7339W        W75557  44.886  42.124   4.582
 7340W        W75558  43.286  24.109  12.561
 7341W        W75559   5.811  34.923   2.756
 7342W        W75560  15.358  35.182  13.773
 7343W        W75561  14.614  14.963  11.856
 7344W        W75562  30.599  25.171  14.795
 7345W        W75563  21.055  30.097  12.339
 7346W        W75564  16.411  31.431  13.464
 7347W        W75565  37.392  33.381   3.816
 7348W        W75566  42.845  44.718   2.147
 7349W        W75567  38.794  36.949   3.263
 7350W        W75568  13.698  32.852   4.121
 7351W        W75569  13.312   9.340   4.684
 7352W        W75570  23.795  42.701   0.404
 7353W        W75571  37.783   9.854   0.249
 7354W        W75572   4.339  33.549  11.547
 7355W        W75573  13.589   9.791  14.810
 7356W        W75574   6.404  21.624  13.456
 7357W        W75575   2.214   4.162   3.572
 7358W        W75576  24.315  41.295   0.163
 7359W        W75577  42.695  26.144  13.817
 7360W        W75578  17.122  18.279   3.180
 7361W        W75579  27.548  28.112  11.949
 7362W        W75580  28.239  24.740  10.642
 7363W        W75581   7.253  38.353  11.085
 7364W        W75582  30.493  28.825  12.633
 7365W        W75583   5.434   5.177  11.602
 7366W        W75584   1.650  38.855  11.140
 7367W        W75585  22.252   8.746  13.940
 7368W        W75586  43.010  38.073  14.925
 7369W        W75587  15.758  17.563  13.942
 7370W        W75588   0.522   8.748  14.512
 7371W        W75589  36.344  22.489   4.683
 7372W        W75590  42.004  22.736   0.069
 7373W        W75591  38.909  18.053  11.947
 7374W        W75592  38.014  44.253  11.945
 7375W        W75593  10.774  15.124  12.626
 7376W        W75594  25.753  25.805   3.998
 7377W        W75595   3.309   6.928   0.447
 7378W        W75596  15.338  36.327  11.432
 7379W        W75597  11.397  20.134   4.587
 7380W        W75598  41.867  18.563  14.665
 7381W        W75599  35.489  13.081   1.295
 7382W        W75600  34.184  37.899   1.383
 7383W        W75601   3.966  39.989   1.413
 7384W        W75602   4.903  24.265  14.415
 7385W        W75603  20.580  40.421   1.623
 7386W        W75604   0.159  36.418   2.187
 7387W        W75605  29.566  31.416  10.673
 7388W        W75606  19.633  32.047   0.831
 7389W        W75607  19.744  33.972   1.335
 7390W        W75608  28.358   7.377   1.524
 7391W        W75609   7.247  37.555   2.873
 7392W        W75610  24.641  41.033   3.171
 7393W        W75611  43.321  44.968  14.046
 7394W        W75612  24.189  20.652   4.668
 7395W        W75613  16.099   4.877   0.380
 7396W        W75614   1.804  41.848   0.660
 7397W        W75615  25.466  17.988   3.418
 7398W        W75616  42.527   2.883   3.839
 7399W        W75617  28.435  43.407  11.444
 7400W        W75618  35.412  13.489   4.116
 7401W        W75619  29.598  35.520   0.860
 7402W        W75620   7.383   7.255  12.903
 7403W        W75621  43.785  23.064   0.224
 7404W        W75622  11.568  30.685   5.065
 7405W        W75623  35.841   4.254   2.331
 7406W        W75624  35.384  18.357   3.760
 7407W        W75625  33.917   7.236  11.218
 7408W        W75626  27.395  28.893  14.069
 7409W        W75627  31.606  39.421   0.450
 7410W        W75628  35.875  44.429   0.031
 7411W        W75629   5.226  42.976  10.271
 7412W        W75630   7.336  16.368   0.721
 7413W        W75631  17.950  17.864  12.923
 7414W        W75632  24.797   8.184  11.949
 7415W        W75633  33.059  32.445   1.191
 7416W        W75634  16.527  34.537   0.801
 7417W        W75635   9.503   5.174   2.599
 7418W        W75636  14.257  27.712   3.246
 7419W        W75637  22.246   9.509   4.145
 7420W        W75638   8.875  43.562   3.601
 7421W        W75639  35.682  16.303  14.199
 7422W        W75640  24.993  28.392   3.643
 7423W        W75641   5.167  15.330   2.751
 7424W        W75642  11.137  43.942  11.470
 7425W        W75643   6.449  41.287  10.334
 7426W        W75644  39.088  30.261   0.386
 7427W        W75645  24.920  15.304   4.936
 7428W        W75646   7.364   6.889   2.891
 7429W        W75647  33.242  16.309   3.758
 7430W        W75648   2.063  34.428   0.183
 7431W        W75649  14.309  22.925   4.125
 7432W        W75650   4.471  26.416   3.756
 7433W        W75651  43.857  44.900  10.475
 7434W        W75652  11.565  23.842   5.262
 7435W        W75653  41.788  11.504   4.691
 7436W        W75654  29.655  27.013  11.467
 7437W        W75655  31.199  27.003  12.518
 7438W        W75656  43.253  31.908   0.144
 7439W        W75657  32.071  20.707  10.724
 7440W        W75658  30.373  21.713   1.956
 7441W        W75659  27.516  17.734  12.080
 7442W        W75660   9.952  31.047  11.527
 7443W        W75661  25.747   8.404   0.332
 7444W        W75662  40.971  38.506   2.701
 7445W        W75663  24.306  25.250  12.213
 7446W        W75664  35.541  35.889  10.555
 7447W        W75665  29.514   3.255   4.984
 7448W        W75666   0.938   3.822  14.332
 7449W        W75667  29.560  41.452  13.134
 7450W        W75668  15.082  15.317   1.352
 7451W        W75669  38.183  34.970  12.407
 7452W        W75670   2.777  28.403  12.123
 7453W        W75671  33.448   5.379   3.071
 7454W        W75672  40.944   4.412   0.810
 7455W        W75673  29.674  17.774   2.769
 7456W        W75674  10.216  37.423  12.448
 7457W        W75675   9.664  15.338   0.890
 7458W        W75676  43.278  26.340   2.311
 7459W        W75677   5.125  43.302  10.667
 7460W        W75678  32.502   6.222  13.333
 7461W        W75679  18.906  35.507   2.875
 7462W        W75680  42.039   8.294  12.112
 7463W        W75681  37.076  18.536  14.412
 7464W        W75682  27.793   7.700  10.795
 7465W        W75683  12.830  35.053  13.341
 7466W        W75684  24.294   0.395  14.422
 7467W        W75685  15.550  38.041   3.291
 7468W        W75686  38.816   2.482  12.596
 7469W        W75687  43.582  33.598   0.936
 7470W        W75688  19.503  40.293  11.476
 7471W        W75689  31.570  30.093   1.773
 7472W        W75690   4.775   6.225   3.033
 7473W        W75691  10.561  38.090   4.230
 7474W        W75692  33.673  35.589   2.877
 7475W        W75693   6.754  33.117  10.755
 7476W        W75694  36.627   7.437   2.789
 7477W        W75695  44.553  42.229  12.470
 7478W        W75696  36.671  10.722   0.297
 7479W        W75697   1.750  36.941  10.821
 7480W        W75698   3.784  20.098   2.235
 7481W        W75699  25.124  40.927   4.959
 7482W        W75700  30.984   6.672   0.283
 7483W        W75701  21.769  44.293   3.245
 7484W        W75702  23.589  18.807  11.589
 7485W        W75703  19.302  37.819   1.366
 7486W        W75704  26.058  29.633  13.570
 7487W        W75705   8.416  18.168   0.063
 7488W        W75706  28.606  18.026   0.002
 7489W        W75707  37.653  16.574   3.592
 7490W        W75708  34.593   8.416  14.504
 7491W        W75709  44.693  44.651   1.858
 7492W        W75710  17.837   3.275  10.932
 7493W        W75711  43.803  32.194   2.897
 7494W        W75712  15.913  39.774   3.720
 7495W        W75713   2.526  34.941   0.858
 7496W        W75714  11.887  29.193   2.818
 7497W        W75715  30.836  44.093  13.013
 7498W        W75716  42.488   8.696   4.714
 7499W        W75717  13.733  26.558  13.961
 7500W        W75718  23.183   9.592   3.814
 7501W        W75719  23.959  21.268  13.931
 7502W        W75720  42.308  28.661   2.736
 7503W        W75721  44.427  41.987   3.446
 7504W        W75722  13.417  39.878   4.834
 7505W        W75723   4.956  36.827  12.876
 7506W        W75724  22.113  10.156  14.480
 7507W        W75725  13.444  25.191  12.560
 7508W        W75726   2.596   2.023  13.025
 7509W        W75727  18.510  21.963  11.076
 7510W        W75728   6.596  44.787  13.571
 7511W        W75729  40.877  29.947   2.871
 7512W        W75730  28.486  19.336  11.092
 7513W        W75731  33.176  34.948   0.054
 7514W        W75732  19.090  15.704   3.935
 7515W        W75733  29.522  14.547   1.809
 7516W        W75734  30.733  44.538   1.252
 7517W        W75735  15.063  20.664  12.506
 7518W        W75736  17.919  35.023  10.875
 7519W        W75737  22.713   1.517   2.344
 7520W        W75738  40.963  35.323   1.862
 7521W        W75739   1.392  38.311   1.290
 7522W        W75740  43.178  41.002  10.921
 7523W        W75741  40.982  28.061   2.658
 7524W        W75742   8.752  14.098  14.270
 7525W        W75743  15.101  38.633  14.381
 7526W        W75744  12.375  30.905   1.835
 7527W        W75745  28.144  41.423  13.346
 7528W        W75746  42.216  36.643   4.530
 7529W        W75747  27.539  18.817   0.896
 7530W        W75748   4.472  21.609  13.415
 7531W        W75749   3.525  10.266  14.061
 7532W        W75750  21.046  41.861   0.826
 7533W        W75751  36.072  35.548   3.160
 7534W        W75752  26.457   2.860  10.816
 7535W        W75753  27.903   6.155   3.730
 7536W        W75754  23.553  20.871   0.499
 7537W        W75755  12.372   4.207   1.232
 7538W        W75756  32.883  10.694  12.515
 7539W        W75757   2.894  21.640  12.547
 7540W        W75758   9.889   1.302   3.097
 7541W        W75759  30.116  32.404  13.979
 7542W        W75760  25.766  26.012   3.173
 7543W        W75761   9.594  29.441   4.224
 7544W        W75762  16.607  15.841  13.821
 7545W        W75763  20.279   7.719  12.720
 7546W        W75764  35.512  13.897   0.809
 7547W        W75765  30.150  23.507  11.574
 7548W        W75766  40.829  33.025   4.054
 7549W        W75767  38.081  42.422  13.110
 7550W        W75768  38.477  12.178  11.385
 7551W        W75769   5.745  41.991   2.764
 7552W        W75770   8.857  43.878  11.953
 7553W        W75771   3.106  15.125   3.739
 7554W        W75772  22.648  17.741  12.607
 7555W        W75773  14.494   1.394  13.405
 7556W        W75774   6.907  43.472  11.680
 7557W        W75775  39.856  43.856  14.869
 7558W        W75776  21.708  21.356   3.356
 7559W        W75777  16.785  10.634  10.705
 7560W        W75778  27.163   1.880  11.946
 7561W        W75779  33.337  13.608  12.491
 7562W        W75780   5.313   8.958   1.280
 7563W        W75781  43.721  12.628   0.236
 7564W        W75782  28.633  39.743   1.371
 7565W        W75783  30.841  10.698   0.363
 7566W        W75784  11.097  15.173   3.541
 7567W        W75785  42.847   2.299   4.547
 7568W        W75786  32.526  13.167  13.479
 7569W        W75787   1.998   5.390  13.483
 7570W        W75788  11.260  26.423  14.003
 7571W        W75789   7.620   9.341  13.360
 7572W        W75790  29.034  21.018  11.177
 7573W        W75791  13.568  17.384   1.883
 7574W        W75792  27.663  38.001   2.269
 7575W        W75793  15.403  20.633   0.043
 7576W        W75794  10.334  11.669   3.686
 7577W        W75795   9.929   0.311  11.613
 7578W        W75796  11.421  20.934  13.484
 7579W        W75797   2.436   7.778  14.937
 7580W        W75798  44.873  39.820  14.503
 7581W        W75799  33.901  33.395   4.720
 7582W        W75800  34.490  44.841   2.669
 7583W        W75801  18.189   1.312   3.569
 7584W        W75802  38.536  26.972  12.039
 7585W        W75803  38.768   3.472   5.371
 7586W        W75804  23.900  31.620   4.662
 7587W        W75805   6.870  23.481   3.726
 7588W        W75806  19.102  33.977  11.730
 7589W        W75807  36.466   0.000  11.916
 7590W        W75808  29.371   9.502   1.477
 7591W        W75809   9.297  11.432   9.813
 7592W        W75810  24.047   5.330  10.580
 7593W        W75811  15.639  27.956   3.245
 7594W        W75812   2.413   0.046  12.868
 7595W        W75813  10.880  40.467   1.142
 7596W        W75814   5.430  23.531   2.910
 7597W        W75815  24.723   7.576   2.811
 7598W        W75816   9.115   2.962  10.659
 7599W        W75817  19.709  41.329   0.770
 7600W        W75818  39.843  19.489  13.413
 7601W        W75819   8.314  11.587  14.442
 7602W        W75820  21.238  18.205   4.037
 7603W        W75821  20.573   9.846  10.565
 7604W        W75822  21.216  16.311   4.185
 7605W        W75823   5.808  35.529   0.641
 7606W        W75824  12.929  16.717  10.956
 7607W        W75825  33.821  43.454  12.674
 7608W        W75826  29.414  11.122   2.589
 7609W        W75827  20.367   3.497  14.060
 7610W        W75828  11.811  25.969  11.117
 7611W        W75829  34.016  41.369   1.831
 7612W        W75830  28.482  33.489  12.426
 7613W        W75831  41.393  42.299   2.344
 7614W        W75832   7.274   6.137   1.095
 7615W        W75833  19.520  34.781  12.953
 7616W        W75834  32.518  17.546  14.010
 7617W        W75835  21.673  13.097  10.641
 7618W        W75836  26.251  24.064  11.327
 7619W        W75837   5.588   1.720  13.003
 7620W        W75838  40.446   4.243   4.208
 7621W        W75839  26.666  21.682   0.435
 7622W        W75840  26.577   0.329   1.250
 7623W        W75841  34.730   5.985   1.721
 7624W        W75842  17.525   1.959   1.955
 7625W        W75843  44.405  12.727   2.215
 7626W        W75844  24.122  11.326   1.137
 7627W        W75845   3.461   3.362   1.381
 7628W        W75846  29.088  43.733   0.183
 7629W        W75847  33.181  27.475  12.951
 7630W        W75848  41.873  33.173  12.086
 7631W        W75849   3.955  12.184  14.855
 7632W        W75850  30.363  38.517   2.280
 7633W        W75851  13.637  19.862   3.933
 7634W        W75852  36.073  14.568   4.664
 7635W        W75853  31.066   2.377   2.270
 7636W        W75854  15.214  43.382   0.339
 7637W        W75855  10.938  13.267   1.265
 7638W        W75856  15.871  35.011   0.347
 7639W        W75857  42.422  32.846  14.826
 7640W        W75858  12.542  34.909   3.210
 7641W        W75859  33.005   0.856  13.692
 7642W        W75860  12.769  24.727   2.030
 7643W        W75861  37.341  40.475  12.147
 7644W        W75862  34.217  26.490   3.667
 7645W        W75863   5.275  41.563  12.544
 7646W        W75864  44.108  26.288  14.642
 7647W        W75865  41.509  15.301  11.258
 7648W        W75866  26.474  34.270  14.897
 7649W        W75867  28.600   9.214   2.897
 7650W        W75868   8.269   0.542   3.250
 7651W        W75869   3.999  20.821   2.770
 7652W        W75870  35.681  37.795  12.062
 7653W        W75871  20.006  37.475  10.188
 7654W        W75872  40.397  26.781   3.685
 7655W        W75873  11.168  18.335  14.102
 7656W        W75874   5.890  17.745  11.638
 7657W        W75875   5.145   9.779   0.791
 7658W        W75876  31.636  20.058  13.920
 7659W        W75877  22.293  14.217   2.463
 7660W        W75878  15.364  20.304   4.125
 7661W        W75879  25.944  41.441   1.586
 7662W        W75880  43.537  35.036  14.426
 7663W        W75881   0.888  11.292   3.084
 7664W        W75882  38.077   7.956   0.322
 7665W        W75883   8.439  21.103  13.731
 7666W        W75884  18.291  39.982   0.564
 7667W        W75885  44.611   3.078  10.192
 7668W        W75886  42.747  26.513  10.830
 7669W        W75887   9.815  14.985  12.512
 7670W        W75888  11.900  17.656  12.967
 7671W        W75889  41.725  17.308   0.273
 7672W        W75890   0.601  26.173   3.905
 7673W        W75891  11.924   4.173   3.654
 7674W        W75892  17.096  30.696   2.260
 7675W        W75893   5.905  44.700   2.650
 7676W        W75894  35.892  13.239  10.750
 7677W        W75895  23.177  32.413   2.144
 7678W        W75896   3.469  33.519  13.450
 7679W        W75897  11.673  37.806  13.403
 7680W        W75898   8.092   9.034  11.070
 7681W        W75899  38.204  32.789   4.594
 7682W        W75900  14.864  19.231   3.199
 7683W        W75901  20.453  15.181   2.938
 7684W        W75902  18.571  35.536   5.302
 7685W        W75903   7.353  42.305  12.871
 7686W        W75904  26.629  26.002   3.099
 7687W        W75905  18.030  12.137   4.055
 7688W        W75906   7.162  15.659  14.786
 7689W        W75907  36.918  24.260   3.802
 7690W        W75908   0.912  39.499   0.789
 7691W        W75909  24.456  31.874   3.215
 7692W        W75910  15.955  20.992   5.115
 7693W        W75911  29.129  34.073   4.927
 7694W        W75912  38.526   9.174  11.627
 7695W        W75913   5.428  10.116  11.054
 7696W        W75914  11.074   1.419  12.079
 7697W        W75915  35.042   9.273   2.303
 7698W        W75916   0.092   8.981   3.292
 7699W        W75917   8.733  26.596   0.884
 7700W        W75918   4.107  25.537   4.812
 7701W        W75919  18.370  18.483   3.390
 7702W        W75920  28.765  21.072   0.259
 7703W        W75921  21.469  27.877   2.403
 7704W        W75922  11.771  41.286  13.386
 7705W        W75923   9.293   5.355   1.295
 7706W        W75924  13.308  34.891  14.505
 7707W        W75925  26.199  17.313  12.538
 7708W        W75926   3.168   2.839  14.703
 7709W        W75927  23.322   1.510   3.187
 7710W        W75928  38.770   2.795  14.841
 7711W        W75929  44.715  36.915   3.004
 7712W        W75930  10.939   4.814   2.663
 7713W        W75931  15.685   9.652  12.937
 7714W        W75932   4.482  21.109   0.538
 7715W        W75933  43.315  15.161  14.947
 7716W        W75934  31.126  39.136  13.593
 7717W        W75935   4.012  40.033   0.298
 7718W        W75936  30.507   3.986   2.196
 7719W        W75937  11.125  20.522  12.050
 7720W        W75938  32.414  27.923   0.914
 7721W        W75939  19.760  16.143  13.551
 7722W        W75940  17.255  22.838   1.138
 7723W        W75941  37.672  16.783   1.418
 7724W        W75942   8.548   4.408   3.205
 7725W        W75943  21.195  15.796   4.148
 7726W        W75944  41.686  24.720   3.119
 7727W        W75945  27.695  32.299   4.693
 7728W        W75946  29.460  36.441  13.291
 7729W        W75947  13.579  31.427  11.047
 7730W        W75948  23.437   9.937   1.328
 7731W        W75949   1.285  23.373   1.381
 7732W        W75950   2.767  33.558   1.911
 7733W        W75951  14.088  31.593   1.663
 7734W        W75952   5.949  13.931   1.162
 7735W        W75953  27.881   3.687   3.665
 7736W        W75954  37.625  16.305  13.866
 7737W        W75955  42.415   8.787  14.242
 7738W        W75956   1.000  37.629  11.697
 7739W        W75957  16.806  34.250  13.054
 7740W        W75958  43.294   8.357   4.074
 7741W        W75959   8.791   2.050   0.975
 7742W        W75960  25.061  35.349   2.361
 7743W        W75961   9.887  32.011  10.678
 7744W        W75962  31.629  17.661  13.591
 7745W        W75963  22.170  16.754   4.138
 7746W        W75964  17.666  20.159   0.028
 7747W        W75965   1.904   8.693   3.398
 7748W        W75966  35.116  41.504   2.293
 7749W        W75967  29.929   4.150  11.460
 7750W        W75968   5.170  10.788   2.357
 7751W        W75969  31.561  10.091   4.171
 7752W        W75970  31.015  29.485   4.354
 7753W        W75971   1.847  38.985  14.786
 7754W        W75972  19.606  29.689  13.351
 7755W        W75973  16.176  32.889  13.523
 7756W        W75974   3.219  20.620   0.593
 7757W        W75975  32.455  15.460   2.239
 7758W        W75976  31.938   3.005   2.699
 7759W        W75977   6.584  13.153  13.317
 7760W        W75978  13.882  23.532   2.899
 7761W        W75979  14.248  19.656  11.673
 7762W        W75980  16.504  13.047  13.064
 7763W        W75981  43.598  22.566   0.329
 7764W        W75982   2.259   4.446  14.598
 7765W        W75983  37.907   3.461   1.044
 7766W        W75984  43.355  19.713   4.587
 7767W        W75985  35.162   9.912   3.071
 7768W        W75986  43.309  44.852   2.343
 7769W        W75987  38.788  25.353   4.248
 7770W        W75988  11.193  20.025  14.832
 7771W        W75989  14.730  19.056   1.814
 7772W        W75990  13.961  23.470  11.283
 7773W        W75991   0.686   2.499  11.204
 7774W        W75992  34.006  33.129   4.290
 7775W        W75993  35.599   7.330   2.860
 7776W        W75994  16.245   3.116  11.366
 7777W        W75995  17.720  35.092   1.555
 7778W        W75996  24.263   3.847  14.036
 7779W        W75997   8.611  44.949  12.427
 7780W        W75998   1.959  10.144  14.859
 7781W        W75999   2.754   5.834   1.023
 7782W        W76000  43.246   4.139  13.270
 7783W        W76001  38.970  26.704  12.110
 7784W        W76002  11.428  33.642  14.526
 7785W        W76003  30.938  39.539   4.224
 7786W        W76004  14.376  26.884   0.519
 7787W        W76005  44.541   5.807  12.063
 7788W        W76006  38.688  23.996  12.392
 7789W        W76007  36.920  20.301  12.963
 7790W        W76008  29.085   2.490  14.987
 7791W        W76009   9.968  20.101  13.725
 7792W        W76010  29.045  30.099   3.813
 7793W        W76011  44.338  28.620  10.749
 7794W        W76012  35.330  37.473   3.788
 7795W        W76013  29.180  23.692   5.539
 7796W        W76014  15.825  36.106   4.133
 7797W        W76015  18.068  44.329   3.171
 7798W        W76016  32.545   3.145   5.309
 7799W        W76017   3.333  24.157  12.224
 7800W        W76018   1.377  21.045   0.705
 7801W        W76019   0.717  11.244   4.097
 7802W        W76020  19.940  29.876   1.644
 7803W        W76021  10.605   9.743   2.926
 7804W        W76022  12.180  39.823  13.783
 7805W        W76023  16.222  25.119   2.293
 7806W        W76024  15.566  35.393   3.032
 7807W        W76025   6.430   9.466  13.822
 7808W        W76026   0.374  22.057   4.932
 7809W        W76027   3.689   0.780   1.897
 7810W        W76028   9.911  43.407   3.628
 7811W        W76029  43.280   0.377  13.439
 7812W        W76030  23.788  34.096   4.013
 7813W        W76031  29.539  37.510  11.132
 7814W        W76032  41.483  23.613  14.339
 7815W        W76033  44.965   1.734   4.774
 7816W        W76034  37.221  42.881   1.034
 7817W        W76035  41.774  44.213  10.743
 7818W        W76036  20.749  21.643   4.052
 7819W        W76037  15.923  35.533   0.570
 7820W        W76038  17.046  19.130  10.867
 7821W        W76039  32.234  25.021   2.491
 7822W        W76040  25.942  41.589  11.055
 7823W        W76041  28.606   3.257   4.976
 7824W        W76042  29.686  16.593  14.919
 7825W        W76043  18.801  41.366  13.896
 7826W        W76044  12.093  37.514   4.624
 7827W        W76045  38.021  15.738   1.375
 7828W        W76046  44.510  41.266  13.424
 7829W        W76047  24.763   0.073   4.125
 7830W        W76048   0.066  39.293   3.334
 7831W        W76049   1.542  29.600   3.678
 7832W        W76050   3.836  19.992  13.123
 7833W        W76051  17.365  42.898  14.324
 7834W        W76052  19.342  19.622  12.836
 7835W        W76053  41.616  40.330   5.022
 7836W        W76054   0.218  33.539   4.881
 7837W        W76055   4.152  14.487  12.929
 7838W        W76056  10.290   7.960   5.082
 7839W        W76057  18.260  39.539   0.832
 7840W        W76058  32.282   4.456   0.785
 7841W        W76059  18.180  41.949  14.846
 7842W        W76060   5.240  28.317  13.293
 7843W        W76061  12.682  38.873   4.222
 7844W        W76062  21.902  18.269   2.812
 7845W        W76063  24.538  31.216   2.430
 7846W        W76064  30.561  41.800   2.853
 7847W        W76065   5.889  42.209  13.063
 7848W        W76066  23.102  26.104  10.635
 7849W        W76067  20.010  28.507   4.757
 7850W        W76068   8.723  36.319   5.078
 7851W        W76069   1.262  27.583   2.232
 7852W        W76070  14.056  20.132  11.530
 7853W        W76071  25.780  31.339  14.315
 7854W        W76072  12.405   3.142  12.962
 7855W        W76073  16.509  33.466   3.439
 7856W        W76074  15.207   4.904   3.683
 7857W        W76075  12.283   3.419   4.526
 7858W        W76076   3.845   2.201   2.317
 7859W        W76077  18.268  16.333   2.694
 7860W        W76078  15.133  24.189  14.711
 7861W        W76079   7.405  38.843   0.218
 7862W        W76080   4.411   8.640  12.560
 7863W        W76081  22.498  29.993   4.624
 7864W        W76082  27.104  10.832  13.119
 7865W        W76083  23.664   6.689  14.023
 7866W        W76084   8.165   6.123   2.347
 7867W        W76085  28.514  24.385  14.031
 7868W        W76086  39.909   5.882   9.701
 7869W        W76087   2.960  13.819  11.606
 7870W        W76088   5.771   8.290  14.258
 7871W        W76089  25.759  41.652  11.718
 7872W        W76090  37.357  33.150  10.739
 7873W        W76091  31.683  35.419   4.391
 7874W        W76092  11.707  19.556   0.956
 7875W        W76093   1.430  24.820   4.884
 7876W        W76094  30.015  16.249  10.088
 7877W        W76095  24.858  41.513   3.156
 7878W        W76096   7.405  13.588  14.830
 7879W        W76097  28.009   1.529  13.854
 7880W        W76098  22.292  32.255  13.521
 7881W        W76099  21.003   5.369  11.477
 7882W        W76100  37.773  12.629  11.498
 7883W        W76101  21.995  13.395  14.999
 7884W        W76102   5.875  12.162   4.088
 7885W        W76103  27.427   1.253   0.515
 7886W        W76104   7.009  29.568  13.318
 7887W        W76105  35.927  43.732  13.316
 7888W        W76106   5.452  40.482   4.613
 7889W        W76107  41.465   8.163   1.419
 7890W        W76108  37.521   5.846  10.537
 7891W        W76109  18.000   2.479   2.323
 7892W        W76110  19.483  31.318  14.502
 7893W        W76111  20.295  16.669   1.824
 7894W        W76112  20.102  16.022  11.095
 7895W        W76113  21.667  36.324  14.259
 7896W        W76114  27.476  18.596  10.936
 7897W        W76115  34.963  36.546  13.856
 7898W        W76116  30.616  29.852  10.278
 7899W        W76117  24.769  42.275   4.452
 7900W        W76118  27.587  44.274  10.757
 7901W        W76119  10.614   3.747  11.589
 7902W        W76120  13.156   8.505  14.781
 7903W        W76121  13.289  33.190   4.135
 7904W        W76122  31.912  22.946  13.945
 7905W        W76123  41.360  17.792   4.885
 7906W        W76124  43.002  30.471   2.815
 7907W        W76125  31.585   6.422  13.699
 7908W        W76126  34.581  28.124   0.391
 7909W        W76127  44.790  17.620   4.602
 7910W        W76128  44.290  43.699  11.429
 7911W        W76129  31.248  28.831  11.498
 7912W        W76130   4.230  42.229   3.333
 7913W        W76131  39.011  19.036  11.530
 7914W        W76132  31.201  34.566  14.036
 7915W        W76133  10.890  12.854   0.880
 7916W        W76134  20.647  28.485   0.983
 7917W        W76135  13.639  32.121  11.930
 7918W        W76136  21.519  16.875   3.753
 7919W        W76137  24.922  35.828   1.483
 7920W        W76138  31.494  36.142  12.645
 7921W        W76139  12.276  44.457   4.984
 7922W        W76140  37.386  25.871  12.455
 7923W        W76141  31.569   7.173   0.276
 7924W        W76142   2.998   0.947   1.347
 7925W        W76143  36.014   5.176   2.541
 7926W        W76144  18.291  12.082   3.625
 7927W        W76145   8.265  37.590   1.237
 7928W        W76146  11.690  29.475   1.976
 7929W        W76147  18.810  12.227   4.486
 7930W        W76148  19.830  16.285   0.946
 7931W        W76149  14.948  35.654   2.265
 7932W        W76150  28.948  19.943  10.525
 7933W        W76151  23.618   0.026  11.730
 7934W        W76152  39.930  12.813   3.711
 7935W        W76153  28.282   7.204   4.229
 7936W        W76154   3.476  25.691   0.815
 7937W        W76155  36.268  35.447  12.065
 7938W        W76156  24.519  40.266  13.318
 7939W        W76157  20.480  13.663   0.470
 7940W        W76158   7.789   4.173  11.467
 7941W        W76159  23.463   5.132   2.805
 7942W        W76160  37.451  39.333   1.865
 7943W        W76161  33.597   4.516  12.587
 7944W        W76162  22.540   0.801  14.915
 7945W        W76163   6.856  19.585   4.127
 7946W        W76164  13.241   0.927  14.472
 7947W        W76165   1.586  36.945   4.491
 7948W        W76166  28.512   8.233   4.051
 7949W        W76167  21.813   6.766   1.829
 7950W        W76168  16.695   6.810   0.919
 7951W        W76169  23.589  20.120  14.296
 7952W        W76170  15.170  31.008  12.015
 7953W        W76171  27.641  31.577  13.366
 7954W        W76172  32.567  14.608  12.177
 7955W        W76173   0.712  44.631  13.675
 7956W        W76174  33.908  22.477  11.482
 7957W        W76175  33.024   3.876  13.907
 7958W        W76176  33.414  20.238   3.217
 7959W        W76177   4.636  23.084  10.345
 7960W        W76178  29.640  30.120  11.892
 7961W        W76179  16.106  41.000   0.905
 7962W        W76180  11.730  21.605  12.180
 7963W        W76181  32.377  24.454  13.507
 7964W        W76182  31.997  14.844  10.765
 7965W        W76183  23.534  35.323  11.574
 7966W        W76184  35.519  30.609  13.916
 7967W        W76185   4.037  33.056  10.695
 7968W        W76186  23.419   3.918   3.200
 7969W        W76187  14.388   6.867   0.413
 7970W        W76188   6.819  36.942  13.960
 7971W        W76189  39.431   8.170  12.495
 7972W        W76190  19.508   1.413  13.619
 7973W        W76191  35.406   1.726   0.207
 7974W        W76192  23.678   5.134   0.957
 7975W        W76193  39.904  19.620   1.950
 7976W        W76194   3.885  34.316  10.141
 7977W        W76195  37.545  10.385   1.626
 7978W        W76196  28.396  11.748   1.824
 7979W        W76197  21.636  36.972  13.920
 7980W        W76198  13.528  36.146  10.574
 7981W        W76199   9.792  33.178   4.758
 7982W        W76200  32.842  42.479  14.882
 7983W        W76201  26.699  26.137  12.514
 7984W        W76202   0.448  39.769   0.789
 7985W        W76203   8.210   8.812  13.884
 7986W        W76204   7.458  34.964   0.895
 7987W        W76205  19.018   7.813   3.770
 7988W        W76206   4.682  30.357   4.526
 7989W        W76207  39.291  10.265   2.348
 7990W        W76208  27.915  36.655  13.391
 7991W        W76209  22.546  44.473  11.747
 7992W        W76210  13.106  28.155  10.480
 7993W        W76211  31.761  26.629   1.765
 7994W        W76212  34.042   9.980  13.838
 7995W        W76213   0.838  36.168  12.443
 7996W        W76214  26.049  21.547  10.774
 7997W        W76215  16.155  38.026   1.988
 7998W        W76216  40.465  16.604   4.654
 7999W        W76217  20.613  10.494   1.359
 8000W        W76218   8.515   3.146   4.105
 8001W        W76219  28.162   1.592   5.002
 8002W        W76220  44.834  28.059  14.454
 8003W        W76221  42.306   7.607  11.640
 8004W        W76222  27.581  37.679  14.237
 8005W        W76223  13.222  19.108   2.252
 8006W        W76224  30.665  12.801   1.345
 8007W        W76225  39.471  10.967   0.777
 8008W        W76226  39.979   8.541   0.200
 8009W        W76227  32.519  41.056  11.952
 8010W        W76228   7.776  41.559  12.428
 8011W        W76229  31.962  22.142   1.245
 8012W        W76230  35.827  20.158   0.366
 8013W        W76231   4.030  30.998  11.238
 8014W        W76232  39.474  17.341   4.259
 8015W        W76233  10.228   3.873  12.921
 8016W        W76234  34.659  26.436   4.524
 8017W        W76235  11.861  31.823   0.266
 8018W        W76236  23.023  41.900  11.851
 8019W        W76237  28.977  19.317  12.766
 8020W        W76238  28.165  12.538   0.041
 8021W        W76239  26.097  43.483  10.618
 8022W        W76240  29.662   9.577   2.387
 8023W        W76241   6.515  44.987   5.210
 8024W        W76242   4.327  44.434  14.716
 8025W        W76243  30.527  11.649  12.941
 8026W        W76244  17.160  42.741   1.289
 8027W        W76245  22.907  14.149  13.483
 8028W        W76246  27.648   5.289  12.990
 8029W        W76247  34.153  31.012  14.790
 8030W        W76248  24.057  37.517  13.029
 8031W        W76249  31.483  37.929  11.986
 8032W        W76250  37.531   1.718  11.972
 8033W        W76251   9.390  43.504   3.620
 8034W        W76252  15.419  16.129   0.810
 8035W        W76253  11.387  23.148  11.664
 8036W        W76254  21.226   2.931   2.046
 8037W        W76255   6.714  27.095  12.542
 8038W        W76256  12.725  10.520   4.134
 8039W        W76257  39.725  35.508  13.482
 8040W        W76258  17.126  29.350   3.140
 8041W        W76259   4.166  17.324   3.795
 8042W        W76260  40.330  34.528   1.033
 8043W        W76261  18.246  11.022  14.763
 8044W        W76262   2.768  15.798   1.801
 8045W        W76263   3.994  32.981  14.867
 8046W        W76264  42.123  10.934  12.068
 8047W        W76265  39.312  19.180   1.647
 8048W        W76266  14.731  27.254   1.766
 8049W        W76267   0.834  15.999   3.587
 8050W        W76268  42.302  13.116  12.881
 8051W        W76269  34.886  13.308   3.222
 8052W        W76270  24.494  39.659   4.238
 8053W        W76271  12.705   4.913   4.754
 8054W        W76272  40.975  26.443   1.426
 8055W        W76273  31.716  24.978   2.458
 8056W        W76274  23.148  44.247   3.382
 8057W        W76275  38.147   1.010   0.373
 8058W        W76276  31.171  34.500   0.753
 8059W        W76277  22.272   0.156   0.447
 8060W        W76278  18.160  17.350   0.421
 8061W        W76279  35.350   9.830  12.435
 8062W        W76280  23.052  29.637   0.863
 8063W        W76281  31.547   6.301  12.747
 8064W        W76282   6.351  28.483   4.168
 8065W        W76283  37.003  32.116  12.831
 8066W        W76284   0.066  27.698  11.256
 8067W        W76285  30.015   4.769   3.895
 8068W        W76286  33.140  24.234  12.115
 8069W        W76287  30.933  19.189  14.405
 8070W        W76288   8.717  10.131  14.437
 8071W        W76289  22.053  37.507   5.178
 8072W        W76290  11.148  33.827   0.177
 8073W        W76291   2.278  14.786  10.829
 8074W        W76292   0.182   0.836  13.442
 8075W        W76293  44.034  22.131  10.692
 8076W        W76294  27.228  41.836   1.948
 8077W        W76295   3.246  32.996   0.352
 8078W        W76296  43.904  43.018   3.277
 8079W        W76297  38.599  36.431  14.945
 8080W        W76298  30.206  41.421   3.087
 8081W        W76299   1.129   9.627  12.580
 8082W        W76300  17.061  28.151   2.234
 8083W        W76301   5.313  44.834   4.069
 8084W        W76302  13.100  35.364  13.784
 8085W        W76303  15.721  11.694  10.580
 8086W        W76304  22.740   3.312   1.588
 8087W        W76305   5.918  32.059  14.800
 8088W        W76306   1.907  25.051   1.453
 8089W        W76307  35.369   7.462   0.234
 8090W        W76308   6.524  21.705   1.726
 8091W        W76309  17.955  31.923  10.727
 8092W        W76310   8.839   4.586   4.476
 8093W        W76311  18.459  11.622   4.174
 8094W        W76312  13.777  15.837   1.773
 8095W        W76313  14.353  28.077  11.593
 8096W        W76314   3.519  24.054   2.176
 8097W        W76315  19.162  26.452   0.077
 8098W        W76316   3.416  17.658  11.165
 8099W        W76317  35.976   9.142   4.201
 8100W        W76318  15.938  19.084  13.615
 8101W        W76319   0.940  33.936   4.859
 8102W        W76320  13.934  13.025   1.226
 8103W        W76321  20.443  34.814   3.625
 8104W        W76322   2.912  39.289  12.457
 8105W        W76323   8.763   1.931   1.939
 8106W        W76324   2.742  28.965   0.896
 8107W        W76325   2.638  25.918  13.697
 8108W        W76326  18.081  41.987   0.736
 8109W        W76327   1.826  32.444   0.553
 8110W        W76328  41.253  44.391  10.659
 8111W        W76329  22.478  25.220  13.025
 8112W        W76330   4.967  27.145   3.179
 8113W        W76331   6.773  25.720   4.104
 8114W        W76332  25.732  44.691   0.200
 8115W        W76333  24.614  23.970  13.238
 8116W        W76334   1.740  22.838   0.799
 8117W        W76335   7.800  43.493  12.911
 8118W        W76336   6.438  29.939  11.372
 8119W        W76337  28.569  24.558   3.178
 8120W        W76338  31.183  16.809   5.537
 8121W        W76339  34.143  40.409   0.692
 8122W        W76340  30.079   6.672  14.745
 8123W        W76341  35.821  16.440  11.487
 8124W        W76342  32.679  17.213  11.835
 8125W        W76343  35.915  33.594  12.517
 8126W        W76344   7.321  27.519   3.635
 8127W        W76345  12.248  25.219  11.287
 8128W        W76346   0.937  17.835  14.441
 8129W        W76347  12.093   7.808  14.332
 8130W        W76348   1.813  42.798  13.428
 8131W        W76349   7.605  18.945  12.510
 8132W        W76350  21.100   7.570   0.332
 8133W        W76351  13.245  32.853  13.560
 8134W        W76352  34.590  14.864  11.573
 8135W        W76353  21.566  17.050  11.319
 8136W        W76354   8.793  29.123  14.479
 8137W        W76355   2.509  37.798  12.467
 8138W        W76356  17.788  29.986  14.717
 8139W        W76357  28.098  32.641  10.957
 8140W        W76358  10.402   7.046  13.346
 8141W        W76359  23.760   1.716   1.388
 8142W        W76360  34.070   1.804  11.453
 8143W        W76361  32.828  27.920  12.973
 8144W        W76362  30.442  18.272  12.754
 8145W        W76363  44.898  31.844  13.842
 8146W        W76364  33.505  13.058  13.637
 8147W        W76365  23.293  11.256   2.342
 8148W        W76366  41.518  13.716  10.477
 8149W        W76367  31.126  40.532   1.743
 8150W        W76368  20.136  28.522  14.753
 8151W        W76369   7.486  35.041  13.061
 8152W        W76370  33.273  22.282  11.961
 8153W        W76371  42.205  25.129  12.806
 8154W        W76372  28.909  29.111  11.102
 8155W        W76373  24.931   1.163  12.949
 8156W        W76374  30.926  35.613  13.014
 8157W        W76375  24.539  40.600  12.928
 8158W        W76376  24.552   1.004   4.826
 8159W        W76377  24.624  11.909   1.581
 8160W        W76378  22.981  24.663  13.718
 8161W        W76379  16.928  11.982   4.609
 8162W        W76380  25.894  26.251  12.866
 8163W        W76381  41.483  35.619   3.611
 8164W        W76382  20.095   3.715   2.460
 8165W        W76383  24.773   0.275  13.430
 8166W        W76384  31.960  10.419  12.555
 8167W        W76385  29.576  38.293   4.261
 8168W        W76386  18.401   9.904   3.134
 8169W        W76387  41.331   3.772  11.635
 8170W        W76388  12.690  17.526  12.424
 8171W        W76389  36.581  11.184  13.919
 8172W        W76390   7.364  19.237  14.004
 8173W        W76391  40.028  26.564   4.554
 8174W        W76392  25.181  30.616  10.439
 8175W        W76393  28.444  34.027  11.678
 8176W        W76394  36.607   1.541  10.100
 8177W        W76395  26.488  27.582  14.356
 8178W        W76396  22.721  25.634  14.647
 8179W        W76397  10.846  15.281   3.997
 8180W        W76398  35.671  26.916  11.059
 8181W        W76399   3.962   0.433  11.893
 8182W        W76400  41.563  28.653   2.274
 8183W        W76401  31.975   8.433  12.873
 8184W        W76402   6.871  38.526  12.723
 8185W        W76403  19.544   1.247   4.119
 8186W        W76404  43.211   6.808  13.575
 8187W        W76405  16.892  30.389   0.876
 8188W        W76406  26.616  39.523  13.530
 8189W        W76407  41.908  24.716  13.217
 8190W        W76408  29.611  24.177   4.561
 8191W        W76409  22.111  11.921   1.278
 8192W        W76410  12.096  26.894   4.708
 8193W        W76411  10.722   4.169   3.435
 8194W        W76412  27.037  15.391  12.133
 8195W        W76413  36.630   3.201   0.983
 8196W        W76414   3.744  29.585   4.191
 8197W        W76415  21.985  40.843  14.972
 8198W        W76416  11.240  21.021  13.967
 8199W        W76417  29.186  44.290  13.246
 8200W        W76418   5.835   4.217   3.699
 8201W        W76419  19.919  28.704  11.605
 8202W        W76420  19.221   5.624   2.257
 8203W        W76421  13.480  20.770  11.963
 8204W        W76422  25.746  36.748  14.552
 8205W        W76423  24.479  17.403  11.531
 8206W        W76424   2.040  10.614  13.320
 8207W        W76425   9.652  31.518   0.895
 8208W        W76426  41.377  12.675   3.776
 8209W        W76427   0.250  15.533   1.973
 8210W        W76428  19.163  14.763   0.447
 8211W        W76429   2.331  28.037  13.854
 8212W        W76430  23.138  26.719   0.293
 8213W        W76431  23.901  15.664  11.125
 8214W        W76432  21.133  14.608  14.937
 8215W        W76433   3.434  43.643  13.320
 8216W        W76434  22.282   5.917   4.471
 8217W        W76435  25.155  22.679   1.036
 8218W        W76436   7.238  33.864   1.886
 8219W        W76437  10.833   9.677  13.938
 8220W        W76438  31.116  39.902  10.924
 8221W        W76439  42.202  14.398  12.543
 8222W        W76440  10.703  36.937  10.655
 8223W        W76441  26.667  40.469   2.154
 8224W        W76442  37.962  10.428  11.871
 8225W        W76443  28.959  40.826  11.639
 8226W        W76444  15.827  11.407  14.331
 8227W        W76445  43.563  17.772  14.188
 8228W        W76446   7.732  39.315   1.217
 8229W        W76447  28.560  12.285  11.103
 8230W        W76448   8.269  18.778   3.665
 8231W        W76449  36.285  16.365   2.476
 8232W        W76450  15.614  39.922   4.725
 8233W        W76451  41.879   2.074   2.411
 8234W        W76452  28.850  32.370   0.868
 8235W        W76453  27.056  41.927   1.436
 8236W        W76454  17.788  39.927  13.207
 8237W        W76455  38.969  32.511  10.010
 8238W        W76456  40.012  34.935   3.775
 8239W        W76457  36.041   7.317  10.810
 8240W        W76458  44.987  17.596  13.597
 8241W        W76459  32.033  35.498  13.433
 8242W        W76460  38.097   0.183   2.399
 8243W        W76461   9.949  34.980   0.074
 8244W        W76462  38.121   2.240   3.562
 8245W        W76463  26.251   9.561  11.971
 8246W        W76464  14.986   1.314  14.294
 8247W        W76465  37.038  25.941   2.198
 8248W        W76466   0.379   7.424   2.085
 8249W        W76467  11.175   1.423   2.889
 8250W        W76468  19.557  19.014   1.703
 8251W        W76469  27.920  33.468  12.161
 8252W        W76470  32.229   8.204  12.495
 8253W        W76471  23.705  44.256  10.503
 8254W        W76472  30.478  18.059  13.245
 8255W        W76473  20.679  29.482   1.122
 8256W        W76474  28.206  16.258  11.099
 8257W        W76475  35.105  43.950   0.933
 8258W        W76476  41.485  15.277  14.781
 8259W        W76477  12.640  19.815   3.658
 8260W        W76478  10.148   2.204  14.516
 8261W        W76479   1.910  38.566  12.943
 8262W        W76480  39.549   3.969   1.312
 8263W        W76481  43.954   9.168  11.215
 8264W        W76482  13.708  40.025   3.247
 8265W        W76483  33.638  16.569  13.821
 8266W        W76484  31.142  23.766  13.538
 8267W        W76485  39.262  19.824   3.708
 8268W        W76486   1.190  25.501  11.981
 8269W        W76487  14.138  34.270   3.282
 8270W        W76488  38.577  29.983   4.720
 8271W        W76489  44.965  15.213   0.806
 8272W        W76490  11.576  14.230  11.122
 8273W        W76491  33.665  34.868  14.858
 8274W        W76492  12.631  40.916   1.768
 8275W        W76493  23.242  42.828  10.715
 8276W        W76494  42.346  28.449   3.657
 8277W        W76495  38.979   4.396   2.562
 8278W        W76496  31.880  35.281   0.677
 8279W        W76497  41.514  24.186  14.504
 8280W        W76498  36.934  17.701  13.231
 8281W        W76499  29.506  33.455  11.248
 8282W        W76500   6.907  40.931   3.125
 8283W        W76501  19.780  44.448  13.085
 8284W        W76502  39.916   5.302  11.080
 8285W        W76503   6.184  35.908   4.137
 8286W        W76504  21.813   2.282   4.325
 8287W        W76505  34.876  16.297   4.614
 8288W        W76506  10.262  11.801  12.861
 8289W        W76507  36.541  13.077  12.897
 8290W        W76508  39.546   3.014   2.300
 8291W        W76509  35.503  31.956   2.333
 8292W        W76510  42.486  24.689  12.910
 8293W        W76511  14.578  14.865  10.658
 8294W        W76512  15.989  17.760   3.768
 8295W        W76513   1.887  44.591  12.221
 8296W        W76514   1.244  27.134   2.487
 8297W        W76515  23.540  31.989   4.902
 8298W        W76516  10.253   3.381   4.661
 8299W        W76517  33.000   4.519  12.530
 8300W        W76518  37.436  23.981   1.441
 8301W        W76519  40.905   2.261   3.197
 8302W        W76520  37.854  32.103  12.026
 8303W        W76521  23.220  26.968  13.449
 8304W        W76522  14.224   3.040   1.304
 8305W        W76523  40.541  35.107   0.009
 8306W        W76524   2.406  20.616  10.742
 8307W        W76525   1.749  11.134   1.878
 8308W        W76526  31.067   0.877   4.349
 8309W        W76527  24.055   0.247   0.771
 8310W        W76528   8.948  33.929  14.738
 8311W        W76529  27.868  33.718   3.151
 8312W        W76530  28.033  38.270   1.962
 8313W        W76531  25.754   5.996   1.112
 8314W        W76532  43.380  43.084  11.683
 8315W        W76533   1.942  12.108   3.041
 8316W        W76534  28.639  28.626  14.975
 8317W        W76535  33.208  23.628  11.561
 8318W        W76536  12.718  31.179   2.098
 8319W        W76537   6.734   4.425  10.704
 8320W        W76538  30.526  16.088   0.288
 8321W        W76539  11.035  22.123  11.579
 8322W        W76540  13.558   0.342  13.801
 8323W        W76541   2.175  14.840  14.439
 8324W        W76542  15.781  19.222   4.810
 8325W        W76543   9.236  39.946   3.167
 8326W        W76544  24.874   2.479   1.757
 8327W        W76545   9.279  20.281   0.741
 8328W        W76546  42.496  29.214   3.200
 8329W        W76547  29.860  29.633   0.783
 8330W        W76548  28.223   9.326   0.368
 8331W        W76549  34.657  44.016  14.762
 8332W        W76550  41.966  11.224   3.172
 8333W        W76551  12.895  34.127  14.819
 8334W        W76552  20.291  15.251   4.189
 8335W        W76553   7.687   0.403  12.632
 8336W        W76554  18.717   9.092  10.453
 8337W        W76555  15.011  10.905  13.561
 8338W        W76556  34.844   1.989   1.209
 8339W        W76557  18.512  24.198  14.841
 8340W        W76558  25.550  42.042   4.647
 8341W        W76559  37.862  15.457  11.449
 8342W        W76560  31.581  40.713   1.994
 8343W        W76561  28.232   5.826   4.375
 8344W        W76562  36.965   9.548  14.916
 8345W        W76563  13.579  38.307  13.047
 8346W        W76564  39.380  21.986  14.039
 8347W        W76565  21.657  16.784   2.506
 8348W        W76566  27.499  14.158   5.421
 8349W        W76567  24.606   8.822   4.511
 8350W        W76568  26.185  21.705   0.798
 8351W        W76569  21.710  31.137   3.772
 8352W        W76570  21.738   9.489   4.269
 8353W        W76571  23.242  17.313  13.948
 8354W        W76572  12.708  20.215   1.023
 8355W        W76573  42.197  26.335  14.232
 8356W        W76574  20.790  25.222  12.444
 8357W        W76575  19.633  19.400   4.240
 8358W        W76576  18.195  31.457   1.271
 8359W        W76577  31.116  29.939  14.046
 8360W        W76578  34.415  25.977   4.541
 8361W        W76579   6.586  33.650   0.249
 8362W        W76580  27.757  24.651   5.076
 8363W        W76581  21.522   3.372  11.447
 8364W        W76582  26.151   5.137  14.937
 8365W        W76583  25.176  17.818  11.983
 8366W        W76584  27.376  12.835   0.430
 8367W        W76585  24.122  24.400   1.042
 8368W        W76586   9.873  20.190  10.686
 8369W        W76587  35.450  13.476  13.228
 8370W        W76588  29.840  38.008   0.996
 8371W        W76589  10.623  10.748  13.583
 8372W        W76590  17.835  25.238  11.973
 8373W        W76591  24.377  33.993  13.610
 8374W        W76592   6.733   7.520   0.708
 8375W        W76593  16.306  16.257   4.058
 8376W        W76594   0.323  26.894  12.073
 8377W        W76595  33.814  22.659  13.969
 8378W        W76596   5.779  30.736   0.413
 8379W        W76597  26.562  44.348   1.245
 8380W        W76598  28.072  18.155   0.760
 8381W        W76599  35.548  35.284   0.448
 8382W        W76600   9.580   2.881  11.538
 8383W        W76601  13.120  36.166  14.797
 8384W        W76602  16.652  41.989   1.158
 8385W        W76603  29.068  44.326  10.631
 8386W        W76604  11.236   8.199  11.531
 8387W        W76605  43.266  22.501   4.926
 8388W        W76606  31.396  19.444   3.680
 8389W        W76607  40.553   6.098   3.913
 8390W        W76608   6.186  40.235   0.860
 8391W        W76609  32.135  30.481   0.383
 8392W        W76610  39.607  30.287   0.476
 8393W        W76611   7.141  37.523   0.082
 8394W        W76612  25.945  17.458   0.326
 8395W        W76613   0.742  27.958  14.530
 8396W        W76614  22.188  39.016   2.169
 8397W        W76615  10.440  30.835   3.721
 8398W        W76616   3.495  30.036   3.179
 8399W        W76617  31.039   6.428  11.594
 8400W        W76618  31.673   4.742  12.155
 8401W        W76619  20.785   1.194  11.604
 8402W        W76620  27.087   7.926   4.236
 8403W        W76621  33.957  25.943   4.813
 8404W        W76622  38.020  14.260   0.313
 8405W        W76623  36.492  43.768  12.864
 8406W        W76624  27.433  35.519  13.978
 8407W        W76625  34.935   9.946  10.667
 8408W        W76626  29.370  33.434  12.217
 8409W        W76627   9.867  28.191  14.784
 8410W        W76628  18.843  20.077  12.585
 8411W        W76629   2.426  37.666   1.875
 8412W        W76630  19.577  17.050  14.938
 8413W        W76631  40.401  16.245  12.727
 8414W        W76632   8.856  41.578   3.735
 8415W        W76633  15.039   2.889  11.522
 8416W        W76634   8.989   1.472   1.810
 8417W        W76635   2.195   8.069   0.925
 8418W        W76636   1.492   0.950  11.689
 8419W        W76637  31.783  18.701  14.763
 8420W        W76638  37.924   6.499  14.919
 8421W        W76639   7.017   5.673   1.131
 8422W        W76640  10.222  30.895  11.988
 8423W        W76641  36.034  10.633   2.896
 8424W        W76642   6.185  39.802  12.539
 8425W        W76643  31.646  14.387  11.603
 8426W        W76644   7.920  32.178  12.841
 8427W        W76645  40.355  28.419  10.494
 8428W        W76646   7.897   7.943   2.277
 8429W        W76647  22.481   0.886  11.081
 8430W        W76648  40.622  21.698   3.032
 8431W        W76649   0.858   6.794   1.481
 8432W        W76650  16.516  28.497  14.466
 8433W        W76651  40.766   0.369  13.828
 8434W        W76652  44.330   7.849  12.403
 8435W        W76653  21.596  15.773  13.916
 8436W        W76654  33.105  29.215   5.150
 8437W        W76655  18.104  32.533  11.883
 8438W        W76656  34.529   2.612  12.743
 8439W        W76657  39.466   2.248  12.894
 8440W        W76658  19.213   9.240   1.803
 8441W        W76659  22.945  24.522   2.299
 8442W        W76660  19.920  11.587   3.234
 8443W        W76661  39.942  17.848   1.213
 8444W        W76662  16.382  35.532  12.963
 8445W        W76663  28.847   8.773   2.770
 8446W        W76664  37.909  20.163  10.654
 8447W        W76665  42.498  14.833  13.987
 8448W        W76666  11.114  17.803  14.027
 8449W        W76667  40.124  40.392  10.711
 8450W        W76668  27.657  38.744  14.369
 8451W        W76669  23.086  44.889  12.997
 8452W        W76670  30.597   8.117  14.861
 8453W        W76671  19.986  16.232  10.649
 8454W        W76672   4.861  29.512  10.634
 8455W        W76673   1.823   2.614   0.253
 8456W        W76674  23.829  43.202   3.709
 8457W        W76675  21.169  17.964  12.156
 8458W        W76676  24.518   7.736  13.818
 8459W        W76677  24.940   9.198   0.833
 8460W        W76678  36.072  29.606  14.913
 8461W        W76679  24.394  13.026  12.059
 8462W        W76680   9.351  30.845   2.611
 8463W        W76681  18.186  11.763  10.809
 8464W        W76682  36.361   3.002  12.854
 8465W        W76683  27.117  23.249   1.843
 8466W        W76684  30.894  27.767  14.049
 8467W        W76685  34.063  38.032   4.584
 8468W        W76686  31.764  36.889  14.704
 8469W        W76687  22.515   2.207   0.848
 8470W        W76688  26.173  16.291   0.399
 8471W        W76689  32.406  43.717   2.794
 8472W        W76690  31.481  30.600   3.108
 8473W        W76691  38.041   8.343  14.838
 8474W        W76692  44.412  18.184  14.373
 8475W        W76693  28.263  11.490   3.655
 8476W        W76694  42.458  29.091  13.506
 8477W        W76695   0.608  13.940  11.125
 8478W        W76696   8.339  19.481   0.180
 8479W        W76697  27.103  20.661  13.303
 8480W        W76698  37.717  36.363   2.876
 8481W        W76699   1.918  44.773  14.403
 8482W        W76700   1.871   8.708  12.150
 8483W        W76701   9.902  44.040  12.050
 8484W        W76702  41.670  27.287   0.118
 8485W        W76703  42.182   8.426   2.132
 8486W        W76704  30.190   1.456  11.519
 8487W        W76705  44.905   2.238  13.330
 8488W        W76706  36.828  24.505   2.073
 8489W        W76707  28.857  21.230   4.511
 8490W        W76708   8.420  39.125  14.354
 8491W        W76709  12.623   2.674  12.142
 8492W        W76710   3.721  16.707  11.983
 8493W        W76711  32.998  30.981  11.412
 8494W        W76712   0.039  37.897  12.491
 8495W        W76713  27.160  17.716  14.729
 8496W        W76714  41.938  21.597   3.430
 8497W        W76715   7.931  20.238   4.675
 8498W        W76716  33.040  36.116  14.360
 8499W        W76717  13.530  21.439  12.684
 8500W        W76718  30.407   1.721  12.547
 8501W        W76719  42.873  42.005   1.904
 8502W        W76720   2.862   3.291   0.341
 8503W        W76721  32.780   8.919  12.887
 8504W        W76722  22.443  40.351   3.715
 8505W        W76723  33.828  25.682  14.896
 8506W        W76724  21.999  23.014   3.699
 8507W        W76725  36.728   3.975  12.975
 8508W        W76726  42.376   0.324   3.671
 8509W        W76727  30.517  26.098   0.700
 8510W        W76728  22.108  33.673   2.918
 8511W        W76729  41.810  25.080   2.213
 8512W        W76730  39.444  19.348   3.626
 8513W        W76731   2.423  17.121   3.275
 8514W        W76732  39.867  36.358  13.161
 8515W        W76733  16.745  16.126  11.523
 8516W        W76734  37.574  33.608  10.766
 8517W        W76735   2.524  28.398   2.744
 8518W        W76736  20.477   2.406  11.151
 8519W        W76737  24.231  25.161  11.662
 8520W        W76738  15.555  41.846  10.387
 8521W        W76739  33.378   5.850  10.568
 8522W        W76740  36.148   0.420  14.022
 8523W        W76741  34.819  30.511  12.150
 8524W        W76742  26.486  19.007   1.736
 8525W        W76743   6.534  37.070  14.354
 8526W        W76744   5.208   7.879  12.166
 8527W        W76745   2.545  33.465   0.824
 8528W        W76746   3.415  35.884   2.704
 8529W        W76747  37.505  40.902   4.826
 8530W        W76748  18.032   5.761   2.679
 8531W        W76749  10.267  31.278  13.781
 8532W        W76750   8.314  31.826  10.573
 8533W        W76751  32.053  22.212  11.424
 8534W        W76752   9.237  11.710   4.098
 8535W        W76753  20.750   0.045   3.107
 8536W        W76754  41.116  22.015  13.774
 8537W        W76755  26.078  29.568   2.868
 8538W        W76756  20.698  16.831   3.526
 8539W        W76757  42.873  19.148   3.728
 8540W        W76758  14.600  18.509  11.655
 8541W        W76759   6.644  20.641   3.699
 8542W        W76760  36.070   2.307   1.164
 8543W        W76761   1.416  37.859  11.021
 8544W        W76762  20.099  28.003  14.782
 8545W        W76763  29.686  39.427   4.632
 8546W        W76764  19.257  34.993  14.683
 8547W        W76765  28.961  44.979  12.561
 8548W        W76766  32.633  36.562   1.730
 8549W        W76767  38.023  26.972  11.963
 8550W        W76768  29.673  35.704  14.386
 8551W        W76769   9.346   0.355  14.874
 8552W        W76770  30.611  16.261  11.408
 8553W        W76771  23.692  12.772  12.820
 8554W        W76772  22.556  42.706  14.177
 8555W        W76773   1.813  18.779  11.642
 8556W        W76774  35.563  37.142  14.244
 8557W        W76775   9.702  43.890   3.604
 8558W        W76776  40.894  22.048   1.918
 8559W        W76777   2.274   9.096   3.373
 8560W        W76778   5.320  26.762   1.443
 8561W        W76779  34.260  26.098  13.884
 8562W        W76780  13.249  37.276  11.099
 8563W        W76781  21.691   5.261  12.495
 8564W        W76782  32.711  22.655  10.992
 8565W        W76783  16.031   3.926  12.924
 8566W        W76784  12.172  26.279  14.526
 8567W        W76785  18.851  30.571   4.715
 8568W        W76786  10.317  31.627  13.123
 8569W        W76787  42.633  36.286   4.545
 8570W        W76788   9.658  25.574   2.154
 8571W        W76789  21.280  40.986  13.347
 8572W        W76790  13.657  28.672   4.350
 8573W        W76791  18.289  15.831  12.113
 8574W        W76792  24.278   8.298   2.832
 8575W        W76793  39.026   5.661  14.877
 8576W        W76794  32.322   5.386  14.834
 8577W        W76795   8.110  12.354   0.005
 8578W        W76796  13.033   2.841   0.357
 8579W        W76797  42.287  39.517   1.347
 8580W        W76798  27.119  37.528   1.416
 8581W        W76799  21.977  23.964  12.200
 8582W        W76800  44.879  41.172   1.492
 8583W        W76801  37.944  16.126   3.732
 8584W        W76802  25.514  23.705  13.775
 8585W        W76803  24.737  25.154   4.693
 8586W        W76804  12.663  20.126   4.057
 8587W        W76805  36.636  35.316   0.470
 8588W        W76806  43.332  27.025  14.505
 8589W        W76807  35.273  38.682   3.579
 8590W        W76808  29.105  29.975  13.949
 8591W        W76809   5.396  38.393   2.836
 8592W        W76810  20.088  40.058   4.721
 8593W        W76811   8.658   6.289   2.352
 8594W        W76812  31.419   4.293  12.101
 8595W        W76813  29.391  34.584   0.499
 8596W        W76814  32.871  37.041  12.641
 8597W        W76815   8.717  42.673  14.830
 8598W        W76816   5.694   8.416   0.890
 8599W        W76817  27.522  37.260  12.609
 8600W        W76818  36.792  29.411  12.033
 8601W        W76819   5.598  13.982  12.653
 8602W        W76820  11.197  39.937  12.178
 8603W        W76821  35.013  32.202   4.496
 8604W        W76822  44.713  19.325   4.182
 8605W        W76823  20.087  40.390  13.106
 8606W        W76824  38.433  37.808  12.081
 8607W        W76825  20.657   2.775   4.638
 8608W        W76826   8.110  22.535   2.433
 8609W        W76827  33.980  44.279   2.686
 8610W        W76828  37.371   0.859  11.974
 8611W        W76829  25.874  39.774   2.429
 8612W        W76830  31.457  42.212  13.106
 8613W        W76831  25.185  14.870  11.516
 8614W        W76832  25.998  25.948   0.506
 8615W        W76833  41.823  26.587   5.000
 8616W        W76834   3.033  22.920  11.495
 8617W        W76835  40.541  27.096   0.822
 8618W        W76836  36.285  15.850   2.699
 8619W        W76837  30.168   9.950  12.448
 8620W        W76838  24.240  31.970  10.499
 8621W        W76839  28.881  44.306  11.466
 8622W        W76840  18.634   7.927   1.397
 8623W        W76841  38.103  38.089  11.139
 8624W        W76842  17.202   2.629  12.343
 8625W        W76843  27.464  29.375  13.897
 8626W        W76844   3.312   7.258   1.279
 8627W        W76845  24.955  11.282   4.542
 8628W        W76846  22.022  15.336  11.358
 8629W        W76847   4.394  11.802  11.527
 8630W        W76848  42.560  30.373  14.332
 8631W        W76849  21.652  11.733   4.704
 8632W        W76850  15.184  40.778  14.290
 8633W        W76851   4.874  23.719  14.409
 8634W        W76852  16.363  15.457  11.709
 8635W        W76853  23.155  14.112   5.010
 8636W        W76854  42.877  12.295   1.695
 8637W        W76855  17.079  42.527  12.798
 8638W        W76856  12.794   5.438   0.953
 8639W        W76857   5.927  21.046   5.020
 8640W        W76858  44.242  44.952  14.166
 8641W        W76859  41.663  20.895  13.270
 8642W        W76860  31.542   6.935   1.948
 8643W        W76861  28.944  40.275   2.760
 8644W        W76862  15.117   1.209  12.451
 8645W        W76863  42.594  28.581   0.928
 8646W        W76864  13.056  38.781   1.246
 8647W        W76865   5.779  35.355  12.594
 8648W        W76866  38.785  32.496   3.188
 8649W        W76867  14.330   0.249   1.370
 8650W        W76868  13.689   2.719   3.622
 8651W        W76869  42.137  28.220  13.071
 8652W        W76870  38.640  12.011  14.533
 8653W        W76871  14.697  19.271   1.288
 8654W        W76872  38.165  14.354  12.449
 8655W        W76873   0.334  11.113   4.498
 8656W        W76874   4.128   4.628  11.240
 8657W        W76875  43.985   6.099  12.669
 8658W        W76876  21.774  25.100   3.898
 8659W        W76877  16.167  39.864  12.409
 8660W        W76878   4.450  25.179   1.846
 8661W        W76879   3.448   0.495  14.885
 8662W        W76880  15.008  13.332   4.983
 8663W        W76881  30.405  29.171   0.015
 8664W        W76882  34.921  25.428   1.375
 8665W        W76883  18.004  30.507  13.494
 8666W        W76884   5.964  28.907   0.958
 8667W        W76885  43.603  38.339  14.306
 8668W        W76886  20.653  16.364  13.069
 8669W        W76887  25.754   3.945   4.692
 8670W        W76888   5.298  18.725   1.491
 8671W        W76889  38.497   2.441   0.350
 8672W        W76890   4.343  29.062   4.282
 8673W        W76891  18.182  43.684   0.262
 8674W        W76892  34.079   0.913   2.713
 8675W        W76893  10.174  39.620  14.225
 8676W        W76894   1.038  30.667  13.953
 8677W        W76895  22.658   2.926   2.003
 8678W        W76896  36.132  10.180   1.037
 8679W        W76897  29.914  26.035   2.394
 8680W        W76898  18.981   3.270  12.069
 8681W        W76899  14.999  10.197  12.461
 8682W        W76900  42.909  12.397   0.645
 8683W        W76901  41.475   9.617   4.575
 8684W        W76902  23.480  42.378  11.976
 8685W        W76903  12.772  27.675   0.197
 8686W        W76904   6.843   8.394   3.885
 8687W        W76905  36.873   8.598   2.799
 8688W        W76906  30.650  12.996  13.738
 8689W        W76907  21.120  39.781   4.702
 8690W        W76908  25.023  36.180  12.566
 8691W        W76909  40.460  20.184   0.658
 8692W        W76910  17.820  19.712   4.100
 8693W        W76911  17.280  34.543  13.009
 8694W        W76912  25.725  30.636  13.732
 8695W        W76913  25.763  19.748   0.318
 8696W        W76914  17.392  30.365  11.121
 8697W        W76915  21.775   7.279   1.657
 8698W        W76916   7.056   3.205  12.492
 8699W        W76917   7.924  14.775  13.344
 8700W        W76918  14.356   4.700   0.927
 8701W        W76919  38.574  44.414  12.597
 8702W        W76920  29.034   9.707  10.870
 8703W        W76921  27.117  26.938  12.944
 8704W        W76922  39.317  27.930  13.903
 8705W        W76923  30.444   7.252  14.581
 8706W        W76924  32.054  21.788   2.440
 8707W        W76925   6.610  39.025  10.372
 8708W        W76926  11.980  20.641   4.208
 8709W        W76927  40.058  36.874  13.843
 8710W        W76928  12.738  17.034  10.600
 8711W        W76929  25.504  15.867   4.419
 8712W        W76930  37.400  22.163   1.587
 8713W        W76931   6.317   7.532   1.813
 8714W        W76932  17.289   6.261   4.488
 8715W        W76933  17.866  10.434   2.611
 8716W        W76934  28.743  24.551   5.275
 8717W        W76935  39.432  13.368   1.850
 8718W        W76936   0.246  16.093  10.479
 8719W        W76937  36.901  20.809   1.118
 8720W        W76938  29.205  27.608  14.984
 8721W        W76939  18.574  35.583  13.427
 8722W        W76940  26.361  44.835   2.820
 8723W        W76941  41.892   1.113   1.283
 8724W        W76942   9.489  10.298  13.544
 8725W        W76943  29.081   4.496   2.257
 8726W        W76944  43.296  35.483  12.789
 8727W        W76945  34.427  17.225  10.640
 8728W        W76946  21.139  13.026  14.367
 8729W        W76947  23.973   4.675   0.467
 8730W        W76948  31.493  35.893   4.459
 8731W        W76949  21.600  23.395  11.708
 8732W        W76950  19.168  40.760   4.895
 8733W        W76951  10.297  22.812   3.623
 8734W        W76952  39.387  21.333  11.374
 8735W        W76953  15.061   4.845   0.434
 8736W        W76954  14.289  39.985  13.668
 8737W        W76955   2.031  11.766  12.420
 8738W        W76956  10.375   9.685  14.967
 8739W        W76957  28.068  26.684   2.772
 8740W        W76958  23.448  14.817  13.420
 8741W        W76959  33.022   7.662   2.963
 8742W        W76960  20.703  10.307  14.822
 8743W        W76961  10.220  18.220   1.740
 8744W        W76962  39.878   1.859  12.499
 8745W        W76963  36.494  16.609  10.796
 8746W        W76964  15.733   0.248  12.174
 8747W        W76965   0.772  16.736   3.855
 8748W        W76966  27.603  33.716   0.812
 8749W        W76967  29.111  28.732   0.909
 8750W        W76968  34.300  32.811   3.909
 8751W        W76969  24.570  23.461  13.417
 8752W        W76970  28.492  36.320   0.549
 8753W        W76971  40.691   2.306   5.102
 8754W        W76972  21.146   9.239  12.892
 8755W        W76973  19.919   5.860   1.001
 8756W        W76974  15.256  33.148   1.437
 8757W        W76975  17.477   8.699   0.010
 8758W        W76976   6.727  10.197  13.443
 8759W        W76977  35.241   0.885  13.078
 8760W        W76978  37.755  25.750  10.819
 8761W        W76979  12.573   9.460   2.789
 8762W        W76980  14.710  17.283  10.541
 8763W        W76981  39.536  20.061   4.496
 8764W        W76982   8.746  28.529  10.945
 8765W        W76983  25.482  15.038   2.213
 8766W        W76984  43.032  25.197  10.915
 8767W        W76985  31.598  29.911   2.433
 8768W        W76986  11.540  22.791  14.255
 8769W        W76987   5.919  28.857  12.071
 8770W        W76988  39.525  41.038  11.329
 8771W        W76989  24.365  31.527   2.847
 8772W        W76990  25.193  26.634   4.621
 8773W        W76991  19.878  15.728  13.248
 8774W        W76992  23.444  37.819  14.832
 8775W        W76993  21.277  31.115  12.552
 8776W        W76994  30.342  31.075   0.260
 8777W        W76995  31.138  32.920  14.338
 8778W        W76996  15.518  44.522   3.217
 8779W        W76997  14.638  12.213   0.447
 8780W        W76998   7.877  12.268   2.340
 8781W        W76999  44.746  28.160   3.448
 8782W        W77000  34.126  24.487  13.444
 8783W        W77001  31.038  30.068  10.483
 8784W        W77002  18.652   8.295   5.019
 8785W        W77003  37.009  38.597   4.149
 8786W        W77004   4.935  30.463   0.615
 8787W        W77005  31.865   8.715  13.419
 8788W        W77006  32.384   0.326   0.357
 8789W        W77007  28.948   6.519  14.854
 8790W        W77008  41.596  16.034  13.474
 8791W        W77009  23.545   7.928  14.220
 8792W        W77010  17.550  17.246   0.765
 8793W        W77011  13.536  17.656   4.572
 8794W        W77012  43.152  40.371   2.686
 8795W        W77013   9.266   2.389   2.197
 8796W        W77014  18.269  31.509  10.752
 8797W        W77015  31.259   9.758  13.969
 8798W        W77016  29.386  13.067  12.545
 8799W        W77017  21.523  10.822  13.489
 8800W        W77018   3.037  24.182  13.485
 8801W        W77019  34.370  31.908  11.029
 8802W        W77020  13.668   8.606   3.680
 8803W        W77021  40.811  24.253   0.902
 8804W        W77022  43.372  40.533   4.714
 8805W        W77023   5.300   8.111  13.504
 8806W        W77024  28.456  33.816   2.321
 8807W        W77025  42.858  19.133   0.039
 8808W        W77026  28.537  23.220  11.518
 8809W        W77027  40.875  43.409  10.688
 8810W        W77028  11.888  24.929   2.565
 8811W        W77029  41.927  21.758  14.366
 8812W        W77030  44.113  37.616  12.047
 8813W        W77031  38.671  43.029  14.814
 8814W        W77032  16.585  34.487  13.860
 8815W        W77033   5.458  35.531  11.124
 8816W        W77034   7.382  12.765   3.713
 8817W        W77035  25.254  26.994   0.366
 8818W        W77036  44.855  25.018  13.373
 8819W        W77037  43.872  37.626  14.041
 8820W        W77038  18.820  39.457  10.298
 8821W        W77039  37.090  23.868   0.813
 8822W        W77040   8.340  12.937   4.542
 8823W        W77041  30.890  26.692   4.132
 8824W        W77042  20.795  32.942   2.339
 8825W        W77043  33.538  40.772  13.842
 8826W        W77044  33.900   0.635   3.102
 8827W        W77045  34.055  28.744  14.796
 8828W        W77046   8.754  25.780  13.541
 8829W        W77047  17.939  38.853   2.890
 8830W        W77048  41.033  16.419  14.160
 8831W        W77049  18.163  30.102   2.430
 8832W        W77050  11.073  42.655   1.678
 8833W        W77051   4.160  25.564  12.561
 8834W        W77052  31.802  40.284   1.091
 8835W        W77053  27.286  11.137   3.763
 8836W        W77054  19.721   5.376   1.414
 8837W        W77055  38.997  12.330  10.646
 8838W        W77056  35.421  20.589  12.510
 8839W        W77057  12.715  38.055   0.499
 8840W        W77058   1.473  16.777   2.096
 8841W        W77059  11.207  44.896  14.265
 8842W        W77060  30.907   5.741   2.236
 8843W        W77061  41.934  36.966  12.946
 8844W        W77062  41.071   3.883   2.664
 8845W        W77063  27.946  26.437  14.915
 8846W        W77064  27.413  34.894  14.961
 8847W        W77065  16.803  38.464  10.592
 8848W        W77066   8.254  21.063   4.639
 8849W        W77067   9.675  12.448  11.435
 8850W        W77068  17.713  29.797   4.548
 8851W        W77069  24.453   6.652  14.893
 8852W        W77070   8.226  18.439  11.035
 8853W        W77071  34.653  44.559   1.658
 8854W        W77072   7.764  18.339   4.564
 8855W        W77073   6.603   7.118   4.554
 8856W        W77074  23.117  26.368  11.618
 8857W        W77075  15.337  25.473   0.743
 8858W        W77076  34.995  34.632   4.662
 8859W        W77077  39.367   6.122  13.918
 8860W        W77078  39.389  22.968   0.295
 8861W        W77079   8.693  20.033  13.997
 8862W        W77080   6.018  32.575   4.608
 8863W        W77081   4.158  32.503   2.758
 8864W        W77082  32.489  31.021  14.291
 8865W        W77083  34.540   8.840  13.629
 8866W        W77084  26.598  28.407   0.872
 8867W        W77085  21.244  26.670  11.425
 8868W        W77086   0.724  38.026   1.763
 8869W        W77087  22.262  39.362   1.737
 8870W        W77088   6.905   1.682   2.263
 8871W        W77089  38.534   9.472   1.729
 8872W        W77090  31.256  22.012   3.992
 8873W        W77091   7.974  19.530   4.102
 8874W        W77092  41.702  14.641   4.090
 8875W        W77093  16.750  12.932   0.446
 8876W        W77094  24.245   1.423   1.322
 8877W        W77095  14.757  39.355   4.745
 8878W        W77096   0.554   8.653   3.384
 8879W        W77097  16.198  21.410   4.705
 8880W        W77098   6.614  32.434   3.265
 8881W        W77099  16.667  32.346   4.598
 8882W        W77100  13.884  25.685   4.166
 8883W        W77101   1.899  14.797  11.756
 8884W        W77102  13.618   4.292   0.800
 8885W        W77103  14.559  26.117  13.596
 8886W        W77104  44.973  15.348   1.289
 8887W        W77105  33.604  28.115  11.692
 8888W        W77106   6.988  35.390   1.536
 8889W        W77107  41.540  39.878  14.955
 8890W        W77108  11.601  42.279   4.886
 8891W        W77109  25.084  19.171  12.764
 8892W        W77110   0.719  21.667  12.872
 8893W        W77111  15.595  37.958   3.807
 8894W        W77112  25.131   8.820  13.514
 8895W        W77113  16.290  38.521   3.775
 8896W        W77114   6.144  13.967  13.448
 8897W        W77115  17.739  22.979  14.982
 8898W        W77116  22.834   7.723   4.522
 8899W        W77117  11.809  24.518   1.744
 8900W        W77118  28.047  26.927  14.736
 8901W        W77119  18.260  42.297  11.494
 8902W        W77120  19.639  43.616   1.813
 8903W        W77121  24.548  29.123   0.857
 8904W        W77122  24.690  42.917   0.830
 8905W        W77123  31.024   7.972  10.759
 8906W        W77124   8.541  17.301  12.103
 8907W        W77125  12.272  43.826  14.483
 8908W        W77126  14.647  11.224   2.607
 8909W        W77127  15.887   0.934   1.418
 8910W        W77128  35.548  17.261   0.844
 8911W        W77129  20.276  36.391  13.087
 8912W        W77130  44.938  28.648   3.553
 8913W        W77131  35.504  28.046  14.935
 8914W        W77132  10.108  44.216   4.231
 8915W        W77133  17.731  32.410  12.522
 8916W        W77134  32.216  27.794  13.968
 8917W        W77135  40.463  37.100   0.934
 8918W        W77136  27.027   9.928  10.728
 8919W        W77137  20.634  27.427   2.688
 8920W        W77138  18.253  10.937  13.828
 8921W        W77139  12.625  27.655   4.086
 8922W        W77140   2.789  27.910   1.170
 8923W        W77141  33.064  10.283   3.770
 8924W        W77142   9.763   4.219  12.855
 8925W        W77143  30.753  34.582  14.874
 8926W        W77144  27.059  21.027  11.158
 8927W        W77145  20.778  16.319   3.325
 8928W        W77146   7.961  35.048   0.761
 8929W        W77147  33.981  29.375  13.350
 8930W        W77148   1.321  32.385   1.878
 8931W        W77149  13.264  14.041   1.947
 8932W        W77150   5.914   8.183  11.659
 8933W        W77151  19.491  21.035  11.180
 8934W        W77152   1.867  25.173   0.415
 8935W        W77153  33.563  17.788  13.389
 8936W        W77154  15.194  23.979  11.972
 8937W        W77155   8.014   6.727  11.165
 8938W        W77156  37.634  30.811   4.062
 8939W        W77157   6.252  32.202  12.159
 8940W        W77158  42.432  16.369  11.650
 8941W        W77159  10.831  12.092  11.391
 8942W        W77160   3.834   9.252   4.628
 8943W        W77161  41.251  26.164  11.028
 8944W        W77162  24.013  31.864  14.276
 8945W        W77163  28.703  21.097  13.358
 8946W        W77164   3.221  26.142  14.482
 8947W        W77165   5.967  18.210   1.877
 8948W        W77166  38.199  21.210   1.403
 8949W        W77167  17.123  12.840   3.554
 8950W        W77168  28.961  16.285  13.518
 8951W        W77169  20.569  26.598  12.419
 8952W        W77170  21.477  31.389  14.821
 8953W        W77171  15.094  28.209  11.953
 8954W        W77172  42.844  15.295   4.632
 8955W        W77173  26.841  22.317  14.729
 8956W        W77174   4.819   8.428  11.075
 8957W        W77175   7.999  34.255  13.676
 8958W        W77176  40.075  15.477  11.847
 8959W        W77177  18.186   2.680   2.984
 8960W        W77178  37.776   7.232  11.463
 8961W        W77179  43.607  13.534  13.064
 8962W        W77180  36.176  14.645  14.813
 8963W        W77181  18.158   3.487  10.604
 8964W        W77182   9.965  12.505  11.033
 8965W        W77183   6.121  18.048   2.573
 8966W        W77184  23.876  30.058  10.843
 8967W        W77185  15.797  43.845  14.569
 8968W        W77186  28.443  37.078  10.693
 8969W        W77187  14.781  13.616  13.942
 8970W        W77188  31.018   7.402   1.341
 8971W        W77189  40.897  41.844   3.494
 8972W        W77190  17.762  42.132   2.797
 8973W        W77191   5.700  20.117  12.407
 8974W        W77192  18.673  33.936   2.142
 8975W        W77193  17.010  38.809   1.804
 8976W        W77194  29.454  14.642  12.992
 8977W        W77195  22.119  16.561  10.835
 8978W        W77196   0.287   3.238   3.037
 8979W        W77197  30.919   7.943   3.619
 8980W        W77198   1.903   3.679  11.639
 8981W        W77199  29.431  40.906   2.325
 8982W        W77200  12.856  31.438  12.828
 8983W        W77201  26.441  39.739   1.350
 8984W        W77202  22.532  35.976  14.381
 8985W        W77203  25.235   3.877   2.617
 8986W        W77204  19.986   4.639   1.358
 8987W        W77205   4.327  27.028  11.002
 8988W        W77206  20.477  11.558  12.494
 8989W        W77207   0.320  38.545  13.757
 8990W        W77208  20.166  20.071  14.813
 8991W        W77209  25.448  31.937  14.906
 8992W        W77210   3.148   0.696   4.078
 8993W        W77211  40.082  40.302  11.531
 8994W        W77212   6.659  27.793   2.874
 8995W        W77213  26.468   4.196  11.054
 8996W        W77214  40.584  18.548   0.945
 8997W        W77215  23.145  37.820  12.936
 8998W        W77216  31.361  19.052  14.106
 8999W        W77217  16.198   4.163  12.520
 9000W        W77218  12.375  32.286   1.869
 9001W        W77219  44.248  36.092   0.858
 9002W        W77220  26.995   2.448  12.902
 9003W        W77221   4.250  15.115   4.559
 9004W        W77222  19.801  33.418  14.080
 9005W        W77223  37.793  35.856   3.784
 9006W        W77224  33.347  29.832  11.050
 9007W        W77225   8.665  37.811   0.979
 9008W        W77226  25.457  20.951  11.950
 9009W        W77227  16.188  21.133  10.093
 9010W        W77228  40.029  21.766   1.295
 9011W        W77229  10.941  24.205  14.240
 9012W        W77230  20.308  12.818  10.210
 9013W        W77231   1.787  19.841   4.830
 9014W        W77232  26.291   9.759   1.201
 9015W        W77233  39.094  17.662  12.255
 9016W        W77234   3.227  27.417  12.621
 9017W        W77235  12.648  25.390   4.519
 9018W        W77236  25.712  30.203   3.473
 9019W        W77237  30.030  11.863   0.824
 9020W        W77238   8.413  36.780   0.864
 9021W        W77239  43.306  30.716   0.854
 9022W        W77240  28.065   1.320   0.475
 9023W        W77241  40.938  30.830  11.583
 9024W        W77242  26.019   9.653   4.161
 9025W        W77243  21.124  30.683  11.134
 9026W        W77244  11.524   4.916  14.471
 9027W        W77245  29.911  12.216   2.212
 9028W        W77246  20.016   9.976  12.510
 9029W        W77247   2.303   9.623  12.017
 9030W        W77248  30.514  42.357  14.874
 9031W        W77249  15.681   2.733   2.074
 9032W        W77250  39.301  13.610  12.060
 9033W        W77251   9.152  16.083  11.111
 9034W        W77252  37.417  38.898   0.018
 9035W        W77253   0.202  31.033   1.574
 9036W        W77254  43.489  31.487   2.106
 9037W        W77255  22.469  16.966  10.828
 9038W        W77256  18.765  31.600   1.392
 9039W        W77257  15.221   6.906  12.015
 9040W        W77258  31.920  30.646   3.336
 9041W        W77259  36.426  13.366   0.208
 9042W        W77260  44.868  25.847   3.498
 9043W        W77261   4.797   0.491  14.553
 9044W        W77262  37.053  31.519  12.088
 9045W        W77263  12.337  27.409  12.982
 9046W        W77264  12.668  21.415  13.119
 9047W        W77265  22.085   9.922   2.225
 9048W        W77266  23.701   6.986  14.472
 9049W        W77267  21.231  13.373   4.545
 9050W        W77268  11.737   6.637   3.674
 9051W        W77269  41.915   0.884  13.080
 9052W        W77270  37.037  31.028   1.335
 9053W        W77271  27.244   0.976   1.380
 9054W        W77272  34.522  34.671  12.427
 9055W        W77273  12.776   8.758   3.569
 9056W        W77274  43.792  15.644   0.302
 9057W        W77275   1.313  26.006   0.935
 9058W        W77276   2.772  11.220  11.740
 9059W        W77277  36.968  35.247   2.916
 9060W        W77278  17.198  34.422  14.826
 9061W        W77279   7.690  39.564  14.393
 9062W        W77280  36.765   1.897  10.469
 9063W        W77281  24.542  38.699  11.523
 9064W        W77282  13.202  17.398  12.177
 9065W        W77283   4.883   5.442  10.798
 9066W        W77284  21.579   3.052  12.218
 9067W        W77285  20.311  16.471   0.876
 9068W        W77286  26.731  10.159   4.101
 9069W        W77287  29.272  36.454   3.156
 9070W        W77288  37.422  42.261  10.719
 9071W        W77289  12.370  43.495  12.413
 9072W        W77290  35.522  37.072  10.882
 9073W        W77291  38.401  15.892  13.415
 9074W        W77292  28.451  29.214  11.988
 9075W        W77293  11.204  27.205   3.604
 9076W        W77294   4.249  10.880  14.592
 9077W        W77295  16.331   6.860   1.264
 9078W        W77296  40.293   8.951   1.894
 9079W        W77297  25.041  44.234  13.248
 9080W        W77298  22.257  35.930  11.582
 9081W        W77299   3.437  44.987  14.984
 9082W        W77300  10.554  27.454  14.891
 9083W        W77301  26.707  14.077  10.263
 9084W        W77302  21.017  32.448  12.017
 9085W        W77303  21.395  15.611  13.446
 9086W        W77304  10.906   3.188  11.018
 9087W        W77305  24.736  40.423  12.488
 9088W        W77306  44.063  29.178  12.081
 9089W        W77307  39.103  41.899  13.923
 9090W        W77308  43.729  35.103   0.370
 9091W        W77309  10.430  14.280  14.332
 9092W        W77310   2.404  18.589  13.883
 9093W        W77311   6.349  10.601  11.062
 9094W        W77312   6.380  13.418   0.518
 9095W        W77313  24.456  43.344   1.555
 9096W        W77314  42.577  23.093  11.141
 9097W        W77315  18.668   2.958   3.670
 9098W        W77316   1.945  43.474  11.230
 9099W        W77317  44.091   4.393  14.440
 9100W        W77318   4.769  37.486   4.212
 9101W        W77319  16.654   4.959   4.104
 9102W        W77320  16.132  20.231   0.409
 9103W        W77321  20.746  31.068   5.219
 9104W        W77322  40.417  38.268   0.039
 9105W        W77323  43.953   4.214   2.157
 9106W        W77324  10.193  12.216  13.168
 9107W        W77325  22.242  36.820  11.609
 9108W        W77326  28.008  19.153   1.660
 9109W        W77327  21.427  19.274  12.950
 9110W        W77328  22.238  39.379   4.741
 9111W        W77329  29.729  32.822   3.661
 9112W        W77330  23.004  22.977  14.843
 9113W        W77331  25.579   9.377   1.525
 9114W        W77332  20.527   1.292   3.775
 9115W        W77333  31.852  10.423  14.446
 9116W        W77334  22.391  44.048   1.494
 9117W        W77335  10.739   3.672   2.764
 9118W        W77336  44.854  16.867  11.557
 9119W        W77337  27.903  13.343   1.498
 9120W        W77338  19.731  15.378  12.868
 9121W        W77339   3.502  36.970   1.320
 9122W        W77340  15.835  41.333   2.148
 9123W        W77341   7.589   1.485   0.791
 9124W        W77342  27.974  10.944   0.333
 9125W        W77343  13.388  18.080  13.980
 9126W        W77344   1.638  20.086  13.462
 9127W        W77345  40.924  38.024  11.026
 9128W        W77346  38.403  11.886   2.287
 9129W        W77347  35.572  14.517   2.253
 9130W        W77348  22.652  31.089   3.820
 9131W        W77349  41.210   3.209   2.898
 9132W        W77350  28.688   4.113   2.401
 9133W        W77351  20.937   3.787   0.527
 9134W        W77352   3.715  14.215  12.132
 9135W        W77353  21.841  19.580  14.855
 9136W        W77354  33.886  32.309   0.299
 9137W        W77355  36.533  15.355   2.682
 9138W        W77356   6.149  21.210  14.131
 9139W        W77357  34.062  16.727   1.893
 9140W        W77358   8.146  37.533  13.955
 9141W        W77359  33.828  37.609   3.799
 9142W        W77360   6.291  14.860   2.349
 9143W        W77361  38.845  29.659  14.361
 9144W        W77362   5.836   6.894  12.979
 9145W        W77363  44.049   5.701   2.318
 9146W        W77364   3.226   9.820   4.308
 9147W        W77365  37.070  19.773   3.174
 9148W        W77366  29.660  43.471  11.229
 9149W        W77367   2.277  33.356  10.202
 9150W        W77368  34.119  12.519   0.872
 9151W        W77369  18.419  33.230   3.245
 9152W        W77370  20.581  35.499  11.980
 9153W        W77371  19.793  27.781   1.359
 9154W        W77372  25.986  18.042   1.223
 9155W        W77373  13.724  15.232  14.032
 9156W        W77374  28.242   7.553  10.583
 9157W        W77375  13.367  22.571   4.559
 9158W        W77376  34.551  32.393  12.821
 9159W        W77377   3.291  37.385   3.652
 9160W        W77378  42.047  34.137  12.337
 9161W        W77379  15.316  12.187  10.352
 9162W        W77380   1.094  32.006   5.091
 9163W        W77381  25.479  13.504  14.981
 9164W        W77382  21.068  25.673   3.663
 9165W        W77383  12.610  27.880  14.465
 9166W        W77384   4.513  21.690   4.102
 9167W        W77385  30.253  33.079  13.490
 9168W        W77386   4.882   7.894   1.921
 9169W        W77387  18.745  39.419   0.637
 9170W        W77388  16.237   7.396   4.643
 9171W        W77389  27.920  36.973  11.449
 9172W        W77390  21.176  33.957   3.995
 9173W        W77391  44.574  19.467   4.692
 9174W        W77392  29.029   1.488   2.109
 9175W        W77393  14.112  20.201   0.825
 9176W        W77394  32.303  20.640  14.277
 9177W        W77395  39.829  33.085  14.497
 9178W        W77396   2.662   6.624  14.347
 9179W        W77397  21.089   7.663   1.146
 9180W        W77398  31.371  34.338  12.306
 9181W        W77399   2.986  43.527   1.878
 9182W        W77400  13.926  30.346  11.712
 9183W        W77401  25.142  21.588  11.220
 9184W        W77402  26.029  31.372   1.627
 9185W        W77403  39.209  39.089  13.192
 9186W        W77404   1.894  11.230   2.386
 9187W        W77405   9.653  42.958   3.680
 9188W        W77406  37.023  23.152  14.722
 9189W        W77407  35.393  22.983  12.109
 9190W        W77408   2.994   6.333   3.879
 9191W        W77409  22.576   3.071  10.737
 9192W        W77410  40.822  36.956  11.171
 9193W        W77411   7.136   1.722   1.438
 9194W        W77412  40.915  23.624  11.242
 9195W        W77413  13.353  42.069   1.662
 9196W        W77414  31.172  35.507  10.668
 9197W        W77415  14.925  37.051  14.883
 9198W        W77416   9.215  25.367  12.842
 9199W        W77417  12.283  28.673   2.714
 9200W        W77418  44.002  32.088   1.594
 9201W        W77419  29.462   7.500   0.928
 9202W        W77420  34.026  12.039  10.572
 9203W        W77421  12.850  20.526  13.369
 9204W        W77422  29.062  10.216   2.341
 9205W        W77423  42.596  35.951  12.856
 9206W        W77424   9.324  41.156   5.367
 9207W        W77425  33.171   0.392  12.953
 9208W        W77426  14.780  35.937   3.127
 9209W        W77427  23.896  22.146  13.014
 9210W        W77428  16.566  28.430   0.450
 9211W        W77429  16.016  27.222  10.754
 9212W        W77430   0.447  11.084  12.000
 9213W        W77431   2.500  41.115   0.878
 9214W        W77432  38.353   2.781  12.555
 9215W        W77433  42.423  13.163  14.761
 9216W        W77434  31.989  32.955  14.891
 9217W        W77435  19.699  30.182  14.670
 9218W        W77436  43.071  24.710   1.911
 9219W        W77437  41.932  17.170   0.877
 9220W        W77438   8.261  18.748  10.638
 9221W        W77439   1.813  26.067  11.357
 9222W        W77440   5.272   3.482   3.617
 9223W        W77441  34.874  40.773   3.222
 9224W        W77442  43.799  30.844  11.474
 9225W        W77443  22.117  19.976   1.885
 9226W        W77444  16.629   5.717   0.795
 9227W        W77445  21.638  39.432   1.348
 9228W        W77446  25.336  15.310  13.974
 9229W        W77447  17.285  15.583   0.753
 9230W        W77448  28.665  37.875  12.485
 9231W        W77449  28.069   6.780  12.539
 9232W        W77450  17.462  11.170   4.996
 9233W        W77451  26.012  27.275  10.709
 9234W        W77452   2.546  44.326   3.765
 9235W        W77453   8.268  39.710   4.557
 9236W        W77454  36.496  27.657  13.950
 9237W        W77455  42.741  19.543  13.815
 9238W        W77456  17.180   9.728   4.402
 9239W        W77457   5.029   6.942   0.901
 9240W        W77458  11.637  28.084   1.359
 9241W        W77459  29.212  29.490  11.383
 9242W        W77460  37.737   7.331   4.946
 9243W        W77461  40.698  19.151  11.118
 9244W        W77462  34.281  25.243   2.260
 9245W        W77463  32.146   2.493   3.353
 9246W        W77464  38.626   4.212   3.299
 9247W        W77465  29.741  17.466  11.144
 9248W        W77466  16.620  17.774   1.267
 9249W        W77467   0.710  13.887  11.628
 9250W        W77468  11.985  42.946  11.968
 9251W        W77469  10.285  33.434  11.634
 9252W        W77470  19.661   2.685  13.132
 9253W        W77471  20.285  14.717  13.127
 9254W        W77472   8.748  16.170   1.122
 9255W        W77473   5.416  27.413  12.655
 9256W        W77474   4.147  23.459  12.070
 9257W        W77475  32.850   3.150  13.459
 9258W        W77476  41.999  23.514  10.666
 9259W        W77477  37.842  10.147  12.344
 9260W        W77478  21.045  16.100   1.321
 9261W        W77479  30.208  20.632  12.922
 9262W        W77480  17.105   0.536   0.708
 9263W        W77481  13.545   5.860   5.115
 9264W        W77482  36.783  12.796   2.656
 9265W        W77483  41.105  31.339  13.101
 9266W        W77484  28.556  18.038   0.892
 9267W        W77485  43.073  41.433   2.797
 9268W        W77486  22.044  28.015   3.173
 9269W        W77487  39.865   8.947  12.417
 9270W        W77488  42.266   8.711   2.560
 9271W        W77489  16.698  31.640  13.079
 9272W        W77490   9.859  34.834  11.044
 9273W        W77491  16.555  17.530  13.114
 9274W        W77492  32.860  15.918   3.750
 9275W        W77493   0.902  42.764   1.990
 9276W        W77494  27.507   6.385   0.510
 9277W        W77495  44.264  14.784   2.434
 9278W        W77496  41.675  10.844   1.289
 9279W        W77497   8.137  32.520   1.340
 9280W        W77498  27.965  38.071  14.990
 9281W        W77499  14.107  41.008   4.277
 9282W        W77500  17.465  26.549  14.520
 9283W        W77501  35.455  36.482  11.565
 9284W        W77502  43.945  40.663   2.477
 9285W        W77503  37.648  12.699   3.107
 9286W        W77504  26.564  43.453  13.414
 9287W        W77505  25.599  17.238   2.322
 9288W        W77506   9.872  44.440   4.716
 9289W        W77507  14.029  33.015  13.998
 9290W        W77508   7.874  34.581  14.265
 9291W        W77509   6.930  28.604   0.713
 9292W        W77510  18.123  34.113   0.326
 9293W        W77511   9.724  42.050   2.686
 9294W        W77512  28.685  36.402   2.837
 9295W        W77513  42.824  16.287   3.630
 9296W        W77514   0.228   4.936   1.135
 9297W        W77515  26.349   6.001  11.179
 9298W        W77516  21.053  30.448   1.204
 9299W        W77517   7.669  44.249   2.832
 9300W        W77518  10.223   2.390   1.521
 9301W        W77519  38.284  15.241  11.651
 9302W        W77520   2.247  41.922   1.458
 9303W        W77521  37.021  30.145  14.284
 9304W        W77522  14.602   3.754  10.700
 9305W        W77523  18.251  41.908  11.157
 9306W        W77524  15.871  40.850   4.800
 9307W        W77525  37.691  43.201   1.252
 9308W        W77526  35.791  41.476  12.091
 9309W        W77527  44.367   5.300   4.587
 9310W        W77528  36.843   0.171   3.302
 9311W        W77529  42.127   2.480  11.194
 9312W        W77530  28.567  21.706  14.879
 9313W        W77531  18.723  32.972  11.308
 9314W        W77532  29.898  43.012   3.411
 9315W        W77533   0.405   3.017  10.753
 9316W        W77534  28.871  34.099   2.403
 9317W        W77535   1.937  25.461   4.177
 9318W        W77536  42.782  10.196  13.814
 9319W        W77537  41.279  10.282  14.623
 9320W        W77538  19.324  44.054   1.761
 9321W        W77539  24.117  42.045  10.987
 9322W        W77540   4.162  35.337   3.218
 9323W        W77541  14.618  35.251   2.339
 9324W        W77542  19.172  30.836  13.896
 9325W        W77543  44.802  27.785   2.444
 9326W        W77544  39.620  41.828  13.831
 9327W        W77545   0.161  26.894   4.283
 9328W        W77546  41.504   8.874  13.915
 9329W        W77547  36.494  17.154   3.800
 9330W        W77548  25.285  17.793   4.355
 9331W        W77549  31.385  36.194   1.924
 9332W        W77550  14.353  39.843   0.435
 9333W        W77551  19.222   4.698   4.421
 9334W        W77552   3.623   5.750   0.876
 9335W        W77553  32.134  35.534   2.673
 9336W        W77554   1.886  23.812   0.587
 9337W        W77555  28.704  11.284  11.083
 9338W        W77556  32.794  40.380  13.992
 9339W        W77557   5.134  26.330  14.221
 9340W        W77558  35.866   6.178   3.735
 9341W        W77559  40.126  19.989   2.295
 9342W        W77560   3.213  35.546  12.537
 9343W        W77561  33.017   9.918  13.170
 9344W        W77562  34.657  17.366   0.891
 9345W        W77563  10.055   6.724  14.883
 9346W        W77564  23.704   9.589  12.485
 9347W        W77565  25.918  10.658   2.803
 9348W        W77566   3.392  22.730  14.399
 9349W        W77567   2.194  19.268  14.719
 9350W        W77568  24.755   2.604   0.925
 9351W        W77569  36.664   1.759   0.979
 9352W        W77570  19.041  43.041  12.065
 9353W        W77571  16.761  15.653   0.236
 9354W        W77572  39.100  14.322  12.363
 9355W        W77573  26.021  39.914   4.663
 9356W        W77574  15.178  35.070   3.650
 9357W        W77575  10.163  39.843   1.773
 9358W        W77576  22.487  16.156   3.665
 9359W        W77577  11.153   3.281   3.266
 9360W        W77578  31.380  26.485   3.147
 9361W        W77579   0.572  28.988   1.283
 9362W        W77580  39.731  33.582  14.681
 9363W        W77581  11.886  26.458  10.240
 9364W        W77582   3.308  33.595  10.536
 9365W        W77583  25.224  26.600  13.261
 9366W        W77584   5.570  20.608  14.864
 9367W        W77585  19.176  30.405   1.534
 9368W        W77586  35.495   7.013   3.236
 9369W        W77587   8.714  39.019   2.106
 9370W        W77588  15.548  13.362   0.331
 9371W        W77589   7.438  28.928   4.346
 9372W        W77590  40.528  28.577   4.912
 9373W        W77591  28.224  18.258   3.331
 9374W        W77592  29.059  19.614  14.175
 9375W        W77593  26.674  16.189   0.452
 9376W        W77594   2.344  15.019   4.297
 9377W        W77595  28.733  13.599  12.116
 9378W        W77596   8.704  44.415  12.353
 9379W        W77597  23.458  12.763  11.110
 9380W        W77598  33.109   8.744   3.835
 9381W        W77599  34.835  14.522  11.936
 9382W        W77600   3.489  41.305  14.274
 9383W        W77601  10.393   4.481   2.208
 9384W        W77602  40.808  11.285  10.927
 9385W        W77603  36.569   3.248   2.408
 9386W        W77604  15.092  39.946   4.889
 9387W        W77605   3.339  15.271   3.264
 9388W        W77606  31.908  44.443   0.960
 9389W        W77607   3.316  41.064   1.598
 9390W        W77608  36.806  43.485   3.840
 9391W        W77609  40.934  40.534   4.835
 9392W        W77610  12.624  15.037   3.313
 9393W        W77611   8.614  31.705   5.015
 9394W        W77612  33.605   5.850  13.747
 9395W        W77613  42.577  35.985  13.357
 9396W        W77614  23.965  27.751   0.841
 9397W        W77615  22.920   3.893   3.314
 9398W        W77616  26.232  44.837  13.878
 9399W        W77617   0.620   3.140   4.293
 9400W        W77618  32.935   1.462  12.466
 9401W        W77619  19.732  24.983  12.508
 9402W        W77620  23.688   1.507  11.054
 9403W        W77621  44.834  24.025  12.871
 9404W        W77622  16.966  39.682   2.119
 9405W        W77623  26.931  10.185  12.426
 9406W        W77624  33.006   7.826  13.831
 9407W        W77625  33.446  37.274   0.916
 9408W        W77626  42.876  22.760  12.691
 9409W        W77627  36.531   4.505  13.502
 9410W        W77628  33.848   6.159  11.125
 9411W        W77629  38.822  24.024  11.520
 9412W        W77630  31.393  33.551   1.378
 9413W        W77631  10.362  22.008  13.481
 9414W        W77632   2.508  39.419   2.208
 9415W        W77633  31.162  10.257  12.868
 9416W        W77634  35.705   5.173  12.090
 9417W        W77635  35.724   1.950   3.824
 9418W        W77636  39.009  24.111   0.988
 9419W        W77637  13.035  27.502  14.793
 9420W        W77638   3.753  22.075  11.530
 9421W        W77639  23.243  12.323  14.205
 9422W        W77640  44.404   3.303   3.704
 9423W        W77641  26.252  23.140   1.495
 9424W        W77642  37.373  12.188  14.859
 9425W        W77643  20.116  19.530   3.564
 9426W        W77644  32.352   8.919  13.599
 9427W        W77645  27.989   7.891   1.488
 9428W        W77646   7.157  27.678  14.938
 9429W        W77647   7.412  13.612  13.473
 9430W        W77648  22.750  27.968  10.748
 9431W        W77649  37.336  37.466   3.682
 9432W        W77650  12.272  31.498  14.080
 9433W        W77651   1.370  37.688   3.925
 9434W        W77652  17.104  44.926  11.524
 9435W        W77653   2.268  28.859   4.401
 9436W        W77654  16.239  29.529   3.669
 9437W        W77655  17.825  26.610  13.824
 9438W        W77656  17.798  41.264  10.679
 9439W        W77657  21.063  26.560   0.435
 9440W        W77658  28.952   9.813   4.599
 9441W        W77659   5.671  28.795  11.573
 9442W        W77660  32.122   0.520  10.355
 9443W        W77661   1.703  15.093  14.457
 9444W        W77662   8.855  37.525   4.174
 9445W        W77663   8.676  32.236  14.517
 9446W        W77664   0.662  30.972  12.984
 9447W        W77665  33.577   8.129   0.160
 9448W        W77666  35.526  21.819   3.740
 9449W        W77667  36.740   9.266  14.524
 9450W        W77668  26.586  31.792   0.957
 9451W        W77669  41.526   7.833  11.016
 9452W        W77670  25.116  19.577   3.733
 9453W        W77671  31.513  28.020   3.612
 9454W        W77672  19.660  40.575  14.741
 9455W        W77673  32.324  43.657  11.395
 9456W        W77674  11.194  17.769  12.590
 9457W        W77675  21.904  16.021  14.250
 9458W        W77676  43.290   7.740  13.065
 9459W        W77677  42.562  26.465   4.459
 9460W        W77678  22.768  42.567  11.239
 9461W        W77679  24.453  17.576  12.421
 9462W        W77680  18.364  11.537  14.750
 9463W        W77681  14.100  31.086   1.890
 9464W        W77682  32.088  38.406  10.799
 9465W        W77683  39.868  20.655  14.455
 9466W        W77684  31.932  18.640   4.144
 9467W        W77685  42.762  40.317  11.024
 9468W        W77686  41.184  13.688   4.900
 9469W        W77687  30.208  26.696  14.042
 9470W        W77688  11.102  13.826  11.572
 9471W        W77689  21.569  23.935  14.470
 9472W        W77690  38.549   0.425   2.244
 9473W        W77691  36.901  20.258  12.069
 9474W        W77692  20.337  11.843   9.975
 9475W        W77693  37.399   5.683  10.026
 9476W        W77694  25.700  32.959   3.240
 9477W        W77695  27.550  31.115   0.925
 9478W        W77696   1.345  26.757   1.200
 9479W        W77697   9.328  13.172   3.761
 9480W        W77698  39.085  34.052   3.856
 9481W        W77699  21.314   0.794  12.643
 9482W        W77700  17.502  35.826   5.013
 9483W        W77701  22.209  21.523   3.311
 9484W        W77702  22.175  42.447  13.917
 9485W        W77703   4.195  41.878  10.258
 9486W        W77704  21.226  36.654  10.482
 9487W        W77705  11.843  21.476   2.580
 9488W        W77706  14.265   7.445  12.540
 9489W        W77707  23.612  33.572  11.084
 9490W        W77708  14.706   1.608   5.413
 9491W        W77709   1.833   0.395   3.223
 9492W        W77710  21.017  22.400  11.038
 9493W        W77711  43.985   6.389   1.384
 9494W        W77712   1.289  36.037  14.790
 9495W        W77713  38.785   1.947  12.589
 9496W        W77714   9.139  18.328   4.542
 9497W        W77715  26.715  44.575   4.036
 9498W        W77716  12.341  41.853  14.982
 9499W        W77717  41.911  39.975   3.250
 9500W        W77718  11.150  20.208  12.864
 9501W        W77719  30.039  19.201   0.036
 9502W        W77720  10.693  22.685   2.371
 9503W        W77721  36.067  42.797  11.529
 9504W        W77722  44.964   4.395   1.739
 9505W        W77723  40.029  30.843  12.979
 9506W        W77724  34.068  30.861  11.652
 9507W        W77725   8.960  36.443  10.745
 9508W        W77726  41.560   1.269  12.916
 9509W        W77727  43.518  13.821   3.313
 9510W        W77728  40.125  35.427   2.134
 9511W        W77729  12.274   8.427  11.146
 9512W        W77730   4.150  27.685  13.314
 9513W        W77731  33.070  11.344   2.696
 9514W        W77732  21.941  23.123  13.393
 9515W        W77733   7.744  31.627   3.670
 9516W        W77734  22.293  37.450  10.506
 9517W        W77735  20.372   2.363   4.568
 9518W        W77736   9.872  32.003   1.430
 9519W        W77737  14.917   0.903   4.109
 9520W        W77738  23.604  22.667   4.349
 9521W        W77739  23.255  40.581  13.931
 9522W        W77740  33.515   3.873  11.808
 9523W        W77741  29.028  30.254  14.416
 9524W        W77742  24.616  18.299   3.050
 9525W        W77743  18.745  23.227   0.062
 9526W        W77744  24.656  31.176  11.028
 9527W        W77745  38.540  23.300  14.869
 9528W        W77746  14.190  23.159   1.197
 9529W        W77747   2.694   7.312  13.149
 9530W        W77748   6.878  17.866   0.828
 9531W        W77749  38.549  16.879   3.141
 9532W        W77750   2.742   2.738  13.307
 9533W        W77751  13.642   3.894  10.977
 9534W        W77752  40.007  28.201  13.019
 9535W        W77753  13.859   6.111   1.268
 9536W        W77754  30.579  13.750   3.238
 9537W        W77755  12.820  14.731   3.703
 9538W        W77756  40.981  21.970   4.510
 9539W        W77757  23.720   3.786   2.787
 9540W        W77758  20.724  30.590  14.283
 9541W        W77759   6.809   5.528  13.371
 9542W        W77760   1.991  16.482  11.130
 9543W        W77761   9.327  42.991   2.794
 9544W        W77762   8.678  35.888  11.085
 9545W        W77763  41.033   2.109  10.261
 9546W        W77764  22.662   6.612   3.324
 9547W        W77765  29.291  21.227  10.700
 9548W        W77766  30.674  37.800  14.384
 9549W        W77767   4.160  42.030   4.235
 9550W        W77768  16.724   0.987  11.041
 9551W        W77769  16.446  21.358   1.852
 9552W        W77770  40.441   3.649  11.656
 9553W        W77771  14.991  20.686  13.435
 9554W        W77772  27.839  23.788   0.305
 9555W        W77773  12.802  40.910   1.197
 9556W        W77774  28.126  44.150  12.051
 9557W        W77775  38.005  25.069   1.669
 9558W        W77776   0.314  11.991   2.609
 9559W        W77777   0.755   0.137  13.745
 9560W        W77778  17.285  18.144   3.670
 9561W        W77779  23.723  42.825   4.699
 9562W        W77780  15.269  30.194  12.125
 9563W        W77781  18.381  44.311   3.642
 9564W        W77782  41.480  19.037  14.308
 9565W        W77783  38.923  20.032   3.078
 9566W        W77784  15.075   5.591  11.380
 9567W        W77785  24.394  20.994   1.130
 9568W        W77786   0.274  22.920  11.942
 9569W        W77787  26.597  22.046   0.083
 9570W        W77788   4.832  35.263   2.664
 9571W        W77789  40.887  40.362  11.917
 9572W        W77790   4.981  14.328   3.987
 9573W        W77791  22.378   4.360  11.747
 9574W        W77792  44.811  38.881   2.913
 9575W        W77793  34.485  35.672  14.299
 9576W        W77794  18.427   1.399   4.419
 9577W        W77795   8.764  18.831  10.741
 9578W        W77796  22.767  18.593  14.877
 9579W        W77797  28.068  26.772   3.855
 9580W        W77798  43.816  26.677   3.673
 9581W        W77799   5.787  31.273   0.375
 9582W        W77800  27.030  25.799  13.522
 9583W        W77801  13.442  13.499   2.775
 9584W        W77802  21.391  26.177  11.017
 9585W        W77803  33.811  14.171  13.851
 9586W        W77804  32.107   3.379  12.640
 9587W        W77805  29.166   4.356   4.494
 9588W        W77806   7.772  33.049  14.966
 9589W        W77807  28.150  39.507   0.711
 9590W        W77808  38.739  19.943   3.790
 9591W        W77809  32.246   0.292   0.923
 9592W        W77810   4.790  11.655  12.150
 9593W        W77811   2.901  20.392   0.975
 9594W        W77812  24.206  28.201   4.126
 9595W        W77813  29.146   1.236   0.778
 9596W        W77814  19.548  15.084   0.330
 9597W        W77815  40.433  19.246   2.720
 9598W        W77816  30.476   2.043   3.760
 9599W        W77817  12.600   5.415  11.206
 9600W        W77818  42.897   6.180  12.499
 9601W        W77819   2.848  22.496   2.412
 9602W        W77820  27.839   7.229  14.822
 9603W        W77821   2.148  41.083  14.015
 9604W        W77822  23.575  35.140  13.581
 9605W        W77823   9.033  32.189   0.858
 9606W        W77824  37.983  42.788  14.478
 9607W        W77825  31.959  32.984   2.674
 9608W        W77826  43.358  10.823  11.975
 9609W        W77827  16.295  39.089  11.843
 9610W        W77828  38.639  19.054  14.354
 9611W        W77829   1.021  37.895   4.340
 9612W        W77830   7.816  16.121   2.607
 9613W        W77831  26.991   1.210  13.451
 9614W        W77832  17.769  32.809   1.421
 9615W        W77833  31.651  35.971  11.698
 9616W        W77834  37.392  27.185   0.280
 9617W        W77835  19.778  20.303   2.951
 9618W        W77836  37.415  15.746  11.594
 9619W        W77837   5.592  28.207  11.692
 9620W        W77838   2.869  35.930  12.510
 9621W        W77839  28.120  11.623   2.256
 9622W        W77840  27.410  20.167   2.322
 9623W        W77841  35.970  38.971   2.375
 9624W        W77842  18.127  24.969  13.885
 9625W        W77843  16.058  42.500   4.109
 9626W        W77844  44.766   6.747   2.419
 9627W        W77845  31.811  12.233  12.571
 9628W        W77846  19.719  35.908  14.680
 9629W        W77847   1.816   4.624   2.889
 9630W        W77848  31.269  11.115  12.857
 9631W        W77849   7.802  22.569   4.639
 9632W        W77850  10.170  43.893  14.273
 9633W        W77851   7.938   5.321  11.178
 9634W        W77852   1.306  14.107   2.858
 9635W        W77853  23.673   5.782   4.146
 9636W        W77854   5.913  24.586  14.967
 9637W        W77855  29.173  19.760   4.332
 9638W        W77856   9.208  35.961   4.815
 9639W        W77857  10.800   9.737  14.464
 9640W        W77858  35.972   5.289  11.020
 9641W        W77859  17.477  24.012   3.195
 9642W        W77860  32.051  17.317  13.905
 9643W        W77861  22.670  30.285   1.761
 9644W        W77862  15.328  33.642  13.956
 9645W        W77863   0.585  44.257  10.433
 9646W        W77864   5.128  13.587   2.868
 9647W        W77865  11.894  25.586   4.148
 9648W        W77866  31.885  13.202   1.629
 9649W        W77867  20.177  23.695  12.860
 9650W        W77868  13.806   3.455  11.706
 9651W        W77869   9.240  14.149   0.963
 9652W        W77870   2.248   9.190   4.901
 9653W        W77871  13.554  21.660  13.727
 9654W        W77872   2.011  36.456   0.758
 9655W        W77873  20.523   1.835   2.687
 9656W        W77874  11.944  22.463  14.428
 9657W        W77875   9.901  43.379  11.506
 9658W        W77876  13.097  43.585   1.381
 9659W        W77877  26.291   9.601  13.044
 9660W        W77878  11.763  23.043  10.589
 9661W        W77879   3.729  14.107  13.923
 9662W        W77880  42.034   3.358   3.206
 9663W        W77881   4.357   2.485   2.411
 9664W        W77882   4.701   9.272   2.594
 9665W        W77883   8.760  28.520   4.388
 9666W        W77884   1.355  35.457  10.659
 9667W        W77885   4.213  30.464   4.301
 9668W        W77886  26.533  18.982  12.916
 9669W        W77887  17.843  41.988  13.473
 9670W        W77888  17.862  36.555   2.647
 9671W        W77889   0.082  20.217   1.814
 9672W        W77890   3.064  12.878   1.886
 9673W        W77891  25.232  26.425   2.618
 9674W        W77892  15.963   6.817  13.462
 9675W        W77893  44.191   1.694   0.036
 9676W        W77894  35.971  36.441  14.279
 9677W        W77895  21.011  38.843   0.347
 9678W        W77896  27.388  33.576  10.242
 9679W        W77897  32.501  14.770   4.619
 9680W        W77898  17.296  21.560   0.945
 9681W        W77899  33.519  14.885  12.077
 9682W        W77900  14.608  16.281  12.074
 9683W        W77901  17.521   3.646  14.415
 9684W        W77902  29.288  43.805   1.944
 9685W        W77903  39.203  41.832  11.132
 9686W        W77904  35.851   4.774  11.103
 9687W        W77905  34.052   3.028  11.080
 9688W        W77906  29.446  19.349   3.711
 9689W        W77907  44.429  39.213  13.370
 9690W        W77908   5.457  23.312  13.873
 9691W        W77909  23.147  18.551  12.877
 9692W        W77910  29.683  21.967   1.342
 9693W        W77911  32.317  30.142  13.898
 9694W        W77912  40.489  22.587   3.716
 9695W        W77913  23.742  23.536  12.404
 9696W        W77914  26.005  11.371   0.992
 9697W        W77915  31.906  18.043  14.414
 9698W        W77916  19.579   8.120  13.977
 9699W        W77917  44.400   1.996   0.390
 9700W        W77918   8.262  44.331   2.238
 9701W        W77919  16.496  27.950  14.369
 9702W        W77920  10.258   5.098   1.362
 9703W        W77921   6.186  31.681  12.193
 9704W        W77922   0.261   7.869  12.461
 9705W        W77923  31.051  17.845   3.698
 9706W        W77924  12.408  29.226  14.344
 9707W        W77925  26.440  40.686   4.226
 9708W        W77926  28.281  17.310  13.110
 9709W        W77927  18.633  41.657  10.369
 9710W        W77928  18.585  31.908  14.431
 9711W        W77929  24.788  13.108  10.628
 9712W        W77930  24.957  36.382  14.341
 9713W        W77931  26.040  41.249  10.664
 9714W        W77932  14.076  22.513   1.719
 9715W        W77933  38.982  44.434  12.253
 9716W        W77934  12.614  19.743   1.682
 9717W        W77935  27.382  17.954   3.355
 9718W        W77936  41.975  23.134   0.788
 9719W        W77937  38.638  11.227   2.831
 9720W        W77938  22.740   5.638   3.285
 9721W        W77939  21.644  28.222   4.797
 9722W        W77940  16.282  37.944  12.576
 9723W        W77941   2.527  29.711   2.047
 9724W        W77942   2.352  43.744   3.031
 9725W        W77943  44.349   1.126  13.157
 9726W        W77944  43.263  11.780   0.690
 9727W        W77945   5.993  20.967  11.945
 9728W        W77946  36.522   3.508  11.552
 9729W        W77947  20.134  30.606   1.857
 9730W        W77948  36.565   6.388  10.749
 9731W        W77949  33.643  22.553   3.182
 9732W        W77950  13.875  22.287   3.331
 9733W        W77951  23.774   4.806   1.881
 9734W        W77952  20.048  16.158  14.943
 9735W        W77953  18.792  23.948   0.436
 9736W        W77954  10.866  20.099  13.347
 9737W        W77955  20.531  35.451  13.399
 9738W        W77956  33.021  32.518   2.211
 9739W        W77957  40.830  37.747   1.380
 9740W        W77958  32.034   1.447   4.941
 9741W        W77959  16.067   5.423  14.510
 9742W        W77960  29.516   8.597   2.455
 9743W        W77961  38.496  28.119   0.180
 9744W        W77962  36.153  37.762   4.297
 9745W        W77963  31.516  17.595   4.632
 9746W        W77964  23.691  38.578  14.285
 9747W        W77965  11.320  26.444  12.239
 9748W        W77966  14.590   5.727   3.428
 9749W        W77967   5.616  36.379   4.260
 9750W        W77968  30.526  33.357  12.019
 9751W        W77969  40.619  38.225  12.797
 9752W        W77970   3.510  44.270  12.537
 9753W        W77971   2.154  28.027   5.301
 9754W        W77972  42.417  10.308   0.972
 9755W        W77973  39.424   2.966   1.427
 9756W        W77974  36.865  28.781   0.939
 9757W        W77975  44.483   0.986   1.922
 9758W        W77976  16.077  18.691  12.443
 9759W        W77977  14.300  29.294   1.346
 9760W        W77978   1.874  20.690   1.436
 9761W        W77979   8.776   0.054  14.357
 9762W        W77980  38.416  39.648   3.222
 9763W        W77981  43.262  25.649  14.262
 9764W        W77982  22.025  31.481  11.549
 9765W        W77983  26.549  30.551   3.713
 9766W        W77984  28.555  37.414   0.509
 9767W        W77985  26.317  25.672   5.500
 9768W        W77986  27.983  18.144  11.640
 9769W        W77987   9.216  20.612   1.816
 9770W        W77988   4.482  15.367   4.160
 9771W        W77989  34.069  34.436   0.741
 9772W        W77990   7.881  34.892   4.607
 9773W        W77991  12.262   5.324  12.394
 9774W        W77992  12.890  42.982  11.175
 9775W        W77993  16.807   9.733   4.745
 9776W        W77994  32.960  25.011  10.188
 9777W        W77995  12.728   1.028  14.391
 9778W        W77996  32.000  14.747   2.320
 9779W        W77997  34.118   3.247  10.275
 9780W        W77998  10.224  33.866   1.402
 9781W        W77999  10.488   2.004   1.193
 9782W        W78000  33.501   7.674  13.664
 9783W        W78001  12.815   0.768   1.265
 9784W        W78002  18.141  15.017  12.478
 9785W        W78003  43.878   0.295   1.835
 9786W        W78004  26.295  18.142  10.166
 9787W        W78005  32.178  20.033  12.428
 9788W        W78006  16.128   9.873   0.301
 9789W        W78007  43.941  39.534   0.800
 9790W        W78008  15.557  14.761  11.619
 9791W        W78009   0.001  33.093   1.822
 9792W        W78010  34.416  19.674   4.905
 9793W        W78011   7.716  24.700   4.509
 9794W        W78012  29.611   2.461  10.237
 9795W        W78013  28.855  16.604  11.676
 9796W        W78014   6.640  28.978   0.433
 9797W        W78015  39.436  18.267   0.827
 9798W        W78016  15.693  21.078  11.400
 9799W        W78017  12.661  29.660   1.655
 9800W        W78018   7.391  21.072  10.748
 9801W        W78019   2.496  34.125   2.936
 9802W        W78020  30.120  18.760   4.689
 9803W        W78021  37.440  20.699   1.297
 9804W        W78022  38.857  13.273   0.643
 9805W        W78023  25.170  14.528   0.037
 9806W        W78024  32.827  17.305   4.735
 9807W        W78025  15.873   2.803  12.103
 9808W        W78026  11.180   1.946  13.338
 9809W        W78027  28.241  10.287   1.928
 9810W        W78028   8.653  43.570  11.062
 9811W        W78029   5.355  37.138  11.123
 9812W        W78030  40.000   3.905  12.402
 9813W        W78031  10.587  35.980  13.111
 9814W        W78032  23.805   4.195   4.090
 9815W        W78033  22.155  26.652  10.907
 9816W        W78034  17.577  23.613   4.462
 9817W        W78035  11.274  20.579   3.227
 9818W        W78036  29.200   4.803   3.230
 9819W        W78037  27.716   9.500  13.143
 9820W        W78038   3.179   6.391  12.198
 9821W        W78039  13.891  35.522   1.552
 9822W        W78040  19.715  15.279   0.792
 9823W        W78041  40.546  34.616  11.212
 9824W        W78042  21.450  42.493  11.974
 9825W        W78043  41.151  21.135  11.906
 9826W        W78044   0.669  20.191   3.814
 9827W        W78045  24.197  36.478  11.919
 9828W        W78046   8.652  41.508   2.368
 9829W        W78047  14.480  40.699  12.403
 9830W        W78048   2.876  25.918  12.202
 9831W        W78049  38.557  28.098  14.278
 9832W        W78050   4.366   2.295   3.670
 9833W        W78051  13.052  17.090   3.178
 9834W        W78052   2.447   7.614   0.857
 9835W        W78053  31.537  41.933   0.752
 9836W        W78054  13.844  31.528   2.382
 9837W        W78055  18.807  41.932   0.510
 9838W        W78056   4.618  30.761   3.583
 9839W        W78057  24.446   0.745  12.446
 9840W        W78058  28.711  14.323   0.487
 9841W        W78059   2.328  11.072  14.544
 9842W        W78060  22.532  31.063  12.860
 9843W        W78061  15.252  23.796  13.911
 9844W        W78062   3.745  21.194  12.536
 9845W        W78063  37.988  43.545   3.960
 9846W        W78064  43.384  15.150   0.883
 9847W        W78065  33.095  21.002   2.571
 9848W        W78066  43.885  36.147   1.917
 9849W        W78067  23.689   5.179  13.006
 9850W        W78068  21.688   0.492   2.374
 9851W        W78069  44.627  29.428  14.919
 9852W        W78070  35.943  42.829   3.160
 9853W        W78071  36.879  14.949   1.845
 9854W        W78072  12.164  13.053  11.679
 9855W        W78073  26.025  38.921   2.088
 9856W        W78074   8.221  17.277  14.585
 9857W        W78075  19.936  36.116   1.308
 9858W        W78076   3.446  29.378  14.551
 9859W        W78077  38.392  20.901  12.669
 9860W        W78078   6.890   1.495   4.104
 9861W        W78079  11.689  16.154  13.516
 9862W        W78080  20.495   7.695  13.284
 9863W        W78081  12.579  43.829  14.941
 9864W        W78082   8.898  29.746  12.696
 9865W        W78083  26.962  11.186   0.305
 9866W        W78084  34.149  21.326  11.574
 9867W        W78085  29.080   3.370  11.098
 9868W        W78086  16.036   5.228  13.583
 9869W        W78087   4.920   8.581  12.409
 9870W        W78088  22.109  31.839  10.244
 9871W        W78089  29.427  10.171  11.426
 9872W        W78090   3.479  24.641   0.210
 9873W        W78091   0.450  35.918   3.297
 9874W        W78092  14.329  11.207   3.651
 9875W        W78093  27.359  12.791   4.095
 9876W        W78094   6.060  40.417   3.916
 9877W        W78095  31.467  37.291   4.286
 9878W        W78096   8.885  14.231   3.106
 9879W        W78097  40.423  35.543   0.743
 9880W        W78098   3.978  13.781  11.060
 9881W        W78099  16.120   6.306   0.358
 9882W        W78100  41.285  15.037  14.358
 9883W        W78101  44.601  38.615   3.673
 9884W        W78102  12.025  18.046   3.636
 9885W        W78103  34.473  23.545   4.477
 9886W        W78104  40.444  28.934   3.641
 9887W        W78105  12.089  36.040   4.455
 9888W        W78106  44.090  23.448   0.414
 9889W        W78107  42.507  37.983  14.864
 9890W        W78108  20.131  20.018   2.690
 9891W        W78109  15.743  22.504  13.567
 9892W        W78110  41.412  42.532  12.123
 9893W        W78111  11.662  38.720   4.309
 9894W        W78112   2.416  25.916   1.277
 9895W        W78113   0.091  21.574   1.759
 9896W        W78114  34.586   7.140  10.709
 9897W        W78115  14.249  43.280   0.927
 9898W        W78116  18.753  20.675  14.257
 9899W        W78117  40.902  43.531  12.968
 9900W        W78118  33.201  42.639   2.719
 9901W        W78119  24.661   6.250  11.420
 9902W        W78120  20.018   2.466   2.190
 9903W        W78121  26.972  11.535   3.614
 9904W        W78122  17.680  17.413   4.502
 9905W        W78123  15.986   5.668   4.513
 9906W        W78124  42.756  31.559  14.426
 9907W        W78125  10.470   2.910  10.992
 9908W        W78126  34.922  33.863  11.312
 9909W        W78127  38.145  26.003  11.067
 9910W        W78128  44.292  38.406   3.255
 9911W        W78129  18.986  25.085   2.228
 9912W        W78130   2.527  18.292   4.574
 9913W        W78131  19.174  43.477   0.348
 9914W        W78132   3.315  17.555  14.963
 9915W        W78133  36.657  21.582   2.835
 9916W        W78134   8.347  17.885   4.898
 9917W        W78135   6.986  11.104   3.226
 9918W        W78136  30.985  39.997   4.009
 9919W        W78137   2.939  15.574   2.231
 9920W        W78138  41.870  24.298   4.017
 9921W        W78139  29.126   2.569   4.808
 9922W        W78140   3.225  19.153   2.308
 9923W        W78141  20.137  31.644   1.928
 9924W        W78142  38.160   0.472   1.925
 9925W        W78143  13.578  44.075   1.119
 9926W        W78144  17.141  28.689   4.430
 9927W        W78145   4.012   4.000  14.129
 9928W        W78146   3.172  40.576   3.022
 9929W        W78147  17.156   5.298   1.845
 9930W        W78148  35.322  35.443   1.935
 9931W        W78149  34.388  28.397   3.600
 9932W        W78150  39.260  31.817  11.167
 9933W        W78151  33.805  36.429  12.266
 9934W        W78152   7.378  38.283   4.301
 9935W        W78153   7.366  41.518   0.013
 9936W        W78154   3.755   6.095  10.652
 9937W        W78155  31.136  44.521  14.070
 9938W        W78156  37.969   5.474   1.258
 9939W        W78157  22.075  18.326  12.514
 9940W        W78158   4.247  36.870  13.323
 9941W        W78159  18.218  43.919   3.919
 9942W        W78160  41.632  17.047  11.615
 9943W        W78161  20.800  20.663  10.748
 9944W        W78162  32.123  16.795  13.977
 9945W        W78163  14.881  23.567  10.261
 9946W        W78164  27.463  13.216   1.262
 9947W        W78165   4.187  11.563   1.315
 9948W        W78166  11.852   2.407   0.318
 9949W        W78167  38.680  15.247   2.475
 9950W        W78168  30.037  11.714   2.342
 9951W        W78169  13.746  43.072  11.098
 9952W        W78170  35.536  27.620   1.287
 9953W        W78171   3.873   4.819   4.282
 9954W        W78172  22.495  23.269  10.719
 9955W        W78173  42.553  41.364  14.890
 9956W        W78174   2.217  38.374  13.353
 9957W        W78175  21.591   0.329  11.484
 9958W        W78176  19.638  18.344   1.193
 9959W        W78177   8.933  14.729  11.435
 9960W        W78178   5.749   7.673  10.954
 9961W        W78179  40.042   0.109   3.681
 9962W        W78180  15.196  34.909  12.415
 9963W        W78181  12.033  29.556   2.357
 9964W        W78182   3.947  42.854  11.068
 9965W        W78183  22.163  29.003   4.844
 9966W        W78184  13.907  25.694   3.313
 9967W        W78185   2.272  30.049   3.312
 9968W        W78186  16.593   1.820   4.621
 9969W        W78187  44.052  13.823   3.331
 9970W        W78188  27.057  25.223   5.382
 9971W        W78189  24.090  22.227   2.356
 9972W        W78190   7.231  14.344  13.937
 9973W        W78191  39.752  33.620   2.386
 9974W        W78192  37.439  24.252   3.698
 9975W        W78193  40.083  13.616  13.050
 9976W        W78194  31.901   1.980  13.264
 9977W        W78195   2.496   9.511   3.626
 9978W        W78196  20.489  34.539   2.691
 9979W        W78197  19.319   2.360   4.590
 9980W        W78198  42.238  40.936  11.428
 9981W        W78199  18.400  14.527   0.977
 9982W        W78200   6.267  15.368   2.285
 9983W        W78201  15.816  32.477   4.131
 9984W        W78202   7.829  44.960  14.019
 9985W        W78203  41.404  16.671  14.481
 9986W        W78204   5.843  27.230  10.326
 9987W        W78205  29.064  32.131  11.655
 9988W        W78206  41.815  44.471  13.894
 9989W        W78207  29.501  39.414  12.037
 9990W        W78208  29.116   0.980   1.429
 9991W        W78209   5.766  31.124  11.613
 9992W        W78210  14.776  18.538   1.855
 9993W        W78211   5.911   0.763  11.062
 9994W        W78212  23.713   4.353   3.268
 9995W        W78213  31.830  10.140   3.715
 9996W        W78214  37.982  22.283   0.836
 9997W        W78215  19.450  39.000  11.643
 9998W        W78216   7.894   7.689   3.068
 9999W        W78217   2.223  12.766   4.729
10000W        W78218  32.424  36.049   1.773
10001W        W78219   7.989  29.490  10.765
10002W        W78220   6.826   9.177  11.559
10003W        W78221  10.390  22.600   1.369
10004W        W78222  30.442   2.664   9.705
10005W        W78223  23.212  24.249  13.996
10006W        W78224  22.630  32.973  10.509
10007W        W78225  41.313  10.308  12.448
10008W        W78226  15.612  15.860  13.172
10009W        W78227   0.517  21.570   2.694
10010W        W78228   1.721  19.636  11.166
10011W        W78229  23.140  10.247  14.542
10012W        W78230  32.395  33.443  13.150
10013W        W78231  27.640  21.550   4.380
10014W        W78232  37.276   2.355  12.696
10015W        W78233  25.284  35.777   4.613
10016W        W78234   8.855   3.357   1.513
10017W        W78235  26.239  44.522  13.385
10018W        W78236  41.918   9.342   1.892
10019W        W78237   0.547   5.319  13.512
10020W        W78238  10.757   9.340   3.749
10021W        W78239  14.045  14.452  12.237
10022W        W78240  30.720  44.241  13.919
10023W        W78241  42.416  15.150  12.985
10024W        W78242  25.232   1.066  14.766
10025W        W78243  17.158  38.408   0.412
10026W        W78244  16.808  17.219   0.101
10027W        W78245  10.851  39.528  14.826
10028W        W78246   4.859  16.529  13.915
10029W        W78247  20.508  36.584   1.088
10030W        W78248  37.221   2.934   1.953
10031W        W78249  18.476  44.418   1.771
10032W        W78250  35.999  16.331   1.716
10033W        W78251  31.165  33.534  10.542
10034W        W78252   6.761  27.575   3.905
10035W        W78253  39.860  35.087  11.153
10036W        W78254  23.535  36.462   3.152
10037W        W78255  29.398  39.608  13.414
10038W        W78256  26.040  35.272   1.114
10039W        W78257  41.477  34.616  11.181
10040W        W78258  34.609  12.751  13.027
10041W        W78259  11.671  22.287  13.515
10042W        W78260  36.480  10.351   4.067
10043W        W78261  35.379  19.101  11.876
10044W        W78262  29.030  29.801   4.227
10045W        W78263  44.486   9.703   1.210
10046W        W78264  43.267  18.243   0.485
10047W        W78265  20.641  35.878  10.273
10048W        W78266  37.541  23.620  10.407
10049W        W78267   2.267   8.365  11.561
10050W        W78268  23.917   0.733  11.016
10051W        W78269  10.264  11.863   0.508
10052W        W78270  34.743  21.171   1.913
10053W        W78271  20.479  27.093  11.000
10054W        W78272  11.616  25.195  14.961
10055W        W78273  16.289  35.410   4.610
10056W        W78274  16.670  17.852  12.138
10057W        W78275  31.072  16.169  10.252
10058W        W78276  31.159  24.108   5.031
10059W        W78277  42.410  26.583  13.813
10060W        W78278  28.265   0.767   1.308
10061W        W78279  12.332  37.672  12.851
10062W        W78280  24.167  20.656   3.241
10063W        W78281  40.405  26.572  12.592
10064W        W78282  23.682   4.424  13.517
10065W        W78283  41.924  15.430   3.229
10066W        W78284  33.483   8.291   3.767
10067W        W78285   0.155  37.071   3.826
10068W        W78286  42.777  22.538   1.775
10069W        W78287  29.680  17.974  11.058
10070W        W78288  20.084  43.997   0.931
10071W        W78289   7.979  12.757   0.703
10072W        W78290   6.273  18.926   1.365
10073W        W78291  34.691   6.255  14.201
10074W        W78292  33.448  33.017   0.021
10075W        W78293  33.015   3.636  13.438
10076W        W78294   3.869  32.033  10.584
10077W        W78295  37.262  12.879   0.355
10078W        W78296  32.379  29.642   4.052
10079W        W78297  14.990  20.895  14.842
10080W        W78298  12.343  38.032   1.707
10081W        W78299  27.613   5.669   1.032
10082W        W78300   4.479  34.113   4.668
10083W        W78301  39.299  29.432  13.413
10084W        W78302   0.991   7.836   4.604
10085W        W78303  32.456  14.976   2.377
10086W        W78304  35.412  32.053   0.800
10087W        W78305  44.373  10.811  12.031
10088W        W78306  41.920   3.150  10.479
10089W        W78307  37.968  25.510   0.530
10090W        W78308  32.342   6.552   1.040
10091W        W78309  19.866  36.762  12.108
10092W        W78310  38.062  30.670   4.942
10093W        W78311   5.313  41.976  13.770
10094W        W78312  37.524  23.714   2.852
10095W        W78313   7.589  32.495   2.017
10096W        W78314  21.219  20.641  13.591
10097W        W78315  30.822  19.796   0.253
10098W        W78316  40.450  18.516  14.536
10099W        W78317  37.927  18.675   1.068
10100W        W78318   3.478  28.950  14.818
10101W        W78319  18.041  25.641   1.508
10102W        W78320  26.710  37.140   0.397
10103W        W78321  20.300  29.060  10.317
10104W        W78322  14.625   2.794   0.370
10105W        W78323  12.406  42.366   3.774
10106W        W78324  13.329  25.235  10.244
10107W        W78325  39.881  38.050  12.912
10108W        W78326   2.872  30.618   4.836
10109W        W78327  28.061  25.680   2.435
10110W        W78328   8.204  13.843  10.775
10111W        W78329  23.677  25.577  11.069
10112W        W78330  33.649  11.095  14.109
10113W        W78331  37.013  39.955   3.555
10114W        W78332   1.239  33.106   2.800
10115W        W78333   8.580   1.776  11.115
10116W        W78334  19.168  10.165  11.096
10117W        W78335  42.972   8.343  12.946
10118W        W78336  34.349  31.819   0.501
10119W        W78337   1.238  35.974  10.746
10120W        W78338  19.309  15.550   4.755
10121W        W78339  16.664  38.957  10.575
10122W        W78340  36.914   8.176   1.438
10123W        W78341  36.657  28.108   2.995
10124W        W78342  35.050  30.542  12.623
10125W        W78343  36.522  20.884  11.570
10126W        W78344  11.679  11.469   4.483
10127W        W78345  24.652  10.752  10.665
10128W        W78346  17.489  20.777   3.318
10129W        W78347  39.353  35.121   4.637
10130W        W78348   6.780  19.737  11.045
10131W        W78349  25.246   8.429   1.189
10132W        W78350  30.740  22.527   2.049
10133W        W78351  39.080  44.342   3.757
10134W        W78352  14.171  35.131  11.104
10135W        W78353  41.050  16.668   1.845
10136W        W78354  29.848  34.480  14.439
10137W        W78355  25.203  33.860  13.778
10138W        W78356  17.403  36.351  10.619
10139W        W78357  41.541  44.863   1.757
10140W        W78358  34.667  21.180  11.569
10141W        W78359  31.167  42.763   5.092
10142W        W78360  23.469   3.563   2.283
10143W        W78361  15.746  44.487  12.883
10144W        W78362  31.861  39.468  11.492
10145W        W78363   2.350  11.129  13.932
10146W        W78364  31.105  16.920   9.789
10147W        W78365   3.409   9.632  14.750
10148W        W78366  24.550  44.852   4.561
10149W        W78367  31.954  38.101  14.361
10150W        W78368   1.004  21.271  10.681
10151W        W78369  31.991  37.578   0.442
10152W        W78370  22.773  21.308   2.241
10153W        W78371   0.129  23.458   4.762
10154W        W78372  44.290  44.970   1.756
10155W        W78373   7.257  22.767   1.237
10156W        W78374   4.382   6.426  14.339
10157W        W78375  30.422  21.489  11.930
10158W        W78376   0.266   7.431   4.100
10159W        W78377  14.362  10.016   2.107
10160W        W78378  19.140  26.036  13.424
10161W        W78379  28.068  43.294   4.274
10162W        W78380  30.639   7.812  13.313
10163W        W78381  39.538  39.480  11.468
10164W        W78382  11.174  11.063   4.124
10165W        W78383  28.151   5.309  12.734
10166W        W78384  12.787  15.444   5.164
10167W        W78385   0.591  33.484  13.392
10168W        W78386  32.600  16.240   2.896
10169W        W78387   3.344  39.913   3.721
10170W        W78388  43.223  24.085  11.722
10171W        W78389  25.568  42.472  13.881
10172W        W78390   2.422  32.651  12.244
10173W        W78391  43.984  38.003   1.397
10174W        W78392  12.195   3.606  13.006
10175W        W78393   5.731   0.453   1.550
10176W        W78394  30.094  39.421   4.983
10177W        W78395  30.043   3.982   0.967
10178W        W78396  26.415  20.081  14.897
10179W        W78397  18.496  39.995  14.417
10180W        W78398  24.507  29.119  12.319
10181W        W78399  36.479  19.297  12.500
10182W        W78400  34.099  19.697   0.852
10183W        W78401  12.571  39.099  13.431
10184W        W78402  40.814  16.528  12.950
10185W        W78403  11.703   9.280   4.344
10186W        W78404  33.587  36.372   4.585
10187W        W78405   5.789  44.275   3.566
10188W        W78406  26.735  21.105  11.629
10189W        W78407   6.603  28.199   4.563
10190W        W78408   3.949  10.971  13.355
10191W        W78409  15.030   3.753  14.973
10192W        W78410  17.136  22.265  12.115
10193W        W78411   3.390  38.243   4.768
10194W        W78412  44.879   8.983  12.174
10195W        W78413  34.748  39.521   4.423
10196W        W78414  11.919  17.526   3.668
10197W        W78415  38.413  26.504  13.929
10198W        W78416  29.517   4.463   1.277
10199W        W78417  24.929  18.316  11.377
10200W        W78418  33.257  25.567   2.727
10201W        W78419   2.247   1.682   3.245
10202W        W78420  39.301   2.496  13.511
10203W        W78421  44.544  29.002  12.066
10204W        W78422   5.264  22.768  14.788
10205W        W78423   0.533  21.908  11.670
10206W        W78424  27.048   5.288  11.789
10207W        W78425  23.484  31.192  13.840
10208W        W78426  23.159   1.055   1.169
10209W        W78427  37.794  39.467  11.142
10210W        W78428  27.538   0.445   2.231
10211W        W78429   8.398  27.897   2.428
10212W        W78430  44.332  13.929  14.566
10213W        W78431  25.130  40.903   4.456
10214W        W78432  32.050   7.066  10.556
10215W        W78433  35.787   6.871  14.345
10216W        W78434   0.822   6.948   2.001
10217W        W78435  11.911  41.343   0.523
10218W        W78436  31.411  18.727  12.202
10219W        W78437  28.179   1.918   4.240
10220W        W78438  40.351   8.750  10.367
10221W        W78439   7.980  27.660   2.258
10222W        W78440   6.252  25.122  12.069
10223W        W78441  43.024  32.059   1.963
10224W        W78442  31.757  29.561  10.359
10225W        W78443   9.042  42.378   4.110
10226W        W78444  16.885  28.833  10.573
10227W        W78445  17.648  31.458  10.699
10228W        W78446  21.050  31.210   0.801
10229W        W78447  34.693  11.147  14.163
10230W        W78448  38.998  31.136   3.416
10231W        W78449   6.513   2.030   2.260
10232W        W78450  42.114   7.384   1.223
10233W        W78451   1.411  15.807  14.713
10234W        W78452  19.202  14.685  11.168
10235W        W78453  35.481  25.260   4.094
10236W        W78454  18.211  42.776  13.354
10237W        W78455  13.029  23.342   4.067
10238W        W78456   1.506   0.476   0.974
10239W        W78457  20.763  31.665  13.307
10240W        W78458  42.071  14.397  14.501
10241W        W78459  30.649  12.169  14.336
10242W        W78460   6.325   0.824  14.266
10243W        W78461  36.099  44.145   4.313
10244W        W78462   1.346  26.736   4.967
10245W        W78463   7.572  37.968   0.911
10246W        W78464  43.964   4.762   0.907
10247W        W78465   1.942  40.564   3.152
10248W        W78466  10.236   2.585   0.564
10249W        W78467   4.182  41.595  10.683
10250W        W78468  17.679  13.629  12.238
10251W        W78469   4.841  22.292  14.476
10252W        W78470  34.336  30.787  10.117
10253W        W78471  44.540   1.608  13.066
10254W        W78472  10.790  14.900   2.276
10255W        W78473  42.072  22.992   3.589
10256W        W78474  44.089  18.492   2.381
10257W        W78475  22.197   2.037  14.693
10258W        W78476  11.863  14.338  13.716
10259W        W78477  17.071  39.323   0.261
10260W        W78478   5.659  21.935  11.763
10261W        W78479   9.661  44.255  13.948
10262W        W78480  34.640   2.444   1.848
10263W        W78481   1.759   9.053   1.289
10264W        W78482  39.029  29.362   2.221
10265W        W78483  33.438   4.724   1.249
10266W        W78484   9.064   9.665  10.734
10267W        W78485   4.234  11.613   1.839
10268W        W78486  23.677  38.066  14.312
10269W        W78487  38.721  10.940   2.410
10270W        W78488  42.805  34.039  11.832
10271W        W78489  22.196  44.966   3.647
10272W        W78490  28.913  44.477   3.652
10273W        W78491  10.073   2.152   2.714
10274W        W78492  44.716   2.202   2.460
10275W        W78493  23.521  38.891  14.989
10276W        W78494  32.386  33.103  14.133
10277W        W78495   2.326   5.552   0.224
10278W        W78496   8.180  16.947   2.697
10279W        W78497  29.341  18.738   2.759
10280W        W78498  40.333  26.920  11.815
10281W        W78499  16.699  19.013   0.110
10282W        W78500  28.558  39.967   3.185
10283W        W78501  15.490  44.487   1.280
10284W        W78502  20.246  16.277   5.692
10285W        W78503   6.967  26.451  14.707
10286W        W78504   3.872  19.051  12.447
10287W        W78505  29.831  21.052   1.162
10288W        W78506  40.996  33.675  11.989
10289W        W78507  29.610  25.896   4.056
10290W        W78508  41.993   5.423  12.969
10291W        W78509  24.240  22.513  12.913
10292W        W78510   0.845   3.050   0.037
10293W        W78511  38.625  19.664   3.333
10294W        W78512  13.252  11.785   3.374
10295W        W78513  24.950  34.975  12.488
10296W        W78514   9.820  11.143   2.881
10297W        W78515   0.409   1.866   2.695
10298W        W78516  33.594  32.000  12.143
10299W        W78517  30.610   9.088   0.984
10300W        W78518   0.103  44.330   1.912
10301W        W78519  29.510  33.386   4.509
10302W        W78520  43.392  33.369  10.939
10303W        W78521  26.161  35.030   0.338
10304W        W78522  11.811  40.165  10.429
10305W        W78523   8.981  11.838  12.018
10306W        W78524  24.096  12.055   1.666
10307W        W78525   8.481   6.873  10.821
10308W        W78526  10.971  12.943  12.964
10309W        W78527  28.727  40.018   0.474
10310W        W78528  14.711   0.743   3.638
10311W        W78529   7.363  24.258  10.610
10312W        W78530  29.005   2.577   4.316
10313W        W78531  17.234  30.887   4.027
10314W        W78532   3.058  15.664  13.586
10315W        W78533  43.671   0.883  10.839
10316W        W78534  25.079  17.393   1.712
10317W        W78535  16.651  42.285  12.991
10318W        W78536   7.414  13.362  11.527
10319W        W78537  35.921  13.714  14.350
10320W        W78538  39.903   7.428  12.440
10321W        W78539  44.635  27.525  13.677
10322W        W78540  11.909  16.179   2.674
10323W        W78541   3.629  44.861   1.545
10324W        W78542  13.280   8.896  12.347
10325W        W78543  10.294  22.525  13.572
10326W        W78544   0.481   4.354  11.222
10327W        W78545   9.719  38.562  12.463
10328W        W78546   1.297   3.460  12.546
10329W        W78547  10.273  38.067   0.213
10330W        W78548  44.699  20.717  12.774
10331W        W78549   1.526   1.283  13.875
10332W        W78550  27.762  44.812  12.481
10333W        W78551   1.040  24.382   3.813
10334W        W78552  36.392  11.688  10.379
10335W        W78553  41.735   3.288   3.668
10336W        W78554   0.828  12.305   1.402
10337W        W78555  37.136  25.461   2.373
10338W        W78556  39.957  27.076   2.680
10339W        W78557   6.963   4.869  12.054
10340W        W78558   6.259   2.541   1.336
10341W        W78559  44.718  24.692  11.085
10342W        W78560  34.814   8.160   2.651
10343W        W78561  22.033  41.501   0.643
10344W        W78562  34.091  20.332  13.985
10345W        W78563  11.922  31.019  11.410
10346W        W78564  30.834  37.976   0.718
10347W        W78565  41.975  20.141  10.815
10348W        W78566  36.869  38.956  10.621
10349W        W78567  41.750  30.517   2.384
10350W        W78568  10.918  22.617   1.326
10351W        W78569  22.836  19.653  10.460
10352W        W78570  28.751  26.691   0.110
10353W        W78571   5.836  14.352  12.173
10354W        W78572  17.708   1.315  10.206
10355W        W78573  10.720   5.680  13.850
10356W        W78574  29.902  19.586   0.358
10357W        W78575  36.054   5.460  13.461
10358W        W78576   2.172   0.316  11.421
10359W        W78577  17.483  22.195  11.005
10360W        W78578   1.891  18.016   0.193
10361W        W78579   9.980  39.054   1.419
10362W        W78580   8.767   5.249  12.349
10363W        W78581  39.427  21.166  11.861
10364W        W78582  25.646  39.607  11.466
10365W        W78583  32.687   9.744   4.556
10366W        W78584  12.219  40.526   4.593
10367W        W78585  10.652  34.537   1.437
10368W        W78586  30.252  39.005  14.779
10369W        W78587  40.032  27.555  13.361
10370W        W78588   1.873  19.271   4.113
10371W        W78589   5.964  43.833  11.025
10372W        W78590  17.530  43.245  14.806
10373W        W78591  42.059  44.999   1.810
10374W        W78592   6.676  20.785  12.466
10375W        W78593  25.720  27.917  10.331
10376W        W78594  44.474  26.623  10.895
10377W        W78595  36.978  36.669  11.093
10378W        W78596  42.274  26.975  12.592
10379W        W78597  44.272  18.946  13.836
10380W        W78598  34.453   1.227   0.265
10381W        W78599  42.872   5.304  12.505
10382W        W78600  26.873   7.246  12.786
10383W        W78601  38.981   3.948   5.294
10384W        W78602   9.002  30.915   1.455
10385W        W78603  29.357  33.649   3.250
10386W        W78604   8.866   5.795  14.552
10387W        W78605  29.267  33.378  14.738
10388W        W78606   2.721  38.117  11.290
10389W        W78607  10.693   0.120  12.036
10390W        W78608  14.598  31.568  14.800
10391W        W78609   5.875  41.742  12.461
10392W        W78610   9.671  37.651  12.561
10393W        W78611  22.557  20.832   2.220
10394W        W78612  43.869  12.059   3.580
10395W        W78613   7.686   3.059   5.235
10396W        W78614  28.593  15.023  12.782
10397W        W78615   9.056  11.941   2.250
10398W        W78616   3.722   9.759   4.597
10399W        W78617   2.461  28.077   1.956
10400W        W78618  11.786  34.073   4.892
10401W        W78619  24.981  31.505   3.707
10402W        W78620   7.187  17.612   1.216
10403W        W78621  17.713  27.953   0.864
10404W        W78622  22.206  24.706   1.804
10405W        W78623   4.021  38.800  10.705
10406W        W78624  40.411   4.676  12.546
10407W        W78625  37.254  20.804   4.767
10408W        W78626  22.505  22.142   0.616
10409W        W78627  35.076  19.548   4.255
10410W        W78628  35.516  30.977   2.732
10411W        W78629   4.529  29.935   3.211
10412W        W78630  20.311  38.853  12.948
10413W        W78631  32.576  36.468  10.952
10414W        W78632  23.496  42.266  13.276
10415W        W78633  23.754  25.960   3.207
10416W        W78634  25.940  29.021   0.995
10417W        W78635  30.611  39.296   3.711
10418W        W78636  33.492  40.446   4.546
10419W        W78637  30.066  24.526   3.708
10420W        W78638  26.159  28.525  11.148
10421W        W78639  35.480   8.735   3.379
10422W        W78640  39.296   8.931   2.722
10423W        W78641   4.370   3.403   4.057
10424W        W78642  12.572  39.884   1.744
10425W        W78643  39.947  41.947   2.293
10426W        W78644  16.155  12.910   3.678
10427W        W78645  32.138  41.795  13.238
10428W        W78646  16.455  20.418   0.758
10429W        W78647  36.823  37.414   2.417
10430W        W78648   9.193  32.243  12.929
10431W        W78649  24.182  23.252   3.238
10432W        W78650   6.852  25.441  10.486
10433W        W78651  10.200   7.677   1.896
10434W        W78652   5.137  43.293   3.393
10435W        W78653   7.194   6.794  14.701
10436W        W78654   1.141  35.624  13.556
10437W        W78655   1.278   0.236  11.869
10438W        W78656  27.949  35.132  11.127
10439W        W78657   8.896  41.851   0.321
10440W        W78658  37.281  16.093   0.255
10441W        W78659  33.121  26.397  10.753
10442W        W78660  25.856  34.132  11.269
10443W        W78661  38.320  26.769   1.868
10444W        W78662  17.345  27.578  13.031
10445W        W78663  37.574  28.096  14.483
10446W        W78664  28.944  13.557   1.283
10447W        W78665  38.079   7.161   1.485
10448W        W78666  31.535  31.890   1.321
10449W        W78667  21.475  14.175   4.108
10450W        W78668  27.386  33.010   2.732
10451W        W78669  37.437  21.354  11.770
10452W        W78670  29.564   0.206   0.271
10453W        W78671  32.027  30.570  11.249
10454W        W78672  25.362  20.762   0.820
10455W        W78673   1.920  36.595  12.129
10456W        W78674  22.755   0.588  13.955
10457W        W78675  27.008   4.144   1.770
10458W        W78676  43.023  28.449   3.185
10459W        W78677   7.991  20.150   3.789
10460W        W78678  18.914  16.299   1.896
10461W        W78679   4.368  26.056   3.385
10462W        W78680  29.051   1.357  10.840
10463W        W78681   0.482  21.187   1.828
10464W        W78682  17.905  20.757  13.840
10465W        W78683  18.104  19.574   5.344
10466W        W78684  32.903  26.029   1.423
10467W        W78685   5.418  31.223  13.502
10468W        W78686  14.223  22.282   2.215
10469W        W78687  32.848  23.619   2.687
10470W        W78688  34.009  32.127   4.184
10471W        W78689   7.375  10.634   2.263
10472W        W78690  36.012   0.771   3.241
10473W        W78691  11.462  43.289  13.374
10474W        W78692  15.715  43.598   2.367
10475W        W78693  43.441  36.502  14.365
10476W        W78694  43.918  35.231   0.856
10477W        W78695  21.292  40.678   3.192
10478W        W78696  33.862  39.789  10.711
10479W        W78697  19.193  23.553  13.192
10480W        W78698  24.028  33.238  10.392
10481W        W78699   0.842  17.538  11.942
10482W        W78700  25.545  26.899  13.599
10483W        W78701  30.489  39.323  11.917
10484W        W78702   3.926   2.999  12.883
10485W        W78703   1.737  15.777   0.961
10486W        W78704  23.480  19.858   1.444
10487W        W78705  12.452  26.724   0.847
10488W        W78706  24.081  17.153  13.624
10489W        W78707  14.635  37.489   4.982
10490W        W78708  30.052   2.618   2.442
10491W        W78709  39.885  40.490  13.987
10492W        W78710  42.558  20.997  10.945
10493W        W78711  39.371  11.587  12.591
10494W        W78712   7.898  32.037  14.757
10495W        W78713   7.901   1.961   0.816
10496W        W78714  29.814  20.097   0.299
10497W        W78715  43.149  39.340  14.495
10498W        W78716  14.160  33.492   2.016
10499W        W78717  22.181  35.694   4.042
10500W        W78718  22.219  19.639   2.660
10501W        W78719   1.857   6.279  10.709
10502W        W78720  37.113  25.207   3.785
10503W        W78721   4.706   4.620  11.939
10504W        W78722  17.468  18.601  10.267
10505W        W78723  14.307  26.409   3.725
10506W        W78724  42.340  13.956   1.316
10507W        W78725  27.964   2.598  14.909
10508W        W78726  17.871  27.516  13.913
10509W        W78727  14.636   3.040  12.344
10510W        W78728  36.000  15.567   4.198
10511W        W78729  26.302  40.986  11.542
10512W        W78730  25.028  14.080   1.354
10513W        W78731  41.889  35.632   0.532
10514W        W78732   1.839  44.474  13.048
10515W        W78733  34.882   7.263   0.276
10516W        W78734   1.858  34.263  14.744
10517W        W78735   4.452   0.776  13.916
10518W        W78736   8.158  20.053  11.942
10519W        W78737   4.410  12.850   3.255
10520W        W78738  13.254  29.917   2.204
10521W        W78739  39.771  29.090  12.718
10522W        W78740  40.755  34.058   2.625
10523W        W78741  30.193   3.245   1.376
10524W        W78742  44.938  43.470   4.376
10525W        W78743  30.996   6.059  12.949
10526W        W78744  24.145   9.409   0.175
10527W        W78745  20.764  39.363   0.389
10528W        W78746  26.097   6.128  14.914
10529W        W78747  27.933  22.930  13.096
10530W        W78748   5.235  34.915   1.408
10531W        W78749   7.687  43.980  11.881
10532W        W78750   4.987  43.531   2.348
10533W        W78751  30.798   1.926   2.385
10534W        W78752   3.327  40.692   1.246
10535W        W78753  25.361  41.518   3.321
10536W        W78754  19.466   6.862   3.135
10537W        W78755  30.256  17.979   0.432
10538W        W78756  24.681  35.862  14.391
10539W        W78757  18.457  25.271  13.580
10540W        W78758  39.624  20.017  10.979
10541W        W78759  42.582  43.582  14.617
10542W        W78760  33.894  14.807  12.438
10543W        W78761  39.553  10.158   1.044
10544W        W78762   0.839  39.318  11.207
10545W        W78763  28.914   2.729   0.463
10546W        W78764  41.585  29.091  10.767
10547W        W78765  26.963  33.416   4.486
10548W        W78766  20.575  26.262   1.766
10549W        W78767  21.442  39.419   4.240
10550W        W78768  36.959  11.139  10.480
10551W        W78769  41.972  19.214  12.837
10552W        W78770  22.543  33.494   2.719
10553W        W78771  16.560  43.103  11.259
10554W        W78772  44.549  41.918  14.401
10555W        W78773  11.470  28.784  12.385
10556W        W78774   1.334  16.613  13.866
10557W        W78775  16.730   6.632  13.132
10558W        W78776  38.599  23.605  11.714
10559W        W78777  43.910  37.521   1.192
10560W        W78778   8.770  31.852  11.449
10561W        W78779   7.268  36.241   3.298
10562W        W78780   1.787   4.413   3.821
10563W        W78781  28.442  33.020   4.653
10564W        W78782  21.534   4.964  13.947
10565W        W78783  42.904  43.345  10.518
10566W        W78784  22.583  22.440   3.312
10567W        W78785  37.941   0.019  14.314
10568W        W78786  28.407  20.702   2.741
10569W        W78787  23.754   4.767  11.886
10570W        W78788  33.424  38.856   4.174
10571W        W78789  25.503  30.945  12.657
10572W        W78790   4.216  19.185  13.984
10573W        W78791  15.796  23.594   4.575
10574W        W78792  15.140  19.029   1.451
10575W        W78793   5.859   6.829  14.723
10576W        W78794   3.545  41.384   0.492
10577W        W78795  38.416  31.575  14.851
10578W        W78796  15.266  21.970  13.044
10579W        W78797  30.000  16.696   3.118
10580W        W78798  32.135  37.109   3.096
10581W        W78799  23.387   0.828  11.549
10582W        W78800  33.369  44.940   3.764
10583W        W78801  23.623  23.613  11.093
10584W        W78802   6.816   1.562  13.535
10585W        W78803  40.360  18.533   1.422
10586W        W78804   0.275  10.223   3.912
10587W        W78805  10.166  28.089   3.644
10588W        W78806  27.846   5.471   4.468
10589W        W78807   0.299  35.878  10.696
10590W        W78808   1.571  24.650   1.900
10591W        W78809  31.524   9.949   1.775
10592W        W78810  16.284  26.613  14.030
10593W        W78811  43.704   9.169   3.303
10594W        W78812  36.102  38.103  12.117
10595W        W78813  37.092  35.232  14.315
10596W        W78814  29.294   1.479  13.501
10597W        W78815  33.914  19.964  13.526
10598W        W78816   9.530  23.101   3.745
10599W        W78817  11.788  22.014   4.801
10600W        W78818   9.207  12.861  13.820
10601W        W78819  21.109   0.750   3.268
10602W        W78820   8.630  37.743  13.048
10603W        W78821  24.594  11.150   0.301
10604W        W78822   2.725  13.598  10.751
10605W        W78823   2.350  27.254  14.715
10606W        W78824  33.559  27.628   1.015
10607W        W78825  40.281  41.529  11.817
10608W        W78826   9.810   8.712  13.073
10609W        W78827  16.667   6.181   0.322
10610W        W78828   4.188  42.693  10.652
10611W        W78829   8.480  16.369   3.275
10612W        W78830  38.071  37.556  12.589
10613W        W78831   4.816  18.294  10.841
10614W        W78832  26.685   2.588  11.814
10615W        W78833  27.426  19.653  13.972
10616W        W78834   8.909   0.455   3.745
10617W        W78835  35.086  38.711   4.076
10618W        W78836  20.057  44.007   4.155
10619W        W78837  14.389  35.988  14.451
10620W        W78838  30.107   7.188   1.955
10621W        W78839  33.288  14.180  14.013
10622W        W78840  18.261  15.304  12.075
10623W        W78841  41.187  38.566  14.345
10624W        W78842  29.212  16.135  13.090
10625W        W78843  42.808  16.369   0.322
10626W        W78844   8.356  30.240  10.847
10627W        W78845  28.931  40.919   3.203
10628W        W78846  38.368  30.551  12.190
10629W        W78847   9.347  26.615   4.080
10630W        W78848   0.262  14.812  14.276
10631W        W78849  28.118  16.335   2.739
10632W        W78850  27.922  14.880  11.236
10633W        W78851  30.916  12.614  14.256
10634W        W78852  44.985   5.292  14.825
10635W        W78853  28.464  26.526   1.328
10636W        W78854  32.526  28.124   3.242
10637W        W78855   6.374  12.405   0.471
10638W        W78856   4.074  37.884  12.084
10639W        W78857  14.564   1.193   1.380
10640W        W78858  23.958  10.228   4.562
10641W        W78859  30.119  33.999  13.551
10642W        W78860   6.753  33.630  12.041
10643W        W78861  28.457   2.228  11.777
10644W        W78862  33.970   7.453  10.404
10645W        W78863  35.793  21.606  14.825
10646W        W78864  11.156  34.400   1.401
10647W        W78865  29.474   7.757   3.761
10648W        W78866  36.972  37.511  10.754
10649W        W78867   4.425   4.163  13.832
10650W        W78868   0.891  11.386  11.146
10651W        W78869   3.827  34.102   0.492
10652W        W78870  16.201  38.055  14.974
10653W        W78871   3.333   4.774  11.909
10654W        W78872  22.428  33.441   3.626
10655W        W78873  24.051  32.676  11.210
10656W        W78874  43.426  38.008   4.900
10657W        W78875  23.012  19.607   3.175
10658W        W78876  16.579  21.178   0.533
10659W        W78877  18.570  17.251   3.558
10660W        W78878  37.876  26.935  11.446
10661W        W78879  30.403  43.124   3.305
10662W        W78880  10.558  25.086   4.691
10663W        W78881  40.089  22.698  11.575
10664W        W78882  37.813  42.223   4.197
10665W        W78883  35.012   6.204   4.679
10666W        W78884  42.120   8.828  11.090
10667W        W78885  39.004   0.907   1.981
10668W        W78886  14.401  32.444   3.130
10669W        W78887  31.984  12.619   3.157
10670W        W78888  37.557  38.571   0.531
10671W        W78889  13.809  35.136  11.501
10672W        W78890  16.838  20.607  10.723
10673W        W78891   2.772  11.232  13.600
10674W        W78892  42.281   8.251   4.885
10675W        W78893  40.406  29.521  11.910
10676W        W78894   4.703  34.917  10.288
10677W        W78895  31.099  37.263  11.989
10678W        W78896  28.061  24.077  11.635
10679W        W78897  32.109  15.924  12.348
10680W        W78898  40.315   5.508   0.379
10681W        W78899  24.443  14.357   0.267
10682W        W78900  34.374  29.439  12.461
10683W        W78901  34.368  36.101   2.914
10684W        W78902  34.237  18.229  13.035
10685W        W78903  30.686  31.822  14.768
10686W        W78904  36.841  33.815   0.847
10687W        W78905  23.591  38.821  12.857
10688W        W78906  11.861  34.120   2.387
10689W        W78907  36.613   8.140  11.094
10690W        W78908   7.449  35.445   4.234
10691W        W78909  40.961  16.084   1.748
10692W        W78910  39.447  24.242   0.742
10693W        W78911  14.258  38.627   0.836
10694W        W78912  14.582  12.228   0.974
10695W        W78913  26.083  31.544   4.634
10696W        W78914  11.551  30.920   0.259
10697W        W78915  43.545  25.654   3.930
10698W        W78916   1.533  13.312  12.503
10699W        W78917  11.339   2.319   2.327
10700W        W78918  23.973  11.694  12.000
10701W        W78919  34.087  25.567   5.167
10702W        W78920  16.084  43.544  12.958
10703W        W78921   0.313  30.714   4.256
10704W        W78922  31.412  30.101  12.476
10705W        W78923   5.308  32.727  11.055
10706W        W78924  37.512  25.429   1.472
10707W        W78925  40.538  39.363  10.581
10708W        W78926  39.243  25.443  11.173
10709W        W78927  43.116  19.209   3.272
10710W        W78928   9.645  30.511   3.371
10711W        W78929   1.372   1.808  11.210
10712W        W78930   1.013  36.004  14.352
10713W        W78931  13.125   6.113   0.732
10714W        W78932   5.699   4.424   4.178
10715W        W78933   9.840   3.589  12.003
10716W        W78934  11.658  27.209   4.532
10717W        W78935   5.482  23.935  12.542
10718W        W78936  17.257   4.897   4.915
10719W        W78937  22.633   1.133  12.036
10720W        W78938  17.840  16.179   4.962
10721W        W78939  26.833  30.315  12.936
10722W        W78940  32.097  34.192  13.491
10723W        W78941  40.363   9.672  13.611
10724W        W78942  23.752  32.835  12.101
10725W        W78943   4.690  34.817  13.344
10726W        W78944  38.943  17.826   0.338
10727W        W78945  42.075   1.249  13.936
10728W        W78946  26.514  28.239  12.080
10729W        W78947  12.702   2.249  12.938
10730W        W78948  21.603  21.656   0.421
10731W        W78949  24.926  19.601  11.082
10732W        W78950  22.945  25.547   3.692
10733W        W78951   7.331   4.221   2.775
10734W        W78952  43.124   2.426   3.669
10735W        W78953  35.936  23.493   0.831
10736W        W78954   8.816  17.150  10.686
10737W        W78955  43.249  19.040   4.096
10738W        W78956   5.566  11.742  14.061
10739W        W78957  36.506  33.430  14.259
10740W        W78958  24.476  15.267   4.646
10741W        W78959  41.230  23.703   1.659
10742W        W78960  43.851   8.023  14.599
10743W        W78961  38.801  22.017  10.267
10744W        W78962  43.197  42.783  10.807
10745W        W78963   0.782  23.504  10.636
10746W        W78964   0.805  25.202  13.029
10747W        W78965   5.499  38.556  13.435
10748W        W78966  22.990  24.685  14.225
10749W        W78967  10.761   4.111  12.481
10750W        W78968  16.875  17.249  14.503
10751W        W78969  32.856  33.198  14.360
10752W        W78970  18.257  22.583   1.779
10753W        W78971  32.442   3.980   0.434
10754W        W78972  27.452  31.981   4.346
10755W        W78973  20.617  17.643   0.281
10756W        W78974   4.507  29.153  14.929
10757W        W78975  20.070   5.615  10.310
10758W        W78976  27.617  19.195  13.827
10759W        W78977  20.186   6.743  11.029
10760W        W78978  26.586   4.717  13.292
10761W        W78979   6.732  14.247  11.361
10762W        W78980  18.324  14.811   2.527
10763W        W78981  42.910  29.624  10.696
10764W        W78982  45.000  26.762  13.917
10765W        W78983  21.056  16.752  13.930
10766W        W78984  27.176   4.737  11.545
10767W        W78985  33.982  29.427  11.611
10768W        W78986  11.293  17.081  10.830
10769W        W78987   8.441  22.432  10.776
10770W        W78988   1.457  19.119   2.607
10771W        W78989  34.057  27.047  12.057
10772W        W78990  40.309   3.860   3.384
10773W        W78991  35.389   4.950  10.121
10774W        W78992  30.976  44.700  11.027
10775W        W78993  33.832   6.076   1.739
10776W        W78994  28.958  14.254  14.568
10777W        W78995   4.863  12.485  11.090
10778W        W78996  39.313  36.996  12.499
10779W        W78997   8.927  35.583  13.559
10780W        W78998  39.349   0.726   3.643
10781W        W78999   0.081  32.554  13.606
10782W        W79000   5.765  25.710  12.551
10783W        W79001  32.025  19.852   2.867
10784W        W79002  39.578  19.436  11.751
10785W        W79003  24.273  43.226   0.914
10786W        W79004  13.000  10.810   3.794
10787W        W79005  23.834  11.073  10.596
10788W        W79006  10.831   7.796  11.040
10789W        W79007  16.289  36.058  12.929
10790W        W79008  44.626  31.117   2.342
10791W        W79009   3.238  44.400  13.038
10792W        W79010  24.439  44.753  12.513
10793W        W79011  37.741   6.338   2.378
10794W        W79012  34.458  15.617   1.605
10795W        W79013  18.787  33.742  13.893
10796W        W79014  38.054  17.178   1.646
10797W        W79015  17.630   5.372  14.838
10798W        W79016  20.232  10.167  11.694
10799W        W79017  30.504  31.153   2.090
10800W        W79018  41.589  39.305  12.023
10801W        W79019  16.307  39.804   0.394
10802W        W79020  18.140  23.533   2.368
10803W        W79021  34.920  40.541  14.411
10804W        W79022  36.480  15.233   1.627
10805W        W79023  32.986   5.204   0.753
10806W        W79024  43.889  29.505   0.342
10807W        W79025   9.458   5.886  14.019
10808W        W79026  16.281  20.055  12.635
10809W        W79027  44.047  35.691  14.508
10810W        W79028  31.957  30.032  10.522
10811W        W79029  38.976  34.799   3.908
10812W        W79030   9.171  43.501   1.763
10813W        W79031  11.817   5.346   0.401
10814W        W79032  16.061  40.253   4.627
10815W        W79033   4.143  28.970  14.321
10816W        W79034  11.056  23.649  14.062
10817W        W79035  38.944  10.694   3.661
10818W        W79036  32.003  31.081   3.588
10819W        W79037  21.033  33.084   1.852
10820W        W79038  10.798  11.183   4.852
10821W        W79039  39.085  12.512   3.995
10822W        W79040  42.645   1.626   0.001
10823W        W79041  33.616   6.211   4.716
10824W        W79042  13.953  28.091   5.012
10825W        W79043  37.572  31.795   1.713
10826W        W79044  30.327  28.391   0.475
10827W        W79045  32.213  26.888   2.228
10828W        W79046  28.229  33.008   3.720
10829W        W79047  23.815  35.914  10.260
10830W        W79048  32.867   5.772   4.509
10831W        W79049  21.726  13.445   0.495
10832W        W79050  43.818  13.364  14.233
10833W        W79051  18.228  19.276  11.840
10834W        W79052   8.401  31.669   2.969
10835W        W79053  15.737  25.042   0.030
10836W        W79054  37.091   3.373   3.251
10837W        W79055  18.535  41.680   3.789
10838W        W79056   6.141   6.875  11.542
10839W        W79057  16.042  41.079  13.095
10840W        W79058  16.720  16.223  10.666
10841W        W79059  10.390  39.831  12.564
10842W        W79060   4.614  40.257   3.276
10843W        W79061  16.232  23.600   1.300
10844W        W79062   7.380  13.472  10.587
10845W        W79063   8.123  21.505  13.946
10846W        W79064  30.208  34.263  10.860
10847W        W79065  34.924   2.915   1.724
10848W        W79066  32.873  41.862   2.258
10849W        W79067  41.859  27.579   0.782
10850W        W79068  10.070  43.398   1.860
10851W        W79069  18.024  21.781  11.909
10852W        W79070  27.135  37.419  14.506
10853W        W79071  32.698  37.001   4.256
10854W        W79072  17.112  12.767   2.660
10855W        W79073   2.430  33.049   4.470
10856W        W79074  28.103  41.413   4.553
10857W        W79075  29.738  22.252   2.973
10858W        W79076  17.667  32.097  14.320
10859W        W79077   3.343  10.617  11.217
10860W        W79078  19.903   2.236  11.978
10861W        W79079  30.123  43.027  12.792
10862W        W79080  17.254  29.079  10.853
10863W        W79081  41.152  35.493  12.322
10864W        W79082  33.512   3.656  12.556
10865W        W79083  34.224   9.424  10.889
10866W        W79084  31.839   1.639   0.990
10867W        W79085  28.327   4.891  11.963
10868W        W79086   6.245   7.373  11.607
10869W        W79087  30.884  34.968  13.916
10870W        W79088  28.347   5.688  13.027
10871W        W79089  23.502  23.146  14.753
10872W        W79090  22.544  23.882   3.116
10873W        W79091  35.819  39.585   3.687
10874W        W79092   0.673  10.378   3.605
10875W        W79093   2.979  19.325   3.202
10876W        W79094  33.227  38.648  14.992
10877W        W79095  15.348  21.119   2.245
10878W        W79096  43.021   8.725   4.326
10879W        W79097  30.264   4.919   2.083
10880W        W79098  38.906  37.414  14.353
10881W        W79099  17.318  35.191   4.798
10882W        W79100  38.872   2.235   1.714
10883W        W79101  42.317  33.394   3.737
10884W        W79102  21.309  14.931   5.070
10885W        W79103  41.254  38.463  14.887
10886W        W79104  18.241  32.554  12.899
10887W        W79105  12.757  35.148  10.605
10888W        W79106   2.308  16.611   0.920
10889W        W79107  35.856  31.150  11.493
10890W        W79108  34.427  39.154   4.201
10891W        W79109  18.960  25.296   4.255
10892W        W79110   5.780  17.277  11.986
10893W        W79111  37.943  15.629   3.244
10894W        W79112  14.685  30.273  13.500
10895W        W79113  31.638  35.918  14.139
10896W        W79114  30.918  29.034   3.019
10897W        W79115  42.705  32.547  13.543
10898W        W79116  21.265  38.499  13.216
10899W        W79117  21.035  12.174  12.675
10900W        W79118  10.857  34.993  11.215
10901W        W79119   1.930  28.976  12.046
10902W        W79120  22.638  43.468  14.773
10903W        W79121   0.899  24.123   0.580
10904W        W79122  24.220  44.261   4.795
10905W        W79123   3.308  26.019  11.585
10906W        W79124   8.406  30.806  14.862
10907W        W79125  19.238  23.314   2.742
10908W        W79126  28.378  11.874   0.893
10909W        W79127  42.399  10.874   1.439
10910W        W79128   2.741  30.980   2.795
10911W        W79129  17.752  42.433  11.630
10912W        W79130  28.596   9.523  10.640
10913W        W79131   1.246  24.474   2.932
10914W        W79132  38.350  33.519   2.367
10915W        W79133  44.701  16.107  11.146
10916W        W79134  15.693  33.597  13.595
10917W        W79135  43.771  28.769  11.384
10918W        W79136  13.293  23.685   1.227
10919W        W79137  11.049  10.756   3.726
10920W        W79138  25.762  26.618  12.387
10921W        W79139  34.096  26.504   1.885
10922W        W79140  31.131  38.148  13.344
10923W        W79141  21.741  12.083   2.459
10924W        W79142  39.901  21.442  14.807
10925W        W79143  27.532   0.981  11.192
10926W        W79144   2.262  40.332  11.156
10927W        W79145  20.059   1.379   1.846
10928W        W79146  31.379  29.203  12.435
10929W        W79147  43.302  13.748   4.296
10930W        W79148   0.542  22.564  14.889
10931W        W79149  21.118  10.399  13.972
10932W        W79150  39.416  11.215  14.794
10933W        W79151   3.230  42.500  12.080
10934W        W79152  13.530   1.187   1.248
10935W        W79153  23.600   5.632  12.135
10936W        W79154   3.961  21.523  13.413
10937W        W79155   3.352  13.561  12.001
10938W        W79156  31.695  15.825  10.576
10939W        W79157  25.933  42.768  13.007
10940W        W79158  16.807  35.348  12.116
10941W        W79159   8.194  44.762   1.525
10942W        W79160  27.266   9.375  12.847
10943W        W79161   0.282  26.376   4.261
10944W        W79162  21.721  10.392   4.194
10945W        W79163  15.172  25.166  12.848
10946W        W79164  38.149   8.613   5.023
10947W        W79165  35.362  30.726   1.764
10948W        W79166  36.415  42.023  12.162
10949W        W79167  36.356  44.974   3.573
10950W        W79168   2.097  14.965   3.805
10951W        W79169   0.322   3.382  11.114
10952W        W79170  23.038  39.878  11.035
10953W        W79171  18.746  28.411   4.197
10954W        W79172  31.680  11.564   3.658
10955W        W79173  21.053  31.537   3.749
10956W        W79174   0.705  25.539  12.184
10957W        W79175  42.102  28.748  10.167
10958W        W79176  41.509  19.864   2.248
10959W        W79177  18.232   8.684   1.372
10960W        W79178   7.678  26.130  14.536
10961W        W79179  23.220  24.017   4.131
10962W        W79180   8.308  13.115   3.658
10963W        W79181  40.809  37.495  13.935
10964W        W79182   1.182  44.836  13.808
10965W        W79183  13.853  22.066  12.243
10966W        W79184  18.304  38.953   3.724
10967W        W79185   3.356  42.726   2.631
10968W        W79186   2.400  30.922   3.628
10969W        W79187   2.066  42.860   1.441
10970W        W79188  43.811  13.370   0.717
10971W        W79189  30.626  13.044  14.431
10972W        W79190  10.104  21.214   1.200
10973W        W79191  21.657   3.153   0.344
10974W        W79192   6.943  44.436  10.044
10975W        W79193  34.888  25.464   0.042
10976W        W79194  22.070  23.678  14.006
10977W        W79195  25.115  12.210   3.866
10978W        W79196   2.421  18.500  12.403
10979W        W79197  10.225  19.796   1.833
10980W        W79198  13.295   2.467   2.278
10981W        W79199   3.001  18.323  10.695
10982W        W79200  13.977  30.078   0.758
10983W        W79201  28.706   3.556   1.427
10984W        W79202   9.426  33.939   2.768
10985W        W79203  33.937  28.464  14.367
10986W        W79204  43.238  17.224   1.364
10987W        W79205  19.639  31.169   3.793
10988W        W79206  21.409  11.161   3.082
10989W        W79207  21.487   0.889  14.416
10990W        W79208   6.243  34.597   3.831
10991W        W79209  32.668  39.920  12.914
10992W        W79210  32.702  12.230   0.755
10993W        W79211  17.503   4.478  12.122
10994W        W79212  17.463  35.610   4.517
10995W        W79213   1.209  25.236  11.540
10996W        W79214  28.186  34.087   0.009
10997W        W79215  39.372   2.308   1.844
10998W        W79216  18.194  34.049  11.184
10999W        W79217   2.794  32.833  12.708
11000W        W79218  38.404   7.213   0.798
11001W        W79219  21.009   6.152  14.752
11002W        W79220   9.687   0.478   1.200
11003W        W79221   6.889  17.665   2.693
11004W        W79222  43.923  24.495   4.187
11005W        W79223  38.924  39.523   1.761
11006W        W79224  36.330  25.425   1.968
11007W        W79225  33.093   9.627   4.257
11008W        W79226   7.630  34.239  13.319
11009W        W79227  17.695  30.052   2.614
11010W        W79228  20.943  34.872   3.723
11011W        W79229   0.931   9.938   4.410
11012W        W79230  25.117   1.697   3.922
11013W        W79231  41.886  39.022   4.250
11014W        W79232   7.943  23.677   0.946
11015W        W79233  12.364   1.223  11.152
11016W        W79234  22.971  25.060  11.619
11017W        W79235  34.097  38.762  13.899
11018W        W79236   9.867  44.373  10.198
11019W        W79237  20.587   8.334   4.955
11020W        W79238  38.995   6.831  13.260
11021W        W79239   5.188  40.456   0.431
11022W        W79240  41.204   4.853   4.094
11023W        W79241   0.752   0.138   1.813
11024W        W79242  28.431  22.423  11.009
11025W        W79243  41.199  40.378  11.052
11026W        W79244  28.878  15.671   2.813
11027W        W79245  30.902  18.091  12.923
11028W        W79246   0.517  35.736  11.998
11029W        W79247  11.732  16.312  11.518
11030W        W79248  32.567   5.373   1.781
11031W        W79249   7.916  12.609  11.966
11032W        W79250   5.888   1.254  10.794
11033W        W79251  39.352  36.620  11.016
11034W        W79252  42.071  38.785  11.026
11035W        W79253   6.841  22.233   0.874
11036W        W79254   7.431   1.254  11.615
11037W        W79255  12.174  20.128  10.676
11038W        W79256  39.758  23.160   3.290
11039W        W79257   4.810  27.121  11.227
11040W        W79258   6.873  42.761  14.895
11041W        W79259  40.478  16.081   4.879
11042W        W79260   9.903  17.507   1.243
11043W        W79261  25.657  13.817   3.739
11044W        W79262  44.727   7.291   5.003
11045W        W79263  10.153   1.197   4.970
11046W        W79264  14.198  38.933   5.009
11047W        W79265  24.652  20.536   4.902
11048W        W79266  38.327  30.577   3.377
11049W        W79267  30.888  22.375  11.107
11050W        W79268  44.639  29.508   0.862
11051W        W79269  29.156  29.651  13.515
11052W        W79270  29.103   9.388   4.842
11053W        W79271  35.103  13.766   3.348
11054W        W79272  13.035  26.672   1.356
11055W        W79273   5.671  12.253  10.482
11056W        W79274  44.761  20.536   0.263
11057W        W79275  11.967  13.107   3.612
11058W        W79276  19.527   8.201   3.561
11059W        W79277   3.142  11.429   9.828
11060W        W79278  44.471  25.495   2.704
11061W        W79279   6.065  13.159   2.886
11062W        W79280  43.487  40.964   4.013
11063W        W79281  12.223  16.294   4.078
11064W        W79282  39.304   3.723   1.884
11065W        W79283  14.177  36.832  11.547
11066W        W79284  31.558  25.537   4.653
11067W        W79285  11.704  21.124  14.937
11068W        W79286  43.886  12.796   4.850
11069W        W79287  25.472  19.428   3.386
11070W        W79288  26.205  42.407  14.016
11071W        W79289  36.807  32.071  11.186
11072W        W79290   1.527  39.331   2.563
11073W        W79291  14.239  26.919   3.696
11074W        W79292  18.029   0.942   1.410
11075W        W79293  29.561  20.308   4.620
11076W        W79294  19.678  25.452  13.376
11077W        W79295  23.688   6.286  10.999
11078W        W79296  36.634  41.000   2.902
11079W        W79297   6.339  30.377   1.253
11080W        W79298  35.003   5.219   5.065
11081W        W79299   1.276  27.365  12.045
11082W        W79300   3.580  35.894   2.200
11083W        W79301   5.417  32.547   3.906
11084W        W79302  27.271  37.090   3.828
11085W        W79303   0.084  37.486  14.503
11086W        W79304  32.954   3.057   3.687
11087W        W79305  23.706  43.631   1.667
11088W        W79306  28.514  21.553   0.772
11089W        W79307  16.781   5.534   3.104
11090W        W79308  44.652  33.446   2.644
11091W        W79309   0.355  34.634   1.848
11092W        W79310  44.685  25.402  12.316
11093W        W79311  41.367  28.895  14.777
11094W        W79312  13.467  12.841   2.016
11095W        W79313   3.204  30.033   3.612
11096W        W79314  18.581  15.551  12.421
11097W        W79315  27.949  20.249   2.216
11098W        W79316   8.308  38.302   1.830
11099W        W79317  42.874  37.438   4.405
11100W        W79318  19.530  25.565   0.400
11101W        W79319  11.822   3.215  14.457
11102W        W79320  26.482  37.951  13.312
11103W        W79321   7.423   8.844  13.361
11104W        W79322   4.828  21.953  14.911
11105W        W79323  27.076  28.617   1.253
11106W        W79324   4.375  35.951  11.658
11107W        W79325  12.720  16.273   0.893
11108W        W79326  25.504  40.397  11.767
11109W        W79327  42.761   0.833   4.017
11110W        W79328  25.963  38.003  13.172
11111W        W79329  10.199  38.607  14.302
11112W        W79330  15.075  26.788  12.171
11113W        W79331   9.180  44.782  13.460
11114W        W79332  35.189  37.337   0.253
11115W        W79333  12.756  32.489   3.809
11116W        W79334  39.956   2.060  12.953
11117W        W79335  41.462  10.139  11.313
11118W        W79336  26.413  31.928  14.866
11119W        W79337  26.904   4.878   3.719
11120W        W79338   6.940   0.427   3.729
11121W        W79339  29.574  36.055   3.335
11122W        W79340  42.091  29.410   4.603
11123W        W79341  23.050   1.225  11.674
11124W        W79342  20.312  16.470  10.320
11125W        W79343  38.017  35.605   3.359
11126W        W79344   3.593  27.487  10.287
11127W        W79345  40.851  11.109   1.424
11128W        W79346  21.206  30.178  11.084
11129W        W79347  36.819   0.703  14.489
11130W        W79348  36.367  28.643  11.304
11131W        W79349  15.034  20.121  12.539
11132W        W79350  41.523  37.830   3.145
11133W        W79351   2.642  14.905   0.365
11134W        W79352  24.547  15.538   3.009
11135W        W79353  11.329  35.745   4.100
11136W        W79354  42.115   1.457  14.875
11137W        W79355  24.562  39.051  12.478
11138W        W79356  12.153  10.640   4.346
11139W        W79357  43.494  21.190  11.027
11140W        W79358  35.607   6.443  13.559
11141W        W79359  35.902   5.117   4.630
11142W        W79360  14.279  29.816   1.443
11143W        W79361  25.459  36.545  12.571
11144W        W79362  18.147  17.732  10.371
11145W        W79363  28.482  33.845   3.671
11146W        W79364  16.629   7.312   2.192
11147W        W79365   1.183  22.940   3.753
11148W        W79366  26.277  25.508   9.785
11149W        W79367  23.553  28.841  12.248
11150W        W79368  29.918  23.047  11.603
11151W        W79369  21.535   3.137  10.276
11152W        W79370   7.222   4.886  14.349
11153W        W79371  11.763  12.660  12.495
11154W        W79372  10.582  18.108  10.282
11155W        W79373  36.067   9.861  14.509
11156W        W79374  28.658  18.524   1.791
11157W        W79375  39.386  40.149   3.835
11158W        W79376  41.417   8.770  10.634
11159W        W79377  34.601   4.990  13.477
11160W        W79378  25.988   7.887  14.095
11161W        W79379  40.528  25.612  11.100
11162W        W79380  38.120  23.514   0.463
11163W        W79381  40.305   9.197  12.582
11164W        W79382   6.814  15.684  12.099
11165W        W79383  44.315  35.818  10.403
11166W        W79384  26.062  20.502   3.245
11167W        W79385  10.650  24.479  12.392
11168W        W79386  26.146  34.654  12.747
11169W        W79387  40.951  38.805  12.494
11170W        W79388  10.335   3.810   4.952
11171W        W79389   4.836   4.244  14.974
11172W        W79390  32.193   0.560  13.075
11173W        W79391  34.920  26.231   0.445
11174W        W79392  30.897  43.044   9.916
11175W        W79393  28.076   9.805   2.818
11176W        W79394  13.631  38.557  12.061
11177W        W79395  28.063   8.148  13.426
11178W        W79396  31.467   0.224   3.334
11179W        W79397  31.404  31.655   1.803
11180W        W79398  30.153  15.603   0.064
11181W        W79399  28.526  30.897   3.736
11182W        W79400  22.870  41.549   4.281
11183W        W79401  21.234  38.476   3.081
11184W        W79402  40.863  39.004  10.803
11185W        W79403  23.829  35.504  11.205
11186W        W79404   5.389  10.075  11.901
11187W        W79405  34.457   5.490   5.167
11188W        W79406   5.305  42.375  11.464
11189W        W79407  11.570  12.599  10.349
11190W        W79408  31.351  32.462  14.483
11191W        W79409  43.798  28.759  11.948
11192W        W79410  35.989  29.385   3.663
11193W        W79411   9.648  13.829   4.878
11194W        W79412   1.014  15.510  14.023
11195W        W79413  41.485   2.947   4.805
11196W        W79414  33.275   6.971   3.864
11197W        W79415  15.815  19.113   4.293
11198W        W79416  42.071  28.476   2.221
11199W        W79417  33.370   6.594  11.536
11200W        W79418   0.464  34.537  12.043
11201W        W79419   0.962  18.977   0.211
11202W        W79420  21.570  18.865   3.697
11203W        W79421  24.482  31.636  10.875
11204W        W79422  12.615  22.533  11.115
11205W        W79423  43.657  10.440  12.225
11206W        W79424   8.659  11.617   2.315
11207W        W79425  13.683  16.519  11.918
11208W        W79426  44.452   2.935   4.714
11209W        W79427   8.288  34.717   1.518
11210W        W79428   6.340  39.062   4.149
11211W        W79429  29.197  26.692  14.852
11212W        W79430  16.099   9.145  10.755
11213W        W79431  44.920  32.086  14.499
11214W        W79432   1.092  24.479   1.857
11215W        W79433   7.243  43.863   0.434
11216W        W79434  39.586  44.595  11.564
11217W        W79435  22.107   0.529   1.803
11218W        W79436  12.812  37.032   0.809
11219W        W79437  19.225  17.071   0.915
11220W        W79438  36.061  18.164  10.656
11221W        W79439  35.572   1.285  13.128
11222W        W79440   2.948  40.025  11.372
11223W        W79441   1.877   3.496   0.113
11224W        W79442   3.281  23.723  11.956
11225W        W79443   8.234  21.486  12.025
11226W        W79444   9.633  31.461  11.496
11227W        W79445  38.831  12.134  13.658
11228W        W79446  20.533  24.643   0.816
11229W        W79447  36.925   1.171  14.315
11230W        W79448  40.507  15.798  11.931
11231W        W79449   3.329   2.376  14.913
11232W        W79450   8.856  22.520  13.970
11233W        W79451  44.387  33.322   0.301
11234W        W79452  15.363  37.389  14.964
11235W        W79453  11.117   6.681   3.100
11236W        W79454  21.022  30.538  12.899
11237W        W79455   6.880  15.284  10.367
11238W        W79456   2.159  41.232  11.205
11239W        W79457  20.581  14.145  14.713
11240W        W79458  41.707   5.190  12.555
11241W        W79459  40.730   1.903   1.665
11242W        W79460  30.480  16.073  11.918
11243W        W79461  34.462  27.627  13.274
11244W        W79462  27.490  20.958   0.510
11245W        W79463  38.062  12.240  11.656
11246W        W79464   0.386  31.853   2.011
11247W        W79465  17.133  43.274   3.185
11248W        W79466   0.935  19.488   2.444
11249W        W79467  28.744  16.195   3.262
11250W        W79468   4.840  17.628   0.264
11251W        W79469   1.039   9.853  11.348
11252W        W79470   0.258  35.948  14.799
11253W        W79471  40.861  42.700  10.933
11254W        W79472  32.619  30.334  12.565
11255W        W79473   1.055   7.075  12.225
11256W        W79474  33.739   1.442  12.087
11257W        W79475   8.245  23.047  12.218
11258W        W79476  11.613  16.240  10.988
11259W        W79477  26.663  30.039   4.064
11260W        W79478   8.924  44.575   2.405
11261W        W79479  19.804  44.522   0.003
11262W        W79480  24.686   2.547   3.200
11263W        W79481  28.956  14.861   2.322
11264W        W79482  23.019  14.674  13.716
11265W        W79483  20.682  13.054  13.402
11266W        W79484  39.401   4.039   2.281
11267W        W79485  19.603  35.314  12.915
11268W        W79486  36.795  26.557   3.865
11269W        W79487  24.415  39.047   3.240
11270W        W79488   4.355   3.401  12.506
11271W        W79489  26.561  20.243   0.411
11272W        W79490  37.646  35.943   3.198
11273W        W79491   8.260  41.898  11.273
11274W        W79492  21.723  25.721  11.039
11275W        W79493  30.035  21.686  10.544
11276W        W79494  36.204  37.590  12.099
11277W        W79495  35.853  26.133  11.564
11278W        W79496  14.569   8.574  12.854
11279W        W79497   5.775  10.048  10.652
11280W        W79498   0.441  15.169   1.152
11281W        W79499  17.179  42.359  14.962
11282W        W79500  32.093  43.555  13.156
11283W        W79501  23.104  29.070  11.197
11284W        W79502  42.839  40.793  14.493
11285W        W79503  41.798  38.930  13.078
11286W        W79504   4.296  24.711  12.194
11287W        W79505  33.764  32.165   1.751
11288W        W79506  19.796  29.048  11.080
11289W        W79507  34.401  26.082   1.919
11290W        W79508  29.558  24.541   0.488
11291W        W79509   4.799  21.260   4.546
11292W        W79510   6.893  32.968  11.229
11293W        W79511  33.306  14.703   2.685
11294W        W79512  31.030  20.160  13.006
11295W        W79513  34.248   2.510   2.708
11296W        W79514   6.624   6.254   3.729
11297W        W79515  20.495  17.278  12.808
11298W        W79516   2.937  34.367   0.274
11299W        W79517  33.874   5.436  10.990
11300W        W79518   7.019   9.832  11.852
11301W        W79519  14.150  14.735  11.268
11302W        W79520  15.292  11.712   1.726
11303W        W79521  30.229  14.727   1.231
11304W        W79522  31.322  25.974   3.287
11305W        W79523   7.598  28.975  12.352
11306W        W79524  24.530  25.992   0.732
11307W        W79525  20.088   2.773   3.863
11308W        W79526  25.076   5.679   2.162
11309W        W79527   6.484   8.178   4.191
11310W        W79528  19.293  22.706   4.160
11311W        W79529  10.388  30.093  10.590
11312W        W79530  22.592  11.339   0.066
11313W        W79531  12.100  25.040  14.910
11314W        W79532   7.221  27.723  12.859
11315W        W79533  40.464   9.531  10.832
11316W        W79534  27.160  19.781   4.683
11317W        W79535  44.201  26.207   5.087
11318W        W79536   9.306  21.417  12.810
11319W        W79537   3.278  17.801   1.341
11320W        W79538  37.579  36.028  11.331
11321W        W79539  24.509   7.641  10.722
11322W        W79540  13.905  44.656  11.403
11323W        W79541  39.853  12.926  13.387
11324W        W79542  43.351  28.072  12.393
11325W        W79543  42.086  22.864   5.159
11326W        W79544  17.164  17.060  13.462
11327W        W79545  10.355  43.562  10.828
11328W        W79546   9.230  30.834  13.920
11329W        W79547  28.551  31.437   4.536
11330W        W79548  14.239  18.812  13.990
11331W        W79549  38.060  37.426   3.283
11332W        W79550  13.743  23.021  14.335
11333W        W79551  33.918  17.979   3.221
11334W        W79552   1.553  41.386  11.831
11335W        W79553  33.324  37.524   1.366
11336W        W79554  38.087  18.768   3.320
11337W        W79555  20.632  23.676   4.432
11338W        W79556  10.229  28.211   9.986
11339W        W79557  11.677  43.980  11.432
11340W        W79558   8.363  40.270   3.826
11341W        W79559  13.602  17.766   2.442
11342W        W79560  43.898   6.261  14.560
11343W        W79561  39.041  25.753  13.071
11344W        W79562  16.747   8.020  11.589
11345W        W79563  44.299   6.013  14.363
11346W        W79564  18.759  39.067   4.547
11347W        W79565  31.695  30.668  11.622
11348W        W79566  11.367  34.627  12.220
11349W        W79567  25.502  38.329  11.865
11350W        W79568  35.617  19.557   2.034
11351W        W79569  29.244  25.486  10.913
11352W        W79570   1.245  22.417  12.022
11353W        W79571   6.860  33.949   4.820
11354W        W79572  41.051  34.408   4.356
11355W        W79573  33.986  37.970  13.545
11356W        W79574   2.043  25.791  12.865
11357W        W79575  19.788  38.121  12.339
11358W        W79576   9.850   0.883  13.139
11359W        W79577   5.866  34.008  13.825
11360W        W79578  16.933  10.022  11.460
11361W        W79579   2.878   3.251  12.444
11362W        W79580  32.866   3.055  10.460
11363W        W79581  10.711  19.979  12.001
11364W        W79582  31.472  10.965  11.203
11365W        W79583  13.929  43.334  14.791
11366W        W79584  43.398  18.811   1.281
11367W        W79585  26.137  33.492  10.716
11368W        W79586  39.582  12.945   0.994
11369W        W79587  43.954   3.064   3.711
11370W        W79588  38.998  41.777  10.662
11371W        W79589  19.099  44.187  11.196
11372W        W79590  22.568  12.828  12.026
11373W        W79591  41.478   3.894  10.244
11374W        W79592  11.079  40.800  11.091
11375W        W79593  24.635  24.566   1.498
11376W        W79594  44.187  20.139  11.113
11377W        W79595   6.837  44.502   3.199
11378W        W79596  19.562  13.148  11.253
11379W        W79597  31.016   3.195   3.182
11380W        W79598  17.149  36.329  13.444
11381W        W79599   6.072   4.722   3.844
11382W        W79600  14.536  29.248  11.226
11383W        W79601  21.070  40.307   2.472
11384W        W79602  44.399  29.644  10.761
11385W        W79603  17.085  17.150   2.354
11386W        W79604  37.888  31.529  14.942
11387W        W79605  36.943  33.136  10.418
11388W        W79606   4.913   8.334   2.824
11389W        W79607  44.077   1.904  13.034
11390W        W79608  10.761   9.848  10.908
11391W        W79609  14.708  39.096  13.138
11392W        W79610   3.934  38.378  11.955
11393W        W79611  24.644  14.424   4.971
11394W        W79612  24.210  16.596   1.172
11395W        W79613  38.315  13.877   2.194
11396W        W79614  31.092  24.523  11.811
11397W        W79615  43.731  21.737   0.875
11398W        W79616   7.640  18.742   3.635
11399W        W79617   5.805  36.791   2.294
11400W        W79618  26.630  15.829   0.800
11401W        W79619  27.539  21.482  12.814
11402W        W79620  24.551  26.156   1.438
11403W        W79621   8.839   1.345  10.961
11404W        W79622  29.729   0.405   4.824
11405W        W79623  16.625  16.634  11.557
11406W        W79624   3.747  24.234  10.648
11407W        W79625   0.350   4.439   2.568
11408W        W79626  38.765  19.049  12.523
11409W        W79627  29.878  24.893  12.109
11410W        W79628  34.035   2.559   1.174
11411W        W79629  14.580  30.348   4.527
11412W        W79630  11.745  12.002   4.540
11413W        W79631  14.090  38.362   2.111
11414W        W79632  32.476  13.111   2.779
11415W        W79633   3.796  42.861   4.661
11416W        W79634  44.195  20.625  14.473
11417W        W79635  23.338   8.708  12.677
11418W        W79636   9.961  28.153  10.496
11419W        W79637  18.518  13.770  13.813
11420W        W79638  44.346   8.429  14.819
11421W        W79639  42.346  26.844  14.310
11422W        W79640  14.137   4.087  13.758
11423W        W79641  38.072  31.690   3.771
11424W        W79642  27.987  40.966   4.767
11425W        W79643  25.131  22.241  12.424
11426W        W79644  20.696   7.621   3.784
11427W        W79645  21.790  31.011  12.526
11428W        W79646  10.675  20.069   1.852
11429W        W79647   5.626  38.508  11.630
11430W        W79648  39.363  43.425   2.957
11431W        W79649   2.301  39.302   3.653
11432W        W79650  24.133  23.514   2.807
11433W        W79651  36.492  14.454   2.262
11434W        W79652   5.318  16.768  13.035
11435W        W79653  30.522  42.056  10.734
11436W        W79654   6.495  38.518   4.142
11437W        W79655   4.312  22.598  10.346
11438W        W79656  23.728  43.227   2.274
11439W        W79657  34.417  22.070   1.467
11440W        W79658  25.876  23.737  13.035
11441W        W79659  17.305  16.116   0.662
11442W        W79660  13.692  31.871  11.469
11443W        W79661   7.703   5.826   3.213
11444W        W79662  35.571  11.245   0.731
11445W        W79663   6.782  15.168  11.379
11446W        W79664  38.849  16.780   0.276
11447W        W79665  29.769  32.008  13.926
11448W        W79666  10.335  26.077   3.667
11449W        W79667  12.572  15.179   3.791
11450W        W79668   6.829  25.945  13.282
11451W        W79669   9.228  10.939   0.923
11452W        W79670  42.854  20.946   2.754
11453W        W79671  38.064   9.697   3.747
11454W        W79672   1.225  29.694  12.921
11455W        W79673  39.101  43.302  12.270
11456W        W79674  21.125   4.148   3.398
11457W        W79675  21.072  37.925   3.685
11458W        W79676  11.256   8.708   2.229
11459W        W79677  40.025  11.616  10.379
11460W        W79678  34.973  18.313   0.598
11461W        W79679   7.125   4.245   0.761
11462W        W79680  44.447   4.737  13.986
11463W        W79681  37.742  44.760  14.834
11464W        W79682  14.587  21.632  12.088
11465W        W79683  27.103  28.956  11.543
11466W        W79684  43.323  33.407   0.420
11467W        W79685   4.289  16.314   2.480
11468W        W79686   1.902   0.888   0.399
11469W        W79687   7.898   4.863   3.563
11470W        W79688   6.861   9.274   4.723
11471W        W79689  10.104  24.815   0.379
11472W        W79690  32.170  36.019  12.008
11473W        W79691  24.590  10.271   2.607
11474W        W79692  14.113  16.812  12.076
11475W        W79693  13.568  33.071   3.685
11476W        W79694  33.285   8.336   1.864
11477W        W79695  44.780  21.668  11.715
11478W        W79696   2.682  22.408   9.809
11479W        W79697   9.700  44.285   0.763
11480W        W79698  40.819   9.927   0.360
11481W        W79699  13.950   0.108  12.130
11482W        W79700   6.320   9.049   0.739
11483W        W79701  13.721   2.139  12.200
11484W        W79702  37.376  32.574   1.343
11485W        W79703   3.701  20.515   2.517
11486W        W79704  23.474  32.155   9.984
11487W        W79705   7.627  25.091   0.163
11488W        W79706   9.845  26.683   2.237
11489W        W79707  14.590  25.040   1.031
11490W        W79708   8.269  15.180  13.336
11491W        W79709   8.829  33.867  12.344
11492W        W79710  12.097  32.216  14.823
11493W        W79711  20.064  42.520  14.855
11494W        W79712  11.006  30.947  12.482
11495W        W79713  19.541  10.542   2.277
11496W        W79714  23.031  27.960   4.183
11497W        W79715  27.236  25.446  13.074
11498W        W79716  17.610   7.397   1.250
11499W        W79717  20.295  14.714   3.104
11500W        W79718   5.252  42.917  12.955
11501W        W79719   3.254  28.655   2.244
11502W        W79720  36.414  39.482  11.977
11503W        W79721  43.994  14.373   1.805
11504W        W79722  16.316   7.628   3.329
11505W        W79723  18.852  36.529   1.755
11506W        W79724   2.932  43.925  12.486
11507W        W79725  17.377  10.669  11.620
11508W        W79726  33.834  32.675  14.394
11509W        W79727  23.467  27.374  14.547
11510W        W79728  23.976  41.389   3.409
11511W        W79729  32.344  38.908  10.218
11512W        W79730  30.086  35.943  14.890
11513W        W79731  32.158   9.334   2.618
11514W        W79732   2.236  15.676   0.982
11515W        W79733  14.823  25.632  14.755
11516W        W79734  40.797   7.238   0.995
11517W        W79735   0.326  40.835   3.249
11518W        W79736   6.121  29.033   0.457
11519W        W79737   5.236  26.085   3.642
11520W        W79738  20.224  21.083   4.343
11521W        W79739   7.219  35.871  11.184
11522W        W79740  37.286  11.927   1.945
11523W        W79741  11.964   4.835   1.911
11524W        W79742  24.914   7.182  13.815
11525W        W79743  16.049   0.629   2.541
11526W        W79744   8.796  27.049  13.877
11527W        W79745  12.631  22.777  11.922
11528W        W79746  29.312  15.141  12.947
11529W        W79747  16.533  31.386  12.645
11530W        W79748  42.253   1.576   3.563
11531W        W79749  40.390  25.082  14.937
11532W        W79750  12.226  23.534   4.567
11533W        W79751   2.715  43.396   0.481
11534W        W79752  26.266  31.988  12.025
11535W        W79753   7.444  42.771   1.855
11536W        W79754  35.519  18.161   1.913
11537W        W79755  31.197  19.952  12.552
11538W        W79756   3.282   9.547   0.848
11539W        W79757  20.197   4.215   1.112
11540W        W79758  28.996  18.026  11.592
11541W        W79759   0.976   6.677  12.999
11542W        W79760  33.371   6.340   1.684
11543W        W79761  14.241  29.615  11.462
11544W        W79762  40.356  32.586   0.531
11545W        W79763  30.070  32.608  10.924
11546W        W79764   1.007  40.377  14.249
11547W        W79765  44.657  33.127   1.412
11548W        W79766  35.633  39.575   1.913
11549W        W79767  11.296   0.515   4.293
11550W        W79768  22.160  32.380   0.284
11551W        W79769  37.089   5.336  13.396
11552W        W79770  15.667   5.190  12.643
11553W        W79771  29.098  44.860   2.366
11554W        W79772  24.550  21.808  14.404
11555W        W79773  35.932  30.046   1.299
11556W        W79774  17.975  37.973  12.344
11557W        W79775   5.170   8.248  11.420
11558W        W79776   5.341   3.892  13.262
11559W        W79777  35.771  31.357   1.205
11560W        W79778  27.257  42.101   0.208
11561W        W79779   4.341  41.894   2.546
11562W        W79780  23.508  11.933   1.243
11563W        W79781  11.157  19.448   1.658
11564W        W79782  22.140   5.280   0.703
11565W        W79783  20.060   3.490   0.364
11566W        W79784  27.038  18.389   2.184
11567W        W79785  20.349  40.553  10.823
11568W        W79786   5.000  32.625   2.336
11569W        W79787   9.306  10.652  14.901
11570W        W79788  14.803  25.527  12.852
11571W        W79789   2.956  40.625  12.715
11572W        W79790  26.950  42.872  14.977
11573W        W79791   0.603  39.670  10.616
11574W        W79792  28.639  11.091   3.665
11575W        W79793  31.545  40.061   4.436
11576W        W79794  15.332  22.924  13.048
11577W        W79795  28.188  10.832  11.347
11578W        W79796  19.865  21.767   4.098
11579W        W79797  14.319  43.028   3.076
11580W        W79798  20.041  15.809  12.416
11581W        W79799  40.880  42.411   2.317
11582W        W79800   6.253   9.847  14.620
11583W        W79801  17.480  33.384   4.116
11584W        W79802  41.745   1.759  12.851
11585W        W79803  25.998  17.166  14.905
11586W        W79804   3.822  35.063  12.841
11587W        W79805  14.333  20.458  11.852
11588W        W79806  36.571  35.687  12.863
11589W        W79807  29.764  17.808   0.276
11590W        W79808  20.128  43.199  14.269
11591W        W79809  28.258  15.136   3.282
11592W        W79810  35.927   8.376  10.686
11593W        W79811  22.205  11.708   0.794
11594W        W79812  28.027  12.809  13.347
11595W        W79813  34.131  43.014  14.023
11596W        W79814   2.617  12.291  14.031
11597W        W79815  22.107   7.133   2.777
11598W        W79816  25.999  15.305   1.317
11599W        W79817   8.426  35.147  12.066
11600W        W79818  26.478  24.276   3.684
11601W        W79819  12.859  34.440   4.484
11602W        W79820  23.467  39.524  13.159
11603W        W79821  21.046   2.640  14.996
11604W        W79822  19.049  32.636   3.326
11605W        W79823  13.743  23.426   1.220
11606W        W79824  20.716  10.421  13.309
11607W        W79825  40.540  36.382   1.310
11608W        W79826  13.658  23.114  10.539
11609W        W79827  32.573  14.463   2.375
11610W        W79828  23.486  21.102  11.987
11611W        W79829  40.325  32.633   2.848
11612W        W79830  44.271   0.762   0.978
11613W        W79831  23.251   1.385  13.947
11614W        W79832   2.452  29.764   0.035
11615W        W79833  33.460   5.930  14.240
11616W        W79834  44.963  17.655   0.401
11617W        W79835  22.469  21.930  11.124
11618W        W79836  44.399  37.585  12.909
11619W        W79837  43.349  27.126   1.977
11620W        W79838   9.288   1.376   1.394
11621W        W79839  20.206  16.263   4.153
11622W        W79840  37.365   0.972   1.253
11623W        W79841  36.592   4.671   2.242
11624W        W79842  23.206  24.784   0.773
11625W        W79843  39.278  40.321  11.069
11626W        W79844  36.014  41.785   2.291
11627W        W79845  21.195   7.663   2.737
11628W        W79846  26.463  17.040   0.991
11629W        W79847  27.397  14.221   1.807
11630W        W79848  35.941  44.498  10.743
11631W        W79849   9.594   1.262  12.223
11632W        W79850  33.419  41.288   0.526
11633W        W79851  15.856  24.588  12.628
11634W        W79852   7.266  37.663  11.472
11635W        W79853  17.076   5.770  10.738
11636W        W79854   4.686   6.286  10.393
11637W        W79855  29.645  39.905   2.341
11638W        W79856  14.775  18.192  10.885
11639W        W79857   6.223  25.019  13.892
11640W        W79858   1.180  11.763  11.578
11641W        W79859   5.137  35.392  12.013
11642W        W79860  31.265   8.434  10.873
11643W        W79861   6.398  42.465  13.022
11644W        W79862  29.595  21.693   2.122
11645W        W79863  20.843   7.300   2.886
11646W        W79864  37.729  24.529   0.416
11647W        W79865   8.745  43.394  12.141
11648W        W79866  13.172   3.941  10.665
11649W        W79867  33.530  23.263  12.666
11650W        W79868  31.505  24.625   4.216
11651W        W79869   7.671  28.077   0.409
11652W        W79870  15.179  21.640   0.423
11653W        W79871  40.937  27.951  13.372
11654W        W79872  31.582  11.090  11.916
11655W        W79873  39.081  23.601  14.028
11656W        W79874  41.124   9.114   1.692
11657W        W79875  35.366  38.732   0.455
11658W        W79876  28.890  24.767   4.405
11659W        W79877   9.259  34.674  13.359
11660W        W79878  18.047  33.664  14.441
11661W        W79879  42.485  24.031  12.146
11662W        W79880  10.099  31.384  12.173
11663W        W79881  20.925   1.718   1.895
11664W        W79882  27.552   6.125  12.877
11665W        W79883   5.613  27.549  11.636
11666W        W79884   6.149  35.129   3.079
11667W        W79885  29.370  43.372   4.888
11668W        W79886  15.162   6.115   1.144
11669W        W79887   7.009  32.385   2.905
11670W        W79888   6.683  26.810  10.402
11671W        W79889  24.319  37.294  12.355
11672W        W79890  29.048   7.968   3.345
11673W        W79891   0.261  26.520   0.329
11674W        W79892  15.238   0.394   1.464
11675W        W79893  41.044  42.747  11.837
11676W        W79894  32.724   7.681  14.409
11677W        W79895  31.863  32.809   4.068
11678W        W79896  40.875  25.240  14.057
11679W        W79897  37.813  12.185  11.207
11680W        W79898  18.729  17.302  13.431
11681W        W79899  18.775  24.739  11.624
11682W        W79900  31.504  21.978   1.443
11683W        W79901   6.270   0.626   2.719
11684W        W79902  24.750  23.090  14.065
11685W        W79903  25.381   5.396  11.676
11686W        W79904   7.212  21.982  14.395
11687W        W79905  14.098  41.595   4.930
11688W        W79906  13.309  20.466   4.526
11689W        W79907   5.223  33.090   2.447
11690W        W79908  20.458  12.194   1.734
11691W        W79909  11.395  43.939   1.765
11692W        W79910  14.689   9.835  14.694
11693W        W79911  18.692  16.516  12.921
11694W        W79912  17.787  12.757  13.044
11695W        W79913  39.730  11.683   2.171
11696W        W79914  17.135  30.438  13.806
11697W        W79915   8.123  19.006   9.665
11698W        W79916  35.432  44.368  11.517
11699W        W79917  17.065  40.867  12.330
11700W        W79918   1.926  16.430   0.137
11701W        W79919  33.373  37.024   1.653
11702W        W79920   0.334  38.304   2.879
11703W        W79921   2.426  31.797   3.826
11704W        W79922  10.328  11.716  13.362
11705W        W79923  30.673  28.947   4.291
11706W        W79924  24.928  31.632  11.185
11707W        W79925   8.351  14.765  14.015
11708W        W79926  40.404  30.145  14.456
11709W        W79927  31.069  41.520  14.534
11710W        W79928   2.280   3.367  14.307
11711W        W79929  29.149  31.469  13.294
11712W        W79930  42.790  34.874  11.849
11713W        W79931  27.275  40.364  12.794
11714W        W79932   1.712  27.237   2.313
11715W        W79933   9.507  35.016  14.835
11716W        W79934   8.860  12.493  12.879
11717W        W79935  35.797  34.500  11.254
11718W        W79936  10.322  33.718  13.496
11719W        W79937  15.181  14.511   1.653
11720W        W79938  28.949  22.085   0.363
11721W        W79939  42.946  29.895  13.939
11722W        W79940  44.300  17.770   0.905
11723W        W79941  25.232   2.607  14.854
11724W        W79942  27.245   1.505   4.952
11725W        W79943   0.791   1.829  10.433
11726W        W79944  28.059  15.140  13.567
11727W        W79945   4.673  44.928   9.969
11728W        W79946  14.189  28.805  12.576
11729W        W79947  19.102  27.616   2.803
11730W        W79948   3.870  42.566  11.492
11731W        W79949   6.589  17.245   2.679
11732W        W79950  34.890  30.048   3.417
11733W        W79951  21.261  11.886  11.200
11734W        W79952  36.480  36.831  11.109
11735W        W79953  13.039   7.419  11.250
11736W        W79954  34.754   2.974   4.941
11737W        W79955  38.534  41.035   4.537
11738W        W79956  18.066  41.223   1.804
11739W        W79957  23.264  33.460   1.049
11740W        W79958  12.703  40.373   1.850
11741W        W79959  42.528  41.213  12.163
11742W        W79960  24.622   7.169  11.894
11743W        W79961   3.419  23.510   3.816
11744W        W79962   5.347  17.530  12.283
11745W        W79963  28.125  19.763  14.523
11746W        W79964  19.656  22.035  13.374
11747W        W79965   1.428  20.974   1.905
11748W        W79966  44.009  44.987  14.613
11749W        W79967  11.230  31.709  10.685
11750W        W79968  14.727  33.624   4.577
11751W        W79969  32.452  34.813   2.370
11752W        W79970  30.171  21.084   4.967
11753W        W79971  20.155   1.963  13.539
11754W        W79972  25.260  42.458   4.564
11755W        W79973  10.327  17.523   3.307
11756W        W79974  39.741  17.249  10.789
11757W        W79975  11.320  30.830   4.625
11758W        W79976  13.474  27.637   2.771
11759W        W79977  22.958  32.905   0.225
11760W        W79978  31.054  35.614   3.690
11761W        W79979  12.189  30.528   1.410
11762W        W79980  16.805   2.637  12.999
11763W        W79981  40.746  17.041  12.933
11764W        W79982  12.921  40.872  11.640
11765W        W79983   2.987  44.450   3.554
11766W        W79984  17.287  44.466   2.387
11767W        W79985   1.842  25.016   3.255
11768W        W79986  24.425  39.685   2.259
11769W        W79987   6.159  10.585  12.320
11770W        W79988  17.039  27.660   2.457
11771W        W79989  27.971  44.996  12.053
11772W        W79990  10.436  14.408  10.182
11773W        W79991   5.347  26.449  13.541
11774W        W79992  26.236   7.182  11.041
11775W        W79993  37.611   3.860  12.040
11776W        W79994  32.366  42.722  11.074
11777W        W79995  37.531  36.344   4.278
11778W        W79996  26.942  22.198  13.818
11779W        W79997   5.136  43.493  12.944
11780W        W79998   4.498  42.804  11.940
11781W        W79999  11.255  43.319   3.900
11782W        W80000   6.748  15.131   0.459
11783W        W80001  10.427  10.646  14.871
11784W        W80002  25.110   8.299  13.471
11785W        W80003   2.248  13.264   3.656
11786W        W80004  24.695  18.644   1.742
11787W        W80005  27.072  33.418  10.657
11788W        W80006  36.190  28.924   2.812
11789W        W80007   9.201  23.243  12.121
11790W        W80008   5.904   3.401  12.765
11791W        W80009   4.965  34.409   4.069
11792W        W80010   7.972  26.716   1.333
11793W        W80011  23.889  25.545  11.540
11794W        W80012  35.420  22.020  11.941
11795W        W80013  34.673  13.366  11.157
11796W        W80014   9.941  19.540   3.716
11797W        W80015  41.127   9.299  11.608
11798W        W80016  23.809   2.159   4.279
11799W        W80017  37.940  17.672  12.879
11800W        W80018   8.447  37.996  14.747
11801W        W80019   9.298   0.848   2.914
11802W        W80020  22.017   8.868   3.454
11803W        W80021  37.284  28.052  14.930
11804W        W80022  10.935  42.842  13.994
11805W        W80023  21.020  20.587   3.160
11806W        W80024  18.524  43.314  11.130
11807W        W80025  11.147  33.288   2.503
11808W        W80026   0.426   4.649   1.630
11809W        W80027  39.571  17.671   3.181
11810W        W80028  12.073  31.230  12.598
11811W        W80029  13.939  26.017   4.570
11812W        W80030  11.106  10.998  11.722
11813W        W80031  28.614  26.055  12.831
11814W        W80032  34.479   3.425  11.136
11815W        W80033   0.941  36.457  14.065
11816W        W80034   5.075  17.597  10.426
11817W        W80035   7.980  23.511   4.607
11818W        W80036  30.429  29.365   2.777
11819W        W80037  23.303  17.766  13.218
11820W        W80038  39.535   3.714  13.048
11821W        W80039  22.119  38.039   0.768
11822W        W80040  13.383   6.345  12.431
11823W        W80041  21.181  25.447   3.143
11824W        W80042  21.966  32.387   3.428
11825W        W80043   4.654  41.058   1.623
11826W        W80044  38.426  10.693   0.816
11827W        W80045  35.002   2.483   4.848
11828W        W80046  28.348  32.694   1.748
11829W        W80047  13.008  26.576   5.059
11830W        W80048  40.320  12.364   1.667
11831W        W80049  36.000  43.743  11.102
11832W        W80050  31.019  23.356  10.795
11833W        W80051  13.737  43.733  14.369
11834W        W80052   7.811  15.077   5.414
11835W        W80053  11.815  28.965  10.733
11836W        W80054  36.821  17.701  11.585
11837W        W80055  44.050   7.735   1.250
11838W        W80056  12.871  30.191  11.185
11839W        W80057  11.415  38.512  11.976
11840W        W80058  28.382  43.360   2.830
11841W        W80059   2.833  31.615   4.123
11842W        W80060   9.630  37.575   3.596
11843W        W80061  25.046   4.959  14.915
11844W        W80062  24.786  30.495  11.389
11845W        W80063   8.128  41.653  12.029
11846W        W80064  24.370  10.853   1.788
11847W        W80065   5.380   3.148   0.582
11848W        W80066   9.010  10.236  13.707
11849W        W80067   5.306  26.625  10.223
11850W        W80068  20.568  20.647  12.545
11851W        W80069  42.510  12.674  13.071
11852W        W80070  20.311   3.267   3.633
11853W        W80071   6.424  11.282   2.612
11854W        W80072   3.727  19.153   3.660
11855W        W80073   2.178  26.380   4.785
11856W        W80074   4.630  19.867  11.064
11857W        W80075  13.071  28.709   1.375
11858W        W80076   1.161  20.210   3.642
11859W        W80077  33.889   6.126  14.472
11860W        W80078  17.385  34.371  14.350
11861W        W80079   1.253  22.598   2.990
11862W        W80080  18.612  43.814   1.344
11863W        W80081  31.080  29.125   4.000
11864W        W80082  40.872  41.734  13.513
11865W        W80083   5.439  32.125  14.477
11866W        W80084  37.297  32.518   3.208
11867W        W80085  36.097  11.851   2.327
11868W        W80086  43.433  38.478  13.474
11869W        W80087  35.081   5.258  11.418
11870W        W80088  31.961  23.795   2.883
11871W        W80089  13.831  42.813   3.633
11872W        W80090  38.641  20.589  14.757
11873W        W80091  26.029  20.487  12.005
11874W        W80092  10.092  44.518  12.062
11875W        W80093   2.909  42.821  13.449
11876W        W80094  36.858   3.881   3.712
11877W        W80095  14.209  42.051   1.951
11878W        W80096  31.380  35.944  14.594
11879W        W80097  15.139  42.546   4.748
11880W        W80098  29.065  19.737   0.644
11881W        W80099  44.344  19.693  11.288
11882W        W80100  12.238  18.917   3.115
11883W        W80101   9.321  42.382  10.957
11884W        W80102  16.846  40.939  11.857
11885W        W80103  23.369  42.852  11.207
11886W        W80104   6.065  39.425   0.832
11887W        W80105   1.243  16.133  11.193
11888W        W80106  20.518  18.124  10.600
11889W        W80107  16.654  14.644  11.601
11890W        W80108  27.481  27.173  13.562
11891W        W80109  22.077  42.500   4.110
11892W        W80110  20.515  25.742  12.569
11893W        W80111  12.132  37.270   0.516
11894W        W80112  19.126   2.779   4.828
11895W        W80113   4.483  38.407   1.892
11896W        W80114  44.393  38.312   0.467
11897W        W80115  26.456  21.627  14.307
11898W        W80116  37.274  29.506  14.346
11899W        W80117  25.135  29.314  10.958
11900W        W80118  28.463  13.387   1.297
11901W        W80119  31.401  36.552  12.319
11902W        W80120   9.841  13.497   1.338
11903W        W80121  16.192  21.822  14.979
11904W        W80122   5.535  18.786  11.191
11905W        W80123   7.922   1.721  11.515
11906W        W80124  39.799  29.061   4.817
11907W        W80125   1.022  25.158  11.036
11908W        W80126  29.529   4.821   2.737
11909W        W80127  42.266  28.969  11.424
11910W        W80128  43.986   2.266  12.487
11911W        W80129   0.517  25.031   0.455
11912W        W80130   8.225   0.419   0.411
11913W        W80131   4.424   5.397   4.611
11914W        W80132  25.002   0.630  14.906
11915W        W80133  37.083  13.393   1.039
11916W        W80134  34.586  16.280  11.020
11917W        W80135  20.087   8.292   4.210
11918W        W80136   7.518  28.698  13.045
11919W        W80137  23.853   6.626   2.777
11920W        W80138   3.793  37.898   0.867
11921W        W80139  22.116  11.540   0.306
11922W        W80140  21.510   6.861  10.968
11923W        W80141  42.434  15.653  12.878
11924W        W80142  18.537  11.204   3.218
11925W        W80143   9.653  38.639   1.373
11926W        W80144   2.837   3.205  14.492
11927W        W80145   0.280  24.137  11.562
11928W        W80146  26.638  37.300  12.500
11929W        W80147  39.508  27.017   2.407
11930W        W80148  26.059  17.755  10.894
11931W        W80149  40.004  11.708   4.615
11932W        W80150  13.674  10.207   1.488
11933W        W80151  21.530  25.464   3.565
11934W        W80152   4.248  19.205   3.713
11935W        W80153  28.115  42.061  14.971
11936W        W80154  29.136  43.355  12.105
11937W        W80155  40.242  31.571  10.683
11938W        W80156  15.510  34.050   0.329
11939W        W80157  10.526  14.147  13.837
11940W        W80158   7.368  18.151  14.068
11941W        W80159  32.071   4.327  11.008
11942W        W80160  14.883  18.865   4.671
11943W        W80161  41.955  33.063  11.609
11944W        W80162   7.281   5.426   3.627
11945W        W80163  13.827  38.899   0.744
11946W        W80164  44.449   1.504   1.884
11947W        W80165   2.312  30.459  13.415
11948W        W80166  32.631   9.371  12.067
11949W        W80167  35.194  33.484   1.952
11950W        W80168   2.217  29.963  12.949
11951W        W80169  26.617  37.422  14.867
11952W        W80170   1.660  15.199   2.666
11953W        W80171  12.786  14.405  12.541
11954W        W80172  34.044  20.224   0.630
11955W        W80173  12.335  33.105   2.275
11956W        W80174  21.629  29.409  14.782
11957W        W80175  16.329  24.761  10.815
11958W        W80176  41.353  20.636   4.513
11959W        W80177   0.315  27.929  12.900
11960W        W80178   0.798  28.186  13.077
11961W        W80179   8.187  43.527   2.909
11962W        W80180  13.839  33.937   0.737
11963W        W80181  41.778  30.037  10.959
11964W        W80182   1.521   8.817  13.081
11965W        W80183  21.135  36.323  11.946
11966W        W80184   7.891  35.600  10.673
11967W        W80185  44.415  38.251   2.790
11968W        W80186  18.906  10.417  13.167
11969W        W80187   2.403  10.259   0.820
11970W        W80188   3.742  35.393  13.433
11971W        W80189  34.965  15.878  13.269
11972W        W80190   9.380   1.716  14.722
11973W        W80191  34.068   4.989   4.238
11974W        W80192  25.993  15.754   2.128
11975W        W80193  26.556   6.615   0.097
11976W        W80194  33.487  11.836  12.561
11977W        W80195  17.717   6.518   0.293
11978W        W80196  29.028  25.831   9.896
11979W        W80197  39.434   6.713   3.828
11980W        W80198   4.472  29.026  13.941
11981W        W80199  38.117   9.316  14.093
11982W        W80200  36.562  22.785  10.825
11983W        W80201  44.912  16.400  14.106
11984W        W80202  42.389   5.483  10.971
11985W        W80203  36.567  30.826   1.446
11986W        W80204  16.529  15.820  12.939
11987W        W80205   4.238  19.753  10.758
11988W        W80206  39.842  42.709  11.238
11989W        W80207   2.450  26.709  11.543
11990W        W80208  39.392   2.179   0.950
11991W        W80209  19.697   4.942   3.661
11992W        W80210  30.178  42.217   1.916
11993W        W80211  15.249  44.453   0.740
11994W        W80212  38.070  14.184  10.113
11995W        W80213  21.744  33.089  11.112
11996W        W80214  15.254  18.337   3.190
11997W        W80215  32.918  10.054   1.336
11998W        W80216  31.397  37.245  11.092
11999W        W80217  10.066  35.870  14.044
12000W        W80218  39.918  11.182   4.453
12001W        W80219  36.545  28.032  11.502
12002W        W80220  17.751  18.509   2.267
12003W        W80221  11.636   4.699   1.291
12004W        W80222  32.296   8.815  13.050
12005W        W80223   3.453  41.235  11.477
12006W        W80224  12.643  20.042   0.044
12007W        W80225  17.833  11.894   3.467
12008W        W80226  43.410  23.804  14.015
12009W        W80227  41.239   0.428  13.399
12010W        W80228  10.189  33.501  10.285
12011W        W80229  22.478  28.217  11.177
12012W        W80230  36.130  11.141  13.657
12013W        W80231  13.604  25.615  11.117
12014W        W80232  36.105  27.944   2.732
12015W        W80233  37.312   4.644   0.868
12016W        W80234   3.028  14.653   1.238
12017W        W80235  10.987  38.992  14.853
12018W        W80236   2.735   0.253  11.959
12019W        W80237   0.002  19.065   3.233
12020W        W80238  32.995  28.995  12.513
12021W        W80239  11.421  44.205  13.914
12022W        W80240  12.359  42.528  14.561
12023W        W80241  20.320  24.766  13.586
12024W        W80242  17.785  42.914  10.886
12025W        W80243  13.131  15.301  11.900
12026W        W80244  42.039  28.639  13.899
12027W        W80245  20.301  36.471  10.924
12028W        W80246   0.443  19.274  11.890
12029W        W80247  41.585   9.334  12.508
12030W        W80248  26.710  29.045   4.134
12031W        W80249  17.884   9.416  12.909
12032W        W80250   8.966   3.646  13.027
12033W        W80251  10.925   4.316   3.919
12034W        W80252  27.284  14.890  13.941
12035W        W80253   6.821  44.721  10.468
12036W        W80254  21.227   8.263  14.281
12037W        W80255  20.770  20.250   2.862
12038W        W80256  29.237   3.842  11.890
12039W        W80257  19.977   3.262  13.814
12040W        W80258  24.922   6.360   4.169
12041W        W80259  39.180  40.100  10.607
12042W        W80260   7.632  12.454  12.910
12043W        W80261   3.443  37.902  12.952
12044W        W80262  35.374  13.100  10.753
12045W        W80263  31.962  24.144   0.897
12046W        W80264  18.668   4.124  10.743
12047W        W80265  43.087  38.290   1.245
12048W        W80266  37.483  21.148  12.220
12049W        W80267  34.141  43.016  10.648
12050W        W80268  29.444  19.707   5.040
12051W        W80269  43.801   6.202   0.942
12052W        W80270  13.073  38.275   1.293
12053W        W80271  11.732  35.801   0.373
12054W        W80272  28.483  16.843  13.774
12055W        W80273  39.622  28.324  13.350
12056W        W80274  23.551  30.605   1.582
12057W        W80275  19.860  19.643  12.614
12058W        W80276  27.360  21.601  10.955
12059W        W80277   5.487  24.052  12.042
12060W        W80278   6.606  21.990   4.101
12061W        W80279  16.972  39.321   1.732
12062W        W80280   2.766  30.903   0.785
12063W        W80281  21.861  37.284   0.462
12064W        W80282  39.581  11.750   3.468
12065W        W80283  16.349   0.571  10.207
12066W        W80284  32.711  29.391  13.514
12067W        W80285   5.204  36.177  11.644
12068W        W80286  31.540  18.879  11.735
12069W        W80287  10.834  18.909   4.892
12070W        W80288  25.735  14.170  13.104
12071W        W80289  31.546   1.149  14.933
12072W        W80290  21.969  29.738  13.489
12073W        W80291   7.862  21.301  12.458
12074W        W80292   3.242  35.755   4.660
12075W        W80293   3.397   4.576   4.413
12076W        W80294  19.587   9.181   2.678
12077W        W80295  27.702  31.346   1.736
12078W        W80296   4.059   5.259   3.194
12079W        W80297  10.181   5.730  13.716
12080W        W80298  32.935  14.741   1.728
12081W        W80299  43.138   0.192   4.198
12082W        W80300  24.434   3.917   3.901
12083W        W80301  32.641  18.802   3.708
12084W        W80302   0.626   2.765  14.044
12085W        W80303  20.545   8.927   1.261
12086W        W80304  26.928  22.217   2.715
12087W        W80305  11.252  16.955   3.874
12088W        W80306  23.266   9.054   1.670
12089W        W80307  39.577  12.203   2.698
12090W        W80308  31.168  12.378   0.627
12091W        W80309   8.566  10.108  10.284
12092W        W80310  33.594  29.080  10.716
12093W        W80311  12.331  44.953   1.283
12094W        W80312  14.187  11.367  14.779
12095W        W80313  11.576  19.738   2.666
12096W        W80314  34.064  43.085   2.439
12097W        W80315  10.101   3.781   1.348
12098W        W80316   5.132   9.326  12.292
12099W        W80317   2.232  43.392  11.700
12100W        W80318  15.790  10.613  13.172
12101W        W80319  44.526  33.585  14.856
12102W        W80320  40.893  14.545   2.853
12103W        W80321  26.429   7.757   0.398
12104W        W80322  13.711  33.636  11.662
12105W        W80323  29.598   7.192   0.540
12106W        W80324  21.206  26.256  13.272
12107W        W80325  38.557  24.202   1.673
12108W        W80326   9.595   7.490  11.720
12109W        W80327  34.607  21.641   1.718
12110W        W80328  22.697  23.705   4.553
12111W        W80329  14.666  34.968  11.193
12112W        W80330   0.209  34.360   0.786
12113W        W80331  33.479   9.812  14.550
12114W        W80332  43.350  38.763   1.208
12115W        W80333  26.664   4.772   4.283
12116W        W80334   1.713   9.135  11.936
12117W        W80335  41.060  42.960  14.430
12118W        W80336   0.439  28.346   4.211
12119W        W80337  30.625  30.655   1.171
12120W        W80338   5.876  44.725  11.328
12121W        W80339  37.319  34.380  12.506
12122W        W80340  22.172  37.847   1.257
12123W        W80341  18.766   1.124   1.672
12124W        W80342  18.151  11.002   4.651
12125W        W80343   1.741  21.634  11.050
12126W        W80344  23.182   8.916  14.037
12127W        W80345  17.682  38.172  13.471
12128W        W80346  41.793  10.637  12.962
12129W        W80347  19.172  41.935   4.520
12130W        W80348  10.198  28.067  12.502
12131W        W80349  25.539  24.995   4.128
12132W        W80350  41.732   6.385   2.241
12133W        W80351  25.148  42.313   2.723
12134W        W80352  31.097  36.003  10.758
12135W        W80353  24.612  26.154  12.705
12136W        W80354  38.457   2.228  14.833
12137W        W80355  17.769  12.316   3.149
12138W        W80356  37.403  38.600  14.048
12139W        W80357  21.070   5.774   1.862
12140W        W80358  12.447  42.755   3.338
12141W        W80359  19.101  20.831   0.009
12142W        W80360   0.006  38.283   4.704
12143W        W80361   9.323  38.654  13.476
12144W        W80362  39.616  37.380  12.624
12145W        W80363  19.568  34.828  11.157
12146W        W80364  43.262  22.182   2.580
12147W        W80365  18.403  37.855   1.212
12148W        W80366  39.978  24.628   5.002
12149W        W80367  30.372   7.254  12.162
12150W        W80368   0.101  19.506   0.440
12151W        W80369  13.633  11.316   1.173
12152W        W80370   8.774  32.571  14.912
12153W        W80371   8.546  18.845   4.112
12154W        W80372  24.735  10.247   0.212
12155W        W80373  31.712  10.275  11.885
12156W        W80374  30.564  31.066  11.961
12157W        W80375  17.495   2.350   1.154
12158W        W80376   6.488  13.962   5.000
12159W        W80377  10.684  37.015   0.919
12160W        W80378  23.568  21.150   2.707
12161W        W80379  12.141  24.583   2.828
12162W        W80380  42.895  37.230  11.097
12163W        W80381  10.935  42.417  12.956
12164W        W80382   7.750  17.800   2.871
12165W        W80383  16.123   0.610   0.832
12166W        W80384   8.428  17.318   3.085
12167W        W80385  37.766  30.046   3.131
12168W        W80386   3.156  21.685  12.085
12169W        W80387  25.445  26.003  14.096
12170W        W80388  11.719  43.954  14.351
12171W        W80389  20.475   9.824  14.741
12172W        W80390  33.891  18.282  13.536
12173W        W80391  31.044  28.366   2.237
12174W        W80392  34.751  10.269  11.232
12175W        W80393  10.190  19.884  11.986
12176W        W80394   2.719   2.066   0.251
12177W        W80395  16.573  27.446  12.557
12178W        W80396   2.419  44.227   0.694
12179W        W80397  27.490  36.213   4.205
12180W        W80398  20.127  37.213   1.242
12181W        W80399  38.974  25.243   3.274
12182W        W80400  26.692  25.551  13.817
12183W        W80401  15.714  18.310   4.955
12184W        W80402  32.000  38.634   1.379
12185W        W80403  23.336   8.834  13.177
12186W        W80404  24.029  29.427  10.487
12187W        W80405  32.342  11.617  13.372
12188W        W80406  29.483  23.231   0.402
12189W        W80407  35.332  16.773   0.738
12190W        W80408   8.414  31.828  14.770
12191W        W80409  15.079  35.341  13.366
12192W        W80410  24.683   5.311   4.698
12193W        W80411  30.202  44.451   0.415
12194W        W80412   2.779  41.023  11.577
12195W        W80413  17.961   3.848   4.548
12196W        W80414  19.728  30.143   4.980
12197W        W80415  18.423   5.278  14.127
12198W        W80416   4.840  28.680  14.084
12199W        W80417   7.183  29.754   3.988
12200W        W80418  19.102  13.186  10.919
12201W        W80419  43.837  20.348  12.991
12202W        W80420  19.857  38.279   4.672
12203W        W80421  17.639  40.957   1.738
12204W        W80422  34.345  11.132   3.152
12205W        W80423  12.195  44.145   5.381
12206W        W80424  33.794   6.704  13.442
12207W        W80425  40.414   3.923  11.199
12208W        W80426  36.441  34.916  10.683
12209W        W80427  13.577   1.447   2.339
12210W        W80428  41.379  41.057   3.794
12211W        W80429  28.710  38.137  12.024
12212W        W80430  36.505  18.672  13.737
12213W        W80431  27.984  43.768   4.480
12214W        W80432  20.208   7.453  13.996
12215W        W80433  10.685  25.716   1.851
12216W        W80434  25.499  17.085   3.883
12217W        W80435  14.065   0.016   1.949
12218W        W80436   4.132  10.433   0.431
12219W        W80437  30.539  41.379  13.242
12220W        W80438   6.355  40.506   1.274
12221W        W80439  34.540  26.979   0.682
12222W        W80440  15.108  32.414   0.146
12223W        W80441  26.241  28.111   2.698
12224W        W80442  23.526  37.338   2.730
12225W        W80443   7.670  29.873  12.457
12226W        W80444  18.075   3.815   1.950
12227W        W80445  18.653  28.425   0.838
12228W        W80446  31.904  42.569  11.632
12229W        W80447  24.573  25.406  11.189
12230W        W80448   8.129  38.889  14.782
12231W        W80449  33.969  13.304  10.629
12232W        W80450  31.715   2.543   1.781
12233W        W80451  34.118  14.763   2.270
12234W        W80452  29.655  40.130  11.240
12235W        W80453  19.663  22.548   2.653
12236W        W80454  14.727  35.338   4.179
12237W        W80455  36.552   8.369  10.626
12238W        W80456  37.861  40.326  13.462
12239W        W80457   3.951  20.680  12.323
12240W        W80458  12.843  27.583   3.157
12241W        W80459  10.746  21.964  12.604
12242W        W80460  19.781  34.604  14.323
12243W        W80461   0.583  18.657   1.208
12244W        W80462  23.540   7.266   0.382
12245W        W80463  43.929  44.329   2.546
12246W        W80464   6.690   2.999   4.391
12247W        W80465  10.630   3.852   2.269
12248W        W80466  33.441   3.345   1.781
12249W        W80467  28.579  31.932  13.084
12250W        W80468  36.921  34.209  12.212
12251W        W80469   2.006   1.359  13.043
12252W        W80470  12.014  28.964   3.398
12253W        W80471   9.953   7.908  13.794
12254W        W80472  30.563   0.858   4.181
12255W        W80473   9.303   9.333   4.801
12256W        W80474  10.602  37.499   3.683
12257W        W80475  44.376  33.577  12.158
12258W        W80476  27.645  19.309   0.771
12259W        W80477  17.616  23.556   3.885
12260W        W80478  18.935   7.485  11.689
12261W        W80479  16.792  16.841   0.838
12262W        W80480  16.688  38.425   3.147
12263W        W80481   6.323  16.131   1.769
12264W        W80482   1.014  20.541  12.422
12265W        W80483  20.674  16.813   2.206
12266W        W80484  28.279  12.062   4.819
12267W        W80485  31.543  20.343   4.707
12268W        W80486  21.370  37.640   5.285
12269W        W80487  35.795   2.081   4.656
12270W        W80488   7.790  17.845  13.055
12271W        W80489   4.771  34.344   3.137
12272W        W80490  24.503   5.355  11.486
12273W        W80491  33.759  33.382  12.481
12274W        W80492  23.970  41.304   0.556
12275W        W80493   9.224  20.475   4.702
12276W        W80494  16.713  14.664  14.811
12277W        W80495  10.346  40.989  14.565
12278W        W80496  30.991  10.332  10.187
12279W        W80497   0.277  43.954   0.456
12280W        W80498  12.737  42.241  12.727
12281W        W80499  15.828   0.448   0.235
12282W        W80500  11.082   3.758   1.255
12283W        W80501  22.223  29.019  11.669
12284W        W80502   1.909  35.715  11.451
12285W        W80503   9.725  12.095  13.377
12286W        W80504  30.900   2.957   0.794
12287W        W80505  30.016  35.084   4.887
12288W        W80506  33.438  44.122   3.556
12289W        W80507  30.495  30.858  10.607
12290W        W80508  12.773  19.145  14.796
12291W        W80509   6.823  12.845   2.728
12292W        W80510  18.793  23.063   2.698
12293W        W80511  41.278   5.804   1.764
12294W        W80512   5.747  31.457  11.985
12295W        W80513  40.276   6.135  10.721
12296W        W80514  37.939  42.019  11.685
12297W        W80515  43.439  18.393  11.120
12298W        W80516  27.998  10.911  12.869
12299W        W80517   3.099  20.125  14.496
12300W        W80518   2.692  15.184  11.572
12301W        W80519  31.117  41.025   0.878
12302W        W80520  17.478  13.055  12.776
12303W        W80521  22.570  41.568  12.406
12304W        W80522  36.428  32.325   3.339
12305W        W80523  23.709  12.213  14.730
12306W        W80524  21.170  43.640  11.204
12307W        W80525   9.414  32.943   1.335
12308W        W80526  12.911  42.217   1.408
12309W        W80527  20.033  34.101   0.531
12310W        W80528  24.006  23.470  12.855
12311W        W80529  40.600  40.836   3.171
12312W        W80530  20.175   6.948  14.174
12313W        W80531  10.207  38.078   2.678
12314W        W80532  41.585  35.476  14.230
12315W        W80533  30.270  42.766   3.677
12316W        W80534  26.632  26.435   5.286
12317W        W80535  17.415  21.280   3.297
12318W        W80536  32.058   0.777  11.777
12319W        W80537  24.728   6.463   1.636
12320W        W80538   2.552   1.915  13.934
12321W        W80539   7.001  44.657  13.876
12322W        W80540  19.452  23.028   1.292
12323W        W80541  17.140  34.380  10.149
12324W        W80542  35.013   6.196   5.196
12325W        W80543  13.743  22.521  14.392
12326W        W80544   5.471  43.279   2.460
12327W        W80545   7.668   7.484  11.738
12328W        W80546  25.101   4.917  13.466
12329W        W80547  21.687   0.947   2.628
12330W        W80548  35.836  27.005  13.504
12331W        W80549  32.007  31.158  11.972
12332W        W80550  41.553  35.382   4.067
12333W        W80551  41.938  35.831   4.153
12334W        W80552  34.891  40.009   1.219
12335W        W80553  35.982   3.424  13.610
12336W        W80554  18.115  19.491  14.477
12337W        W80555  14.800  24.527   3.165
12338W        W80556  30.011  37.798  14.754
12339W        W80557   1.878  29.504   0.248
12340W        W80558  16.799  20.847  12.116
12341W        W80559  38.132  23.468   1.253
12342W        W80560   9.579  17.812   2.208
12343W        W80561   7.790  16.996  14.760
12344W        W80562  36.061  10.297  12.644
12345W        W80563  11.085  22.732  14.501
12346W        W80564  33.967  28.979  13.025
12347W        W80565  23.555  42.026   4.506
12348W        W80566  19.483  21.894   0.533
12349W        W80567  42.583  42.484  13.472
12350W        W80568  35.149  37.910   1.226
12351W        W80569   0.015  32.364  14.063
12352W        W80570  17.757   7.757  12.003
12353W        W80571   2.912  24.110  10.838
12354W        W80572   7.732  34.647   2.194
12355W        W80573   6.228   9.542   4.236
12356W        W80574  40.399  39.400  14.375
12357W        W80575  22.209  41.541  11.698
12358W        W80576   2.191  24.989   3.703
12359W        W80577  18.990  22.130  12.819
12360W        W80578  25.789  42.483  12.131
12361W        W80579  28.911  36.792   2.549
12362W        W80580  40.951  11.807   4.692
12363W        W80581   3.284  39.908   2.334
12364W        W80582  27.474  20.931  13.515
12365W        W80583  18.302  33.086  11.036
12366W        W80584  34.509  16.543   2.111
12367W        W80585  35.655  39.490   3.203
12368W        W80586   9.901  21.401   4.223
12369W        W80587   1.336  36.549   4.729
12370W        W80588  34.523  42.776   3.152
12371W        W80589  16.099  30.164   2.978
12372W        W80590  29.808  22.219   3.487
12373W        W80591  17.850  10.430   4.295
12374W        W80592  26.017  12.922  14.797
12375W        W80593  14.543   0.033   0.744
12376W        W80594   0.436   0.558   0.706
12377W        W80595  34.223  10.279  11.114
12378W        W80596  41.001  33.591  10.538
12379W        W80597  35.534  13.998   2.127
12380W        W80598   7.246  18.688  10.778
12381W        W80599  24.499  33.428  14.210
12382W        W80600   3.834  22.637   4.340
12383W        W80601  33.127  35.554  14.388
12384W        W80602  13.046   2.820   4.882
12385W        W80603  26.899  14.885   3.160
12386W        W80604   3.316  15.419   4.138
12387W        W80605   8.131  27.226  13.580
12388W        W80606  43.507  17.520  13.274
12389W        W80607   5.215   0.377   1.388
12390W        W80608  11.575  21.126   1.453
12391W        W80609   6.183  15.347   0.574
12392W        W80610  11.441  34.031   4.491
12393W        W80611  28.034  22.537   3.129
12394W        W80612  30.818  14.314   9.846
12395W        W80613   4.516   9.877  11.887
12396W        W80614  31.038  27.919   0.901
12397W        W80615  40.209  13.200   2.350
12398W        W80616  33.574  41.353   4.433
12399W        W80617  28.455   2.343   2.228
12400W        W80618  31.983  10.654  13.022
12401W        W80619   9.983   1.907  12.909
12402W        W80620   5.033   2.983   2.879
12403W        W80621  28.458  25.721  14.489
12404W        W80622  21.831   7.746   0.892
12405W        W80623  35.660  24.424   3.404
12406W        W80624  31.344  38.804  11.062
12407W        W80625  41.816  44.815   4.229
12408W        W80626  20.296  19.834  12.906
12409W        W80627  17.756   9.377  13.783
12410W        W80628  25.236  10.873  14.314
12411W        W80629  35.542  33.656  11.840
12412W        W80630  24.695   8.747   1.704
12413W        W80631  10.597   1.965   2.208
12414W        W80632  37.262  13.850   0.383
12415W        W80633  26.317  34.151  11.476
12416W        W80634  44.744  39.847   1.200
12417W        W80635   1.496  15.376   2.203
12418W        W80636  35.428   0.823  10.798
12419W        W80637  39.836   3.450   4.234
12420W        W80638  24.933  14.957  14.872
12421W        W80639  39.424  12.487   0.853
12422W        W80640  11.389  30.035   4.036
12423W        W80641  25.996  21.328   1.115
12424W        W80642   5.802  31.784  14.368
12425W        W80643  19.166  27.315   0.574
12426W        W80644  32.919  15.209   0.848
12427W        W80645  34.342  44.418   0.825
12428W        W80646  40.868  44.509  12.325
12429W        W80647  15.699   7.181  10.414
12430W        W80648   6.005  25.695   1.490
12431W        W80649   4.561   5.324   3.128
12432W        W80650  40.330   0.256  13.076
12433W        W80651  37.464  14.204   3.288
12434W        W80652  16.098  14.311  13.540
12435W        W80653  32.681  25.165  10.695
12436W        W80654  26.645   5.219  12.100
12437W        W80655  37.566  24.909   1.402
12438W        W80656  17.104  12.410  10.369
12439W        W80657  15.947  13.321  14.937
12440W        W80658  15.798   7.731   1.176
12441W        W80659   9.104  17.121  14.540
12442W        W80660   7.807  29.205  11.149
12443W        W80661  41.926  11.101  14.801
12444W        W80662  19.381  16.773  11.091
12445W        W80663  23.668   1.244   1.181
12446W        W80664  42.845  42.480   2.852
12447W        W80665  40.422   7.592   4.181
12448W        W80666   7.980  27.425  10.688
12449W        W80667  29.470  42.396   4.558
12450W        W80668  33.804  18.571   2.670
12451W        W80669   5.698  30.783   1.775
12452W        W80670  17.812  12.183   5.289
12453W        W80671   7.351  35.765   1.492
12454W        W80672   8.455   6.112  11.176
12455W        W80673   8.353  15.318   9.698
12456W        W80674  31.450  39.715  14.962
12457W        W80675   4.966  23.895  12.070
12458W        W80676  27.772  41.437   0.541
12459W        W80677  39.794  32.161   3.650
12460W        W80678  33.598  40.998   0.927
12461W        W80679   6.300   8.000   5.080
12462W        W80680  11.789  21.806  12.666
12463W        W80681  12.359  40.324  12.618
12464W        W80682  36.496  38.343   4.179
12465W        W80683  26.535  17.816   0.484
12466W        W80684   3.885  19.530   4.549
12467W        W80685  22.673  36.889  11.873
12468W        W80686  21.548  44.021   2.822
12469W        W80687   8.603  20.210  12.762
12470W        W80688  15.671  10.899   2.771
12471W        W80689  36.940   8.373   3.288
12472W        W80690  20.618   1.401  11.160
12473W        W80691   9.186   7.632  13.429
12474W        W80692  28.500  13.916  14.485
12475W        W80693  29.313  41.259   4.834
12476W        W80694  17.333  29.084   1.870
12477W        W80695  38.423  42.073  13.373
12478W        W80696  31.531  17.921  11.459
12479W        W80697  17.280  27.453   1.649
12480W        W80698   8.333   4.811   4.438
12481W        W80699  28.425  18.221   2.138
12482W        W80700  20.119  19.773  14.320
12483W        W80701  24.565  33.846  14.494
12484W        W80702  39.852  29.022  10.773
12485W        W80703  42.422   1.980   4.702
12486W        W80704  25.284   0.702  12.095
12487W        W80705  32.059  36.313  11.584
12488W        W80706  28.100  35.657   4.428
12489W        W80707   0.269   5.877   3.659
12490W        W80708  28.608   6.790  11.835
12491W        W80709   2.911   9.601   3.921
12492W        W80710  22.959  17.508  12.959
12493W        W80711  37.576   0.827  10.720
12494W        W80712  44.286  33.070  12.435
12495W        W80713  20.676  14.612   2.770
12496W        W80714  26.532   5.263  14.537
12497W        W80715  27.267  42.897  10.688
12498W        W80716  19.725  13.221   1.209
12499W        W80717  23.937  21.518  12.623
12500W        W80718  44.916  44.553  13.864
12501W        W80719  26.772  28.594  10.287
12502W        W80720  36.413   9.830   3.892
12503W        W80721   3.507   9.255  13.503
12504W        W80722   7.956  17.637  11.391
12505W        W80723  24.504  19.003   1.366
12506W        W80724  32.194  12.245   0.694
12507W        W80725   2.666  22.416  13.936
12508W        W80726   8.064  18.986   4.086
12509W        W80727  26.118  19.650  14.921
12510W        W80728   7.165  19.768   3.726
12511W        W80729  37.294  10.186  11.211
12512W        W80730  27.567   7.315   3.192
12513W        W80731  11.888  38.298  12.607
12514W        W80732   3.413  27.096  10.627
12515W        W80733   7.318  30.626  11.563
12516W        W80734  31.076  30.175  14.520
12517W        W80735   9.183  43.459   4.822
12518W        W80736  34.191  44.098  12.432
12519W        W80737  29.709  22.552   4.098
12520W        W80738  40.398  34.459  12.407
12521W        W80739   8.163  31.435  12.414
12522W        W80740  44.287  13.626  14.992
12523W        W80741  21.287  27.064   0.403
12524W        W80742  29.820  36.476   3.150
12525W        W80743  10.923  17.751  12.108
12526W        W80744  44.312  40.855   1.717
12527W        W80745  43.121  26.649   1.886
12528W        W80746  32.562  22.207  11.193
12529W        W80747  42.065  44.975   2.792
12530W        W80748  27.916  39.572  10.643
12531W        W80749  42.768  32.824   3.317
12532W        W80750  20.760  28.683  14.300
12533W        W80751  36.786   6.988  10.497
12534W        W80752  18.548  32.695   4.614
12535W        W80753  34.017  37.122   3.692
12536W        W80754   2.013   3.666   4.513
12537W        W80755  32.283  31.619   2.898
12538W        W80756  22.448  26.435  12.466
12539W        W80757   2.287  24.014  13.084
12540W        W80758  17.183  24.138   2.746
12541W        W80759  17.754  18.957   1.337
12542W        W80760  28.883   4.202   0.374
12543W        W80761  21.391   8.164   2.889
12544W        W80762  22.026  28.190   3.659
12545W        W80763  13.489  44.839  12.634
12546W        W80764  32.270  31.851  12.506
12547W        W80765  13.738   1.848  12.619
12548W        W80766  33.987  15.612   2.788
12549W        W80767  20.654  44.223   3.591
12550W        W80768  18.696   8.438   1.416
12551W        W80769  11.402  28.054   4.228
12552W        W80770  28.714  15.535   4.076
12553W        W80771  25.520  14.005   3.184
12554W        W80772  26.659  19.489  13.446
12555W        W80773   4.708  29.645   2.174
12556W        W80774  30.398  44.260   4.020
12557W        W80775   1.882  41.187   0.024
12558W        W80776  38.566  23.143   4.462
12559W        W80777  16.843  21.607   0.677
12560W        W80778  19.628  23.472  14.370
12561W        W80779  36.765  42.143  12.967
12562W        W80780  37.533  16.073   3.417
12563W        W80781  25.920  29.091  11.179
12564W        W80782  33.991  36.138   3.764
12565W        W80783  22.041   1.948   0.740
12566W        W80784  34.060  39.566  13.515
12567W        W80785  27.112  17.253  14.494
12568W        W80786   0.916  13.426  14.945
12569W        W80787   8.470  24.744  12.638
12570W        W80788   3.454   1.897   0.083
12571W        W80789  37.436   6.790   1.879
12572W        W80790  34.634  38.449   4.056
12573W        W80791   1.925  40.281   2.125
12574W        W80792  22.941   5.927   3.662
12575W        W80793   5.754  37.481   3.640
12576W        W80794  38.533   4.527  11.043
12577W        W80795  34.081   4.462   3.556
12578W        W80796  40.251  21.366   3.346
12579W        W80797  28.498   0.737   2.259
12580W        W80798  17.100  29.876  13.893
12581W        W80799   0.670  43.279   1.409
12582W        W80800  26.819  42.555   1.824
12583W        W80801  34.484   1.805  10.680
12584W        W80802  19.255  15.069   0.910
12585W        W80803  29.714  30.049   1.920
12586W        W80804  15.310  30.161  13.973
12587W        W80805  10.507  30.410  10.187
12588W        W80806  11.899  36.576   4.101
12589W        W80807   5.563  12.318  12.858
12590W        W80808  42.804  33.532   3.516
12591W        W80809  31.729   4.960   1.958
12592W        W80810  34.036   4.756   5.491
12593W        W80811  20.621  39.070  10.696
12594W        W80812  41.291   5.834   3.258
12595W        W80813  13.298  41.113   0.264
12596W        W80814  16.251  10.726   2.928
12597W        W80815  25.150  37.809   3.222
12598W        W80816   6.418   4.201  12.430
12599W        W80817  21.749   8.327  14.197
12600W        W80818  40.510   7.844   4.686
12601W        W80819  38.384  22.281  14.486
12602W        W80820   6.212  39.940   2.739
12603W        W80821   8.889   2.230   4.492
12604W        W80822  43.747  36.064  14.308
12605W        W80823  15.134   7.428  12.089
12606W        W80824  28.369   3.897   9.893
12607W        W80825  25.907   6.672  13.549
12608W        W80826  35.542  10.341  12.506
12609W        W80827  26.957   6.934  14.991
12610W        W80828  12.271  21.870   4.953
12611W        W80829  24.897  36.655  12.487
12612W        W80830   6.250  18.804   4.069
12613W        W80831  12.142  27.930  11.037
12614W        W80832  42.859   9.151  13.800
12615W        W80833   4.422  27.007  12.579
12616W        W80834  36.726  24.089   2.478
12617W        W80835  19.054  37.703  11.056
12618W        W80836   5.297  32.745   4.692
12619W        W80837  43.531   5.408   4.795
12620W        W80838   9.920  27.452   1.871
12621W        W80839  14.355  29.927   4.742
12622W        W80840  26.685   7.690  11.558
12623W        W80841  15.725  28.130   0.851
12624W        W80842   4.877  18.773   5.255
12625W        W80843   8.248  44.217   3.780
12626W        W80844  24.384  32.380   1.693
12627W        W80845  37.927  11.835   2.698
12628W        W80846  22.036   5.990  13.439
12629W        W80847  17.649  32.918  13.404
12630W        W80848  28.462  12.942   0.943
12631W        W80849   7.720   3.319  10.421
12632W        W80850  37.804   4.505   4.919
12633W        W80851  40.566   7.458  13.778
12634W        W80852  37.356  26.084   4.235
12635W        W80853   2.966  33.689   3.831
12636W        W80854  32.907  10.679   2.569
12637W        W80855  22.215  19.700  12.906
12638W        W80856  37.576  33.246  11.520
12639W        W80857  35.735  11.626   3.433
12640W        W80858  28.620  43.998  10.648
12641W        W80859  13.687  16.357   1.799
12642W        W80860  21.476  12.681   3.107
12643W        W80861  32.908  19.725   2.844
12644W        W80862   9.732  13.815   2.202
12645W        W80863  30.440  25.780  12.972
12646W        W80864  26.810  35.105  14.383
12647W        W80865   4.999  38.570   0.418
12648W        W80866  12.297  24.251   3.213
12649W        W80867  26.155  39.732  10.290
12650W        W80868   5.177  43.069  13.950
12651W        W80869  13.169  11.832   1.376
12652W        W80870  18.745  27.490  10.947
12653W        W80871  44.850  26.963   2.652
12654W        W80872  44.376  40.161  11.697
12655W        W80873  42.413  14.597  12.083
12656W        W80874  10.620  41.491  13.804
12657W        W80875  24.810   7.603  11.137
12658W        W80876  11.030  33.762  10.774
12659W        W80877   5.632  23.729  13.128
12660W        W80878   9.379  23.113  14.089
12661W        W80879   1.044  44.487   2.098
12662W        W80880  28.624  20.736   4.535
12663W        W80881  35.196  32.740   4.081
12664W        W80882  43.365  27.974   4.668
12665W        W80883  37.739  15.736  13.568
12666W        W80884  37.414  36.910  13.614
12667W        W80885  22.074  13.783  12.243
12668W        W80886  32.663  35.343  14.320
12669W        W80887  25.679  37.331  13.262
12670W        W80888   9.794  16.220   1.922
12671W        W80889  10.775  21.794  14.727
12672W        W80890  10.086  34.875   1.366
12673W        W80891   4.235  39.718   1.777
12674W        W80892  14.249  20.596  13.927
12675W        W80893  20.734  41.337   4.600
12676W        W80894  40.288   5.881  11.172
12677W        W80895  31.162  19.460   4.154
12678W        W80896   3.521  27.664  14.835
12679W        W80897   9.375   4.275  10.635
12680W        W80898  28.730  39.343  13.842
12681W        W80899  18.189  39.672   2.651
12682W        W80900  26.448   1.043   1.843
12683W        W80901  31.155   5.860  14.791
12684W        W80902  23.216  10.467   3.709
12685W        W80903  41.313   2.506  10.619
12686W        W80904  42.717  23.819   3.287
12687W        W80905  37.415  39.502  12.043
12688W        W80906  40.785   8.359   4.459
12689W        W80907  33.469  25.362   3.250
12690W        W80908  24.102  12.309   2.846
12691W        W80909  10.599  21.639  12.209
12692W        W80910  31.973  37.269  10.394
12693W        W80911   7.864  11.593  12.894
12694W        W80912  27.598  32.642  14.670
12695W        W80913  38.887  38.015   4.722
12696W        W80914  38.069  12.601  11.069
12697W        W80915   6.913   2.962   0.810
12698W        W80916   6.502  25.018  13.452
12699W        W80917  13.818  34.933  12.375
12700W        W80918  13.084   5.825   4.351
12701W        W80919  30.542  28.027  14.299
12702W        W80920  29.585  24.569  10.263
12703W        W80921   5.758  17.347   0.838
12704W        W80922  38.948  12.203  11.151
12705W        W80923  31.220  19.265  11.109
12706W        W80924  38.000  33.230   0.379
12707W        W80925  23.923  15.251  14.952
12708W        W80926  26.467  29.436  12.809
12709W        W80927  43.477  26.456  13.852
12710W        W80928   0.204  31.563  10.755
12711W        W80929   7.980  18.911  11.060
12712W        W80930  44.961  10.903  10.986
12713W        W80931  42.555  30.216   1.077
12714W        W80932  43.377  18.975   2.397
12715W        W80933   8.687   4.828   3.585
12716W        W80934  31.507  32.982  13.643
12717W        W80935  35.901  17.215  13.769
12718W        W80936  21.619   2.464  10.667
12719W        W80937  19.269  13.987   1.817
12720W        W80938  33.658  18.577   3.689
12721W        W80939  10.762  26.551   0.156
12722W        W80940  11.015  10.748  10.744
12723W        W80941  27.118  26.172  14.487
12724W        W80942  33.852  11.835   0.439
12725W        W80943  13.260  44.431  14.399
12726W        W80944   1.512  36.906  12.568
12727W        W80945  26.166   2.527   2.802
12728W        W80946  14.171  26.223   0.809
12729W        W80947  27.379  11.431   2.700
12730W        W80948  30.667  15.915   1.026
12731W        W80949  25.927  40.350  10.332
12732W        W80950  40.747  19.395   1.885
12733W        W80951   1.502   0.214   2.403
12734W        W80952  24.699  35.318  11.139
12735W        W80953  40.882  15.042  12.058
12736W        W80954   3.265  28.847   0.310
12737W        W80955   1.716  27.042   0.866
12738W        W80956  22.947  20.852   4.942
12739W        W80957   2.930  35.468  12.976
12740W        W80958   1.348  25.037   2.897
12741W        W80959  40.153  26.899  13.479
12742W        W80960  38.918  32.126   0.286
12743W        W80961  11.961  39.084   3.748
12744W        W80962  37.450   5.916   3.839
12745W        W80963   2.435  11.606   1.336
12746W        W80964   0.056  42.998   2.831
12747W        W80965  33.628   3.180   3.137
12748W        W80966  15.815  33.305  11.935
12749W        W80967  36.400  24.216   0.225
12750W        W80968  37.770   5.061   3.637
12751W        W80969  31.591  23.055  12.085
12752W        W80970  30.144  15.669   3.253
12753W        W80971  29.266  25.481   0.182
12754W        W80972  28.580   7.249  14.090
12755W        W80973  13.579  31.593  14.035
12756W        W80974  22.701  19.323   9.811
12757W        W80975  34.589   7.336   0.719
12758W        W80976  29.562  31.892  14.406
12759W        W80977  44.143  39.833   4.097
12760W        W80978  30.028  31.012  11.971
12761W        W80979  31.905  19.575  14.478
12762W        W80980  42.462   6.493  13.987
12763W        W80981  34.973   9.082   4.551
12764W        W80982  40.249  29.939  11.044
12765W        W80983  37.419  44.373  14.557
12766W        W80984  37.876  41.238   4.229
12767W        W80985  19.566  17.627  10.742
12768W        W80986  34.484  30.404   5.120
12769W        W80987  27.488  37.183  14.123
12770W        W80988  28.549   3.772  12.437
12771W        W80989  23.062   5.095  13.353
12772W        W80990  27.523  14.254  12.447
12773W        W80991  42.737   5.979   0.972
12774W        W80992  20.456  10.149   0.374
12775W        W80993  21.014  12.357  12.196
12776W        W80994  41.340  22.741   4.043
12777W        W80995  35.511  36.798   3.136
12778W        W80996  30.030  10.020   4.525
12779W        W80997   7.726  26.950   0.900
12780W        W80998  38.574   7.945  13.541
12781W        W80999  43.497  15.542  11.575
12782W        W81000  43.612  35.579   4.168
12783W        W81001  24.046  28.201  12.609
12784W        W81002  36.534   3.881   0.209
12785W        W81003  19.214  41.670  11.498
12786W        W81004  14.825   0.393  14.473
12787W        W81005  34.064  15.620   2.186
12788W        W81006   1.138  39.910  13.439
12789W        W81007  21.494   9.007  13.819
12790W        W81008  22.225  15.579   2.747
12791W        W81009  37.765  33.100   4.689
12792W        W81010   9.921  17.025   0.471
12793W        W81011  15.216   6.208  12.719
12794W        W81012  38.024  32.187   3.693
12795W        W81013   4.801   5.757   3.291
12796W        W81014   2.309  12.767   3.716
12797W        W81015   7.815  36.991  11.311
12798W        W81016  41.391  43.727  14.806
12799W        W81017  37.959   5.761   3.020
12800W        W81018  21.703  31.852  12.968
12801W        W81019  14.343  24.588  14.724
12802W        W81020  17.397  10.551  14.543
12803W        W81021  27.023   4.203  12.561
12804W        W81022  27.229   3.996  12.137
12805W        W81023   6.435  12.073  14.284
12806W        W81024  34.134  19.007   4.176
12807W        W81025  30.246   9.684   3.563
12808W        W81026  29.997  27.632  14.499
12809W        W81027  11.601  25.163   4.041
12810W        W81028  36.560  41.306  11.576
12811W        W81029  18.330  25.080  14.352
12812W        W81030  18.038  13.648   3.143
12813W        W81031  43.846  39.353   3.390
12814W        W81032  32.188   0.028  12.140
12815W        W81033   2.980  25.718  14.921
12816W        W81034  31.512   7.246   3.862
12817W        W81035  15.956   5.245   1.395
12818W        W81036  26.686  30.416  11.156
12819W        W81037  15.318  34.030  12.920
12820W        W81038  25.564  42.208   1.216
12821W        W81039  37.587  19.095   0.488
12822W        W81040  12.145  34.395  12.743
12823W        W81041  19.482  33.775  12.023
12824W        W81042  29.384   1.946  10.256
12825W        W81043   6.403  32.991  12.639
12826W        W81044  20.144  20.933  10.224
12827W        W81045  22.558  14.074   2.025
12828W        W81046  24.562  23.307   0.374
12829W        W81047  25.612  43.694   4.185
12830W        W81048  16.479  28.674  13.040
12831W        W81049   6.067   0.852   3.755
12832W        W81050  39.140   1.476  10.586
12833W        W81051  11.199   2.966   4.243
12834W        W81052  27.933   6.425   1.310
12835W        W81053  10.696  26.067   2.390
12836W        W81054  15.473  33.550  13.111
12837W        W81055  22.804   2.982   4.094
12838W        W81056  10.821   5.463  14.901
12839W        W81057  13.598  19.717   0.046
12840W        W81058   8.490   8.216  10.757
12841W        W81059  32.046  31.589   2.208
12842W        W81060   3.750   9.839  11.370
12843W        W81061  36.384  30.678   3.694
12844W        W81062   5.104  42.370  13.507
12845W        W81063   3.492  41.446   1.305
12846W        W81064  39.068  12.872   1.774
12847W        W81065  42.022  41.002   1.965
12848W        W81066  13.154  16.002   4.755
12849W        W81067  18.517  42.430  12.321
12850W        W81068  23.500  41.008  13.311
12851W        W81069  17.133  38.643  14.054
12852W        W81070  24.038  15.803  14.194
12853W        W81071  38.384  40.118   1.319
12854W        W81072  38.770  14.342   0.926
12855W        W81073  25.602  42.667   4.940
12856W        W81074  33.692  26.487   3.583
12857W        W81075  35.947  12.690   0.925
12858W        W81076  38.162  22.319  11.555
12859W        W81077   3.515  24.004   4.008
12860W        W81078   1.275  36.867   0.535
12861W        W81079  15.313  13.896  10.233
12862W        W81080  41.406  32.084  11.656
12863W        W81081  18.113  36.140  11.156
12864W        W81082  39.906  19.308  13.892
12865W        W81083  42.342  34.958   3.227
12866W        W81084  18.604  34.096   3.539
12867W        W81085  44.260  12.118   3.904
12868W        W81086  14.721  38.203  14.193
12869W        W81087   1.719  15.576   4.174
12870W        W81088  16.142  15.208  11.320
12871W        W81089  33.367  13.399   1.684
12872W        W81090  32.156  17.301  12.467
12873W        W81091  38.784   8.702   1.306
12874W        W81092  30.406  33.356  11.082
12875W        W81093   9.637  36.193  14.013
12876W        W81094  20.932  17.730  10.746
12877W        W81095  41.107  41.320  11.978
12878W        W81096   4.445  40.703   0.697
12879W        W81097  41.723   1.716  11.565
12880W        W81098   7.477  21.238  14.028
12881W        W81099   4.726  26.006  12.051
12882W        W81100  23.016  13.998  11.965
12883W        W81101  24.959  16.040   4.269
12884W        W81102  17.076   7.843  12.578
12885W        W81103   6.031  44.213   5.304
12886W        W81104  39.532  43.685   3.796
12887W        W81105  41.359  35.766  11.939
12888W        W81106   1.278  34.613   1.857
12889W        W81107  23.131  26.892  12.875
12890W        W81108   6.790   6.139   2.828
12891W        W81109   0.340   7.365   0.715
12892W        W81110   7.334  17.174  13.907
12893W        W81111   5.936   7.147   3.532
12894W        W81112   6.614  21.764   0.435
12895W        W81113   8.269  37.936   0.242
12896W        W81114  27.954  32.490   2.358
12897W        W81115  27.900  25.187  11.915
12898W        W81116   8.874  25.699  12.608
12899W        W81117  24.703  34.102  14.912
12900W        W81118   0.904  12.081   0.897
12901W        W81119  30.159  17.716  13.025
12902W        W81120  26.902  31.009  13.458
12903W        W81121  37.300  13.427   2.267
12904W        W81122  25.915  27.595   0.847
12905W        W81123  39.399  10.206  12.545
12906W        W81124   4.887  35.261   1.644
12907W        W81125   7.160   6.398   3.658
12908W        W81126  14.408  31.402   0.752
12909W        W81127  35.237  19.050   1.527
12910W        W81128  23.648  13.320   2.871
12911W        W81129  23.487  29.467  13.623
12912W        W81130  20.947   3.802  12.546
12913W        W81131  37.025  44.969   0.595
12914W        W81132  37.892  41.844   3.374
12915W        W81133   1.702  19.218  13.860
12916W        W81134   3.841  23.211   5.093
12917W        W81135  33.350   5.774   4.725
12918W        W81136  20.285  27.304  14.532
12919W        W81137  10.672   5.518  14.352
12920W        W81138   1.374  43.633  12.233
12921W        W81139  19.675  42.772   4.528
12922W        W81140  35.958  14.302  12.880
12923W        W81141  31.560  39.116   2.751
12924W        W81142  43.542  28.061  13.045
12925W        W81143  21.482  11.270   0.876
12926W        W81144   9.267  36.512  12.027
12927W        W81145  39.072  35.460   1.284
12928W        W81146  27.098  37.657  14.982
12929W        W81147  20.604  37.316   5.194
12930W        W81148  32.540  36.247  14.334
12931W        W81149  14.823   1.871   0.908
12932W        W81150  40.038  11.624   3.656
12933W        W81151  36.320   9.274  13.572
12934W        W81152  29.652  28.002  14.349
12935W        W81153  18.664  42.071   4.579
12936W        W81154  15.630   1.285  10.265
12937W        W81155  11.233  28.287  14.356
12938W        W81156   7.789  12.323   2.870
12939W        W81157  11.386  13.426  14.733
12940W        W81158  17.635   6.767   0.747
12941W        W81159  38.786  44.953   4.437
12942W        W81160   8.530  14.889  11.710
12943W        W81161  30.680  18.165   1.151
12944W        W81162   1.739  29.376   2.392
12945W        W81163  28.961  31.500   2.305
12946W        W81164  37.812  23.215  14.327
12947W        W81165  17.202   6.804  11.460
12948W        W81166  11.113  20.700  12.545
12949W        W81167  29.483  12.124  12.616
12950W        W81168  23.002  17.731  10.639
12951W        W81169  32.331   5.163   1.386
12952W        W81170  35.781  38.909   1.458
12953W        W81171  15.312  21.299  14.711
12954W        W81172  24.501  13.735   4.427
12955W        W81173  26.982   0.339  11.587
12956W        W81174  39.785   3.791   0.736
12957W        W81175  26.759  44.796  13.868
12958W        W81176   9.755   7.890   1.332
12959W        W81177  29.695  29.036  10.787
12960W        W81178  31.656   9.744   3.401
12961W        W81179  40.047  27.477   0.379
12962W        W81180   9.534   8.282  14.838
12963W        W81181  28.049  32.148  10.554
12964W        W81182  33.920  42.584  13.817
12965W        W81183  14.736  10.295   3.556
12966W        W81184  34.345  30.863   1.999
12967W        W81185  23.146   2.683   2.172
12968W        W81186  10.748  13.086   2.700
12969W        W81187  28.109  26.787   4.378
12970W        W81188   8.653  19.709   4.815
12971W        W81189  22.610  30.128  14.412
12972W        W81190  40.304  12.101  11.514
12973W        W81191  22.475   9.841  13.378
12974W        W81192  10.047  27.444  14.957
12975W        W81193  19.503   3.876  10.520
12976W        W81194   7.841  12.219  10.783
12977W        W81195  19.224  39.930   1.212
12978W        W81196  32.603   7.527   1.116
12979W        W81197  26.932  18.138  12.551
12980W        W81198  37.565  29.965   3.734
12981W        W81199  44.774  27.173   3.193
12982W        W81200  10.351  16.297   2.691
12983W        W81201  28.086  13.679  13.765
12984W        W81202  39.903  44.611   3.777
12985W        W81203  39.841  22.096  14.233
12986W        W81204  26.150  37.008   2.419
12987W        W81205  33.825  32.837   2.336
12988W        W81206  16.650  35.565  14.313
12989W        W81207  38.641  38.813  11.189
12990W        W81208  30.122  14.646   1.732
12991W        W81209  34.359  23.023   3.214
12992W        W81210  31.997  22.808   2.598
12993W        W81211  32.929   0.301  11.515
12994W        W81212  40.507   8.923  13.088
12995W        W81213  19.083   5.657  10.680
12996W        W81214   7.097   1.712  12.434
12997W        W81215  31.459  18.356  11.786
12998W        W81216  19.800  35.057  11.587
12999W        W81217  12.129  43.936   9.995
13000W        W81218  39.131  19.406   2.441
13001W        W81219   2.748  16.232   0.003
13002W        W81220  12.706  25.329   2.850
13003W        W81221   7.659  31.453  12.528
13004W        W81222   1.318   4.473  14.189
13005W        W81223  24.723  34.921   2.108
13006W        W81224  20.817  35.290   2.296
13007W        W81225  42.981  21.275   4.533
13008W        W81226  30.650  16.745   3.066
13009W        W81227  38.002  10.778  13.338
13010W        W81228  23.330  34.093  10.252
13011W        W81229  28.425  24.913  12.146
13012W        W81230  39.045  18.727  10.653
13013W        W81231  15.135  13.474   4.006
13014W        W81232  40.996  40.032  13.546
13015W        W81233  10.699   2.708   3.605
13016W        W81234  19.531  11.709   0.820
13017W        W81235  43.955   2.906  12.811
13018W        W81236  11.682  24.479  11.912
13019W        W81237  41.046   3.452   1.702
13020W        W81238  31.132  19.726   3.281
13021W        W81239  15.816  28.237  14.950
13022W        W81240  17.678  19.314   4.568
13023W        W81241  38.942  12.822   2.713
13024W        W81242  43.365   2.045   1.335
13025W        W81243  32.937  27.654  14.738
13026W        W81244  37.392  21.570  13.926
13027W        W81245  35.875  36.668   1.827
13028W        W81246  24.095  35.649   1.215
13029W        W81247  14.424  17.346   2.175
13030W        W81248   7.875  27.457   1.793
13031W        W81249  36.191  34.376  11.582
13032W        W81250  21.978  25.067  13.464
13033W        W81251  17.184  28.486   3.057
13034W        W81252  11.852  14.047   1.420
13035W        W81253  37.394  19.334  12.968
13036W        W81254  17.181  36.789   0.398
13037W        W81255  23.501  16.548  13.553
13038W        W81256  39.734  38.315   2.189
13039W        W81257  16.630   6.525   3.106
13040W        W81258  37.631  43.458   3.601
13041W        W81259  31.117  37.789   1.960
13042W        W81260  22.037   2.957  14.276
13043W        W81261   3.010  22.269  10.873
13044W        W81262  33.429   0.288  12.445
13045W        W81263  17.103  23.000  13.439
13046W        W81264  29.101  42.771  10.700
13047W        W81265  25.948  44.327  10.184
13048W        W81266  22.503  17.407   4.120
13049W        W81267   4.431  31.438  13.938
13050W        W81268   0.405   2.268   3.325
13051W        W81269  14.145   7.203  14.294
13052W        W81270  28.191   5.471   2.735
13053W        W81271  12.734   0.916   4.083
13054W        W81272  33.517  37.568   5.077
13055W        W81273  36.895  41.484   1.115
13056W        W81274   3.424  19.318  12.436
13057W        W81275  18.400  26.422  14.478
13058W        W81276  30.117  35.599   4.878
13059W        W81277  34.451   5.081  14.857
13060W        W81278  35.041  32.907  11.555
13061W        W81279  30.270  24.938   2.315
13062W        W81280  11.916  28.506  12.302
13063W        W81281   5.771   0.509   2.956
13064W        W81282  30.691  41.604   0.468
13065W        W81283  44.313  19.069   4.424
13066W        W81284  14.772  10.598  13.901
13067W        W81285  36.377  32.832   3.293
13068W        W81286  13.044  25.712   0.329
13069W        W81287   3.153   8.300  12.539
13070W        W81288   1.373  34.869   0.255
13071W        W81289   1.187  29.646  11.033
13072W        W81290   6.917  22.204   3.303
13073W        W81291  35.548  33.366  13.327
13074W        W81292  12.353  34.360   2.689
13075W        W81293   7.596  24.153   0.211
13076W        W81294  36.294  13.639   0.606
13077W        W81295  21.601  38.319   4.801
13078W        W81296  22.751  17.529  14.031
13079W        W81297  18.337   9.644  14.693
13080W        W81298   6.644  20.235  11.107
13081W        W81299   3.674  27.153  13.629
13082W        W81300   1.402  35.081   4.089
13083W        W81301  10.339  35.968  13.561
13084W        W81302  14.185  37.351  11.735
13085W        W81303  17.297  40.488   4.029
13086W        W81304  25.640  33.541   5.051
13087W        W81305  24.476   0.262  12.595
13088W        W81306  35.728  23.698   1.292
13089W        W81307  23.507  29.933   0.004
13090W        W81308  40.024  10.771  14.909
13091W        W81309  32.948  21.689   0.936
13092W        W81310  14.311  21.592  11.162
13093W        W81311   8.319  33.815  13.025
13094W        W81312  31.813   6.789  14.362
13095W        W81313   7.464  22.509   4.242
13096W        W81314   4.319  38.605   4.545
13097W        W81315  36.065  18.527  14.584
13098W        W81316   6.797   6.494  14.853
13099W        W81317  23.643   5.472   4.554
13100W        W81318   7.881   8.103  11.106
13101W        W81319  24.213  19.223   4.119
13102W        W81320  44.179  25.702   3.103
13103W        W81321  28.410  40.055   1.906
13104W        W81322  26.442  39.496  14.013
13105W        W81323   1.729  31.370  10.648
13106W        W81324  33.976  21.964   2.243
13107W        W81325  30.359  34.617  14.471
13108W        W81326   3.287  29.183  12.092
13109W        W81327  33.502  42.166  11.616
13110W        W81328  37.857  30.410  13.862
13111W        W81329  14.155   4.815   2.257
13112W        W81330   6.256  19.384  10.261
13113W        W81331   6.330  17.068  14.811
13114W        W81332  10.258  44.949   3.645
13115W        W81333  33.170   2.014   1.357
13116W        W81334  20.000  42.425   1.254
13117W        W81335   0.032   5.973   3.200
13118W        W81336  10.243   1.269  13.440
13119W        W81337  11.689  26.557   4.634
13120W        W81338  26.558  36.873  10.706
13121W        W81339  33.418  14.057   3.877
13122W        W81340   8.788  42.902  11.512
13123W        W81341   6.544   0.310   0.034
13124W        W81342  41.066  44.746   2.821
13125W        W81343  35.053   8.419  10.591
13126W        W81344  18.157  16.833   0.439
13127W        W81345  19.768  19.785  12.100
13128W        W81346  38.539  42.588  13.327
13129W        W81347  27.195  38.921  11.953
13130W        W81348  30.428  38.277   3.710
13131W        W81349  33.538  37.232  10.327
13132W        W81350   1.858  24.951  14.796
13133W        W81351  34.968  43.382   3.271
13134W        W81352  19.716  30.523   4.616
13135W        W81353  27.385   3.729   0.847
13136W        W81354  44.277   4.939   3.232
13137W        W81355  17.076   7.276  10.618
13138W        W81356  29.133  28.529  12.003
13139W        W81357  42.920  30.847  12.022
13140W        W81358  13.135   7.043   5.024
13141W        W81359  31.485  44.481  12.157
13142W        W81360  12.325  17.720  11.643
13143W        W81361  43.472  17.164   4.472
13144W        W81362  33.358   3.253  13.400
13145W        W81363  23.351  35.362  10.572
13146W        W81364  38.679  15.798   3.747
13147W        W81365  39.647  28.318  13.868
13148W        W81366  29.097  15.360  12.012
13149W        W81367  21.117   6.341   1.223
13150W        W81368  18.158  10.319   2.193
13151W        W81369  33.330  43.797   0.379
13152W        W81370  23.098  27.905  14.481
13153W        W81371  16.210  20.625  13.356
13154W        W81372  13.324   8.401  11.098
13155W        W81373  22.522   4.701   1.371
13156W        W81374  22.954  28.503   3.974
13157W        W81375   5.750  40.755  13.537
13158W        W81376  43.542  36.160   3.087
13159W        W81377  35.994  26.010   4.432
13160W        W81378   3.831  34.551  10.616
13161W        W81379  25.886  30.360  11.553
13162W        W81380   0.732  21.163   3.540
13163W        W81381  33.417  32.057  10.697
13164W        W81382  39.768  25.092  12.637
13165W        W81383  38.605  16.265  13.066
13166W        W81384  21.145  35.524   0.664
13167W        W81385  30.960   7.246  10.316
13168W        W81386  31.539   1.733   1.879
13169W        W81387   5.304  10.051   2.838
13170W        W81388  15.093  42.853   2.852
13171W        W81389  43.301  40.311  11.848
13172W        W81390   3.265  21.498  11.208
13173W        W81391  43.272  40.308  11.023
13174W        W81392  21.149  18.616   2.837
13175W        W81393   6.219  10.816  14.942
13176W        W81394  32.068  29.757  11.865
13177W        W81395  42.064  15.717  10.701
13178W        W81396  34.041  29.310   1.279
13179W        W81397  43.372  39.069  10.516
13180W        W81398   4.364  42.407  11.606
13181W        W81399  25.218   5.295   4.794
13182W        W81400   4.305  37.482   1.406
13183W        W81401  31.608   5.032  14.413
13184W        W81402  29.116   1.808   0.151
13185W        W81403  34.016  16.660  14.733
13186W        W81404   5.198  25.967   1.184
13187W        W81405   7.582  14.326   4.972
13188W        W81406  22.213   5.151   3.777
13189W        W81407  43.397  16.599  13.297
13190W        W81408  25.797  44.210   3.389
13191W        W81409  34.396  10.564   1.348
13192W        W81410  19.292   7.675   1.750
13193W        W81411  21.050  30.190  14.282
13194W        W81412  19.168  20.041  13.575
13195W        W81413   6.390  21.293  13.025
13196W        W81414  41.707  17.582  14.819
13197W        W81415  42.970   1.732   1.444
13198W        W81416  24.981   9.435   0.368
13199W        W81417  16.317  26.535   1.925
13200W        W81418  22.959  26.063  13.499
13201W        W81419  20.863  10.590  11.017
13202W        W81420  14.199  41.792   9.823
13203W        W81421  16.307  25.438  13.916
13204W        W81422  21.515  10.117  13.073
13205W        W81423  31.611   7.456   1.873
13206W        W81424  10.383  28.032  11.126
13207W        W81425  24.126  17.394   5.001
13208W        W81426   2.413  25.466  13.553
13209W        W81427  13.429  17.955  11.157
13210W        W81428  20.666  18.155   0.355
13211W        W81429  42.069   2.724  13.499
13212W        W81430  20.722  19.761  14.067
13213W        W81431   0.770  35.494  14.523
13214W        W81432   9.252  29.446  12.911
13215W        W81433  29.692  30.453   9.720
13216W        W81434  35.909  41.301   4.096
13217W        W81435  24.271   6.681  11.489
13218W        W81436  32.229  15.248  13.510
13219W        W81437  22.355  21.072  14.324
13220W        W81438  34.502  23.127  13.003
13221W        W81439  16.181  28.642  14.913
13222W        W81440  10.630  37.821   3.276
13223W        W81441  28.159  10.983   3.836
13224W        W81442  43.298  40.760   0.832
13225W        W81443  25.387  10.151  13.530
13226W        W81444  21.414  17.238   2.730
13227W        W81445  26.653  27.966   0.493
13228W        W81446   6.678   8.175   2.237
13229W        W81447  11.789  36.023   1.399
13230W        W81448   6.288  18.892   0.387
13231W        W81449  14.029   1.244   1.420
13232W        W81450   5.299  35.624   0.795
13233W        W81451  38.475  43.440  12.875
13234W        W81452  28.133   7.714  13.683
13235W        W81453  37.562  21.928   3.671
13236W        W81454  12.676  15.233  13.062
13237W        W81455  17.522   1.474   2.799
13238W        W81456  37.004  13.130  14.556
13239W        W81457   5.177  43.535  14.784
13240W        W81458  26.172  44.426  14.280
13241W        W81459   9.843  17.657  10.323
13242W        W81460  15.694  39.524   2.175
13243W        W81461  32.355   8.473  12.078
13244W        W81462   6.293  25.949   4.743
13245W        W81463  12.194  10.720  14.397
13246W        W81464  39.849   1.855   1.496
13247W        W81465  31.626  16.719   3.633
13248W        W81466  44.376  23.216   3.195
13249W        W81467   9.228  18.441   1.924
13250W        W81468  27.025  34.560   3.642
13251W        W81469   2.716   6.064  11.689
13252W        W81470   9.879  36.846   2.857
13253W        W81471  34.522  34.912   4.040
13254W        W81472   1.527  38.773  11.998
13255W        W81473  15.244  28.432  14.867
13256W        W81474   0.073   9.892  10.988
13257W        W81475  25.086  14.985   3.462
13258W        W81476  10.237   6.493   0.351
13259W        W81477   1.180  30.999  11.753
13260W        W81478  20.649   8.394  10.634
13261W        W81479  34.179   4.060  14.604
13262W        W81480   8.923  23.484   2.855
13263W        W81481  44.345  28.248   4.371
13264W        W81482   7.716   7.627   4.283
13265W        W81483  44.343  38.007  13.231
13266W        W81484   4.385  26.975  11.511
13267W        W81485   3.950   0.759   1.335
13268W        W81486  26.235  36.079  10.653
13269W        W81487  34.347   5.780   0.919
13270W        W81488  35.010   7.898  10.519
13271W        W81489  33.595  14.816  14.679
13272W        W81490  36.276  27.200   1.917
13273W        W81491  27.641   8.140  12.486
13274W        W81492  28.105  20.807  14.098
13275W        W81493   3.725   5.340   2.265
13276W        W81494  17.130  33.379  14.385
13277W        W81495  22.861   9.236   1.318
13278W        W81496   8.279  34.541  14.565
13279W        W81497   7.268  41.869   3.901
13280W        W81498  12.735  22.955   3.219
13281W        W81499   8.411  29.024  11.637
13282W        W81500  12.564  30.378   4.673
13283W        W81501  22.972  38.463   4.617
13284W        W81502  24.205  34.702   0.384
13285W        W81503  39.445   5.969  14.817
13286W        W81504  30.784  35.150   1.369
13287W        W81505  12.140  43.018  12.457
13288W        W81506  43.166  18.262   4.730
13289W        W81507  32.097  18.745   2.204
13290W        W81508  15.764  33.841  11.051
13291W        W81509   4.922  14.736  13.712
13292W        W81510  40.936  11.258   4.669
13293W        W81511   9.405  30.143   1.797
13294W        W81512   6.959  18.976  13.697
13295W        W81513   6.838  22.933  11.620
13296W        W81514  20.193  42.281  12.901
13297W        W81515  27.158  35.033  13.189
13298W        W81516  30.061   6.618  13.799
13299W        W81517  25.760   4.862  14.317
13300W        W81518   8.907  42.039  11.968
13301W        W81519  31.465   3.947  14.293
13302W        W81520   7.194  43.812  13.621
13303W        W81521  36.093  15.271   2.369
13304W        W81522  30.658   0.645  10.270
13305W        W81523  15.267  29.919   4.188
13306W        W81524  32.039  20.102   3.808
13307W        W81525  10.565  39.297  11.463
13308W        W81526  10.183  19.708   4.630
13309W        W81527  38.253  24.500   0.306
13310W        W81528   5.566  37.470  11.468
13311W        W81529  14.259  34.171  14.785
13312W        W81530   4.728  39.491   2.765
13313W        W81531  32.641  25.421   5.217
13314W        W81532  33.997   5.599  12.025
13315W        W81533  25.061  19.520  12.088
13316W        W81534  28.107  43.368   1.731
13317W        W81535  43.647  10.845  12.554
13318W        W81536   9.650  16.290  11.110
13319W        W81537   5.609  16.020  14.401
13320W        W81538  36.502  12.545  13.998
13321W        W81539  24.541  21.584  10.512
13322W        W81540  40.362  43.221  10.755
13323W        W81541  19.436  43.847  14.898
13324W        W81542  44.040  40.342  14.720
13325W        W81543   0.299  29.576  13.452
13326W        W81544  22.763  28.741  14.723
13327W        W81545  44.896   3.212  12.359
13328W        W81546  33.190  19.965   0.014
13329W        W81547   0.360  38.470   1.922
13330W        W81548  38.513  31.208  12.972
13331W        W81549  21.501  19.532  14.380
13332W        W81550  15.598  34.430  13.608
13333W        W81551   7.877   2.488   0.736
13334W        W81552  28.470  19.056   2.818
13335W        W81553  34.393  30.905   0.247
13336W        W81554  26.176  36.036   4.321
13337W        W81555  35.798  22.953   4.094
13338W        W81556   7.400  32.882   1.664
13339W        W81557  14.751  25.811  10.987
13340W        W81558  44.523   6.319   1.242
13341W        W81559  23.228  35.264  14.299
13342W        W81560  17.514  14.097  13.924
13343W        W81561   9.265  44.927  12.119
13344W        W81562  14.859  40.899  10.495
13345W        W81563  24.026  30.432  12.138
13346W        W81564  39.426  33.879  12.112
13347W        W81565  37.658  34.017  13.356
13348W        W81566  29.484   1.643   2.307
13349W        W81567  34.435  15.275  14.038
13350W        W81568  36.291  14.569  11.462
13351W        W81569  10.216  26.570  11.593
13352W        W81570  25.907  28.826   1.910
13353W        W81571  39.858  19.993  11.424
13354W        W81572  15.722  30.199  14.498
13355W        W81573  19.677   9.395  13.601
13356W        W81574   5.322   7.837   2.305
13357W        W81575  31.537  10.752   2.478
13358W        W81576  29.021  36.638   0.183
13359W        W81577  41.003  22.804  11.206
13360W        W81578  41.413  20.164   0.230
13361W        W81579  14.295  30.956  10.382
13362W        W81580  20.297  38.327   2.774
13363W        W81581  29.547  41.382  13.655
13364W        W81582  20.214  29.037  13.875
13365W        W81583  43.086   6.622  12.270
13366W        W81584  29.045  37.626   3.783
13367W        W81585  27.560  27.845   0.894
13368W        W81586  24.082   2.146  11.563
13369W        W81587   6.843  30.194  11.569
13370W        W81588  17.727   7.752   0.887
13371W        W81589  38.336  27.988   1.172
13372W        W81590  28.639  15.234  11.800
13373W        W81591  32.503  44.397  11.686
13374W        W81592  25.640   1.280   0.896
13375W        W81593  11.877  37.753  14.337
13376W        W81594  29.021  19.171   2.764
13377W        W81595  15.141  33.845   3.289
13378W        W81596  36.830  28.944  13.967
13379W        W81597   2.365  23.665  11.906
13380W        W81598  18.690  37.184  10.594
13381W        W81599  22.234  16.063  10.667
13382W        W81600  29.876  14.968  13.523
13383W        W81601  17.792  37.085   1.248
13384W        W81602   1.065  40.860  11.170
13385W        W81603   5.932  10.138  12.452
13386W        W81604  34.493  20.634   0.148
13387W        W81605  15.195  42.177   4.370
13388W        W81606  40.839  23.326  12.089
13389W        W81607  40.121  15.702   3.498
13390W        W81608  12.330   0.923   2.270
13391W        W81609  31.241  14.851   0.391
13392W        W81610  41.824  14.088  12.299
13393W        W81611   9.027  32.173  14.114
13394W        W81612  23.819  11.636   1.818
13395W        W81613  36.130  28.484   2.249
13396W        W81614  24.408  34.422  11.886
13397W        W81615  13.751   0.576  11.984
13398W        W81616   3.263   0.524   3.157
13399W        W81617  36.772  22.528  13.523
13400W        W81618   2.253  35.988  11.693
13401W        W81619  18.621  40.607   2.305
13402W        W81620  28.031  31.432   4.615
13403W        W81621   0.178   2.261   0.209
13404W        W81622  25.509   0.976  14.258
13405W        W81623  21.157  43.080   3.854
13406W        W81624   8.813  12.919   1.990
13407W        W81625  16.187  43.005   4.108
13408W        W81626   7.730   5.355  12.688
13409W        W81627  23.556  36.479   1.442
13410W        W81628  41.845  25.634  10.578
13411W        W81629  26.007   2.902  11.128
13412W        W81630   8.612  31.331   0.735
13413W        W81631  30.308  36.848  13.085
13414W        W81632   6.152   1.775  14.952
13415W        W81633  18.373  25.294   3.263
13416W        W81634  39.426  26.147  14.458
13417W        W81635  40.472  20.697  11.282
13418W        W81636  29.205  20.685  13.117
13419W        W81637  30.193   6.833   2.676
13420W        W81638  17.835  18.776  12.874
13421W        W81639  22.320  10.357  10.470
13422W        W81640  22.272  21.190  13.415
13423W        W81641   4.353  22.430   0.173
13424W        W81642   2.429  28.378  13.258
13425W        W81643  41.403  23.227   3.319
13426W        W81644  13.885  18.577   2.812
13427W        W81645   7.445  32.867  13.384
13428W        W81646  12.922  15.179  13.518
13429W        W81647  40.115  19.584   3.261
13430W        W81648  30.371  41.293  12.769
13431W        W81649  43.888  23.104  13.697
13432W        W81650  41.867  38.026  10.854
13433W        W81651  40.408   5.531   1.288
13434W        W81652  14.164   7.518   0.784
13435W        W81653  21.005  40.956  12.916
13436W        W81654  11.667  29.567   0.947
13437W        W81655  19.173   4.757  10.877
13438W        W81656  19.335   7.450   0.905
13439W        W81657  14.293  22.255  11.758
13440W        W81658  31.538  12.924   2.425
13441W        W81659  31.052  35.976  11.661
13442W        W81660  19.626  25.120   3.879
13443W        W81661  31.677  33.585  10.662
13444W        W81662   8.377  11.485   4.250
13445W        W81663  12.880  36.944   2.191
13446W        W81664  18.774  33.058  10.313
13447W        W81665  42.871  14.248  14.123
13448W        W81666  23.983  19.630   1.339
13449W        W81667  30.321  32.626  14.423
13450W        W81668  37.783  24.067  11.694
13451W        W81669  35.981  44.331   4.777
13452W        W81670  42.478  25.289  11.888
13453W        W81671   4.624  33.558   0.068
13454W        W81672  14.132  12.376  11.264
13455W        W81673  39.989  41.974  10.626
13456W        W81674  26.488  14.570   1.273
13457W        W81675  13.963   1.937   3.029
13458W        W81676  38.359  25.221   0.376
13459W        W81677  38.512  14.584   2.662
13460W        W81678  20.664  27.547  11.982
13461W        W81679  42.229  12.201  11.560
13462W        W81680  25.354   6.176   2.134
13463W        W81681   9.423  13.410  11.064
13464W        W81682  21.118  42.863   2.264
13465W        W81683  36.539  18.307  10.781
13466W        W81684   6.707  29.238   2.850
13467W        W81685  42.893  31.011   1.651
13468W        W81686  30.148  35.817  10.717
13469W        W81687  17.283  18.540   1.041
13470W        W81688  14.879  23.561  13.617
13471W        W81689  35.063  37.020   4.396
13472W        W81690  15.351  43.982  11.825
13473W        W81691  24.996  11.908  11.049
13474W        W81692  42.861  28.957  13.819
13475W        W81693  23.625  19.726  14.646
13476W        W81694   0.143  37.148  13.805
13477W        W81695  27.947  12.822   4.958
13478W        W81696   7.568   4.069   3.240
13479W        W81697  11.494   8.203  10.151
13480W        W81698  19.696  27.957   3.630
13481W        W81699  15.735  12.348   2.374
13482W        W81700  28.568  20.620   0.473
13483W        W81701  29.654  13.221  12.991
13484W        W81702  37.479  29.495   4.518
13485W        W81703   3.326   8.375   3.654
13486W        W81704  31.005   4.022   0.440
13487W        W81705  17.405  21.573  11.665
13488W        W81706  15.819  30.733   1.446
13489W        W81707  26.505  19.778  11.734
13490W        W81708  43.487   0.646   1.713
13491W        W81709  10.064  33.364   1.443
13492W        W81710  31.592   0.714   3.338
13493W        W81711   8.465  24.985  13.461
13494W        W81712   1.038  42.230   3.443
13495W        W81713  27.933   2.986   0.270
13496W        W81714  24.240  27.078   0.443
13497W        W81715  26.277  19.820   4.368
13498W        W81716  21.217   4.912  11.503
13499W        W81717  22.068  12.912  11.948
13500W        W81718   1.652   6.277  13.585
13501W        W81719   8.342  12.413   4.451
13502W        W81720  34.936  32.588  12.454
13503W        W81721  11.743   2.893  11.894
13504W        W81722  29.170  31.004   4.178
13505W        W81723  13.734  32.605   1.217
13506W        W81724  19.605  17.891   3.808
13507W        W81725  21.184  19.535  11.929
13508W        W81726  22.954  11.339   4.689
13509W        W81727  44.018  17.626   1.310
13510W        W81728  33.982  34.307  12.534
13511W        W81729   9.579  26.888  14.338
13512W        W81730  31.641   6.740  13.015
13513W        W81731  21.301  13.592   0.880
13514W        W81732  17.670   4.265   1.261
13515W        W81733   4.857  35.520   3.120
13516W        W81734  13.633  41.585   4.629
13517W        W81735  36.665  14.779  14.629
13518W        W81736  41.565  42.848   4.065
13519W        W81737   9.710  44.861  11.800
13520W        W81738  20.968  35.145  14.305
13521W        W81739   2.730  25.168  11.553
13522W        W81740  44.916  33.549   1.193
13523W        W81741   1.120   3.302   4.227
13524W        W81742   2.050   6.866   4.715
13525W        W81743  14.560  14.041   0.301
13526W        W81744  16.343   8.564   3.028
13527W        W81745  41.035  19.327  12.569
13528W        W81746   7.690  40.048   2.714
13529W        W81747  10.638  27.157   0.921
13530W        W81748  10.238   2.798  11.425
13531W        W81749  17.630  32.859   4.217
13532W        W81750  17.839  22.551  11.170
13533W        W81751  23.130  35.525   1.737
13534W        W81752  10.543  10.699   3.689
13535W        W81753  10.326   0.109  14.829
13536W        W81754  30.586  43.969   4.420
13537W        W81755  19.135  26.110   0.838
13538W        W81756  10.641   0.212  12.572
13539W        W81757  12.235  32.865   0.885
13540W        W81758  36.944  10.188  12.180
13541W        W81759  29.129  28.155  13.567
13542W        W81760   4.785  35.745   1.520
13543W        W81761  12.386  43.903  12.105
13544W        W81762  26.215  42.820  12.565
13545W        W81763  42.692  43.796  13.005
13546W        W81764  35.099   5.839   3.237
13547W        W81765  19.786  15.667   4.213
13548W        W81766   5.859  37.714   2.597
13549W        W81767  39.426  30.145   4.130
13550W        W81768  20.343  22.276   2.152
13551W        W81769   0.762   1.537  13.488
13552W        W81770  39.713   6.272  11.612
13553W        W81771  35.577  41.791   4.080
13554W        W81772  43.522  14.470   4.896
13555W        W81773  17.559  41.417   4.742
13556W        W81774  27.426   9.336   2.168
13557W        W81775   5.602  34.311  10.582
13558W        W81776  17.748  30.704  12.996
13559W        W81777  10.221  25.117   3.893
13560W        W81778  43.118   7.397  10.644
13561W        W81779  15.187  16.084   0.329
13562W        W81780  39.336  30.349  13.833
13563W        W81781  30.883  43.247  12.623
13564W        W81782   6.923  39.931   9.990
13565W        W81783   3.422  28.870   2.680
13566W        W81784   1.587  37.979   2.083
13567W        W81785  28.358  17.440   5.452
13568W        W81786  24.922  34.285  11.885
13569W        W81787  26.476  25.050  11.096
13570W        W81788  38.284  29.648   0.275
13571W        W81789  30.450  11.571   3.323
13572W        W81790   5.292   6.184  13.512
13573W        W81791   9.835   8.537  12.509
13574W        W81792  16.572  32.158  13.064
13575W        W81793  23.787   0.308  14.517
13576W        W81794  12.496  15.280  14.921
13577W        W81795   2.823  30.423  11.633
13578W        W81796  32.487   4.592  12.438
13579W        W81797  15.571   9.381  12.496
13580W        W81798  23.512  13.223   0.771
13581W        W81799  17.640  35.323  11.200
13582W        W81800  33.330   8.779   2.178
13583W        W81801  29.658  19.969  11.654
13584W        W81802  38.791   8.606   3.623
13585W        W81803  38.588  33.585   1.407
13586W        W81804  20.034  20.968  11.712
13587W        W81805  35.805  36.016   4.017
13588W        W81806   6.506  38.845  11.036
13589W        W81807  37.742  20.946  13.886
13590W        W81808  12.759   0.781   3.214
13591W        W81809  19.543  27.344  12.648
13592W        W81810   0.923  44.804  10.989
13593W        W81811   3.664  21.421   3.975
13594W        W81812  17.308  31.535  12.143
13595W        W81813  14.201  16.113   2.557
13596W        W81814   6.335   9.834   1.195
13597W        W81815   2.434  28.015   3.825
13598W        W81816  18.401   7.825   4.673
13599W        W81817  22.239   3.806  10.647
13600W        W81818  29.567   8.836  11.209
13601W        W81819   0.843   7.339   0.183
13602W        W81820   9.236  39.079   0.709
13603W        W81821   2.652  25.717   1.987
13604W        W81822  38.121  15.607   0.545
13605W        W81823  23.158  33.893   0.183
13606W        W81824   0.860  44.707   3.061
13607W        W81825  25.757  20.067  12.049
13608W        W81826   6.424   1.910  11.797
13609W        W81827  26.664  24.518   2.879
13610W        W81828  25.865  42.998  14.745
13611W        W81829  11.102  31.140   0.288
13612W        W81830  18.614  19.041  13.075
13613W        W81831  16.040   7.671  14.389
13614W        W81832  12.878   3.107   2.790
13615W        W81833  41.450  18.846  10.886
13616W        W81834   8.641  42.593  13.596
13617W        W81835   5.660  35.997   0.775
13618W        W81836   9.948  35.448  12.436
13619W        W81837  27.060  32.035   0.245
13620W        W81838  28.172  39.086   1.487
13621W        W81839  12.607  36.070  14.906
13622W        W81840   3.476  14.734   2.315
13623W        W81841  23.660  20.444   3.190
13624W        W81842  29.890   5.541   4.987
13625W        W81843   2.485  40.454  13.388
13626W        W81844  30.104  13.208  11.158
13627W        W81845  15.576  42.318  10.679
13628W        W81846   5.360  29.493   0.443
13629W        W81847  12.876  15.075   0.277
13630W        W81848  32.981  40.544   1.773
13631W        W81849   2.863  11.681  10.869
13632W        W81850   3.945   5.149  12.386
13633W        W81851  17.068   2.049  13.984
13634W        W81852   2.306   4.935  14.026
13635W        W81853   1.014  11.373   1.467
13636W        W81854   6.159  18.574  12.001
13637W        W81855  15.410  15.180  14.160
13638W        W81856  17.822   8.328  12.907
13639W        W81857  27.906  13.960  12.254
13640W        W81858  11.043   9.576  12.528
13641W        W81859  41.887  16.208  14.086
13642W        W81860  17.014  18.237   2.287
13643W        W81861   9.618  36.149   1.345
13644W        W81862  25.050  14.837  13.991
13645W        W81863  22.518  30.004  13.263
13646W        W81864  40.235  37.512  14.663
13647W        W81865  28.497  29.886  12.573
13648W        W81866   1.717  14.573  14.416
13649W        W81867  25.253  37.820   4.482
13650W        W81868   6.370  10.340  11.934
13651W        W81869  43.234  42.831  10.307
13652W        W81870  26.166  24.703  13.890
13653W        W81871  14.981  17.089  11.969
13654W        W81872  29.496  16.192   0.197
13655W        W81873  14.717   2.162   5.171
13656W        W81874  12.323  30.541  14.518
13657W        W81875  10.741   5.784  12.490
13658W        W81876   0.400  20.608   2.927
13659W        W81877   0.958  44.364  12.206
13660W        W81878  44.821  10.316  14.915
13661W        W81879  12.870  11.090   0.020
13662W        W81880  19.126  34.287   0.909
13663W        W81881  30.182   8.641  11.746
13664W        W81882  32.004  26.430  13.471
13665W        W81883  15.183  23.744   4.202
13666W        W81884  31.910  35.596   2.166
13667W        W81885  42.728  12.144  14.652
13668W        W81886  32.717  24.433   1.255
13669W        W81887   4.438  39.444   3.204
13670W        W81888  32.169  36.667  11.220
13671W        W81889   2.686   1.415  11.104
13672W        W81890   0.244  24.703  11.103
13673W        W81891   3.797   9.475   0.200
13674W        W81892  19.124  30.105  14.471
13675W        W81893  25.570  32.435   3.204
13676W        W81894  30.130  23.546   3.592
13677W        W81895  13.081  12.307   1.518
13678W        W81896  14.235   7.354   0.296
13679W        W81897  39.520  20.957   0.529
13680W        W81898  19.758  25.464  14.474
13681W        W81899   6.777  34.608   2.551
13682W        W81900  44.530  17.246  12.627
13683W        W81901   9.669  35.434  12.878
13684W        W81902   1.492  40.600  11.371
13685W        W81903  18.573  18.009  11.567
13686W        W81904  24.452  34.886  12.365
13687W        W81905   8.784  31.095  12.168
13688W        W81906   4.965  16.263  12.066
13689W        W81907   4.265  41.916  11.424
13690W        W81908  29.523  32.729  13.369
13691W        W81909  43.379  44.540  12.928
13692W        W81910  34.529   9.782   0.746
13693W        W81911  12.046  10.630   1.047
13694W        W81912  27.732  12.412   2.766
13695W        W81913  27.291   7.437   4.211
13696W        W81914  39.094  44.683   4.822
13697W        W81915  23.172  15.763   0.217
13698W        W81916  37.051  26.369  11.042
13699W        W81917  18.702  33.811  12.941
13700W        W81918  21.709  18.711   1.651
13701W        W81919  12.493  25.916  13.051
13702W        W81920  40.567  12.008  12.895
13703W        W81921  19.045   3.280   5.055
13704W        W81922  37.881  15.307   1.630
13705W        W81923  26.449  31.030  11.681
13706W        W81924  11.402  39.555  11.079
13707W        W81925  26.414   3.295  14.305
13708W        W81926  36.172   3.328   1.209
13709W        W81927  33.795  42.002   4.484
13710W        W81928   0.679  33.056   1.394
13711W        W81929  43.870  40.778   1.985
13712W        W81930   2.757  31.357   3.673
13713W        W81931  38.232   4.394  13.914
13714W        W81932  35.045   9.903   0.721
13715W        W81933  19.675  37.241  12.050
13716W        W81934   8.259  13.963   4.656
13717W        W81935   3.938   5.827   2.305
13718W        W81936  32.371  29.928   4.926
13719W        W81937  38.336  44.465  13.504
13720W        W81938  28.124  11.772  11.276
13721W        W81939   4.829  19.741  10.619
13722W        W81940  16.605  34.661   4.076
13723W        W81941  37.076  17.014  14.294
13724W        W81942  34.158  31.443   3.205
13725W        W81943  12.401   4.898  13.343
13726W        W81944  23.371  39.027  13.268
13727W        W81945   9.740   7.706  10.895
13728W        W81946  15.296  12.894   2.166
13729W        W81947  12.016  14.251   2.305
13730W        W81948   1.851  14.746  12.670
13731W        W81949  12.103  12.990   0.359
13732W        W81950  13.346  13.903   5.115
13733W        W81951  38.776   7.780   1.388
13734W        W81952  22.155  17.954  11.210
13735W        W81953  24.984  16.670   2.233
13736W        W81954   8.464  11.334   0.892
13737W        W81955  19.415  14.577   3.323
13738W        W81956  33.246  40.610  10.892
13739W        W81957  12.079  26.134   1.769
13740W        W81958  34.150   9.500   2.286
13741W        W81959   5.404   3.660   0.512
13742W        W81960  27.220   2.742   1.833
13743W        W81961   9.776  16.140  13.340
13744W        W81962  30.471  11.740   2.069
13745W        W81963   5.690   0.420  13.742
13746W        W81964  43.912   1.346  14.295
13747W        W81965   7.168   3.414   1.744
13748W        W81966   6.893   1.578   4.661
13749W        W81967  25.611  20.060  13.773
13750W        W81968  30.159  22.920  11.171
13751W        W81969   8.947  43.568  13.505
13752W        W81970  27.714  20.163   4.173
13753W        W81971   7.752  30.615   4.550
13754W        W81972  10.949   3.259   2.458
13755W        W81973   4.934  34.345   2.636
13756W        W81974  14.403  42.047  14.901
13757W        W81975  36.155  30.366   2.306
13758W        W81976  17.209  34.690   0.266
13759W        W81977  19.098  14.848  13.889
13760W        W81978  27.694  42.547  13.835
13761W        W81979  37.015  28.497   1.956
13762W        W81980  36.066  18.206   1.883
13763W        W81981  15.327  30.587   1.415
13764W        W81982  27.150  11.923   4.567
13765W        W81983  24.631  34.040   1.652
13766W        W81984   1.349  16.752  10.546
13767W        W81985  24.133  19.770   2.760
13768W        W81986  41.790  19.264   4.159
13769W        W81987   5.937  17.789  14.851
13770W        W81988  43.541  23.031   1.780
13771W        W81989  38.520  17.567   0.163
13772W        W81990   7.874  28.507   4.950
13773W        W81991  21.698  39.163  13.756
13774W        W81992  24.599  30.647  10.937
13775W        W81993  24.132  33.654   0.524
13776W        W81994   5.434  39.593   4.734
13777W        W81995  31.129  24.507  10.826
13778W        W81996  26.514  29.895   3.120
13779W        W81997  42.590  42.860   0.919
13780W        W81998  33.769  17.598   0.810
13781W        W81999  19.184  36.872   4.512
13782W        W82000  19.709  38.179  14.548
13783W        W82001  14.722   8.224   4.439
13784W        W82002  13.884   5.642   0.904
13785W        W82003  27.677  15.649   3.949
13786W        W82004  16.307  43.847   3.275
13787W        W82005   8.283  20.617  10.659
13788W        W82006  21.784  12.229  14.916
13789W        W82007  20.981   9.836  14.815
13790W        W82008  22.112  32.015  10.728
13791W        W82009  23.558   4.735  14.026
13792W        W82010  35.561  42.731  12.259
13793W        W82011  20.563  39.578  10.639
13794W        W82012   1.247   4.197   1.630
13795W        W82013  13.348  40.832  14.298
13796W        W82014   8.203  33.661   0.883
13797W        W82015   2.407  34.836   4.581
13798W        W82016  23.127  19.303  10.894
13799W        W82017   9.825  43.523   1.387
13800W        W82018   4.649   5.927  14.059
13801W        W82019  23.652  42.292   3.804
13802W        W82020  37.540  24.118   0.951
13803W        W82021   3.679  20.752   3.254
13804W        W82022  12.370  32.804   1.811
13805W        W82023  20.565  41.311   2.260
13806W        W82024  16.593  44.792  12.138
13807W        W82025  41.969   5.177  10.741
13808W        W82026   6.771  41.517   1.494
13809W        W82027  20.437  17.670  10.368
13810W        W82028  23.928  15.752   4.554
13811W        W82029  12.271  19.964   0.408
13812W        W82030  44.074  31.013  12.447
13813W        W82031  28.237  30.388  13.850
13814W        W82032  17.986  14.562   2.856
13815W        W82033  43.349   5.620  14.072
13816W        W82034  21.839  23.862   4.071
13817W        W82035   4.149  31.663   2.327
13818W        W82036   0.592  28.015   4.664
13819W        W82037  34.506  37.974  12.746
13820W        W82038  43.567  26.529  14.799
13821W        W82039  29.108  29.278   4.199
13822W        W82040  10.331  23.689   1.017
13823W        W82041  23.733  44.555  13.948
13824W        W82042  15.816  42.054   4.203
13825W        W82043   5.132  19.674   1.755
13826W        W82044  11.795   5.919  12.945
13827W        W82045  37.629  38.546   1.314
13828W        W82046  32.553  31.126   4.253
13829W        W82047  32.385  37.858   0.776
13830W        W82048  16.550  26.633  11.950
13831W        W82049  15.080  18.961  13.510
13832W        W82050  25.464  26.623   0.794
13833W        W82051  38.437  27.883  10.565
13834W        W82052  41.103  33.889   2.273
13835W        W82053  44.331  32.670  14.984
13836W        W82054  43.102  10.548   4.087
13837W        W82055  39.078  20.949   1.221
13838W        W82056  33.003  20.765   3.013
13839W        W82057  35.858  16.816   2.794
13840W        W82058  29.103  10.291   0.337
13841W        W82059  23.798  29.399   2.417
13842W        W82060   8.743   2.436   2.054
13843W        W82061   6.209   4.427   1.727
13844W        W82062  17.268  14.294   2.142
13845W        W82063  29.963  15.797   2.760
13846W        W82064  37.011  43.419   1.746
13847W        W82065   1.256  19.996  13.872
13848W        W82066  11.921   7.881  12.026
13849W        W82067  33.674   8.195  12.077
13850W        W82068  23.143  42.485   1.576
13851W        W82069  30.819  39.303  12.374
13852W        W82070   2.910   6.447  11.390
13853W        W82071   7.943  39.874   2.301
13854W        W82072  21.757  11.164   0.251
13855W        W82073  12.169   4.423   1.666
13856W        W82074   1.794   5.624   3.095
13857W        W82075  10.915  24.101   2.245
13858W        W82076  20.053   9.905   4.613
13859W        W82077  39.800   2.735  13.445
13860W        W82078  33.088   7.268  14.490
13861W        W82079  43.710  28.227  11.436
13862W        W82080  33.010  18.731   0.340
13863W        W82081  31.933  36.357   4.151
13864W        W82082  20.146  17.682  14.035
13865W        W82083  38.059  10.186  14.500
13866W        W82084  39.986  24.701  14.062
13867W        W82085  36.895  38.725  11.835
13868W        W82086   5.965  37.971   3.455
13869W        W82087  37.997   0.230  12.102
13870W        W82088  36.931  36.554  12.499
13871W        W82089   9.618  28.209   2.165
13872W        W82090  37.478   5.954   0.356
13873W        W82091   3.657  10.335  11.531
13874W        W82092  11.683   6.243   0.385
13875W        W82093  38.339  21.979  11.172
13876W        W82094  34.936  19.423   5.075
13877W        W82095   2.189   7.705  12.106
13878W        W82096  10.824  21.630   2.680
13879W        W82097  43.232  10.002  11.581
13880W        W82098   8.583  16.487  14.347
13881W        W82099  18.294  30.029  14.842
13882W        W82100   2.396  13.130   4.131
13883W        W82101  11.878  10.466   3.396
13884W        W82102   3.390   9.266  11.983
13885W        W82103  40.024  11.628  12.900
13886W        W82104  19.816  22.692   1.376
13887W        W82105  30.566  25.688  14.753
13888W        W82106  38.299  37.061   2.324
13889W        W82107  42.103   3.922   4.281
13890W        W82108  23.919   5.746  14.574
13891W        W82109   2.141  25.916  13.826
13892W        W82110  27.716  11.671  11.566
13893W        W82111   0.949  33.565   2.035
13894W        W82112   1.968  36.888  13.482
13895W        W82113  43.741   7.214  11.378
13896W        W82114  17.056  26.577   4.589
13897W        W82115  33.388  32.067  13.994
13898W        W82116   1.785  19.298   0.762
13899W        W82117  28.620  32.902   1.352
13900W        W82118  17.156  28.192   4.271
13901W        W82119  42.255  23.146  14.407
13902W        W82120  12.894  43.472   1.903
13903W        W82121  21.244  14.178  12.628
13904W        W82122  33.801  11.616   1.790
13905W        W82123  17.812  27.498  12.096
13906W        W82124  21.740  27.503   2.160
13907W        W82125  28.022  21.530   2.192
13908W        W82126  25.923   8.903   0.367
13909W        W82127  44.239  11.161  13.793
13910W        W82128  20.952  43.400   0.651
13911W        W82129  37.437  16.637   0.974
13912W        W82130  44.752   8.014  12.112
13913W        W82131   4.646   5.894  11.678
13914W        W82132  19.052   8.725   1.744
13915W        W82133  16.676  38.283  11.844
13916W        W82134   4.203   1.851  10.522
13917W        W82135  36.982  11.383   3.292
13918W        W82136  41.019   1.781   4.151
13919W        W82137  33.111  18.352  12.415
13920W        W82138  38.621  37.725   2.131
13921W        W82139  18.586  35.919   0.351
13922W        W82140  15.254  14.587  12.046
13923W        W82141   9.898  11.292   4.394
13924W        W82142  18.872  35.801   1.415
13925W        W82143  24.049  15.268  11.418
13926W        W82144   6.756   1.384  12.622
13927W        W82145  11.346   6.314   1.448
13928W        W82146  14.327  30.134  11.460
13929W        W82147  36.282  23.737   3.301
13930W        W82148  34.361  13.276   3.228
13931W        W82149  43.908   9.227  12.623
13932W        W82150  26.309   2.763  13.058
13933W        W82151  13.722  39.967  11.058
13934W        W82152  41.564  15.999  12.566
13935W        W82153  42.303   0.222  14.961
13936W        W82154   7.314  17.999   2.692
13937W        W82155  20.016   6.514   2.317
13938W        W82156  27.994  24.934  11.040
13939W        W82157  27.574   7.229  10.957
13940W        W82158  12.614  17.654  10.922
13941W        W82159  29.390  13.193   1.359
13942W        W82160  12.489  27.408   2.823
13943W        W82161  22.050  14.744   1.105
13944W        W82162   5.761  34.968  11.792
13945W        W82163   8.197  27.945   1.445
13946W        W82164   8.219  26.650  10.889
13947W        W82165  40.293   3.694   1.721
13948W        W82166  10.371  31.100   4.695
13949W        W82167  32.567  42.556   3.321
13950W        W82168  24.000  10.562  12.477
13951W        W82169  35.576  12.362   0.700
13952W        W82170  13.180  19.810   3.709
13953W        W82171  37.394  33.136   4.302
13954W        W82172   0.778   0.260   0.464
13955W        W82173  25.939  20.089   3.504
13956W        W82174   7.418  33.637   3.243
13957W        W82175  43.287  36.588  14.899
13958W        W82176  26.969  41.832  13.886
13959W        W82177  33.089  26.663  14.403
13960W        W82178  11.798  35.773  14.418
13961W        W82179  38.402   0.825  14.170
13962W        W82180  33.140  16.206   0.390
13963W        W82181  11.723  36.003  11.601
13964W        W82182  10.815   0.275   0.678
13965W        W82183  38.484   5.742   1.821
13966W        W82184  34.539  25.179   0.285
13967W        W82185  34.978  29.041   0.333
13968W        W82186  22.596  29.032  13.476
13969W        W82187  28.994  26.597   3.927
13970W        W82188  40.367  23.985  11.653
13971W        W82189  17.809  35.134   0.083
13972W        W82190   1.018  15.672   3.210
13973W        W82191   9.793  27.154  10.663
13974W        W82192  28.057  36.510  11.228
13975W        W82193  22.009  26.350  14.353
13976W        W82194  25.517  33.698  13.403
13977W        W82195  38.931  28.360   0.494
13978W        W82196  18.172  43.010   1.214
13979W        W82197  21.578  18.747  13.931
13980W        W82198  41.954  19.675  11.056
13981W        W82199  21.683  22.253  13.994
13982W        W82200  36.604  25.947  11.957
13983W        W82201  27.570  34.416  11.977
13984W        W82202  16.710  43.970  11.552
13985W        W82203   0.040   1.441  12.960
13986W        W82204  20.026   0.294  12.477
13987W        W82205  23.279  21.081  10.665
13988W        W82206  25.183   8.740   0.768
13989W        W82207  20.119   0.320   0.989
13990W        W82208  39.045  36.150  14.835
13991W        W82209  27.133   8.767   0.862
13992W        W82210  13.381  23.579   3.689
13993W        W82211  43.699   5.686   0.918
13994W        W82212   8.926  32.064   4.296
13995W        W82213   9.673  33.554   1.133
13996W        W82214  19.182   3.731   4.836
13997W        W82215   0.305  20.683   1.917
13998W        W82216  14.744  31.026  10.636
13999W        W82217  27.229  25.608   4.583
14000W        W82218   6.932   4.028  12.229
14001W        W82219  17.576  30.189   1.597
14002W        W82220   7.790  44.906  10.423
14003W        W82221  30.330  31.559  13.404
14004W        W82222  40.435  12.320  13.889
14005W        W82223  29.467  40.112   4.877
14006W        W82224   8.097  16.570  14.899
14007W        W82225  42.404  35.593   4.098
14008W        W82226   3.720  39.876  13.334
14009W        W82227  43.490   8.845   4.140
14010W        W82228   9.709  34.060   1.300
14011W        W82229  32.472  24.469   2.680
14012W        W82230  33.241   9.899  11.845
14013W        W82231  35.971  40.283   4.174
14014W        W82232  24.471  33.603   5.043
14015W        W82233   4.973  36.459  14.779
14016W        W82234  21.416   4.831  10.305
14017W        W82235   1.754  23.153   1.198
14018W        W82236  12.412  38.837  14.740
14019W        W82237  38.531   7.006  13.573
14020W        W82238  36.119   7.425   3.927
14021W        W82239  12.669  30.344   2.966
14022W        W82240   9.716   8.175  12.905
14023W        W82241  10.182  17.076  14.584
14024W        W82242  38.003   6.632   3.239
14025W        W82243   8.093  20.024   0.951
14026W        W82244   2.736  24.262   0.777
14027W        W82245  39.315  25.534   0.333
14028W        W82246   4.718  40.422  14.250
14029W        W82247   9.286  28.398  12.128
14030W        W82248  39.376   8.471  13.486
14031W        W82249  30.281   2.956  11.426
14032W        W82250  15.526  26.409  14.436
14033W        W82251  32.982  18.778  13.790
14034W        W82252  29.980  32.805   4.147
14035W        W82253  12.177  12.215   1.455
14036W        W82254   1.515  32.897  10.634
14037W        W82255  40.035  35.253  14.894
14038W        W82256  20.753  22.557  14.423
14039W        W82257  39.575  29.557  14.765
14040W        W82258  31.436  17.330  12.034
14041W        W82259  10.582  37.164  12.710
14042W        W82260  13.316  33.850  14.827
14043W        W82261  13.053  13.005  11.597
14044W        W82262  20.165  18.148  12.090
14045W        W82263   0.955  29.208  12.028
14046W        W82264   4.359  14.594   0.696
14047W        W82265  34.309  20.619  13.294
14048W        W82266   6.657   7.632  12.457
14049W        W82267  17.058   4.800  12.961
14050W        W82268  25.517  34.882   4.465
14051W        W82269  12.393   2.388  12.545
14052W        W82270   3.254  19.568  10.977
14053W        W82271  22.375  22.771  10.703
14054W        W82272  25.273  42.957   2.331
14055W        W82273  42.415  20.699   2.648
14056W        W82274  37.321  23.743   1.905
14057W        W82275   4.145  23.658  11.092
14058W        W82276  12.158  36.082  12.978
14059W        W82277  13.116  19.296   2.905
14060W        W82278  37.241  28.532   3.471
14061W        W82279  10.777  31.628  11.200
14062W        W82280  39.449   6.963  14.959
14063W        W82281  36.544  24.004  12.451
14064W        W82282   9.841  38.313   1.822
14065W        W82283  13.109  40.031   1.660
14066W        W82284  26.640  13.762   1.740
14067W        W82285  12.181   8.629   2.752
14068W        W82286  20.489  28.134   2.137
14069W        W82287  37.923  31.090   0.470
14070W        W82288  15.322  17.500  12.048
14071W        W82289  13.633   5.495  13.474
14072W        W82290  44.718  16.720  13.175
14073W        W82291   6.270  33.654   1.003
14074W        W82292  36.036  42.542   1.860
14075W        W82293  36.868  16.303  10.600
14076W        W82294  16.075  35.458  13.363
14077W        W82295  11.819  10.751  11.044
14078W        W82296   0.875  17.560   2.202
14079W        W82297  41.827   0.297   0.874
14080W        W82298  12.130   6.204   2.659
14081W        W82299  44.934  39.565  14.977
14082W        W82300  27.831  39.424   2.376
14083W        W82301  26.446  40.485   4.707
14084W        W82302  24.117   8.916  14.926
14085W        W82303  30.385  20.699   2.696
14086W        W82304  31.850  42.025  11.593
14087W        W82305  40.468  37.526   0.509
14088W        W82306   2.790   2.484   0.585
14089W        W82307  31.402  13.188   1.984
14090W        W82308   4.750  34.486  12.080
14091W        W82309  11.758  28.604  13.201
14092W        W82310  13.190  40.542  14.973
14093W        W82311  38.074  13.576  10.755
14094W        W82312  43.183  31.675  13.468
14095W        W82313  18.971  20.784  12.379
14096W        W82314  41.303  28.458   1.843
14097W        W82315   0.368  31.707  13.477
14098W        W82316  31.494  40.422   0.260
14099W        W82317  28.747  28.948   2.513
14100W        W82318  31.388  24.654  14.307
14101W        W82319   6.357  22.731   0.441
14102W        W82320  41.963  42.954  14.542
14103W        W82321  40.234   9.468   1.932
14104W        W82322  34.610  35.988   1.684
14105W        W82323   0.895  32.248  11.081
14106W        W82324   4.276   7.935   2.507
14107W        W82325  29.516  16.920   3.043
14108W        W82326  29.545  22.692  10.574
14109W        W82327  37.775  40.320   4.132
14110W        W82328   2.857  35.004  13.227
14111W        W82329  44.493  15.762   3.209
14112W        W82330  10.938   1.292   4.677
14113W        W82331   1.169   2.298  11.181
14114W        W82332  16.617  35.923   3.828
14115W        W82333  14.809  42.278  11.207
14116W        W82334   6.567  25.800  14.544
14117W        W82335  23.817  44.574   4.089
14118W        W82336  29.654  28.137  11.638
14119W        W82337  13.251  10.815   2.182
14120W        W82338  19.298   0.572   0.467
14121W        W82339  28.893  20.578   0.901
14122W        W82340   1.944  40.747  11.163
14123W        W82341  42.240  18.106  13.152
14124W        W82342  29.851  37.696   2.158
14125W        W82343  28.043  26.031  14.575
14126W        W82344   5.049   7.089   2.849
14127W        W82345  21.732  28.739   4.698
14128W        W82346   4.624   2.077  12.991
14129W        W82347  43.060  25.357   3.810
14130W        W82348  15.747  24.943   4.853
14131W        W82349  38.924  20.933  13.453
14132W        W82350  18.277  21.997   3.690
14133W        W82351   1.436  19.608   1.748
14134W        W82352  15.346  22.749   1.251
14135W        W82353  33.057  14.655   2.234
14136W        W82354  43.359  12.696   0.659
14137W        W82355  21.670  17.794   4.596
14138W        W82356  31.911  41.322  10.453
14139W        W82357  20.697  42.880  13.304
14140W        W82358  43.016  28.513  14.942
14141W        W82359  25.725  26.081   0.080
14142W        W82360  26.596  29.447   0.684
14143W        W82361  23.075  25.051  10.716
14144W        W82362  33.007  30.032   3.621
14145W        W82363  27.581  14.083   3.221
14146W        W82364   7.778  41.646   1.669
14147W        W82365  21.879  44.231   0.839
14148W        W82366  43.222   8.636  12.580
14149W        W82367  27.977  17.731  12.934
14150W        W82368  36.602  11.164   1.225
14151W        W82369   7.281  38.949  12.109
14152W        W82370  43.419  37.630  11.919
14153W        W82371  35.064  16.192  13.966
14154W        W82372  38.994  10.184   3.650
14155W        W82373  21.027  25.238   1.719
14156W        W82374  29.744  18.342   2.671
14157W        W82375   5.838  13.715  11.066
14158W        W82376  13.586  30.188   1.921
14159W        W82377  38.342  13.196   4.174
14160W        W82378  26.409  39.924  14.895
14161W        W82379   3.276  28.165   2.383
14162W        W82380  14.666   4.387  14.356
14163W        W82381  16.181  44.838  13.603
14164W        W82382  44.552  35.602  12.883
14165W        W82383  20.205   8.597  13.338
14166W        W82384  13.350  24.834   1.276
14167W        W82385  41.007  20.996   3.730
14168W        W82386   9.055  25.556  10.635
14169W        W82387  15.366  43.491  11.639
14170W        W82388  20.481  40.859  13.786
14171W        W82389  28.906  32.878  12.820
14172W        W82390  11.377   5.401   3.411
14173W        W82391   5.196  14.533  13.298
14174W        W82392   2.424  38.638  12.934
14175W        W82393  24.188  41.747  12.766
14176W        W82394  34.435  32.998  14.776
14177W        W82395  40.876   3.187   1.294
14178W        W82396  12.108  34.459   4.096
14179W        W82397  34.892  37.486   4.582
14180W        W82398  40.364  18.255  13.081
14181W        W82399  16.355  15.493   3.382
14182W        W82400  27.673   1.918  13.885
14183W        W82401  27.113  21.046   9.869
14184W        W82402   6.709   7.008  14.794
14185W        W82403  10.772  39.970  13.929
14186W        W82404   2.865  39.464   1.211
14187W        W82405  12.398  42.815   0.017
14188W        W82406  26.194  22.608   0.669
14189W        W82407   7.820  44.373   9.951
14190W        W82408  25.400   0.375   4.018
14191W        W82409  31.088  37.656  14.677
14192W        W82410  11.326  33.080  13.930
14193W        W82411  18.263   8.342  11.369
14194W        W82412  35.823  17.968   2.296
14195W        W82413  23.435  14.847   2.702
14196W        W82414  27.142  35.672  10.378
14197W        W82415  30.888  32.039  12.826
14198W        W82416  15.958  22.721  12.153
14199W        W82417  19.064   2.840   2.829
14200W        W82418  43.053  19.298   4.516
14201W        W82419  33.209   6.625   2.353
14202W        W82420  39.741  18.258  12.388
14203W        W82421  32.081   0.324  13.923
14204W        W82422  13.375  42.150  11.989
14205W        W82423   2.935   6.053   1.468
14206W        W82424  17.685   7.022  12.527
14207W        W82425  43.836  12.737  11.824
14208W        W82426  15.572  15.906   2.337
14209W        W82427  33.464  35.026   2.337
14210W        W82428  21.424   3.709  11.074
14211W        W82429  17.771  15.285  11.216
14212W        W82430  41.809  32.856   4.213
14213W        W82431  14.400   6.868  13.396
14214W        W82432  20.450  43.441   0.549
14215W        W82433  29.803  28.197   4.150
14216W        W82434  36.004  10.328   4.590
14217W        W82435   9.332  32.235   0.008
14218W        W82436   1.484  18.150   4.356
14219W        W82437  40.976   4.685   4.755
14220W        W82438  24.926   3.743  11.727
14221W        W82439  15.571  31.406  10.793
14222W        W82440   8.069  19.723  10.210
14223W        W82441  32.421  15.367   0.217
14224W        W82442   2.518   1.539   3.677
14225W        W82443  17.579  35.999  10.277
14226W        W82444  42.359  20.344  14.781
14227W        W82445  17.051  13.692   0.956
14228W        W82446  14.681  11.098  13.939
14229W        W82447  44.910  11.430  11.015
14230W        W82448  33.844  27.573  12.081
14231W        W82449   5.482  43.523   3.746
14232W        W82450  39.934  24.689   3.993
14233W        W82451   3.471  20.061   1.832
14234W        W82452  31.155  42.436  11.174
14235W        W82453  22.712  36.831  11.360
14236W        W82454  26.310  34.985  14.443
14237W        W82455   1.222   4.925  12.668
14238W        W82456  28.012  38.069  11.479
14239W        W82457  23.152  38.570  14.785
14240W        W82458   8.063  18.665   3.209
14241W        W82459  36.121   8.606  14.801
14242W        W82460  39.199  26.272   3.292
14243W        W82461  26.149  43.083   1.219
14244W        W82462   9.829  38.932   4.835
14245W        W82463  32.459  24.518   4.274
14246W        W82464  43.207  13.773   1.333
14247W        W82465  10.360  17.591  12.882
14248W        W82466   1.294   6.403  14.327
14249W        W82467  39.786  12.296   3.706
14250W        W82468  35.342  17.786   0.851
14251W        W82469  29.805  14.449   1.375
14252W        W82470  42.771  13.275  11.498
14253W        W82471  23.964  20.437   0.312
14254W        W82472  21.321  37.990  11.968
14255W        W82473  33.397  20.629  10.541
14256W        W82474  14.876   4.332  12.099
14257W        W82475  24.652  32.224   4.721
14258W        W82476   9.350  25.620  12.388
14259W        W82477  38.484  44.256   0.965
14260W        W82478  20.594  32.520  13.955
14261W        W82479  36.119  29.500  11.597
14262W        W82480  25.395  28.608  14.274
14263W        W82481  33.008  30.184   1.677
14264W        W82482  26.652  27.897   1.015
14265W        W82483  38.442   0.491  12.128
14266W        W82484  24.045  43.086   1.390
14267W        W82485  23.721  27.062   2.899
14268W        W82486  32.680  13.737  11.932
14269W        W82487  11.268  13.160   3.141
14270W        W82488  38.039  40.396  14.512
14271W        W82489  23.208  10.055   2.752
14272W        W82490  31.357  24.185  11.553
14273W        W82491   7.638  43.243   1.753
14274W        W82492  38.416  35.467   4.658
14275W        W82493  36.909   9.846   2.209
14276W        W82494  37.204  44.684   1.022
14277W        W82495  41.808  18.943   0.952
14278W        W82496  42.985  33.970   0.244
14279W        W82497  41.111   4.153  14.890
14280W        W82498  44.413  15.732  12.655
14281W        W82499  35.507   9.241  14.124
14282W        W82500  43.950  26.390   0.143
14283W        W82501   9.954  43.781   2.736
14284W        W82502  28.143  37.482  11.453
14285W        W82503  36.556  22.717  11.315
14286W        W82504  11.384  32.231  14.373
14287W        W82505  16.241  37.236  14.776
14288W        W82506  17.721  19.659  14.827
14289W        W82507  41.322   5.421  11.159
14290W        W82508  18.394  14.668  11.083
14291W        W82509  28.010  14.592  11.629
14292W        W82510  38.476  40.057  11.702
14293W        W82511  44.881  25.054  13.890
14294W        W82512  38.913   4.891  11.801
14295W        W82513  34.465  11.348  14.637
14296W        W82514   3.202  14.140  14.004
14297W        W82515   9.041  10.901  11.939
14298W        W82516  24.744  37.481  10.429
14299W        W82517  40.819  20.233  11.547
14300W        W82518  30.501  35.513   4.543
14301W        W82519  12.467   4.559   0.517
14302W        W82520  33.080   9.651   0.239
14303W        W82521  11.760  32.838  13.524
14304W        W82522  25.024  34.648   2.880
14305W        W82523  13.185  33.088   2.740
14306W        W82524  29.186  19.291  14.974
14307W        W82525  25.328  12.191  12.890
14308W        W82526  19.858   1.822  12.271
14309W        W82527   8.710   7.144  11.575
14310W        W82528  21.928  41.852  14.672
14311W        W82529  27.617  33.079  11.957
14312W        W82530   1.858  35.386  10.836
14313W        W82531  33.133  36.482   2.350
14314W        W82532  29.243  37.191   2.445
14315W        W82533  10.184   8.665  14.355
14316W        W82534   2.496  30.001   0.982
14317W        W82535   0.407  26.920  12.966
14318W        W82536  16.238   2.333   4.599
14319W        W82537  20.728  23.780   4.938
14320W        W82538  22.500  21.575  10.546
14321W        W82539  16.630  36.151  13.358
14322W        W82540  27.029   5.067   2.723
14323W        W82541  16.535  40.979  13.856
14324W        W82542  26.783   0.232  14.172
14325W        W82543   5.351  18.334  12.056
14326W        W82544  39.849  33.347   4.106
14327W        W82545   3.324  23.024  13.991
14328W        W82546  17.377  36.092  13.052
14329W        W82547   8.430  14.524  12.050
14330W        W82548   3.397   1.706   2.709
14331W        W82549  16.747  12.417   0.354
14332W        W82550  11.721   8.585  13.847
14333W        W82551  23.137  43.025  13.480
14334W        W82552  23.766  43.072   5.180
14335W        W82553  19.195  29.024  13.690
14336W        W82554  30.988  24.450   0.198
14337W        W82555  22.116  11.209  14.309
14338W        W82556  21.745  19.010  11.210
14339W        W82557   5.345   9.113  13.508
14340W        W82558  20.200  10.141  13.529
14341W        W82559  43.848  26.443  11.665
14342W        W82560  31.631  17.122  13.548
14343W        W82561  31.583  32.718  14.091
14344W        W82562  22.371  16.984   5.006
14345W        W82563   4.994  15.260   4.211
14346W        W82564  12.717  37.542  14.263
14347W        W82565  26.153   1.444   0.901
14348W        W82566  32.775  23.750   0.790
14349W        W82567  24.183  15.262  10.931
14350W        W82568  21.650   4.885  12.884
14351W        W82569   1.594   2.996  11.828
14352W        W82570   3.239  17.034  13.581
14353W        W82571  32.439  24.921   4.572
14354W        W82572  10.993  36.946  11.086
14355W        W82573  31.992  32.308   0.762
14356W        W82574  23.046  16.242   3.634
14357W        W82575  33.523  44.166   4.479
14358W        W82576  17.209  22.491  11.619
14359W        W82577  42.752  13.259   1.704
14360W        W82578  26.594   3.262   2.185
14361W        W82579  37.781  25.435  12.625
14362W        W82580  11.082  10.251  10.986
14363W        W82581  17.159  34.094   2.335
14364W        W82582  13.126  34.412  10.643
14365W        W82583  39.367  15.532  10.653
14366W        W82584  25.494  10.828  14.949
14367W        W82585  17.907   7.733  14.290
14368W        W82586  19.723  33.662   1.738
14369W        W82587  17.269   0.436  12.944
14370W        W82588   8.918  29.967   1.846
14371W        W82589  31.601   0.578  11.075
14372W        W82590  23.281  34.092   1.708
14373W        W82591  18.572   4.573   0.467
14374W        W82592   5.461   6.161  10.648
14375W        W82593  22.645  38.139  13.309
14376W        W82594  28.880  43.313  14.395
14377W        W82595  26.950  33.374   0.217
14378W        W82596  31.991  14.145  12.302
14379W        W82597  37.311  24.496  12.457
14380W        W82598   2.694  34.874   5.017
14381W        W82599  43.521   5.928   1.347
14382W        W82600   5.408   8.813   0.266
14383W        W82601  30.646  22.586  12.970
14384W        W82602  41.415  23.173   2.330
14385W        W82603  40.358  15.887  13.786
14386W        W82604  37.667   0.541  12.639
14387W        W82605  25.330   3.779  13.892
14388W        W82606  14.989   8.493   2.731
14389W        W82607  24.350  41.424   3.022
14390W        W82608  14.419  38.658  13.315
14391W        W82609  23.745   5.769   1.416
14392W        W82610  15.462   5.600   4.540
14393W        W82611  39.946   3.620  13.835
14394W        W82612  11.651  22.740   1.739
14395W        W82613  21.089  18.592  14.185
14396W        W82614  32.408  20.616  13.495
14397W        W82615   9.134  18.757   1.515
14398W        W82616   9.182  31.963  10.234
14399W        W82617  30.094  36.695   1.391
14400W        W82618  37.615  26.234   3.818
14401W        W82619  29.244   0.486   4.639
14402W        W82620  25.741  21.657   0.517
14403W        W82621  44.657  17.560  13.039
14404W        W82622   1.109  23.691   0.817
14405W        W82623  20.256  12.314  10.179
14406W        W82624  42.807  30.099   3.677
14407W        W82625  27.524  39.112  13.254
14408W        W82626  12.819   2.946  11.196
14409W        W82627  28.366  19.512  14.029
14410W        W82628  11.735   1.460   1.172
14411W        W82629  33.352  21.545   4.615
14412W        W82630  18.595  30.045   3.873
14413W        W82631   3.278  16.785   2.397
14414W        W82632   3.946  34.291   2.667
14415W        W82633  42.550  21.568   0.301
14416W        W82634  31.177  32.780  13.306
14417W        W82635  42.275  21.726  11.943
14418W        W82636   9.256  31.936  11.753
14419W        W82637  34.074  38.981  13.010
14420W        W82638  18.306  34.957   0.220
14421W        W82639  28.393  23.496   2.187
14422W        W82640   9.797  11.521   3.263
14423W        W82641   1.792   2.012  12.033
14424W        W82642  30.479  12.621   4.483
14425W        W82643  22.016   6.494  13.376
14426W        W82644  30.930  28.881  14.989
14427W        W82645  17.088   0.380   1.186
14428W        W82646   1.438  40.179  10.677
14429W        W82647  42.996   1.526  13.260
14430W        W82648  28.396  44.876   2.285
14431W        W82649  20.517  10.120  11.001
14432W        W82650  12.917  20.477   2.319
14433W        W82651   8.180   0.040   2.994
14434W        W82652  34.149  12.369  14.939
14435W        W82653   2.455  43.254   0.049
14436W        W82654  42.494  13.652  11.814
14437W        W82655  38.843  17.697  13.354
14438W        W82656  18.331  21.626  13.301
14439W        W82657  20.015  22.256   3.932
14440W        W82658   2.822  30.652   3.720
14441W        W82659   7.452  37.018  13.457
14442W        W82660  33.026   2.220   0.527
14443W        W82661  15.763   4.319  12.315
14444W        W82662   2.259  32.382   5.103
14445W        W82663  11.767  17.653   4.976
14446W        W82664  18.731   0.690   1.951
14447W        W82665  11.602  24.654   0.328
14448W        W82666  43.586  25.190  11.052
14449W        W82667  31.824   5.469   4.090
14450W        W82668  21.330  37.588   4.016
14451W        W82669  34.736  22.678  14.028
14452W        W82670  13.157  29.711  10.783
14453W        W82671  39.786  12.581  14.648
14454W        W82672  26.690  21.011   1.837
14455W        W82673  12.557  19.390  12.101
14456W        W82674  22.671  16.901   4.138
14457W        W82675  38.558   4.022   4.553
14458W        W82676  24.108  33.543  12.317
14459W        W82677  32.789  35.872   1.415
14460W        W82678  27.028  18.345  11.691
14461W        W82679  31.716  15.544   4.104
14462W        W82680   2.510  36.788  12.421
14463W        W82681  29.669  26.173  10.557
14464W        W82682  31.479  34.975   4.149
14465W        W82683   7.774  24.410   3.675
14466W        W82684  37.089  15.076  12.774
14467W        W82685  18.572  24.507  13.143
14468W        W82686  34.470  10.172  13.522
14469W        W82687  42.981  43.760   4.260
14470W        W82688  19.182  27.708  11.634
14471W        W82689  15.747  24.925   4.258
14472W        W82690   5.427  16.403  11.500
14473W        W82691   9.252  13.365  12.928
14474W        W82692  12.692   3.290  12.103
14475W        W82693  29.799  13.026   2.784
14476W        W82694  17.796   3.562  13.051
14477W        W82695  20.986  29.521   0.684
14478W        W82696   3.008  27.188  11.481
14479W        W82697   4.098  42.517   0.923
14480W        W82698  28.367  39.537   1.750
14481W        W82699  40.791  43.647   3.496
14482W        W82700  11.103   6.219   2.830
14483W        W82701  32.361  27.438   1.077
14484W        W82702  35.844  11.334   4.121
14485W        W82703  22.110  17.690   2.713
14486W        W82704  23.741  11.365   4.177
14487W        W82705  16.843  20.753   0.800
14488W        W82706  14.272  22.503  11.310
14489W        W82707   0.767  18.287  14.265
14490W        W82708  32.979  31.533   4.034
14491W        W82709   0.013  15.729   3.160
14492W        W82710  44.736  18.745   0.816
14493W        W82711  21.741  39.829  14.366
14494W        W82712   9.633  42.932  12.616
14495W        W82713  18.259  35.995  13.873
14496W        W82714   2.854  40.087   3.637
14497W        W82715   0.913  25.879   3.597
14498W        W82716   7.691  24.758  11.646
14499W        W82717   4.777  27.929   1.228
14500W        W82718   9.411   7.893  12.176
14501W        W82719  10.709  26.405  11.518
14502W        W82720  37.509  11.068   0.847
14503W        W82721  33.636  24.985  12.920
14504W        W82722  33.400  18.337   4.089
14505W        W82723  15.797  25.476   3.075
14506W        W82724  39.641  15.665  12.509
14507W        W82725   4.906  15.797   0.640
14508W        W82726  17.669  40.602   3.637
14509W        W82727  12.876  20.782  13.913
14510W        W82728  41.090  44.951  14.502
14511W        W82729  30.826  25.757  12.225
14512W        W82730  28.630   1.847   2.896
14513W        W82731  24.891  10.841   1.849
14514W        W82732  28.290  28.153   4.204
14515W        W82733  43.467   6.806   2.917
14516W        W82734  13.007  38.368   4.317
14517W        W82735  16.543  42.736   0.567
14518W        W82736  31.830  31.454   2.665
14519W        W82737   7.833  41.769  11.006
14520W        W82738  27.367  43.567  11.302
14521W        W82739  26.153  21.680  12.925
14522W        W82740   3.998  40.898   4.968
14523W        W82741  32.360   8.857  11.176
14524W        W82742  43.104   8.838   1.767
14525W        W82743  38.871  31.124  10.102
14526W        W82744   4.616  12.140  11.849
14527W        W82745  29.583  31.418   1.424
14528W        W82746   1.467  15.126   0.848
14529W        W82747  25.201   0.541  13.474
14530W        W82748   1.754  24.074  14.470
14531W        W82749  25.348  25.505   4.027
14532W        W82750  33.740  39.493   0.940
14533W        W82751  35.148  19.809   2.817
14534W        W82752   2.191  20.850  13.082
14535W        W82753  34.934  32.971   3.663
14536W        W82754  27.993  16.836  14.122
14537W        W82755  27.396   7.001  14.704
14538W        W82756   3.868  37.418   4.061
14539W        W82757  44.401   2.754   0.739
14540W        W82758  30.523   3.000  10.088
14541W        W82759  43.329  40.227   0.809
14542W        W82760  33.427  33.908  10.414
14543W        W82761   3.300   4.313   3.574
14544W        W82762  41.373   7.199  13.196
14545W        W82763   9.121   4.927  12.543
14546W        W82764  19.141  39.049   0.307
14547W        W82765   8.952  43.273  14.376
14548W        W82766  32.599   1.374   4.141
14549W        W82767  18.206   3.630   3.358
14550W        W82768  27.051   4.556   2.763
14551W        W82769  15.231  16.546   4.892
14552W        W82770  14.520  28.604   0.321
14553W        W82771   0.841  39.072   2.840
14554W        W82772  40.013  32.697  11.381
14555W        W82773  31.353  17.366   2.855
14556W        W82774  42.510  33.852  14.926
14557W        W82775   7.394  38.363   2.746
14558W        W82776  43.498   5.849  14.947
14559W        W82777  36.509  42.322  14.977
14560W        W82778  32.791  22.215  12.092
14561W        W82779  17.350  25.393  12.578
14562W        W82780  41.404  18.532   3.278
14563W        W82781  26.842  15.830  12.415
14564W        W82782  16.154  29.485   1.767
14565W        W82783  11.207  15.553  14.320
14566W        W82784  44.509  19.182  11.991
14567W        W82785   6.756  27.190  13.953
14568W        W82786  18.269  33.525   0.297
14569W        W82787  33.976   3.502  11.270
14570W        W82788   1.327  13.680   1.155
14571W        W82789  39.844  23.297  12.966
14572W        W82790   0.488  20.658  10.851
14573W        W82791  14.546  20.863  13.608
14574W        W82792   0.439  26.002   1.401
14575W        W82793  13.773  41.917  10.076
14576W        W82794  17.251   1.557  14.896
14577W        W82795  20.673  42.196   2.456
14578W        W82796   6.228  40.572   0.417
14579W        W82797  20.819   5.883   3.877
14580W        W82798  27.148  20.544  12.793
14581W        W82799  13.839  22.450  11.591
14582W        W82800  15.454  30.467  10.935
14583W        W82801  43.469  34.955   0.823
14584W        W82802   2.331  41.345   2.174
14585W        W82803   1.463  27.065  11.664
14586W        W82804  20.010   9.294   4.660
14587W        W82805  26.495  35.477   0.972
14588W        W82806  10.801  16.072   4.716
14589W        W82807   4.636  34.819   4.174
14590W        W82808  44.563  22.194  13.805
14591W        W82809   8.594  17.003  11.158
14592W        W82810  36.324  36.131   5.134
14593W        W82811  14.867  12.759  10.836
14594W        W82812  23.514   9.167  11.156
14595W        W82813   5.645  39.540   0.542
14596W        W82814  18.472  42.431  12.843
14597W        W82815  32.966  28.240  12.167
14598W        W82816  26.172   4.370  10.639
14599W        W82817  14.603  35.657   2.710
14600W        W82818  15.143  16.326  14.471
14601W        W82819  18.791   0.678  14.046
14602W        W82820  37.554  12.169  11.641
14603W        W82821  30.588  22.269  11.501
14604W        W82822  31.448  10.663  11.656
14605W        W82823   6.656  44.369   0.726
14606W        W82824  15.601   5.588   0.032
14607W        W82825  26.872  34.933  11.701
14608W        W82826  18.767  31.501  10.624
14609W        W82827  33.830   0.657  13.573
14610W        W82828  30.705  36.542   2.812
14611W        W82829  17.942  39.140   4.025
14612W        W82830  42.680   2.802  11.282
14613W        W82831  41.958   3.208  13.954
14614W        W82832   4.901  19.856  12.033
14615W        W82833  16.898  19.799  12.615
14616W        W82834  44.389   5.647   0.311
14617W        W82835  42.033   3.876  14.392
14618W        W82836  24.062  25.652  12.018
14619W        W82837   5.278  13.407  14.025
14620W        W82838  24.749  33.715   2.714
14621W        W82839  17.999  12.677  12.542
14622W        W82840  44.044   1.874   4.689
14623W        W82841  17.022  24.129  13.212
14624W        W82842  11.078  37.344  13.342
14625W        W82843  42.798  33.039   2.271
14626W        W82844  25.163  30.577  10.964
14627W        W82845  12.601  21.794  14.103
14628W        W82846  27.324   3.713   3.734
14629W        W82847  18.535  26.921   3.158
14630W        W82848  23.523  25.790   1.858
14631W        W82849  43.009  33.581  14.900
14632W        W82850  21.900  13.813  11.057
14633W        W82851  40.393  42.708   0.949
14634W        W82852  32.868   0.771   3.039
14635W        W82853   7.732  15.290  12.216
14636W        W82854  38.429  36.671   1.807
14637W        W82855  32.391  29.196  11.217
14638W        W82856  18.157  11.335   0.210
14639W        W82857  15.679  27.521  11.104
14640W        W82858  31.754   0.348   1.752
14641W        W82859  43.462  29.085   2.935
14642W        W82860  30.601  16.076  14.323
14643W        W82861  20.601  35.567   1.909
14644W        W82862   1.486  25.827   2.273
14645W        W82863   8.587  15.106   4.552
14646W        W82864  30.921  11.471  11.444
14647W        W82865  18.330  39.982   1.077
14648W        W82866  36.312  10.721  12.874
14649W        W82867   8.807  32.876  13.266
14650W        W82868  31.139  16.272   4.952
14651W        W82869  12.456  19.830  10.985
14652W        W82870  12.232   9.142   4.509
14653W        W82871  29.712  25.927   1.301
14654W        W82872  31.904   8.613  11.181
14655W        W82873  41.629   8.958   1.672
14656W        W82874  19.320  14.048   0.930
14657W        W82875   0.007   7.887  12.949
14658W        W82876  11.218  33.793   2.592
14659W        W82877   0.874   2.423  14.504
14660W        W82878  29.516  43.972   4.351
14661W        W82879  43.420   3.938  10.732
14662W        W82880   6.586  30.464  14.018
14663W        W82881  28.908  29.457  14.921
14664W        W82882  34.541  30.910  13.827
14665W        W82883   3.479  20.739  14.422
14666W        W82884   0.841  19.736   0.913
14667W        W82885  17.731   9.842  14.601
14668W        W82886  23.897  44.936   2.890
14669W        W82887  15.623  11.747   3.631
14670W        W82888  24.947  30.500  12.784
14671W        W82889  17.878   7.388   4.027
14672W        W82890  39.827  35.582  10.983
14673W        W82891  32.375   2.394  11.443
14674W        W82892   3.839  22.798  11.146
14675W        W82893   1.637  26.581  11.913
14676W        W82894   1.946  30.469   0.171
14677W        W82895   5.155   2.486  11.219
14678W        W82896  43.917  38.995  14.572
14679W        W82897  27.765  11.353   3.673
14680W        W82898  23.770  39.793  11.358
14681W        W82899  20.366  40.083   0.716
14682W        W82900  11.154  11.366   1.499
14683W        W82901  16.664   3.790  11.635
14684W        W82902   5.795  36.896   1.764
14685W        W82903  37.644  34.129   0.498
14686W        W82904  29.997  28.207   0.865
14687W        W82905  23.675  25.556   0.019
14688W        W82906  19.097   6.831   1.122
14689W        W82907  28.008  24.130  13.874
14690W        W82908   1.291   0.943   0.870
14691W        W82909   2.796  27.565   2.970
14692W        W82910  23.770   5.479   0.020
14693W        W82911  15.933   3.332   4.195
14694W        W82912  21.141  29.288   2.424
14695W        W82913  23.573   5.000   3.689
14696W        W82914  12.556   6.666  14.807
14697W        W82915  42.249  39.908  13.459
14698W        W82916  18.869  28.188   2.921
14699W        W82917  43.227   8.834  11.586
14700W        W82918   9.286  36.980   2.220
14701W        W82919  20.551  44.183   0.263
14702W        W82920  27.087   9.483   1.313
14703W        W82921   3.920  37.179  14.482
14704W        W82922  13.476  39.366  10.658
14705W        W82923  19.991  14.791  14.594
14706W        W82924  16.114  41.537  14.432
14707W        W82925  36.768  15.285  13.621
14708W        W82926   1.472  42.921  13.045
14709W        W82927  42.401  25.760  11.635
14710W        W82928  18.990   0.056  12.652
14711W        W82929  26.717  43.379  12.093
14712W        W82930  43.436   3.334   3.158
14713W        W82931  43.980  36.007   3.332
14714W        W82932  24.108  21.747   0.680
14715W        W82933   5.536  29.906  14.384
14716W        W82934   7.985  17.632   3.763
14717W        W82935  11.297  38.826   2.153
14718W        W82936   4.510  15.240  12.391
14719W        W82937  23.059  38.887   0.205
14720W        W82938  41.893  35.546   0.022
14721W        W82939  37.817  26.764   4.660
14722W        W82940  27.583  18.515   5.122
14723W        W82941   2.690  36.960   2.995
14724W        W82942  16.819  15.238   3.234
14725W        W82943   6.984   6.406  11.175
14726W        W82944  44.760  42.408   1.677
14727W        W82945   1.721  42.348  14.343
14728W        W82946   2.752  19.632   2.666
14729W        W82947  27.218  29.071   3.997
14730W        W82948  20.825  21.968  14.902
14731W        W82949  28.245  29.086   2.242
14732W        W82950  28.507  15.627  14.466
14733W        W82951  19.205  23.211  12.802
14734W        W82952  11.243  24.653  12.198
14735W        W82953  43.764  16.548  14.917
14736W        W82954  17.544  35.000   2.875
14737W        W82955  24.290  41.413   4.365
14738W        W82956  11.405  27.665   2.238
14739W        W82957  38.848   0.757  13.893
14740W        W82958  27.319  33.156  12.412
14741W        W82959  43.859  16.535  14.107
14742W        W82960  26.164  44.443  10.682
14743W        W82961   2.169  16.483   4.121
14744W        W82962  37.424  10.633   3.212
14745W        W82963  21.614  32.195   9.683
14746W        W82964  39.426  31.069   0.657
14747W        W82965  15.061  39.027   2.807
14748W        W82966  34.014  25.523   1.505
14749W        W82967  38.118  31.094   1.528
14750W        W82968  24.847  27.580  11.643
14751W        W82969  34.085   2.752  12.996
14752W        W82970  29.469   4.216  14.285
14753W        W82971  11.711  10.120   0.057
14754W        W82972  21.016   7.826  11.903
14755W        W82973  23.086  40.722  13.143
14756W        W82974  36.392  16.553   4.647
14757W        W82975  10.838  10.312   4.907
14758W        W82976  41.787   3.845  11.982
14759W        W82977   3.762  36.355  10.642
14760W        W82978  37.110  25.314  14.788
14761W        W82979  18.153  20.606  11.181
14762W        W82980  29.246  32.658   3.680
14763W        W82981  22.499  37.688   4.997
14764W        W82982  21.322  11.288  12.503
14765W        W82983  35.113  23.757   2.296
14766W        W82984   6.391   9.942   0.129
14767W        W82985  27.515  42.986  14.091
14768W        W82986  44.284  29.494  13.508
14769W        W82987   0.967   8.839   0.790
14770W        W82988  32.592  43.058   3.251
14771W        W82989  18.656  20.714  14.764
14772W        W82990  35.725  26.400  11.136
14773W        W82991  23.977  31.505  10.658
14774W        W82992  11.761   1.739   4.523
14775W        W82993  30.601   0.245   3.341
14776W        W82994  44.742  44.280   2.291
14777W        W82995  44.980  38.489  14.669
14778W        W82996   0.370  36.752  14.471
14779W        W82997  19.701  21.709   4.599
14780W        W82998  26.650  33.746  10.691
14781W        W82999  38.401  14.330   3.531
14782W        W83000   8.412  15.831   9.810
14783W        W83001  29.201  19.580  13.695
14784W        W83002  11.245  35.739   0.552
14785W        W83003  20.797  23.177  13.873
14786W        W83004  16.633  22.043   3.008
14787W        W83005  37.248  18.305   3.981
14788W        W83006   5.211  30.560  11.954
14789W        W83007   9.350  44.916   2.751
14790W        W83008   4.247  10.190   2.707
14791W        W83009  22.548  30.117   5.111
14792W        W83010  36.537   1.436  10.600
14793W        W83011  34.459  27.578   3.997
14794W        W83012   7.365  19.847   2.276
14795W        W83013   8.797   1.409  12.343
14796W        W83014  41.922  21.663   1.261
14797W        W83015   3.189  23.400  11.553
14798W        W83016  12.779   9.849  14.276
14799W        W83017  25.644  42.647  11.651
14800W        W83018  22.891  43.035  11.078
14801W        W83019  39.389  19.781  11.432
14802W        W83020  17.638   8.791   4.103
14803W        W83021   3.987  10.359   3.184
14804W        W83022  26.940  12.021  11.563
14805W        W83023  35.175  32.524   3.585
14806W        W83024   5.672  36.017  12.414
14807W        W83025  17.724  21.818   0.311
14808W        W83026  29.091  43.429   2.765
14809W        W83027  10.393  12.274   0.241
14810W        W83028  26.634  20.610  10.962
14811W        W83029   1.361  22.912  13.602
14812W        W83030  22.475  17.882   3.876
14813W        W83031  18.258   2.893  14.413
14814W        W83032  36.444  26.195  14.246
14815W        W83033  13.079  27.550   3.623
14816W        W83034  39.335  44.822  11.967
14817W        W83035   5.206  39.450   1.441
14818W        W83036  20.954  38.901  11.501
14819W        W83037  23.826  25.187  11.998
14820W        W83038  43.836  14.832  13.600
14821W        W83039  23.776   7.196   4.202
14822W        W83040  33.173  42.039  13.374
14823W        W83041  19.111  20.707   4.055
14824W        W83042  44.190  33.151  14.839
14825W        W83043   7.820  21.281   9.905
14826W        W83044  16.022  16.194   9.855
14827W        W83045   4.889  25.921  14.833
14828W        W83046  23.167  35.356   5.479
14829W        W83047  36.846  42.589   0.256
14830W        W83048  15.024   9.777   3.707
14831W        W83049   6.209   2.984   3.335
14832W        W83050  43.970  25.623  12.938
14833W        W83051  34.383  17.351   2.752
14834W        W83052  22.423   8.570   3.652
14835W        W83053  28.785  23.931  14.291
14836W        W83054  23.504  25.047  11.625
14837W        W83055   2.413  40.755  12.176
14838W        W83056  36.495   3.950   1.722
14839W        W83057  21.615  17.985  11.114
14840W        W83058  22.829  35.403  11.247
14841W        W83059  31.102   5.154   3.203
14842W        W83060  32.392  32.698   2.758
14843W        W83061  15.662   5.189   3.658
14844W        W83062  20.469  23.384  14.636
14845W        W83063  36.012  36.932  14.033
14846W        W83064   8.731  26.487   3.589
14847W        W83065   0.006   2.741   3.322
14848W        W83066  37.044  17.099   2.514
14849W        W83067   5.931  41.861  11.954
14850W        W83068  21.810  41.383  14.897
14851W        W83069  13.549  12.853  13.474
14852W        W83070  29.565  28.456  14.596
14853W        W83071  36.032  32.536   4.093
14854W        W83072   8.484  17.252   0.463
14855W        W83073  30.116  36.101  12.655
14856W        W83074  44.276  15.802  10.296
14857W        W83075   3.268  34.538  11.511
14858W        W83076  32.317  33.318   2.363
14859W        W83077  19.275   1.702   3.265
14860W        W83078  29.201  20.078  11.416
14861W        W83079  40.132  25.460   5.096
14862W        W83080  26.594  42.873  14.339
14863W        W83081  30.460  33.952  13.964
14864W        W83082  13.526  38.591  11.547
14865W        W83083  27.040  23.135  11.417
14866W        W83084  20.372  12.107  13.262
14867W        W83085  43.832   3.103  11.168
14868W        W83086  28.976  23.640  14.915
14869W        W83087   1.207  27.534  10.750
14870W        W83088  17.244   9.144   1.345
14871W        W83089   2.872  42.036   2.538
14872W        W83090  22.604  30.718   2.072
14873W        W83091   1.765  39.356  10.430
14874W        W83092  14.170  44.437   0.288
14875W        W83093  37.675  25.958  14.744
14876W        W83094  29.595  18.780   4.572
14877W        W83095   6.432  43.046   4.518
14878W        W83096   2.235  29.558   1.053
14879W        W83097  32.514   4.235  13.954
14880W        W83098  15.407   3.372   4.123
14881W        W83099  36.954  22.480   0.803
14882W        W83100   3.110  24.602   2.825
14883W        W83101  41.138  41.473  13.913
14884W        W83102   1.936   0.923   0.908
14885W        W83103  36.269  20.052  13.539
14886W        W83104   3.858  29.179   2.718
14887W        W83105   4.428  35.043  11.587
14888W        W83106  41.510   8.215   2.745
14889W        W83107  17.959  14.035  12.126
14890W        W83108  33.446   9.434  12.588
14891W        W83109  14.107  22.132   0.806
14892W        W83110  28.058  42.020  12.579
14893W        W83111   0.590   1.673  12.677
14894W        W83112  25.160  35.576  14.726
14895W        W83113  21.001  16.064  10.750
14896W        W83114   5.655  24.668  12.897
14897W        W83115  33.826  23.648   0.743
14898W        W83116  29.986   1.958  14.027
14899W        W83117  43.272  34.936  12.037
14900W        W83118  26.155   4.828   4.270
14901W        W83119  21.021  30.448  10.674
14902W        W83120  11.231  11.881   1.315
14903W        W83121  14.802  36.332   0.391
14904W        W83122  32.402  39.403   2.170
14905W        W83123  39.884  14.275   3.365
14906W        W83124  33.599  20.960   1.243
14907W        W83125  26.951  25.229   1.908
14908W        W83126  24.936  32.066  12.096
14909W        W83127  25.751  13.825   0.284
14910W        W83128  31.654  20.155  12.077
14911W        W83129  40.876   4.464  14.389
14912W        W83130  40.907  21.305  14.258
14913W        W83131  22.827  23.535   4.085
14914W        W83132   5.671   2.278   4.012
14915W        W83133  15.459  30.884   3.234
14916W        W83134  28.764  10.784  11.095
14917W        W83135  13.507  33.932  12.047
14918W        W83136  14.411  29.311   0.850
14919W        W83137  43.816  43.837   2.407
14920W        W83138  15.541   2.885   3.105
14921W        W83139  30.913   2.476   2.766
14922W        W83140   9.536  32.171   0.698
14923W        W83141   4.198   6.914  12.144
14924W        W83142  30.166   9.680   2.244
14925W        W83143  29.313  40.405   4.460
14926W        W83144  25.955  28.193   3.153
14927W        W83145  23.737  37.691  10.777
14928W        W83146  43.930  36.494   3.900
14929W        W83147  39.773  37.864   2.872
14930W        W83148  33.536  17.655  12.840
14931W        W83149  31.160  30.547  12.445
14932W        W83150  20.716  36.109  11.594
14933W        W83151   2.414  29.545   1.567
14934W        W83152  30.100  30.972  14.740
14935W        W83153  43.077  15.254   2.187
14936W        W83154   7.822  42.772  11.143
14937W        W83155  22.543  11.377   0.583
14938W        W83156  36.564   2.687   3.249
14939W        W83157  40.250  43.849  12.505
14940W        W83158  29.152  39.878  13.035
14941W        W83159  32.543  25.706   1.962
14942W        W83160  24.180  28.804   1.501
14943W        W83161  44.711  19.074  14.099
14944W        W83162   4.549  40.655  14.789
14945W        W83163   3.330  15.796  13.994
14946W        W83164   2.755   3.740   0.559
14947W        W83165  12.861   8.435   4.546
14948W        W83166  12.604   5.480  14.534
14949W        W83167  30.514  10.189   4.273
14950W        W83168  40.763  18.727   0.419
14951W        W83169  12.556  14.120   1.366
14952W        W83170  11.347  20.658  13.009
14953W        W83171  15.102  35.524   3.886
14954W        W83172   1.970  32.153  10.796
14955W        W83173  12.558  21.053   0.232
14956W        W83174  14.292  33.757   0.074
14957W        W83175  36.534  37.535   0.470
14958W        W83176  28.625  21.288   3.613
14959W        W83177  16.404  24.503  14.492
14960W        W83178  21.531  13.114   1.796
14961W        W83179  16.059  19.576   2.679
14962W        W83180  24.047  13.878  11.572
14963W        W83181  32.043  43.448  13.661
14964W        W83182  12.675   8.129  12.478
14965W        W83183   8.867  12.223   1.357
14966W        W83184  24.465  21.349   1.527
14967W        W83185  39.517  41.486  14.558
14968W        W83186  32.706  40.934  13.338
14969W        W83187  18.745  34.638   0.843
14970W        W83188  22.981  14.026  14.364
14971W        W83189  22.580  29.409   2.725
14972W        W83190   6.481  34.377  13.425
14973W        W83191  16.046  29.156  14.857
14974W        W83192  23.997  40.471  13.495
14975W        W83193   9.270  35.053   3.745
14976W        W83194   2.280  42.227  11.205
14977W        W83195   5.160  16.977   2.802
14978W        W83196  23.997  14.075  14.413
14979W        W83197  17.016   7.632  13.526
14980W        W83198  11.187  37.078   1.064
14981W        W83199  41.898  11.760   5.123
14982W        W83200  38.550  25.497  13.909
14983W        W83201  19.702  28.466   2.731
14984W        W83202   7.234  34.522   4.591
14985W        W83203  15.056  38.724   2.390
14986W        W83204  36.680  25.690  11.474
14987W        W83205  28.490  39.846   4.544
14988W        W83206  42.662  20.731  13.402
14989W        W83207  29.721  18.185   1.424
14990W        W83208   3.433   4.849   3.987
14991W        W83209  18.759  21.297  13.064
14992W        W83210  30.984   0.766   3.877
14993W        W83211   3.783  40.563   2.768
14994W        W83212  15.779  20.644   2.733
14995W        W83213  12.823  32.524  13.450
14996W        W83214  30.382  17.621  13.491
14997W        W83215  16.316  39.618   2.329
14998W        W83216   7.245  13.910   0.239
14999W        W83217  12.133  16.189  12.327
15000W        W83218  29.711  18.200  12.085
15001W        W83219   5.383  22.079  12.470
15002W        W83220  22.309  23.064   2.373
15003W        W83221  14.286  13.228  12.355
15004W        W83222  43.693  42.809  10.590
15005W        W83223  35.344   0.548  11.625
15006W        W83224  27.199  18.206  14.928
15007W        W83225  18.791  37.915   2.257
15008W        W83226  38.013  44.980   3.387
15009W        W83227  10.323  37.597  12.928
15010W        W83228  25.026  31.362  13.523
15011W        W83229  43.548   8.473  11.388
15012W        W83230  25.318  12.779  12.181
15013W        W83231  37.002  41.351  14.293
15014W        W83232   1.433  28.918   0.158
15015W        W83233  31.437  41.127  14.487
15016W        W83234  38.952  27.004   3.256
15017W        W83235  26.044  38.397  11.890
15018W        W83236  42.417  23.902   0.337
15019W        W83237   0.892  38.360  13.838
15020W        W83238  10.909  44.390   0.630
15021W        W83239   3.431   1.471   2.224
15022W        W83240  36.344  37.492   9.696
15023W        W83241  11.954  31.476   2.758
15024W        W83242   3.870  33.398  10.310
15025W        W83243  21.130  18.788  10.745
15026W        W83244  36.323  14.136   4.455
15027W        W83245  10.284  40.802   0.441
15028W        W83246  29.510  26.191   1.732
15029W        W83247   7.471  19.248   0.408
15030W        W83248   5.783  31.300   1.782
15031W        W83249  11.962  34.113   0.866
15032W        W83250  33.040  28.926   2.633
15033W        W83251   7.809  25.926   1.679
15034W        W83252  44.035  20.730   1.346
15035W        W83253  19.749  33.556  12.476
15036W        W83254   0.517  42.972  13.798
15037W        W83255  16.185   5.264   1.893
15038W        W83256  19.101  29.134  10.324
15039W        W83257   4.194   1.459   3.154
15040W        W83258   8.728  29.124   2.714
15041W        W83259   5.227  24.890   4.458
15042W        W83260  31.212  26.429  14.357
15043W        W83261  24.263  17.682   3.648
15044W        W83262  37.325  25.670  13.971
15045W        W83263  36.131   0.070   1.763
15046W        W83264   2.931  35.889  13.392
15047W        W83265  15.260   5.933   0.390
15048W        W83266  29.876  15.801   1.385
15049W        W83267  37.085  27.625  11.956
15050W        W83268  18.889   3.357  11.147
15051W        W83269  12.815  44.951   2.745
15052W        W83270  27.852   5.795  11.676
15053W        W83271  21.010  13.713   1.336
15054W        W83272   9.364  36.021   3.402
15055W        W83273  15.077  22.602  14.262
15056W        W83274  20.738  34.566   0.031
15057W        W83275  40.999  39.048  13.378
15058W        W83276   1.430  28.109   1.984
15059W        W83277  40.495  12.736   4.483
15060W        W83278  12.789  28.915  12.411
15061W        W83279  18.706   5.638  10.289
15062W        W83280  26.411   7.290  12.547
15063W        W83281  13.333  34.964   2.747
15064W        W83282   3.432  19.292  14.392
15065W        W83283  39.286  15.748   3.110
15066W        W83284  33.102  16.730   1.034
15067W        W83285   9.513   1.286   1.851
15068W        W83286  19.170  32.200   3.788
15069W        W83287  32.030  32.689   4.544
15070W        W83288  10.964  37.635   2.761
15071W        W83289  28.442  15.128   1.545
15072W        W83290   7.114  39.390  12.779
15073W        W83291   3.401  11.731  12.117
15074W        W83292   4.606  23.722   0.489
15075W        W83293   4.710  32.048   4.422
15076W        W83294  22.997  29.569  13.906
15077W        W83295  12.041  24.043  12.509
15078W        W83296   9.410   8.744   1.311
15079W        W83297   5.213   0.868  14.377
15080W        W83298  26.433   1.924   3.136
15081W        W83299  35.169  13.335  14.826
15082W        W83300  36.419  18.376   0.434
15083W        W83301  23.057  30.364  13.892
15084W        W83302  23.489  20.788  11.145
15085W        W83303  24.156  31.231  11.650
15086W        W83304   2.112  44.400   1.084
15087W        W83305  22.495  43.263   4.195
15088W        W83306  12.854  30.138   4.277
15089W        W83307  17.287   0.414  11.598
15090W        W83308   1.234   7.543  12.058
15091W        W83309  18.807  25.022   3.336
15092W        W83310  29.421  22.739  12.343
15093W        W83311   9.665  16.214  10.593
15094W        W83312  29.922  17.734  11.534
15095W        W83313  38.760  25.219   0.754
15096W        W83314  18.551  20.303  12.968
15097W        W83315  19.527  24.294  14.806
15098W        W83316  40.156  12.335  14.342
15099W        W83317  42.545  28.419   1.961
15100W        W83318   7.416  35.419   1.879
15101W        W83319  24.952  33.001  11.103
15102W        W83320  21.990   3.288  13.880
15103W        W83321  16.517   8.695   3.525
15104W        W83322   4.822  42.952   1.858
15105W        W83323  12.324  24.059  12.964
15106W        W83324  41.273   2.996  12.520
15107W        W83325  25.888  37.272  11.185
15108W        W83326   1.184  37.840  14.486
15109W        W83327  38.961  44.055   9.990
15110W        W83328  39.981  28.378  11.127
15111W        W83329   8.106   5.260   0.261
15112W        W83330   4.989   8.315  11.939
15113W        W83331  18.149  27.196  12.965
15114W        W83332  32.884  40.663   0.430
15115W        W83333  22.313  10.977  11.170
15116W        W83334  10.800   1.885  12.004
15117W        W83335  36.498  17.926  14.498
15118W        W83336  25.598  15.284   9.931
15119W        W83337  14.918  35.314   1.236
15120W        W83338  30.027   9.927   1.812
15121W        W83339  23.448  27.561  11.797
15122W        W83340   5.877  27.760  14.920
15123W        W83341  14.715  25.022  12.667
15124W        W83342  11.320  26.711   3.171
15125W        W83343  35.422  43.458   4.200
15126W        W83344  18.615   6.722  14.404
15127W        W83345   0.948  37.855  13.995
15128W        W83346   1.248  22.296  13.844
15129W        W83347   8.166  21.960  14.752
15130W        W83348  15.080  24.592  11.122
15131W        W83349  29.958   3.726   1.426
15132W        W83350  26.260  17.721   4.383
15133W        W83351  23.535  38.302  12.991
15134W        W83352   2.308  26.840  13.312
15135W        W83353   4.535  23.543  14.032
15136W        W83354  40.233  14.148  12.911
15137W        W83355  44.490  11.924  12.274
15138W        W83356  31.972   7.534  13.866
15139W        W83357  26.497  13.775   2.250
15140W        W83358  41.246  16.521   0.423
15141W        W83359  22.300  18.016   1.346
15142W        W83360  13.275  26.282   1.157
15143W        W83361   9.236  29.724  11.015
15144W        W83362  10.661  35.953   4.772
15145W        W83363  29.603  26.693   1.691
15146W        W83364   1.293   2.219  13.277
15147W        W83365  22.646  25.465  11.497
15148W        W83366   9.791  37.856  13.675
15149W        W83367  32.549  19.463   0.477
15150W        W83368  12.056  43.323   4.427
15151W        W83369   9.201  20.298   2.850
15152W        W83370  23.078  38.803  12.832
15153W        W83371  35.565  31.044   4.625
15154W        W83372  39.029  43.035   4.994
15155W        W83373  25.573   5.012   1.392
15156W        W83374   3.811  33.567  14.006
15157W        W83375  38.493  19.343  11.678
15158W        W83376  34.748  42.509  11.119
15159W        W83377  20.165   2.697  11.984
15160W        W83378  32.825  32.969   2.885
15161W        W83379  34.575  26.697  12.783
15162W        W83380  10.087  18.547   2.135
15163W        W83381  35.643  32.854  14.372
15164W        W83382  32.177  41.605  12.433
15165W        W83383   2.350  44.582  13.060
15166W        W83384  24.050  22.886   5.024
15167W        W83385  30.018  20.567   4.803
15168W        W83386  34.974   0.803   3.344
15169W        W83387  40.808  36.336   0.852
15170W        W83388  25.098  24.756   1.235
15171W        W83389  21.939   5.200  14.767
15172W        W83390  19.083   2.938   1.434
15173W        W83391  29.598  12.467   1.267
15174W        W83392   2.893   8.209  11.735
15175W        W83393   8.855  21.633   3.577
15176W        W83394  18.751  38.350   1.679
15177W        W83395  29.187  40.751   2.765
15178W        W83396  40.882   4.665  11.017
15179W        W83397  30.902   2.166  11.801
15180W        W83398  28.124  35.012  14.348
15181W        W83399  39.060   4.773   1.268
15182W        W83400  18.510  28.980  14.672
15183W        W83401  12.931  15.321   3.000
15184W        W83402  42.015  10.083   4.054
15185W        W83403   7.117  36.807   1.294
15186W        W83404   0.218  27.500   0.058
15187W        W83405  15.992  37.816   3.500
15188W        W83406  21.159   2.846   4.804
15189W        W83407  24.459  12.468  12.547
15190W        W83408  28.189  42.329   1.846
15191W        W83409  34.088  15.678  14.823
15192W        W83410  37.345  36.505   4.768
15193W        W83411  43.183  34.538  12.367
15194W        W83412  10.280  12.135  11.607
15195W        W83413  34.940  22.721   4.778
15196W        W83414  36.837  29.952  13.846
15197W        W83415  30.033   4.136   2.349
15198W        W83416   7.153   2.654   1.429
15199W        W83417  35.307  19.446  13.844
15200W        W83418  22.168  30.033  11.387
15201W        W83419  21.092   9.358  13.863
15202W        W83420  16.262  30.093   4.405
15203W        W83421  29.163  42.349   0.034
15204W        W83422   5.931  11.394  10.956
15205W        W83423  10.783   4.957  12.004
15206W        W83424  16.729  42.173  14.729
15207W        W83425  16.105  35.574  11.190
15208W        W83426  21.283  12.286  14.984
15209W        W83427   6.301  37.488   4.100
15210W        W83428   1.338   5.359   3.148
15211W        W83429   4.526  11.239  14.974
15212W        W83430  26.626  17.548   2.246
15213W        W83431  30.905  11.751  10.448
15214W        W83432   1.963  40.457  10.699
15215W        W83433  36.186  33.815   2.733
15216W        W83434  20.578  12.538   3.634
15217W        W83435  23.963  28.431   0.389
15218W        W83436  21.817  12.899   0.477
15219W        W83437  12.047  23.611   4.074
15220W        W83438  31.485  17.330  13.102
15221W        W83439  18.330  14.154  13.519
15222W        W83440  24.665  18.800  13.293
15223W        W83441  40.427  17.592   1.234
15224W        W83442  38.510  29.935  14.920
15225W        W83443   4.419  32.985   9.828
15226W        W83444  13.085   1.282   4.238
15227W        W83445   5.828   7.696   2.438
15228W        W83446   8.735   5.816  12.138
15229W        W83447   3.369  36.925  12.789
15230W        W83448  26.156  34.094   3.314
15231W        W83449  40.764   3.012   3.596
15232W        W83450  26.667   8.170   4.984
15233W        W83451  37.986  36.297  12.613
15234W        W83452  26.548  43.091   5.048
15235W        W83453   4.471  14.886  12.875
15236W        W83454   9.540  40.595   0.670
15237W        W83455  35.735  17.128  14.622
15238W        W83456  41.119  44.059   3.537
15239W        W83457  36.874  26.375   4.868
15240W        W83458  34.154  10.776   1.763
15241W        W83459  30.887  41.271   1.280
15242W        W83460  18.657  15.026  13.683
15243W        W83461   4.320  32.817  12.064
15244W        W83462  41.074  35.049  10.715
15245W        W83463  14.272  38.154   4.436
15246W        W83464   0.280  18.724   2.186
15247W        W83465  30.998  23.300   2.236
15248W        W83466  26.084   0.898   2.947
15249W        W83467  42.860   9.599   4.358
15250W        W83468  35.272  26.409   0.764
15251W        W83469  41.582  30.205  14.511
15252W        W83470  23.474  33.566   3.124
15253W        W83471  16.978  37.570  10.539
15254W        W83472  38.385  40.145   3.349
15255W        W83473  26.235  24.691  10.776
15256W        W83474   3.188  13.731  14.805
15257W        W83475  12.824   2.416  10.915
15258W        W83476  25.153  42.110  11.035
15259W        W83477  24.452  44.881  13.452
15260W        W83478   3.883  34.523   3.107
15261W        W83479   0.845  33.490  11.596
15262W        W83480  34.220   5.511  10.593
15263W        W83481  15.158  10.656   0.663
15264W        W83482  41.895   3.830   0.357
15265W        W83483  11.718   9.444  12.975
15266W        W83484   3.385  41.066  11.959
15267W        W83485  17.767   8.457   1.372
15268W        W83486   1.655  10.154  11.021
15269W        W83487  22.036  18.739   3.009
15270W        W83488  34.934   7.825   0.254
15271W        W83489  36.866  31.102   0.468
15272W        W83490  35.869  29.509  11.131
15273W        W83491  31.424  24.283   1.873
15274W        W83492  15.886  18.516  11.952
15275W        W83493   3.878   0.432   0.847
15276W        W83494  33.629  18.518   0.782
15277W        W83495  43.463   3.559  11.905
15278W        W83496  27.862  40.080  11.504
15279W        W83497  23.827   6.227   1.956
15280W        W83498  20.760   6.294   2.689
15281W        W83499   2.193   3.238  13.263
15282W        W83500  39.861  20.453   2.414
15283W        W83501  41.304  26.911  12.596
15284W        W83502   2.001  24.024  12.616
15285W        W83503  16.382  30.917  12.757
15286W        W83504   7.846  11.654  11.578
15287W        W83505  21.788  37.803  13.765
15288W        W83506  39.999  29.978   0.342
15289W        W83507   9.109  43.802  11.514
15290W        W83508  41.948   9.645  13.850
15291W        W83509   8.060  29.478  13.221
15292W        W83510  22.781  24.670   1.019
15293W        W83511  15.232  28.408  13.416
15294W        W83512  23.165   8.663   0.907
15295W        W83513  22.255  35.367   3.627
15296W        W83514  38.333  32.043  11.072
15297W        W83515  30.451  28.115  11.135
15298W        W83516   4.257  13.012  10.767
15299W        W83517   2.673   7.648  11.988
15300W        W83518  10.595  32.555  14.021
15301W        W83519  40.516  44.289   5.044
15302W        W83520  23.515  40.090   1.959
15303W        W83521  15.461  29.508  12.674
15304W        W83522  33.661  36.825   0.739
15305W        W83523  18.740  10.266   1.363
15306W        W83524  31.424  43.490  10.478
15307W        W83525  36.061   4.022   0.442
15308W        W83526  14.734  13.666   2.422
15309W        W83527  36.572  21.097   2.678
15310W        W83528  23.994  32.693   1.470
15311W        W83529  23.988  16.171  10.449
15312W        W83530  20.728  16.901  11.902
15313W        W83531  24.263  22.733   2.376
15314W        W83532   6.318  14.385   0.214
15315W        W83533  37.132  24.253  13.780
15316W        W83534  26.604  23.096   2.367
15317W        W83535  33.987  11.817   4.279
15318W        W83536   5.326   3.892  10.394
15319W        W83537   6.289  34.150   3.613
15320W        W83538  31.074  44.818   0.416
15321W        W83539   0.443  37.410   0.894
15322W        W83540  31.882  42.872  14.427
15323W        W83541  39.147  24.989  14.548
15324W        W83542  26.557  36.550  13.448
15325W        W83543  14.044  41.060  14.999
15326W        W83544  35.861  14.114   1.656
15327W        W83545  24.203  15.722  11.602
15328W        W83546  35.141  21.811   3.062
15329W        W83547   3.833  10.134   2.381
15330W        W83548  18.164  11.181  14.281
15331W        W83549  37.112   6.640   1.252
15332W        W83550  27.532  44.043   4.555
15333W        W83551   0.932  14.453   2.737
15334W        W83552  16.652  23.170   1.660
15335W        W83553  28.511  34.665   0.920
15336W        W83554  20.971  13.372   4.091
15337W        W83555  21.218   4.929   0.747
15338W        W83556  43.950   6.560  12.383
15339W        W83557  41.639  40.353   0.194
15340W        W83558  34.943   4.008  12.018
15341W        W83559  13.427  30.402  11.360
15342W        W83560  26.797  27.667  14.765
15343W        W83561  10.831  24.091  12.877
15344W        W83562  43.429  37.318  11.483
15345W        W83563   3.329  38.831  11.502
15346W        W83564  34.691   1.042   2.056
15347W        W83565  44.400   8.873  11.091
15348W        W83566  26.982  21.015   1.343
15349W        W83567  43.732  17.129  11.074
15350W        W83568  17.300  23.217  12.880
15351W        W83569  42.546  10.835   0.921
15352W        W83570  33.614  39.450   2.646
15353W        W83571  33.354  33.996  12.131
15354W        W83572  15.905  17.414  12.617
15355W        W83573  35.401  24.989  10.747
15356W        W83574  21.107   6.081  12.698
15357W        W83575   4.585   5.369   2.617
15358W        W83576  37.530  14.642  14.805
15359W        W83577   4.993  23.520   3.213
15360W        W83578  33.572  41.305  13.101
15361W        W83579  28.493   6.145   2.587
15362W        W83580  21.971   8.561  13.098
15363W        W83581  20.051  30.060  12.403
15364W        W83582  32.220   5.778  13.392
15365W        W83583  19.856  11.803   0.420
15366W        W83584   1.202  13.684   4.269
15367W        W83585  13.627  16.393   2.654
15368W        W83586  26.741   9.097   0.858
15369W        W83587  41.343  37.605   0.929
15370W        W83588   4.294  39.005   0.659
15371W        W83589  26.102  38.113  11.479
15372W        W83590  38.069  31.731  10.752
15373W        W83591  20.449  11.785  11.576
15374W        W83592  25.507  44.311   0.865
15375W        W83593  42.830  13.811   4.577
15376W        W83594  18.613  12.137   2.338
15377W        W83595  28.431   8.405  14.471
15378W        W83596  25.450  40.474   0.564
15379W        W83597  15.098  19.303   4.190
15380W        W83598  41.636  22.921  11.100
15381W        W83599   2.378  10.795  10.933
15382W        W83600  12.209  33.868  10.657
15383W        W83601  13.302  14.739  10.700
15384W        W83602  23.098  36.610  11.740
15385W        W83603  36.473   8.926  10.668
15386W        W83604   5.415  19.746  12.052
15387W        W83605   9.728  14.785  13.370
15388W        W83606  26.103  35.533  11.522
15389W        W83607   0.880  40.380  12.460
15390W        W83608  18.610  10.314   3.406
15391W        W83609  11.659   3.961  13.013
15392W        W83610  23.454  43.041   4.071
15393W        W83611  41.491  17.540  13.240
15394W        W83612  26.119   5.358   2.605
15395W        W83613  32.162  33.918   1.812
15396W        W83614   3.345  11.959   1.618
15397W        W83615  15.972   8.933  14.830
15398W        W83616  43.244   3.457   2.091
15399W        W83617   1.851  10.978   1.345
15400W        W83618  37.606  43.392   2.567
15401W        W83619  32.501  19.572  12.461
15402W        W83620   1.101  22.738   4.232
15403W        W83621   0.265  23.300   0.873
15404W        W83622   2.349   2.357  13.333
15405W        W83623  25.708   4.039   2.611
15406W        W83624  32.087  21.726  12.971
15407W        W83625   2.865   3.689  11.638
15408W        W83626  32.433  22.546   2.553
15409W        W83627   2.813  39.003  11.626
15410W        W83628   4.642  41.114   3.568
15411W        W83629  44.704  20.117   1.172
15412W        W83630   7.021  10.406   1.888
15413W        W83631  39.008  18.324   0.474
15414W        W83632  44.432  19.232  14.508
15415W        W83633  30.372  42.848  14.397
15416W        W83634   4.298  42.993  10.250
15417W        W83635  34.618  40.959   4.526
15418W        W83636  33.189   9.432  12.065
15419W        W83637  34.013  33.124   0.707
15420W        W83638   9.419  34.106   1.937
15421W        W83639  34.000   0.419   0.140
15422W        W83640  34.534  40.566   1.031
15423W        W83641  42.146  15.377  12.565
15424W        W83642   3.711   9.099   2.889
15425W        W83643  21.826   1.820   2.117
15426W        W83644  20.581  28.585   2.435
15427W        W83645  23.757  24.746   4.582
15428W        W83646   2.393   3.956  11.552
15429W        W83647  31.211  43.432  13.747
15430W        W83648  18.605   8.775   1.005
15431W        W83649   3.435  16.019  13.515
15432W        W83650   9.312  13.590   1.270
15433W        W83651   3.063  44.505  12.485
15434W        W83652  34.905  24.526  12.337
15435W        W83653  10.936   0.945  10.611
15436W        W83654  24.056  29.202  12.555
15437W        W83655  42.798  10.862   3.166
15438W        W83656  21.528   3.448  14.031
15439W        W83657  31.149  24.586   4.619
15440W        W83658  10.355  14.247   0.862
15441W        W83659   5.527  23.791  13.713
15442W        W83660  39.954   7.299   4.279
15443W        W83661  15.123  26.685   3.952
15444W        W83662  28.623   0.584   1.798
15445W        W83663  33.354  24.521  14.883
15446W        W83664  43.732  18.637   0.930
15447W        W83665  39.696  17.022  12.537
15448W        W83666   2.433   2.649   3.231
15449W        W83667   5.904  16.662   5.388
15450W        W83668  15.598  12.797   0.767
15451W        W83669   7.332  30.657   2.356
15452W        W83670  12.470  21.598  10.969
15453W        W83671  10.192  15.798  11.629
15454W        W83672  35.153   8.808   2.486
15455W        W83673  32.948  14.947  10.953
15456W        W83674   2.336  42.241  12.893
15457W        W83675  25.086   2.134  12.985
15458W        W83676   9.873  16.346   3.766
15459W        W83677  22.268  35.048  12.454
15460W        W83678  27.138  15.306   0.387
15461W        W83679  31.001  33.074   3.812
15462W        W83680  44.076  10.038   1.805
15463W        W83681   6.909  41.942  10.352
15464W        W83682  24.577  38.923   2.768
15465W        W83683  11.227  26.199   3.108
15466W        W83684   6.403  23.103  12.333
15467W        W83685  44.408  26.271   0.487
15468W        W83686   6.886  36.035   2.367
15469W        W83687  25.637  37.019   1.017
15470W        W83688  40.399  15.647   0.993
15471W        W83689  13.360   4.705  14.564
15472W        W83690   8.527  27.774  14.332
15473W        W83691  13.925  19.458   0.721
15474W        W83692  26.652  13.553  14.196
15475W        W83693  38.859  12.496  12.593
15476W        W83694  12.711  16.241   3.065
15477W        W83695  39.802   4.819   4.097
15478W        W83696  36.514  23.389   9.967
15479W        W83697  16.776  30.648   3.569
15480W        W83698   0.273  33.089   2.243
15481W        W83699  43.110   5.723  12.314
15482W        W83700  14.338  39.349  14.701
15483W        W83701  17.095  12.809   4.538
15484W        W83702  42.196  33.565   5.086
15485W        W83703  21.014  14.284  10.656
15486W        W83704  33.769  16.356  13.373
15487W        W83705  43.393  10.404   2.755
15488W        W83706  20.137  40.094  10.215
15489W        W83707  36.371  14.063   3.081
15490W        W83708   4.638  36.214  14.456
15491W        W83709  30.361  14.176  11.088
15492W        W83710  40.469  36.148  11.245
15493W        W83711  19.754  23.958  11.620
15494W        W83712  21.853  29.534   0.372
15495W        W83713  24.814  37.438   9.805
15496W        W83714  31.144  44.183  12.442
15497W        W83715   7.382  13.157   2.278
15498W        W83716  38.814  42.981  13.891
15499W        W83717   7.374  11.966  10.777
15500W        W83718   2.829  24.755   0.855
15501W        W83719  29.567  19.986  14.828
15502W        W83720   3.887  20.471  14.256
15503W        W83721  10.379  15.784   2.644
15504W        W83722   1.302  21.265  12.758
15505W        W83723  42.854  17.692   2.905
15506W        W83724  34.913  19.194   3.641
15507W        W83725  37.467  17.866   3.669
15508W        W83726  41.626   5.041   0.767
15509W        W83727   7.820  15.326   1.499
15510W        W83728  35.355   0.965   2.488
15511W        W83729  21.700  33.378  12.750
15512W        W83730  10.931  21.342   4.216
15513W        W83731  12.096  18.111  14.120
15514W        W83732   0.548  38.132  11.156
15515W        W83733  30.004  40.277   2.802
15516W        W83734  40.879   3.917  13.390
15517W        W83735  35.152   3.307   1.087
15518W        W83736  13.105   7.325  14.435
15519W        W83737  18.247   0.635  12.539
15520W        W83738   2.872  11.536  10.371
15521W        W83739  35.957   8.385   3.640
15522W        W83740  39.275  39.306  11.053
15523W        W83741  43.827  33.032  11.916
15524W        W83742  36.264  39.944   1.373
15525W        W83743  27.703  14.373  12.940
15526W        W83744   4.264  28.851   0.277
15527W        W83745   4.202   4.311  14.486
15528W        W83746   2.162  36.142   3.155
15529W        W83747  22.674   4.553   0.018
15530W        W83748  16.665  40.780   3.361
15531W        W83749  31.022  36.163   3.670
15532W        W83750  35.958  13.371  13.957
15533W        W83751  27.906  12.855   2.236
15534W        W83752  40.278  38.136  13.984
15535W        W83753   6.546  43.779   4.153
15536W        W83754  18.004   5.753  14.848
15537W        W83755  40.313  28.992   4.647
15538W        W83756  23.085   1.721   4.498
15539W        W83757  38.466  19.483  12.582
15540W        W83758   8.212  24.420  14.417
15541W        W83759  31.386   3.429  14.317
15542W        W83760  35.340  22.276  14.629
15543W        W83761  23.270  35.617   4.206
15544W        W83762  41.866  28.633   1.211
15545W        W83763  16.329  23.527   1.833
15546W        W83764  15.426   7.786   0.803
15547W        W83765   6.453  17.708   2.347
15548W        W83766  11.632  33.149   4.544
15549W        W83767  15.713  31.267  10.307
15550W        W83768  38.855  12.288  12.127
15551W        W83769  18.256  30.060  12.443
15552W        W83770   3.939  22.152   0.034
15553W        W83771  10.892   4.120  14.629
15554W        W83772  36.026  20.372  12.376
15555W        W83773  10.902  33.669  14.730
15556W        W83774  26.372   0.981   5.128
15557W        W83775  37.072  24.457  11.164
15558W        W83776  11.612  43.480   4.233
15559W        W83777  30.640  30.921  14.835
15560W        W83778  28.259  26.751   2.293
15561W        W83779  13.883  23.389  12.533
15562W        W83780  27.718   8.312   2.396
15563W        W83781  25.678  20.536  13.982
15564W        W83782  20.261  34.975   1.921
15565W        W83783  28.058  10.124   3.248
15566W        W83784   8.320  31.529   2.470
15567W        W83785  12.593   3.917  10.918
15568W        W83786  16.209   2.842   4.891
15569W        W83787  43.000  40.597   3.240
15570W        W83788   8.640  24.142   3.298
15571W        W83789   7.703   3.397   2.897
15572W        W83790  32.716   0.447   0.754
15573W        W83791  42.456  31.069   2.946
15574W        W83792  40.722   5.884  14.303
15575W        W83793  37.316  26.068   4.894
15576W        W83794   4.610  15.908  10.536
15577W        W83795  43.801  39.455  12.182
15578W        W83796  15.093  21.540   1.508
15579W        W83797  13.677   2.978  13.372
15580W        W83798  20.828  12.623   4.870
15581W        W83799  27.752   0.417   3.730
15582W        W83800  26.079   6.671  14.877
15583W        W83801  37.497  14.357  12.418
15584W        W83802   4.940  42.076   0.915
15585W        W83803   9.211   9.269   0.244
15586W        W83804   1.179   8.932  11.688
15587W        W83805   7.381  11.448  10.747
15588W        W83806   1.634  18.472   0.399
15589W        W83807  24.996  16.784  13.019
15590W        W83808  15.636  27.376  11.594
15591W        W83809  33.570  15.630   0.687
15592W        W83810  22.749   8.920  14.881
15593W        W83811  34.274  27.537   2.703
15594W        W83812  33.193  39.037   3.697
15595W        W83813  24.131  32.631   0.430
15596W        W83814  24.086   4.783   1.482
15597W        W83815  34.295  18.493  12.031
15598W        W83816  15.917  19.472   3.577
15599W        W83817  34.913   5.842  14.557
15600W        W83818  11.578  38.957   3.422
15601W        W83819  15.680   3.394   2.794
15602W        W83820  26.249   7.888   1.262
15603W        W83821  16.403  40.435  11.186
15604W        W83822  31.644  11.826  11.670
15605W        W83823   5.722  26.632  12.139
15606W        W83824  10.875   6.388   2.390
15607W        W83825  24.987  32.565   4.948
15608W        W83826  13.611  27.716  11.950
15609W        W83827   5.598  18.863  12.854
15610W        W83828  32.390  42.602  12.174
15611W        W83829  43.274  19.982  12.105
15612W        W83830  24.224  26.123  11.852
15613W        W83831  40.867  30.065   4.410
15614W        W83832  11.840  19.806   1.384
15615W        W83833   4.131  31.886  11.415
15616W        W83834  41.080  41.773  12.205
15617W        W83835  22.390  42.872  10.336
15618W        W83836  13.151   2.926   2.146
15619W        W83837  30.413  15.224   1.356
15620W        W83838  23.287  10.675  11.522
15621W        W83839  24.144   5.192   1.856
15622W        W83840   2.435  31.408  13.131
15623W        W83841  20.229  25.710   1.999
15624W        W83842   9.901   9.535  12.025
15625W        W83843  15.689  29.113  14.301
15626W        W83844  42.793   3.461   4.338
15627W        W83845   9.332  29.823   4.434
15628W        W83846  31.517  33.544   1.967
15629W        W83847  29.068   9.268  14.277
15630W        W83848  20.193   8.224  10.939
15631W        W83849   3.966  22.738  13.829
15632W        W83850  27.268   9.938  11.173
15633W        W83851   7.798  10.265   2.745
15634W        W83852   0.463  34.913   4.144
15635W        W83853   8.310   8.812   2.777
15636W        W83854  32.992  15.867  12.626
15637W        W83855  29.007   7.943   3.865
15638W        W83856  39.084  37.464   0.939
15639W        W83857   8.455  28.950   3.148
15640W        W83858  44.746  27.049  13.546
15641W        W83859  39.866  32.071   0.248
15642W        W83860  36.399  10.098   4.862
15643W        W83861  26.653  12.070   4.600
15644W        W83862  38.767  20.138  13.012
15645W        W83863  39.811   0.431   1.395
15646W        W83864  37.327  14.151   1.868
15647W        W83865  35.875  11.674  14.474
15648W        W83866  43.470  40.779   2.651
15649W        W83867   4.897  33.707  14.646
15650W        W83868  14.300  11.617   3.319
15651W        W83869  19.963  39.072   4.975
15652W        W83870  11.160  41.959  13.541
15653W        W83871  18.510   4.885   1.318
15654W        W83872   0.633  31.725  12.066
15655W        W83873  22.246  32.202  12.283
15656W        W83874  41.732   8.215  14.786
15657W        W83875  36.597  17.685  14.054
15658W        W83876  33.334  30.068   4.580
15659W        W83877   8.437  28.107  11.494
15660W        W83878   8.762  17.243  11.609
15661W        W83879  25.197  16.657   3.857
15662W        W83880  32.213  44.016   0.837
15663W        W83881   6.804  31.490   2.857
15664W        W83882  40.528   1.159   1.821
15665W        W83883  12.725  23.087   2.292
15666W        W83884  44.316  12.755  12.755
15667W        W83885  29.928  10.499  11.846
15668W        W83886  39.885  41.149   4.742
15669W        W83887  13.114  32.833   3.584
15670W        W83888  33.031  44.550   0.455
15671W        W83889  31.288  17.829   3.184
15672W        W83890  18.191   8.175   2.765
15673W        W83891  36.451  34.420  14.356
15674W        W83892   5.442  30.541  12.877
15675W        W83893  17.568  18.964  10.678
15676W        W83894  34.064  13.397   3.653
15677W        W83895  21.597  25.703  13.900
15678W        W83896  31.906  16.209  10.825
15679W        W83897  28.557  11.177  12.315
15680W        W83898   1.777   5.440   0.268
15681W        W83899   8.978   5.736  10.718
15682W        W83900  36.947  16.690  13.366
15683W        W83901  44.771  29.445   3.189
15684W        W83902   7.618   3.825  10.573
15685W        W83903  14.860   3.429   3.268
15686W        W83904  25.976  29.143  12.815
15687W        W83905  38.350   3.197   0.947
15688W        W83906  20.588   3.395   1.293
15689W        W83907   5.922  34.421   2.583
15690W        W83908  16.701  12.057  14.976
15691W        W83909  43.282   9.730   0.368
15692W        W83910  35.629  25.064   2.227
15693W        W83911  28.912  29.915  11.216
15694W        W83912  17.094   1.333   3.111
15695W        W83913   0.796   9.437   3.857
15696W        W83914  27.166  21.086  14.363
15697W        W83915  30.392  12.238   0.831
15698W        W83916  35.369   2.933  12.662
15699W        W83917  36.638   4.997  14.167
15700W        W83918  23.426  34.300   0.061
15701W        W83919  14.155   0.841   4.522
15702W        W83920   5.868  19.552   0.604
15703W        W83921  23.447  41.207   0.495
15704W        W83922  13.359  39.713   1.283
15705W        W83923  23.745  19.631   1.837
15706W        W83924  25.997  27.453   4.066
15707W        W83925  28.984   9.149  14.773
15708W        W83926  29.636  29.407   0.358
15709W        W83927   2.027  43.395   3.283
15710W        W83928  36.025  30.216   0.270
15711W        W83929  33.528  35.009  14.075
15712W        W83930  20.094  22.652  10.720
15713W        W83931   1.338   9.871   0.273
15714W        W83932  37.556  20.661  13.061
15715W        W83933  36.376  18.396   1.007
15716W        W83934   4.417   7.852   0.872
15717W        W83935  39.326   3.181  12.446
15718W        W83936   8.429  19.563  13.497
15719W        W83937   6.308  14.893   3.277
15720W        W83938  22.191  36.379  11.350
15721W        W83939   4.392  16.604   0.933
15722W        W83940  23.231  19.733   2.712
15723W        W83941  17.127  44.918   9.874
15724W        W83942   0.958  19.552  13.218
15725W        W83943  24.021  43.549  12.384
15726W        W83944  25.277   5.836  13.502
15727W        W83945  22.970  39.251   3.203
15728W        W83946  14.199  25.191  14.097
15729W        W83947  20.342  13.189   1.627
15730W        W83948  37.292  41.059  10.391
15731W        W83949  24.582  13.078   3.282
15732W        W83950   1.372  31.488  12.584
15733W        W83951   2.169  36.088  13.875
15734W        W83952   9.616  30.004  13.492
15735W        W83953   1.519  13.298  11.606
15736W        W83954   4.032   0.702   4.224
15737W        W83955   0.231  31.409   3.713
15738W        W83956  24.226  10.349   4.087
15739W        W83957  41.817  34.556  12.073
15740W        W83958   3.848  22.888  10.286
15741W        W83959  33.799   7.163   0.211
15742W        W83960   5.151  35.623   1.885
15743W        W83961  17.700  16.222  13.344
15744W        W83962   3.165  37.601  15.000
15745W        W83963  24.593  27.687   2.129
15746W        W83964  39.922  27.866  11.135
15747W        W83965   9.721  35.534  11.975
15748W        W83966   5.010   7.689  12.607
15749W        W83967   2.319  23.099   0.039
15750W        W83968  25.660  12.124  12.044
15751W        W83969  19.229  16.895   2.405
15752W        W83970   9.846  23.720  13.654
15753W        W83971  13.892  42.596   0.368
15754W        W83972  28.652   0.035   1.833
15755W        W83973  11.248  15.167  12.444
15756W        W83974   7.153  11.793  13.717
15757W        W83975  11.607  15.640   3.884
15758W        W83976  28.430   9.949  12.862
15759W        W83977  41.031  16.921   0.716
15760W        W83978   5.873   2.302   0.187
15761W        W83979  12.820  13.806   2.134
15762W        W83980  43.430   4.960   2.338
15763W        W83981  40.211  41.489  10.770
15764W        W83982  24.119  39.105  10.646
15765W        W83983   0.353  36.103  12.922
15766W        W83984   1.326  33.591  11.101
15767W        W83985   9.035  30.795  11.007
15768W        W83986   1.013  18.202  10.075
15769W        W83987   1.027  36.271   4.110
15770W        W83988  44.846   2.041  13.799
15771W        W83989  44.535  33.621  13.490
15772W        W83990   2.683  26.513  11.961
15773W        W83991  43.109  12.753   1.418
15774W        W83992  24.466  14.074   3.192
15775W        W83993  42.373  20.280   0.718
15776W        W83994  19.272   2.372  11.553
15777W        W83995  13.096  41.493  13.058
15778W        W83996   3.856  40.294  13.609
15779W        W83997  20.502  17.165   3.181
15780W        W83998  17.747   6.015   0.268
15781W        W83999   3.569  18.773  11.228
15782W        W84000  32.858  29.675  10.217
15783W        W84001  37.545  28.573  13.784
15784W        W84002  40.385  36.081  14.917
15785W        W84003  44.761   6.151   4.548
15786W        W84004  10.136  16.041   2.267
15787W        W84005   8.394  19.270   4.820
15788W        W84006  25.402  13.172  13.119
15789W        W84007  39.516  41.752  10.731
15790W        W84008  34.663  25.749  13.650
15791W        W84009  38.047  44.436  12.489
15792W        W84010  37.617   9.040   1.768
15793W        W84011  44.682  32.732   0.350
15794W        W84012  22.845  43.488   2.864
15795W        W84013  21.770  27.067  13.126
15796W        W84014  16.775   8.806   2.207
15797W        W84015  13.582  28.896   3.637
15798W        W84016  12.896   5.897  11.480
15799W        W84017  31.991  42.568   0.386
15800W        W84018  11.649  40.131   2.871
15801W        W84019  29.129  22.659   3.911
15802W        W84020  10.419  25.140  11.606
15803W        W84021   2.030  36.075  12.145
15804W        W84022  33.895  31.713   0.746
15805W        W84023  38.467   8.671  11.526
15806W        W84024   9.511  25.565   3.132
15807W        W84025  20.020   7.661  13.535
15808W        W84026   0.254  42.054   3.692
15809W        W84027  31.621  40.539   1.511
15810W        W84028  37.592   6.594  14.483
15811W        W84029  43.059  23.475   0.336
15812W        W84030  31.103  14.837   1.902
15813W        W84031   8.679  24.556  14.254
15814W        W84032  15.486   8.740  14.883
15815W        W84033  40.398   5.293  14.900
15816W        W84034   2.307  24.865   1.157
15817W        W84035   3.342   2.285  11.635
15818W        W84036  34.124  17.303  11.050
15819W        W84037  13.046   7.266  13.433
15820W        W84038  10.842  42.952  10.719
15821W        W84039   4.911   1.994  11.142
15822W        W84040   8.434   1.582  13.953
15823W        W84041  21.579  39.950   1.258
15824W        W84042  28.274  17.254  14.014
15825W        W84043  26.742  26.418  10.330
15826W        W84044  20.214  19.976  12.410
15827W        W84045   0.456   6.004  11.875
15828W        W84046  22.561  27.897   0.848
15829W        W84047  26.445  11.306   0.316
15830W        W84048  18.750  19.873  11.026
15831W        W84049  23.644   9.392   2.312
15832W        W84050  24.621   9.101   2.488
15833W        W84051  26.841  30.535   2.305
15834W        W84052   1.605  20.525   3.248
15835W        W84053  25.006  37.977   1.149
15836W        W84054   9.408  32.202   4.154
15837W        W84055  28.190  20.666   4.210
15838W        W84056  24.107  15.265  10.411
15839W        W84057   9.830   7.189  14.971
15840W        W84058  36.849  22.541   3.993
15841W        W84059  29.114  20.287   4.311
15842W        W84060   9.773   3.273  14.572
15843W        W84061  16.156   1.992   3.785
15844W        W84062  22.029  30.192   3.162
15845W        W84063   5.975  36.675  10.666
15846W        W84064  33.562  29.178  11.445
15847W        W84065  30.053  41.114   4.501
15848W        W84066   4.780   2.329  11.542
15849W        W84067   7.951  37.420   1.863
15850W        W84068  43.328  41.495   2.325
15851W        W84069  16.648  14.756  14.216
15852W        W84070  29.404   8.746  10.712
15853W        W84071  42.933  36.562   1.278
15854W        W84072  41.868  34.494  11.553
15855W        W84073  33.720  15.734  13.710
15856W        W84074  31.696  27.199   5.513
15857W        W84075  40.030   4.751   1.577
15858W        W84076  35.316   8.365   1.586
15859W        W84077   6.752  18.501  10.701
15860W        W84078  22.940  37.865  13.867
15861W        W84079  19.685   6.469  12.140
15862W        W84080  18.772   4.171   4.192
15863W        W84081  10.289  10.043  10.787
15864W        W84082  32.161   5.498   4.485
15865W        W84083  18.698  38.360  11.504
15866W        W84084  41.304  26.922   1.845
15867W        W84085  27.777  15.194  14.802
15868W        W84086  43.637  42.023  14.267
15869W        W84087   8.667   1.787   0.546
15870W        W84088  12.801  14.885  14.778
15871W        W84089  25.526   9.795  14.255
15872W        W84090   7.400  21.653   0.998
15873W        W84091  33.164  32.276   0.725
15874W        W84092  13.245   8.229  12.954
15875W        W84093  10.573  30.394  14.432
15876W        W84094  29.531  10.151  10.429
15877W        W84095  42.571  31.348   0.347
15878W        W84096   2.337  20.962   4.495
15879W        W84097  30.964  30.855   1.801
15880W        W84098  38.575  19.597   1.504
15881W        W84099  41.302  13.813   0.004
15882W        W84100   4.213  24.252  14.772
15883W        W84101  30.615  43.474   3.636
15884W        W84102  38.812  28.934  14.025
15885W        W84103  23.963  25.741  10.662
15886W        W84104   9.039  21.377   3.127
15887W        W84105  42.589  40.519   0.221
15888W        W84106  37.374  36.967  14.973
15889W        W84107  17.928   0.836  10.100
15890W        W84108  35.139  26.198  12.050
15891W        W84109   9.536   2.869  14.827
15892W        W84110  42.313  12.213  14.932
15893W        W84111  21.867  42.205   1.880
15894W        W84112   9.663  33.585  12.164
15895W        W84113   7.270  33.653   0.872
15896W        W84114  14.353   7.868   2.730
15897W        W84115  23.511  29.448   2.827
15898W        W84116   5.522  40.970  14.908
15899W        W84117  29.089  16.591   3.199
15900W        W84118  37.039  22.489   1.343
15901W        W84119  31.040  15.073   1.382
15902W        W84120  20.229  12.302   2.708
15903W        W84121  25.493  35.833   4.140
15904W        W84122  38.115  21.162   3.379
15905W        W84123  23.821   3.500  13.435
15906W        W84124  19.706  20.843   0.702
15907W        W84125  43.789  19.003  12.637
15908W        W84126  31.926  23.178   1.805
15909W        W84127   5.321  18.861   0.562
15910W        W84128  20.357  10.871  11.136
15911W        W84129  41.489   4.899  13.932
15912W        W84130  20.987  41.554  11.233
15913W        W84131   5.152  21.748  11.045
15914W        W84132   9.815   5.818   1.877
15915W        W84133   3.857  26.080   1.688
15916W        W84134   0.540  13.617   3.249
15917W        W84135  43.682  44.266  13.939
15918W        W84136  39.993  39.249   0.290
15919W        W84137  11.690   7.427   4.034
15920W        W84138  21.286  29.181   3.848
15921W        W84139  32.015   3.725  13.000
15922W        W84140  13.548  30.057   0.407
15923W        W84141  26.461  30.486  14.557
15924W        W84142  34.727  36.158   1.213
15925W        W84143  20.848  36.617   4.223
15926W        W84144  41.006  35.821   3.725
15927W        W84145  14.754  27.770   4.096
15928W        W84146   5.496   1.139   2.351
15929W        W84147  23.582  25.488   4.312
15930W        W84148  37.343  19.991  14.940
15931W        W84149   6.317  33.146   0.935
15932W        W84150  27.837  30.343  13.042
15933W        W84151   6.450  33.413   3.256
15934W        W84152  29.658  29.990  13.029
15935W        W84153   5.255  24.564  10.750
15936W        W84154  37.334  31.500  10.910
15937W        W84155  28.630  38.262   1.438
15938W        W84156   1.830  41.597   3.453
15939W        W84157  15.119  37.002   2.150
15940W        W84158  10.947  38.825   3.653
15941W        W84159  41.409  38.261   2.894
15942W        W84160   6.807   2.320   2.756
15943W        W84161  36.910   5.230   0.258
15944W        W84162  33.589  15.119   4.918
15945W        W84163  29.747  32.281  10.217
15946W        W84164  36.119   4.901  11.925
15947W        W84165  41.372  19.268   0.192
15948W        W84166  14.691  17.046  14.518
15949W        W84167  38.613  32.502   1.237
15950W        W84168  25.679  23.284  14.069
15951W        W84169  35.056   3.462   5.657
15952W        W84170  41.380  33.104   4.389
15953W        W84171  10.357  44.034  11.122
15954W        W84172  27.504  20.616  10.624
15955W        W84173  36.377  13.726   2.664
15956W        W84174   6.055  19.908  14.440
15957W        W84175   7.019  25.462   4.490
15958W        W84176  39.227  21.031  10.994
15959W        W84177  24.719  12.185  14.284
15960W        W84178  25.600   7.648   0.702
15961W        W84179  26.529  34.918  12.533
15962W        W84180   0.479  42.724  14.927
15963W        W84181   0.283   1.777   3.915
15964W        W84182   1.511   1.861   1.293
15965W        W84183   7.338  39.061  13.171
15966W        W84184   7.553   9.308   2.848
15967W        W84185   0.309  19.311   1.735
15968W        W84186  24.457  30.063  11.619
15969W        W84187   6.886  32.580   4.295
15970W        W84188  11.765  11.307  12.665
15971W        W84189  42.852  28.276   3.689
15972W        W84190  18.044  12.821   1.352
15973W        W84191  39.623   5.424  12.083
15974W        W84192  33.408  14.355   4.338
15975W        W84193  21.571  31.929   0.831
15976W        W84194  34.040   7.427  14.822
15977W        W84195  41.999  36.330   3.198
15978W        W84196  41.351  35.813  11.424
15979W        W84197  32.911  23.295   4.196
15980W        W84198   5.842  37.382  12.803
15981W        W84199  13.797   1.124  12.134
15982W        W84200  33.416  15.978   1.408
15983W        W84201  11.891  19.047   0.110
15984W        W84202  23.108  31.907  14.377
15985W        W84203  40.902  17.825   3.444
15986W        W84204  42.895  15.490  14.766
15987W        W84205  34.326  14.850   3.705
15988W        W84206  21.600  43.769   3.284
15989W        W84207  15.609   6.531  14.880
15990W        W84208  37.687  40.108  12.581
15991W        W84209  39.486  44.412  12.460
15992W        W84210  44.762  29.036  11.598
15993W        W84211  10.862  15.211  13.139
15994W        W84212   5.422  35.846  11.976
15995W        W84213   7.846  32.939   1.305
15996W        W84214  38.531  37.164   1.876
15997W        W84215  26.710  32.927   2.027
15998W        W84216   8.957  12.581  12.017
15999W        W84217  42.836  29.244   3.760
16000W        W84218  21.274   0.995  13.420
16001W        W84219   4.277   3.346  11.514
16002W        W84220  13.820   4.479  13.430
16003W        W84221  44.771   8.060   1.800
16004W        W84222  10.879  12.106  10.900
16005W        W84223  32.543  22.640  11.897
16006W        W84224  36.167  32.393   1.891
16007W        W84225  16.303  37.958   0.475
16008W        W84226  15.668  16.254  10.250
16009W        W84227  40.129  20.301  13.860
16010W        W84228  11.777  29.713   2.868
16011W        W84229   5.794  20.444  13.086
16012W        W84230  44.059  38.009  12.783
16013W        W84231  11.338  12.254   1.711
16014W        W84232   4.488   8.255   1.736
16015W        W84233   4.100  34.020   0.054
16016W        W84234  14.404  29.416   3.654
16017W        W84235  18.204   2.733  12.578
16018W        W84236  37.574  42.970   3.786
16019W        W84237  19.279  16.576   1.678
16020W        W84238  41.974  44.366   3.612
16021W        W84239   6.856  39.377   5.242
16022W        W84240  13.433  40.068   0.727
16023W        W84241  31.799   3.064   1.854
16024W        W84242  28.670  38.463   4.716
16025W        W84243  19.085   6.949  14.198
16026W        W84244   6.884  34.604  11.639
16027W        W84245  19.799  43.551   4.127
16028W        W84246   7.106   1.243   0.831
16029W        W84247  19.272   8.771   2.637
16030W        W84248  27.880  17.371  12.189
16031W        W84249  43.462   8.150  14.292
16032W        W84250  30.908  18.181   3.241
16033W        W84251  33.621  14.236   2.622
16034W        W84252  13.853   1.701   4.571
16035W        W84253  32.962   2.411  13.098
16036W        W84254  24.472  38.003  14.741
16037W        W84255  19.253   2.371   1.776
16038W        W84256  27.656   9.411  14.855
16039W        W84257   7.242  36.739  12.464
16040W        W84258   9.143  32.470   1.332
16041W        W84259   8.777  19.026   3.578
16042W        W84260  18.753  11.071   3.985
16043W        W84261   9.149  43.070   3.674
16044W        W84262  16.723  17.945   2.599
16045W        W84263  33.175  35.401  10.252
16046W        W84264  34.775  44.410   2.186
16047W        W84265  23.642  20.073   0.617
16048W        W84266  39.169  31.461   0.857
16049W        W84267  35.947  19.968   4.644
16050W        W84268  30.187   4.872  12.025
16051W        W84269   4.831  30.588   2.095
16052W        W84270  21.498  27.628  14.544
16053W        W84271  15.754  11.933  11.521
16054W        W84272  42.291   2.017   3.291
16055W        W84273   4.300  31.497   1.832
16056W        W84274  24.271  34.923  10.905
16057W        W84275  44.388  26.060   3.407
16058W        W84276  40.507  31.354   0.678
16059W        W84277   2.346  38.969  14.997
16060W        W84278  44.352  27.180  14.091
16061W        W84279  37.345  43.390  14.251
16062W        W84280  12.378  33.320  14.425
16063W        W84281  38.808  41.249  13.384
16064W        W84282  10.870  30.441  11.940
16065W        W84283  25.991  20.521   3.783
16066W        W84284   4.817  15.424   0.298
16067W        W84285  39.328  37.830  14.425
16068W        W84286  20.003  18.497  11.518
16069W        W84287  30.590   8.162   1.221
16070W        W84288  40.339  25.202   0.912
16071W        W84289  37.247  33.465  11.183
16072W        W84290   4.222  40.331  10.184
16073W        W84291  19.844  31.548  12.839
16074W        W84292   1.055  27.558  14.724
16075W        W84293  40.002  31.825   4.084
16076W        W84294   7.162   4.419   0.225
16077W        W84295  40.509   8.485  10.797
16078W        W84296  22.244   6.349   3.135
16079W        W84297  22.985   5.391   1.109
16080W        W84298  39.733   7.439  11.152
16081W        W84299  25.530  27.092  13.118
16082W        W84300  32.531  43.574  12.870
16083W        W84301  29.528  13.870  10.781
16084W        W84302  42.152  21.520  12.685
16085W        W84303  24.067  33.679   1.473
16086W        W84304  14.258  36.462   4.528
16087W        W84305  34.597  41.501   2.768
16088W        W84306  15.601   6.940   4.133
16089W        W84307  16.835   9.787   3.373
16090W        W84308  14.048  12.681  13.444
16091W        W84309  10.728   6.677  13.008
16092W        W84310  32.950   9.691   1.767
16093W        W84311  39.759  32.660  14.773
16094W        W84312  21.701  19.165   3.291
16095W        W84313   2.192   9.147   3.871
16096W        W84314  35.148   9.595   1.146
16097W        W84315  22.723  21.683   1.861
16098W        W84316  30.650  31.713  10.159
16099W        W84317   9.274  22.328  10.982
16100W        W84318  13.598  15.753  11.470
16101W        W84319  16.013  38.527  14.729
16102W        W84320  17.528  18.185  11.871
16103W        W84321   7.884  19.857   2.823
16104W        W84322   3.366  24.094   1.694
16105W        W84323  10.081  40.496   2.447
16106W        W84324  35.511  38.848  14.801
16107W        W84325   6.515   9.852  12.004
16108W        W84326   5.986   5.302   3.159
16109W        W84327  33.232  41.407  13.885
16110W        W84328  27.060   3.222   1.955
16111W        W84329  31.514  34.859  11.126
16112W        W84330  19.507  17.094  14.374
16113W        W84331  12.924  20.640   1.254
16114W        W84332   3.657  37.503  14.824
16115W        W84333  13.384   8.176   4.546
16116W        W84334  17.298  15.403   3.798
16117W        W84335  15.568  19.637  14.327
16118W        W84336  26.529  14.795  13.817
16119W        W84337  39.592  29.114   1.386
16120W        W84338  22.583  30.492  14.047
16121W        W84339   1.861   5.844  13.303
16122W        W84340   5.798   5.237   1.395
16123W        W84341  25.251  31.443   0.770
16124W        W84342  24.542  24.584   2.472
16125W        W84343   7.395  30.162  14.065
16126W        W84344   7.840  43.214   3.134
16127W        W84345   0.805   8.294  14.400
16128W        W84346   6.241  31.265   4.697
16129W        W84347   4.693  43.703  14.791
16130W        W84348  24.663  15.227  11.172
16131W        W84349  10.741   8.860   4.807
16132W        W84350  29.177   5.836   4.649
16133W        W84351  21.144  12.119   1.797
16134W        W84352  15.249  40.628  10.683
16135W        W84353  20.548  21.619  11.645
16136W        W84354   9.172   6.388   1.874
16137W        W84355  29.355   5.858   2.165
16138W        W84356   3.423  13.694  13.837
16139W        W84357   4.027  40.803  14.862
16140W        W84358  33.197   5.776   2.839
16141W        W84359  21.780   8.873   0.260
16142W        W84360  26.886  24.048   0.428
16143W        W84361  30.084  19.829  14.937
16144W        W84362  16.701  28.005   4.118
16145W        W84363  14.246  11.383  13.855
16146W        W84364   6.753  32.677  12.121
16147W        W84365  23.809  34.465   3.302
16148W        W84366  11.158  14.315  12.103
16149W        W84367  14.152  39.767  11.252
16150W        W84368  38.878  17.749  12.822
16151W        W84369  28.241  16.801   0.374
16152W        W84370  34.921   7.594   5.040
16153W        W84371  42.519  21.242  11.383
16154W        W84372  10.844   0.783  14.760
16155W        W84373  27.313  28.561   3.876
16156W        W84374  38.325  20.053   2.453
16157W        W84375  34.166  34.720   1.858
16158W        W84376   7.261   9.875  12.905
16159W        W84377  26.854  19.290   4.710
16160W        W84378   9.439  44.005  12.843
16161W        W84379   9.408   1.332   0.482
16162W        W84380  38.660  12.792   0.707
16163W        W84381  40.231  44.207   0.699
16164W        W84382  35.560  26.489   3.043
16165W        W84383  10.155  36.393   4.250
16166W        W84384  32.346   1.849  10.732
16167W        W84385  31.510   0.889  14.473
16168W        W84386  26.321   1.327  12.953
16169W        W84387  26.206  38.172  12.315
16170W        W84388   9.628  28.541  14.433
16171W        W84389   6.667   6.286   2.336
16172W        W84390  13.382  41.304  10.752
16173W        W84391  13.702  14.686  11.459
16174W        W84392  30.980   6.196   3.174
16175W        W84393  27.725   6.834  11.292
16176W        W84394   6.485   1.021  12.897
16177W        W84395  31.704  23.065  13.487
16178W        W84396   3.366  29.397  10.779
16179W        W84397  32.705  15.229  14.427
16180W        W84398   8.316  40.572   3.110
16181W        W84399   8.430  28.714  12.044
16182W        W84400   9.686   9.830  13.358
16183W        W84401  25.113  41.251  10.734
16184W        W84402  42.920  36.809  14.305
16185W        W84403   2.886   6.735   0.675
16186W        W84404   5.950   1.873   4.853
16187W        W84405  36.673  44.803   0.921
16188W        W84406  23.690   4.259  11.747
16189W        W84407  20.442  41.334   4.154
16190W        W84408  29.211   5.202   2.874
16191W        W84409  12.513  27.525  11.584
16192W        W84410  19.206  30.846  11.057
16193W        W84411  23.549  11.728  14.902
16194W        W84412  14.401  18.717   2.791
16195W        W84413  38.460  31.432  10.631
16196W        W84414  39.621  21.754   3.234
16197W        W84415   2.423  19.228   2.720
16198W        W84416   0.160  20.851   4.214
16199W        W84417  43.042   4.725   4.609
16200W        W84418  12.355  34.303  12.271
16201W        W84419   6.397  30.050  12.365
16202W        W84420  39.092  43.544  14.931
16203W        W84421  36.915  30.403  14.730
16204W        W84422  10.847  32.161   3.770
16205W        W84423  36.841  39.842   0.361
16206W        W84424  11.261  13.776   4.212
16207W        W84425  44.985  41.035  12.899
16208W        W84426  32.135  12.777   1.810
16209W        W84427  31.128  25.434   1.509
16210W        W84428  42.797   5.489   1.845
16211W        W84429  41.833  22.022   1.617
16212W        W84430  33.834   1.896   2.802
16213W        W84431  34.085  44.996  14.848
16214W        W84432  43.049  38.366   2.469
16215W        W84433  10.697  18.356   0.345
16216W        W84434  24.492  41.404   3.519
16217W        W84435  37.937  35.195  14.835
16218W        W84436  30.481  41.386   1.844
16219W        W84437  18.503  40.285   4.681
16220W        W84438  21.690  20.300  14.088
16221W        W84439   8.369  25.456   0.339
16222W        W84440  43.523  11.639  11.489
16223W        W84441  20.196  21.826  12.866
16224W        W84442   0.683   1.805  14.082
16225W        W84443   4.926  39.263   3.252
16226W        W84444  35.051  38.898   2.112
16227W        W84445   3.062  25.706  13.038
16228W        W84446  42.970  26.630   0.348
16229W        W84447  43.494  21.661  13.085
16230W        W84448   8.620  26.255  14.425
16231W        W84449  36.406  18.515   1.518
16232W        W84450  33.043  13.380   3.612
16233W        W84451  28.583  13.325   2.588
16234W        W84452  24.147  38.413  14.811
16235W        W84453  11.748  36.090   4.864
16236W        W84454  31.892  26.135  10.769
16237W        W84455  42.291  10.213   4.458
16238W        W84456  29.843  14.743   2.169
16239W        W84457  19.780  13.839  12.323
16240W        W84458  24.746  32.067  10.724
16241W        W84459  15.744   5.262  13.170
16242W        W84460  36.699  29.140  13.388
16243W        W84461  21.706  25.466  11.479
16244W        W84462   9.188   2.682   1.335
16245W        W84463  19.288  26.639   2.834
16246W        W84464  38.637   3.695  12.843
16247W        W84465  12.314   4.276   3.322
16248W        W84466  42.789   3.305   2.274
16249W        W84467   2.803  30.608   4.257
16250W        W84468  12.567   0.774   2.708
16251W        W84469  14.698  43.733   4.576
16252W        W84470  33.216  20.564  13.907
16253W        W84471  18.881  15.942  13.579
16254W        W84472   2.967  40.912   0.923
16255W        W84473  15.829   8.206  12.928
16256W        W84474  34.084  27.403  13.037
16257W        W84475  19.507  20.258   1.260
16258W        W84476  41.783   2.852  10.944
16259W        W84477  12.345  28.861  12.076
16260W        W84478  27.529  38.920  10.342
16261W        W84479  11.799  12.304  11.139
16262W        W84480   3.261  17.702   2.753
16263W        W84481  35.578  28.554  14.964
16264W        W84482  43.985  44.434  13.547
16265W        W84483  12.731  25.551  14.350
16266W        W84484  24.450  11.661  11.141
16267W        W84485  29.056  32.659   4.599
16268W        W84486  19.961  29.093  14.483
16269W        W84487  36.381  25.402  12.594
16270W        W84488  41.401  25.118  14.804
16271W        W84489  19.577   0.170  11.116
16272W        W84490   4.224  20.347  11.609
16273W        W84491  20.016  12.036   2.299
16274W        W84492  38.604  30.337  13.418
16275W        W84493  42.508  16.848  10.814
16276W        W84494  42.780  44.890   0.765
16277W        W84495  19.254  41.563  13.754
16278W        W84496  11.088  26.256  10.689
16279W        W84497  14.215  26.431  14.012
16280W        W84498   6.285  39.278  11.307
16281W        W84499  14.190  15.113  10.917
16282W        W84500   9.731  20.751  12.081
16283W        W84501  21.588   3.538  10.617
16284W        W84502  32.844  41.053  10.996
16285W        W84503  20.830  32.924  13.023
16286W        W84504  36.977   7.316  12.966
16287W        W84505  16.695  25.488   1.566
16288W        W84506  44.293  29.965  12.977
16289W        W84507  28.862   5.221   1.085
16290W        W84508   5.495  17.795  13.885
16291W        W84509  15.049   0.451  14.931
16292W        W84510  35.172  32.362  11.551
16293W        W84511  38.422   6.583   5.004
16294W        W84512  30.065  20.198   3.836
16295W        W84513  40.998  14.356   0.759
16296W        W84514  29.226  36.541   1.785
16297W        W84515   8.218  15.675  14.843
16298W        W84516  38.309  21.640   1.058
16299W        W84517  42.641  19.018   3.218
16300W        W84518  42.052   5.464   2.602
16301W        W84519  42.832  14.521  13.285
16302W        W84520  39.829  28.513   3.018
16303W        W84521  21.925   2.242   2.808
16304W        W84522  29.169  15.300  11.465
16305W        W84523  36.953  21.132  12.115
16306W        W84524  42.080   3.703   2.693
16307W        W84525  13.788  38.334   2.847
16308W        W84526   8.536  32.326  13.965
16309W        W84527  25.226   1.040  13.350
16310W        W84528  26.851  37.905   1.751
16311W        W84529  20.124  18.136   4.234
16312W        W84530   4.500  16.038  12.129
16313W        W84531  10.083   4.320   4.250
16314W        W84532  40.283  24.519   2.664
16315W        W84533  42.562   5.434  14.962
16316W        W84534   1.936   6.643   3.157
16317W        W84535   1.943  19.230  11.388
16318W        W84536  26.415  43.471   1.430
16319W        W84537  19.433  20.141  12.894
16320W        W84538  32.134  34.013  11.001
16321W        W84539   0.051  24.805   4.968
16322W        W84540  14.201  28.721  14.845
16323W        W84541  22.566   1.327  10.192
16324W        W84542  11.435  31.022  11.517
16325W        W84543   6.776  24.418  12.078
16326W        W84544  26.419   4.360  11.939
16327W        W84545  36.487   6.275   0.621
16328W        W84546  14.536   5.724   2.881
16329W        W84547  29.833  34.837  11.950
16330W        W84548  11.811  28.048   3.891
16331W        W84549  23.202  33.508  10.011
16332W        W84550  21.482   0.454   1.293
16333W        W84551  11.587  17.996   2.297
16334W        W84552  33.542  33.346   3.613
16335W        W84553  17.845   2.358   1.810
16336W        W84554  33.543  10.407   0.351
16337W        W84555   9.735  36.547  14.897
16338W        W84556   6.815  34.933   1.724
16339W        W84557  27.311  31.617   0.422
16340W        W84558  15.842  25.211  11.169
16341W        W84559  14.934  15.785   2.867
16342W        W84560  27.402  33.549  12.085
16343W        W84561   8.267  33.639   3.619
16344W        W84562  36.600  17.584   1.272
16345W        W84563  30.065   2.153   2.228
16346W        W84564  12.596  37.292   3.337
16347W        W84565  44.725  27.544   1.966
16348W        W84566  11.615  25.725  14.939
16349W        W84567  24.031  27.980   1.683
16350W        W84568  29.630   9.185  13.437
16351W        W84569  42.776  16.548  11.969
16352W        W84570  30.264  14.847  12.516
16353W        W84571  32.422  38.972   1.859
16354W        W84572  12.876   6.264  11.115
16355W        W84573  42.058  30.926  10.763
16356W        W84574  27.567  42.196  14.796
16357W        W84575  25.415  21.797  12.400
16358W        W84576   9.777  44.268   2.656
16359W        W84577  22.108  41.789   1.640
16360W        W84578  25.690  36.993   1.516
16361W        W84579  38.898  44.597   0.811
16362W        W84580   9.100  33.090   0.929
16363W        W84581  32.541  29.166   3.865
16364W        W84582  37.042  20.118   0.654
16365W        W84583   9.752  22.140   2.733
16366W        W84584  15.872  39.595   3.204
16367W        W84585  41.862   6.225  10.967
16368W        W84586  17.604  38.397  14.773
16369W        W84587   1.960  31.327   1.232
16370W        W84588  13.556   8.395   0.757
16371W        W84589  31.896  16.104   5.444
16372W        W84590  43.022  44.513   4.699
16373W        W84591  34.001  39.099   0.201
16374W        W84592  43.538  40.521   0.431
16375W        W84593  17.880  14.500  11.809
16376W        W84594  32.175   3.842  12.427
16377W        W84595   0.313  44.865  12.584
16378W        W84596  26.419  13.073   2.976
16379W        W84597  22.061   0.231  13.525
16380W        W84598  40.282  35.530  12.040
16381W        W84599  38.258  44.749  14.664
16382W        W84600  31.920  33.538   1.357
16383W        W84601   1.566  30.642  11.576
16384W        W84602  44.414   4.287   4.126
16385W        W84603   8.416  14.690  13.500
16386W        W84604  35.508  15.357   1.694
16387W        W84605   8.398  36.350  14.780
16388W        W84606  16.498   3.689  13.413
16389W        W84607   4.860  22.446  14.986
16390W        W84608  14.934  14.558  10.882
16391W        W84609  39.431  25.186   2.347
16392W        W84610  20.535  21.087   1.240
16393W        W84611  24.152  36.415  10.416
16394W        W84612  33.261  20.372  10.978
16395W        W84613  20.538  22.764  11.849
16396W        W84614  13.125  42.315   3.037
16397W        W84615  42.474  36.402  11.606
16398W        W84616  11.331   8.239   4.950
16399W        W84617  26.148  14.623   3.273
16400W        W84618   5.796   9.946  13.592
16401W        W84619  39.512  13.225   0.487
16402W        W84620  42.714  13.623   1.296
16403W        W84621  20.741   8.271  14.496
16404W        W84622  11.393  41.053  14.077
16405W        W84623   3.504  11.265   0.932
16406W        W84624  18.112   7.885  11.643
16407W        W84625  25.593   8.202   2.835
16408W        W84626  44.212   9.743  11.983
16409W        W84627  35.675  32.924   4.057
16410W        W84628   3.506  21.645   1.282
16411W        W84629  32.372  28.891   0.822
16412W        W84630   4.970  16.694   5.098
16413W        W84631  13.225  33.767  11.482
16414W        W84632  23.050  17.264   4.178
16415W        W84633  42.109  16.797   4.266
16416W        W84634  35.845   3.889  12.499
16417W        W84635   2.827  23.932   3.225
16418W        W84636  20.199  17.624   4.516
16419W        W84637  35.300   3.931  10.206
16420W        W84638   8.883  36.051   3.167
16421W        W84639   5.746  23.976   3.035
16422W        W84640  15.908  16.617   1.898
16423W        W84641  25.778  38.369   4.140
16424W        W84642  23.225   1.462  11.268
16425W        W84643  19.260  16.898  12.492
16426W        W84644  41.868   8.545  10.745
16427W        W84645   9.125  36.672  11.196
16428W        W84646   4.265  26.555  11.198
16429W        W84647  23.508  12.781   3.901
16430W        W84648  15.999  20.176  12.195
16431W        W84649   1.578  18.878  12.107
16432W        W84650  29.603  20.831   4.669
16433W        W84651  33.772  12.583   1.268
16434W        W84652   1.304  33.366  10.642
16435W        W84653  38.260  32.027  13.269
16436W        W84654  19.013   7.693   2.275
16437W        W84655  10.792  29.494  14.528
16438W        W84656  15.376  36.053  10.918
16439W        W84657  24.809  14.656  14.434
16440W        W84658  20.601  32.675  13.440
16441W        W84659   7.416  44.004   5.554
16442W        W84660   3.455  11.406   4.527
16443W        W84661  25.210  12.591   3.470
16444W        W84662  32.029  11.621   0.478
16445W        W84663  28.530   5.664   2.385
16446W        W84664  14.238  39.561   1.665
16447W        W84665  44.790  32.160   2.761
16448W        W84666  27.410  31.468   4.240
16449W        W84667  15.275  21.447  13.106
16450W        W84668  41.619  19.081   3.701
16451W        W84669  15.724   3.250   3.720
16452W        W84670   8.750  23.129  12.352
16453W        W84671   3.853   1.245   0.051
16454W        W84672  38.504  37.556   0.611
16455W        W84673  24.671  36.187  14.774
16456W        W84674  21.059  23.477  12.954
16457W        W84675  41.583   5.145   3.771
16458W        W84676   4.169  20.219  12.485
16459W        W84677  17.533   2.555  11.085
16460W        W84678  18.607  21.103   1.353
16461W        W84679  18.269  14.119   1.753
16462W        W84680  43.295  13.205   3.098
16463W        W84681  43.281  39.070  12.379
16464W        W84682  41.814  34.966  11.357
16465W        W84683  22.033  26.538   0.732
16466W        W84684  12.213  27.866   4.278
16467W        W84685  44.428  38.964  10.777
16468W        W84686  36.889  15.681   4.381
16469W        W84687  22.055  41.406  13.538
16470W        W84688  24.625  23.201  12.495
16471W        W84689   7.467  37.335   0.456
16472W        W84690   9.585  32.769  11.854
16473W        W84691   2.359   6.902   3.337
16474W        W84692   3.702  32.179  14.314
16475W        W84693  21.779   5.810   1.900
16476W        W84694  15.655  16.790   0.021
16477W        W84695  34.118  21.037  12.430
16478W        W84696  17.500  36.947   2.661
16479W        W84697  11.097  37.839  11.113
16480W        W84698  22.183  44.740   2.175
16481W        W84699  11.619  26.161  10.658
16482W        W84700   7.876  10.966   3.645
16483W        W84701  21.028  34.047  11.889
16484W        W84702   9.271   0.402   4.572
16485W        W84703  19.212  12.733   0.881
16486W        W84704  20.936  21.726   1.690
16487W        W84705   6.896  21.556  14.485
16488W        W84706  31.684  35.470  11.501
16489W        W84707  10.419   6.186   2.275
16490W        W84708  23.475   9.358  13.899
16491W        W84709  43.446   6.441   1.396
16492W        W84710  20.171  15.473   0.640
16493W        W84711  22.746  13.675   1.129
16494W        W84712  39.796   3.925   2.611
16495W        W84713  38.053  42.694  13.545
16496W        W84714   1.268  29.632  11.875
16497W        W84715  23.779   4.410   1.278
16498W        W84716  42.675  11.727   3.358
16499W        W84717  10.706  27.140  14.520
16500W        W84718   2.786  24.936   3.104
16501W        W84719  39.000   3.175   3.827
16502W        W84720  29.077  18.518  10.690
16503W        W84721  23.632  40.180  13.785
16504W        W84722  37.066   4.359   3.767
16505W        W84723  40.822  29.147   4.508
16506W        W84724  21.562   2.005  10.436
16507W        W84725   1.326   3.992  12.490
16508W        W84726  42.866   4.264  14.460
16509W        W84727   1.368  34.206   4.717
16510W        W84728   0.891  16.297   0.340
16511W        W84729  30.078   2.690  10.100
16512W        W84730  20.786   2.313   2.727
16513W        W84731  33.947  11.848   3.267
16514W        W84732  12.862  35.938   3.216
16515W        W84733  30.166  10.548   0.412
16516W        W84734  32.652  24.179  11.162
16517W        W84735  21.052  20.849  12.589
16518W        W84736  40.530  10.664  11.541
16519W        W84737  18.789  30.512  13.973
16520W        W84738  40.208  41.252   3.118
16521W        W84739   5.521  34.217   0.722
16522W        W84740  26.319  26.456   4.388
16523W        W84741  13.169  20.442   0.789
16524W        W84742  42.453  22.610   4.568
16525W        W84743   1.220  36.519  12.396
16526W        W84744  17.991   6.376   3.953
16527W        W84745  10.251  23.991   3.069
16528W        W84746  15.379  34.237  11.127
16529W        W84747  32.673   5.759   2.723
16530W        W84748   2.740  37.602  13.119
16531W        W84749   1.796  39.933   0.837
16532W        W84750  20.749  18.738  14.532
16533W        W84751  22.199  32.956   3.670
16534W        W84752  21.030  31.672   2.848
16535W        W84753  20.369  28.809   1.866
16536W        W84754  38.898  22.651  13.849
16537W        W84755  15.313  10.728  13.958
16538W        W84756   5.658   4.288  14.466
16539W        W84757   4.019  36.154   2.272
16540W        W84758  26.924  28.491  12.357
16541W        W84759  36.933  38.473  12.268
16542W        W84760  11.609   9.299  14.927
16543W        W84761   7.594  37.525   3.249
16544W        W84762   9.842  43.359  12.413
16545W        W84763  18.515  31.859   4.918
16546W        W84764  16.754   8.458   2.651
16547W        W84765  40.425  10.777   3.647
16548W        W84766   0.451  31.819   3.415
16549W        W84767  41.319  26.165   0.138
16550W        W84768   0.510  41.248  14.857
16551W        W84769  25.432  34.017  14.226
16552W        W84770  40.121   7.754   0.685
16553W        W84771  23.513  41.124   3.290
16554W        W84772  28.090  25.479  12.791
16555W        W84773  20.113   3.423  11.556
16556W        W84774  29.036  35.159  12.950
16557W        W84775  12.688  29.954  10.660
16558W        W84776  20.041   6.912   0.789
16559W        W84777   5.300   9.330  11.826
16560W        W84778  12.363  21.066   1.948
16561W        W84779  25.117  16.110  13.421
16562W        W84780  40.353  39.929   0.363
16563W        W84781  32.111  17.196   3.065
16564W        W84782  32.849  44.984  13.087
16565W        W84783  10.126  43.027   5.056
16566W        W84784   8.780  21.116   0.514
16567W        W84785  31.906  30.041   5.120
16568W        W84786   2.025  15.058  13.042
16569W        W84787  37.665  17.978   0.602
16570W        W84788  14.506  15.620  14.261
16571W        W84789  22.459   9.331   2.736
16572W        W84790  21.124   7.804  13.978
16573W        W84791  34.980  28.327  13.936
16574W        W84792  41.382  42.825   2.203
16575W        W84793  42.850  27.134   4.548
16576W        W84794  20.688   5.673  11.751
16577W        W84795  37.093  25.561   3.154
16578W        W84796  24.583  40.485   0.384
16579W        W84797  43.398   2.745  14.886
16580W        W84798  29.960  30.885  11.474
16581W        W84799   5.151   7.927  14.733
16582W        W84800  17.699  40.691  11.708
16583W        W84801  11.196  36.711   1.428
16584W        W84802  15.282  19.179  14.987
16585W        W84803  20.800  22.516   4.204
16586W        W84804   4.940   7.862   3.276
16587W        W84805  19.070   7.256   1.963
16588W        W84806   6.074   9.518  14.966
16589W        W84807  26.869   5.920  13.197
16590W        W84808  21.788  34.379  13.512
16591W        W84809  17.413  13.661   2.806
16592W        W84810  33.029  22.260  10.298
16593W        W84811  38.804  18.758  13.019
16594W        W84812  35.639   0.021  13.060
16595W        W84813  34.018  25.010  10.679
16596W        W84814  42.523   7.336   4.146
16597W        W84815   7.224   5.920  11.132
16598W        W84816  34.191  13.194  11.091
16599W        W84817  17.877  17.746   4.148
16600W        W84818   0.253  39.022  14.048
16601W        W84819   4.966  38.407  14.618
16602W        W84820  16.738   8.545  11.597
16603W        W84821  11.299  41.886   0.858
16604W        W84822  38.348  18.563  10.559
16605W        W84823  35.370  29.166   3.145
16606W        W84824  36.472  32.723   4.327
16607W        W84825  16.124  22.334  14.890
16608W        W84826  11.189   7.201   3.090
16609W        W84827  26.037  28.758   0.272
16610W        W84828   7.771  22.492  11.540
16611W        W84829  29.135   5.321  14.028
16612W        W84830  16.368  43.791  11.166
16613W        W84831  38.255  39.275  12.882
16614W        W84832  28.507  44.616  13.807
16615W        W84833   4.634   0.473   2.222
16616W        W84834  34.736  43.744  10.662
16617W        W84835   0.214  34.405  14.858
16618W        W84836   4.662  44.499   5.038
16619W        W84837  36.846  20.283   1.109
16620W        W84838  11.507  27.397   1.817
16621W        W84839  40.483   7.445   1.985
16622W        W84840  31.941  41.901   4.609
16623W        W84841  37.301  38.544  11.087
16624W        W84842  18.793  44.601  12.351
16625W        W84843  12.401  11.477   3.272
16626W        W84844  26.483  26.629  13.105
16627W        W84845  15.586  33.543   1.483
16628W        W84846  44.274  14.070  13.611
16629W        W84847  34.220   0.373  12.282
16630W        W84848  37.435  42.000  11.163
16631W        W84849   8.656  27.109   0.822
16632W        W84850  33.953  17.147  13.929
16633W        W84851   0.877  27.939   5.357
16634W        W84852   7.167  34.175  14.090
16635W        W84853   7.681  28.771   1.328
16636W        W84854  35.063  20.698   2.294
16637W        W84855  31.564  41.010  10.697
16638W        W84856  37.844  11.525   1.201
16639W        W84857  36.385  36.725   0.244
16640W        W84858   0.248  29.711   4.047
16641W        W84859  24.245  10.855  11.479
16642W        W84860  39.124  39.598  14.862
16643W        W84861  19.149   3.371   0.339
16644W        W84862  18.354  16.333  12.010
16645W        W84863  21.586  44.844   0.409
16646W        W84864  17.814  26.535   1.829
16647W        W84865  38.465  16.508   0.477
16648W        W84866   4.436  14.374   4.159
16649W        W84867  23.672  20.727  14.973
16650W        W84868  32.073   0.460   4.026
16651W        W84869  11.908  20.720   0.704
16652W        W84870  11.874  36.091   3.318
16653W        W84871  24.406  35.993  13.046
16654W        W84872  25.497  20.923   3.327
16655W        W84873  33.179  25.927   5.061
16656W        W84874  29.935  27.159   0.913
16657W        W84875  12.621  22.114  13.665
16658W        W84876  31.830  33.165   2.194
16659W        W84877  39.410  36.120   0.458
16660W        W84878  26.420  20.226   4.644
16661W        W84879  10.084  12.790  10.245
16662W        W84880  13.991  14.205  13.455
16663W        W84881  26.528  24.793   3.835
16664W        W84882   0.829   3.864  12.559
16665W        W84883  34.842  42.037   4.499
16666W        W84884  19.919  24.404   2.956
16667W        W84885  30.036   2.868   1.940
16668W        W84886  19.327  33.049  14.822
16669W        W84887  37.137  13.763   4.292
16670W        W84888  24.282  15.324  14.013
16671W        W84889   2.688  21.499   2.160
16672W        W84890   6.942   0.634   0.243
16673W        W84891  43.389  31.026   3.846
16674W        W84892   1.983  31.647  12.931
16675W        W84893   0.313  34.055   3.145
16676W        W84894   1.321  34.184   2.164
16677W        W84895  40.288  26.371  13.040
16678W        W84896  26.017  30.565   2.714
16679W        W84897  36.075  44.996  10.689
16680W        W84898  13.087  12.205   4.559
16681W        W84899  12.139  37.818  12.395
16682W        W84900  14.593  41.361   4.508
16683W        W84901  35.775  43.861  12.426
16684W        W84902  38.462  38.491  12.485
16685W        W84903  14.184  43.079   0.392
16686W        W84904   0.506  27.548   1.025
16687W        W84905  34.639   5.831   3.529
16688W        W84906   8.119  27.484  14.536
16689W        W84907  30.877  15.582   1.404
16690W        W84908  24.479  36.095  11.086
16691W        W84909  22.532   8.670   2.218
16692W        W84910  31.290  26.760   1.596
16693W        W84911  28.562  25.566  13.002
16694W        W84912  14.095  28.535   2.537
16695W        W84913   0.754  42.431   4.540
16696W        W84914  19.162   7.244   1.443
16697W        W84915  34.890  25.067  10.673
16698W        W84916  35.119   1.804  14.791
16699W        W84917  37.758  14.220  11.984
16700W        W84918  38.598  40.394  14.936
16701W        W84919  27.448  40.443   0.281
16702W        W84920  21.154  20.299  11.484
16703W        W84921  38.438  21.529  13.985
16704W        W84922  18.966  33.477  14.375
16705W        W84923   4.468   5.518   0.922
16706W        W84924  18.612  14.817  14.166
16707W        W84925   6.195  36.472   2.498
16708W        W84926  20.135  16.269  14.425
16709W        W84927  43.288  17.369  11.957
16710W        W84928  37.422  26.406  12.417
16711W        W84929   8.942  35.104   0.812
16712W        W84930  16.360   8.341   3.877
16713W        W84931  13.218  40.797   4.148
16714W        W84932  15.233  14.066  12.110
16715W        W84933  19.292  14.644  12.887
16716W        W84934  40.759  38.748  12.993
16717W        W84935  22.812  33.892  12.975
16718W        W84936  32.167  15.585   3.287
16719W        W84937  35.587  35.521  14.981
16720W        W84938  28.194  36.993   1.347
16721W        W84939  41.285  37.265  14.065
16722W        W84940   8.903  33.128   2.398
16723W        W84941  42.835  22.237  14.363
16724W        W84942  37.307   0.464   1.377
16725W        W84943  32.561  11.949   1.366
16726W        W84944  12.727  40.783  11.066
16727W        W84945  26.187  16.726   0.683
16728W        W84946  34.600  13.502   4.187
16729W        W84947  36.702  21.100  13.880
16730W        W84948   6.769  19.159  14.160
16731W        W84949  16.642   7.249  10.913
16732W        W84950   7.605  28.496  11.587
16733W        W84951  14.201  34.489   4.719
16734W        W84952  29.621  25.679  14.850
16735W        W84953  28.381  12.173  12.349
16736W        W84954  37.019  11.186  14.672
16737W        W84955  15.240  19.065   0.519
16738W        W84956  24.199   0.369  11.231
16739W        W84957  13.826  20.055  14.540
16740W        W84958  26.288   7.711  10.775
16741W        W84959   5.924  31.514  13.883
16742W        W84960  40.080  23.564  11.677
16743W        W84961  14.771  33.542  13.344
16744W        W84962   9.593  38.130   1.389
16745W        W84963   3.831   4.436  11.805
16746W        W84964  35.526  43.708  12.006
16747W        W84965  16.084  42.828  11.228
16748W        W84966  39.257   0.355  14.318
16749W        W84967  22.634  24.391   3.174
16750W        W84968  29.648   4.522  11.242
16751W        W84969  43.360   0.512  11.604
16752W        W84970  26.408  31.484   3.595
16753W        W84971  30.209  13.769   4.910
16754W        W84972  18.031  17.568  12.511
16755W        W84973  34.932  22.045  11.575
16756W        W84974  18.258  33.239  10.192
16757W        W84975  42.943  20.802   2.251
16758W        W84976   0.281  32.375   2.847
16759W        W84977  13.401  40.216   1.215
16760W        W84978  16.515   9.003   1.771
16761W        W84979  16.000   6.739  14.262
16762W        W84980   0.757  33.328  12.101
16763W        W84981  42.326  37.100   1.803
16764W        W84982  44.127  17.894  10.674
16765W        W84983  29.872  42.637   4.377
16766W        W84984  20.688  41.837   4.718
16767W        W84985  40.449  40.923   0.214
16768W        W84986  17.532   6.217  13.539
16769W        W84987  35.365  31.930  13.735
16770W        W84988  37.360  27.666   3.263
16771W        W84989   7.608  12.789   3.236
16772W        W84990  27.082  12.584  13.811
16773W        W84991  23.875  16.615  11.567
16774W        W84992  13.364  31.006  11.249
16775W        W84993  27.014  16.137   4.508
16776W        W84994  28.075   7.241  13.924
16777W        W84995  41.359  43.475  10.440
16778W        W84996   8.873  34.579  10.686
16779W        W84997  29.275   9.833   0.163
16780W        W84998  37.896  18.333  10.424
16781W        W84999   4.944  31.771  10.773
16782W        W85000  33.611  22.740  14.424
16783W        W85001  32.839  33.827  13.038
16784W        W85002   5.769  27.328   4.560
16785W        W85003  34.408   3.436  13.419
16786W        W85004  36.378  16.108  12.355
16787W        W85005  11.759  22.129  12.026
16788W        W85006  11.326  15.594   3.303
16789W        W85007  16.298   3.157  12.479
16790W        W85008  29.370  23.641   0.737
16791W        W85009   9.677  18.318  12.857
16792W        W85010  28.423  16.651   1.024
16793W        W85011   5.529  35.213   0.997
16794W        W85012  28.748   6.373   4.141
16795W        W85013   8.896  38.799   2.537
16796W        W85014  16.637   2.931   2.340
16797W        W85015  37.724  12.124  14.464
16798W        W85016  37.724  43.225   4.271
16799W        W85017  40.781  34.048  13.479
16800W        W85018   0.911  12.090  13.662
16801W        W85019  37.420  19.784  10.657
16802W        W85020   2.047  26.059   4.204
16803W        W85021  10.623  40.382   4.674
16804W        W85022  24.141  12.789   2.633
16805W        W85023  30.357   4.281  12.699
16806W        W85024  24.827  29.655  14.518
16807W        W85025   2.954  44.039   2.723
16808W        W85026  30.109  42.344  12.404
16809W        W85027  13.534  26.140  12.988
16810W        W85028   2.739  26.909  11.155
16811W        W85029   0.536   0.005   3.824
16812W        W85030  21.232  12.866   4.660
16813W        W85031  26.710  36.894   3.165
16814W        W85032  21.672  44.175   4.919
16815W        W85033   6.113  15.981   4.002
16816W        W85034  43.075  20.236  12.571
16817W        W85035  30.323  35.584   2.117
16818W        W85036  23.486  32.852   1.396
16819W        W85037  12.049  27.707   2.872
16820W        W85038  33.087   1.069  10.735
16821W        W85039  29.783  18.858   5.056
16822W        W85040   1.765  23.401   2.170
16823W        W85041  43.316  33.992   4.115
16824W        W85042  37.996  32.080   2.341
16825W        W85043  22.933  27.743   0.353
16826W        W85044  32.046  11.770  12.966
16827W        W85045  16.932  43.993   2.146
16828W        W85046   3.734   1.248   3.150
16829W        W85047  33.455  27.789   4.004
16830W        W85048  40.391  17.154   0.651
16831W        W85049  28.031  39.519   0.208
16832W        W85050  25.439  37.427   1.709
16833W        W85051  33.120  17.113  12.121
16834W        W85052   5.920  23.010   3.353
16835W        W85053  23.283  35.898   4.733
16836W        W85054   8.130  18.151  12.002
16837W        W85055  20.951   7.162  14.872
16838W        W85056   6.712  30.880   1.702
16839W        W85057   3.712   7.937   1.742
16840W        W85058  20.065  41.378  12.570
16841W        W85059  14.635  22.233  11.054
16842W        W85060  34.543  21.691  11.691
16843W        W85061  17.108  36.587   2.222
16844W        W85062  33.308  36.881  14.741
16845W        W85063   4.907   9.698  13.796
16846W        W85064  40.888  13.415   3.345
16847W        W85065   2.923  17.828   3.456
16848W        W85066  22.345   5.315   3.304
16849W        W85067   1.341  14.103   1.482
16850W        W85068  18.263  20.554  13.524
16851W        W85069  28.632  12.578   3.710
16852W        W85070  27.524  43.372   0.894
16853W        W85071  28.415  29.543  14.066
16854W        W85072  27.443  41.474  10.743
16855W        W85073  42.303   2.526   3.243
16856W        W85074   2.469   1.307  11.564
16857W        W85075  24.648  41.378   4.003
16858W        W85076  40.791   1.284   4.915
16859W        W85077  19.133   4.512  13.448
16860W        W85078  34.149  17.514   1.575
16861W        W85079  26.961  40.843  14.745
16862W        W85080  27.895  21.008  12.911
16863W        W85081  13.095  14.060  13.834
16864W        W85082  24.746   4.326   3.193
16865W        W85083  35.732  30.904  11.058
16866W        W85084  25.756  38.928  14.140
16867W        W85085  43.566  43.188   2.006
16868W        W85086   1.742  17.208   0.536
16869W        W85087  29.537  29.710   5.476
16870W        W85088  21.258  23.256  11.351
16871W        W85089  29.612  43.247   3.019
16872W        W85090  10.658   1.687   0.217
16873W        W85091  13.388  30.116  13.832
16874W        W85092  31.149  37.437  13.626
16875W        W85093  29.849  40.227  10.767
16876W        W85094  36.017  31.243  12.437
16877W        W85095  23.293  25.252   3.915
16878W        W85096  26.996  21.014   4.374
16879W        W85097  37.059  42.815  13.599
16880W        W85098  23.193   0.974   0.281
16881W        W85099  21.982   8.414  11.459
16882W        W85100  37.117  15.152  13.270
16883W        W85101  41.492  40.045   0.570
16884W        W85102  38.737  40.719  13.096
16885W        W85103   5.411   0.483   0.281
16886W        W85104  15.255  30.927   2.738
16887W        W85105   0.339  41.347   1.327
16888W        W85106  23.606  33.631   9.694
16889W        W85107  29.179   8.255   0.370
16890W        W85108   9.363  31.214   1.226
16891W        W85109  38.009  23.471   2.862
16892W        W85110  42.821  17.065  11.155
16893W        W85111   8.391  42.374  12.796
16894W        W85112   0.432  39.369   4.073
16895W        W85113   6.586   6.301   1.489
16896W        W85114  29.980  25.946   3.222
16897W        W85115   0.813  28.216  10.272
16898W        W85116  37.566   4.743   0.078
16899W        W85117  24.217  15.713   1.697
16900W        W85118   6.643  21.671  11.913
16901W        W85119  12.308  18.874   1.256
16902W        W85120  17.198   0.829  13.324
16903W        W85121  17.428   9.629  14.974
16904W        W85122  24.016  23.594   4.130
16905W        W85123  44.946  32.005   1.763
16906W        W85124   0.506  19.160   0.394
16907W        W85125  35.397  16.296   4.476
16908W        W85126  11.801  31.085  13.890
16909W        W85127  13.427  38.561   3.636
16910W        W85128  22.731   6.257   0.487
16911W        W85129   6.326  27.716  11.117
16912W        W85130  20.043  15.623   3.223
16913W        W85131  17.573   9.735  11.158
16914W        W85132  24.591  31.744   2.411
16915W        W85133  35.426   9.776  10.551
16916W        W85134  23.232  38.311  14.299
16917W        W85135  11.558  43.542   1.469
16918W        W85136  16.514  34.120   1.129
16919W        W85137  37.417  12.942  13.323
16920W        W85138  38.036  34.836  12.887
16921W        W85139  36.838  12.862   4.257
16922W        W85140   0.924  23.567   3.398
16923W        W85141  36.106  43.355   1.371
16924W        W85142  11.545  41.766   4.528
16925W        W85143  37.840  23.053   1.361
16926W        W85144  10.314   1.201   1.214
16927W        W85145  11.742  36.996  10.700
16928W        W85146  11.958  43.426  11.469
16929W        W85147  41.994  12.730   5.008
16930W        W85148  39.715  27.068   0.384
16931W        W85149  44.475  19.538   3.710
16932W        W85150   0.509  40.558   4.552
16933W        W85151  33.020  33.877  14.977
16934W        W85152  18.707  13.495  12.412
16935W        W85153  28.435  22.505  14.292
16936W        W85154  33.571  22.868   3.623
16937W        W85155  43.719  10.324  10.429
16938W        W85156  34.892  12.058  12.333
16939W        W85157  21.365  23.790  14.951
16940W        W85158   4.810  24.192   0.343
16941W        W85159  44.253  32.323   1.191
16942W        W85160  15.844  28.021   4.683
16943W        W85161   2.393  33.635   3.189
16944W        W85162  18.002   2.397   1.293
16945W        W85163  13.572  23.708  14.327
16946W        W85164   3.853  25.615   3.900
16947W        W85165  39.518  19.167   4.514
16948W        W85166   9.708   8.045   4.545
16949W        W85167  28.415  19.354   1.350
16950W        W85168  28.870  17.704  13.307
16951W        W85169   0.422  39.281   2.627
16952W        W85170   1.867  16.754  13.885
16953W        W85171  28.059  30.697  12.742
16954W        W85172   1.091  16.922   1.292
16955W        W85173  23.038  40.820   1.998
16956W        W85174  20.114  17.301   0.190
16957W        W85175  33.548   6.705  14.991
16958W        W85176  37.029   9.448   0.800
16959W        W85177  27.013  21.199   2.336
16960W        W85178  41.360  33.995   4.152
16961W        W85179   7.729  38.656   0.607
16962W        W85180  25.491  34.512   2.698
16963W        W85181  30.157  39.910   0.531
16964W        W85182  19.258  26.150   2.682
16965W        W85183   0.218  40.364   2.795
16966W        W85184   5.038   3.001  13.739
16967W        W85185  41.547  27.162  12.975
16968W        W85186  40.130   0.822  13.448
16969W        W85187  38.043   4.956  11.473
16970W        W85188  10.588  20.642   4.915
16971W        W85189  36.957  23.739   3.792
16972W        W85190  26.887  12.975   2.828
16973W        W85191  21.538  27.214   0.948
16974W        W85192  25.482   7.509   1.774
16975W        W85193  30.445   1.387  11.973
16976W        W85194   3.313  31.479   4.870
16977W        W85195  22.684  18.666  10.562
16978W        W85196  16.466  26.885  13.537
16979W        W85197  18.064  30.118  11.954
16980W        W85198   0.266  42.524  11.979
16981W        W85199  14.807  17.703   1.447
16982W        W85200  12.834  22.473   4.076
16983W        W85201  11.940  20.948  13.507
16984W        W85202  24.537  26.428   0.458
16985W        W85203   2.107  18.786  12.054
16986W        W85204  37.032  36.065   3.113
16987W        W85205  27.571   8.331  13.389
16988W        W85206  31.434  10.198  11.461
16989W        W85207   6.357  12.243  13.777
16990W        W85208  43.907  38.440  14.700
16991W        W85209  37.266  20.355   3.630
16992W        W85210  26.945   5.933   4.526
16993W        W85211  35.961   9.092  14.929
16994W        W85212   5.843  33.020   0.654
16995W        W85213  26.080   9.139  14.940
16996W        W85214  18.900  38.183   3.638
16997W        W85215  27.489   6.308   0.002
16998W        W85216   5.356   5.774   3.651
16999W        W85217  38.748   6.450  12.984
17000W        W85218   7.794  23.671   1.898
17001W        W85219  20.134   7.269  12.507
17002W        W85220  21.796  34.171  11.531
17003W        W85221  41.879  36.012   3.644
17004W        W85222  13.408  43.706   2.703
17005W        W85223  13.207  33.205   0.630
17006W        W85224  42.742  18.762  11.859
17007W        W85225   4.024   0.578  10.432
17008W        W85226  16.150   9.142   4.125
17009W        W85227  23.964  18.102  14.424
17010W        W85228  31.048   7.131  13.938
17011W        W85229  39.643   6.453   1.179
17012W        W85230   8.973   0.875   4.715
17013W        W85231  36.504  11.435   0.768
17014W        W85232   0.801  32.091  14.304
17015W        W85233  37.210  12.261  14.364
17016W        W85234  28.487  16.839  12.920
17017W        W85235   6.851  31.693   4.314
17018W        W85236  27.452  28.865   0.979
17019W        W85237   3.849   9.413   1.413
17020W        W85238  23.965   1.936  13.655
17021W        W85239   8.630  16.876  13.865
17022W        W85240  17.653  31.406   2.362
17023W        W85241  11.954  17.781   4.113
17024W        W85242  21.082  13.690  11.466
17025W        W85243  21.716  17.126   0.733
17026W        W85244   8.746  18.853  11.635
17027W        W85245  29.301  37.916  13.625
17028W        W85246   9.734  23.931   3.796
17029W        W85247  22.631  41.931   3.956
17030W        W85248  12.108   6.944  11.139
17031W        W85249  30.658   2.649  13.560
17032W        W85250   3.465  13.860  11.604
17033W        W85251  22.838  12.186  10.708
17034W        W85252  25.492  18.157   1.396
17035W        W85253  16.083  32.657  11.022
17036W        W85254  40.939  34.824   4.661
17037W        W85255  43.918   0.700  11.593
17038W        W85256  29.065  31.933   0.159
17039W        W85257  41.522  23.742  13.490
17040W        W85258  20.201   8.362   2.325
17041W        W85259  11.971   2.398  11.040
17042W        W85260   8.730  13.543  13.005
17043W        W85261  26.442  44.768   3.641
17044W        W85262  44.907   0.536   2.756
17045W        W85263  29.888  22.645   4.701
17046W        W85264  24.375   2.013  13.337
17047W        W85265   1.724  24.156   2.644
17048W        W85266  18.283  20.724   0.808
17049W        W85267   0.381  12.149  14.970
17050W        W85268  19.229   8.909   4.677
17051W        W85269  38.314  13.829  12.576
17052W        W85270   7.114  37.128   1.730
17053W        W85271  35.744   6.289  11.059
17054W        W85272  43.392  37.424  13.990
17055W        W85273  38.609   5.048  10.924
17056W        W85274  30.458  25.744   3.165
17057W        W85275   8.892  41.921  14.356
17058W        W85276  23.980   1.464   1.791
17059W        W85277   6.572  35.602   2.313
17060W        W85278  16.819   8.020   4.308
17061W        W85279   3.483  37.864  12.437
17062W        W85280  16.319  36.766  14.994
17063W        W85281  29.194  24.838   5.068
17064W        W85282  26.470  14.619  14.314
17065W        W85283  24.099  23.474  13.729
17066W        W85284  21.340   7.820   0.722
17067W        W85285  40.267  18.766   2.775
17068W        W85286  12.135   2.356   1.892
17069W        W85287   0.960  22.727   5.147
17070W        W85288  42.219  34.879   0.357
17071W        W85289  13.349  21.083  12.347
17072W        W85290  11.076  10.864   1.347
17073W        W85291   6.020  20.573   4.752
17074W        W85292  14.368   8.451  14.454
17075W        W85293  17.530  10.819   2.626
17076W        W85294   6.885  17.997  13.921
17077W        W85295  25.733  24.166  13.901
17078W        W85296  24.042  18.718  13.937
17079W        W85297  26.534  32.523   2.759
17080W        W85298  42.577  10.892  13.440
17081W        W85299   3.811  31.570   2.731
17082W        W85300   0.291  16.883   2.088
17083W        W85301   1.389   5.004   3.698
17084W        W85302  38.128  14.209   2.629
17085W        W85303  44.407   4.636  12.550
17086W        W85304  15.811  38.982  14.458
17087W        W85305  22.312   2.320   1.329
17088W        W85306   0.943  25.148   0.044
17089W        W85307  11.082  38.866  12.145
17090W        W85308  21.032  10.511   1.683
17091W        W85309   1.210   5.330   4.582
17092W        W85310  36.729  23.506  12.486
17093W        W85311  40.323  16.339   2.794
17094W        W85312  26.821  18.606   3.019
17095W        W85313   7.305  38.374  12.497
17096W        W85314   4.212  27.591   4.606
17097W        W85315   1.317   4.402   4.492
17098W        W85316   5.563  38.062  10.465
17099W        W85317   5.949  11.341   4.150
17100W        W85318  15.369  34.457  12.583
17101W        W85319  29.461  10.360   9.945
17102W        W85320  39.629  16.775  14.691
17103W        W85321   1.980  30.462   1.676
17104W        W85322  23.243  11.088   0.676
17105W        W85323  24.279  25.159  10.843
17106W        W85324  32.931  20.690  13.499
17107W        W85325  12.783  12.584  14.884
17108W        W85326  24.475  11.150  10.398
17109W        W85327  43.260  17.363  11.070
17110W        W85328   5.127  36.062  12.334
17111W        W85329  12.393  19.482  13.851
17112W        W85330  25.098  17.148   3.603
17113W        W85331  22.862  14.131   2.439
17114W        W85332  10.814  15.787   3.344
17115W        W85333  21.715  18.491  11.191
17116W        W85334  40.464  13.994   2.664
17117W        W85335  36.496  36.898  14.239
17118W        W85336  23.062  17.844  12.327
17119W        W85337   9.139  11.910  11.167
17120W        W85338  32.440   7.354  13.045
17121W        W85339  14.235   9.737  12.635
17122W        W85340  39.980   5.500  14.652
17123W        W85341  11.571   4.418  12.002
17124W        W85342  35.305  16.107   1.267
17125W        W85343   4.010  13.781   1.204
17126W        W85344  44.587  28.794   0.923
17127W        W85345   6.362   1.741  14.487
17128W        W85346  44.490  12.798   2.739
17129W        W85347  18.673  28.382  14.377
17130W        W85348  12.081  13.564  11.669
17131W        W85349   0.429  17.357   1.914
17132W        W85350  44.106  43.391  13.186
17133W        W85351  33.237  15.363  10.674
17134W        W85352  22.291  29.176   1.861
17135W        W85353  20.643  29.488  14.711
17136W        W85354  20.831  24.656  13.603
17137W        W85355  44.836  30.062   3.836
17138W        W85356  28.019  37.916  14.436
17139W        W85357  41.010  39.814  14.130
17140W        W85358   4.398  11.881  14.430
17141W        W85359  29.117  25.024  11.582
17142W        W85360  36.658  12.380   4.133
17143W        W85361  36.422   8.965   1.427
17144W        W85362  17.380  43.942   5.029
17145W        W85363  16.637  27.023   0.413
17146W        W85364  38.605  17.326   2.310
17147W        W85365  34.629  32.665   1.837
17148W        W85366  36.892  19.255  11.182
17149W        W85367  42.939  11.868  11.681
17150W        W85368   5.575  13.284   2.854
17151W        W85369  20.081  10.842   4.700
17152W        W85370   1.342   8.119  14.839
17153W        W85371  20.742  40.941   1.624
17154W        W85372  42.153  37.452   2.129
17155W        W85373  43.244  31.905   2.403
17156W        W85374  30.604   9.667  14.612
17157W        W85375   8.312  14.874   3.231
17158W        W85376  25.913  43.841  10.950
17159W        W85377  27.889  12.641   1.762
17160W        W85378  28.029  20.566   1.765
17161W        W85379  28.593  24.551   0.342
17162W        W85380  30.177  12.830   1.601
17163W        W85381   9.711  22.806  13.061
17164W        W85382   6.478   4.891  11.903
17165W        W85383  38.808  28.960  11.595
17166W        W85384  37.457   3.844  11.532
17167W        W85385   2.067   0.049   1.716
17168W        W85386   6.746   3.584  12.360
17169W        W85387  23.085   1.685   3.626
17170W        W85388  42.400   1.449  12.492
17171W        W85389   1.286  28.245  10.662
17172W        W85390  31.773  27.598  11.245
17173W        W85391  28.438  13.751   4.237
17174W        W85392  35.019  42.992  10.493
17175W        W85393  27.641   3.682   4.132
17176W        W85394  20.012  35.784   4.550
17177W        W85395  11.852  23.173   4.654
17178W        W85396  17.321  22.173  10.323
17179W        W85397  36.796  13.324   1.778
17180W        W85398  44.272  42.885  13.080
17181W        W85399  35.927  42.468   0.516
17182W        W85400  36.926  37.825   1.614
17183W        W85401   5.082  22.273  11.043
17184W        W85402  22.949  18.158   2.709
17185W        W85403  10.235  27.066  11.419
17186W        W85404  30.608  19.038   3.106
17187W        W85405  43.018   5.118  14.542
17188W        W85406  28.300  14.636   3.225
17189W        W85407  11.753  17.753   0.375
17190W        W85408  20.299  38.505   1.641
17191W        W85409  43.439  34.961  12.536
17192W        W85410  42.385  37.553   4.605
17193W        W85411   0.624  16.205  12.172
17194W        W85412  35.139  17.258   1.547
17195W        W85413  25.647   2.035   2.241
17196W        W85414  37.605  25.088  11.460
17197W        W85415  25.019  16.170   0.962
17198W        W85416   8.045  10.516   5.127
17199W        W85417   2.614  18.769   2.540
17200W        W85418  17.002  19.746  14.374
17201W        W85419  33.611   6.649  12.011
17202W        W85420   2.619  20.249   1.798
17203W        W85421   7.307  30.491  11.051
17204W        W85422  18.458  41.096  12.903
17205W        W85423  38.028   8.835  14.625
17206W        W85424  21.534  28.041   1.339
17207W        W85425   5.368   2.210  12.183
17208W        W85426   2.893  36.611   1.122
17209W        W85427  43.056  27.204   5.061
17210W        W85428  23.810   6.694  11.270
17211W        W85429  20.094  14.114   1.155
17212W        W85430  23.639  36.690  12.643
17213W        W85431  20.160  13.813  14.901
17214W        W85432  27.559  14.133   4.103
17215W        W85433  12.566  11.185  13.329
17216W        W85434  23.545   8.163   4.611
17217W        W85435  13.661  16.625   4.504
17218W        W85436   6.146  31.056  12.911
17219W        W85437  23.743  30.123   2.430
17220W        W85438   2.781  34.364  11.579
17221W        W85439  40.621  19.495   4.129
17222W        W85440   4.780  38.896  12.759
17223W        W85441  37.365  30.961  12.503
17224W        W85442  29.567  20.907  12.446
17225W        W85443   4.774   4.022   4.188
17226W        W85444  40.453  18.521   3.215
17227W        W85445  27.003   3.848  14.964
17228W        W85446   6.767  34.390   3.529
17229W        W85447  41.069  44.784   1.349
17230W        W85448   2.670  12.228  11.616
17231W        W85449  35.283  22.169   0.805
17232W        W85450  27.561  15.219   2.717
17233W        W85451  10.614  41.777  14.362
17234W        W85452  21.269   5.856   4.150
17235W        W85453   5.489  39.454  11.427
17236W        W85454   3.154  13.390   3.787
17237W        W85455   1.684  26.206   0.193
17238W        W85456  23.382   4.462  12.568
17239W        W85457   0.515  17.842   1.759
17240W        W85458   6.658  44.967   3.822
17241W        W85459   6.450   0.306  11.405
17242W        W85460  21.899  24.533  14.332
17243W        W85461  22.050  28.327  11.653
17244W        W85462  42.448   5.822   2.299
17245W        W85463   0.364   1.057   0.831
17246W        W85464  21.095  33.524   4.286
17247W        W85465  15.263  34.596   4.407
17248W        W85466   3.223  10.535  14.393
17249W        W85467  35.070   1.215  13.918
17250W        W85468   3.607   1.652  13.764
17251W        W85469  11.141  12.293   4.715
17252W        W85470  44.867  17.294   1.744
17253W        W85471  27.066  33.945  10.439
17254W        W85472  42.727   3.528  10.031
17255W        W85473  15.950  29.749  14.420
17256W        W85474   6.124  44.972   3.646
17257W        W85475  30.942  15.703  12.312
17258W        W85476  33.549   6.896   2.909
17259W        W85477  13.689  27.696   2.310
17260W        W85478  19.977   2.970   1.745
17261W        W85479  16.124  17.511   5.006
17262W        W85480  30.800   8.908  14.047
17263W        W85481  34.431   2.417   0.130
17264W        W85482  21.806   2.399  11.144
17265W        W85483  43.320  31.683   4.529
17266W        W85484  25.295  28.409  13.089
17267W        W85485  37.108  13.235   2.725
17268W        W85486  44.469  14.134  13.110
17269W        W85487   1.209  15.384   4.095
17270W        W85488   3.590  19.736  10.174
17271W        W85489  20.474  27.890  11.108
17272W        W85490  18.598  16.043   1.281
17273W        W85491   4.707  13.794   2.597
17274W        W85492   8.131  40.115  11.920
17275W        W85493  27.132  11.976  10.600
17276W        W85494  30.965  11.169  11.049
17277W        W85495  10.890  41.470   3.229
17278W        W85496  22.568  43.565   1.180
17279W        W85497  40.703  12.199  10.660
17280W        W85498  18.579  34.564  10.630
17281W        W85499  36.884  29.638  12.497
17282W        W85500  32.149  11.203  13.097
17283W        W85501  37.709  35.657   1.434
17284W        W85502  13.591  12.258   4.612
17285W        W85503  37.006  36.399  13.041
17286W        W85504  21.907  35.398  14.276
17287W        W85505  14.204  26.793  13.079
17288W        W85506   3.799  19.469  13.023
17289W        W85507   8.351  20.131   2.964
17290W        W85508  29.732  38.684  11.577
17291W        W85509  43.406  42.835   3.202
17292W        W85510  15.782  41.519   2.638
17293W        W85511  14.375  34.585   0.075
17294W        W85512  33.012   6.413   3.336
17295W        W85513  37.618  27.940   0.424
17296W        W85514  34.029  43.981   4.502
17297W        W85515  16.126   6.909  12.041
17298W        W85516  44.085  16.231   2.301
17299W        W85517  18.069   8.218  14.188
17300W        W85518  25.590  37.943   3.910
17301W        W85519  30.455  16.990  11.423
17302W        W85520  35.622  14.655   0.518
17303W        W85521  12.288  15.880   0.135
17304W        W85522  16.583  10.730   1.672
17305W        W85523  22.785  24.449  13.263
17306W        W85524   3.796  16.197   3.228
17307W        W85525   9.355  15.805   1.216
17308W        W85526  39.272  13.364   0.937
17309W        W85527  24.728   4.760   2.882
17310W        W85528  24.197  28.609  14.955
17311W        W85529  35.578  22.259   2.818
17312W        W85530   2.826  10.894  14.385
17313W        W85531   9.400   4.398  12.081
17314W        W85532   0.779  20.124  13.778
17315W        W85533  35.754  40.081   1.503
17316W        W85534  17.187  37.976  12.617
17317W        W85535  27.342  11.345  13.950
17318W        W85536  17.074   1.428   3.735
17319W        W85537   0.847  30.729  10.838
17320W        W85538  19.589  21.327   1.416
17321W        W85539  17.711   6.210   3.574
17322W        W85540   5.010  39.072   1.788
17323W        W85541   5.969   4.627  12.594
17324W        W85542  15.776  24.430   5.022
17325W        W85543  16.067  23.620   0.777
17326W        W85544  27.530  10.503  14.000
17327W        W85545  44.932   5.058   3.834
17328W        W85546  21.115   7.817  11.017
17329W        W85547   6.542  34.792  11.282
17330W        W85548  33.308  16.528  14.214
17331W        W85549  27.124  11.430   1.359
17332W        W85550  43.634   1.876  10.407
17333W        W85551  31.697   9.661   3.922
17334W        W85552   1.016  34.317   0.217
17335W        W85553  15.507  21.964   0.702
17336W        W85554   3.274  34.089   3.551
17337W        W85555  25.537  14.096  14.341
17338W        W85556   6.118  42.292  14.867
17339W        W85557  33.364  41.563  14.377
17340W        W85558  15.668  13.059  13.178
17341W        W85559  21.045  43.557   1.604
17342W        W85560  19.972   0.488   3.809
17343W        W85561   0.984  13.241   1.372
17344W        W85562  25.937  35.621   1.477
17345W        W85563   9.324  44.633  13.953
17346W        W85564  12.355   4.314  12.560
17347W        W85565  20.709  22.501  14.922
17348W        W85566  40.817  31.954   4.084
17349W        W85567  26.999  40.936   2.113
17350W        W85568   6.434  38.295   3.663
17351W        W85569   6.262  35.496   3.821
17352W        W85570  14.904   1.657   2.339
17353W        W85571   4.996  41.537  14.561
17354W        W85572  20.139  10.681   1.168
17355W        W85573  14.933   5.979  12.362
17356W        W85574  17.336  31.291  11.405
17357W        W85575  30.373   9.324   4.252
17358W        W85576  44.251  19.577  10.056
17359W        W85577  29.243   3.507   1.285
17360W        W85578   3.151   2.449  11.171
17361W        W85579  33.634  21.991   4.591
17362W        W85580  37.514  28.458  10.635
17363W        W85581  41.826   8.332   0.855
17364W        W85582  39.270  36.375  11.862
17365W        W85583  25.140  34.825   3.338
17366W        W85584   0.258  23.154   2.200
17367W        W85585  25.084  18.787  14.606
17368W        W85586  11.771  16.841  11.560
17369W        W85587  34.891  43.953   2.769
17370W        W85588  37.757  23.701   4.174
17371W        W85589  20.118   3.794   0.825
17372W        W85590  21.038  31.051  12.085
17373W        W85591  38.552  23.802   2.136
17374W        W85592  26.726  30.049   1.255
17375W        W85593   4.478  24.012   2.094
17376W        W85594  22.950  40.336  13.470
17377W        W85595   5.747  39.640  14.526
17378W        W85596  39.757   8.928  14.753
17379W        W85597  20.244   6.131  11.072
17380W        W85598   7.881  22.783  11.133
17381W        W85599   6.638  36.662   4.287
17382W        W85600  27.169   3.387   1.477
17383W        W85601  43.031   7.615   1.384
17384W        W85602  10.675  16.753   2.438
17385W        W85603   9.430  17.114   4.087
17386W        W85604   1.219  17.193  10.769
17387W        W85605  32.311  23.896  12.094
17388W        W85606  31.074  22.411  14.749
17389W        W85607  22.831  35.012  11.629
17390W        W85608  34.030  42.320   3.734
17391W        W85609  21.240  14.744   4.201
17392W        W85610  36.915  24.032  11.403
17393W        W85611   8.716  29.633   2.233
17394W        W85612  28.629  43.961   1.115
17395W        W85613   6.450  31.288  11.121
17396W        W85614  20.922  24.460  12.782
17397W        W85615   8.614  39.506   2.226
17398W        W85616   2.855  37.903   0.398
17399W        W85617   4.963   1.223   2.436
17400W        W85618  16.751  38.635   1.398
17401W        W85619  18.641  33.525   1.827
17402W        W85620  14.595  40.083   1.906
17403W        W85621  12.952  38.272   3.432
17404W        W85622  39.367  19.019  11.986
17405W        W85623  15.539   3.970  12.023
17406W        W85624  39.314  11.000  11.859
17407W        W85625   6.398  11.757   2.809
17408W        W85626  21.511   0.672   0.767
17409W        W85627  28.712  33.718   4.109
17410W        W85628  12.902  43.214   2.375
17411W        W85629  43.449  19.273   3.667
17412W        W85630  43.076  37.929   2.921
17413W        W85631   3.239  27.967  13.884
17414W        W85632  33.016  28.056   4.096
17415W        W85633  17.686  38.837   4.349
17416W        W85634  24.075  29.286  11.461
17417W        W85635  18.958  33.009  11.751
17418W        W85636  13.881   7.132   3.268
17419W        W85637  22.643   2.833  10.270
17420W        W85638  36.845  11.656   1.883
17421W        W85639  14.999  32.603   3.759
17422W        W85640  24.190  19.670  12.982
17423W        W85641  31.208  27.603  11.168
17424W        W85642  11.296  19.713   1.244
17425W        W85643  33.891  13.812  14.756
17426W        W85644  27.977  33.941  10.434
17427W        W85645  25.619  43.388  11.908
17428W        W85646  11.997  12.778  12.973
17429W        W85647   3.333  13.379  11.529
17430W        W85648  34.286  18.138  11.202
17431W        W85649  21.277  16.807  14.429
17432W        W85650   2.003  21.454  10.624
17433W        W85651   4.347   5.576  11.034
17434W        W85652  21.191  22.579   0.612
17435W        W85653   6.295   6.847   3.299
17436W        W85654  33.981  18.514   4.119
17437W        W85655   9.803  18.492   2.689
17438W        W85656  15.288  12.013   4.144
17439W        W85657  14.368  32.081  11.670
17440W        W85658  38.096  19.569  13.863
17441W        W85659  25.911  43.279  12.558
17442W        W85660  10.567  11.173  14.308
17443W        W85661  11.766  19.942  11.530
17444W        W85662  21.420  19.475   2.055
17445W        W85663  28.443  26.051   2.217
17446W        W85664  38.102   7.617   4.171
17447W        W85665   4.310  23.096   3.714
17448W        W85666  34.647   5.467  14.299
17449W        W85667  12.191  18.550   4.525
17450W        W85668  17.135  26.225   3.269
17451W        W85669  40.521  10.415   1.860
17452W        W85670  16.925  44.790   4.813
17453W        W85671  35.871  20.086  13.209
17454W        W85672  15.641  27.562  10.599
17455W        W85673  21.770  32.392   1.746
17456W        W85674  38.273  17.790   3.257
17457W        W85675  38.500  20.047  14.474
17458W        W85676  41.954  38.776   1.327
17459W        W85677  14.079  38.254  12.180
17460W        W85678   3.659   7.533   3.968
17461W        W85679  32.707  43.896  11.674
17462W        W85680  30.499  23.924   3.692
17463W        W85681  35.661   3.313   2.361
17464W        W85682  34.343  26.525   0.813
17465W        W85683   8.859  38.387  14.275
17466W        W85684  25.503  31.391  11.980
17467W        W85685  12.212  42.749   2.853
17468W        W85686   2.178  36.389  13.455
17469W        W85687  18.036  38.443   3.569
17470W        W85688   3.093  16.373   2.635
17471W        W85689  41.915  20.191  12.211
17472W        W85690   3.004  42.804  10.300
17473W        W85691   3.367  43.668   5.012
17474W        W85692  16.077  18.677   4.234
17475W        W85693  11.200   3.242  12.184
17476W        W85694  34.080  12.058  12.827
17477W        W85695   1.879  38.990   2.743
17478W        W85696  22.027   9.831   1.308
17479W        W85697  41.323   5.282   1.857
17480W        W85698  17.757   4.713   0.913
17481W        W85699  31.221  23.246  13.527
17482W        W85700   6.611   9.796  14.235
17483W        W85701  43.354  12.238  14.906
17484W        W85702  41.825  44.038  13.009
17485W        W85703  37.325  18.981  11.124
17486W        W85704  27.272  31.683   3.260
17487W        W85705  20.128  18.258   0.320
17488W        W85706  44.931  24.468  12.129
17489W        W85707   2.675  19.122  14.838
17490W        W85708  25.617  20.925   4.625
17491W        W85709  44.347  36.396   4.204
17492W        W85710  39.307  15.487  14.461
17493W        W85711  13.620   6.314   1.701
17494W        W85712  38.822  26.778  10.684
17495W        W85713  42.262  18.324   0.516
17496W        W85714  25.143  12.579  14.948
17497W        W85715  31.143  38.998   3.442
17498W        W85716  16.229  34.957   0.735
17499W        W85717  12.658   1.849   4.035
17500W        W85718  15.209  39.195   3.729
17501W        W85719   7.333  13.840   1.258
17502W        W85720  28.420  12.677   5.117
17503W        W85721  37.315  36.592  11.938
17504W        W85722  35.397  11.763  14.282
17505W        W85723  14.292  27.022  14.597
17506W        W85724  36.009  38.059   1.189
17507W        W85725  15.223  10.527  13.262
17508W        W85726   3.276   9.997  11.470
17509W        W85727  38.451  33.783   3.200
17510W        W85728  29.624  38.376   2.822
17511W        W85729   1.847  31.832   0.500
17512W        W85730  22.213  18.240   4.125
17513W        W85731  28.600  12.175  12.828
17514W        W85732  23.170   6.383   3.644
17515W        W85733  20.623  15.379  11.875
17516W        W85734  11.148  28.481  14.859
17517W        W85735   1.244   6.309   2.621
17518W        W85736  10.915  36.855   3.219
17519W        W85737  39.641  12.330  12.840
17520W        W85738  37.462  14.611   3.640
17521W        W85739  25.587  30.985  11.129
17522W        W85740  24.551   2.467   3.735
17523W        W85741  32.799   6.386   5.193
17524W        W85742   3.702  26.779  12.002
17525W        W85743  29.140  24.516  12.525
17526W        W85744  31.323  30.098   0.393
17527W        W85745   7.889  39.065  12.527
17528W        W85746   2.203  29.053  10.611
17529W        W85747   6.934   7.764  13.748
17530W        W85748  36.219  16.732  13.966
17531W        W85749  16.163  16.089  10.349
17532W        W85750  39.230  42.445   0.216
17533W        W85751   4.722  31.356   0.124
17534W        W85752  39.486  36.913   1.921
17535W        W85753  26.245   1.287   1.395
17536W        W85754  27.935  30.610   2.600
17537W        W85755  41.994   9.203   0.292
17538W        W85756  12.806  17.612  11.912
17539W        W85757  34.478   7.864   4.862
17540W        W85758   3.238  33.933  14.246
17541W        W85759  18.566  37.145  13.321
17542W        W85760  16.653  37.334   0.908
17543W        W85761   2.495  15.592   1.413
17544W        W85762  37.059  18.744   3.199
17545W        W85763  10.891  38.568   1.885
17546W        W85764  21.038  23.149  12.555
17547W        W85765  22.134   7.889   3.213
17548W        W85766  29.433  30.377   3.636
17549W        W85767  10.021   5.940   1.420
17550W        W85768  21.465  29.686  11.572
17551W        W85769  15.935  24.514   3.448
17552W        W85770  13.246  38.877   2.250
17553W        W85771  38.327  14.888  12.384
17554W        W85772  15.207  24.777   4.115
17555W        W85773   5.436  43.788   2.291
17556W        W85774  19.465  44.246  10.814
17557W        W85775  21.982  37.559  12.229
17558W        W85776  34.318   6.346  11.203
17559W        W85777  22.039  23.136   1.397
17560W        W85778  13.393   9.630   1.765
17561W        W85779  24.735  25.208   2.299
17562W        W85780   2.904   8.490   0.585
17563W        W85781  15.157  30.913   4.003
17564W        W85782  32.849  22.028   1.348
17565W        W85783  18.858   1.435  11.412
17566W        W85784   5.901   7.687   1.455
17567W        W85785  44.454  15.784  14.073
17568W        W85786  23.779  27.941   4.945
17569W        W85787  22.628  10.144   1.426
17570W        W85788  36.968   6.645   1.740
17571W        W85789  18.746  14.186  12.528
17572W        W85790  14.625  42.811  14.461
17573W        W85791   1.475  32.604  14.805
17574W        W85792  18.091  22.129   1.497
17575W        W85793  31.585  13.512   3.250
17576W        W85794  36.721  10.150   3.614
17577W        W85795  12.207  11.372  10.578
17578W        W85796  24.497  17.996  13.540
17579W        W85797   5.287  25.667   2.795
17580W        W85798  29.070  29.344  14.444
17581W        W85799  31.787  38.820  14.807
17582W        W85800  28.970  38.740  12.415
17583W        W85801  22.619  32.977   2.657
17584W        W85802  33.004  23.405   2.216
17585W        W85803  22.579  39.832   2.232
17586W        W85804  34.384  37.854   4.970
17587W        W85805  38.326  16.698  13.038
17588W        W85806  21.056  30.884   4.248
17589W        W85807   0.545  23.244   2.642
17590W        W85808  30.890  44.474   2.281
17591W        W85809  41.177  17.652   0.649
17592W        W85810   1.413  16.547   1.092
17593W        W85811  43.010  21.148  11.666
17594W        W85812  19.239  21.278   3.171
17595W        W85813   0.359  33.820  13.054
17596W        W85814  29.988  17.218  13.760
17597W        W85815   9.157  30.015  13.985
17598W        W85816  35.919  10.086   3.234
17599W        W85817  24.606  13.713  13.365
17600W        W85818  16.623  36.857   0.719
17601W        W85819  25.019  41.098   1.346
17602W        W85820   9.572  34.932   1.570
17603W        W85821  18.136   4.714   0.238
17604W        W85822  23.498  39.133   0.837
17605W        W85823  24.759  23.822   0.854
17606W        W85824  42.292  24.534   0.010
17607W        W85825  11.637   0.681   2.695
17608W        W85826  20.558  15.089  13.409
17609W        W85827  37.052   3.347   1.697
17610W        W85828  43.797   5.430   3.908
17611W        W85829  37.575  44.505   2.832
17612W        W85830   2.270  24.474  13.325
17613W        W85831  12.079  43.196   4.945
17614W        W85832   0.490  40.660  14.589
17615W        W85833  39.370  28.459  11.817
17616W        W85834  10.143  19.260  12.935
17617W        W85835  43.324  25.730   4.410
17618W        W85836  28.803  27.765  13.410
17619W        W85837  33.593  28.689  11.596
17620W        W85838  17.263   7.846   0.058
17621W        W85839   8.701  35.516   1.749
17622W        W85840  43.234  32.623  13.409
17623W        W85841  20.130  16.057  12.892
17624W        W85842  27.643  10.603   0.544
17625W        W85843   8.709   4.895  14.994
17626W        W85844  43.858  26.431  13.433
17627W        W85845   1.760   1.057   2.555
17628W        W85846  21.432   5.371   4.194
17629W        W85847  29.833  33.413   3.168
17630W        W85848   8.306  26.606   4.411
17631W        W85849  33.405  44.015  11.523
17632W        W85850  38.123  13.508  11.731
17633W        W85851  14.132  42.414  14.185
17634W        W85852  10.291  19.466  14.289
17635W        W85853  42.545  11.367   1.376
17636W        W85854  36.329   0.990   0.458
17637W        W85855   2.955  14.643   2.732
17638W        W85856   0.017  11.360  13.285
17639W        W85857  28.550  10.016   2.258
17640W        W85858  32.567  11.621   2.726
17641W        W85859  21.450  44.730  14.392
17642W        W85860  41.413  14.745   1.352
17643W        W85861  34.858   1.706  12.526
17644W        W85862  34.110  17.098   4.126
17645W        W85863  10.751  12.711   1.341
17646W        W85864  17.086  28.365   1.192
17647W        W85865  20.362  16.890  13.457
17648W        W85866  29.850  34.091  14.774
17649W        W85867  18.848  18.761  12.661
17650W        W85868  32.770  41.493   5.163
17651W        W85869  41.050  14.039   4.083
17652W        W85870   7.688   6.853   3.323
17653W        W85871  23.721  32.835  13.134
17654W        W85872  42.216  17.174   1.322
17655W        W85873  34.043  42.236  13.416
17656W        W85874  25.439  28.541   4.372
17657W        W85875  44.539  23.020   2.697
17658W        W85876  44.820   1.254  12.530
17659W        W85877  24.595   2.404  13.046
17660W        W85878  25.344  41.372  11.604
17661W        W85879   2.452  27.056   3.543
17662W        W85880   0.140   7.852   2.795
17663W        W85881  31.408   9.496   0.012
17664W        W85882  40.263  41.980  14.797
17665W        W85883  37.680  15.615   3.685
17666W        W85884   5.697   9.151  14.958
17667W        W85885  22.626  25.977  12.633
17668W        W85886  36.750  17.361  11.974
17669W        W85887  19.625  44.223   0.383
17670W        W85888   9.115   0.185   4.127
17671W        W85889   9.536  14.368  13.937
17672W        W85890  27.468  13.818   0.345
17673W        W85891  16.503  16.959  14.771
17674W        W85892  42.378   9.782  10.702
17675W        W85893   7.144  15.796  11.651
17676W        W85894   6.828  20.704   1.646
17677W        W85895  34.678   9.893   2.935
17678W        W85896  42.765  37.501   2.930
17679W        W85897   0.096   1.894   0.961
17680W        W85898  12.971  14.372  13.397
17681W        W85899  33.084  30.525   3.080
17682W        W85900  26.507  13.546   1.189
17683W        W85901  41.964  42.287  13.789
17684W        W85902   7.809  10.374  14.568
17685W        W85903  16.143  25.822   3.266
17686W        W85904  23.894  31.453  12.059
17687W        W85905  18.792   3.483   3.653
17688W        W85906   0.488   6.684  14.064
17689W        W85907  27.014  21.195  12.102
17690W        W85908  34.034  11.903   4.799
17691W        W85909   9.383  20.533  14.928
17692W        W85910  38.446   9.767  14.863
17693W        W85911  15.800  21.406   1.361
17694W        W85912  26.571  12.046  11.206
17695W        W85913  15.876  31.543  13.417
17696W        W85914  32.783   9.685  11.706
17697W        W85915  21.100  43.387  11.652
17698W        W85916  26.342  16.580   2.115
17699W        W85917  10.284  16.315  12.396
17700W        W85918   2.321  16.167  13.501
17701W        W85919   6.054  30.395  12.204
17702W        W85920   3.260  13.596   0.709
17703W        W85921   2.383  19.235  11.155
17704W        W85922  13.720   3.845   4.629
17705W        W85923   9.788  13.393   3.635
17706W        W85924  35.921  22.023  11.179
17707W        W85925   7.339  35.737   3.227
17708W        W85926  25.663  34.415   0.025
17709W        W85927   0.830  22.139   1.617
17710W        W85928  25.293  36.157   1.384
17711W        W85929  14.801  28.043  14.839
17712W        W85930  38.127  44.120  11.432
17713W        W85931  34.862  42.312  11.588
17714W        W85932   7.599  43.315  12.465
17715W        W85933  43.472   2.233   1.829
17716W        W85934  41.311  44.874   4.156
17717W        W85935  15.661  13.219   2.902
17718W        W85936  23.755  12.306   3.218
17719W        W85937  15.725  26.018  14.733
17720W        W85938  21.524   6.158  14.852
17721W        W85939  14.629  13.038  11.216
17722W        W85940  13.610  34.402   2.962
17723W        W85941   4.666   4.570   4.247
17724W        W85942  19.126  11.262  12.818
17725W        W85943  35.485  18.560   2.363
17726W        W85944  28.253  43.740  14.949
17727W        W85945  32.044   0.557   2.145
17728W        W85946   6.541  41.406   2.497
17729W        W85947  41.759   0.434  14.789
17730W        W85948  12.961  30.953   3.543
17731W        W85949  42.391  35.685  14.834
17732W        W85950  39.469  16.031  10.500
17733W        W85951  25.421  11.800   3.424
17734W        W85952  34.551  28.921   2.729
17735W        W85953  10.154  43.714   3.297
17736W        W85954   7.330   2.919   1.870
17737W        W85955  27.688  14.682   2.571
17738W        W85956  15.831  22.566   2.687
17739W        W85957  13.115  28.904   1.848
17740W        W85958  38.084  39.791   2.165
17741W        W85959   3.819   2.230   4.766
17742W        W85960  10.034  24.018   1.864
17743W        W85961   7.253  14.850  10.672
17744W        W85962  19.112   1.908   2.780
17745W        W85963  40.871  38.568   4.714
17746W        W85964  30.516  24.219   0.993
17747W        W85965  41.552  42.981  14.230
17748W        W85966  34.952  15.047  11.910
17749W        W85967   1.444  14.059   1.980
17750W        W85968   5.890   7.389   1.033
17751W        W85969  29.631  25.090   4.530
17752W        W85970   3.746  37.467  12.213
17753W        W85971  39.795  34.693  11.541
17754W        W85972  44.938  13.112  12.943
17755W        W85973  40.638  20.550   2.794
17756W        W85974  44.907  29.631   0.418
17757W        W85975  39.670   1.778  13.719
17758W        W85976  37.133  32.639  13.738
17759W        W85977   9.941  26.639   1.401
17760W        W85978  39.312  20.555  13.514
17761W        W85979  21.300   0.322  14.481
17762W        W85980  23.899  12.644  14.443
17763W        W85981   3.302  42.364   3.435
17764W        W85982  39.046  20.853   0.345
17765W        W85983  24.185   5.317  12.994
17766W        W85984   9.823  18.198   3.552
17767W        W85985  26.402  23.002  14.807
17768W        W85986  17.033   8.890   1.759
17769W        W85987   7.119  25.219  13.845
17770W        W85988  30.678  38.942  10.503
17771W        W85989  14.109  10.777   3.802
17772W        W85990  27.610  26.187  10.669
17773W        W85991  27.101  31.883  10.560
17774W        W85992  34.384  36.612  11.361
17775W        W85993   1.834  21.841  14.607
17776W        W85994  10.216  40.065   2.674
17777W        W85995  21.650  31.028   1.817
17778W        W85996   5.701  15.620  12.626
17779W        W85997  12.388   3.690   0.912
17780W        W85998  37.019   6.608   2.548
17781W        W85999  41.852   2.228  13.644
17782W        W86000  31.021  12.265  13.395
17783W        W86001   0.802  41.500   1.177
17784W        W86002  22.759  30.641   4.068
17785W        W86003   6.677   1.289  12.113
17786W        W86004  17.699  32.414   3.181
17787W        W86005  36.863  40.559  12.935
17788W        W86006   0.908  21.635  11.917
17789W        W86007  10.625  41.141   1.837
17790W        W86008  14.252   3.826  12.350
17791W        W86009  36.596  39.392   0.475
17792W        W86010  44.590  33.397   1.867
17793W        W86011   9.068   5.320   1.756
17794W        W86012   2.836  11.270   1.301
17795W        W86013   4.006  15.481   4.836
17796W        W86014   0.468  30.606   1.322
17797W        W86015  10.679   2.360  10.732
17798W        W86016  11.629  43.326   0.556
17799W        W86017  35.143  35.642   3.271
17800W        W86018  25.055   9.307   2.314
17801W        W86019   3.829  24.539   4.588
17802W        W86020  11.840  14.715   1.872
17803W        W86021  36.477  19.587  10.322
17804W        W86022  12.144  12.111   4.215
17805W        W86023  23.667   4.324  14.406
17806W        W86024  12.652   8.200   0.419
17807W        W86025  12.661  10.810   4.563
17808W        W86026  28.874  10.446   2.800
17809W        W86027   8.684  17.683   0.213
17810W        W86028  28.884  17.609  12.385
17811W        W86029  39.769  35.125   2.785
17812W        W86030  30.017   2.931   0.919
17813W        W86031  16.059  10.259  11.667
17814W        W86032  26.047  34.304   1.434
17815W        W86033  14.625  15.562   0.939
17816W        W86034   4.277  13.521  10.714
17817W        W86035   8.629  35.886   1.140
17818W        W86036   7.450  11.311  13.537
17819W        W86037  13.611  31.386   0.992
17820W        W86038   6.279   8.108  12.072
17821W        W86039  14.191  11.173  12.566
17822W        W86040  29.485  30.498   3.112
17823W        W86041   9.007  43.695  14.968
17824W        W86042  15.144  11.393  14.569
17825W        W86043  17.646  34.736   2.449
17826W        W86044  44.062  34.566  10.252
17827W        W86045  17.241  21.743   4.183
17828W        W86046  31.883  42.710   1.704
17829W        W86047  29.119  44.107  14.819
17830W        W86048  14.217   7.787  12.153
17831W        W86049  39.366   7.237  11.687
17832W        W86050  33.958  11.631  12.584
17833W        W86051   2.256  32.862   3.624
17834W        W86052  41.938  12.271   3.163
17835W        W86053  31.128  43.075  14.832
17836W        W86054  19.449  31.915  12.874
17837W        W86055  29.558   2.725  13.072
17838W        W86056  17.324   9.332   0.856
17839W        W86057  19.877  40.781  10.712
17840W        W86058  36.715  16.456  12.035
17841W        W86059   6.833  42.718   3.940
17842W        W86060  14.854  34.538  12.552
17843W        W86061  12.570  33.516   1.434
17844W        W86062  17.089  34.963  11.073
17845W        W86063  13.685   4.671   3.075
17846W        W86064  24.328  29.433   4.810
17847W        W86065  31.512   9.580   1.387
17848W        W86066  16.075  20.971   4.034
17849W        W86067  40.968  14.059   2.757
17850W        W86068  31.186  22.493  13.821
17851W        W86069  18.285  35.698   1.223
17852W        W86070  10.679  29.379   4.982
17853W        W86071   0.731   1.539  12.096
17854W        W86072  32.699   1.491  10.822
17855W        W86073  15.701   7.820  12.528
17856W        W86074  43.524  15.020  11.614
17857W        W86075  26.304   1.620   0.072
17858W        W86076  42.985  26.413   4.048
17859W        W86077  20.702  43.123  11.914
17860W        W86078  30.351  15.173  13.447
17861W        W86079  22.752   2.402  12.535
17862W        W86080  39.553  21.230   3.915
17863W        W86081  15.035  37.954  13.119
17864W        W86082  12.660  42.437  10.370
17865W        W86083  29.447  11.123  12.480
17866W        W86084  21.173   5.503   3.757
17867W        W86085  25.556  25.024  14.433
17868W        W86086  10.605  32.560   3.992
17869W        W86087  44.898  39.593  12.042
17870W        W86088  40.872  23.137   1.010
17871W        W86089   4.732  20.258  12.458
17872W        W86090  36.546  22.184   3.718
17873W        W86091   5.654  22.501  14.972
17874W        W86092   2.239  24.865   0.203
17875W        W86093   7.953  33.607   4.016
17876W        W86094   7.026   7.990  12.418
17877W        W86095  14.207  15.398  13.913
17878W        W86096   8.825  35.150  14.339
17879W        W86097  36.096  39.781   3.270
17880W        W86098  19.753  31.377   4.835
17881W        W86099  42.349  20.004  12.015
17882W        W86100  38.806   9.743  13.938
17883W        W86101  38.480  38.995  10.737
17884W        W86102  32.164   0.952   4.192
17885W        W86103  20.218   6.413   0.873
17886W        W86104  32.473  24.521  14.428
17887W        W86105   2.857  36.199   0.789
17888W        W86106  27.755  43.264  13.519
17889W        W86107   6.826  10.389   2.880
17890W        W86108   1.764   5.340  14.462
17891W        W86109  42.792  42.529  12.986
17892W        W86110  20.187   6.884  10.510
17893W        W86111  20.789  32.568  12.454
17894W        W86112  20.164  11.887  14.956
17895W        W86113  41.092  11.446  14.564
17896W        W86114  23.689  37.482   4.269
17897W        W86115  13.730  33.301  11.245
17898W        W86116  43.247  20.262   3.631
17899W        W86117   9.102  13.744  14.055
17900W        W86118  24.760  30.028  12.083
17901W        W86119  15.276  21.856  13.955
17902W        W86120   7.877   6.684   2.866
17903W        W86121  29.985  30.677  14.331
17904W        W86122  16.768  21.070   1.566
17905W        W86123  44.603  28.489   5.175
17906W        W86124  44.802  19.069   0.426
17907W        W86125  19.756  35.057   1.888
17908W        W86126  21.581  24.038   0.507
17909W        W86127  30.107  19.738   0.818
17910W        W86128  32.308  39.816  10.622
17911W        W86129  40.505  29.563   5.262
17912W        W86130   4.146  38.345  12.457
17913W        W86131  14.238  42.964   9.870
17914W        W86132  25.665  10.344  14.915
17915W        W86133  25.043  36.155  11.660
17916W        W86134  30.516  42.249   3.072
17917W        W86135  40.749  43.211   3.214
17918W        W86136  27.159  18.228   4.285
17919W        W86137   9.750  35.277   3.795
17920W        W86138  23.490  14.825  14.953
17921W        W86139  32.278  34.013   4.712
17922W        W86140  20.115  39.859  12.885
17923W        W86141  34.540  33.273   4.013
17924W        W86142   3.167  32.514   4.603
17925W        W86143   3.093   8.079  14.237
17926W        W86144   9.672  19.943  11.904
17927W        W86145  31.803  34.610   3.967
17928W        W86146  32.355   3.629   0.067
17929W        W86147  31.144  22.737  12.074
17930W        W86148  21.326  39.770  11.571
17931W        W86149  26.216  41.537  13.338
17932W        W86150  27.898  44.969  14.870
17933W        W86151  18.731   1.314  12.847
17934W        W86152  12.842   6.847  14.387
17935W        W86153  17.171  34.382  10.660
17936W        W86154  44.386  20.953   3.661
17937W        W86155  38.857  14.778  12.326
17938W        W86156  21.627   1.360  13.146
17939W        W86157  24.681  37.361  14.209
17940W        W86158   8.709  32.566  11.960
17941W        W86159  40.425   9.105   4.170
17942W        W86160  16.456   7.560  14.688
17943W        W86161  17.046  21.823   2.187
17944W        W86162  29.199  22.175  14.454
17945W        W86163  42.091  26.639  11.622
17946W        W86164  40.464  35.895  10.072
17947W        W86165  14.458  25.896   4.484
17948W        W86166   1.072   4.905   3.252
17949W        W86167   0.529  44.083   1.775
17950W        W86168  25.391  21.021  13.818
17951W        W86169  12.341   7.766   4.755
17952W        W86170  39.393  23.218   0.792
17953W        W86171   8.893  41.363   1.271
17954W        W86172  34.033  20.308   0.104
17955W        W86173   6.921  15.082  13.607
17956W        W86174  31.842  21.539  11.927
17957W        W86175  26.081   1.591  13.327
17958W        W86176   6.414  21.090   3.577
17959W        W86177  25.630   5.280   3.646
17960W        W86178  10.683  33.530   2.349
17961W        W86179  43.519  22.186   0.696
17962W        W86180   4.583  25.439  11.617
17963W        W86181  22.498  43.322  13.357
17964W        W86182   7.098  12.233  11.141
17965W        W86183  22.499  42.454  12.988
17966W        W86184  36.488  16.813  13.536
17967W        W86185   9.306  37.923   3.767
17968W        W86186  34.599  38.725  14.948
17969W        W86187   3.323  43.222   2.830
17970W        W86188  33.535  34.357  14.880
17971W        W86189  17.983  42.444  13.009
17972W        W86190   5.886  23.088  14.015
17973W        W86191  20.641  34.343  14.566
17974W        W86192  25.392  40.846  11.497
17975W        W86193  24.715   5.018  12.225
17976W        W86194  24.676  43.273   4.662
17977W        W86195   0.482   5.157  13.002
17978W        W86196  21.328  21.051  14.373
17979W        W86197   3.908  26.063  13.076
17980W        W86198  17.751  17.271  12.829
17981W        W86199  35.871  42.311   1.432
17982W        W86200   6.152  41.849  10.945
17983W        W86201   3.274  35.385   0.990
17984W        W86202   9.711  32.054   2.791
17985W        W86203  13.359  31.817  13.487
17986W        W86204  25.879  36.121   1.340
17987W        W86205   6.674  37.931   4.688
17988W        W86206   2.833  24.979  10.650
17989W        W86207   7.357  16.757   3.045
17990W        W86208  10.883   6.883  13.477
17991W        W86209   7.505  22.622  11.980
17992W        W86210   0.829  28.704  13.010
17993W        W86211  10.823  30.904  10.671
17994W        W86212   6.475   3.523   1.265
17995W        W86213  28.371   1.851  12.529
17996W        W86214  13.767  38.003   4.200
17997W        W86215  14.398  18.337   3.145
17998W        W86216   6.283  10.431   2.849
17999W        W86217  10.844  11.668  13.618
18000W        W86218  38.447  20.758   3.337
18001W        W86219  15.698  12.377   1.842
18002W        W86220  32.006  23.943  12.507
18003W        W86221  23.801   8.713  12.877
18004W        W86222   7.357  30.126  11.717
18005W        W86223   9.862  41.269   1.291
18006W        W86224  17.151  40.625   3.534
18007W        W86225  19.011  18.292  11.628
18008W        W86226  43.622  13.317   2.168
18009W        W86227  18.136  16.895  12.963
18010W        W86228  23.946   2.455  13.643
18011W        W86229  25.751  10.896   4.556
18012W        W86230  38.539  37.460   2.572
18013W        W86231  40.357  15.246  13.147
18014W        W86232  31.701   1.754  12.845
18015W        W86233  38.243  41.430   1.486
18016W        W86234  31.163  11.556   0.943
18017W        W86235  34.467  39.102   3.320
18018W        W86236  13.340  36.759   2.310
18019W        W86237  36.477   9.682  12.036
18020W        W86238  26.519  41.993   2.659
18021W        W86239  33.837   4.789   3.842
18022W        W86240  44.394  41.515  11.174
18023W        W86241   3.727  33.095  13.780
18024W        W86242  22.598  38.056   3.115
18025W        W86243  29.719   5.065  12.033
18026W        W86244  42.911  35.653   0.998
18027W        W86245  34.169   1.307   1.430
18028W        W86246   8.836  39.058  11.103
18029W        W86247  24.670  11.417  13.859
18030W        W86248  21.969  39.073  11.536
18031W        W86249  15.496  10.265  12.501
18032W        W86250  16.361  21.123  13.386
18033W        W86251  36.399  39.861  10.526
18034W        W86252  17.055  25.853   1.462
18035W        W86253   0.777  27.523  13.741
18036W        W86254  43.327  34.334   1.475
18037W        W86255  17.531  12.119  13.890
18038W        W86256   8.901  21.077   2.367
18039W        W86257   5.841  32.584  14.834
18040W        W86258   3.120  22.972  14.761
18041W        W86259   3.590  38.638   0.553
18042W        W86260  25.388  42.298  13.421
18043W        W86261  39.117  44.923  10.986
18044W        W86262  26.867   6.621  13.299
18045W        W86263  39.381   6.002  13.391
18046W        W86264  32.653   3.335   2.242
18047W        W86265  36.386  27.547   1.305
18048W        W86266   3.391  25.709   1.530
18049W        W86267   2.218  26.419   1.377
18050W        W86268  10.714  35.492   2.746
18051W        W86269  35.549  36.992  12.352
18052W        W86270  11.721  28.979   0.800
18053W        W86271  25.090  31.086   4.545
18054W        W86272   8.322  19.050  13.454
18055W        W86273  11.892  29.645  13.503
18056W        W86274  44.367  43.932   4.134
18057W        W86275   3.968  20.468   1.668
18058W        W86276   7.399  11.753   4.606
18059W        W86277  32.108  24.014   4.931
18060W        W86278  24.267  35.844   3.181
18061W        W86279   0.174  40.893  10.770
18062W        W86280  18.285  27.459  11.150
18063W        W86281   8.757  21.293   0.010
18064W        W86282   0.065  23.072   2.673
18065W        W86283  23.937  40.128  14.431
18066W        W86284  13.761  10.358  10.655
18067W        W86285  43.068  33.953   3.661
18068W        W86286  16.006   6.902   1.660
18069W        W86287  15.558   7.779  13.028
18070W        W86288   3.882   0.146  13.383
18071W        W86289   9.827   0.527   3.385
18072W        W86290  32.106  29.616   1.241
18073W        W86291  43.385  22.087   4.582
18074W        W86292  34.186   8.346   4.372
18075W        W86293  39.495  34.894   3.660
18076W        W86294   6.268  35.603  14.761
18077W        W86295  44.355  26.524   3.750
18078W        W86296  19.430  10.099  13.996
18079W        W86297   8.455  22.778  13.192
18080W        W86298  36.048   1.007  12.422
18081W        W86299  31.992  36.760  11.868
18082W        W86300  19.292   0.188  13.282
18083W        W86301  26.149  13.127  11.364
18084W        W86302  22.038  29.999   4.354
18085W        W86303  44.026  13.762   1.738
18086W        W86304  35.073   4.577  14.705
18087W        W86305   2.272  11.405   2.694
18088W        W86306  26.735  24.091   4.083
18089W        W86307  19.383   0.380   1.872
18090W        W86308  27.662  12.404   0.329
18091W        W86309  14.753  33.768   2.136
18092W        W86310   2.323  28.394   4.591
18093W        W86311  12.182  38.259   0.393
18094W        W86312  28.099  11.111   4.381
18095W        W86313   4.994   8.772   3.266
18096W        W86314  42.126  36.831  14.206
18097W        W86315   4.383  37.382  10.984
18098W        W86316   6.443  29.619   2.634
18099W        W86317   4.619  43.568  13.051
18100W        W86318  18.589  17.321  13.927
18101W        W86319  22.709  41.982  12.829
18102W        W86320  21.290  35.806  14.782
18103W        W86321   1.006  35.467   4.520
18104W        W86322  19.732  20.216   2.410
18105W        W86323  27.852  27.660  10.534
18106W        W86324  22.259  24.952  12.484
18107W        W86325  33.947  20.029  11.633
18108W        W86326  35.014  19.742  11.921
18109W        W86327  33.860   0.417  11.168
18110W        W86328   8.098  34.362   5.009
18111W        W86329  26.629  37.779   3.226
18112W        W86330  43.949   7.613  12.660
18113W        W86331  36.807  12.896   4.787
18114W        W86332  42.667  32.457   4.766
18115W        W86333  41.460   2.382  11.891
18116W        W86334  12.342  16.522   1.797
18117W        W86335   5.304  26.008  13.857
18118W        W86336  14.898  35.125  10.765
18119W        W86337   7.213   7.418  13.359
18120W        W86338  12.296  33.819  12.407
18121W        W86339  26.947  41.101   0.211
18122W        W86340  37.817   3.333   2.924
18123W        W86341  36.358   2.209  13.049
18124W        W86342  21.936  40.331  13.497
18125W        W86343  36.744   6.667   0.408
18126W        W86344  30.704  44.794  11.505
18127W        W86345  38.943  26.433  11.169
18128W        W86346  16.591  27.705   0.312
18129W        W86347  33.179  26.377   9.789
18130W        W86348  16.869   4.335   1.931
18131W        W86349   2.499  12.708   3.227
18132W        W86350  16.683  22.752   1.957
18133W        W86351  30.117  14.777  10.194
18134W        W86352  43.479  14.569   2.703
18135W        W86353  25.221  43.426  11.523
18136W        W86354  37.594   7.262  10.949
18137W        W86355  32.850   7.106   0.927
18138W        W86356  38.584  38.321   3.333
18139W        W86357  27.466   9.282  12.363
18140W        W86358  33.658   4.502   0.468
18141W        W86359   8.975  12.097   3.818
18142W        W86360   0.489  10.196  10.962
18143W        W86361   3.526  17.784  13.890
18144W        W86362  40.864  16.788  14.476
18145W        W86363  24.106  21.465   3.691
18146W        W86364  14.785   0.259   0.331
18147W        W86365  25.722  25.053   0.411
18148W        W86366  19.229  34.769  14.219
18149W        W86367   5.898  42.441  13.951
18150W        W86368   9.433  12.280   2.239
18151W        W86369  21.135   8.133   2.450
18152W        W86370   3.654  15.226   2.272
18153W        W86371   5.519  14.331  14.920
18154W        W86372  16.178  12.262   1.958
18155W        W86373  18.680  37.323   0.552
18156W        W86374  10.861  29.995  14.683
18157W        W86375  19.134   4.542  14.348
18158W        W86376  22.640  30.281  11.516
18159W        W86377  19.709   7.370   4.175
18160W        W86378  25.925  23.228  13.078
18161W        W86379  24.549  28.394  11.979
18162W        W86380  42.943  21.749  13.270
18163W        W86381  41.989   5.849  14.741
18164W        W86382  41.999  25.443   0.316
18165W        W86383   6.959  22.702   4.192
18166W        W86384   0.739  19.746  14.176
18167W        W86385  23.698  33.984  14.251
18168W        W86386   0.756  12.639  12.522
18169W        W86387   7.207  29.815   0.321
18170W        W86388   3.059  10.812   1.202
18171W        W86389  41.600  18.181   3.615
18172W        W86390  23.552  23.617   2.142
18173W        W86391  44.802  18.453   2.296
18174W        W86392  15.796  22.260  14.438
18175W        W86393  19.677  19.456   3.044
18176W        W86394  10.849  21.533   3.753
18177W        W86395   0.474  31.387   1.254
18178W        W86396  23.414  38.515  12.482
18179W        W86397  30.425   4.417   3.237
18180W        W86398  39.998  25.730  14.031
18181W        W86399  32.231  26.618  13.035
18182W        W86400   6.717  29.039  14.507
18183W        W86401  42.110  12.597   2.709
18184W        W86402   2.925  44.951  11.526
18185W        W86403  33.536  37.616   2.210
18186W        W86404   5.625  27.064   2.607
18187W        W86405  29.390  34.685  14.330
18188W        W86406  18.745   3.791   1.195
18189W        W86407  42.530  22.082   4.411
18190W        W86408   0.005  33.329  11.509
18191W        W86409  42.936   0.393   2.343
18192W        W86410  19.695   4.820  13.230
18193W        W86411  33.148   0.483  14.889
18194W        W86412   6.185  27.972   3.642
18195W        W86413   3.196  38.030   3.813
18196W        W86414  19.086  37.353  14.810
18197W        W86415   1.748  28.150  14.701
18198W        W86416  28.083   6.375  13.739
18199W        W86417  13.789  39.416  12.123
18200W        W86418  23.045  12.847   4.587
18201W        W86419  31.396  39.655  11.507
18202W        W86420  31.129  38.461   2.724
18203W        W86421  22.289  13.765   2.766
18204W        W86422  14.358  19.285  12.565
18205W        W86423   2.848  44.219   2.214
18206W        W86424  34.348  40.792   3.178
18207W        W86425  21.800  38.368   1.770
18208W        W86426  43.429   9.322  12.912
18209W        W86427  33.062  39.092   0.434
18210W        W86428  36.530   5.787   4.799
18211W        W86429  12.504  13.352  12.962
18212W        W86430  11.400  11.392   3.084
18213W        W86431  36.944   7.640   4.066
18214W        W86432  33.633  26.624  13.496
18215W        W86433  27.057  14.674   3.711
18216W        W86434  33.321  33.801   3.656
18217W        W86435  15.965   0.071   2.221
18218W        W86436  28.941  44.918  11.158
18219W        W86437  36.035  38.791  12.692
18220W        W86438  42.075  33.033  12.534
18221W        W86439  37.552  35.169   1.351
18222W        W86440  24.883  25.324   1.828
18223W        W86441   9.827   8.315  13.436
18224W        W86442  32.523  33.772  14.900
18225W        W86443  43.632  34.338   2.331
18226W        W86444  18.787  39.311   2.573
18227W        W86445   8.367  25.990   4.664
18228W        W86446  32.136  30.444  12.663
18229W        W86447  40.103  27.810   2.795
18230W        W86448  38.020   4.209  14.371
18231W        W86449   1.365   0.920   0.353
18232W        W86450   5.712  25.952   1.870
18233W        W86451  33.638  44.060   2.275
18234W        W86452  19.839  18.676   0.830
18235W        W86453  23.389  15.456  11.262
18236W        W86454  40.975  19.760   2.166
18237W        W86455  14.217  14.200  14.895
18238W        W86456  14.995  29.492  11.004
18239W        W86457  11.327  10.909   2.856
18240W        W86458   9.257  21.320   2.662
18241W        W86459  42.873  34.299   3.975
18242W        W86460   6.045  16.669  10.291
18243W        W86461  44.204  22.818  14.391
18244W        W86462  38.105  17.850  14.397
18245W        W86463   4.931  38.137  11.137
18246W        W86464  17.259  25.975   2.351
18247W        W86465   4.478  33.496   2.396
18248W        W86466  34.591   3.671   0.425
18249W        W86467  13.257   1.713  12.472
18250W        W86468  44.543   9.228   1.446
18251W        W86469  27.731  16.579   4.109
18252W        W86470  31.146  32.229   0.863
18253W        W86471  15.264  18.206  12.517
18254W        W86472  10.619   9.247   0.937
18255W        W86473  35.459  40.924   4.148
18256W        W86474  10.361   0.475   2.688
18257W        W86475  31.053   9.770   1.542
18258W        W86476  32.164  39.370   0.436
18259W        W86477  19.330   4.739   0.005
18260W        W86478   7.705  41.724   0.946
18261W        W86479  34.292  22.314  14.039
18262W        W86480  21.661  29.439  11.980
18263W        W86481  22.925   6.862  14.032
18264W        W86482  42.511  31.144  12.104
18265W        W86483  28.708  13.656   1.743
18266W        W86484  14.542  31.706  13.772
18267W        W86485  38.247  38.046   1.915
18268W        W86486  18.673   9.712   4.624
18269W        W86487  37.269  35.740  14.288
18270W        W86488  16.237  24.777   3.132
18271W        W86489  31.995  10.529   2.339
18272W        W86490  24.975  11.265  11.827
18273W        W86491  22.672   0.011  10.681
18274W        W86492  16.563  14.725   4.877
18275W        W86493  39.971  23.429  10.984
18276W        W86494   1.108  24.291   0.127
18277W        W86495  31.552   0.393   2.292
18278W        W86496  10.637   8.630  13.043
18279W        W86497  37.622  31.505  14.475
18280W        W86498  33.870  14.346  14.717
18281W        W86499  28.974   9.271  12.333
18282W        W86500  28.136  23.347   0.257
18283W        W86501  26.447  30.639   0.087
18284W        W86502   6.836   2.019   1.830
18285W        W86503  31.180   1.928  12.776
18286W        W86504  39.926  34.497   1.350
18287W        W86505   0.744  34.221  12.348
18288W        W86506  19.541  28.680   0.399
18289W        W86507  27.364  38.945   4.600
18290W        W86508   0.487  17.248  14.896
18291W        W86509  31.288  35.575  13.899
18292W        W86510  18.751  22.840  11.209
18293W        W86511  30.618  14.782  14.778
18294W        W86512  37.097  11.719   3.758
18295W        W86513  39.070  44.970   1.830
18296W        W86514  41.114  15.766   5.128
18297W        W86515  17.390  38.589   0.884
18298W        W86516  42.872  12.280   0.133
18299W        W86517  38.438  25.955  13.065
18300W        W86518  36.144   9.379   3.742
18301W        W86519   4.419  32.312  11.221
18302W        W86520  23.070  12.504   0.714
18303W        W86521  39.076  19.371   0.292
18304W        W86522   7.361   0.081   2.643
18305W        W86523  12.639  41.632   5.014
18306W        W86524   4.496   3.377   0.452
18307W        W86525   4.992  38.438  13.560
18308W        W86526  39.886  27.264   0.840
18309W        W86527  42.802  20.079   0.519
18310W        W86528  35.953  27.162   3.169
18311W        W86529  29.088  28.773   4.083
18312W        W86530  42.169   3.751   0.828
18313W        W86531  35.580  22.080   4.184
18314W        W86532   4.893  34.031  11.881
18315W        W86533  14.244  25.744  11.612
18316W        W86534  35.506  34.731   3.973
18317W        W86535  27.225  10.250   4.011
18318W        W86536   3.032  15.850   2.673
18319W        W86537  41.950  14.656  10.487
18320W        W86538  11.815  19.816  13.048
18321W        W86539   3.911  20.536   1.166
18322W        W86540  12.076  41.852   0.452
18323W        W86541  11.692  30.612  13.714
18324W        W86542  21.017   1.720  14.531
18325W        W86543   3.209   6.630  14.287
18326W        W86544   2.521  13.784  13.095
18327W        W86545  33.830  20.636  10.848
18328W        W86546  34.267  27.421  11.778
18329W        W86547  21.305  18.663   0.729
18330W        W86548   8.277  43.456  11.378
18331W        W86549  11.816  13.169  14.071
18332W        W86550  40.839   4.724   1.212
18333W        W86551   5.048  43.876   1.353
18334W        W86552  12.566  30.608  11.214
18335W        W86553   2.523  24.673  14.729
18336W        W86554  38.887   4.425   9.801
18337W        W86555   9.888  38.380   0.971
18338W        W86556  34.941  16.723  14.873
18339W        W86557  28.640  40.166  11.197
18340W        W86558  38.337   9.400  12.982
18341W        W86559  28.040  38.519  12.422
18342W        W86560   3.978  33.224   0.815
18343W        W86561   2.875  27.071   3.896
18344W        W86562  36.550  21.239  14.355
18345W        W86563  41.373  19.694  12.061
18346W        W86564  33.864  35.254  12.734
18347W        W86565  15.804  33.950  10.511
18348W        W86566   3.093  39.760  11.753
18349W        W86567  23.628  30.435   3.095
18350W        W86568   6.352  18.581  12.879
18351W        W86569   4.386   7.731   0.374
18352W        W86570   2.752  25.099  13.452
18353W        W86571  40.526  11.503  12.843
18354W        W86572  37.937   1.867  11.205
18355W        W86573  15.143  21.662  12.660
18356W        W86574  44.667  35.353  13.734
18357W        W86575  36.464   8.672   2.429
18358W        W86576   2.294  38.936  12.506
18359W        W86577   2.185   4.725   4.072
18360W        W86578  29.760  37.614  13.463
18361W        W86579  16.497  10.381   0.925
18362W        W86580  44.780  29.557  13.376
18363W        W86581  16.081  17.933   4.676
18364W        W86582  38.346  38.286  11.875
18365W        W86583  38.249  37.759   2.901
18366W        W86584  27.223  30.195   0.356
18367W        W86585  10.244   3.681   2.631
18368W        W86586  18.711   1.813   0.726
18369W        W86587   2.859  22.550   4.416
18370W        W86588  29.023  36.451   3.880
18371W        W86589  32.015  25.678  10.531
18372W        W86590  31.926  12.310   1.754
18373W        W86591  27.895  40.996   2.347
18374W        W86592   3.635  43.799  12.031
18375W        W86593  35.420   9.785   4.881
18376W        W86594   6.272  41.754  14.765
18377W        W86595  38.413  42.411  13.811
18378W        W86596  13.342  36.493   1.859
18379W        W86597  23.263  18.076   2.298
18380W        W86598  33.045  26.631  12.549
18381W        W86599  16.840   2.703   2.770
18382W        W86600   7.422   3.551   1.293
18383W        W86601  25.893   5.906  11.471
18384W        W86602  20.714  22.072  13.560
18385W        W86603   1.687  25.085  13.448
18386W        W86604  21.313  19.748  10.724
18387W        W86605  41.622  36.888  14.350
18388W        W86606   2.936  30.494   1.641
18389W        W86607  42.078  33.511   1.828
18390W        W86608   1.478  23.496  11.140
18391W        W86609  18.648  16.057   0.403
18392W        W86610  32.396  21.489   2.714
18393W        W86611   5.198  14.266  14.448
18394W        W86612   2.017   3.604   0.608
18395W        W86613  19.699  35.881  13.788
18396W        W86614  12.933  20.575   3.208
18397W        W86615   1.248  18.435  12.116
18398W        W86616  16.177  29.926  11.619
18399W        W86617  15.822  10.303  12.127
18400W        W86618  24.571  11.669   4.464
18401W        W86619  19.099  41.397  10.410
18402W        W86620  24.643  29.181  12.821
18403W        W86621  36.782  12.130   3.698
18404W        W86622  13.280  14.866  12.125
18405W        W86623  33.792  30.388  13.397
18406W        W86624  25.278  36.623   0.398
18407W        W86625  19.759  16.846  12.344
18408W        W86626  22.174   3.367   3.319
18409W        W86627  15.897  16.614  11.952
18410W        W86628  17.589  20.801  13.387
18411W        W86629  38.925  30.679  12.174
18412W        W86630  19.101  16.746   4.224
18413W        W86631  28.587   5.483   4.161
18414W        W86632  26.445  41.966   4.535
18415W        W86633  22.262   0.437  13.991
18416W        W86634  26.689  36.648  11.153
18417W        W86635  19.011  27.978   4.135
18418W        W86636   8.356   3.202   1.505
18419W        W86637  14.705   5.230  14.981
18420W        W86638  31.653  14.681   1.224
18421W        W86639  37.717  29.581  13.434
18422W        W86640  11.110  36.984   0.556
18423W        W86641  18.085  26.282  13.518
18424W        W86642  40.634  42.851  14.709
18425W        W86643  19.570  30.685  12.327
18426W        W86644  30.809  20.993  12.581
18427W        W86645  41.257  35.917   2.727
18428W        W86646  28.521  44.028   0.598
18429W        W86647  22.310  35.548  14.571
18430W        W86648  18.672  11.663   0.671
18431W        W86649  21.618  30.822  13.944
18432W        W86650  10.762  41.368   1.324
18433W        W86651  33.293  40.399  14.163
18434W        W86652  26.114   7.601   3.790
18435W        W86653  28.920   6.855   4.715
18436W        W86654   1.287  27.527  12.864
18437W        W86655  35.419  38.748   3.095
18438W        W86656  20.876  38.946   3.807
18439W        W86657  30.023  18.154  14.960
18440W        W86658  36.571   9.570  11.190
18441W        W86659  36.812  10.802   4.916
18442W        W86660   9.216  21.187   0.223
18443W        W86661  13.678  15.149   4.467
18444W        W86662  31.675  41.599   0.370
18445W        W86663  28.426  12.623  13.078
18446W        W86664  44.275   7.945  13.214
18447W        W86665  32.899  31.695   3.544
18448W        W86666  34.862  17.233  14.953
18449W        W86667  32.168  35.284  11.629
18450W        W86668  16.216  43.336   3.102
18451W        W86669   6.765   6.864   4.090
18452W        W86670  28.281  41.126   3.624
18453W        W86671  11.832  39.015   4.720
18454W        W86672  34.350   6.416  14.544
18455W        W86673  23.630  37.192  10.638
18456W        W86674  29.465  16.981   0.137
18457W        W86675  37.592  13.624  13.908
18458W        W86676  40.937  20.855  12.574
18459W        W86677   1.849  18.691   1.822
18460W        W86678  27.272  24.852   5.061
18461W        W86679  26.378  30.766   2.407
18462W        W86680   8.389   1.121  12.201
18463W        W86681  26.963  26.731  14.428
18464W        W86682  40.517   9.248  11.635
18465W        W86683  31.502  24.762  14.863
18466W        W86684  31.111  44.258  11.897
18467W        W86685   8.759   9.817  12.987
18468W        W86686  34.121   4.060   4.967
18469W        W86687  44.776  29.773   2.433
18470W        W86688  19.715  16.200   4.316
18471W        W86689  42.115   2.037   4.260
18472W        W86690  41.510  36.967   2.586
18473W        W86691  32.310  19.205  14.471
18474W        W86692  32.914  11.927  12.033
18475W        W86693  24.978   9.875  10.460
18476W        W86694  17.691  39.539   3.259
18477W        W86695  42.663  11.966  11.283
18478W        W86696  31.703  23.752  11.537
18479W        W86697  27.277  11.410   4.516
18480W        W86698  10.732  36.424  10.823
18481W        W86699  23.118  38.091   1.865
18482W        W86700  10.403   5.585   1.409
18483W        W86701  25.451  41.969  14.077
18484W        W86702  22.259  13.886   1.055
18485W        W86703   5.350   0.244  13.323
18486W        W86704  36.933  10.680  10.705
18487W        W86705   8.903   0.038  14.898
18488W        W86706  42.393  41.530  10.659
18489W        W86707  38.347   5.286  12.905
18490W        W86708   0.512   2.052  12.341
18491W        W86709  20.268  39.898   1.688
18492W        W86710  22.734  23.803  14.974
18493W        W86711   7.033  28.990   4.688
18494W        W86712  22.662  11.761   4.605
18495W        W86713  30.501  10.945  11.031
18496W        W86714  36.938  42.372  13.834
18497W        W86715  15.607  30.893  10.691
18498W        W86716  10.627  35.592   3.681
18499W        W86717   3.234  36.886  10.689
18500W        W86718  14.206  15.566  11.127
18501W        W86719   7.333  23.785  14.486
18502W        W86720  14.045  31.102   0.994
18503W        W86721  26.755  42.932  10.697
18504W        W86722  44.809  14.296  12.607
18505W        W86723  14.735   4.917  14.446
18506W        W86724  34.540  10.511  14.990
18507W        W86725  42.515  38.862  14.711
18508W        W86726  43.966  10.699  14.379
18509W        W86727  33.392  38.597  14.480
18510W        W86728   5.645  40.274   4.175
18511W        W86729   9.509   4.317   0.823
18512W        W86730   3.375   3.763  14.764
18513W        W86731   7.188  31.804   1.731
18514W        W86732  22.817  11.263  10.624
18515W        W86733  35.539  36.824   0.493
18516W        W86734   4.927   1.089  13.882
18517W        W86735  10.727  26.488  12.888
18518W        W86736  20.316  10.897  12.966
18519W        W86737  10.114  31.658   1.128
18520W        W86738  28.421   4.750   3.155
18521W        W86739  15.477   6.833   0.713
18522W        W86740   2.974   4.225   3.968
18523W        W86741  33.963  30.497   1.851
18524W        W86742  32.713  15.390   2.680
18525W        W86743   2.899  30.595  13.187
18526W        W86744  36.920  19.313   0.988
18527W        W86745  30.858  26.050   3.006
18528W        W86746  36.479   0.750   2.381
18529W        W86747  43.368   5.299   3.377
18530W        W86748  31.957  37.808   2.501
18531W        W86749  25.559  35.176   2.198
18532W        W86750  10.092  40.718  14.932
18533W        W86751  44.262   4.816   4.143
18534W        W86752   5.751  40.144  14.390
18535W        W86753  41.446  20.349  14.743
18536W        W86754  39.399   7.181  12.197
18537W        W86755  23.493   2.689  13.433
18538W        W86756  15.571  34.461  13.074
18539W        W86757  32.048  23.162   3.150
18540W        W86758  23.213  10.403   2.023
18541W        W86759   4.737  41.315  14.154
18542W        W86760  16.377  36.547   1.456
18543W        W86761  34.143   4.538  12.394
18544W        W86762  10.267   1.921  11.919
18545W        W86763   4.480  36.025  13.067
18546W        W86764  16.099  23.764  10.524
18547W        W86765  43.956  40.572   4.696
18548W        W86766  44.718  12.607   3.223
18549W        W86767   8.747   5.331  14.304
18550W        W86768  21.921  22.434   2.736
18551W        W86769  39.101  27.059   2.079
18552W        W86770  17.001   2.324   2.019
18553W        W86771  25.070   6.802   4.005
18554W        W86772  28.529  22.308  12.793
18555W        W86773  23.703  21.130  14.388
18556W        W86774  27.228  25.569  11.129
18557W        W86775   3.209  12.124  11.858
18558W        W86776  44.807  24.478  12.646
18559W        W86777  40.024   3.657  11.961
18560W        W86778  31.430   5.292  12.988
18561W        W86779  28.533  39.459  11.560
18562W        W86780   6.339   3.887   0.296
18563W        W86781   3.414  19.270   4.087
18564W        W86782  41.659  37.741  13.363
18565W        W86783  36.271  34.492  13.462
18566W        W86784  31.329  33.473  12.886
18567W        W86785  27.126  38.811   0.942
18568W        W86786  13.575  44.454   3.223
18569W        W86787  39.102   7.588   4.503
18570W        W86788   1.899  12.296  13.114
18571W        W86789  27.038  30.713   3.630
18572W        W86790  20.585  43.703   3.525
18573W        W86791  22.176  16.788  14.319
18574W        W86792  22.791  43.519  13.889
18575W        W86793  30.024   3.705  11.202
18576W        W86794  27.170   3.476  12.108
18577W        W86795  31.548  12.819  13.746
18578W        W86796   7.845  41.915  14.378
18579W        W86797   0.829  22.568  13.077
18580W        W86798  44.512   1.699   5.034
18581W        W86799  27.352  36.870  13.517
18582W        W86800   7.451  11.038  12.447
18583W        W86801  42.000   2.933   4.027
18584W        W86802  21.780  20.602   3.705
18585W        W86803  30.530  39.359  14.509
18586W        W86804  16.617   0.985  11.964
18587W        W86805   1.236  15.333  14.483
18588W        W86806  34.384  23.793  14.839
18589W        W86807  15.103   7.877  14.081
18590W        W86808  20.871  18.713   1.027
18591W        W86809  27.327   4.217  11.451
18592W        W86810   5.391  33.248  13.890
18593W        W86811  41.578  22.561   0.349
18594W        W86812  29.587  42.558  10.785
18595W        W86813  25.649  33.705   0.692
18596W        W86814  12.826  36.571   4.545
18597W        W86815  36.971  42.720  14.478
18598W        W86816  33.296  41.922  13.896
18599W        W86817  26.741  19.254   3.621
18600W        W86818  39.736   1.400   2.209
18601W        W86819   8.246  10.549   1.020
18602W        W86820  33.817  34.214  13.016
18603W        W86821  39.147   2.622   0.791
18604W        W86822  27.391  19.306  12.441
18605W        W86823  38.182  35.466   0.396
18606W        W86824  27.988  14.262  13.567
18607W        W86825  21.656  35.810  12.490
18608W        W86826  33.012   4.395  13.906
18609W        W86827  35.524   0.524  10.385
18610W        W86828   0.690  20.679   0.280
18611W        W86829  20.985  31.554  12.054
18612W        W86830  42.859  14.666   1.500
18613W        W86831  30.185  28.588  11.952
18614W        W86832  31.829  14.943   2.810
18615W        W86833  39.476   3.454   0.470
18616W        W86834  35.756  27.614  11.864
18617W        W86835  42.427   2.895  14.493
18618W        W86836   1.959   4.278  14.986
18619W        W86837  18.677  32.028   0.323
18620W        W86838   8.782  22.222  12.224
18621W        W86839  42.282  28.598  10.669
18622W        W86840  28.191  10.304  14.689
18623W        W86841   9.255  40.885   0.330
18624W        W86842  37.472   7.302   2.749
18625W        W86843  25.709  19.716   4.600
18626W        W86844  21.183   6.342   4.019
18627W        W86845   3.532  22.779   5.062
18628W        W86846   2.428   5.205  12.035
18629W        W86847  25.759  28.523  13.337
18630W        W86848   7.065  31.847   5.070
18631W        W86849  29.608  41.773  11.222
18632W        W86850  30.618  28.652   3.885
18633W        W86851  39.924  16.256   1.472
18634W        W86852  19.805  32.811  12.090
18635W        W86853  33.867  13.228  11.515
18636W        W86854  20.774  28.019   0.773
18637W        W86855  36.859  39.897  12.565
18638W        W86856  16.620  16.291   1.440
18639W        W86857   2.431   1.074   0.331
18640W        W86858  10.868  35.882  11.942
18641W        W86859   9.196  27.371  14.651
18642W        W86860  16.006   5.666   0.861
18643W        W86861  10.178  17.835   4.243
18644W        W86862  10.222  36.241  11.891
18645W        W86863   2.488   4.904  11.614
18646W        W86864  19.733   7.207  14.252
18647W        W86865  41.825  16.576   2.297
18648W        W86866  31.494  23.058   0.664
18649W        W86867  28.460  22.947   0.413
18650W        W86868  21.197  28.232  12.910
18651W        W86869  30.600  36.431  13.103
18652W        W86870   2.957   9.632   1.956
18653W        W86871  13.840  20.985   1.200
18654W        W86872  20.259  24.489   4.257
18655W        W86873   7.245  32.994   3.701
18656W        W86874   1.740  34.070  12.863
18657W        W86875  34.180  33.902   3.225
18658W        W86876   8.812  20.524  14.080
18659W        W86877  15.676   3.228  12.500
18660W        W86878  39.788  19.131   1.776
18661W        W86879  38.770  28.051  14.749
18662W        W86880  36.833  43.233   0.917
18663W        W86881   9.926  22.945  11.494
18664W        W86882  20.516   8.104   3.806
18665W        W86883   9.886   4.449  13.878
18666W        W86884  23.543  23.274  11.475
18667W        W86885   3.771  42.139  10.143
18668W        W86886   1.498   4.941   2.345
18669W        W86887  44.288  14.419  14.475
18670W        W86888  24.125  36.454  13.902
18671W        W86889   3.745  32.808  11.616
18672W        W86890  44.625  17.149  11.184
18673W        W86891  37.622   0.258   3.600
18674W        W86892  34.680   4.605   1.320
18675W        W86893  18.122  19.204  12.886
18676W        W86894  31.670  31.445   4.685
18677W        W86895  16.306  12.647   4.104
18678W        W86896  27.090  42.290   2.217
18679W        W86897   4.271   6.451   4.272
18680W        W86898  35.620  24.836  14.794
18681W        W86899  14.638   5.689  14.715
18682W        W86900   3.590  25.175   2.296
18683W        W86901  44.565  10.597   0.280
18684W        W86902  21.132  14.114  11.133
18685W        W86903  12.238  13.907   3.826
18686W        W86904  39.795  17.268  11.588
18687W        W86905  29.043  43.746   4.128
18688W        W86906  28.913  29.273   2.872
18689W        W86907  20.299  20.497   2.747
18690W        W86908   2.538  17.278  10.260
18691W        W86909  31.116   9.891  12.512
18692W        W86910  23.792  43.007   0.848
18693W        W86911   1.323   4.235  13.282
18694W        W86912   9.624  40.333   4.512
18695W        W86913  17.235  30.084  10.703
18696W        W86914  14.908  12.836  11.584
18697W        W86915  40.827  23.425  13.573
18698W        W86916  18.024  21.066  14.516
18699W        W86917   6.351  41.572  12.476
18700W        W86918  12.772  38.553  12.622
18701W        W86919   7.400  12.886  13.024
18702W        W86920  39.394  38.174   1.435
18703W        W86921   7.754  13.162  10.338
18704W        W86922  11.171   6.877   0.220
18705W        W86923  12.958  40.999  10.675
18706W        W86924  23.484   7.279  12.505
18707W        W86925  22.510  44.255  14.292
18708W        W86926  10.826  17.363  10.164
18709W        W86927  34.480   3.809   4.701
18710W        W86928  15.859  44.445   0.358
18711W        W86929  22.011  26.200   2.760
18712W        W86930  22.424  29.086   3.321
18713W        W86931  19.490  15.075  14.168
18714W        W86932  36.358  37.834  14.406
18715W        W86933   3.927  30.582  14.063
18716W        W86934  15.642  44.925  13.512
18717W        W86935  28.270   1.087  12.988
18718W        W86936  15.137   5.584   2.335
18719W        W86937  28.057  30.103   0.936
18720W        W86938  38.421  18.739  13.953
18721W        W86939  23.662  26.667  13.899
18722W        W86940  37.439   6.267  13.197
18723W        W86941   2.355   0.470   1.919
18724W        W86942  19.571  18.906  11.980
18725W        W86943  16.287  27.195   4.207
18726W        W86944  19.601  17.411   0.363
18727W        W86945   9.932  33.976   0.420
18728W        W86946  10.389  24.233   2.217
18729W        W86947  38.545  14.677   1.774
18730W        W86948   8.413   0.209  11.407
18731W        W86949  36.455   0.055  14.784
18732W        W86950  16.853  29.214  13.890
18733W        W86951  40.377  12.162   0.180
18734W        W86952  20.949   0.505   1.334
18735W        W86953  12.035  36.429  11.574
18736W        W86954  31.017  13.365  11.080
18737W        W86955  26.403  13.623   4.177
18738W        W86956  12.797  38.601  13.648
18739W        W86957  27.121  10.818   2.378
18740W        W86958  31.439  38.534  13.986
18741W        W86959  42.948   2.579  11.852
18742W        W86960  44.416  40.135   0.035
18743W        W86961  11.392  10.661   0.323
18744W        W86962  25.246  44.887   0.182
18745W        W86963  30.188  31.456  12.866
18746W        W86964  22.960   7.878  10.722
18747W        W86965  38.589  28.940   1.393
18748W        W86966   5.900  38.443  10.632
18749W        W86967  29.192  28.008  10.542
18750W        W86968  39.946  14.308   1.810
18751W        W86969  32.547   9.217  11.544
18752W        W86970  13.131  13.700   4.687
18753W        W86971   0.799  34.671  14.037
18754W        W86972  20.590  35.938  12.497
18755W        W86973   8.224  16.584  13.980
18756W        W86974  25.044  40.737  13.850
18757W        W86975  29.097  39.966   1.453
18758W        W86976  12.321  28.457   3.184
18759W        W86977  31.910  38.887  12.062
18760W        W86978  31.948  31.083  13.410
18761W        W86979  26.261  33.322  11.203
18762W        W86980  16.236  40.399  14.660
18763W        W86981  35.250  25.182  14.832
18764W        W86982  42.600  32.316   1.782
18765W        W86983  38.564  33.739  13.518
18766W        W86984  22.349  11.863  11.185
18767W        W86985  15.899   2.043   0.760
18768W        W86986  41.318  21.201  12.427
18769W        W86987  25.270  23.751   0.082
18770W        W86988  44.581  39.994  12.163
18771W        W86989  32.338  40.291   2.298
18772W        W86990  39.573  15.048   1.327
18773W        W86991  27.636   3.744  11.589
18774W        W86992  29.964  11.393   3.216
18775W        W86993  16.546  44.481   1.263
18776W        W86994  35.437  13.611   0.397
18777W        W86995  30.573  22.548  14.805
18778W        W86996  39.609  44.469   0.026
18779W        W86997  23.424   5.912  12.530
18780W        W86998   3.374   8.691   1.361
18781W        W86999  31.758  24.216   4.003
18782W        W87000  39.802  34.248  13.125
18783W        W87001  15.067  14.684   0.761
18784W        W87002   5.948  21.415  13.261
18785W        W87003  27.199  44.856  11.546
18786W        W87004  24.198  14.375  12.535
18787W        W87005  40.080  31.339   2.582
18788W        W87006  25.444  26.734  11.897
18789W        W87007   7.408  10.132   2.137
18790W        W87008  41.036  39.871   3.313
18791W        W87009   8.103  38.861   2.119
18792W        W87010  20.701  41.202  14.261
18793W        W87011   5.317  23.534   3.809
18794W        W87012  39.876  41.944   0.992
18795W        W87013  18.123  41.369   0.471
18796W        W87014  24.596  28.988  14.588
18797W        W87015  37.410  25.036  14.413
18798W        W87016  10.307  13.480   4.311
18799W        W87017  35.478  25.742  12.667
18800W        W87018  44.104  18.561   3.659
18801W        W87019  13.224  42.552  13.963
18802W        W87020  44.283  21.737   3.245
18803W        W87021   6.252  25.025   1.928
18804W        W87022  15.379  26.528   2.208
18805W        W87023  33.404  14.618  12.522
18806W        W87024   6.882  29.636   3.550
18807W        W87025  13.628   3.183   3.422
18808W        W87026  44.851  22.801  11.074
18809W        W87027   5.771  21.144  14.506
18810W        W87028   4.873  37.262   3.775
18811W        W87029   7.787  41.233  10.978
18812W        W87030  43.989  11.720  14.410
18813W        W87031  21.985  13.245  11.557
18814W        W87032  23.582  27.096  13.109
18815W        W87033  32.554  26.126   3.243
18816W        W87034  36.436  33.402   4.678
18817W        W87035   9.545   8.615  11.075
18818W        W87036   7.909  19.319  12.325
18819W        W87037  43.401  32.178  14.697
18820W        W87038  29.058  14.004  13.749
18821W        W87039   3.384  39.058   3.133
18822W        W87040  32.117  11.844   3.612
18823W        W87041  42.292   5.639   0.860
18824W        W87042  29.969  10.050  14.005
18825W        W87043  10.088  26.979  13.357
18826W        W87044  40.543  15.563   3.235
18827W        W87045  13.854  32.922   3.274
18828W        W87046  44.757  26.631   0.373
18829W        W87047   7.816   8.744   0.232
18830W        W87048   3.793  38.785  14.531
18831W        W87049  14.776  17.178  12.995
18832W        W87050   2.957  29.607   1.787
18833W        W87051  38.138  20.563  13.906
18834W        W87052  22.123  17.572  13.002
18835W        W87053  11.398   5.754   2.733
18836W        W87054  20.679  41.491  10.670
18837W        W87055  18.803  15.806   3.118
18838W        W87056  26.572  31.218  10.794
18839W        W87057   0.891  26.508   1.947
18840W        W87058   4.939  30.930   1.401
18841W        W87059  20.472  34.399  12.973
18842W        W87060  34.640  26.193  12.945
18843W        W87061   6.364  18.597   1.772
18844W        W87062  15.206  19.807   4.156
18845W        W87063  12.777  26.710   4.582
18846W        W87064   7.052   6.115  12.561
18847W        W87065  21.717   9.314  10.629
18848W        W87066  38.369   9.735   4.168
18849W        W87067  43.432   9.115  12.427
18850W        W87068  23.267  16.287  10.281
18851W        W87069  24.940  43.044   3.285
18852W        W87070   1.895  37.959   2.727
18853W        W87071  15.377  34.200   3.737
18854W        W87072   3.610  42.273   0.967
18855W        W87073  29.957  21.102  13.019
18856W        W87074  38.730   0.077   4.925
18857W        W87075  28.438  36.905   2.754
18858W        W87076  13.444  40.364  14.513
18859W        W87077   4.403   0.478   2.901
18860W        W87078  11.391  38.054  13.826
18861W        W87079  39.074  30.555   2.102
18862W        W87080   7.834  14.374  14.569
18863W        W87081   8.202   7.368  11.745
18864W        W87082  42.216  25.922  13.935
18865W        W87083  40.276  17.623  12.453
18866W        W87084  34.580   6.797  12.932
18867W        W87085  31.364  22.705  13.401
18868W        W87086  11.150  39.504   4.666
18869W        W87087  29.641  44.847   1.666
18870W        W87088  41.827  14.830   0.413
18871W        W87089  32.986  43.341  13.682
18872W        W87090  21.199  19.075  13.791
18873W        W87091  15.614  21.779   2.113
18874W        W87092  32.524  26.556  12.583
18875W        W87093  41.639  11.499   0.326
18876W        W87094   9.192  38.055   0.501
18877W        W87095  29.441   2.949   3.713
18878W        W87096  26.262  13.109   0.268
18879W        W87097  39.976   4.388   2.907
18880W        W87098  17.256  16.237   0.160
18881W        W87099  11.233  42.949   0.728
18882W        W87100  19.078  17.474   1.296
18883W        W87101  30.135  37.798   3.230
18884W        W87102  20.360  13.835   4.807
18885W        W87103   7.365  27.516   0.453
18886W        W87104  38.457  16.031   2.875
18887W        W87105   5.063  24.409   3.689
18888W        W87106  14.896  17.098   3.036
18889W        W87107  39.845   6.290  14.104
18890W        W87108  44.694  26.539   0.874
18891W        W87109  20.843  19.203   3.730
18892W        W87110  23.614  21.927   0.528
18893W        W87111   5.229  17.237  11.264
18894W        W87112  40.262  39.899  12.195
18895W        W87113  15.115  29.893  14.381
18896W        W87114  41.313   0.756   2.264
18897W        W87115   3.512  23.210   3.220
18898W        W87116  40.616   7.214   2.705
18899W        W87117  33.625   1.971  13.641
18900W        W87118  19.166  30.537  10.643
18901W        W87119  19.260  26.010   3.603
18902W        W87120  26.572   5.229   2.846
18903W        W87121   3.772  30.877  13.459
18904W        W87122  30.227   1.900   1.058
18905W        W87123  44.953  41.942   2.820
18906W        W87124  15.367  44.008   3.219
18907W        W87125  31.978   8.257   4.832
18908W        W87126  24.964  27.360  10.672
18909W        W87127  18.526  25.746  14.026
18910W        W87128  37.536  31.167  12.064
18911W        W87129  12.443  26.878   4.220
18912W        W87130   1.750  17.639   3.622
18913W        W87131  38.321  16.775   4.798
18914W        W87132  37.597  18.344   3.574
18915W        W87133  34.065  30.584  12.990
18916W        W87134   2.362  23.227   2.413
18917W        W87135  26.499  20.257  13.548
18918W        W87136  44.464  18.141   3.601
18919W        W87137   2.246  10.232  14.425
18920W        W87138  25.705  40.040   0.710
18921W        W87139  43.003  18.626  10.889
18922W        W87140   5.831  36.246   2.210
18923W        W87141  41.488  10.754  12.549
18924W        W87142  10.721   8.592   2.399
18925W        W87143   0.284  16.619  10.516
18926W        W87144   7.752  25.600   2.965
18927W        W87145  16.590  35.000   1.112
18928W        W87146  18.365  29.720  12.078
18929W        W87147  12.602   9.304   3.684
18930W        W87148  35.568  33.618   1.162
18931W        W87149  24.421  16.612  14.044
18932W        W87150   9.614  40.041  11.906
18933W        W87151  43.839  17.193   4.888
18934W        W87152  10.584  16.288   2.226
18935W        W87153  42.302   8.762  10.591
18936W        W87154  37.167   6.106   2.563
18937W        W87155  34.079  33.575   0.937
18938W        W87156  37.845  27.198  14.301
18939W        W87157  32.924  36.149   1.834
18940W        W87158  18.265  10.499  14.831
18941W        W87159  20.162  17.739   0.527
18942W        W87160  18.130  27.203   3.316
18943W        W87161  35.751   2.925   4.768
18944W        W87162  42.455  32.013   0.238
18945W        W87163  43.339   8.723  12.075
18946W        W87164  18.536  43.466  14.962
18947W        W87165  20.446   1.519   4.676
18948W        W87166  43.327   2.499   0.334
18949W        W87167  40.321  25.095  13.288
18950W        W87168  38.461  14.088  13.782
18951W        W87169  28.135  11.271  12.070
18952W        W87170  27.387  13.026  13.736
18953W        W87171  40.356  13.816   4.139
18954W        W87172   4.313  16.104  14.704
18955W        W87173  10.861  39.860  10.779
18956W        W87174  41.601  29.881   1.666
18957W        W87175  44.193  43.301   2.790
18958W        W87176  40.995   9.877   3.910
18959W        W87177  13.727  35.384   0.755
18960W        W87178  28.563  34.409  14.856
18961W        W87179   0.415  16.383   2.211
18962W        W87180  38.320   7.935  14.015
18963W        W87181  11.324   2.990  14.467
18964W        W87182   0.804  27.728  12.861
18965W        W87183  25.461  42.991  13.893
18966W        W87184  40.776   1.020  14.693
18967W        W87185  38.033  42.126   2.887
18968W        W87186  12.714  10.692  12.520
18969W        W87187  13.153   7.423   3.705
18970W        W87188  25.132  40.747  10.621
18971W        W87189  41.550  27.719   2.284
18972W        W87190  18.987  15.329  11.576
18973W        W87191  32.387   0.155   3.170
18974W        W87192  23.065  25.622  13.796
18975W        W87193  43.060  37.503  10.272
18976W        W87194  41.911  17.102  10.801
18977W        W87195  27.231  10.853   0.778
18978W        W87196  27.740   1.283   0.936
18979W        W87197  36.919  27.379   3.348
18980W        W87198  37.064   7.345   3.098
18981W        W87199  35.486  18.243  11.519
18982W        W87200  34.124   4.264  13.728
18983W        W87201   7.203  28.034   4.338
18984W        W87202  30.188  37.545  10.800
18985W        W87203  15.923  25.398  14.281
18986W        W87204  15.026   9.388   3.368
18987W        W87205  15.151  10.868  11.376
18988W        W87206   0.741   4.916   0.291
18989W        W87207  43.699  39.624   4.312
18990W        W87208   3.755  35.549  12.567
18991W        W87209  21.509  41.029   0.116
18992W        W87210  13.171  15.096  13.970
18993W        W87211   2.929  12.311   3.194
18994W        W87212  14.919   8.408  10.631
18995W        W87213  26.240  28.089   4.284
18996W        W87214  25.274  28.697  13.505
18997W        W87215  11.180  19.693   2.124
18998W        W87216  13.531  21.236   0.745
18999W        W87217  10.142  19.110  12.006
19000W        W87218   7.555   6.696   1.391
19001W        W87219   6.896  12.668   0.450
19002W        W87220  18.297  12.557   2.316
19003W        W87221  20.109  17.558   1.549
19004W        W87222  14.564  41.134   0.023
19005W        W87223   5.922  34.034   4.846
19006W        W87224  37.587  32.539  12.088
19007W        W87225  22.942   6.618  13.304
19008W        W87226  43.779  39.704   2.202
19009W        W87227  37.896  23.667  14.615
19010W        W87228  44.922  22.781  10.143
19011W        W87229   4.712  18.337   0.905
19012W        W87230  26.917  11.299   2.270
19013W        W87231  19.626  29.751  12.454
19014W        W87232  22.444  17.340  12.342
19015W        W87233  18.546  22.632  12.071
19016W        W87234  36.413  40.219   1.948
19017W        W87235   9.728   6.528  11.630
19018W        W87236  44.777  43.914  11.435
19019W        W87237  41.778   9.980  14.365
19020W        W87238  32.435  23.039   1.052
19021W        W87239  35.540  29.643  10.264
19022W        W87240  37.906  24.545  14.085
19023W        W87241  39.391  19.692  13.555
19024W        W87242  14.738  41.328  11.166
19025W        W87243  42.980  18.517  14.544
19026W        W87244  28.066  25.229  13.854
19027W        W87245  13.079   0.111  13.905
19028W        W87246  41.292  21.327   3.354
19029W        W87247  31.844  12.258  13.062
19030W        W87248  30.205  41.013   3.743
19031W        W87249  20.203  12.365   1.314
19032W        W87250  27.087  16.885   0.247
19033W        W87251  19.585  41.244  14.711
19034W        W87252  24.313  34.354   3.324
19035W        W87253  29.602  37.988  14.472
19036W        W87254  21.090  27.750   1.843
19037W        W87255   0.106  24.031  13.298
19038W        W87256   7.061  38.069   0.921
19039W        W87257  23.099  14.279  10.663
19040W        W87258   7.321  32.573   4.020
19041W        W87259  13.582  32.524  12.971
19042W        W87260   6.773   2.669   2.368
19043W        W87261  12.323  37.300   5.018
19044W        W87262  30.990   6.453   4.496
19045W        W87263  36.490  38.412  11.988
19046W        W87264  22.117  43.800   2.547
19047W        W87265  33.164   6.814   1.438
19048W        W87266  35.562  22.279   1.461
19049W        W87267  17.717  11.897   2.225
19050W        W87268  26.664  20.792   2.315
19051W        W87269  23.212  15.152   3.054
19052W        W87270  30.375  33.523  12.481
19053W        W87271  22.731  12.586  11.599
19054W        W87272  42.301  32.522   4.335
19055W        W87273   8.158  42.460  13.833
19056W        W87274  24.217   5.751   4.153
19057W        W87275  35.136  11.168   1.769
19058W        W87276  33.091  35.350  12.021
19059W        W87277   5.733  16.702  10.698
19060W        W87278  16.120  37.090  10.741
19061W        W87279   7.124  22.630   0.036
19062W        W87280  10.383  29.783   1.744
19063W        W87281  34.000  22.235  11.918
19064W        W87282  34.633  16.137   2.401
19065W        W87283  18.278  18.051   3.659
19066W        W87284  25.151   6.315  11.635
19067W        W87285   0.540  33.829   1.726
19068W        W87286  13.411  21.764  11.344
19069W        W87287   5.410  32.772  14.511
19070W        W87288  32.999  37.155   1.233
19071W        W87289  10.729  13.084  11.355
19072W        W87290   8.874   3.171   3.274
19073W        W87291   5.129  12.277   0.745
19074W        W87292   9.495  13.737   2.666
19075W        W87293  11.375  22.613  13.805
19076W        W87294  30.155  11.305  12.049
19077W        W87295  11.842  27.397  13.152
19078W        W87296  11.371  17.485   5.345
19079W        W87297  29.454  13.682   1.249
19080W        W87298  22.056  10.936   2.209
19081W        W87299  36.840  22.058  10.700
19082W        W87300  32.604   8.865   4.665
19083W        W87301   9.842  29.447  14.156
19084W        W87302  37.577  35.336  11.160
19085W        W87303  33.025   9.842   0.763
19086W        W87304  31.342  27.582   3.826
19087W        W87305  15.604  27.560   4.566
19088W        W87306   4.187  43.941  13.757
19089W        W87307  22.711  18.726  11.154
19090W        W87308  33.144   9.725   2.306
19091W        W87309  18.244  22.900  11.088
19092W        W87310  23.174  27.958   1.744
19093W        W87311  19.138   5.197   4.166
19094W        W87312   7.238  14.624  12.581
19095W        W87313   8.262  29.398   1.740
19096W        W87314  30.043  39.855   4.280
19097W        W87315   5.194  18.490   4.310
19098W        W87316  29.565  14.846  14.851
19099W        W87317  41.425  20.761  11.606
19100W        W87318  33.112  32.920  11.323
19101W        W87319  44.934  11.364   1.465
19102W        W87320  36.995  37.096   4.239
19103W        W87321  12.945  41.509   0.370
19104W        W87322  43.768  42.776   4.555
19105W        W87323  24.858  22.788   9.703
19106W        W87324  18.077  20.766   1.287
19107W        W87325  35.529  17.549   2.328
19108W        W87326  44.715  21.727  13.010
19109W        W87327  14.858  30.804   1.394
19110W        W87328  38.481  22.687  13.004
19111W        W87329  11.456  11.200  11.159
19112W        W87330  11.580   0.879  11.427
19113W        W87331  32.993  24.027   4.413
19114W        W87332  43.633  19.584   0.856
19115W        W87333  32.760   8.651   4.207
19116W        W87334  30.844  31.940   0.449
19117W        W87335  16.327  18.633   0.897
19118W        W87336  14.228  36.047   0.780
19119W        W87337  44.072  15.670   4.700
19120W        W87338  14.489   7.800   3.744
19121W        W87339   0.760  36.485   2.323
19122W        W87340   4.971  33.511  13.704
19123W        W87341  25.131  35.134  11.707
19124W        W87342  26.977  37.125  14.050
19125W        W87343   7.910  15.251  14.617
19126W        W87344  30.879  42.277  11.569
19127W        W87345  27.051   6.430   4.639
19128W        W87346  15.090  27.507   3.776
19129W        W87347  29.095   3.919  11.410
19130W        W87348  23.805   3.814  13.026
19131W        W87349   2.462  19.529  11.611
19132W        W87350  36.086  39.150   4.627
19133W        W87351   2.860  15.963   0.462
19134W        W87352  43.000  14.383   2.619
19135W        W87353  10.685  18.550  14.025
19136W        W87354  16.810  12.858   1.370
19137W        W87355   6.675  42.028   0.355
19138W        W87356  30.723  31.233   3.397
19139W        W87357  13.242  11.079  12.929
19140W        W87358  15.694  33.915   3.026
19141W        W87359  19.541  28.682  13.536
19142W        W87360  22.340  15.215  13.494
19143W        W87361  31.762  23.476   4.597
19144W        W87362  32.135   2.915  10.996
19145W        W87363   1.849   8.866   4.440
19146W        W87364  16.837  21.281  13.538
19147W        W87365  41.294  29.781  14.548
19148W        W87366  29.566  37.786  12.991
19149W        W87367  32.903  23.935  10.333
19150W        W87368  17.215   7.003   4.125
19151W        W87369  39.863  32.868  10.507
19152W        W87370   9.684  32.579   2.717
19153W        W87371  28.096  29.560  11.085
19154W        W87372  26.230  31.626   3.110
19155W        W87373  12.845  15.694   1.701
19156W        W87374  10.687  34.393  12.946
19157W        W87375  27.417   8.332   0.891
19158W        W87376  43.952  24.905  10.708
19159W        W87377  29.443   3.251  13.392
19160W        W87378  17.119  21.212  11.886
19161W        W87379  26.530  25.027   4.967
19162W        W87380  23.017  34.804  14.448
19163W        W87381  25.482  13.311   3.720
19164W        W87382  28.020  32.151   2.742
19165W        W87383  14.450  24.360  13.481
19166W        W87384  20.958  12.854   3.969
19167W        W87385  28.205  34.614   3.261
19168W        W87386  19.615  13.950   1.343
19169W        W87387   0.454  24.181   3.211
19170W        W87388   7.241   6.201  12.072
19171W        W87389   8.130  24.992  11.521
19172W        W87390  44.734  15.067   3.536
19173W        W87391  38.160  40.579   1.515
19174W        W87392   7.004   8.147  10.701
19175W        W87393  27.077   9.778   4.199
19176W        W87394  21.007  28.134  14.389
19177W        W87395  37.074  19.683  11.423
19178W        W87396  13.918  26.393   1.216
19179W        W87397  33.471  22.009  12.959
19180W        W87398  16.262  44.303  12.173
19181W        W87399  12.866  26.203   3.742
19182W        W87400  44.592  12.530  12.378
19183W        W87401  34.505  32.115   2.348
19184W        W87402  34.340  39.040  14.253
19185W        W87403   0.459   1.765   1.357
19186W        W87404   1.270  32.511   2.788
19187W        W87405   6.653  11.670  12.516
19188W        W87406  18.841  38.653   1.233
19189W        W87407  31.623   2.615   4.553
19190W        W87408   2.967  22.608   4.909
19191W        W87409  12.443  21.216  12.670
19192W        W87410  20.712  38.744  14.017
19193W        W87411  12.938  19.483  13.786
19194W        W87412  12.810  34.137   2.819
19195W        W87413   6.402  21.180  10.756
19196W        W87414  44.437  20.879   0.508
19197W        W87415  13.296  40.621   0.481
19198W        W87416  27.976  18.546  10.814
19199W        W87417   9.589   0.957   3.334
19200W        W87418  11.106  24.458  12.630
19201W        W87419  22.361  16.729  11.662
19202W        W87420  23.863   0.839   2.857
19203W        W87421  12.479   6.846  12.136
19204W        W87422   2.359   7.581   1.885
19205W        W87423   1.378  24.150  13.893
19206W        W87424  34.680  36.817   4.089
19207W        W87425  27.537  26.853   0.917
19208W        W87426  14.341  28.537   1.631
19209W        W87427  26.189   8.184   2.017
19210W        W87428  20.023  37.270  11.096
19211W        W87429  23.773  42.746  14.468
19212W        W87430  32.390  24.872   1.672
19213W        W87431  35.940  27.009   0.706
19214W        W87432  33.681  38.679  11.724
19215W        W87433  23.964  10.144  13.371
19216W        W87434  19.418  21.223  14.846
19217W        W87435  21.201  34.051   2.591
19218W        W87436  36.901  20.684   3.807
19219W        W87437  18.593  39.561   2.979
19220W        W87438  15.689  28.681  14.695
19221W        W87439  33.066  23.913   2.283
19222W        W87440  11.478  10.656  11.652
19223W        W87441  23.168  11.836  13.570
19224W        W87442  31.106  26.642  11.216
19225W        W87443  10.107  14.199   1.309
19226W        W87444  41.357   2.056  11.515
19227W        W87445  41.073  34.591  14.328
19228W        W87446  18.401  12.961   4.518
19229W        W87447  44.307  14.194   3.078
19230W        W87448  13.186  18.582   4.162
19231W        W87449  30.091  23.790   4.573
19232W        W87450  23.496  22.206  13.808
19233W        W87451  38.232  32.408   0.888
19234W        W87452  35.117  43.428  13.058
19235W        W87453  26.463  22.816  11.212
19236W        W87454  44.269  25.682  12.055
19237W        W87455  43.317   5.844  10.784
19238W        W87456  33.993  15.826   3.703
19239W        W87457  19.020  27.231  12.555
19240W        W87458  23.211  17.192   2.173
19241W        W87459  44.194  15.241  12.803
19242W        W87460  18.588  14.066   2.183
19243W        W87461  41.837  37.569   0.758
19244W        W87462  27.185  41.332  11.190
19245W        W87463  35.832  39.395  12.841
19246W        W87464  21.646  42.743   3.184
19247W        W87465  32.369  10.907  11.565
19248W        W87466   4.222  31.390  12.014
19249W        W87467  27.145  38.912   9.993
19250W        W87468  29.469  14.234  14.798
19251W        W87469  11.316   6.380   3.832
19252W        W87470   3.697   1.693  11.493
19253W        W87471  31.209   2.195   0.294
19254W        W87472  17.628   8.306   2.085
19255W        W87473  32.449  35.580  11.939
19256W        W87474  15.004  24.192   1.315
19257W        W87475  33.006  31.689   1.890
19258W        W87476  27.199  35.365   3.177
19259W        W87477  43.621  41.538   0.469
19260W        W87478  37.520  25.105   1.889
19261W        W87479  32.340   5.896  12.836
19262W        W87480  33.426   0.896   1.161
19263W        W87481  43.424   9.211  11.917
19264W        W87482  18.908  13.865   2.616
19265W        W87483  28.921  29.465  13.952
19266W        W87484  23.175   2.851   2.694
19267W        W87485  28.912  38.462  14.846
19268W        W87486  39.877   7.137  11.541
19269W        W87487   3.211   9.793   2.425
19270W        W87488  10.811  17.170   4.084
19271W        W87489   6.443  37.920  12.165
19272W        W87490  11.593  41.493   2.677
19273W        W87491  38.825  30.452   4.168
19274W        W87492  16.694  36.623  12.542
19275W        W87493   1.012  40.101  12.906
19276W        W87494  12.218  25.258  14.253
19277W        W87495  40.735  23.053  14.236
19278W        W87496  20.186  43.104  10.233
19279W        W87497  28.817  23.219   3.487
19280W        W87498  21.344  34.939   2.782
19281W        W87499  23.637   1.202   0.630
19282W        W87500  20.351   6.294   4.530
19283W        W87501  12.126  14.769  13.541
19284W        W87502  33.713  42.912   0.806
19285W        W87503   9.188  10.738   4.095
19286W        W87504   1.828  32.566   4.801
19287W        W87505  24.969  14.709  11.070
19288W        W87506  34.488  16.553   1.599
19289W        W87507  12.679  35.531  14.523
19290W        W87508  39.538  17.273   0.754
19291W        W87509  32.982  30.096  13.492
19292W        W87510  21.758  14.173   1.186
19293W        W87511  14.156  25.323  13.314
19294W        W87512  14.824  15.153   3.238
19295W        W87513  21.755  35.104  13.883
19296W        W87514  18.144  28.127  14.666
19297W        W87515  11.620   6.207   2.803
19298W        W87516   2.245  32.635  11.232
19299W        W87517  39.890  13.645   2.315
19300W        W87518  35.935  43.892   3.335
19301W        W87519  27.539  28.357   0.797
19302W        W87520  41.833  41.917   1.036
19303W        W87521  44.942  41.696   1.448
19304W        W87522  19.757  15.338  11.198
19305W        W87523  32.597  36.014   4.490
19306W        W87524  12.826  25.538  10.799
19307W        W87525   8.614   7.717  10.860
19308W        W87526  30.129   1.392   0.320
19309W        W87527   1.408  32.076  11.056
19310W        W87528  42.646  28.147  14.777
19311W        W87529  32.389  37.647  12.058
19312W        W87530   5.142  17.687   1.166
19313W        W87531   0.824  30.123  12.480
19314W        W87532   6.652  39.437   1.746
19315W        W87533  10.834  25.664  14.586
19316W        W87534  21.272  26.046   0.495
19317W        W87535  10.294  19.023   3.292
19318W        W87536  24.289  12.174  12.110
19319W        W87537  11.118  20.145   2.377
19320W        W87538  22.069  13.484  10.675
19321W        W87539  16.674  22.189   4.736
19322W        W87540   2.351  35.532   0.741
19323W        W87541  12.153  39.072  14.288
19324W        W87542  18.426  13.802   2.811
19325W        W87543  15.974  29.391  13.011
19326W        W87544  31.152  43.468   0.193
19327W        W87545  33.860   2.482   3.716
19328W        W87546  28.583   9.177   3.911
19329W        W87547  39.111  24.947   4.167
19330W        W87548  24.178  32.304   3.358
19331W        W87549  34.529  13.658   0.349
19332W        W87550  28.607  34.262  13.054
19333W        W87551   6.969  25.214   1.700
19334W        W87552  22.250  31.343   4.546
19335W        W87553   1.424  28.922  11.955
19336W        W87554  35.371  41.324  14.400
19337W        W87555  37.892  19.327  14.718
19338W        W87556   2.909  40.307   4.138
19339W        W87557  34.768  40.124  10.340
19340W        W87558  34.622   6.367  13.191
19341W        W87559  30.053  14.264   0.955
19342W        W87560  44.965  18.147   3.717
19343W        W87561  26.168  12.127   4.844
19344W        W87562   9.868   3.997   4.737
19345W        W87563  16.578   1.423   2.272
19346W        W87564   4.388   4.613  14.092
19347W        W87565  31.948  37.614   1.625
19348W        W87566  16.180  39.779   0.895
19349W        W87567  29.310  12.248  10.629
19350W        W87568  16.071  33.436   1.663
19351W        W87569  14.539  40.795   4.510
19352W        W87570  37.931  44.158  13.504
19353W        W87571  14.819   5.288   3.617
19354W        W87572   0.263  14.315  11.088
19355W        W87573   6.038   2.233  14.682
19356W        W87574  34.878  12.383   1.818
19357W        W87575   9.639  28.151   1.221
19358W        W87576  25.122  12.273   4.879
19359W        W87577  20.224  23.184  12.925
19360W        W87578  27.922  17.293   1.864
19361W        W87579   1.473  27.099  10.784
19362W        W87580  38.903  29.411   3.149
19363W        W87581  15.380  29.713   2.439
19364W        W87582  18.549  21.115  14.453
19365W        W87583  12.768  20.153  14.551
19366W        W87584  43.940  33.937  12.341
19367W        W87585   9.664  35.881  12.645
19368W        W87586  35.985   0.387  12.911
19369W        W87587  43.545  39.532   1.437
19370W        W87588  37.857  10.959   4.433
19371W        W87589  40.526  18.156   3.601
19372W        W87590  41.544   8.309  11.613
19373W        W87591  33.975  27.666  13.476
19374W        W87592  23.267  39.946  11.510
19375W        W87593  43.794  24.520  14.617
19376W        W87594  30.939   2.436   4.108
19377W        W87595  28.160  19.090   2.145
19378W        W87596  35.067  16.998   3.204
19379W        W87597  33.337   4.392   2.775
19380W        W87598  35.143  25.205   2.363
19381W        W87599  31.588  42.991   3.691
19382W        W87600  32.434  23.911  14.902
19383W        W87601  38.401  17.503  12.705
19384W        W87602  30.394  43.496  12.669
19385W        W87603  18.349   1.402  14.589
19386W        W87604   9.124   4.736   3.872
19387W        W87605   5.334  31.794  11.983
19388W        W87606  22.921  28.596   0.503
19389W        W87607  22.466  27.938   0.335
19390W        W87608   1.259  24.599  13.609
19391W        W87609   8.380  37.655  13.498
19392W        W87610  16.187  28.828  12.390
19393W        W87611   9.886   9.086   1.886
19394W        W87612  24.977  17.038  10.729
19395W        W87613  10.592   0.362  13.460
19396W        W87614  14.510  17.719  13.417
19397W        W87615  44.284  43.190  11.397
19398W        W87616  39.415  25.865   3.669
19399W        W87617   4.030  15.568   1.082
19400W        W87618  28.529   5.804   4.851
19401W        W87619  26.727   6.942  11.077
19402W        W87620  21.818   3.712  13.652
19403W        W87621  29.956  32.887  13.855
19404W        W87622  18.554  15.890  10.198
19405W        W87623  20.516  44.301  14.401
19406W        W87624  28.910  13.386  11.549
19407W        W87625   4.236  21.246  11.063
19408W        W87626   5.854  31.750   0.227
19409W        W87627  44.014  22.202   3.773
19410W        W87628   2.171  42.015  13.836
19411W        W87629  36.466  16.035  11.839
19412W        W87630  30.454   3.436  11.508
19413W        W87631   0.331  37.357   1.394
19414W        W87632  28.911  21.563  13.432
19415W        W87633   4.471  12.308   4.113
19416W        W87634  40.022  38.705   1.110
19417W        W87635  24.512   2.077  12.150
19418W        W87636  31.536  25.724   1.673
19419W        W87637   3.421   0.367   3.772
19420W        W87638  30.397  28.395  12.373
19421W        W87639  41.183  22.474  14.997
19422W        W87640  40.626   2.413  10.078
19423W        W87641  39.838  42.514  13.867
19424W        W87642  10.033   5.221  12.436
19425W        W87643  11.448  36.716  11.030
19426W        W87644  17.262   7.983   4.073
19427W        W87645   7.835   0.283   3.321
19428W        W87646  36.927   6.496  10.408
19429W        W87647  33.903  24.596  10.953
19430W        W87648   4.769  24.724   0.266
19431W        W87649   9.509  30.559  10.629
19432W        W87650  40.491   0.580   2.844
19433W        W87651  38.378  33.416  11.119
19434W        W87652  36.542  12.479  12.534
19435W        W87653  11.792  23.115  13.906
19436W        W87654  10.562  28.447   3.689
19437W        W87655  27.213  42.061  11.579
19438W        W87656  36.546   1.464  12.136
19439W        W87657  39.746   7.472  11.956
19440W        W87658  34.328   3.533   1.970
19441W        W87659  12.563  30.699  12.090
19442W        W87660  33.466   8.698   4.993
19443W        W87661  39.941  28.121   3.690
19444W        W87662  41.487   5.937   0.295
19445W        W87663   3.699  21.049  10.533
19446W        W87664  28.727  32.934  13.628
19447W        W87665  10.957  29.188  13.471
19448W        W87666  24.240   6.582   1.793
19449W        W87667   1.746  20.571   1.920
19450W        W87668  33.142  25.716  13.463
19451W        W87669   5.361   9.845   1.256
19452W        W87670  41.546  30.540  14.109
19453W        W87671  15.637  43.056   1.496
19454W        W87672  26.659  28.137   2.370
19455W        W87673  34.924  34.980  14.788
19456W        W87674  17.610  40.376   4.426
19457W        W87675   9.477  16.571   0.011
19458W        W87676  25.690  44.931  13.030
19459W        W87677  13.913  17.307   0.899
19460W        W87678  40.568  20.506   0.239
19461W        W87679  36.603  10.175  14.360
19462W        W87680  27.127  15.539   2.661
19463W        W87681  25.210  44.829  10.661
19464W        W87682  39.955  22.686  12.092
19465W        W87683  29.868  30.914   0.198
19466W        W87684  30.977  35.614   0.566
19467W        W87685  39.071   4.501   3.374
19468W        W87686  18.292  28.657  11.529
19469W        W87687  29.560  40.506   1.858
19470W        W87688  41.428  19.081   1.289
19471W        W87689   2.753   4.639  14.033
19472W        W87690  25.877  31.718   4.183
19473W        W87691   4.707  34.821  14.811
19474W        W87692   3.712  40.610   0.533
19475W        W87693  32.277  19.189   3.629
19476W        W87694  33.476   7.145  12.182
19477W        W87695   1.732   1.717   3.225
19478W        W87696  22.503   2.449  12.068
19479W        W87697  36.621  25.111  14.839
19480W        W87698  19.284  17.509   1.784
19481W        W87699   9.125  24.670   0.337
19482W        W87700  13.472  23.275  14.700
19483W        W87701  29.871  15.258   2.383
19484W        W87702  17.789  15.183   4.075
19485W        W87703  35.914   0.790   0.928
19486W        W87704  17.092   1.978   4.556
19487W        W87705   2.097  43.585  13.030
19488W        W87706   6.959  28.237   1.882
19489W        W87707   6.793  20.679   2.629
19490W        W87708  14.648  11.823   1.302
19491W        W87709   9.619  37.833   1.860
19492W        W87710  26.769  18.735  14.211
19493W        W87711  31.915  44.130  12.224
19494W        W87712  24.903  12.206   2.267
19495W        W87713  23.253   0.764   3.973
19496W        W87714   6.374  38.126   3.171
19497W        W87715  13.231  37.841   2.250
19498W        W87716  14.158   3.171  13.516
19499W        W87717  42.446   9.125  12.205
19500W        W87718  31.184  11.911  11.431
19501W        W87719  17.174   4.982  14.847
19502W        W87720  31.656  21.983   3.647
19503W        W87721  16.567   2.492  12.549
19504W        W87722  36.684   9.622  13.429
19505W        W87723  29.441  41.010  11.660
19506W        W87724  44.005  31.561  14.543
19507W        W87725  31.181  27.242  10.729
19508W        W87726  32.991  26.383   5.212
19509W        W87727  25.755  20.058  14.259
19510W        W87728  42.346  24.018  10.708
19511W        W87729  43.357   5.265   0.988
19512W        W87730  42.851  15.880   3.288
19513W        W87731  38.868  34.079   2.889
19514W        W87732  39.111  39.845   4.159
19515W        W87733  15.218  13.580  11.952
19516W        W87734  23.689   6.841  12.738
19517W        W87735   2.697  39.292   4.144
19518W        W87736  14.841  24.543  12.509
19519W        W87737  28.916  18.038   3.823
19520W        W87738  34.142   5.898  12.451
19521W        W87739  20.474  15.057   1.965
19522W        W87740  36.022   4.185   0.953
19523W        W87741  28.413  38.027   4.822
19524W        W87742  41.707  25.725   1.844
19525W        W87743  14.121  32.544   4.012
19526W        W87744  42.320  31.602   3.693
19527W        W87745  25.775  42.298  14.323
19528W        W87746  33.005  29.447  12.758
19529W        W87747  14.807  30.674   3.658
19530W        W87748  16.696  10.667   0.239
19531W        W87749  30.202  22.702   2.050
19532W        W87750   4.022  25.730  10.784
19533W        W87751   7.385   7.998   0.283
19534W        W87752  18.163  44.211  13.121
19535W        W87753  12.399  23.111   0.435
19536W        W87754  34.567   8.787   0.003
19537W        W87755  35.572  37.825   0.944
19538W        W87756  34.598  29.566   2.393
19539W        W87757   3.734   1.355  14.550
19540W        W87758  13.066  24.115  11.722
19541W        W87759  17.663  36.748   2.196
19542W        W87760  26.082   2.482   0.279
19543W        W87761  23.647  19.343   0.007
19544W        W87762   5.324  15.689   4.192
19545W        W87763   7.732  44.816   2.873
19546W        W87764  14.820  28.983   4.476
19547W        W87765  36.073  15.815   0.879
19548W        W87766   0.967   6.866   4.327
19549W        W87767  14.698  42.720   5.591
19550W        W87768  26.425  39.224  12.546
19551W        W87769  26.385   2.399   1.914
19552W        W87770  30.674   1.470   2.797
19553W        W87771   8.242  40.322  13.292
19554W        W87772   4.399  38.624   3.654
19555W        W87773  41.436  43.431  10.955
19556W        W87774   7.638  38.355   1.400
19557W        W87775  42.786   7.898   3.168
19558W        W87776  27.332  21.071  10.359
19559W        W87777  23.588   3.358  12.115
19560W        W87778  25.376  20.070  14.614
19561W        W87779  21.757  25.241   4.374
19562W        W87780  23.665  33.632   0.775
19563W        W87781  13.412  39.396   2.325
19564W        W87782  35.325  35.384  13.069
19565W        W87783   1.432  33.450   1.228
19566W        W87784   4.145   3.344  12.013
19567W        W87785  13.135  28.465  14.473
19568W        W87786  38.030  10.381  13.006
19569W        W87787   8.311  12.484  10.741
19570W        W87788  19.568  19.829   0.468
19571W        W87789  25.458  40.377  13.160
19572W        W87790  44.354  37.325  12.459
19573W        W87791   1.504  38.661   4.103
19574W        W87792  12.711  23.245   3.659
19575W        W87793  17.701  31.616   1.180
19576W        W87794  34.462  27.173   0.219
19577W        W87795  39.982  40.554   1.222
19578W        W87796  20.592   6.483  11.193
19579W        W87797  11.206   6.732  14.211
19580W        W87798  18.609  37.439  11.025
19581W        W87799   8.863  44.399  13.306
19582W        W87800  27.615  24.092   3.280
19583W        W87801   1.911  24.275   1.771
19584W        W87802  35.819  40.994  14.486
19585W        W87803  11.336  27.370   0.288
19586W        W87804  35.016  13.834   1.437
19587W        W87805  36.028  43.527  12.748
19588W        W87806  13.820  25.564   2.187
19589W        W87807   1.490  30.876   0.383
19590W        W87808  29.491  27.242  11.023
19591W        W87809  44.374  25.976   1.782
19592W        W87810  26.187  33.782   0.907
19593W        W87811  21.010  41.773  13.855
19594W        W87812  30.986  16.626  12.578
19595W        W87813   8.297  20.569   4.354
19596W        W87814  18.215  33.613   4.640
19597W        W87815   9.827  25.442  12.471
19598W        W87816  41.497  13.389  14.243
19599W        W87817  44.796  29.979   4.363
19600W        W87818   8.869  34.523  11.523
19601W        W87819  12.858  15.318   4.206
19602W        W87820  24.469  26.647  10.297
19603W        W87821   6.348   7.897  11.603
19604W        W87822  18.224  13.155   3.237
19605W        W87823   5.227  39.985  12.074
19606W        W87824   8.162   1.949   4.323
19607W        W87825   2.950   2.938   3.960
19608W        W87826  35.005  13.938   4.875
19609W        W87827  33.768  15.307  14.565
19610W        W87828  26.865  36.145   2.795
19611W        W87829  29.535  31.089   0.927
19612W        W87830  13.777  41.270   0.394
19613W        W87831   7.889   2.793   1.171
19614W        W87832   3.374  26.475  14.843
19615W        W87833  43.458  27.179   2.495
19616W        W87834  11.469  32.807   4.150
19617W        W87835  15.294   3.642  12.576
19618W        W87836   9.098  19.726   0.127
19619W        W87837  28.085  26.422   9.845
19620W        W87838  44.985   0.708  11.157
19621W        W87839   1.831   5.770  13.812
19622W        W87840   0.908  37.791  10.956
19623W        W87841   7.648  22.324  11.036
19624W        W87842  30.876  44.915   0.889
19625W        W87843  17.084  39.113  14.215
19626W        W87844  10.561  33.434   3.325
19627W        W87845   1.927  30.658   3.623
19628W        W87846  33.137  44.550   3.539
19629W        W87847  10.147  26.151   1.351
19630W        W87848  31.110  20.050  13.895
19631W        W87849   9.707   3.238   3.235
19632W        W87850   5.381  40.428   3.744
19633W        W87851   0.398  34.043  11.110
19634W        W87852  26.990  37.450   1.941
19635W        W87853   9.083  25.371  11.108
19636W        W87854   2.828  38.924   2.724
19637W        W87855   2.808  37.621   0.858
19638W        W87856  26.795  11.211  13.916
19639W        W87857  21.025   1.094  11.175
19640W        W87858  40.846   6.360   2.328
19641W        W87859   8.331  36.432  13.531
19642W        W87860  39.280  33.595  12.519
19643W        W87861  42.400  39.018   1.229
19644W        W87862  30.903  44.599   3.153
19645W        W87863   5.027  41.913  12.862
19646W        W87864  39.115  38.799  11.039
19647W        W87865  32.270  19.608   9.660
19648W        W87866   3.693  41.843   0.299
19649W        W87867  14.351  15.113   0.913
19650W        W87868  16.435  29.629   4.157
19651W        W87869  18.200  18.769   1.458
19652W        W87870   3.942   1.775   4.129
19653W        W87871  33.907  23.123   1.432
19654W        W87872  15.539  38.741  14.046
19655W        W87873  13.422  25.617   0.779
19656W        W87874  22.516  15.663  14.772
19657W        W87875  13.157   1.768   4.109
19658W        W87876  31.069  16.886  10.677
19659W        W87877  12.289   1.327  12.632
19660W        W87878   6.453  19.336  11.087
19661W        W87879  31.638  43.943   4.348
19662W        W87880  14.576   1.875   4.129
19663W        W87881  14.030  37.027  10.785
19664W        W87882  43.433  19.706   2.710
19665W        W87883  24.907  23.406   0.003
19666W        W87884  18.210  44.357   2.261
19667W        W87885  16.724  30.863  10.708
19668W        W87886  37.468  19.524   1.353
19669W        W87887  28.943  25.262  12.431
19670W        W87888  15.704  36.437  11.065
19671W        W87889  13.326  12.173   2.772
19672W        W87890   9.920  14.796   1.954
19673W        W87891  30.178  30.296   1.818
19674W        W87892   0.883   9.401   3.355
19675W        W87893   5.998  25.135   2.835
19676W        W87894  26.999   5.120  14.294
19677W        W87895  24.556  36.347   3.758
19678W        W87896  33.373  20.076  13.010
19679W        W87897  12.358   4.200   2.337
19680W        W87898  35.688  18.583  13.089
19681W        W87899  16.088  33.567  10.688
19682W        W87900  16.993  36.598   4.081
19683W        W87901   5.352  28.122  13.956
19684W        W87902  43.480   1.172   1.828
19685W        W87903  41.437   9.880   3.237
19686W        W87904  17.633  10.165   2.242
19687W        W87905  15.209  10.147  12.925
19688W        W87906  28.148  34.268   2.351
19689W        W87907  22.996  11.068   0.213
19690W        W87908  24.310  43.216  11.318
19691W        W87909  34.020  36.455  13.306
19692W        W87910   5.182  37.059   0.578
19693W        W87911   9.690  25.442   1.631
19694W        W87912  30.606   7.226   0.413
19695W        W87913  14.046  10.795  10.708
19696W        W87914  43.234  19.462  12.122
19697W        W87915  42.975  20.632  14.951
19698W        W87916   2.271  29.033   2.185
19699W        W87917  11.154  10.270  12.991
19700W        W87918  18.907  36.870   2.318
19701W        W87919  16.397  21.995  13.508
19702W        W87920   7.661  24.461  13.965
19703W        W87921  22.403  25.468   2.413
19704W        W87922  36.593  35.953   3.352
19705W        W87923  35.066  21.524   3.523
19706W        W87924  38.589   0.729  12.588
19707W        W87925   4.423  26.413   1.304
19708W        W87926  19.572   1.505   1.753
19709W        W87927  36.530  18.855   3.280
19710W        W87928  28.137  44.387   1.280
19711W        W87929   8.156  37.937  12.844
19712W        W87930  14.634  28.203  11.133
19713W        W87931  44.059   7.445  12.189
19714W        W87932  28.901  17.201   3.603
19715W        W87933   2.297  44.828   1.299
19716W        W87934  27.558  28.647  10.736
19717W        W87935  16.608  43.225   0.730
19718W        W87936   1.026  19.621  12.408
19719W        W87937  39.772  28.649  12.968
19720W        W87938   4.162  26.026   3.879
19721W        W87939  15.246  22.519   3.823
19722W        W87940  40.824  13.330  14.914
19723W        W87941   8.365  24.430  10.714
19724W        W87942  28.918  10.180   3.667
19725W        W87943  43.137  28.192   5.078
19726W        W87944   4.690  24.031  14.016
19727W        W87945  24.080  14.395  11.612
19728W        W87946  44.958   4.551   3.618
19729W        W87947  20.020  34.859   0.997
19730W        W87948  11.340  22.788  10.749
19731W        W87949  23.953  14.777  14.730
19732W        W87950  16.228   1.965   4.980
19733W        W87951  24.232  22.928  10.220
19734W        W87952  42.183  33.030  11.142
19735W        W87953   6.348   6.385  11.758
19736W        W87954  41.832  38.548   2.781
19737W        W87955  38.440  32.983   3.674
19738W        W87956  14.622  16.634   1.826
19739W        W87957  23.647  25.073   3.580
19740W        W87958   5.018  29.850  12.524
19741W        W87959   8.819  32.118  10.567
19742W        W87960   0.276  27.169   0.683
19743W        W87961  17.634   6.236   0.730
19744W        W87962   8.331  26.155   1.751
19745W        W87963  17.034   8.683  11.148
19746W        W87964  11.098  15.817  12.099
19747W        W87965  23.716  20.626   2.678
19748W        W87966  35.019  35.563   2.314
19749W        W87967  18.423  16.326   1.746
19750W        W87968  20.592  18.512   2.839
19751W        W87969  32.029  37.996   1.993
19752W        W87970  44.692  17.099  10.237
19753W        W87971  22.902  41.496  13.903
19754W        W87972  16.139  28.171  11.185
19755W        W87973  16.698  29.978  13.539
19756W        W87974  33.260  25.427   3.751
19757W        W87975   8.179  43.527   4.394
19758W        W87976  27.179  36.918   4.856
19759W        W87977  36.652   7.235   4.166
19760W        W87978  26.544   9.743  10.656
19761W        W87979  17.783  11.141   0.936
19762W        W87980   7.155  27.962   3.825
19763W        W87981  34.207  19.530  13.617
19764W        W87982  38.213   0.301   1.422
19765W        W87983  21.182  16.425   4.690
19766W        W87984  30.956   5.398  14.987
19767W        W87985  21.500  24.650  12.822
19768W        W87986  21.694  23.697  10.763
19769W        W87987  18.118  36.346  13.478
19770W        W87988  10.475  28.410   0.599
19771W        W87989  13.606  42.151   0.351
19772W        W87990  32.923  41.890   3.436
19773W        W87991  44.897  30.824   4.552
19774W        W87992  32.249  33.720  13.567
19775W        W87993  33.892  24.190   3.886
19776W        W87994  21.514   6.964  13.893
19777W        W87995   5.512  42.845  11.914
19778W        W87996   4.678   0.130   3.590
19779W        W87997  28.842  16.211  14.856
19780W        W87998  39.036   0.384   2.133
19781W        W87999  17.632  21.294   4.615
19782W        W88000  20.591  22.205   4.570
19783W        W88001   4.929  38.441  12.986
19784W        W88002  14.841  38.214  12.556
19785W        W88003   1.780  29.551  13.841
19786W        W88004  41.867  29.577  10.724
19787W        W88005  20.442  14.794   5.055
19788W        W88006   4.851   6.942   0.385
19789W        W88007  38.532  13.815  14.859
19790W        W88008  10.217  14.705   3.725
19791W        W88009  18.776   3.792  13.111
19792W        W88010   3.043  39.534  13.735
19793W        W88011  39.812   4.991  12.296
19794W        W88012   0.826  34.513   2.089
19795W        W88013  27.636   8.334   1.899
19796W        W88014  38.472  34.729  11.506
19797W        W88015   0.217  18.553  11.166
19798W        W88016  30.551  42.094   4.216
19799W        W88017  30.673  30.062   1.876
19800W        W88018   1.357  32.028   1.193
19801W        W88019  41.433  34.840  12.400
19802W        W88020  11.439   4.866   1.754
19803W        W88021  29.418  24.212   0.051
19804W        W88022  25.007  30.991  12.612
19805W        W88023   5.302  20.024   3.601
19806W        W88024  27.260   8.903  12.671
19807W        W88025  11.809  17.086  13.868
19808W        W88026  30.479  38.795   0.753
19809W        W88027   4.863  20.705   1.834
19810W        W88028  22.627  25.657   4.460
19811W        W88029  38.909  43.427  10.669
19812W        W88030   6.305  27.666   0.483
19813W        W88031  27.042  33.914   4.383
19814W        W88032   2.429   8.234   3.936
19815W        W88033  40.768  14.779  12.522
19816W        W88034   6.561  38.432  11.386
19817W        W88035  21.247  14.296   3.660
19818W        W88036  38.030  15.672  11.001
19819W        W88037  21.304  14.756  11.531
19820W        W88038  33.055  37.523  14.473
19821W        W88039  37.500  15.136   9.974
19822W        W88040  21.781   5.775   1.369
19823W        W88041  24.004  39.775   0.400
19824W        W88042  32.808  44.486   1.371
19825W        W88043  38.566  43.854   4.520
19826W        W88044  10.758  31.893  10.465
19827W        W88045  36.849   4.730   1.774
19828W        W88046  43.908   4.240   0.283
19829W        W88047   0.468  38.859  12.476
19830W        W88048  31.973  22.133   0.730
19831W        W88049  43.881  25.668   3.532
19832W        W88050  31.522  22.236  14.972
19833W        W88051  33.938   7.440   2.177
19834W        W88052  38.295  37.132  12.403
19835W        W88053  10.366  10.422   2.614
19836W        W88054  33.044  24.426   3.562
19837W        W88055  18.807  32.500  13.565
19838W        W88056  35.867  42.296   3.216
19839W        W88057  26.011   5.285   1.065
19840W        W88058  44.961  34.641  12.910
19841W        W88059  15.458  26.119  11.688
19842W        W88060  27.901  28.473   4.678
19843W        W88061  30.714  35.016   0.405
19844W        W88062  26.841  12.798   1.483
19845W        W88063  38.815  33.778  14.268
19846W        W88064  40.426   6.990   1.719
19847W        W88065   6.168  33.053  13.086
19848W        W88066   7.739  24.203  12.500
19849W        W88067   3.976   2.552   0.861
19850W        W88068  39.488  27.467   2.122
19851W        W88069  26.772  23.498  12.924
19852W        W88070   9.348  20.427   1.332
19853W        W88071   2.368   4.197  13.531
19854W        W88072  31.070   0.452   0.897
19855W        W88073  39.261   0.960   4.079
19856W        W88074  22.997  20.650   0.429
19857W        W88075  40.217  34.840   2.844
19858W        W88076   4.835  33.177  11.120
19859W        W88077  36.002   5.860  12.555
19860W        W88078  18.164  16.524   3.736
19861W        W88079   3.747  26.753  10.332
19862W        W88080   0.158  24.734  14.159
19863W        W88081  26.054  19.784  13.010
19864W        W88082  39.062   0.576  11.660
19865W        W88083   4.984  17.096   1.160
19866W        W88084  20.612  18.653   3.668
19867W        W88085  25.980  34.754   1.168
19868W        W88086  23.229   9.728   0.844
19869W        W88087  17.101  44.879  14.284
19870W        W88088  22.784  36.907  13.947
19871W        W88089  25.371  26.553  10.561
19872W        W88090   2.262  41.057   0.392
19873W        W88091  23.741  40.737   3.605
19874W        W88092   2.883  14.103  10.798
19875W        W88093  34.003  24.618  12.513
19876W        W88094  27.464  36.577   1.517
19877W        W88095  10.674   7.401   4.019
19878W        W88096  26.031   9.419   0.412
19879W        W88097  17.377  20.543  14.741
19880W        W88098  21.256   4.509  12.779
19881W        W88099  35.447  17.729   2.807
19882W        W88100  34.940  33.427   0.552
19883W        W88101  43.045   4.681  11.114
19884W        W88102  18.450  25.716  11.284
19885W        W88103  13.983  17.693  10.685
19886W        W88104   1.523   5.198  14.892
19887W        W88105  36.463   0.935  13.570
19888W        W88106  33.028  21.000  11.863
19889W        W88107   3.843  43.517   1.017
19890W        W88108  40.879  30.090  13.562
19891W        W88109  21.325  21.058   4.132
19892W        W88110  24.524  21.097  10.321
19893W        W88111  31.994  21.592   4.614
19894W        W88112   1.731  37.867  13.543
19895W        W88113  39.316   4.220   1.742
19896W        W88114  41.311  20.078   1.257
19897W        W88115  44.232  36.846  11.496
19898W        W88116  35.454  38.384  13.426
19899W        W88117  20.957  36.018  11.104
19900W        W88118  41.270  18.178   1.463
19901W        W88119  33.935  12.685  14.060
19902W        W88120  42.597  20.098  12.478
19903W        W88121  40.564   0.280   4.142
19904W        W88122   7.887  37.497  13.493
19905W        W88123  10.559  20.504  14.377
19906W        W88124  16.922  26.652   3.798
19907W        W88125  32.954  30.969   2.794
19908W        W88126   0.078   7.829   1.407
19909W        W88127   5.861  25.982  11.122
19910W        W88128  15.840   3.192   1.815
19911W        W88129  43.830   6.974   2.299
19912W        W88130  29.196   5.809  13.848
19913W        W88131  37.177  16.809   3.532
19914W        W88132   7.229  31.757  14.366
19915W        W88133  44.869  26.442   2.642
19916W        W88134  21.127  21.865   1.164
19917W        W88135  27.943   1.447   4.370
19918W        W88136  27.269  13.773  11.035
19919W        W88137  37.847   5.472  14.929
19920W        W88138  19.187  44.051  14.450
19921W        W88139   8.732  30.203   4.253
19922W        W88140  36.802  17.089   1.042
19923W        W88141  40.986  11.137   1.934
19924W        W88142   7.561  34.122   3.250
19925W        W88143  12.108  14.533   0.727
19926W        W88144  31.163  32.388  12.525
19927W        W88145  13.817   4.100  12.365
19928W        W88146  36.549  15.025   3.105
19929W        W88147  13.032  27.039   3.495
19930W        W88148  21.329  29.387   4.331
19931W        W88149  23.765   5.498   3.717
19932W        W88150  17.190  17.693  14.331
19933W        W88151  14.785  41.802  11.401
19934W        W88152  22.303  14.409  11.489
19935W        W88153  12.107  12.234  12.244
19936W        W88154   1.440  15.665  12.340
19937W        W88155   4.278  27.691   1.325
19938W        W88156   1.243  25.971  14.081
19939W        W88157   1.849  12.252  12.610
19940W        W88158  19.616  40.577   4.111
19941W        W88159  36.577  26.731   3.017
19942W        W88160  33.830  24.511  13.001
19943W        W88161  39.583  15.180  11.485
19944W        W88162   5.793  17.376   3.320
19945W        W88163  38.785  22.522   0.746
19946W        W88164  10.884  37.417  10.915
19947W        W88165  14.965  40.322  14.173
19948W        W88166  22.770  14.436   3.783
19949W        W88167  16.490   9.026   0.972
19950W        W88168  16.350  26.105   2.708
19951W        W88169  31.582  31.955   0.799
19952W        W88170  12.693   9.185  10.905
19953W        W88171  15.308  31.099   1.410
19954W        W88172   1.722  43.385  11.706
19955W        W88173  40.853  42.056  10.797
19956W        W88174   3.033  36.235  14.692
19957W        W88175  14.641  23.655  12.066
19958W        W88176   0.681  27.811   0.014
19959W        W88177  16.282  32.085  11.661
19960W        W88178  27.532   5.404  11.575
19961W        W88179   5.144   6.189   3.896
19962W        W88180   5.279  20.493  14.426
19963W        W88181  16.751   5.724  13.905
19964W        W88182  25.523  30.838  13.162
19965W        W88183  15.616  23.036  10.740
19966W        W88184  27.991  42.312   0.787
19967W        W88185  37.032   6.233  11.629
19968W        W88186  24.665  21.162  11.621
19969W        W88187  35.087  11.089  12.183
19970W        W88188   9.244  27.649   3.833
19971W        W88189  30.702  14.585  13.792
19972W        W88190  29.560  13.747  13.797
19973W        W88191   0.002   0.980  11.593
19974W        W88192   9.868  20.982  11.165
19975W        W88193  22.584   8.176   4.725
19976W        W88194  21.009  12.353   3.134
19977W        W88195  21.191  17.103  13.087
19978W        W88196  38.089   7.310  13.361
19979W        W88197  12.744   7.927  13.007
19980W        W88198  26.539  39.312   2.784
19981W        W88199  26.712  38.864  13.956
19982W        W88200  23.273  44.810   0.722
19983W        W88201  19.093  28.667  11.489
19984W        W88202  23.822  22.529  10.757
19985W        W88203  30.737  43.965  11.657
19986W        W88204  36.811   8.152   4.161
19987W        W88205  11.128  21.154   1.202
19988W        W88206   5.839   7.073   0.639
19989W        W88207   9.360   2.158   4.712
19990W        W88208  16.762  28.975  11.046
19991W        W88209  39.300   7.311   3.218
19992W        W88210  28.655  20.705  14.053
19993W        W88211  30.723  42.121   0.363
19994W        W88212  17.640  41.990   4.732
19995W        W88213  13.917   4.364   2.180
19996W        W88214   9.627  19.468  11.158
19997W        W88215  26.136  29.305  10.741
19998W        W88216  30.431  39.048   2.017
19999W        W88217  26.247  11.257  12.655
20000W        W88218  12.859  44.809  11.898
20001W        W88219  43.229   9.124  13.360
20002W        W88220   7.933  22.583  13.964
20003W        W88221  16.400  43.534  11.626
20004W        W88222  42.004  41.093  13.557
20005W        W88223  39.400   8.176   0.900
20006W        W88224  18.247   9.197   1.281
20007W        W88225  12.114  14.459   1.265
20008W        W88226   5.224  32.211  11.112
20009W        W88227  17.237  13.834  12.027
20010W        W88228   3.156  29.677  12.080
20011W        W88229   2.037  12.817  13.072
20012W        W88230  13.279  21.648  10.334
20013W        W88231  27.247  13.234   0.738
20014W        W88232   6.627  14.321   1.636
20015W        W88233  12.106  36.887  14.796
20016W        W88234  15.488   9.231   4.498
20017W        W88235  41.500  26.373   9.982
20018W        W88236   4.754  38.575  11.367
20019W        W88237  17.285   6.327   2.698
20020W        W88238  28.676  24.252  13.391
20021W        W88239  42.077  16.147   2.219
20022W        W88240  23.078  41.215   3.604
20023W        W88241   6.679   2.662   0.336
20024W        W88242  23.748  13.137   0.257
20025W        W88243  23.400  29.019  13.117
20026W        W88244  22.171  40.001   1.933
20027W        W88245  23.057  20.608  14.919
20028W        W88246  37.918  23.691  12.617
20029W        W88247  32.898  42.688   0.920
20030W        W88248   8.182  30.345  11.321
20031W        W88249  42.596  17.540  14.505
20032W        W88250  37.835   0.085   0.316
20033W        W88251  12.975  23.695  13.804
20034W        W88252  14.600   2.874  13.314
20035W        W88253  11.147  39.281   2.325
20036W        W88254  30.119  17.719   1.639
20037W        W88255  19.818  20.634  14.261
20038W        W88256  33.819  14.744   2.705
20039W        W88257  14.989  19.099  10.722
20040W        W88258  33.968  24.074  12.666
20041W        W88259  22.006   2.749   0.399
20042W        W88260  10.848   1.277   3.259
20043W        W88261   8.529  26.124  11.103
20044W        W88262  20.471   0.451  10.825
20045W        W88263  16.012  18.242   0.788
20046W        W88264  26.005  31.834  14.342
20047W        W88265  36.043   1.385   0.293
20048W        W88266  38.538  43.104  13.436
20049W        W88267  21.217  26.829   1.852
20050W        W88268  27.447  10.169  12.490
20051W        W88269  11.655  39.842   4.146
20052W        W88270  37.436   2.588   0.797
20053W        W88271  44.557   1.650   2.753
20054W        W88272  16.665   0.837  13.210
20055W        W88273  30.933  31.130  10.659
20056W        W88274  33.168  15.370  11.581
20057W        W88275   2.558  10.665  14.763
20058W        W88276   4.657   7.840  13.860
20059W        W88277  17.521  35.510   2.715
20060W        W88278  18.717  15.092   2.331
20061W        W88279   8.229  14.021  10.311
20062W        W88280  23.046  35.892  13.471
20063W        W88281  14.301   1.091   3.704
20064W        W88282  29.198  12.125  13.273
20065W        W88283  37.908  40.031   3.697
20066W        W88284  14.920  12.219  10.709
20067W        W88285  28.187   8.171  13.925
20068W        W88286  35.885  35.124  13.488
20069W        W88287   7.351  23.453   4.403
20070W        W88288  11.198  27.210   3.068
20071W        W88289  39.564   1.761  13.126
20072W        W88290  13.247  24.823   0.392
20073W        W88291   5.028  34.839   2.396
20074W        W88292  40.342  32.369   2.030
20075W        W88293   2.039  32.589   2.400
20076W        W88294  17.709  20.368  10.541
20077W        W88295  42.017  12.659   9.801
20078W        W88296  40.610   2.780   4.043
20079W        W88297  26.073  40.868   0.239
20080W        W88298  43.810  44.757   1.808
20081W        W88299  10.365  41.428   3.281
20082W        W88300   2.463  22.243  13.107
20083W        W88301  15.026  39.373  13.521
20084W        W88302  22.729   6.313  12.916
20085W        W88303  10.652  39.461  12.948
20086W        W88304   9.848  36.605  12.625
20087W        W88305  11.793  25.496   1.810
20088W        W88306  37.951   6.879   0.682
20089W        W88307  39.304  37.612  11.307
20090W        W88308   1.042   6.212  11.052
20091W        W88309  27.891   5.169   1.788
20092W        W88310  41.153  40.535   2.998
20093W        W88311  16.125   8.442  12.066
20094W        W88312   7.667   9.639   4.067
20095W        W88313  22.880  41.482   2.593
20096W        W88314   9.611  21.621   2.183
20097W        W88315   1.264   2.192  14.251
20098W        W88316  25.073  17.557   0.386
20099W        W88317  23.300  29.612  11.124
20100W        W88318   2.927  26.733   5.037
20101W        W88319  44.895  12.738  13.320
20102W        W88320  23.239   9.995  11.224
20103W        W88321  25.445  42.454  10.788
20104W        W88322   2.877  21.915  10.502
20105W        W88323   2.930  33.043  11.698
20106W        W88324   4.426   0.836  14.782
20107W        W88325  29.148   7.179   4.008
20108W        W88326  18.338   8.638  14.485
20109W        W88327  10.096  34.570   0.864
20110W        W88328  41.312  37.553  14.953
20111W        W88329  39.093   6.783  12.746
20112W        W88330  15.091  28.173   4.094
20113W        W88331  23.904   8.555   1.288
20114W        W88332  37.147  13.603  11.871
20115W        W88333  18.434  33.021   2.710
20116W        W88334  31.855  24.447  14.232
20117W        W88335  38.310  11.669   4.514
20118W        W88336  11.417  30.217  11.476
20119W        W88337  40.936  22.503   4.515
20120W        W88338   4.951  37.402   0.875
20121W        W88339  29.942   1.317  11.941
20122W        W88340  42.801  35.712   3.820
20123W        W88341   0.221  42.126   1.654
20124W        W88342  10.716  31.127  11.129
20125W        W88343   6.724  28.576  11.188
20126W        W88344  35.984  14.770  10.682
20127W        W88345  30.507  42.318  13.569
20128W        W88346   4.120  12.105  14.029
20129W        W88347   1.156  11.386  12.651
20130W        W88348  27.852   7.874   2.639
20131W        W88349  43.500  11.774  14.208
20132W        W88350  35.374  15.337  13.491
20133W        W88351  37.054   6.692  12.390
20134W        W88352  28.064  40.521   0.078
20135W        W88353  36.374  19.205  11.113
20136W        W88354  32.815  14.255  13.754
20137W        W88355   8.321  35.378   2.637
20138W        W88356  33.078  12.128  12.513
20139W        W88357  40.309  44.738   3.257
20140W        W88358  24.714  18.756  11.557
20141W        W88359  37.058  15.063  14.853
20142W        W88360  26.989  34.512  14.138
20143W        W88361  42.757  38.780   4.808
20144W        W88362  24.746  29.601   4.575
20145W        W88363  10.578  14.536  11.542
20146W        W88364  13.020  12.203  10.670
20147W        W88365  27.765  41.012  13.618
20148W        W88366  28.053  10.329  12.125
20149W        W88367   5.653  35.008   3.263
20150W        W88368  29.549  26.746  13.306
20151W        W88369  14.885   1.495   3.220
20152W        W88370  34.637   3.928   1.840
20153W        W88371  43.304  41.256  13.077
20154W        W88372  17.596  10.568   0.382
20155W        W88373  18.378  15.049   1.002
20156W        W88374  43.232  12.063  11.190
20157W        W88375   9.364  29.371   4.741
20158W        W88376  36.412   5.325   0.167
20159W        W88377  29.230   9.885   5.042
20160W        W88378  11.275  36.799   2.569
20161W        W88379   8.531  19.211   2.000
20162W        W88380  26.677  22.716   4.557
20163W        W88381   0.986  24.641  11.802
20164W        W88382  23.423  29.759  12.701
20165W        W88383  24.219  35.470   1.715
20166W        W88384   1.450  12.405  13.341
20167W        W88385  15.595  30.205   3.876
20168W        W88386  35.257  34.408   4.287
20169W        W88387   1.370   1.593   4.614
20170W        W88388  11.264  29.468  14.806
20171W        W88389   0.246  24.584   0.501
20172W        W88390  11.814  22.501  10.620
20173W        W88391  33.771   8.641  13.026
20174W        W88392   0.465  21.007   0.836
20175W        W88393   7.275  40.106   3.186
20176W        W88394  24.006  21.802   2.072
20177W        W88395   0.304  20.726  13.396
20178W        W88396  27.801  38.029  12.572
20179W        W88397  24.242   7.719   4.520
20180W        W88398   1.860   2.515  14.723
20181W        W88399  11.066  23.317  12.028
20182W        W88400  27.379  40.014   1.057
20183W        W88401  43.975   5.316  11.450
20184W        W88402  21.181  40.022  14.315
20185W        W88403  41.521  11.601  11.961
20186W        W88404   4.154  20.117  13.513
20187W        W88405  19.063  23.472  12.397
20188W        W88406   1.336  28.136  11.499
20189W        W88407  44.966  23.578   1.845
20190W        W88408   8.249  27.951  13.927
20191W        W88409  16.247   2.455  12.129
20192W        W88410  23.710  14.514   0.319
20193W        W88411  32.663   3.054  12.932
20194W        W88412  26.567  32.027  11.223
20195W        W88413  14.794   0.747  12.094
20196W        W88414  26.728   8.085   1.199
20197W        W88415  17.750  40.834  14.470
20198W        W88416  17.743   3.033  12.181
20199W        W88417  10.241  23.487  14.020
20200W        W88418  12.100  14.956  11.960
20201W        W88419  23.123   5.736   4.096
20202W        W88420  13.559  27.463  14.777
20203W        W88421  12.749  32.126   4.566
20204W        W88422  12.240  41.558   2.283
20205W        W88423  38.990  28.019   3.302
20206W        W88424  29.411  23.010   1.759
20207W        W88425  13.255  17.032  11.267
20208W        W88426  39.340  38.713  14.713
20209W        W88427   3.994  39.498  14.509
20210W        W88428  21.094   9.973   4.139
20211W        W88429  14.287  25.679   1.744
20212W        W88430  27.485   7.092   1.688
20213W        W88431  13.004  12.845   2.309
20214W        W88432   1.875  39.791  12.877
20215W        W88433   8.230  28.674  13.409
20216W        W88434  15.280   7.800   3.072
20217W        W88435  10.810  16.398  11.726
20218W        W88436  44.338  11.724  13.818
20219W        W88437  36.350   9.759   1.898
20220W        W88438  10.593  19.111  11.739
20221W        W88439  22.171  15.333  12.627
20222W        W88440   3.554  35.412   1.969
20223W        W88441  37.022   4.912  14.833
20224W        W88442  11.570   6.195  11.557
20225W        W88443  27.567   1.818  14.715
20226W        W88444   0.517  29.098   0.468
20227W        W88445  41.224  10.289   2.314
20228W        W88446  41.827  30.663  12.948
20229W        W88447  10.427  29.674   0.349
20230W        W88448  40.726  28.062   3.129
20231W        W88449  37.636   8.318   3.842
20232W        W88450  19.376   5.851   1.827
20233W        W88451  35.615  19.719   0.550
20234W        W88452   2.741   2.013   3.655
20235W        W88453  17.227   0.336  10.167
20236W        W88454  26.009   3.870   2.234
20237W        W88455  16.559  17.668   4.720
20238W        W88456  36.063  33.062   4.383
20239W        W88457  22.172  23.629  10.551
20240W        W88458  31.817  12.587  11.968
20241W        W88459  24.396  25.691  11.596
20242W        W88460  15.166  13.211   1.773
20243W        W88461  15.889  12.984   0.374
20244W        W88462  11.249  11.705   0.363
20245W        W88463  41.207  35.765   0.552
20246W        W88464   2.468  15.615  11.392
20247W        W88465  20.536   9.204   4.677
20248W        W88466  20.168  37.568  13.441
20249W        W88467  25.396  44.309  11.419
20250W        W88468   9.316  11.253  14.971
20251W        W88469  25.085   3.227  13.024
20252W        W88470  22.075  28.737   0.296
20253W        W88471  31.255  28.581  13.403
20254W        W88472   4.271  10.642   4.435
20255W        W88473  26.063   8.136  13.418
20256W        W88474  10.307  28.009   1.667
20257W        W88475   8.513  35.081   3.401
20258W        W88476  15.303   0.320  13.405
20259W        W88477  39.631   4.470   1.362
20260W        W88478   9.167  24.455   2.105
20261W        W88479  34.125  34.144  13.449
20262W        W88480  14.286  23.044  12.450
20263W        W88481  22.674  18.537   1.883
20264W        W88482  32.190  27.248  11.599
20265W        W88483  30.719  39.756  12.148
20266W        W88484  10.029  22.165  11.643
20267W        W88485  39.475  25.848  11.365
20268W        W88486  25.799   3.813  13.657
20269W        W88487  32.536   7.929   3.810
20270W        W88488  11.362   3.570  11.258
20271W        W88489   5.233  21.201   0.291
20272W        W88490  39.980  42.407  14.944
20273W        W88491   4.589  30.172   2.352
20274W        W88492   0.518  42.351   1.250
20275W        W88493  43.952   6.309  10.532
20276W        W88494   5.071  29.113  12.107
20277W        W88495  36.851  18.394   0.747
20278W        W88496  14.880  25.178   1.473
20279W        W88497  22.763   8.284  13.581
20280W        W88498  30.676  33.952  13.470
20281W        W88499  35.343  32.717   3.134
20282W        W88500  30.961   9.838  14.995
20283W        W88501   4.276  14.395   2.349
20284W        W88502  34.862  15.612  11.658
20285W        W88503  32.528  18.518  13.900
20286W        W88504  39.021  30.992   1.034
20287W        W88505  16.118  12.404   3.709
20288W        W88506  42.952  43.401  11.841
20289W        W88507  38.489  40.353   2.870
20290W        W88508  36.886  36.879  12.896
20291W        W88509  16.538  13.674   0.932
20292W        W88510   1.313  22.590   4.709
20293W        W88511  43.938   7.307   4.467
20294W        W88512  22.350  20.049   0.987
20295W        W88513  33.983   6.517   0.838
20296W        W88514  13.084   8.263  11.549
20297W        W88515  33.614   1.393   4.236
20298W        W88516  32.118   7.921  12.917
20299W        W88517  33.920  20.579   1.444
20300W        W88518  14.708  11.628  10.785
20301W        W88519  42.121   7.377  12.789
20302W        W88520  23.267   9.831  13.886
20303W        W88521   4.585   9.847  10.245
20304W        W88522  37.652  15.773  12.570
20305W        W88523  23.219  33.607   1.542
20306W        W88524  32.442  38.080   2.868
20307W        W88525  29.576  34.374  12.051
20308W        W88526   4.394  20.260   3.825
20309W        W88527   9.713  30.941   1.492
20310W        W88528  27.826   9.440  11.866
20311W        W88529  31.946   2.451  11.142
20312W        W88530  37.560  25.217   4.758
20313W        W88531  37.298  33.957  13.835
20314W        W88532  23.604  39.109   2.921
20315W        W88533  18.762   3.030   0.232
20316W        W88534  29.632  25.912   0.428
20317W        W88535  39.894  26.085   4.784
20318W        W88536  20.866   3.239   4.478
20319W        W88537  43.768  41.988   1.124
20320W        W88538   9.740  37.126  12.522
20321W        W88539  36.597   0.412   3.709
20322W        W88540  36.524  30.436  11.598
20323W        W88541   2.216  33.132   2.402
20324W        W88542  40.428   1.437   3.096
20325W        W88543  22.099  26.084   3.673
20326W        W88544  22.137  19.113   2.348
20327W        W88545  36.518  13.776   1.775
20328W        W88546  28.431   9.196   2.387
20329W        W88547  29.783   8.743  14.216
20330W        W88548  12.744   0.437  14.121
20331W        W88549  18.134   7.431   0.354
20332W        W88550   2.364   9.891  11.004
20333W        W88551  35.401  36.487  13.601
20334W        W88552   1.077  32.964  10.878
20335W        W88553   7.998  24.784  14.891
20336W        W88554  10.084  15.986   0.334
20337W        W88555  12.843  26.926  11.412
20338W        W88556  30.886  30.644  12.021
20339W        W88557  41.822  37.865  11.423
20340W        W88558  32.313   7.775   2.860
20341W        W88559  39.451  29.996  10.720
20342W        W88560  24.480  17.209  12.785
20343W        W88561  25.272  32.584  14.803
20344W        W88562  41.717   7.588  12.283
20345W        W88563   8.446  13.231  12.324
20346W        W88564  20.894   4.418  13.134
20347W        W88565  24.967  42.344  10.598
20348W        W88566  42.828  12.560  12.703
20349W        W88567  18.519  16.861  13.605
20350W        W88568  34.125  16.527   1.226
20351W        W88569  33.324  11.196   4.209
20352W        W88570  10.885  34.242  14.982
20353W        W88571   7.916  42.789   2.768
20354W        W88572  35.225  15.004   0.425
20355W        W88573  38.588  44.954  10.923
20356W        W88574  30.939  14.262  14.114
20357W        W88575  29.533   5.228  14.517
20358W        W88576  37.653  44.564   1.292
20359W        W88577  29.564  10.593  10.748
20360W        W88578  22.276  20.041  13.514
20361W        W88579  21.067  32.144  11.612
20362W        W88580   6.866   3.672   0.384
20363W        W88581   5.842   4.440  13.992
20364W        W88582   5.421  19.050   3.899
20365W        W88583  13.791  19.128  13.863
20366W        W88584  36.573   7.320  10.845
20367W        W88585  21.748  16.719   1.663
20368W        W88586  24.972  32.092  12.947
20369W        W88587  29.110   6.797  11.996
20370W        W88588  22.018  31.158   4.988
20371W        W88589   8.556  39.074   3.055
20372W        W88590  18.381  14.024   0.871
20373W        W88591   3.476   7.829  13.314
20374W        W88592  28.757  30.539   0.502
20375W        W88593  30.435  25.728   2.251
20376W        W88594  24.697  13.917   2.296
20377W        W88595  40.117  11.133  13.058
20378W        W88596  24.288  13.653  14.542
20379W        W88597  30.431  26.302  13.805
20380W        W88598   2.426  31.375  14.010
20381W        W88599  30.133  17.770  12.016
20382W        W88600  11.327   1.734  11.158
20383W        W88601  42.912  39.101  14.961
20384W        W88602  28.842  35.999   2.569
20385W        W88603  30.708  17.869  11.190
20386W        W88604  36.422  42.877  10.645
20387W        W88605   7.078  43.155  13.000
20388W        W88606  26.158  20.551  10.742
20389W        W88607  25.524   4.464  14.586
20390W        W88608  11.763  37.488   9.906
20391W        W88609   0.906   1.762   0.651
20392W        W88610  29.204   4.423   2.788
20393W        W88611   2.940  32.055   4.434
20394W        W88612   4.899   9.328  12.766
20395W        W88613  27.059  27.412   3.228
20396W        W88614   2.839   4.739   1.850
20397W        W88615   9.328  44.987   0.319
20398W        W88616  44.936   2.774  10.679
20399W        W88617  19.581  32.833  12.944
20400W        W88618  29.984  44.556  14.540
20401W        W88619  20.277  39.012   2.377
20402W        W88620  16.244  39.621  12.863
20403W        W88621  11.119  18.039   0.338
20404W        W88622   0.027   9.538  13.504
20405W        W88623  23.209  36.307  10.937
20406W        W88624  19.073  32.989  14.384
20407W        W88625  36.383   6.010  10.468
20408W        W88626  12.654  11.618   1.335
20409W        W88627  22.431  30.398  10.644
20410W        W88628  36.526  19.756   3.249
20411W        W88629  43.060  38.856  11.976
20412W        W88630  18.257   4.885   0.842
20413W        W88631  16.463  14.291  13.136
20414W        W88632   5.611  43.537  10.757
20415W        W88633  14.046   3.900  11.881
20416W        W88634  34.936   4.478  12.930
20417W        W88635   0.026  18.610   3.506
20418W        W88636  28.591  33.369  11.454
20419W        W88637  20.482  40.456   2.132
20420W        W88638  41.790  38.357  11.259
20421W        W88639  16.005   1.243  14.557
20422W        W88640  37.827  22.020   4.791
20423W        W88641   7.440  15.593   4.207
20424W        W88642  26.939   1.683   1.479
20425W        W88643  38.600   1.688   0.720
20426W        W88644  10.867  21.459  13.409
20427W        W88645  41.079  13.737  14.008
20428W        W88646  35.204  16.702  13.916
20429W        W88647  25.788  14.654  12.324
20430W        W88648  27.327  38.020  13.919
20431W        W88649  26.447   2.822   3.154
20432W        W88650   2.322   4.407  12.479
20433W        W88651   1.437  20.265  12.076
20434W        W88652  31.481   7.315  12.827
20435W        W88653  28.375   2.772   0.472
20436W        W88654  17.654   2.850  10.696
20437W        W88655   1.200   3.853  14.780
20438W        W88656  38.706  30.462  12.574
20439W        W88657  22.285  41.401   1.944
20440W        W88658   6.505  41.321  13.859
20441W        W88659   2.982  20.253   3.190
20442W        W88660  33.021   8.112   2.662
20443W        W88661   6.201  11.889  12.499
20444W        W88662  19.520  41.123   4.093
20445W        W88663  39.429  20.979   0.011
20446W        W88664  37.203  34.888  12.632
20447W        W88665   3.271   8.235   4.578
20448W        W88666  42.298  44.349  10.765
20449W        W88667  37.682  27.626  12.932
20450W        W88668  14.871  25.739   4.130
20451W        W88669   4.907  14.014   1.719
20452W        W88670  22.236  16.805  13.439
20453W        W88671  24.677  22.330  12.647
20454W        W88672  43.460  41.911   3.135
20455W        W88673  35.254  12.176   3.318
20456W        W88674  32.962  30.037   3.091
20457W        W88675  36.157  27.455  10.961
20458W        W88676   1.936  43.025   2.790
20459W        W88677  21.051  28.981  13.463
20460W        W88678  19.412  41.965  12.468
20461W        W88679  44.657  39.790  12.646
20462W        W88680  20.470  19.334  12.924
20463W        W88681  26.868  16.595   2.213
20464W        W88682  39.834  28.959   1.837
20465W        W88683  14.942  18.779  13.008
20466W        W88684   4.652   4.750   0.288
20467W        W88685  25.329   4.676  13.047
20468W        W88686  18.757  16.318   0.847
20469W        W88687  12.383   7.301  14.870
20470W        W88688  26.442  16.082   1.626
20471W        W88689  19.142  18.681   3.990
20472W        W88690  18.126   5.369  12.778
20473W        W88691  19.288  24.710   0.042
20474W        W88692  19.805  29.532   4.995
20475W        W88693  27.549  34.482  12.475
20476W        W88694  10.857  35.542  14.898
20477W        W88695   4.332   7.224  11.537
20478W        W88696   2.332  15.924   2.771
20479W        W88697  38.187   4.509  11.681
20480W        W88698   8.650  20.870  13.337
20481W        W88699   0.934  20.498   2.220
20482W        W88700  11.341  16.879  13.923
20483W        W88701   3.512  32.077   0.424
20484W        W88702  24.695  20.101   1.621
20485W        W88703   6.663  30.836  12.069
20486W        W88704   5.457   7.566   2.765
20487W        W88705   8.285   7.165   1.437
20488W        W88706  26.452  17.939   3.740
20489W        W88707  17.611  30.040   3.133
20490W        W88708   9.199  34.063   1.462
20491W        W88709  32.534   9.919  13.381
20492W        W88710  43.013  38.006  13.895
20493W        W88711  39.922  18.071  13.372
20494W        W88712  43.634  16.062   0.009
20495W        W88713  22.622  26.728  11.137
20496W        W88714   6.804   3.658   2.200
20497W        W88715   5.975  31.617   4.121
20498W        W88716  14.571  44.824  14.279
20499W        W88717  25.097  32.364   3.400
20500W        W88718  26.695  41.439  12.128
20501W        W88719  11.254  42.077  10.775
20502W        W88720  37.927  42.495  14.031
20503W        W88721  26.009  16.197   1.366
20504W        W88722   7.390  31.077   3.903
20505W        W88723  26.252  41.060  12.427
20506W        W88724  29.613  12.380  11.166
20507W        W88725  24.910   8.327   4.099
20508W        W88726   2.761   9.443  11.150
20509W        W88727  23.073   6.880   3.755
20510W        W88728  11.657  33.948   0.464
20511W        W88729  20.193  13.886  12.661
20512W        W88730  16.604  18.099   3.074
20513W        W88731  13.363   1.356   3.721
20514W        W88732  42.247   4.529   2.354
20515W        W88733  38.584   2.982  14.398
20516W        W88734  34.476  33.319   4.528
20517W        W88735  31.679  32.856   1.211
20518W        W88736  25.117   2.245   3.168
20519W        W88737  24.758   1.834  14.779
20520W        W88738  19.601   3.479   4.941
20521W        W88739  25.037  23.618  12.992
20522W        W88740  40.943  25.446   1.242
20523W        W88741  35.574  35.861  12.963
20524W        W88742   0.549   7.249   3.650
20525W        W88743  34.483  21.007  11.128
20526W        W88744  22.043  35.900  13.422
20527W        W88745  38.554  28.560   3.484
20528W        W88746  42.616  25.023  12.505
20529W        W88747  14.031  31.693  13.807
20530W        W88748  34.719  30.966  11.112
20531W        W88749  28.060  27.984  13.234
20532W        W88750  19.814  20.067   0.865
20533W        W88751  40.593  35.556   1.239
20534W        W88752  16.286  39.939  13.275
20535W        W88753  13.736  16.583   3.605
20536W        W88754  44.305  20.267  14.867
20537W        W88755   4.626   2.078  13.910
20538W        W88756  17.864  15.767  14.602
20539W        W88757  19.714  32.941  13.846
20540W        W88758  19.097  12.865  14.998
20541W        W88759  31.508   4.693  13.842
20542W        W88760   4.527   6.901   0.810
20543W        W88761  39.067  24.100   2.951
20544W        W88762  31.100   8.889  14.503
20545W        W88763  24.022  35.363   3.110
20546W        W88764  29.486  38.297  12.899
20547W        W88765  30.965  33.648  13.810
20548W        W88766  42.323  12.084   3.471
20549W        W88767  34.424  12.679  13.866
20550W        W88768  28.670  27.232  13.356
20551W        W88769  42.381  42.208  11.953
20552W        W88770  31.462  34.495   1.987
20553W        W88771  39.520  21.734   4.654
20554W        W88772  43.842  43.395  11.208
20555W        W88773  40.514   9.894   1.859
20556W        W88774  13.712  13.144  11.175
20557W        W88775  44.884  28.196  12.997
20558W        W88776  22.039  15.518  13.078
20559W        W88777  22.989  24.146   4.558
20560W        W88778  17.630  11.038  11.949
20561W        W88779  33.526  13.180  12.284
20562W        W88780   8.969  39.272  14.846
20563W        W88781  44.856  11.603  12.439
20564W        W88782   8.661  41.977   4.155
20565W        W88783  27.511  21.499   0.483
20566W        W88784  37.435  22.586  10.482
20567W        W88785  24.701  11.551   0.632
20568W        W88786   3.900   4.055   3.604
20569W        W88787  15.738  43.052   0.071
20570W        W88788  40.477  31.991   1.709
20571W        W88789  40.301  20.259  11.482
20572W        W88790  29.205  13.801  14.713
20573W        W88791  31.085  33.124  14.847
20574W        W88792   6.677  19.328  13.297
20575W        W88793   0.521   0.930   5.278
20576W        W88794  41.733  35.070   4.571
20577W        W88795  31.902  26.624  14.986
20578W        W88796  17.190  24.864   1.321
20579W        W88797  10.866  19.701  13.925
20580W        W88798  25.668  28.672  12.032
20581W        W88799   2.291   2.780   4.593
20582W        W88800  32.341  29.036   3.407
20583W        W88801  34.706  38.082  12.292
20584W        W88802   0.221  12.788   3.313
20585W        W88803  26.950  28.128  13.985
20586W        W88804   0.128  19.159   0.037
20587W        W88805  41.720   4.858  13.422
20588W        W88806  38.918  11.778  12.052
20589W        W88807  28.510  16.146  14.384
20590W        W88808  35.220  27.040  12.528
20591W        W88809  17.537  33.681  14.524
20592W        W88810  37.308  16.373   4.378
20593W        W88811  29.674  17.208   3.488
20594W        W88812  43.368  35.221   3.380
20595W        W88813  21.175   0.197   1.681
20596W        W88814  39.962  19.000   0.887
20597W        W88815   0.563  38.777   4.129
20598W        W88816   4.893  17.102   0.290
20599W        W88817   6.680   0.898  14.680
20600W        W88818  35.966  32.598  12.245
20601W        W88819   5.754  17.634   0.334
20602W        W88820   0.523  21.529  14.888
20603W        W88821  36.483  36.425  14.458
20604W        W88822   1.295  30.474   2.890
20605W        W88823   2.075   6.809   0.128
20606W        W88824  20.197  12.875   2.749
20607W        W88825  37.253  39.906  10.833
20608W        W88826   7.911   0.785  10.074
20609W        W88827  16.672  25.701   3.872
20610W        W88828  44.237  31.081  13.804
20611W        W88829  21.531   9.115   1.390
20612W        W88830  39.287  43.229   3.975
20613W        W88831   0.373  15.758  12.519
20614W        W88832  22.541  13.117   3.758
20615W        W88833  31.543  19.670  14.898
20616W        W88834   5.588  43.290  13.734
20617W        W88835  43.913  36.564  10.715
20618W        W88836  18.015  11.851   3.003
20619W        W88837  29.585  22.288  12.188
20620W        W88838  29.837  35.820   2.076
20621W        W88839  44.584  15.251  13.492
20622W        W88840   1.710   5.155   2.792
20623W        W88841   3.463  15.781  11.537
20624W        W88842   0.395  27.346   2.035
20625W        W88843  28.991  40.379   3.665
20626W        W88844  11.895  11.381   3.209
20627W        W88845  35.126  30.251   1.817
20628W        W88846  35.442  13.250   3.136
20629W        W88847   7.226  32.372  13.451
20630W        W88848  38.003   5.920   4.532
20631W        W88849  26.751  28.054  13.053
20632W        W88850  43.790  43.951  14.848
20633W        W88851  11.167  42.091  11.713
20634W        W88852  37.051  44.810   1.882
20635W        W88853   5.319  24.220  12.961
20636W        W88854  44.021  22.107  11.566
20637W        W88855  40.936  29.498  12.797
20638W        W88856  33.442  41.996   0.863
20639W        W88857  27.538  35.218   1.753
20640W        W88858  13.602  41.144   4.359
20641W        W88859  10.791  21.689   1.123
20642W        W88860  33.056   3.927   1.573
20643W        W88861  16.559  19.988   3.920
20644W        W88862  11.542   6.268  13.276
20645W        W88863  40.269  35.957   1.482
20646W        W88864  33.568  42.386   2.966
20647W        W88865  39.652  11.662  14.688
20648W        W88866   0.715  42.589  10.444
20649W        W88867   7.849   6.817  13.942
20650W        W88868  20.580  17.134  11.469
20651W        W88869  27.162   4.165  10.859
20652W        W88870  11.920   9.907  13.025
20653W        W88871  12.821  19.755   1.215
20654W        W88872  15.152  27.934   3.082
20655W        W88873  43.918  27.708  12.957
20656W        W88874  37.285   4.955   0.465
20657W        W88875   1.035  22.136   1.142
20658W        W88876   2.791  12.166  11.024
20659W        W88877  36.258  18.245   2.904
20660W        W88878  12.436  10.695  13.343
20661W        W88879   8.632  37.220  13.007
20662W        W88880  34.336  14.665   2.747
20663W        W88881  20.252  30.701  14.049
20664W        W88882  36.024  27.020   0.183
20665W        W88883   6.355  41.973   4.140
20666W        W88884  38.232  41.255  14.443
20667W        W88885  27.537  37.847  14.728
20668W        W88886  15.766  14.587  12.596
20669W        W88887   5.229  39.117  12.330
20670W        W88888  29.410  36.293  10.555
20671W        W88889  21.287  15.185   0.059
20672W        W88890  12.315  22.743   2.394
20673W        W88891   8.707  10.890   1.137
20674W        W88892  12.615  23.469   3.183
20675W        W88893  34.003  30.743   4.069
20676W        W88894   9.993  34.622  13.509
20677W        W88895  23.382  34.103  13.814
20678W        W88896   5.654  35.490   1.979
20679W        W88897  37.037  33.912   3.056
20680W        W88898  24.197  30.489   4.413
20681W        W88899  37.079  37.941  14.095
20682W        W88900  13.210  32.876  12.048
20683W        W88901  27.687  26.007  11.553
20684W        W88902   0.230  37.280   4.338
20685W        W88903  32.862  37.056   1.742
20686W        W88904  36.034  17.234   1.070
20687W        W88905  18.212  12.813   9.918
20688W        W88906  26.925  35.556  14.055
20689W        W88907  23.651  25.034  14.903
20690W        W88908  23.013   1.891  11.502
20691W        W88909  26.719   8.644  12.851
20692W        W88910  30.487  10.768   2.268
20693W        W88911  18.006  21.565   3.696
20694W        W88912  27.185  44.429   4.758
20695W        W88913  24.654  22.053  14.868
20696W        W88914  31.940   7.813  11.074
20697W        W88915  23.512  27.152   2.407
20698W        W88916  40.397  26.724  11.094
20699W        W88917  11.512  26.080  11.904
20700W        W88918   9.580  25.176  11.217
20701W        W88919  43.607  23.209  12.926
20702W        W88920  22.139   9.177  11.007
20703W        W88921   9.639  26.147   0.286
20704W        W88922   4.703  43.981  11.077
20705W        W88923  27.583  33.921   2.752
20706W        W88924   4.583  24.057   2.613
20707W        W88925  35.256  14.068  14.050
20708W        W88926  29.898   1.262  14.054
20709W        W88927  27.700   8.002  13.788
20710W        W88928  18.927  40.325  13.121
20711W        W88929  32.437  26.178  13.361
20712W        W88930   3.611  13.263  13.630
20713W        W88931  12.047  16.422  13.246
20714W        W88932  24.443  21.062  13.922
20715W        W88933  21.775   0.375  13.114
20716W        W88934  44.392  14.177   0.862
20717W        W88935  32.490  38.591  13.934
20718W        W88936  13.687   3.948   3.607
20719W        W88937  20.738   5.690  10.423
20720W        W88938  36.546  16.252  11.380
20721W        W88939  26.734  38.494  14.870
20722W        W88940  26.704   4.357  10.641
20723W        W88941   3.706  33.014  11.100
20724W        W88942  24.120  22.554   1.327
20725W        W88943  10.689  10.090  14.820
20726W        W88944  36.753  27.697   1.647
20727W        W88945  37.331  37.005   1.654
20728W        W88946  25.010  39.116   2.604
20729W        W88947  10.617  40.094  10.354
20730W        W88948  37.450  36.083  11.899
20731W        W88949  41.677  42.511   1.908
20732W        W88950  19.066   8.685   4.237
20733W        W88951  44.018  20.272   1.618
20734W        W88952   8.889  23.698  14.283
20735W        W88953  14.808  15.759   0.474
20736W        W88954  42.895  27.607   1.818
20737W        W88955  33.632  29.655  10.673
20738W        W88956   2.491  32.020   4.726
20739W        W88957  23.210   5.892   3.223
20740W        W88958  28.676   5.059   0.602
20741W        W88959  10.141  26.747  10.653
20742W        W88960  40.502  22.259   0.885
20743W        W88961   6.821  26.223  13.752
20744W        W88962  26.752   7.104   5.034
20745W        W88963  33.943  42.735  13.316
20746W        W88964   1.181  22.675  11.583
20747W        W88965  38.556  30.497  10.758
20748W        W88966  28.185   3.350  11.962
20749W        W88967   6.379   6.444  14.462
20750W        W88968  40.815  28.523   2.859
20751W        W88969  17.337  19.097   3.257
20752W        W88970   0.951   7.776   0.945
20753W        W88971  39.880   6.517   0.732
20754W        W88972  34.932  32.224  12.007
20755W        W88973   9.555  28.912   4.933
20756W        W88974  37.552  23.375  13.879
20757W        W88975  41.495  37.749   0.420
20758W        W88976  36.403   7.682   0.285
20759W        W88977  44.211  36.371   1.285
20760W        W88978  26.078  24.976   4.032
20761W        W88979  35.336  27.154   1.232
20762W        W88980  35.598   2.325  11.476
20763W        W88981  19.122  36.296   3.662
20764W        W88982  41.997   4.434   4.161
20765W        W88983  22.238  25.700  12.956
20766W        W88984   3.232   7.477   4.261
20767W        W88985  44.411   0.681   2.772
20768W        W88986  19.671  16.857   3.608
20769W        W88987  23.246  32.579   4.960
20770W        W88988  34.305  10.579   4.624
20771W        W88989  32.453  26.406   2.389
20772W        W88990  17.200   6.706   3.680
20773W        W88991   2.193  23.732  13.833
20774W        W88992  16.793  13.805   1.428
20775W        W88993  32.920  37.794  13.474
20776W        W88994  21.146  10.904  12.102
20777W        W88995  34.499   4.351   0.911
20778W        W88996  14.743  23.256  11.183
20779W        W88997   4.818  35.684  14.450
20780W        W88998  43.803   6.286   4.781
20781W        W88999  20.593  28.517  14.965
20782W        W89000  31.197   5.840   1.396
20783W        W89001   2.747  37.263  14.968
20784W        W89002   5.195  22.667   0.295
20785W        W89003  31.851  24.228  11.591
20786W        W89004  34.928  33.508   1.481
20787W        W89005  18.722  39.478  13.777
20788W        W89006  43.784  13.639   3.752
20789W        W89007   2.380  14.258  11.508
20790W        W89008  19.726   0.959  13.526
20791W        W89009  13.647  18.679  10.490
20792W        W89010  18.362  31.376  14.862
20793W        W89011  23.890  19.634   4.137
20794W        W89012  13.663   6.832  13.996
20795W        W89013   6.383  38.479   0.332
20796W        W89014  19.160   3.431  10.709
20797W        W89015  11.825   6.380  14.705
20798W        W89016   4.265  13.889   4.206
20799W        W89017  44.348   9.733  13.018
20800W        W89018   8.963  19.656   3.795
20801W        W89019  22.054  25.714   1.797
20802W        W89020  18.278  44.174   0.425
20803W        W89021  41.239  14.979  12.621
20804W        W89022  32.951  19.983   3.317
20805W        W89023  41.986   6.552   0.958
20806W        W89024  31.063   6.468   3.617
20807W        W89025  18.260   3.400   1.422
20808W        W89026   0.385  28.979  14.829
20809W        W89027  38.481  19.792  11.404
20810W        W89028  38.938  23.613  12.149
20811W        W89029  27.124  36.786   3.430
20812W        W89030  13.041  16.214  10.870
20813W        W89031  31.888  13.884   2.662
20814W        W89032  32.125  19.065  11.125
20815W        W89033   1.885  36.928  14.914
20816W        W89034  10.085  10.629   3.898
20817W        W89035  15.913  36.596   2.248
20818W        W89036   8.388  17.832  10.175
20819W        W89037  14.362  11.848   0.695
20820W        W89038   5.075   6.420   0.397
20821W        W89039  31.948  15.329  14.962
20822W        W89040  18.661  11.597  10.637
20823W        W89041   6.028   1.852   2.288
20824W        W89042  44.425   6.883  14.765
20825W        W89043  26.036  24.160  14.371
20826W        W89044   5.022  43.306   4.170
20827W        W89045   4.147   4.927   1.935
20828W        W89046   5.697  10.144  11.486
20829W        W89047  43.723  28.749  12.967
20830W        W89048   5.827  24.018   2.266
20831W        W89049  29.627  31.950   5.054
20832W        W89050   4.309  40.593  10.638
20833W        W89051  29.363  43.419  12.591
20834W        W89052  22.140  33.994   0.794
20835W        W89053  35.045  37.477   2.166
20836W        W89054  36.158  38.769   4.114
20837W        W89055  11.804  44.699   0.981
20838W        W89056  34.422  21.016  10.331
20839W        W89057  27.972  19.526  13.670
20840W        W89058  26.098   7.709  13.128
20841W        W89059  32.874  28.394  14.309
20842W        W89060  31.388  16.947   0.746
20843W        W89061  18.605  21.757  12.879
20844W        W89062   8.351  21.681   3.746
20845W        W89063   4.796  32.889   2.799
20846W        W89064  35.066   1.807   4.239
20847W        W89065  42.389  16.015   1.767
20848W        W89066  33.366   1.703   0.617
20849W        W89067  31.585  15.350   2.136
20850W        W89068  13.702  17.191   1.394
20851W        W89069  42.816  20.149  13.581
20852W        W89070  26.440  24.993   1.116
20853W        W89071  35.497  27.635   3.945
20854W        W89072  34.913  19.667   3.788
20855W        W89073  42.266  19.694   2.716
20856W        W89074  31.598  18.913   1.439
20857W        W89075   4.777  30.081   1.891
20858W        W89076  31.876  39.585   4.292
20859W        W89077  16.785  41.087   3.760
20860W        W89078  17.060  19.604   2.855
20861W        W89079  26.100  22.581   2.685
20862W        W89080  41.046   7.241  14.947
20863W        W89081  42.471  21.671   1.196
20864W        W89082   9.302  14.570   0.688
20865W        W89083  44.065  29.862  10.449
20866W        W89084  44.925  40.722  14.285
20867W        W89085   4.647   4.854   1.147
20868W        W89086  33.535  29.196   3.710
20869W        W89087  22.468  30.899  12.005
20870W        W89088  33.477  12.292  14.870
20871W        W89089   9.811  41.989   0.264
20872W        W89090   1.738  33.324  11.845
20873W        W89091  40.325  39.538   2.267
20874W        W89092   5.443  16.560   2.613
20875W        W89093  44.547  27.809   4.197
20876W        W89094  28.590  19.255   3.794
20877W        W89095  10.477  28.494   2.658
20878W        W89096  19.966  17.247  14.226
20879W        W89097  17.166  36.532  11.477
20880W        W89098  21.128  32.195  14.393
20881W        W89099  14.397  14.049  13.033
20882W        W89100  39.438   2.913   0.437
20883W        W89101  24.626   8.668  12.220
20884W        W89102  21.782  10.265  14.861
20885W        W89103  17.731   8.130   4.639
20886W        W89104  34.978  23.972  13.530
20887W        W89105  29.860  21.995   0.318
20888W        W89106  19.710  23.123   4.866
20889W        W89107   2.961  42.319  11.708
20890W        W89108   7.664  27.194   1.369
20891W        W89109   4.886  39.327   4.603
20892W        W89110  20.556  13.535  11.613
20893W        W89111  18.570  32.574  12.094
20894W        W89112   1.937  33.742   0.923
20895W        W89113   2.679  20.016   1.329
20896W        W89114  42.351  30.149   3.909
20897W        W89115  11.794  29.367  11.686
20898W        W89116  26.312  29.120  12.437
20899W        W89117  32.968  23.141   2.854
20900W        W89118  21.404  18.673  11.575
20901W        W89119   7.649  13.679   2.297
20902W        W89120  41.778  32.782  13.340
20903W        W89121  38.969  24.409  12.603
20904W        W89122  43.883  35.597  14.034
20905W        W89123  37.507  38.365  14.512
20906W        W89124  26.117  27.900  12.222
20907W        W89125  35.773   0.793  11.194
20908W        W89126  10.328  24.872  14.888
20909W        W89127  18.313  44.850  14.362
20910W        W89128  13.945   8.701  14.274
20911W        W89129  35.343  19.316   3.879
20912W        W89130  35.604   9.321  13.188
20913W        W89131  24.951   2.998   3.126
20914W        W89132  41.575   5.305   1.344
20915W        W89133  40.894   7.225  12.045
20916W        W89134  28.921  18.678  10.217
20917W        W89135  36.098   2.559  11.426
20918W        W89136  42.826  23.749  13.425
20919W        W89137  38.178  20.709   1.658
20920W        W89138  22.517  33.174   1.259
20921W        W89139   3.720   7.064  14.585
20922W        W89140  16.025  44.430  11.375
20923W        W89141  29.449  11.403   1.331
20924W        W89142   8.257  17.727  13.751
20925W        W89143  32.184  34.951   0.940
20926W        W89144  26.265  40.406  12.868
20927W        W89145  20.484  42.312   4.655
20928W        W89146  28.911  20.238   0.527
20929W        W89147  16.657  38.615  13.471
20930W        W89148  43.329  23.020   0.453
20931W        W89149   5.730  13.857   4.122
20932W        W89150  19.095   1.393  13.924
20933W        W89151  15.691  22.734   0.432
20934W        W89152   0.801  19.273  10.824
20935W        W89153  35.182   2.829  10.963
20936W        W89154   2.252   3.244  14.814
20937W        W89155  21.914  26.676  12.835
20938W        W89156  36.084  35.814  11.574
20939W        W89157  21.863  32.512  12.301
20940W        W89158  22.653  28.692  11.194
20941W        W89159   3.954  44.472  14.344
20942W        W89160   4.466  19.238   2.870
20943W        W89161  12.065  36.403  13.360
20944W        W89162  41.941  33.194   1.423
20945W        W89163   1.202   8.145   2.846
20946W        W89164  35.472  36.325   1.867
20947W        W89165  37.503   7.447   1.383
20948W        W89166  41.351  38.428   3.838
20949W        W89167   9.901   2.237   4.016
20950W        W89168   7.163  31.453  11.340
20951W        W89169   8.270   4.740  13.462
20952W        W89170  15.988   5.381  12.010
20953W        W89171  30.867  31.182  14.404
20954W        W89172  21.363  28.187   2.792
20955W        W89173  17.760  43.981   0.303
20956W        W89174  27.206  16.622   4.012
20957W        W89175  44.636  19.099   2.878
20958W        W89176  19.940  32.908  13.352
20959W        W89177  31.486   4.709  14.790
20960W        W89178  42.413  32.890  10.700
20961W        W89179  18.581  33.077   0.477
20962W        W89180  34.545  16.133  13.799
20963W        W89181  18.698  40.570   1.806
20964W        W89182  29.577  10.375  13.851
20965W        W89183   0.187  37.632   4.746
20966W        W89184  11.244  43.038  14.350
20967W        W89185  26.070   5.298  14.271
20968W        W89186   4.498  19.764  14.721
20969W        W89187  37.902  11.696  12.242
20970W        W89188   9.632  36.926  12.051
20971W        W89189  10.692  44.738  12.776
20972W        W89190  34.622  37.333  13.392
20973W        W89191  38.509  42.493   1.748
20974W        W89192  18.685   2.928   0.755
20975W        W89193  18.701  27.960  13.926
20976W        W89194  37.493   1.052  11.514
20977W        W89195  34.124  33.934  11.650
20978W        W89196  21.068  33.585  14.404
20979W        W89197  30.177   6.155  13.652
20980W        W89198  44.775  15.826  14.856
20981W        W89199  32.044  14.256  13.283
20982W        W89200  13.404  21.529   4.523
20983W        W89201   3.942  43.017   0.936
20984W        W89202  23.591  31.892  13.530
20985W        W89203   9.858  36.147   3.609
20986W        W89204  38.987  11.263   2.088
20987W        W89205   9.435   1.348  12.973
20988W        W89206  32.038  29.110   2.449
20989W        W89207  44.884   5.873  11.656
20990W        W89208  25.591  34.843   3.093
20991W        W89209  36.829   0.901  12.851
20992W        W89210   0.793  42.623   0.900
20993W        W89211  22.193  39.395   3.693
20994W        W89212   9.779   7.506  10.422
20995W        W89213  20.185   4.240  12.002
20996W        W89214   2.292  18.788  12.981
20997W        W89215  33.483  30.253   1.927
20998W        W89216  14.374  43.937   2.880
20999W        W89217  23.452  23.164  10.908
21000W        W89218  14.345  22.792   0.444
21001W        W89219  31.436   5.964   3.224
21002W        W89220   7.645  26.050   0.407
21003W        W89221  16.714  24.664   3.748
21004W        W89222   4.702   9.041  12.389
21005W        W89223   9.114  36.310   4.415
21006W        W89224   1.483  19.314   1.277
21007W        W89225  26.822  19.434  12.429
21008W        W89226  16.634  28.107   1.285
21009W        W89227  39.217   9.050  10.344
21010W        W89228   5.446   8.755  14.753
21011W        W89229  11.405  17.960   1.213
21012W        W89230   6.669  24.566  14.454
21013W        W89231  30.661  26.785  13.777
21014W        W89232   7.100  33.704  12.503
21015W        W89233  31.728  41.996  13.517
21016W        W89234  32.220  16.148   2.242
21017W        W89235  13.162   4.852  12.037
21018W        W89236  16.895  30.548  11.093
21019W        W89237  43.494   6.933   4.921
21020W        W89238  28.640   2.352   0.227
21021W        W89239   4.580  34.562   0.810
21022W        W89240  27.460  20.051   0.058
21023W        W89241  16.749  43.907   3.020
21024W        W89242  21.591   6.297   1.798
21025W        W89243  34.109  18.320   1.203
21026W        W89244   8.362  26.888   4.926
21027W        W89245  15.686   8.937   4.119
21028W        W89246   9.712  25.159  12.923
21029W        W89247  16.428   0.381  14.463
21030W        W89248  35.083  13.726   1.944
21031W        W89249  41.825   2.966  12.467
21032W        W89250  34.111  43.867   2.272
21033W        W89251   9.676  34.983  12.527
21034W        W89252  12.697  33.556   3.663
21035W        W89253  25.591  38.970  12.391
21036W        W89254  37.535  39.546   1.403
21037W        W89255  16.052  24.180  14.833
21038W        W89256   2.580  20.962  13.989
21039W        W89257  20.702  22.654   0.415
21040W        W89258  25.560  12.412  12.480
21041W        W89259  40.911  39.901  11.103
21042W        W89260  25.948  31.358   3.810
21043W        W89261  35.571  14.580  11.647
21044W        W89262  18.062   3.979  11.511
21045W        W89263  28.517  23.739   0.138
21046W        W89264  37.365  16.754   1.840
21047W        W89265  30.579  24.640  10.745
21048W        W89266  27.269  10.368  10.626
21049W        W89267  24.807  23.679  12.450
21050W        W89268   1.523   0.667  12.781
21051W        W89269  17.471  31.897   4.033
21052W        W89270  23.110   7.253   4.625
21053W        W89271  16.985  31.338   4.067
21054W        W89272  24.888   9.708  11.951
21055W        W89273  44.842  22.522  11.524
21056W        W89274   4.667  39.643  10.674
21057W        W89275   7.435  18.478  11.651
21058W        W89276  28.467  10.137   2.741
21059W        W89277  24.495  35.852   3.753
21060W        W89278  40.549  24.763  14.223
21061W        W89279  16.241  40.412   2.285
21062W        W89280  29.345  42.844   0.207
21063W        W89281  21.268  32.643  11.558
21064W        W89282  36.495  21.000  13.397
21065W        W89283  15.756  42.556  14.827
21066W        W89284  42.361  25.758   5.012
21067W        W89285   0.751  25.165   4.136
21068W        W89286   5.226  39.939   3.969
21069W        W89287  16.139  18.339   3.147
21070W        W89288   1.235   3.925  11.533
21071W        W89289   7.603  20.840  12.516
21072W        W89290  17.140  27.469  14.454
21073W        W89291  29.491  17.332   0.794
21074W        W89292  30.860   3.741   1.396
21075W        W89293  43.220  41.997   2.277
21076W        W89294  37.673   3.929  13.448
21077W        W89295  29.052   4.272   1.214
21078W        W89296  25.534  43.299  14.480
21079W        W89297   8.024  12.747   2.311
21080W        W89298   0.853  15.797   4.251
21081W        W89299   0.387  32.132   0.510
21082W        W89300  31.540  34.032   1.749
21083W        W89301  21.152  19.828   2.781
21084W        W89302  23.744  26.382  14.496
21085W        W89303  29.722  37.211   2.235
21086W        W89304  18.429   9.743  12.563
21087W        W89305  13.194  23.477  11.973
21088W        W89306  13.751  35.514   2.069
21089W        W89307  37.618   4.646  12.732
21090W        W89308   2.768   8.957   4.566
21091W        W89309  16.863  14.928   0.826
21092W        W89310  29.642   9.068   5.276
21093W        W89311  27.724  28.659  11.216
21094W        W89312  10.968  10.258  14.332
21095W        W89313   2.674  30.794   5.314
21096W        W89314  44.829  34.682   1.744
21097W        W89315  36.481  28.716  13.061
21098W        W89316  43.573  44.501  12.105
21099W        W89317  22.267  11.388  13.416
21100W        W89318  30.214  20.659   1.206
21101W        W89319  14.859  43.775   0.373
21102W        W89320  37.011   8.466  11.160
21103W        W89321  14.325  31.387  14.137
21104W        W89322  40.855  22.266  14.602
21105W        W89323   9.463  10.105  11.380
21106W        W89324   7.345  26.991   0.506
21107W        W89325  41.537  20.521   1.191
21108W        W89326  12.834  40.994   2.628
21109W        W89327  11.951  23.410   0.393
21110W        W89328   1.515  29.079   2.850
21111W        W89329   0.373  27.694   3.744
21112W        W89330  18.528  17.759  14.926
21113W        W89331  40.557  31.491   2.347
21114W        W89332  12.296  17.864   1.494
21115W        W89333   6.082   8.202   1.260
21116W        W89334   8.940  40.341  11.645
21117W        W89335   8.477  12.145  12.913
21118W        W89336  16.414   2.160  14.526
21119W        W89337  37.512  41.127  14.440
21120W        W89338  40.951   7.773   3.805
21121W        W89339   8.891  29.418   1.215
21122W        W89340  40.896  24.198  11.984
21123W        W89341  42.096  15.918  13.395
21124W        W89342   6.883   0.784   0.736
21125W        W89343  40.884   7.253   0.468
21126W        W89344  11.432  43.709  13.740
21127W        W89345  30.523  41.415   3.671
21128W        W89346  35.615  23.640   2.324
21129W        W89347  37.300  25.173  11.998
21130W        W89348  42.591  38.650  12.832
21131W        W89349  28.479  44.874   1.209
21132W        W89350  37.556  23.514  10.937
21133W        W89351  26.916  44.475  11.866
21134W        W89352  30.698  14.085   0.734
21135W        W89353   4.369  22.109   0.596
21136W        W89354  37.464   9.693   0.972
21137W        W89355   0.386   8.278   2.653
21138W        W89356  24.148  21.010  13.510
21139W        W89357  20.302  41.573  11.860
21140W        W89358   4.347  24.396   0.268
21141W        W89359  11.247  15.958   4.156
21142W        W89360   4.370  41.198   0.723
21143W        W89361  32.988  39.087  13.607
21144W        W89362  28.298  40.995  13.560
21145W        W89363  20.700  23.006   4.076
21146W        W89364  40.795  22.790   4.104
21147W        W89365   1.095  27.986   4.665
21148W        W89366  37.994  11.368  14.781
21149W        W89367  20.635   5.132   1.601
21150W        W89368  39.289  18.695  13.201
21151W        W89369   1.909  29.185   3.680
21152W        W89370  28.966  39.611   4.124
21153W        W89371   8.162  17.742   3.181
21154W        W89372  27.426   1.970   2.360
21155W        W89373  38.897   0.766  12.132
21156W        W89374  43.107  37.690  11.268
21157W        W89375  25.550  25.617  12.929
21158W        W89376   3.520  10.791   4.023
21159W        W89377  33.305  41.815   4.442
21160W        W89378  41.246  21.635   0.027
21161W        W89379  32.023  12.746  12.440
21162W        W89380  23.738  33.904  14.825
21163W        W89381  43.018  32.395   3.784
21164W        W89382   4.486   8.833   3.324
21165W        W89383  23.056  37.095   2.762
21166W        W89384  35.872  21.969  13.558
21167W        W89385  34.895   1.024   1.143
21168W        W89386  18.264  43.123   0.224
21169W        W89387  19.026  32.686   3.868
21170W        W89388  31.824  38.690  12.985
21171W        W89389  40.541  25.710   4.792
21172W        W89390  17.088   1.908   1.705
21173W        W89391  23.089  10.722  10.639
21174W        W89392  39.951  44.788  13.892
21175W        W89393  20.586  40.313   1.121
21176W        W89394  44.181  30.433  13.617
21177W        W89395  29.191  39.848  14.508
21178W        W89396   5.285  31.146   1.729
21179W        W89397  32.946   8.397  12.873
21180W        W89398   9.835   1.931  14.855
21181W        W89399  30.268  36.607   1.884
21182W        W89400   8.519  12.701   2.375
21183W        W89401  22.447  13.746  10.368
21184W        W89402  23.903  35.456   0.777
21185W        W89403  10.867  38.020  13.860
21186W        W89404  25.198  38.805  10.622
21187W        W89405  15.291  39.645  13.938
21188W        W89406  17.515  21.760  12.898
21189W        W89407  23.544  13.127  13.720
21190W        W89408  37.073  31.991   4.643
21191W        W89409  28.630  23.261   0.031
21192W        W89410  14.843  23.747   4.954
21193W        W89411  38.334  30.516   0.834
21194W        W89412   7.244  25.018  11.614
21195W        W89413  22.296  27.689   3.545
21196W        W89414  43.746  39.530   0.311
21197W        W89415  38.925   2.223   1.176
21198W        W89416  37.339   0.347  13.500
21199W        W89417  38.612  13.758  13.408
21200W        W89418   6.355  43.267   3.285
21201W        W89419  28.594  40.765  13.904
21202W        W89420  21.737  22.027  14.456
21203W        W89421  12.862   8.134   1.667
21204W        W89422  39.905  28.743   3.877
21205W        W89423  35.151  18.620  13.233
21206W        W89424  18.666  16.453  11.025
21207W        W89425  35.472  33.581   2.823
21208W        W89426  31.147  15.710   2.175
21209W        W89427   6.816  33.917   0.652
21210W        W89428  44.037  24.060  10.248
21211W        W89429  39.301  34.328   0.453
21212W        W89430  42.292  17.674  12.895
21213W        W89431  23.438  23.124   4.541
21214W        W89432  24.517   1.331   3.988
21215W        W89433   7.340  14.442   5.410
21216W        W89434  37.918   0.693   4.679
21217W        W89435  19.958  28.230   1.123
21218W        W89436  33.647  25.618  14.321
21219W        W89437  36.433  29.914  12.462
21220W        W89438  38.583  37.156   0.944
21221W        W89439   9.281  22.534  10.508
21222W        W89440  36.363  14.790   1.873
21223W        W89441  28.471  27.025  12.933
21224W        W89442  14.717  15.245  12.311
21225W        W89443  31.713   0.268   0.857
21226W        W89444  20.214  30.194  12.874
21227W        W89445  39.599  30.030  14.992
21228W        W89446  10.263  32.482   2.163
21229W        W89447  37.263   9.755  11.491
21230W        W89448  44.093  17.740  14.230
21231W        W89449  11.192  30.798  14.222
21232W        W89450  33.074  36.226  10.693
21233W        W89451  13.644  44.690   0.993
21234W        W89452  32.698   2.243  14.516
21235W        W89453  37.850  42.784  12.157
21236W        W89454   9.261  31.403   0.436
21237W        W89455  37.376  16.549  10.969
21238W        W89456  32.253  26.470  12.138
21239W        W89457   0.471  34.863  11.602
21240W        W89458  24.729  21.647  11.513
21241W        W89459   5.854   1.746  14.337
21242W        W89460  34.225  25.506   4.626
21243W        W89461   1.592   4.912   3.240
21244W        W89462  42.528  26.199   3.937
21245W        W89463  40.780  15.255   0.539
21246W        W89464   7.717  16.798  13.979
21247W        W89465  10.722  20.211  13.941
21248W        W89466  29.548  29.882   3.747
21249W        W89467   2.685   5.209  10.458
21250W        W89468   2.343   4.232   4.523
21251W        W89469  32.969   4.682   0.294
21252W        W89470  35.042  34.881   4.182
21253W        W89471  38.915  14.777   4.639
21254W        W89472  44.404  41.490   4.526
21255W        W89473  41.488   3.835   5.497
21256W        W89474  23.638   6.692   4.213
21257W        W89475   1.284  39.634  14.813
21258W        W89476  39.865   3.373  11.563
21259W        W89477  11.419  18.128  14.929
21260W        W89478  25.888  27.635  11.507
21261W        W89479  37.940  38.357   0.820
21262W        W89480  22.229  42.554  10.714
21263W        W89481  26.193  20.283  11.172
21264W        W89482  16.686   7.977   0.931
21265W        W89483  35.385  35.422  12.064
21266W        W89484  29.035  22.675   1.511
21267W        W89485   9.152   3.294   1.966
21268W        W89486   9.365  34.394  11.573
21269W        W89487  22.230  22.778  11.472
21270W        W89488  40.569   2.919   0.745
21271W        W89489  30.134  17.989   2.804
21272W        W89490  14.965  14.789  12.900
21273W        W89491  41.780  24.136   4.490
21274W        W89492  38.287  33.685  13.960
21275W        W89493  42.813  42.216  14.711
21276W        W89494   3.444  19.715  11.421
21277W        W89495  30.297  28.061   4.069
21278W        W89496  17.847  25.803  11.557
21279W        W89497   9.317   9.237   1.446
21280W        W89498   3.548   2.698  11.399
21281W        W89499  41.612   3.343   5.586
21282W        W89500  18.628  14.205  14.948
21283W        W89501  18.375  31.011   3.328
21284W        W89502  25.985  17.588   9.775
21285W        W89503   2.084  31.769   2.635
21286W        W89504  22.504  16.579  11.186
21287W        W89505  13.389  14.455  11.150
21288W        W89506  15.570  14.717  13.978
21289W        W89507  12.268   0.713  11.060
21290W        W89508  30.163  27.970  11.570
21291W        W89509  16.197  29.789   0.219
21292W        W89510  42.356  41.110  10.944
21293W        W89511  28.226   7.794  11.518
21294W        W89512   6.257  33.999  13.092
21295W        W89513  37.963   3.045   0.145
21296W        W89514   6.399  20.060  10.694
21297W        W89515   6.220   5.278   9.948
21298W        W89516  35.052   1.963  13.914
21299W        W89517  30.401  44.976  13.385
21300W        W89518  24.384  19.335  12.647
21301W        W89519   3.191  41.322   3.093
21302W        W89520   7.517  30.050  13.185
21303W        W89521  34.178  36.984  14.496
21304W        W89522   6.156   7.187  14.020
21305W        W89523   6.612  38.488   1.322
21306W        W89524  26.946  20.162   0.002
21307W        W89525  10.131   2.655   2.809
21308W        W89526  10.736  15.499  14.057
21309W        W89527  40.508   6.895   0.725
21310W        W89528  26.112  11.814  12.092
21311W        W89529  13.021  41.255   5.043
21312W        W89530  19.295  25.693   4.372
21313W        W89531  29.643   3.698   3.221
21314W        W89532   8.262  13.827   3.326
21315W        W89533  15.335   6.824  11.035
21316W        W89534   6.321  31.544  13.100
21317W        W89535  12.501  37.888  14.999
21318W        W89536  18.235  10.590   3.675
21319W        W89537  18.761   4.890   3.792
21320W        W89538  14.554   6.998  12.535
21321W        W89539  32.162  16.718  14.837
21322W        W89540  15.494   3.522  14.912
21323W        W89541  31.498  19.844   1.880
21324W        W89542  26.546  40.764  14.432
21325W        W89543  30.649  22.639  11.878
21326W        W89544  11.672  14.124   3.699
21327W        W89545   3.339  29.416  11.282
21328W        W89546   1.606  18.324   3.105
21329W        W89547  41.316  17.746   3.831
21330W        W89548  41.746   2.281  14.779
21331W        W89549  35.098  35.086   3.227
21332W        W89550  40.374  17.849   0.123
21333W        W89551  29.630  26.112   2.862
21334W        W89552  17.778   5.695   3.194
21335W        W89553  44.133  34.388   1.027
21336W        W89554  40.968   4.871   1.698
21337W        W89555  36.738  20.784  10.822
21338W        W89556  38.566  31.605  13.369
21339W        W89557  36.370  22.154   1.794
21340W        W89558  43.830   8.914  12.145
21341W        W89559  40.056   1.276  10.648
21342W        W89560  24.029  44.495   1.205
21343W        W89561   8.208  25.009   1.204
21344W        W89562  32.134  34.144  14.786
21345W        W89563  24.093  38.373  11.720
21346W        W89564   1.402  36.167   1.846
21347W        W89565  40.507  19.926   1.191
21348W        W89566  27.281  27.617  13.352
21349W        W89567   2.766  22.078   0.288
21350W        W89568  26.079  14.801   1.540
21351W        W89569  21.407  40.466   4.518
21352W        W89570  35.474  10.286   1.771
21353W        W89571  19.216   4.678   3.410
21354W        W89572  30.517  41.477  14.676
21355W        W89573  14.567  11.816  13.083
21356W        W89574  42.299  22.846   1.837
21357W        W89575  36.166   0.512   0.379
21358W        W89576  34.104  21.059   3.683
21359W        W89577  19.081   7.711   1.255
21360W        W89578  37.981  23.981   2.815
21361W        W89579   3.521  24.698  11.542
21362W        W89580   0.894  30.936   0.533
21363W        W89581  44.810  37.799  13.379
21364W        W89582   5.934  22.207  10.947
21365W        W89583  29.353  18.125   0.394
21366W        W89584  23.755   3.517  14.341
21367W        W89585  27.784  31.372  12.035
21368W        W89586   2.267   4.410  14.070
21369W        W89587  21.927  12.199  11.712
21370W        W89588  34.299   0.970   3.565
21371W        W89589   0.473   5.478  11.954
21372W        W89590  28.368  38.364  11.716
21373W        W89591  39.986  25.805   1.961
21374W        W89592  26.954  36.269   3.283
21375W        W89593   7.867   3.295  14.097
21376W        W89594   6.620  35.849   3.856
21377W        W89595  44.004  13.025   2.391
21378W        W89596  36.880  31.970   2.704
21379W        W89597   9.043  31.325   5.021
21380W        W89598  23.064  19.254  12.143
21381W        W89599  38.280   4.744   5.014
21382W        W89600  21.436  14.686   2.825
21383W        W89601  39.431  17.390  11.245
21384W        W89602  13.291  36.634  14.958
21385W        W89603  39.454  29.895   1.764
21386W        W89604  17.310  38.508  10.439
21387W        W89605   2.023  29.236   2.831
21388W        W89606  38.578   9.283  13.840
21389W        W89607  29.201   6.643  11.100
21390W        W89608   6.970   7.790   3.096
21391W        W89609   7.183  42.874   2.297
21392W        W89610  40.303   2.711  11.641
21393W        W89611   5.803  35.879  14.885
21394W        W89612  23.183  15.394  12.429
21395W        W89613  31.925   6.112  13.073
21396W        W89614  26.284   9.212   4.150
21397W        W89615  30.939  42.294  13.855
21398W        W89616   4.940  20.411   0.845
21399W        W89617  34.048  10.412   4.198
21400W        W89618  36.416   4.371   0.300
21401W        W89619  30.364  35.443   1.328
21402W        W89620  12.911  16.680   2.285
21403W        W89621  29.833  41.941  12.557
21404W        W89622  21.199  35.936  11.561
21405W        W89623  32.225  42.812   2.654
21406W        W89624   3.567   7.276   2.404
21407W        W89625  38.077   7.366   3.698
21408W        W89626   8.629  38.148  12.113
21409W        W89627  41.013  29.328  11.274
21410W        W89628   5.009  43.521   0.972
21411W        W89629  11.333  44.209  11.064
21412W        W89630   7.238  12.687   0.896
21413W        W89631  19.951  41.864  10.636
21414W        W89632  13.809  36.382   1.674
21415W        W89633  18.020  25.485  14.523
21416W        W89634  26.559  19.478   1.887
21417W        W89635  18.348  13.103   0.978
21418W        W89636  43.508  20.851  14.678
21419W        W89637  24.164   6.730   0.718
21420W        W89638  19.037  44.026   4.195
21421W        W89639  12.886   1.320   1.840
21422W        W89640  22.026  25.947  14.998
21423W        W89641  40.886  27.174  10.639
21424W        W89642  24.729  14.376  13.997
21425W        W89643  32.066  22.077   4.468
21426W        W89644  26.141  37.365  13.009
21427W        W89645  19.161  32.616  10.651
21428W        W89646   8.399  12.531   0.458
21429W        W89647  39.259  20.078   0.166
21430W        W89648  41.933  26.141   3.248
21431W        W89649  43.550   2.413  14.430
21432W        W89650  40.541  39.970  12.612
21433W        W89651  42.012   6.891   3.388
21434W        W89652  18.032  18.714  10.547
21435W        W89653  10.756  28.661  14.609
21436W        W89654   2.559   0.440  10.665
21437W        W89655   5.712  17.852  13.115
21438W        W89656   4.225   0.999  13.483
21439W        W89657   2.006  22.741  12.389
21440W        W89658  37.830  39.167  14.827
21441W        W89659  20.057  17.865   3.560
21442W        W89660   8.097   0.405  14.099
21443W        W89661  44.550   1.212  11.552
21444W        W89662   4.441   7.436   1.835
21445W        W89663   2.482  25.061  13.902
21446W        W89664   9.062  19.568  10.335
21447W        W89665   2.149   8.217   3.192
21448W        W89666  12.046  34.638  13.627
21449W        W89667  38.335  19.213   1.794
21450W        W89668  22.484  36.987  12.337
21451W        W89669  26.112   5.313   4.470
21452W        W89670   8.736  27.628   4.634
21453W        W89671   2.710   6.746  11.772
21454W        W89672  44.411  44.879   3.177
21455W        W89673  37.745   2.434  11.924
21456W        W89674   6.695  28.455   1.155
21457W        W89675  31.641  39.220  11.100
21458W        W89676  11.119  12.031  12.664
21459W        W89677  23.076  21.315   2.698
21460W        W89678  39.368  38.822  10.414
21461W        W89679   6.398  27.039   1.796
21462W        W89680  11.111  38.643   0.628
21463W        W89681  14.846  41.386  11.670
21464W        W89682  19.332  42.910  11.199
21465W        W89683  25.239   3.444   3.314
21466W        W89684  11.333  27.405   4.913
21467W        W89685  14.135  14.355   4.083
21468W        W89686  22.385   1.373   0.272
21469W        W89687   4.889  14.193  12.509
21470W        W89688  29.037   3.641  10.632
21471W        W89689  21.612  43.171  12.414
21472W        W89690   9.634   1.611   2.290
21473W        W89691   4.712   1.863   4.565
21474W        W89692  14.853  40.508  13.338
21475W        W89693  24.997   5.453   4.312
21476W        W89694  37.572  42.012  14.414
21477W        W89695   9.092  18.106  13.465
21478W        W89696  35.335  35.840   4.169
21479W        W89697  22.430   6.432   4.314
21480W        W89698   6.847  35.914   1.448
21481W        W89699  14.907  16.352  14.941
21482W        W89700  10.215  16.819  12.455
21483W        W89701  43.606   1.969  13.271
21484W        W89702  34.845  41.996   0.895
21485W        W89703  42.076  28.528   0.747
21486W        W89704  42.366   4.278  14.273
21487W        W89705  14.137  41.585  12.431
21488W        W89706  32.780  27.974   0.534
21489W        W89707  35.351  40.505   2.328
21490W        W89708  35.417  39.372  14.882
21491W        W89709  37.416  35.966   0.263
21492W        W89710  20.212  17.592  14.547
21493W        W89711  38.568  44.916   0.574
21494W        W89712  24.903   2.090  11.177
21495W        W89713  41.929  24.714  12.707
21496W        W89714  40.021  36.526  12.148
21497W        W89715  13.447  41.654   0.275
21498W        W89716  11.364  24.708   4.411
21499W        W89717  33.379  11.595  13.366
21500W        W89718  10.322  38.335   4.619
21501W        W89719  35.098  28.753   4.489
21502W        W89720   0.396  32.596  11.669
21503W        W89721  34.445  15.708   4.080
21504W        W89722  32.160  31.549   3.404
21505W        W89723  37.211   1.329  11.910
21506W        W89724  28.117  36.104   4.747
21507W        W89725  40.909  12.191  11.131
21508W        W89726  21.807  28.941  13.908
21509W        W89727  22.940  35.552   0.715
21510W        W89728  28.501  32.015  11.654
21511W        W89729   6.579   0.283   4.203
21512W        W89730  35.887  15.978  12.465
21513W        W89731  42.349  10.729   4.489
21514W        W89732   7.552  20.379  11.145
21515W        W89733  19.787  22.763  12.879
21516W        W89734  41.788   8.267   4.603
21517W        W89735  12.262  14.694  10.782
21518W        W89736  42.588  19.177  11.580
21519W        W89737  18.176  28.212   0.875
21520W        W89738  14.242  32.075   0.961
21521W        W89739   3.767  12.842   2.861
21522W        W89740  28.882  22.288   3.583
21523W        W89741  12.504  34.880   4.113
21524W        W89742  39.254  12.393   1.845
21525W        W89743  19.706  14.760  11.097
21526W        W89744  14.782  37.330   4.200
21527W        W89745   5.551  32.712   0.259
21528W        W89746  20.681  12.150  14.123
21529W        W89747  37.010  18.020  12.817
21530W        W89748   4.357  13.233  14.100
21531W        W89749  16.447  20.215   3.441
21532W        W89750  10.641  38.368   1.434
21533W        W89751  39.123  11.355   0.824
21534W        W89752  34.599  10.850  12.418
21535W        W89753  39.458  44.941  13.824
21536W        W89754  41.717  42.004  13.447
21537W        W89755  28.521   1.931  10.830
21538W        W89756   3.743   4.929   1.255
21539W        W89757  16.315  12.999   4.555
21540W        W89758  21.604  38.618  13.616
21541W        W89759  11.251  17.040   3.333
21542W        W89760  16.121  10.379   3.308
21543W        W89761  12.831   2.028  12.416
21544W        W89762  43.428  15.394   1.352
21545W        W89763  28.675   8.228  14.062
21546W        W89764  37.013   9.961   0.898
21547W        W89765  26.715  33.036   3.492
21548W        W89766  35.929  21.154   4.647
21549W        W89767   4.655   0.887   3.182
21550W        W89768  25.551  44.897  14.757
21551W        W89769  28.502  26.758   5.141
21552W        W89770  24.492  29.199  10.276
21553W        W89771  33.190  15.228   1.828
21554W        W89772  15.880  13.757  12.621
21555W        W89773  23.059  13.558  11.670
21556W        W89774  16.582  26.122   0.759
21557W        W89775  21.241   7.393  14.359
21558W        W89776  31.532  28.489   1.942
21559W        W89777   0.719  17.693   4.588
21560W        W89778  37.150  20.835   3.369
21561W        W89779  27.370  24.618   4.591
21562W        W89780  13.640  33.167   0.331
21563W        W89781  42.563  24.615   2.001
21564W        W89782  23.225  36.273   3.936
21565W        W89783   3.330   8.857   3.822
21566W        W89784   0.288  29.827  14.315
21567W        W89785  35.422  10.526   2.730
21568W        W89786  25.857   7.756   2.069
21569W        W89787  38.362  39.268   3.609
21570W        W89788  35.524   2.531   2.235
21571W        W89789  36.315   8.890   0.262
21572W        W89790   1.270   4.966  10.646
21573W        W89791   9.251  25.635   1.825
21574W        W89792  38.387  42.809  12.862
21575W        W89793  28.554  36.197   4.034
21576W        W89794  39.775  19.548  11.142
21577W        W89795  28.482   1.532   1.703
21578W        W89796  16.012   2.222  13.419
21579W        W89797  17.230   8.861   3.140
21580W        W89798   6.659  18.156  12.905
21581W        W89799   2.051  24.614  11.540
21582W        W89800  18.971  42.764   3.086
21583W        W89801  20.450  44.785   1.697
21584W        W89802  21.013  12.061  14.564
21585W        W89803  19.568  15.632   2.393
21586W        W89804  35.208  31.396   3.446
21587W        W89805  28.237   0.324   2.045
21588W        W89806  14.574  36.440   3.359
21589W        W89807  19.039  25.450   0.420
21590W        W89808  31.995  32.305  11.672
21591W        W89809  29.220  31.401  11.933
21592W        W89810  23.713  14.138  12.677
21593W        W89811  28.879   0.932  14.949
21594W        W89812  38.872  32.266   2.725
21595W        W89813  34.361  20.103  13.282
21596W        W89814  21.077   2.000  13.557
21597W        W89815  19.107  37.095   3.184
21598W        W89816  10.811   8.341  10.915
21599W        W89817   0.490  22.140  13.664
21600W        W89818  28.290  10.814  10.852
21601W        W89819  19.964  23.626   2.266
21602W        W89820   1.004  10.237  10.267
21603W        W89821  10.321  24.963  10.226
21604W        W89822  17.124  34.479  12.096
21605W        W89823  15.575  27.598  12.486
21606W        W89824   6.558  30.390   0.793
21607W        W89825  10.102  42.434   1.987
21608W        W89826   6.648  11.697  13.367
21609W        W89827  31.519  13.166   4.754
21610W        W89828  16.600   6.537  13.669
21611W        W89829  21.318   7.288   0.751
21612W        W89830  33.237  15.848  10.363
21613W        W89831   4.616  42.419  10.727
21614W        W89832  37.385   2.191   4.076
21615W        W89833   2.242  31.411   3.538
21616W        W89834   6.900  25.471  10.998
21617W        W89835  24.547   6.698  14.389
21618W        W89836   1.440  14.866   2.302
21619W        W89837  20.802  28.530   1.452
21620W        W89838  43.082  23.586  11.633
21621W        W89839   9.239  41.057   3.169
21622W        W89840   1.385  22.436  13.353
21623W        W89841  44.315  14.285   2.199
21624W        W89842  32.105  32.836   3.161
21625W        W89843  40.067  37.406  12.384
21626W        W89844  19.589  34.561  13.416
21627W        W89845  21.551  33.939   2.182
21628W        W89846   0.604  27.176   4.679
21629W        W89847  16.193   3.880  13.799
21630W        W89848  41.915  26.613  10.248
21631W        W89849  30.363  26.591  11.733
21632W        W89850  43.698  12.263  14.482
21633W        W89851  13.560  37.443  13.871
21634W        W89852  25.118  29.416  10.448
21635W        W89853  11.402   3.497  14.418
21636W        W89854  43.252  32.079  11.131
21637W        W89855   9.808   4.722  12.888
21638W        W89856   9.690  23.619  10.998
21639W        W89857  18.436  42.459   4.311
21640W        W89858   7.720  24.156   2.669
21641W        W89859   4.975  25.612   0.259
21642W        W89860  23.593  32.750   2.187
21643W        W89861  34.712  24.768   3.340
21644W        W89862  44.749   1.124  10.683
21645W        W89863   1.119   6.973   0.434
21646W        W89864  32.189   4.326  13.550
21647W        W89865   4.368   8.579  11.280
21648W        W89866   2.789  14.621  12.598
21649W        W89867  36.998  43.073  10.717
21650W        W89868  16.784  41.350  13.589
21651W        W89869  30.377  19.300   3.992
21652W        W89870  39.495  35.477  12.351
21653W        W89871   4.273  42.798   2.658
21654W        W89872   8.912  41.809   4.583
21655W        W89873  34.835  41.283  12.395
21656W        W89874  33.058   8.839  10.748
21657W        W89875   2.342   9.136  12.881
21658W        W89876  35.756  35.035   1.245
21659W        W89877  41.746   7.816   4.263
21660W        W89878  29.439  38.923   4.776
21661W        W89879  36.566  33.826   3.353
21662W        W89880  35.317  43.107   2.353
21663W        W89881  23.095   5.020  11.634
21664W        W89882   2.713  39.504  11.462
21665W        W89883  23.640   4.900  12.567
21666W        W89884  39.196   7.917  14.866
21667W        W89885  17.052  18.706   0.356
21668W        W89886  35.929  20.811   0.889
21669W        W89887  13.703  26.641  13.006
21670W        W89888  41.848  25.190  11.435
21671W        W89889   8.112  13.195  13.259
21672W        W89890  31.191  31.736  11.036
21673W        W89891  19.505   9.563  14.052
21674W        W89892  42.330  44.883  10.696
21675W        W89893  28.429  43.824   3.552
21676W        W89894  26.667  41.353  11.256
21677W        W89895  44.492  23.819   0.477
21678W        W89896  22.776  21.994   0.212
21679W        W89897  22.932   9.740  11.544
21680W        W89898  42.307  14.071  11.578
21681W        W89899  40.096  26.537   2.660
21682W        W89900  36.448  10.636   1.217
21683W        W89901  28.199  24.129   1.333
21684W        W89902  40.695  22.291  11.890
21685W        W89903  32.537  34.397   3.377
21686W        W89904  35.052  10.846  11.126
21687W        W89905  35.123  25.632  14.602
21688W        W89906  26.943  20.991   3.847
21689W        W89907  16.709  37.497   2.829
21690W        W89908  12.319  39.508  12.103
21691W        W89909  10.250  34.817  14.696
21692W        W89910  26.471  33.444   4.647
21693W        W89911  37.229   2.851  14.942
21694W        W89912  17.992  26.469  14.834
21695W        W89913  10.832  29.232   1.481
21696W        W89914  29.163   2.036  14.682
21697W        W89915  32.170  24.104  14.496
21698W        W89916  41.702   3.459  14.352
21699W        W89917   4.210  24.656   2.738
21700W        W89918  10.284  19.852   1.294
21701W        W89919  36.526  37.489  11.690
21702W        W89920  31.627  37.982   3.289
21703W        W89921   2.103  38.087  12.127
21704W        W89922   7.999   0.509   2.360
21705W        W89923  29.231  14.281   4.123
21706W        W89924   7.658  31.159  12.985
21707W        W89925  14.297   4.613   2.707
21708W        W89926  36.555  11.691   1.223
21709W        W89927   8.074  35.890  14.310
21710W        W89928   7.349  20.408   4.277
21711W        W89929   1.901   8.235   3.654
21712W        W89930   3.029  14.602   4.518
21713W        W89931  24.560  16.220  13.094
21714W        W89932  24.173  17.749  12.025
21715W        W89933  37.379  37.043  13.026
21716W        W89934   2.002  44.954   2.933
21717W        W89935   9.229  26.999  11.527
21718W        W89936  10.649  32.541  14.531
21719W        W89937  39.253  42.543   4.890
21720W        W89938  18.365  24.512   0.689
21721W        W89939  25.187  42.900  11.593
21722W        W89940   9.205  23.913   2.208
21723W        W89941   1.906   4.929   3.680
21724W        W89942  15.584  20.512  14.087
21725W        W89943  13.754  16.242  11.425
21726W        W89944   2.183  23.079   4.656
21727W        W89945  36.417  16.834   4.202
21728W        W89946  43.283  20.701   4.521
21729W        W89947   2.159   3.381  12.388
21730W        W89948   8.664  30.163   2.272
21731W        W89949  26.037  17.794  13.881
21732W        W89950  41.738  13.331  12.043
21733W        W89951  13.385  35.071   1.364
21734W        W89952   8.771   3.853   1.366
21735W        W89953  18.570  16.114  12.598
21736W        W89954  23.781  34.999   4.666
21737W        W89955  44.523  41.597   2.757
21738W        W89956  19.925  38.289  10.817
21739W        W89957  21.501  12.389  12.629
21740W        W89958  31.011  30.564   0.444
21741W        W89959   0.902  13.928  12.496
21742W        W89960  29.696  28.038  14.870
21743W        W89961  35.029   8.959  14.005
21744W        W89962  37.109   4.715   1.333
21745W        W89963  19.671  32.583   0.854
21746W        W89964  18.111  29.132  14.396
21747W        W89965  29.123  13.215  12.997
21748W        W89966   0.666  13.538   4.467
21749W        W89967   3.800  34.043   2.220
21750W        W89968   7.470  13.174  14.436
21751W        W89969  31.152  33.903  12.544
21752W        W89970  16.648  43.739   0.764
21753W        W89971   6.546   3.563  11.566
21754W        W89972  18.745  39.132   1.446
21755W        W89973  15.051   2.150  13.211
21756W        W89974   2.979  14.309   4.078
21757W        W89975  38.849  25.379  14.394
21758W        W89976  43.091  11.718   5.084
21759W        W89977   5.436  21.448  13.388
21760W        W89978   1.870  39.025   3.702
21761W        W89979  36.292  11.720  10.875
21762W        W89980  32.534  37.904  11.145
21763W        W89981  41.500  25.603  12.747
21764W        W89982   4.804  26.043  13.933
21765W        W89983  33.381  30.662   2.690
21766W        W89984  20.967  30.371   4.201
21767W        W89985  22.692   6.896  11.199
21768W        W89986  37.026   7.860   3.237
21769W        W89987  19.126  43.422   2.152
21770W        W89988  11.102   9.793   0.527
21771W        W89989  30.043  30.015   4.557
21772W        W89990  24.683  44.738  13.931
21773W        W89991  34.760  36.602   4.550
21774W        W89992   5.898  39.143   0.324
21775W        W89993  11.455  40.945   2.291
21776W        W89994  42.455  31.113   3.951
21777W        W89995   7.166  28.026  12.425
21778W        W89996   5.250  29.898   2.857
21779W        W89997  22.579  41.337  14.319
21780W        W89998  36.897  14.195   1.318
21781W        W89999  29.426  44.423   1.894
21782W        W90000  41.105  25.637  13.104
21783W        W90001  34.392  11.623  10.885
21784W        W90002   9.673  25.629  13.099
21785W        W90003  23.374  28.490  14.564
21786W        W90004  42.391  38.428   2.108
21787W        W90005  12.938  39.372  11.312
21788W        W90006  39.347  18.086   1.326
21789W        W90007  39.387  15.525  11.163
21790W        W90008  22.750   7.815  13.375
21791W        W90009  18.894  41.630   0.958
21792W        W90010   1.059  16.764  13.465
21793W        W90011  19.806  41.320   1.284
21794W        W90012  25.228   5.664  12.123
21795W        W90013   3.477  20.381  11.131
21796W        W90014  39.021   9.263  11.777
21797W        W90015  44.262  44.554  14.542
21798W        W90016  40.513  26.516  13.526
21799W        W90017  17.863   7.410  11.604
21800W        W90018  33.267  37.765   2.613
21801W        W90019  14.561  37.861  13.327
21802W        W90020  40.098  27.646  11.564
21803W        W90021  13.894   3.422   1.476
21804W        W90022  42.302  22.686  13.892
21805W        W90023  41.981  36.875   3.322
21806W        W90024  25.618   6.709  12.627
21807W        W90025  28.461  28.327  11.590
21808W        W90026  18.826  14.804   1.750
21809W        W90027  10.708   8.362  12.340
21810W        W90028   9.159  12.826   3.175
21811W        W90029   8.184  31.280  12.914
21812W        W90030  41.473  43.015  12.017
21813W        W90031   9.715  34.098  12.913
21814W        W90032  24.607  24.405  11.098
21815W        W90033  17.261   7.726   1.530
21816W        W90034  31.663  22.171  11.101
21817W        W90035  44.880  24.169   0.322
21818W        W90036  14.151  36.806   1.208
21819W        W90037  34.127  12.848   1.502
21820W        W90038  28.393  22.041  14.017
21821W        W90039  18.398   6.813   4.389
21822W        W90040  10.725  30.902  14.452
21823W        W90041  27.776   5.688  13.960
21824W        W90042  38.597  15.055  13.049
21825W        W90043   7.504   9.782  11.739
21826W        W90044  31.373   2.231  14.784
21827W        W90045  33.637  26.729  12.997
21828W        W90046   7.946  40.371  10.391
21829W        W90047  24.699  17.830   0.036
21830W        W90048  26.694  36.141   0.395
21831W        W90049  40.039  26.094   0.413
21832W        W90050   5.535   8.121   3.628
21833W        W90051  29.958  13.050  11.637
21834W        W90052  27.210  16.787  10.575
21835W        W90053   7.778   9.167  14.923
21836W        W90054  14.362   4.997   1.810
21837W        W90055  27.091  17.616   3.052
21838W        W90056  12.126  25.216   4.442
21839W        W90057   2.025   5.252   4.105
21840W        W90058  25.189  35.451  11.286
21841W        W90059  20.044  18.053   1.769
21842W        W90060  25.816   1.390  14.165
21843W        W90061  43.565   2.253   3.867
21844W        W90062  20.563  36.215   0.715
21845W        W90063   7.919  15.236   0.116
21846W        W90064  43.546  24.198  14.956
21847W        W90065  37.842  21.163  10.940
21848W        W90066  11.666  30.814   4.028
21849W        W90067  13.665   0.570   0.750
21850W        W90068  15.586  42.777   4.726
21851W        W90069  44.806  44.890  11.891
21852W        W90070  10.907  30.023  12.345
21853W        W90071   1.244  27.204   0.970
21854W        W90072  21.363  21.099  13.033
21855W        W90073  35.215  27.388   3.521
21856W        W90074  27.669  11.244  13.525
21857W        W90075   0.954  26.198   2.791
21858W        W90076   9.375  41.345   0.057
21859W        W90077  21.183  15.583   3.668
21860W        W90078  35.580   8.585   2.361
21861W        W90079  14.633  12.361  14.497
21862W        W90080  38.883  13.374   3.369
21863W        W90081  18.753  38.766   3.587
21864W        W90082  19.308  25.919   1.313
21865W        W90083   5.745  29.529  11.055
21866W        W90084  13.761  37.139  11.524
21867W        W90085  15.806  36.987  11.142
21868W        W90086  32.403  32.217  13.829
21869W        W90087  18.475  27.550   3.132
21870W        W90088  31.872   6.786  13.486
21871W        W90089  15.582  28.268   5.061
21872W        W90090  27.611  43.022   4.340
21873W        W90091  42.605  36.450  13.016
21874W        W90092  39.950  18.490  13.678
21875W        W90093   4.934   1.554   4.954
21876W        W90094  42.900  41.861  13.709
21877W        W90095  42.043  44.864  12.527
21878W        W90096  23.028  28.487   4.855
21879W        W90097  14.854  44.388  12.449
21880W        W90098  28.195  43.339  13.212
21881W        W90099  39.306  14.685   4.100
21882W        W90100  20.937  42.626  14.080
21883W        W90101  40.479  16.989  14.777
21884W        W90102  21.245  42.864   2.793
21885W        W90103   5.714  15.541  13.541
21886W        W90104  38.903  17.886  10.562
21887W        W90105   5.031  10.421  11.012
21888W        W90106   3.849  19.076  11.523
21889W        W90107  18.184  15.156  13.477
21890W        W90108  41.565  23.335  11.663
21891W        W90109  32.652  17.240   0.331
21892W        W90110  32.649  10.794  14.242
21893W        W90111  29.351  34.478   3.669
21894W        W90112  11.390  13.304   1.494
21895W        W90113   4.406   3.891   0.423
21896W        W90114  30.675  44.026   2.132
21897W        W90115  29.710   0.976   2.700
21898W        W90116  19.844  18.834   0.315
21899W        W90117  40.930  10.311   1.332
21900W        W90118   9.400  16.365   3.558
21901W        W90119  22.272  38.046   2.277
21902W        W90120  39.343   0.920  11.313
21903W        W90121  41.547  32.008   1.868
21904W        W90122  41.036   4.131  10.058
21905W        W90123  29.470  44.753  12.843
21906W        W90124  14.050  19.171  12.086
21907W        W90125  17.117  43.445  10.060
21908W        W90126  12.827  39.801   0.108
21909W        W90127   7.343  20.737   2.339
21910W        W90128  30.384  18.553  13.255
21911W        W90129  36.306   1.420  14.831
21912W        W90130  19.592  10.618   3.306
21913W        W90131   7.054  37.844  14.383
21914W        W90132  17.000   6.768   2.809
21915W        W90133  25.007   5.332  14.321
21916W        W90134  39.982  40.095   1.542
21917W        W90135   3.903  42.887   0.446
21918W        W90136  29.411  22.634  14.657
21919W        W90137  14.705  28.720  12.465
21920W        W90138  14.830  38.851  13.578
21921W        W90139  38.032  21.422   2.813
21922W        W90140  15.756   6.490   1.811
21923W        W90141  28.088   5.564   3.270
21924W        W90142  43.804  34.481  10.686
21925W        W90143  21.253  21.584  14.984
21926W        W90144  10.296  43.030   4.583
21927W        W90145  29.914   3.262   5.317
21928W        W90146   2.809  11.863   4.179
21929W        W90147  39.447  20.966   4.788
21930W        W90148  37.561  25.578  11.666
21931W        W90149  24.564  30.566  14.733
21932W        W90150  14.939  33.938   3.762
21933W        W90151  36.362  37.311  14.535
21934W        W90152  23.997  38.396   4.627
21935W        W90153   7.078   9.356   0.989
21936W        W90154  42.871  14.326  10.367
21937W        W90155  42.077  39.807  11.637
21938W        W90156  19.016  37.402  12.369
21939W        W90157  18.703  19.129   4.641
21940W        W90158  36.696  19.355  14.090
21941W        W90159   7.942  25.893   0.815
21942W        W90160  30.465  35.449   2.587
21943W        W90161  42.815  26.595  10.300
21944W        W90162  14.217  24.097  14.715
21945W        W90163  18.364   9.090   3.697
21946W        W90164   3.350  15.343   0.696
21947W        W90165   0.435  37.903   1.308
21948W        W90166   1.773  11.092   4.131
21949W        W90167  15.827  38.954   4.066
21950W        W90168  18.616  39.614  14.769
21951W        W90169  23.102  15.788  10.994
21952W        W90170   6.924  36.739  11.325
21953W        W90171  23.113   3.552   1.860
21954W        W90172   6.937  31.946   2.643
21955W        W90173   4.135  36.605   4.669
21956W        W90174  24.070  12.885  14.869
21957W        W90175  15.298  31.612   1.408
21958W        W90176  26.481  28.464   3.610
21959W        W90177  21.409  23.762   2.760
21960W        W90178  27.430  18.030  14.420
21961W        W90179  41.137  41.323   4.184
21962W        W90180  12.171  34.977   4.882
21963W        W90181   6.666   0.308  10.943
21964W        W90182  10.233   5.316  13.389
21965W        W90183  14.314  32.598  14.288
21966W        W90184  34.619  40.377   3.406
21967W        W90185  19.419  33.514   1.355
21968W        W90186  21.701  36.056   4.545
21969W        W90187   3.442  20.756  12.426
21970W        W90188  30.766   9.319   1.953
21971W        W90189  30.596  16.035   2.354
21972W        W90190  19.880  13.085  10.302
21973W        W90191  39.986  23.474  14.042
21974W        W90192  32.568  42.331  12.575
21975W        W90193   1.505  33.595   2.795
21976W        W90194  14.318  42.647  10.272
21977W        W90195   0.754  11.677  10.730
21978W        W90196  22.586  31.977  14.286
21979W        W90197  34.668  31.464  12.931
21980W        W90198  12.158  23.145  13.540
21981W        W90199  43.777  32.344   4.189
21982W        W90200  20.096  18.631   2.961
21983W        W90201  16.199  41.151  10.727
21984W        W90202  28.488  19.877   1.425
21985W        W90203   4.359  17.670   2.794
21986W        W90204  19.255  16.386   2.272
21987W        W90205  26.029  36.454  13.418
21988W        W90206  17.540  33.013   4.721
21989W        W90207  10.762  29.597   2.942
21990W        W90208  35.566  37.904   3.652
21991W        W90209  36.794  24.471  12.401
21992W        W90210  26.122  12.111   0.005
21993W        W90211  16.324  14.674   1.366
21994W        W90212  34.672  29.890   0.364
21995W        W90213  40.570   9.415  14.023
21996W        W90214  34.203  16.060  13.378
21997W        W90215  27.905   0.615   5.055
21998W        W90216  31.947  39.099  14.392
21999W        W90217  24.770   0.760   2.330
22000W        W90218  33.881  12.806  11.160
22001W        W90219  26.943  39.244  10.683
22002W        W90220  41.705  43.524   3.544
22003W        W90221  32.393   4.672  14.852
22004W        W90222   4.191  43.784  12.862
22005W        W90223  37.046   2.141   1.651
22006W        W90224  28.860   1.019   2.508
22007W        W90225  18.099   7.893   4.214
22008W        W90226  13.603   2.279  13.904
22009W        W90227  35.494   4.987   3.286
22010W        W90228  30.432  29.468  13.904
22011W        W90229  31.465  29.533   4.095
22012W        W90230   6.127  34.436  12.105
22013W        W90231  11.834  32.204  12.311
22014W        W90232  29.929  10.995  11.708
22015W        W90233  16.556  40.918  12.286
22016W        W90234   0.886   8.845   4.698
22017W        W90235  40.528  41.969  13.820
22018W        W90236  34.586  29.094  13.911
22019W        W90237  18.114  12.160  14.436
22020W        W90238  36.337  21.180   3.661
22021W        W90239  11.624  21.065  10.844
22022W        W90240  26.720  28.522  12.838
22023W        W90241  19.218  39.226  12.089
22024W        W90242   7.440  42.007  10.334
22025W        W90243  35.868   9.651   1.765
22026W        W90244  41.153   0.714  13.853
22027W        W90245  15.240  11.984   1.156
22028W        W90246   8.248  16.334  11.663
22029W        W90247   2.833  18.122  12.419
22030W        W90248  14.798  32.973   2.984
22031W        W90249  35.890  12.141   1.831
22032W        W90250   5.442  36.366  12.066
22033W        W90251  23.411   2.537   1.254
22034W        W90252  21.740  35.466   2.479
22035W        W90253  18.193  25.173  12.673
22036W        W90254   6.316   1.018   2.360
22037W        W90255  32.736  11.973   2.336
22038W        W90256  10.701  19.532   1.897
22039W        W90257  14.730  20.989  10.596
22040W        W90258  39.420  27.961  12.015
22041W        W90259  14.719  27.691  11.091
22042W        W90260  16.980  36.624  10.471
22043W        W90261  34.841  43.920   1.399
22044W        W90262   4.124  28.374   3.761
22045W        W90263  26.533  42.606  11.681
22046W        W90264  41.174   8.394  12.571
22047W        W90265   8.700  42.211   2.766
22048W        W90266   9.091   2.767   2.950
22049W        W90267  44.021  31.984  10.649
22050W        W90268  17.135  10.200   3.171
22051W        W90269  41.430   2.509   4.546
22052W        W90270   6.694  43.880  10.079
22053W        W90271  28.178  29.895  10.686
22054W        W90272  17.714  44.343   2.137
22055W        W90273  30.667  43.475  12.225
22056W        W90274  32.182  19.813   0.449
22057W        W90275  39.848  24.709   2.403
22058W        W90276   4.344  29.404   2.568
22059W        W90277   9.708  14.250  11.833
22060W        W90278  41.389  25.438   4.606
22061W        W90279  27.756  12.004   3.856
22062W        W90280  22.242  43.521  12.948
22063W        W90281   9.812  19.813  14.932
22064W        W90282   1.012   4.304  14.994
22065W        W90283  30.436  29.897   2.769
22066W        W90284  38.214  11.856  14.205
22067W        W90285  12.715  34.989  11.937
22068W        W90286   3.320  31.361  14.071
22069W        W90287  29.386  40.400  10.884
22070W        W90288  15.035  43.141  10.202
22071W        W90289  37.681   6.900  11.966
22072W        W90290  33.674  16.398  12.028
22073W        W90291   5.207   5.704  12.600
22074W        W90292   3.352  41.833  14.536
22075W        W90293  40.580  29.453   3.376
22076W        W90294  29.463  10.213  11.963
22077W        W90295   8.962  24.873   1.817
22078W        W90296   0.738  34.397   0.725
22079W        W90297  43.049  30.549   3.707
22080W        W90298   6.964  44.809  12.026
22081W        W90299  20.724  13.668  14.495
22082W        W90300  24.201  38.679  14.318
22083W        W90301  37.410  33.062  13.646
22084W        W90302  16.204  36.899   4.437
22085W        W90303  32.511  40.480  11.591
22086W        W90304   7.899  31.351   2.711
22087W        W90305  33.454  29.749  12.674
22088W        W90306  38.984  43.358   2.158
22089W        W90307  33.777  44.361  13.830
22090W        W90308  41.895  25.403  14.815
22091W        W90309  42.321  10.654  11.294
22092W        W90310   3.940   8.141   2.832
22093W        W90311  11.830  16.167  10.478
22094W        W90312   6.708   6.325  13.995
22095W        W90313  12.045   8.748   3.276
22096W        W90314   9.925  37.389  10.611
22097W        W90315  15.043  33.240  13.010
22098W        W90316  27.367  19.009   0.426
22099W        W90317  18.302  34.669   3.806
22100W        W90318  12.811   1.227  12.029
22101W        W90319  39.159   4.096  14.904
22102W        W90320  41.796  19.029   4.632
22103W        W90321   1.258  18.809  12.957
22104W        W90322  40.994  29.655  10.872
22105W        W90323  43.554  21.269  13.906
22106W        W90324  26.363  40.172   4.287
22107W        W90325  19.048  28.089  11.991
22108W        W90326  43.565   1.520   2.250
22109W        W90327  24.877   8.925  11.533
22110W        W90328   6.400   2.271   4.152
22111W        W90329   9.347  12.612   2.680
22112W        W90330  33.578   5.142   4.116
22113W        W90331  44.315  34.074  12.005
22114W        W90332  30.507  25.455   0.242
22115W        W90333  25.106   3.160   1.355
22116W        W90334  26.275  19.805   0.393
22117W        W90335   5.487   4.753  14.268
22118W        W90336  15.143  10.780   2.166
22119W        W90337  13.256  35.661  14.671
22120W        W90338   8.141   4.871  11.031
22121W        W90339  34.340   1.621  12.418
22122W        W90340  39.076  26.730   9.818
22123W        W90341  13.105  12.653  13.691
22124W        W90342  44.495  39.448   1.933
22125W        W90343  19.616  33.068   0.480
22126W        W90344  42.801   6.006   1.879
22127W        W90345   7.266  23.388   0.430
22128W        W90346  39.569  15.505   2.187
22129W        W90347  34.418  25.564   1.870
22130W        W90348  24.928   7.695   3.302
22131W        W90349  36.218  41.109  11.213
22132W        W90350   2.377  29.678  12.526
22133W        W90351  35.520   2.354  13.005
22134W        W90352  28.562  33.936  14.585
22135W        W90353  13.758  11.628   3.321
22136W        W90354  28.433  40.461   0.510
22137W        W90355  22.741   0.026   1.236
22138W        W90356  39.614  42.736  11.882
22139W        W90357  29.597   2.134   2.482
22140W        W90358  27.811  16.512   3.150
22141W        W90359  26.642  32.288   0.867
22142W        W90360  17.372  32.053   1.994
22143W        W90361  15.231  11.318  11.139
22144W        W90362  20.715  18.002   3.154
22145W        W90363  13.286   7.218  12.934
22146W        W90364   4.155  39.615  10.682
22147W        W90365  32.672   7.293   4.580
22148W        W90366  39.376   4.653  10.685
22149W        W90367   4.851  19.866  10.095
22150W        W90368   7.859  30.603   2.319
22151W        W90369  41.835  43.914  13.551
22152W        W90370   1.728  27.154   2.825
22153W        W90371  15.585  32.950  11.616
22154W        W90372   4.020  12.450   1.199
22155W        W90373  40.559  28.688   2.417
22156W        W90374  10.012  17.761  11.625
22157W        W90375  31.051   9.342  14.209
22158W        W90376  21.195  38.479  10.492
22159W        W90377   2.135  28.014   3.385
22160W        W90378  17.108  37.601   0.899
22161W        W90379  16.345   3.877   1.357
22162W        W90380   3.713  24.315   3.614
22163W        W90381  33.391  20.078   3.728
22164W        W90382  16.328  15.849   2.502
22165W        W90383  23.105  27.629   0.848
22166W        W90384   1.181  32.072  13.939
22167W        W90385   0.508  19.241   3.028
22168W        W90386  32.991  39.353  10.706
22169W        W90387  40.970  10.144   1.837
22170W        W90388  35.490   3.265  10.931
22171W        W90389  32.834  27.035  13.372
22172W        W90390  44.773  25.133   4.038
22173W        W90391  23.640  30.139  12.411
22174W        W90392  16.087   5.448   3.814
22175W        W90393  18.487   4.592  12.873
22176W        W90394   8.860  42.588   3.607
22177W        W90395  35.723  32.482   0.098
22178W        W90396  25.054  19.657  11.583
22179W        W90397  37.680   4.670  11.727
22180W        W90398  17.813  22.195  14.503
22181W        W90399  16.664  33.063   3.171
22182W        W90400   4.594  35.558   4.654
22183W        W90401  12.089  32.551  13.830
22184W        W90402  39.518   4.448  12.098
22185W        W90403  35.043  20.986  11.155
22186W        W90404  40.935  24.995  14.520
22187W        W90405  16.241  39.490  14.972
22188W        W90406   6.350  33.062   4.562
22189W        W90407  31.531  18.106   1.779
22190W        W90408  31.623  18.971  11.243
22191W        W90409  39.997  44.007  12.947
22192W        W90410  25.568  31.741   4.599
22193W        W90411  10.018  16.695   1.777
22194W        W90412   6.424  32.259   1.064
22195W        W90413  30.333  38.994  10.909
22196W        W90414  36.638  32.459  13.531
22197W        W90415  23.590  12.560  12.365
22198W        W90416  14.361  11.797  11.936
22199W        W90417   1.427   2.958   4.451
22200W        W90418  13.602  43.813  11.590
22201W        W90419  16.309   6.405   4.827
22202W        W90420  26.923   0.696   1.061
22203W        W90421   0.471  35.372   0.519
22204W        W90422   1.723  36.007   2.763
22205W        W90423  41.837  42.320  10.787
22206W        W90424  26.362  16.864  12.369
22207W        W90425  24.627  27.683  11.176
22208W        W90426  19.708   9.608  11.505
22209W        W90427  18.060   0.322   9.934
22210W        W90428  22.618  11.777  12.772
22211W        W90429   4.833  44.701   3.860
22212W        W90430  16.151  11.082   4.383
22213W        W90431   2.646  22.799  14.796
22214W        W90432  40.514  12.515  12.976
22215W        W90433  24.483   1.365   3.137
22216W        W90434  19.626  38.193   2.800
22217W        W90435  13.202  34.925  12.991
22218W        W90436  20.838  44.981   4.201
22219W        W90437  34.296  10.894  12.869
22220W        W90438  19.351  17.084  11.999
22221W        W90439  10.142   8.901   3.098
22222W        W90440  31.380   3.360   0.920
22223W        W90441  16.585  28.470  11.032
22224W        W90442  36.921  29.384  12.958
22225W        W90443  25.184  31.235   1.269
22226W        W90444   8.387  14.259  12.498
22227W        W90445  19.213  39.461  12.547
22228W        W90446  30.461  21.989   4.671
22229W        W90447  22.158  23.139  14.855
22230W        W90448  37.850  39.381  14.334
22231W        W90449  38.850  27.618  10.782
22232W        W90450  38.465  20.340   4.893
22233W        W90451  30.631  26.097  12.552
22234W        W90452   1.439  43.132  12.079
22235W        W90453  20.282   7.913   3.108
22236W        W90454  34.870  19.226  13.566
22237W        W90455  16.982   8.761  14.908
22238W        W90456  17.626   8.967  14.076
22239W        W90457  21.576  27.859   4.414
22240W        W90458  24.577   3.313  12.923
22241W        W90459  12.328   2.429   4.646
22242W        W90460  18.622  41.620   2.405
22243W        W90461   7.822  27.453   3.583
22244W        W90462   4.652   2.724   4.705
22245W        W90463  15.344  41.128  10.480
22246W        W90464   2.218  14.162   0.861
22247W        W90465  15.269  27.157   2.470
22248W        W90466  19.443  13.764   0.474
22249W        W90467  38.538  18.817  11.572
22250W        W90468   4.004  33.470   1.295
22251W        W90469  23.957  31.822   0.650
22252W        W90470  21.741   2.940   2.924
22253W        W90471   9.869   0.055  12.867
22254W        W90472   4.468  35.122   3.786
22255W        W90473  12.548  44.312   3.325
22256W        W90474   6.756  14.932  13.025
22257W        W90475  30.346  44.872   0.946
22258W        W90476  10.809  44.264  10.089
22259W        W90477  36.484  41.329   3.417
22260W        W90478  43.824  20.071   0.753
22261W        W90479  36.561   8.369  14.639
22262W        W90480  27.999  18.054  11.122
22263W        W90481   9.858   9.065   4.615
22264W        W90482   5.392  19.357   0.445
22265W        W90483  36.866  32.352  14.499
22266W        W90484  12.099   0.173  14.818
22267W        W90485  39.111  17.812   1.738
22268W        W90486  35.383  42.574  14.759
22269W        W90487  29.248  12.213   2.774
22270W        W90488  23.218  22.700  13.098
22271W        W90489  21.694   4.118  14.977
22272W        W90490  30.167  14.870   2.542
22273W        W90491  42.238   7.851   3.318
22274W        W90492  14.441  27.702   0.069
22275W        W90493  23.555  33.416  14.853
22276W        W90494  23.247  17.568   1.343
22277W        W90495  13.288  21.311  14.712
22278W        W90496  33.893  17.803  11.063
22279W        W90497  44.016   5.309   2.965
22280W        W90498  21.005  14.825   0.393
22281W        W90499  28.333  37.972   2.849
22282W        W90500  16.787  12.756  11.614
22283W        W90501  44.459   8.359  12.383
22284W        W90502   0.518  27.080  11.643
22285W        W90503  43.927  39.907  11.587
22286W        W90504  17.167  12.255  14.865
22287W        W90505  39.414  20.635   1.481
22288W        W90506  22.550  11.810   0.266
22289W        W90507  43.820  23.038  12.344
22290W        W90508  44.787  28.665  14.917
22291W        W90509  21.981   3.974  14.556
22292W        W90510  10.203  35.653   2.639
22293W        W90511  28.532  23.776   4.586
22294W        W90512  24.177   1.861   4.498
22295W        W90513  14.510  39.859   2.385
22296W        W90514  39.087  30.157  13.381
22297W        W90515  19.948  18.264  13.482
22298W        W90516  34.878   4.908  10.178
22299W        W90517  39.311  33.674  14.402
22300W        W90518  27.360  36.028   2.777
22301W        W90519  39.479  34.560  12.840
22302W        W90520  41.064  43.934   0.902
22303W        W90521  32.415   4.628   3.136
22304W        W90522  13.237  28.124   2.732
22305W        W90523  24.758  13.155   0.322
22306W        W90524  11.259   0.610   4.851
22307W        W90525  33.899   8.147   2.768
22308W        W90526  36.657  21.710   1.930
22309W        W90527  27.080  15.588   0.832
22310W        W90528  36.896  11.210   2.154
22311W        W90529  30.905  26.083  13.832
22312W        W90530  18.304  39.771   4.560
22313W        W90531  18.518  13.276  13.955
22314W        W90532   4.255   9.649   1.630
22315W        W90533  36.899  11.886   4.588
22316W        W90534  18.829   0.628   2.677
22317W        W90535  28.154   7.754  13.112
22318W        W90536   7.716  14.105  14.123
22319W        W90537   8.586  13.273   1.000
22320W        W90538  38.598  27.708   0.495
22321W        W90539   4.240  36.050   1.793
22322W        W90540   6.915  38.315  14.225
22323W        W90541  14.306  13.098  12.854
22324W        W90542  15.711  20.037   5.021
22325W        W90543   1.263  33.912  14.234
22326W        W90544  25.858  44.913   3.691
22327W        W90545  11.765   5.622   3.750
22328W        W90546   9.113  16.386   0.367
22329W        W90547  32.603  40.915  10.572
22330W        W90548  14.336   2.831   4.219
22331W        W90549  16.708  22.761  14.334
22332W        W90550  32.581   3.805  12.076
22333W        W90551   3.791  36.537  11.130
22334W        W90552   4.738  13.311   4.816
22335W        W90553  15.038  36.141  13.868
22336W        W90554  38.340  15.606  12.977
22337W        W90555  23.296   8.491   0.435
22338W        W90556   3.846  14.478  11.700
22339W        W90557   4.876  34.791   2.891
22340W        W90558  19.740  25.605   3.117
22341W        W90559   1.899  41.181   4.678
22342W        W90560  19.319  42.108   3.953
22343W        W90561  29.403  21.684  13.342
22344W        W90562  10.341  10.247   4.722
22345W        W90563  34.451  38.985  11.730
22346W        W90564   3.332  13.854  10.687
22347W        W90565  21.700  12.916  14.465
22348W        W90566  28.638   5.741   2.897
22349W        W90567   8.812  32.145   4.798
22350W        W90568  40.470  40.614  11.661
22351W        W90569  15.873   9.132  14.332
22352W        W90570  21.909   3.721  11.589
22353W        W90571  30.167  29.978   2.215
22354W        W90572  23.720  37.686   3.408
22355W        W90573  28.499  16.698   4.524
22356W        W90574  32.684  21.018   4.218
22357W        W90575  35.936  23.593   2.747
22358W        W90576   9.233  24.179   1.212
22359W        W90577  36.826  26.256  10.599
22360W        W90578   7.974  27.706  12.065
22361W        W90579  42.898  25.102  12.092
22362W        W90580   5.455  29.593  12.340
22363W        W90581  41.525  35.297   3.173
22364W        W90582  24.910  35.137  13.394
22365W        W90583   4.405  36.972   1.717
22366W        W90584  13.904  35.017   0.445
22367W        W90585  26.471  33.866   1.724
22368W        W90586   0.131  10.379  11.773
22369W        W90587  13.410  21.141  10.257
22370W        W90588  11.837  25.457  11.127
22371W        W90589  44.810  13.134   3.339
22372W        W90590  30.473   6.588  10.711
22373W        W90591  24.318  38.116   4.195
22374W        W90592  28.375  23.759  13.375
22375W        W90593  36.494   2.430  12.159
22376W        W90594  20.456   3.039   3.166
22377W        W90595  41.222  26.858   3.259
22378W        W90596  42.322  29.141  14.974
22379W        W90597  39.099  27.225  10.570
22380W        W90598  41.872  33.676  12.189
22381W        W90599  41.903  10.712  11.612
22382W        W90600  28.669  39.510   0.669
22383W        W90601   0.371  29.424  13.980
22384W        W90602  32.132  41.379   3.081
22385W        W90603  21.220  40.886   3.666
22386W        W90604  17.559  23.302   1.822
22387W        W90605   9.271  22.294   4.695
22388W        W90606  40.326   8.830   4.591
22389W        W90607  44.973   6.418  12.935
22390W        W90608   3.164  13.662  14.287
22391W        W90609  33.003  38.358   4.601
22392W        W90610  40.296  10.895  11.964
22393W        W90611   6.930  24.099  14.436
22394W        W90612  37.517   6.941   1.399
22395W        W90613  12.747  30.111   1.954
22396W        W90614  39.058  37.834  13.405
22397W        W90615  21.101  17.770   4.286
22398W        W90616  34.660  21.235   2.809
22399W        W90617  12.706   7.089  10.532
22400W        W90618  12.855  26.737  11.898
22401W        W90619  33.354  20.981   0.721
22402W        W90620  37.399  12.588   0.789
22403W        W90621  44.982  28.757  13.893
22404W        W90622  44.333  26.261  13.645
22405W        W90623  33.045  34.496   4.736
22406W        W90624  19.511  12.210   4.886
22407W        W90625  36.419   1.510   4.738
22408W        W90626  36.862  28.020   4.548
22409W        W90627  16.833  31.889  14.816
22410W        W90628  24.984  22.418  10.157
22411W        W90629  21.850  18.788   0.653
22412W        W90630  43.944  21.835  12.828
22413W        W90631  27.737  28.973   4.053
22414W        W90632   7.768   2.100  11.009
22415W        W90633  14.100   9.316  12.114
22416W        W90634  35.358   8.046   3.606
22417W        W90635   2.859  24.933   4.279
22418W        W90636  29.122  25.883   0.445
22419W        W90637  35.778   9.183   2.909
22420W        W90638  23.750   7.259  13.057
22421W        W90639  40.793  22.057  13.370
22422W        W90640  11.721   3.762   3.894
22423W        W90641   2.873  31.265   2.386
22424W        W90642  38.995  25.195  11.954
22425W        W90643  24.644  12.172  13.368
22426W        W90644   8.185  18.187  11.495
22427W        W90645   7.947  12.719  11.047
22428W        W90646  32.988  22.766   4.719
22429W        W90647  28.309  27.590  13.439
22430W        W90648  13.549  39.002   3.407
22431W        W90649  15.168  43.851   2.259
22432W        W90650  44.607  39.538   4.557
22433W        W90651  11.706   7.675  11.014
22434W        W90652  10.346   7.249   2.237
22435W        W90653  42.425  20.722   1.647
22436W        W90654   8.509  22.227   2.382
22437W        W90655  24.502  37.872   1.936
22438W        W90656  13.741   9.101  11.163
22439W        W90657  29.466  41.562  12.606
22440W        W90658  30.076  17.485   2.608
22441W        W90659  34.541  34.447   1.594
22442W        W90660   3.022  24.940  13.854
22443W        W90661  27.584  34.317  11.138
22444W        W90662   9.661  18.112   0.928
22445W        W90663  39.794  40.281  11.111
22446W        W90664   4.405  18.225  10.520
22447W        W90665  41.868   6.422   2.746
22448W        W90666  36.890  14.874   2.747
22449W        W90667  23.187  23.687  11.430
22450W        W90668  38.089  31.121  14.040
22451W        W90669  17.510  39.640  12.402
22452W        W90670  42.829   2.787   4.775
22453W        W90671  14.159  39.316   3.658
22454W        W90672  24.793  44.620  10.872
22455W        W90673  11.903  11.781  14.444
22456W        W90674  11.510   3.381   4.208
22457W        W90675  39.540  43.276  12.006
22458W        W90676  29.189  11.390   1.788
22459W        W90677  28.503  22.987   2.215
22460W        W90678   9.828  37.300   0.401
22461W        W90679  43.046  31.797   3.260
22462W        W90680   8.924  35.537  10.687
22463W        W90681  17.811  40.376  13.898
22464W        W90682   9.718  18.627   1.751
22465W        W90683   7.358  10.209   0.895
22466W        W90684   8.757   5.750  13.535
22467W        W90685  44.809  17.731   0.948
22468W        W90686  20.021  36.946   1.695
22469W        W90687   5.221  32.846  12.489
22470W        W90688  13.801  15.572   0.438
22471W        W90689   1.141  17.934  12.039
22472W        W90690  30.495   1.524   3.760
22473W        W90691   2.977  27.572   3.883
22474W        W90692  10.166  27.986   0.661
22475W        W90693   7.853  10.131  10.710
22476W        W90694  44.764  36.814  13.307
22477W        W90695  32.450  13.892   3.278
22478W        W90696  26.297   6.770   0.687
22479W        W90697  10.221  40.251   0.685
22480W        W90698  11.734  43.315   0.039
22481W        W90699  13.496  38.431   4.131
22482W        W90700  22.077  11.405   1.237
22483W        W90701  35.189  28.934  13.355
22484W        W90702   5.483  41.078  12.614
22485W        W90703   4.406  30.566  12.899
22486W        W90704   4.517  26.752   2.703
22487W        W90705   8.179  17.713   2.255
22488W        W90706  25.740  35.896  11.937
22489W        W90707  43.566  36.712   0.327
22490W        W90708  14.234  29.468   0.362
22491W        W90709  19.070  34.625   2.350
22492W        W90710  21.569  32.327  13.830
22493W        W90711  44.817  20.603  13.267
22494W        W90712  19.543  37.453  11.021
22495W        W90713   5.489   0.832  12.104
22496W        W90714  40.447  15.702  14.289
22497W        W90715  30.511   8.918  12.050
22498W        W90716  26.953   7.724   0.433
22499W        W90717  37.394  16.529   3.139
22500W        W90718  28.661  30.006  13.034
22501W        W90719  17.221  20.679   2.813
22502W        W90720  31.530  38.032  14.036
22503W        W90721  36.611  13.698   4.355
22504W        W90722   8.193   2.926   0.451
22505W        W90723  12.819  11.869  12.859
22506W        W90724  41.590  32.469  12.981
22507W        W90725  23.658  24.983   2.222
22508W        W90726  25.410   1.265   4.031
22509W        W90727  43.263  30.076   4.871
22510W        W90728  29.221  14.129   3.383
22511W        W90729  16.624  13.339   2.364
22512W        W90730   4.924  14.695  11.906
22513W        W90731  25.466  11.826  14.355
22514W        W90732   8.595  29.685   5.091
22515W        W90733  11.123  43.775  12.840
22516W        W90734  20.546  18.930   2.245
22517W        W90735  21.688  30.670  11.658
22518W        W90736   3.746  39.956  14.853
22519W        W90737  25.977   9.340   3.754
22520W        W90738  28.282  22.059   3.257
22521W        W90739  18.812  35.434   3.369
22522W        W90740  33.778  38.873  10.644
22523W        W90741   0.221  19.036   1.293
22524W        W90742  26.536  25.206  12.041
22525W        W90743  40.848  39.818   0.444
22526W        W90744   4.947  33.225  14.823
22527W        W90745   5.475  29.953  11.219
22528W        W90746  33.098  24.766  14.204
22529W        W90747   9.445  27.878  11.439
22530W        W90748  24.455  29.510  13.345
22531W        W90749  15.645   1.428  14.886
22532W        W90750   1.560  42.833  14.049
22533W        W90751  23.223  15.613   2.148
22534W        W90752   4.666  23.466  12.132
22535W        W90753  39.310  31.789   0.399
22536W        W90754  38.103  41.907  12.979
22537W        W90755  31.856  38.381  12.566
22538W        W90756  14.837  38.342  13.392
22539W        W90757  31.962   2.705  10.561
22540W        W90758  13.475   7.719  14.161
22541W        W90759   8.355  29.528   4.595
22542W        W90760   5.765  20.476  10.698
22543W        W90761  21.676  16.758  11.746
22544W        W90762  39.749  11.898  13.495
22545W        W90763  38.018  34.139  14.613
22546W        W90764  18.208   5.662  13.798
22547W        W90765  37.262   9.361  14.492
22548W        W90766  11.101  34.494  12.634
22549W        W90767   3.414  43.271   4.449
22550W        W90768  38.946  34.078   1.980
22551W        W90769  20.746  38.550   3.304
22552W        W90770  20.316  15.812  10.657
22553W        W90771   7.244  35.802  13.967
22554W        W90772  23.773  29.367  14.466
22555W        W90773  26.090  17.750   3.429
22556W        W90774  38.052  34.323  13.003
22557W        W90775  28.971  16.377  14.383
22558W        W90776  18.558  13.882   3.665
22559W        W90777  30.932  18.943  12.336
22560W        W90778   5.405   5.972  11.175
22561W        W90779   6.166   3.182   2.845
22562W        W90780  21.972   1.892   1.262
22563W        W90781   3.327  38.399   3.441
22564W        W90782   0.426  37.078   0.471
22565W        W90783   2.644  10.139   2.766
22566W        W90784  24.665  24.826  10.795
22567W        W90785  22.193  33.660  13.577
22568W        W90786  33.514   9.772   0.964
22569W        W90787  38.210   5.916   2.568
22570W        W90788   3.270  36.704   4.271
22571W        W90789  15.573  19.017   2.776
22572W        W90790  16.219   6.245   1.907
22573W        W90791  15.815  26.989   3.192
22574W        W90792  29.421  31.886  12.005
22575W        W90793  27.748  20.733   3.907
22576W        W90794  28.014  33.106   1.666
22577W        W90795  41.100  12.223   2.750
22578W        W90796  41.568  38.013   1.706
22579W        W90797  33.948   6.173   3.105
22580W        W90798  40.288  18.246   2.753
22581W        W90799  21.299   2.730  11.936
22582W        W90800  20.549  12.194   4.022
22583W        W90801  30.105  26.024   4.228
22584W        W90802   6.172  10.443  13.791
22585W        W90803  28.080   9.123  13.160
22586W        W90804  14.532  21.056   0.782
22587W        W90805  19.136  14.996   0.000
22588W        W90806  15.765  34.108  14.801
22589W        W90807  33.351  27.041  13.393
22590W        W90808  25.775  42.964   4.551
22591W        W90809  20.594  10.777   3.373
22592W        W90810  30.037  15.696   1.871
22593W        W90811  11.364  21.577  14.876
22594W        W90812  23.921  32.511  11.727
22595W        W90813   3.522  12.545  13.159
22596W        W90814  30.905  35.659  12.066
22597W        W90815  12.969  11.091   4.219
22598W        W90816  37.307   2.055   0.496
22599W        W90817   8.340   3.231   4.558
22600W        W90818  14.524   7.931   1.530
22601W        W90819   3.963  16.997  12.374
22602W        W90820  28.491  21.116  11.073
22603W        W90821   0.719  25.385  13.512
22604W        W90822  14.228  31.828   0.509
22605W        W90823  20.764  28.962   4.756
22606W        W90824  13.697   1.961  11.192
22607W        W90825  43.811  29.190   0.835
22608W        W90826  34.156  36.641   0.770
22609W        W90827   8.587   6.686   1.555
22610W        W90828  43.008  16.364   0.789
22611W        W90829   8.198  39.531  10.754
22612W        W90830  10.094   5.403   1.778
22613W        W90831   5.187   6.331  10.207
22614W        W90832   3.550   3.369   0.882
22615W        W90833  25.791  37.385  10.266
22616W        W90834  29.152   1.928   2.826
22617W        W90835  44.392  10.167  11.513
22618W        W90836  14.831  26.645   0.351
22619W        W90837  42.631   1.940  13.767
22620W        W90838  36.534   9.684  12.914
22621W        W90839  21.943  19.338  11.546
22622W        W90840   6.952  10.235  14.943
22623W        W90841  36.948  36.865   0.866
22624W        W90842  39.596   4.464   3.248
22625W        W90843  11.800  30.854  14.755
22626W        W90844  37.347  22.831   3.824
22627W        W90845  38.145  17.664   1.439
22628W        W90846   8.798  32.718  11.229
22629W        W90847  34.585  20.766  12.857
22630W        W90848   0.253   0.250   3.039
22631W        W90849  41.312  42.106   3.672
22632W        W90850  43.949   8.577   0.464
22633W        W90851  42.194  36.782  12.523
22634W        W90852  15.898  17.637  11.556
22635W        W90853  26.248  35.515  12.820
22636W        W90854  15.731  12.405  11.998
22637W        W90855  25.137   8.395   2.732
22638W        W90856  43.817  37.887  14.485
22639W        W90857  29.582  19.861   0.692
22640W        W90858  40.847  32.365  13.308
22641W        W90859  42.065  27.562  10.633
22642W        W90860  23.786  44.074   1.405
22643W        W90861  21.754  22.914  12.932
22644W        W90862  37.512   8.440   1.444
22645W        W90863  33.815  16.760  14.276
22646W        W90864  31.979   8.194   2.264
22647W        W90865  43.852  14.902   0.975
22648W        W90866  32.506  34.157   2.632
22649W        W90867  12.849  39.156   3.630
22650W        W90868  25.984  15.988   4.588
22651W        W90869  14.926  43.504   5.057
22652W        W90870   2.715  41.896  11.649
22653W        W90871  18.162   2.066  14.863
22654W        W90872   3.441  36.398  12.983
22655W        W90873  22.994  21.933  12.607
22656W        W90874  33.562  31.850   5.005
22657W        W90875  12.737  36.543  14.720
22658W        W90876   7.702  43.831  11.374
22659W        W90877  35.350   4.099  12.903
22660W        W90878  31.541  14.086  13.394
22661W        W90879  15.021  26.473  14.351
22662W        W90880  17.331  15.027  11.069
22663W        W90881  43.390  25.496  10.685
22664W        W90882  16.127   2.227   1.863
22665W        W90883  16.266  12.122   0.325
22666W        W90884  38.641  35.778   2.178
22667W        W90885  42.388  39.893   3.453
22668W        W90886  33.747   1.746   5.036
22669W        W90887  19.022  39.932   3.176
22670W        W90888  24.261  10.330  10.735
22671W        W90889  42.485  32.622   2.178
22672W        W90890  38.858   8.946  14.986
22673W        W90891  24.475   8.092  14.957
22674W        W90892  12.205  19.993  13.990
22675W        W90893  40.379  25.949   4.075
22676W        W90894  32.022   6.964   5.338
22677W        W90895   4.402   7.890  10.734
22678W        W90896  20.574   5.237  14.005
22679W        W90897  40.288  36.889   0.478
22680W        W90898   9.787  39.269  13.147
22681W        W90899   9.730  26.782  12.124
22682W        W90900  42.572  15.349   3.711
22683W        W90901  34.914  25.643  14.115
22684W        W90902  26.222  26.106  10.453
22685W        W90903  41.433  38.761  13.446
22686W        W90904  26.909  36.052   3.732
22687W        W90905  29.085  21.750   2.066
22688W        W90906  18.719   6.008   0.251
22689W        W90907  14.899  12.782   3.559
22690W        W90908  43.908   7.761  11.782
22691W        W90909  42.473  36.631  14.526
22692W        W90910   7.872  20.497   3.403
22693W        W90911  20.152  43.803  13.064
22694W        W90912  42.319  33.076   0.913
22695W        W90913  32.892  31.181  14.607
22696W        W90914  12.469   3.909   2.935
22697W        W90915  44.182  19.328  10.536
22698W        W90916  11.843  28.073  11.981
22699W        W90917   6.778  12.893  14.831
22700W        W90918  32.656  21.234   0.924
22701W        W90919  42.013  35.339   3.291
22702W        W90920  14.145   1.848  11.530
22703W        W90921  25.469  25.750   3.566
22704W        W90922  14.899  26.044  13.998
22705W        W90923   1.048  18.648  13.392
22706W        W90924  17.587  28.925   4.596
22707W        W90925  24.599  16.994  11.842
22708W        W90926  35.685  33.603  10.959
22709W        W90927  18.982  43.526  10.673
22710W        W90928  41.251  20.935   1.298
22711W        W90929  21.578  14.933  11.116
22712W        W90930  37.620  32.388  13.800
22713W        W90931  36.594  21.667  12.236
22714W        W90932   0.999  38.669  12.860
22715W        W90933  24.096   7.764   4.048
22716W        W90934   6.423  40.723   5.415
22717W        W90935  16.486  42.975  12.541
22718W        W90936  10.906  37.502   1.001
22719W        W90937  21.637  32.002   3.288
22720W        W90938   0.355  16.695  12.306
22721W        W90939  16.610  25.190  10.659
22722W        W90940  15.706  12.553  12.942
22723W        W90941  24.592  26.001   4.298
22724W        W90942  21.734   1.354  11.751
22725W        W90943  40.024   1.545  12.913
22726W        W90944  10.657  21.517   4.779
22727W        W90945  36.887  21.713   4.537
22728W        W90946  42.240  21.212   1.372
22729W        W90947  18.851  44.723  13.776
22730W        W90948   0.858  23.091   1.305
22731W        W90949  25.185  10.645  11.487
22732W        W90950  37.479  29.972   0.958
22733W        W90951  36.412  39.539   2.846
22734W        W90952  14.194  29.006   2.759
22735W        W90953  26.188  30.042   1.251
22736W        W90954  19.558   3.708  12.434
22737W        W90955  42.334   9.122   3.310
22738W        W90956  35.486   5.848  10.943
22739W        W90957  33.567  21.074   4.529
22740W        W90958  28.508   6.935   2.395
22741W        W90959  30.677  38.349  11.682
22742W        W90960  35.463   4.316  13.427
22743W        W90961  17.796   1.696   4.112
22744W        W90962  18.013   9.928   1.892
22745W        W90963   1.537  42.261   1.327
22746W        W90964  31.652  35.448  12.408
22747W        W90965  19.629  29.465  12.877
22748W        W90966  27.064  14.541   4.728
22749W        W90967  38.293  12.681   2.732
22750W        W90968  28.493  24.553  12.975
22751W        W90969  18.170  16.220  14.808
22752W        W90970   7.185  16.414   3.376
22753W        W90971  12.271  32.370   3.630
22754W        W90972  37.604   9.136  12.315
22755W        W90973  26.593  33.815  13.972
22756W        W90974   1.439   2.848   3.223
22757W        W90975   5.153  42.550   0.928
22758W        W90976   2.911  38.124   0.915
22759W        W90977  23.413  39.981   2.973
22760W        W90978   4.206  22.576   3.558
22761W        W90979  11.268   0.170  10.928
22762W        W90980  33.830  21.724   2.819
22763W        W90981  19.997  32.746   1.990
22764W        W90982  21.147  11.844  13.101
22765W        W90983   1.207   7.890   3.296
22766W        W90984  41.751  37.164  12.022
22767W        W90985  34.853  17.551  10.661
22768W        W90986   3.742  12.376  14.408
22769W        W90987  29.195  22.185   0.814
22770W        W90988  40.280  15.695   4.000
22771W        W90989  36.519  40.870  13.640
22772W        W90990   1.853   4.663  12.307
22773W        W90991   7.750  37.993   4.947
22774W        W90992  32.904  26.041  13.153
22775W        W90993  43.706  38.038   1.843
22776W        W90994  34.889  15.589   3.311
22777W        W90995   3.744  27.814  12.998
22778W        W90996  38.304  26.989   1.360
22779W        W90997  28.510  21.915  10.162
22780W        W90998  28.603   9.665  11.148
22781W        W90999  19.780  12.232  11.169
22782W        W91000  29.108   8.004  14.905
22783W        W91001  41.997  43.072   4.281
22784W        W91002  37.602  33.857  14.800
22785W        W91003  43.309  21.523  10.639
22786W        W91004   3.701  21.457   2.143
22787W        W91005  13.412  37.580   0.966
22788W        W91006  14.625  36.827  14.350
22789W        W91007  39.779  19.532   2.885
22790W        W91008   5.810  15.933  11.630
22791W        W91009  22.986  29.022  12.171
22792W        W91010  26.954   6.426  11.092
22793W        W91011  44.347  31.095   0.985
22794W        W91012  26.279  37.908   0.328
22795W        W91013   0.439   2.218  11.555
22796W        W91014  23.624  23.184   5.019
22797W        W91015  11.113  21.493   0.770
22798W        W91016  42.034  33.492  10.804
22799W        W91017  32.626   5.494  12.575
22800W        W91018  30.853  23.234   4.455
22801W        W91019  21.802  15.069   1.467
22802W        W91020  12.249  37.537  10.678
22803W        W91021  40.152  25.240   0.412
22804W        W91022   4.670  32.999  12.423
22805W        W91023   8.312   3.950   3.202
22806W        W91024  15.359  15.209   0.888
22807W        W91025  15.154  31.822  13.443
22808W        W91026   6.382  22.276  12.854
22809W        W91027  44.732  19.990  11.139
22810W        W91028   3.700  34.068  13.945
22811W        W91029  14.550   0.093  12.911
22812W        W91030   7.411  17.659  12.768
22813W        W91031  15.673  43.983  11.418
22814W        W91032   6.158  29.794  13.048
22815W        W91033  16.286  12.637   0.435
22816W        W91034  36.674  34.413  11.370
22817W        W91035  26.666  16.537   3.704
22818W        W91036   3.416  24.958  14.772
22819W        W91037  40.912   4.422  11.489
22820W        W91038  13.078  15.174   2.102
22821W        W91039  32.070  32.432  14.179
22822W        W91040  20.364  36.407   2.460
22823W        W91041  35.056   3.416   5.143
22824W        W91042   5.012  41.768   1.333
22825W        W91043  42.802  31.424   0.857
22826W        W91044  31.991  40.393   0.074
22827W        W91045  28.046  30.171   4.200
22828W        W91046  27.949  37.261   1.848
22829W        W91047  13.271  19.777   1.440
22830W        W91048   6.690   0.744  11.557
22831W        W91049  20.215  16.777  14.368
22832W        W91050  11.588  15.491  13.983
22833W        W91051   0.861  37.842   4.856
22834W        W91052  20.613  39.920   4.761
22835W        W91053  24.556  44.132   2.836
22836W        W91054  37.436  44.313   3.303
22837W        W91055  33.044  10.713   3.487
22838W        W91056  32.389  31.524  11.881
22839W        W91057  26.374  38.013  11.062
22840W        W91058  16.246  38.550  13.774
22841W        W91059   9.308  10.106  10.860
22842W        W91060  30.630   5.818  14.833
22843W        W91061  32.285  13.694  12.276
22844W        W91062  26.922  28.378  10.729
22845W        W91063   7.454   0.904  12.011
22846W        W91064  14.741  23.114   3.741
22847W        W91065   5.043  33.039   1.926
22848W        W91066  27.591   0.930   3.765
22849W        W91067  15.626  15.121   0.436
22850W        W91068  32.376  11.561   4.025
22851W        W91069   6.617  37.620   5.089
22852W        W91070  36.626  14.645  11.865
22853W        W91071  21.011  17.386   0.046
22854W        W91072  30.116  35.985  14.358
22855W        W91073  35.541  36.497  12.126
22856W        W91074  37.137  27.495   1.919
22857W        W91075  15.242  11.160  12.148
22858W        W91076  15.337  22.153   2.337
22859W        W91077  33.138  12.633  13.399
22860W        W91078   8.845  14.682  13.809
22861W        W91079   3.724  23.715   0.161
22862W        W91080  13.586  44.984   3.254
22863W        W91081  11.612   7.487  14.472
22864W        W91082   2.738   3.353  10.643
22865W        W91083  33.393   0.935   4.291
22866W        W91084  19.132  20.005  14.521
22867W        W91085  28.937  33.022  14.085
22868W        W91086  15.093  22.875   2.999
22869W        W91087  13.819  20.570   3.672
22870W        W91088   8.970  27.841  10.683
22871W        W91089  11.056  16.644  12.140
22872W        W91090  11.883  14.230  12.478
22873W        W91091   9.393  40.014   0.382
22874W        W91092  31.086  35.375   2.719
22875W        W91093  12.611  18.539   3.161
22876W        W91094  16.760  19.195  12.513
22877W        W91095  42.387   0.944  12.870
22878W        W91096  35.091   4.345   4.608
22879W        W91097  41.434  37.370   2.896
22880W        W91098  19.789   7.974   0.799
22881W        W91099  27.462  18.036  12.569
22882W        W91100  35.487  21.047  10.242
22883W        W91101  40.399   3.813   3.879
22884W        W91102  24.701  23.588  11.552
22885W        W91103  43.360  36.313   1.379
22886W        W91104  42.402  29.502   0.698
22887W        W91105   9.840  27.993  10.981
22888W        W91106  24.000  30.518   2.721
22889W        W91107  42.737  43.188  13.792
22890W        W91108  16.388  16.837   2.819
22891W        W91109  42.728   6.469  13.021
22892W        W91110  17.113  29.068  11.416
22893W        W91111   8.933   4.449  13.863
22894W        W91112   4.648  23.470   1.404
22895W        W91113   4.697  21.151   4.049
22896W        W91114   3.037  44.870  13.537
22897W        W91115  31.637  31.192  13.993
22898W        W91116  23.299  14.580   4.152
22899W        W91117  12.840  16.173  14.520
22900W        W91118  22.582  11.172  11.584
22901W        W91119   3.417  26.673   1.322
22902W        W91120   9.190  19.732  13.920
22903W        W91121  29.864  14.281  11.179
22904W        W91122   7.291  11.626   2.506
22905W        W91123  29.831  30.951  12.498
22906W        W91124  21.124  43.570   4.158
22907W        W91125  32.604  26.422   3.657
22908W        W91126  18.661  11.382  14.266
22909W        W91127  26.660  19.619   0.000
22910W        W91128  32.485  19.998   2.635
22911W        W91129  30.226  22.619  11.582
22912W        W91130   0.391  29.354   4.481
22913W        W91131  43.486   4.244   4.152
22914W        W91132  15.763  11.098  12.984
22915W        W91133   0.891  13.462  13.765
22916W        W91134  26.940  36.818   0.798
22917W        W91135  22.724   3.857   3.834
22918W        W91136   5.411   5.717  13.885
22919W        W91137  34.418  11.836  12.420
22920W        W91138  31.309   9.108   5.109
22921W        W91139  17.844  10.834  11.488
22922W        W91140  39.625  25.198  14.526
22923W        W91141  35.455  18.609   1.320
22924W        W91142   7.444  44.937  11.981
22925W        W91143  31.545  21.934   3.152
22926W        W91144  41.148  21.102   2.460
22927W        W91145  23.443  12.304  12.819
22928W        W91146  26.528  36.892  14.961
22929W        W91147  38.528  36.482   3.234
22930W        W91148   2.678  28.523  11.638
22931W        W91149  43.343  34.091   1.937
22932W        W91150   3.990  34.768   0.004
22933W        W91151  19.185  37.489   1.901
22934W        W91152  26.535  43.322   4.556
22935W        W91153  20.449  40.399   4.498
22936W        W91154  40.018  44.361   4.803
22937W        W91155  25.095  15.870   4.856
22938W        W91156   8.274   4.676  14.368
22939W        W91157  11.765  27.417  10.655
22940W        W91158  42.906  25.685  12.860
22941W        W91159  12.555  17.128  13.510
22942W        W91160  34.604  32.937  12.981
22943W        W91161  20.292  35.938   1.698
22944W        W91162  16.713  42.764  11.669
22945W        W91163   4.326  30.705   4.747
22946W        W91164  44.109  24.593  10.281
22947W        W91165  31.958  27.133  12.058
22948W        W91166  39.473  13.752   4.476
22949W        W91167  40.803  15.571  13.853
22950W        W91168  32.389  20.085   1.448
22951W        W91169   2.377  31.172  12.693
22952W        W91170  30.357  43.896  12.988
22953W        W91171  40.034  40.762   4.363
22954W        W91172  42.872  14.896  12.909
22955W        W91173   7.224  38.268   4.851
22956W        W91174  26.242  30.124  11.208
22957W        W91175  13.677  31.402  12.393
22958W        W91176  13.727  12.587  12.211
22959W        W91177  39.513  33.874   0.318
22960W        W91178  22.545  44.902   4.550
22961W        W91179  37.543   6.639  11.563
22962W        W91180   2.273  26.748   9.868
22963W        W91181  41.962  26.067   2.144
22964W        W91182  25.443  22.606   1.451
22965W        W91183  40.058  29.506  13.824
22966W        W91184  19.519  36.425   1.242
22967W        W91185  22.704  33.449  14.921
22968W        W91186   4.536  36.445  13.887
22969W        W91187  24.893  16.231  11.506
22970W        W91188  44.208  24.688  11.087
22971W        W91189  38.587  14.821   0.880
22972W        W91190   4.919  23.614  10.752
22973W        W91191  24.483   9.839   3.238
22974W        W91192  18.259  22.573  12.482
22975W        W91193  41.490  37.358  14.516
22976W        W91194  38.937  41.859  11.578
22977W        W91195  15.227  23.144  14.482
22978W        W91196   0.166  32.183  14.984
22979W        W91197   4.966  11.020   4.120
22980W        W91198  10.627  22.189   1.121
22981W        W91199   1.248   1.732  13.425
22982W        W91200  40.892   5.827   2.130
22983W        W91201  35.565  15.069   1.295
22984W        W91202  13.597  34.645  11.473
22985W        W91203  10.414  24.716   4.360
22986W        W91204  16.716  15.603  13.366
22987W        W91205  13.153  32.003   3.155
22988W        W91206  41.816   5.728   1.786
22989W        W91207  41.213  38.531   1.096
22990W        W91208  28.083  22.579   1.336
22991W        W91209  27.150  34.426  11.658
22992W        W91210  33.954  25.482  11.986
22993W        W91211  40.342  39.607   4.598
22994W        W91212  36.259  13.946  10.402
22995W        W91213   5.368   4.224  10.820
22996W        W91214  35.876  35.548   0.835
22997W        W91215  19.692  22.443  10.483
22998W        W91216  19.529  19.004  11.458
22999W        W91217  18.347  12.880  10.514
23000W        W91218  11.801   9.363  10.910
23001W        W91219  37.600  11.702  11.394
23002W        W91220  12.547  22.191  14.543
23003W        W91221  18.626  41.443   0.535
23004W        W91222  33.585  28.143   3.301
23005W        W91223  37.881  20.103   0.430
23006W        W91224  16.142  44.785  12.382
23007W        W91225   3.855   1.723  11.007
23008W        W91226   8.333   4.626   1.347
23009W        W91227  33.868   0.033  12.500
23010W        W91228  38.818   9.735   0.322
23011W        W91229  18.870  15.251  14.143
23012W        W91230  17.599  40.352  14.358
23013W        W91231   5.230  44.901   0.448
23014W        W91232   3.312  22.273  13.474
23015W        W91233  24.954  29.645  13.351
23016W        W91234  16.782  14.030  13.494
23017W        W91235   0.725   1.029  12.041
23018W        W91236  23.527   0.746  12.360
23019W        W91237   0.995  27.668  14.190
23020W        W91238  42.291  36.348  14.054
23021W        W91239   0.229   8.275   4.531
23022W        W91240  29.059  24.125   3.813
23023W        W91241  36.047  33.425  10.649
23024W        W91242   0.489  36.310   4.153
23025W        W91243  44.967   5.539   2.894
23026W        W91244   6.131  19.604   1.943
23027W        W91245  30.417  11.334   2.408
23028W        W91246  27.512  37.738   3.154
23029W        W91247   3.839  24.118   1.452
23030W        W91248  44.789   7.683  12.511
23031W        W91249  14.821   2.827   3.961
23032W        W91250   9.662  22.597  11.203
23033W        W91251  11.246  24.769   3.897
23034W        W91252  22.786  32.948  13.806
23035W        W91253  39.371  29.956  12.136
23036W        W91254  21.610  42.985   2.212
23037W        W91255  30.373  34.950  14.886
23038W        W91256  40.403  43.720  10.640
23039W        W91257  25.159  41.602   1.115
23040W        W91258  15.797  23.747  14.602
23041W        W91259   8.849  37.443  13.412
23042W        W91260  37.521  19.845   1.765
23043W        W91261   9.253  27.698   4.819
23044W        W91262   9.108  21.538  10.786
23045W        W91263   8.347  24.819   0.737
23046W        W91264  11.257  43.619   0.168
23047W        W91265   3.457  27.387   3.201
23048W        W91266  27.530  15.720   2.911
23049W        W91267   2.254   2.670  11.988
23050W        W91268  26.313  44.746  12.461
23051W        W91269   8.862  25.999  13.993
23052W        W91270  19.972  30.519  14.965
23053W        W91271   8.228  40.560  13.753
23054W        W91272  18.972  28.996  14.451
23055W        W91273  22.929  20.074   2.164
23056W        W91274  14.190  41.093   4.790
23057W        W91275  10.572  15.722   5.157
23058W        W91276  42.022  25.612  12.795
23059W        W91277  25.814  21.904   1.782
23060W        W91278  11.290  42.595   0.271
23061W        W91279  22.537  13.318  12.908
23062W        W91280  26.506  12.858  11.620
23063W        W91281  39.288   5.852  11.512
23064W        W91282  38.517   3.407  10.304
23065W        W91283  21.841  35.327  12.390
23066W        W91284  42.287  32.870  12.057
23067W        W91285  31.563  39.630   2.687
23068W        W91286  11.725  17.026   3.613
23069W        W91287  14.433  44.267  13.168
23070W        W91288   4.271   9.674  12.617
23071W        W91289  37.909  42.555   3.154
23072W        W91290  13.383   0.417  12.891
23073W        W91291  38.308   5.280   4.525
23074W        W91292   1.762  42.543   1.725
23075W        W91293  11.139   3.943   2.604
23076W        W91294  39.051  44.864   0.356
23077W        W91295  38.941   3.858   3.506
23078W        W91296  17.287  44.195  10.949
23079W        W91297  27.066  34.967  12.688
23080W        W91298  18.783   6.428   4.478
23081W        W91299  16.616  28.960  14.242
23082W        W91300   7.523  34.424   2.839
23083W        W91301  22.937  42.048  14.919
23084W        W91302  12.809  44.620  14.608
23085W        W91303  16.603  38.505   4.166
23086W        W91304  30.400   3.090  13.737
23087W        W91305   3.452  34.972   0.320
23088W        W91306  22.975   2.431  13.017
23089W        W91307  23.482   5.354  14.311
23090W        W91308  18.853  35.134  14.975
23091W        W91309  21.668  12.727  14.973
23092W        W91310  33.517  25.639   1.733
23093W        W91311  29.411  30.524   4.155
23094W        W91312  40.677  29.173   2.246
23095W        W91313  31.928  11.579   3.190
23096W        W91314  30.448  14.303   3.258
23097W        W91315  23.541   0.779   0.973
23098W        W91316   9.212  33.464  11.401
23099W        W91317  19.786  41.277  10.931
23100W        W91318  42.228  18.093  10.648
23101W        W91319   4.333  41.074  11.571
23102W        W91320  23.517   4.268  13.048
23103W        W91321  13.105  30.404   4.648
23104W        W91322  30.880   3.431   0.997
23105W        W91323  42.801  32.556  14.535
23106W        W91324  13.097  42.336   0.030
23107W        W91325  35.042  19.571  10.309
23108W        W91326  16.517  34.001  14.368
23109W        W91327  29.030  23.972   9.873
23110W        W91328   8.982  24.046  13.927
23111W        W91329  15.284  35.835   3.186
23112W        W91330   6.781  30.607   0.354
23113W        W91331   1.881   8.403   4.694
23114W        W91332  14.351  32.906  10.644
23115W        W91333  14.103  35.677   2.868
23116W        W91334  38.840  24.069   4.830
23117W        W91335  36.275   7.681  12.400
23118W        W91336   1.365  43.900   1.855
23119W        W91337  34.340  11.835  14.873
23120W        W91338  31.903  19.211   2.339
23121W        W91339   2.448   0.944  14.003
23122W        W91340  38.274  16.136  12.118
23123W        W91341  43.664   2.550  11.130
23124W        W91342  43.883   5.238   1.089
23125W        W91343  43.606   7.321  12.905
23126W        W91344  25.672  42.804  14.306
23127W        W91345  41.931  12.828   4.494
23128W        W91346  36.542   8.303  13.635
23129W        W91347  43.856  17.781   1.804
23130W        W91348  17.496  34.886   1.976
23131W        W91349  35.473  22.952  12.985
23132W        W91350  20.275  42.093  11.882
23133W        W91351  36.823  22.720  12.936
23134W        W91352  41.790  39.505   4.054
23135W        W91353  26.280  36.549   0.370
23136W        W91354  44.983  11.661   2.841
23137W        W91355  11.242  21.805  14.415
23138W        W91356   9.928  15.687  13.115
23139W        W91357  44.255  30.536   0.488
23140W        W91358  42.979   1.245  13.721
23141W        W91359  42.486   4.640  13.887
23142W        W91360  20.745  21.705   0.858
23143W        W91361  13.845  15.762  13.977
23144W        W91362  13.800   8.906  12.365
23145W        W91363  40.557  30.513  11.436
23146W        W91364  26.705  38.804  12.631
23147W        W91365  32.112  31.008  13.902
23148W        W91366  31.394  40.741  11.104
23149W        W91367   2.685   3.894   1.995
23150W        W91368   0.403  34.934   0.239
23151W        W91369   5.769  38.964   3.116
23152W        W91370  23.756   9.106   3.288
23153W        W91371   3.166   1.899   4.615
23154W        W91372  25.573  36.988  10.534
23155W        W91373  36.050  21.746   0.823
23156W        W91374  33.968  35.536  11.833
23157W        W91375  13.027  15.366  14.855
23158W        W91376   6.396   5.357   1.256
23159W        W91377  36.513  25.781  14.531
23160W        W91378   0.848  43.936   3.602
23161W        W91379  33.881  23.028  11.520
23162W        W91380  10.683   5.929   4.138
23163W        W91381  20.753  11.099  14.539
23164W        W91382  22.553  20.364   1.348
23165W        W91383  44.085  28.259  13.788
23166W        W91384  30.280  16.613   4.033
23167W        W91385  32.043  30.083   2.667
23168W        W91386   6.475  37.753  14.902
23169W        W91387  43.013   2.971   1.005
23170W        W91388  44.191   5.162   0.313
23171W        W91389  10.716  41.420  12.908
23172W        W91390  28.371  25.758  13.444
23173W        W91391   7.844  21.537  14.792
23174W        W91392  31.601  37.398  13.328
23175W        W91393  42.520  33.891   2.471
23176W        W91394  11.633   8.195   1.737
23177W        W91395  44.474   7.481   0.798
23178W        W91396  36.417  40.277  12.939
23179W        W91397  43.912  11.644   1.264
23180W        W91398   7.331  42.405   0.578
23181W        W91399  23.733  39.690  13.546
23182W        W91400  34.927   0.296  14.709
23183W        W91401  36.117  14.504   1.387
23184W        W91402  34.656  41.250   3.256
23185W        W91403  23.305  26.421  12.706
23186W        W91404  37.998  37.568  11.618
23187W        W91405  17.614  26.464   3.225
23188W        W91406  38.382   9.655   3.237
23189W        W91407  25.948  37.096   3.281
23190W        W91408  43.963  14.921   4.184
23191W        W91409  42.435  23.555  12.404
23192W        W91410  42.131  24.678   0.960
23193W        W91411  37.129   0.751  12.426
23194W        W91412  43.223  37.095   2.040
23195W        W91413  18.897   1.759  12.641
23196W        W91414  27.936   8.446  14.266
23197W        W91415   1.961  32.640  14.097
23198W        W91416  32.695  18.024  13.941
23199W        W91417  39.583  32.846  12.404
23200W        W91418  19.528  41.741   1.890
23201W        W91419   5.670  42.474   0.860
23202W        W91420  11.091  36.385  11.217
23203W        W91421  28.696  24.255   1.270
23204W        W91422  15.103  36.081  10.489
23205W        W91423   0.834   1.256   0.628
23206W        W91424  17.889  17.213   2.672
23207W        W91425  19.109  16.545   1.168
23208W        W91426  30.240  34.844  13.283
23209W        W91427  24.225  29.951  12.087
23210W        W91428  11.801   8.664   1.940
23211W        W91429  28.162  15.315  12.644
23212W        W91430  43.004   6.077   0.488
23213W        W91431  22.516  44.521   1.356
23214W        W91432  43.102  26.851   2.356
23215W        W91433   7.613  24.535   1.383
23216W        W91434  23.853  13.769  12.060
23217W        W91435  42.335  39.753   0.555
23218W        W91436  13.355  15.585  14.003
23219W        W91437   5.556   7.299   2.271
23220W        W91438   1.007  12.234  13.170
23221W        W91439  22.792  30.402   3.536
23222W        W91440  44.817  30.671  11.944
23223W        W91441  28.421  40.276   2.743
23224W        W91442   8.338   1.428  12.621
23225W        W91443   9.887   0.557  12.736
23226W        W91444   8.322   9.923  13.363
23227W        W91445  37.118  19.768  12.911
23228W        W91446  10.216  32.739   0.381
23229W        W91447  26.101  15.711   1.633
23230W        W91448  15.154   9.717   2.015
23231W        W91449  14.209  15.121  10.396
23232W        W91450   4.020  21.976  12.976
23233W        W91451   1.900   9.670  10.853
23234W        W91452   2.732  18.050  12.912
23235W        W91453  36.272   1.901  14.617
23236W        W91454  37.096  38.286  13.256
23237W        W91455  31.154  26.674   0.361
23238W        W91456   5.322  17.061   0.768
23239W        W91457   9.668   9.204   1.050
23240W        W91458   7.233  19.581  11.208
23241W        W91459  26.124  22.731  12.812
23242W        W91460   6.693  29.552   4.041
23243W        W91461  32.227  14.868   0.231
23244W        W91462   8.413  12.581   2.879
23245W        W91463   1.483  44.420   1.832
23246W        W91464  13.142  25.194   4.625
23247W        W91465  13.665  16.345  13.370
23248W        W91466  10.159  30.407  14.856
23249W        W91467  24.186  35.016   0.818
23250W        W91468  21.953  29.655  14.432
23251W        W91469  11.139  22.818  11.974
23252W        W91470  11.777  32.112   5.027
23253W        W91471  21.840  24.585  11.094
23254W        W91472  33.317  10.270   0.823
23255W        W91473  25.822  10.500  11.582
23256W        W91474  37.408   4.132   4.522
23257W        W91475  26.981  14.795   1.338
23258W        W91476  32.663  15.891   2.431
23259W        W91477   2.209  41.515   4.195
23260W        W91478  39.065   4.220  11.174
23261W        W91479  17.238  39.467   2.887
23262W        W91480  10.674  25.014   2.361
23263W        W91481  35.593  10.936  13.454
23264W        W91482  20.761  16.291   2.201
23265W        W91483  23.141  19.506  13.242
23266W        W91484  36.324   4.360   4.205
23267W        W91485  37.410  27.106  10.193
23268W        W91486   8.028  18.682   5.307
23269W        W91487  23.014  38.953   0.702
23270W        W91488  30.873  28.744   2.560
23271W        W91489  44.192   6.351   3.113
23272W        W91490  39.498  25.396  10.455
23273W        W91491   5.042  15.556  14.847
23274W        W91492   5.000  37.891  14.752
23275W        W91493  37.108  15.263   3.688
23276W        W91494  31.108  37.558   1.168
23277W        W91495   0.881  33.977   2.320
23278W        W91496  33.315  35.650   0.301
23279W        W91497  29.673  32.681   3.165
23280W        W91498  33.978   1.997  12.415
23281W        W91499  39.301  26.113   4.148
23282W        W91500  28.951  22.173   1.690
23283W        W91501  30.020  40.646  13.036
23284W        W91502  40.309  25.419   2.659
23285W        W91503  38.584  12.997   0.242
23286W        W91504   2.163  14.250  13.489
23287W        W91505  14.773  39.958  13.457
23288W        W91506  18.770  19.651  11.857
23289W        W91507  12.146  34.347  14.390
23290W        W91508  31.198  43.877  14.384
23291W        W91509  27.009  23.307  14.369
23292W        W91510  16.893  15.387   1.050
23293W        W91511  25.401  44.498  13.990
23294W        W91512   6.309  18.508   2.736
23295W        W91513   8.241  41.019  14.028
23296W        W91514  18.863  21.734   4.078
23297W        W91515  23.274  38.437   2.198
23298W        W91516  22.062  27.903   0.667
23299W        W91517   8.345  20.620  13.893
23300W        W91518  22.297  12.922   1.401
23301W        W91519  29.763  31.688  11.074
23302W        W91520  38.434  29.282   2.866
23303W        W91521   7.468  41.555   2.638
23304W        W91522  24.676   1.965  13.754
23305W        W91523   1.310   3.052  12.909
23306W        W91524   7.132  30.698   4.547
23307W        W91525   6.212  23.138   2.928
23308W        W91526   3.839   8.696   1.078
23309W        W91527  43.913   0.810   2.777
23310W        W91528  33.921  29.172   0.105
23311W        W91529  42.695  20.364   1.373
23312W        W91530  20.779  41.295   1.222
23313W        W91531  14.450  35.864   0.339
23314W        W91532  10.288  20.212   4.868
23315W        W91533  39.939  32.013  12.087
23316W        W91534   2.202  25.512   2.848
23317W        W91535  26.668  31.148  13.018
23318W        W91536   1.441   7.890  13.256
23319W        W91537  34.919  33.897  13.783
23320W        W91538   1.346  38.873   2.796
23321W        W91539  19.282   0.042   1.152
23322W        W91540  21.839  15.678  10.739
23323W        W91541  32.996  41.564   1.860
23324W        W91542  39.445  19.071   2.157
23325W        W91543  24.586  32.877  12.891
23326W        W91544  21.108  26.208   3.678
23327W        W91545   8.773   3.800  12.579
23328W        W91546   5.893  12.077   2.219
23329W        W91547  25.541  36.082   0.943
23330W        W91548  21.316  22.987  11.817
23331W        W91549   6.936  39.331   2.941
23332W        W91550   4.710   1.515  11.178
23333W        W91551   7.692   5.190  11.600
23334W        W91552  28.440  40.327  12.579
23335W        W91553   0.129  17.791  14.058
23336W        W91554  10.138   4.870  11.024
23337W        W91555  16.575  29.918   3.722
23338W        W91556  13.905  27.100   0.459
23339W        W91557   6.773  22.140  12.126
23340W        W91558  29.922  26.462  13.105
23341W        W91559  34.892  35.043   3.707
23342W        W91560  41.262   6.448   4.196
23343W        W91561  42.461  36.621   4.074
23344W        W91562  19.219  38.401  12.467
23345W        W91563  39.765  22.612  11.203
23346W        W91564  24.049  36.466  14.959
23347W        W91565  42.278  14.549   0.444
23348W        W91566  37.640  25.565   3.220
23349W        W91567   0.522   4.450   0.165
23350W        W91568  24.621  34.520   1.454
23351W        W91569  37.114  29.620   1.054
23352W        W91570  37.263  20.821  10.683
23353W        W91571  23.086  42.508   2.088
23354W        W91572  24.210   8.595  10.368
23355W        W91573  34.899  44.298   3.159
23356W        W91574   3.404   6.415   2.724
23357W        W91575  37.811  43.887   2.545
23358W        W91576  20.246   8.165   1.303
23359W        W91577  35.284   6.984  14.369
23360W        W91578  27.948  13.322   3.814
23361W        W91579   6.212  32.628  13.379
23362W        W91580  34.528   0.400   4.881
23363W        W91581  13.176  22.949   0.785
23364W        W91582  22.253  21.265  12.336
23365W        W91583  23.309  18.530  13.384
23366W        W91584  12.756  37.951   1.023
23367W        W91585  23.201  27.964  12.552
23368W        W91586  23.114  33.354   4.657
23369W        W91587  17.069  13.282   2.700
23370W        W91588  44.847   3.227  10.950
23371W        W91589  32.680  23.099  13.587
23372W        W91590  21.234   2.538  13.951
23373W        W91591   5.309   9.911  12.929
23374W        W91592   2.324   0.348   2.921
23375W        W91593  16.763  19.009   2.711
23376W        W91594  31.157  14.750  14.057
23377W        W91595  23.987  14.170   1.394
23378W        W91596  25.016  22.881   3.610
23379W        W91597  23.912  32.370  14.219
23380W        W91598  12.593  23.591  12.845
23381W        W91599  33.908  40.529   3.166
23382W        W91600  39.908  31.509  12.381
23383W        W91601  41.773   2.024   1.922
23384W        W91602  34.543  38.512  12.530
23385W        W91603  18.558  10.875  11.210
23386W        W91604   1.947  29.121  14.401
23387W        W91605   8.791  11.818  14.598
23388W        W91606   4.821  19.064   1.307
23389W        W91607  35.454  21.299   3.779
23390W        W91608  43.304  24.158   2.758
23391W        W91609  14.765  41.855  11.912
23392W        W91610  31.600  17.602  11.018
23393W        W91611  14.155  20.595  13.380
23394W        W91612  38.952  16.322   3.766
23395W        W91613   6.336  34.888  12.034
23396W        W91614  19.589  40.452   0.739
23397W        W91615  21.113  30.383   3.351
23398W        W91616  10.395   9.719   0.939
23399W        W91617  18.552  21.336  12.564
23400W        W91618  29.548   5.149   0.433
23401W        W91619  41.375   5.222  11.638
23402W        W91620   3.251  28.521  13.964
23403W        W91621   2.240  40.757   3.798
23404W        W91622  22.676  20.208  14.801
23405W        W91623   8.211  18.062   1.860
23406W        W91624  19.249  38.198   4.673
23407W        W91625  30.455  27.652   2.281
23408W        W91626  34.097  44.690   3.990
23409W        W91627   1.366  34.399   3.338
23410W        W91628  21.039  12.504   0.401
23411W        W91629  29.896  11.211   2.315
23412W        W91630  15.186  43.758  12.656
23413W        W91631  43.363   4.256   0.848
23414W        W91632  27.647  21.920  12.022
23415W        W91633  26.152  11.105   2.944
23416W        W91634   7.702  19.921  14.806
23417W        W91635  39.054  26.656   3.699
23418W        W91636  13.137   0.678  12.508
23419W        W91637  40.974   3.959  14.326
23420W        W91638  24.477  30.975  13.332
23421W        W91639  30.117   0.041  14.616
23422W        W91640   6.407  12.858  10.985
23423W        W91641   1.743  13.835   2.950
23424W        W91642  33.596  18.098   2.789
23425W        W91643   7.870  44.093   4.670
23426W        W91644  10.094  37.786   3.208
23427W        W91645  23.181  15.787   1.657
23428W        W91646  38.919  41.865  12.599
23429W        W91647  43.405  44.590   2.803
23430W        W91648  36.338  42.905  12.488
23431W        W91649  16.831  10.546  12.085
23432W        W91650  19.095  19.696  11.418
23433W        W91651  18.526  41.027   3.126
23434W        W91652   8.657   4.381   0.437
23435W        W91653  22.104  38.094   3.322
23436W        W91654  30.386   1.765   2.083
23437W        W91655  17.203  34.071   1.616
23438W        W91656  12.846   0.356  11.194
23439W        W91657  38.880   8.985   0.821
23440W        W91658   2.350  29.264   0.196
23441W        W91659  32.954   3.255   0.793
23442W        W91660  37.472  38.335   4.205
23443W        W91661  27.363  29.435   4.760
23444W        W91662  19.091  27.125  14.407
23445W        W91663  34.985   1.749  10.547
23446W        W91664  39.429   3.491  14.498
23447W        W91665  14.468  11.189   1.865
23448W        W91666   1.470  32.142   0.720
23449W        W91667  39.480   2.456   1.372
23450W        W91668   0.376  16.196   0.351
23451W        W91669  24.852  30.755   4.916
23452W        W91670  41.494   2.888  12.056
23453W        W91671  36.774   1.873   2.670
23454W        W91672   1.862   5.327   1.735
23455W        W91673   9.517  21.127   5.015
23456W        W91674  43.085   1.485   3.734
23457W        W91675  34.368  40.734  11.109
23458W        W91676  24.126  27.522   1.914
23459W        W91677  19.562  10.183  12.395
23460W        W91678  40.705  35.048   2.816
23461W        W91679   9.272   0.394   2.128
23462W        W91680  15.312  30.946  14.509
23463W        W91681  11.471  35.120  12.174
23464W        W91682  33.807  44.256  14.846
23465W        W91683   5.224   1.647  12.022
23466W        W91684  12.612  23.679  14.192
23467W        W91685  44.530  18.607   3.356
23468W        W91686   5.185  28.674   4.522
23469W        W91687  19.458  17.524  11.751
23470W        W91688  19.520  44.969   0.065
23471W        W91689   1.741   4.115   2.816
23472W        W91690   1.434  29.025  13.328
23473W        W91691  40.786  25.526   2.892
23474W        W91692   2.693  36.341  13.434
23475W        W91693   5.260   4.835   3.548
23476W        W91694   8.618  34.459   4.889
23477W        W91695  25.956   7.779   4.247
23478W        W91696  43.289  28.994   3.866
23479W        W91697  41.227  24.005  14.105
23480W        W91698  39.606  41.201   0.494
23481W        W91699   9.409  22.000  13.529
23482W        W91700  26.055  29.803   4.754
23483W        W91701  34.858  13.182  11.624
23484W        W91702  25.684   5.261  11.137
23485W        W91703  19.331  11.353   4.452
23486W        W91704  18.568  25.524  14.500
23487W        W91705   6.103  13.678   2.309
23488W        W91706   2.208  44.170  12.143
23489W        W91707   4.029  37.849  14.933
23490W        W91708  34.956   1.937  11.039
23491W        W91709  10.049  14.606  11.623
23492W        W91710  17.314  29.167   1.357
23493W        W91711  10.874  20.349   3.006
23494W        W91712  32.263   1.221  11.006
23495W        W91713  24.072  31.369  14.458
23496W        W91714  40.475  33.966   3.759
23497W        W91715  36.927  21.193   3.068
23498W        W91716  21.545  28.501  13.838
23499W        W91717   0.253  24.419  12.900
23500W        W91718  34.373   6.902  14.412
23501W        W91719  33.815  26.205  11.209
23502W        W91720  35.148  22.706  10.744
23503W        W91721  18.187   9.156  12.532
23504W        W91722   0.860  34.920   2.760
23505W        W91723  25.011  43.548   3.352
23506W        W91724  14.776  17.828  14.877
23507W        W91725  42.812  39.888   0.414
23508W        W91726   0.554  22.864   4.288
23509W        W91727  18.272  38.330   1.841
23510W        W91728  40.943   0.026  10.661
23511W        W91729  10.801  42.516  14.410
23512W        W91730   9.264  35.470   4.599
23513W        W91731   6.385   6.619   4.355
23514W        W91732   4.546   8.754   1.923
23515W        W91733  16.667  28.940   0.712
23516W        W91734  41.520  21.714   3.124
23517W        W91735  24.880  14.536   1.545
23518W        W91736   7.259  37.831   0.501
23519W        W91737  24.106  19.727  12.429
23520W        W91738   8.990   6.906  14.725
23521W        W91739  25.669  22.971  14.498
23522W        W91740  33.490   5.682  14.690
23523W        W91741  36.071  25.034   4.568
23524W        W91742  34.543  19.093  13.937
23525W        W91743  21.606  38.729   3.318
23526W        W91744  32.266  11.837   2.235
23527W        W91745  38.040   7.974  14.461
23528W        W91746  11.593  34.279   4.066
23529W        W91747  34.049  13.676   3.201
23530W        W91748  14.551  21.003   3.714
23531W        W91749  20.712  24.538   2.259
23532W        W91750  41.835  29.534   1.967
23533W        W91751  10.639  27.682  12.537
23534W        W91752  34.994  35.145   2.641
23535W        W91753  41.422  39.567   0.868
23536W        W91754  16.328  37.564  13.855
23537W        W91755  41.380  19.192   0.773
23538W        W91756   0.319  11.800  14.030
23539W        W91757   5.001   5.810   1.624
23540W        W91758  20.351   2.303   5.083
23541W        W91759  36.717  34.649   5.170
23542W        W91760   4.374  26.616   2.210
23543W        W91761  17.800  24.266   0.242
23544W        W91762  41.140  14.772   1.798
23545W        W91763  17.076  19.735   1.358
23546W        W91764  18.941  20.325  11.166
23547W        W91765  24.005  27.783   4.398
23548W        W91766  16.119  26.858  14.976
23549W        W91767   2.260   8.705   3.020
23550W        W91768   7.775  43.985   3.754
23551W        W91769  25.575  28.969   0.078
23552W        W91770  19.051  19.051  14.510
23553W        W91771   9.277  29.473   1.963
23554W        W91772  44.083  35.818   4.939
23555W        W91773  35.856   5.002   0.736
23556W        W91774  19.147  35.329   4.632
23557W        W91775  30.558  40.232   0.633
23558W        W91776  24.560  12.094  10.835
23559W        W91777  19.672  39.082   2.613
23560W        W91778  10.927  41.320  10.492
23561W        W91779  39.060  17.314   3.740
23562W        W91780   5.650  18.735  12.066
23563W        W91781  32.636  18.586  12.567
23564W        W91782   3.333  20.519   0.028
23565W        W91783   4.685  35.948   3.367
23566W        W91784  12.120  31.241  10.735
23567W        W91785  19.050  41.174  11.465
23568W        W91786   2.305  30.763   4.134
23569W        W91787  11.085  23.542  11.171
23570W        W91788  22.794   0.863   2.798
23571W        W91789  37.668  23.543  13.408
23572W        W91790   9.363  10.787   3.084
23573W        W91791  28.593   4.687  14.093
23574W        W91792  37.983  39.456   1.658
23575W        W91793  14.194   9.617   2.377
23576W        W91794  38.045  11.060  11.041
23577W        W91795  28.272   5.972  14.001
23578W        W91796   7.169  16.590   2.090
23579W        W91797  30.736  15.212   1.792
23580W        W91798  15.048  12.837  12.437
23581W        W91799  16.807   9.407   0.845
23582W        W91800  32.623  31.582  10.864
23583W        W91801  23.534  30.066   4.894
23584W        W91802   9.758  11.177   3.894
23585W        W91803  40.073  33.205  11.503
23586W        W91804  11.991  35.929   0.894
23587W        W91805  26.941  39.318  13.896
23588W        W91806   8.401   4.439  13.897
23589W        W91807  20.511  30.171  14.046
23590W        W91808   8.090  17.453   2.697
23591W        W91809  28.686   5.636  13.898
23592W        W91810  19.852  11.620  11.857
23593W        W91811   0.565  27.165   0.259
23594W        W91812  12.715  37.096  12.112
23595W        W91813  41.825   1.358   3.690
23596W        W91814   3.002  32.669  14.923
23597W        W91815  14.737  43.779  14.478
23598W        W91816  44.973   4.082   0.761
23599W        W91817   5.190  28.146   3.730
23600W        W91818  40.593  44.924  12.312
23601W        W91819  31.531  36.213  10.884
23602W        W91820  31.707  43.220  13.008
23603W        W91821  21.221  17.797   2.425
23604W        W91822  24.662  42.790  12.498
23605W        W91823  15.050   8.850   1.764
23606W        W91824  33.047  22.527  12.421
23607W        W91825  29.111  19.465  13.232
23608W        W91826   8.789  10.603  10.777
23609W        W91827  31.132  16.916  13.535
23610W        W91828  20.390  21.615   1.842
23611W        W91829  23.992   8.240  14.047
23612W        W91830  13.108   2.936   1.144
23613W        W91831  13.999   8.730   2.675
23614W        W91832  24.098   0.387  11.735
23615W        W91833  16.976  21.179   5.049
23616W        W91834  13.735  38.895   4.183
23617W        W91835  39.458  16.780   2.615
23618W        W91836  43.933  11.588  12.969
23619W        W91837  18.296   0.706  11.572
23620W        W91838  42.925   1.799   2.406
23621W        W91839  33.540  39.849   1.753
23622W        W91840  16.467  28.836   2.294
23623W        W91841  40.835   6.710  11.146
23624W        W91842   2.185  14.499  10.013
23625W        W91843  23.531  40.613   3.146
23626W        W91844  24.960  39.010  11.483
23627W        W91845  34.604  22.743  12.434
23628W        W91846  37.385  14.174  13.029
23629W        W91847  29.785  21.245   3.110
23630W        W91848  12.242  37.506   3.739
23631W        W91849  31.373  28.598   0.287
23632W        W91850  26.552  22.196   3.679
23633W        W91851   1.651  41.752  12.588
23634W        W91852  25.613  21.594  10.124
23635W        W91853  27.922   4.935   0.298
23636W        W91854  36.876  26.302   2.526
23637W        W91855  30.476  16.597   1.696
23638W        W91856  38.772  35.419  12.024
23639W        W91857   3.300  35.068  12.926
23640W        W91858   9.299  11.153   2.716
23641W        W91859   0.702   6.428  12.067
23642W        W91860  26.196  10.857  11.628
23643W        W91861  36.643  13.293   0.737
23644W        W91862  11.815  28.648   3.029
23645W        W91863  12.150  10.607   2.698
23646W        W91864   0.230   3.896   3.817
23647W        W91865  36.380  26.453   2.642
23648W        W91866  32.616  31.940   4.685
23649W        W91867  19.806   2.257   3.662
23650W        W91868  36.963  10.338   2.359
23651W        W91869  16.273  38.079  14.028
23652W        W91870  44.024  38.059   4.420
23653W        W91871  38.101  33.733   0.499
23654W        W91872  28.373   5.382   1.755
23655W        W91873  42.062   6.635  12.462
23656W        W91874   7.916  40.493   4.017
23657W        W91875  27.607  22.004  11.517
23658W        W91876  24.074  15.618   2.708
23659W        W91877  13.623   2.953   1.350
23660W        W91878  22.084  10.026  11.374
23661W        W91879  28.700  36.799   3.594
23662W        W91880  13.257  31.316  12.046
23663W        W91881  37.154  34.463   0.832
23664W        W91882  38.569  31.388  12.462
23665W        W91883  12.435   0.686  13.127
23666W        W91884  18.386  22.022   2.490
23667W        W91885   7.771  21.753   4.879
23668W        W91886  11.723  14.275   0.970
23669W        W91887   3.331   0.886  12.491
23670W        W91888  24.188   0.615   3.672
23671W        W91889  28.844   5.428   4.593
23672W        W91890  32.223  35.947   1.305
23673W        W91891  29.642  43.292   3.787
23674W        W91892  26.071  41.309   3.979
23675W        W91893  16.506  39.651   1.280
23676W        W91894  29.860  17.359   3.048
23677W        W91895   2.352  12.902   2.771
23678W        W91896  11.398  27.578  12.093
23679W        W91897  18.083  12.321   2.737
23680W        W91898  37.331  15.880  13.928
23681W        W91899  25.505   2.222   2.752
23682W        W91900   5.443   9.396   0.532
23683W        W91901  22.671  14.201   1.094
23684W        W91902  13.088  38.835  11.427
23685W        W91903  44.723  13.622  14.412
23686W        W91904   6.282  20.532  14.936
23687W        W91905  40.989  17.724   1.395
23688W        W91906  28.704  20.364   1.377
23689W        W91907  25.513   4.651   1.022
23690W        W91908  38.900  42.374  11.527
23691W        W91909   5.676  39.767   4.196
23692W        W91910  34.426   7.308   4.154
23693W        W91911  41.167  28.041  12.882
23694W        W91912  16.599  37.241  14.255
23695W        W91913   3.021  21.079   0.438
23696W        W91914  43.677  22.232  14.852
23697W        W91915  33.089  38.748  13.233
23698W        W91916   6.773  11.588   2.322
23699W        W91917  22.122  29.144   2.705
23700W        W91918   6.438  14.347  14.723
23701W        W91919  15.087  17.718  12.534
23702W        W91920  30.042  25.180   0.996
23703W        W91921  31.286  18.188   0.391
23704W        W91922  18.068  28.620   0.388
23705W        W91923  10.448   9.808   1.870
23706W        W91924   6.103  20.204   3.193
23707W        W91925  12.154  42.305  11.669
23708W        W91926   9.717  31.526   2.831
23709W        W91927   4.464  17.409  14.774
23710W        W91928  10.272   9.349   1.705
23711W        W91929   9.920  26.082  13.980
23712W        W91930  28.367   5.697  11.670
23713W        W91931  40.399   7.097  11.654
23714W        W91932  21.664  24.078   3.181
23715W        W91933  39.988   0.691   2.865
23716W        W91934   3.513  23.540  14.048
23717W        W91935  19.274  22.017  12.395
23718W        W91936  38.824  10.453   3.216
23719W        W91937  37.032   9.101  14.112
23720W        W91938  21.119   5.959  10.651
23721W        W91939   1.735  30.621  10.670
23722W        W91940  33.849  31.556  14.043
23723W        W91941  22.637  34.158  12.554
23724W        W91942  30.401  44.012   2.754
23725W        W91943  22.987  15.471   1.274
23726W        W91944  40.479  12.694   1.175
23727W        W91945  28.761  32.414  13.472
23728W        W91946  37.352  35.637   2.883
23729W        W91947   7.313  43.052  14.927
23730W        W91948   8.117   0.557   4.205
23731W        W91949  11.299  35.153   3.840
23732W        W91950  22.256  19.364  12.413
23733W        W91951  38.954  28.480  14.957
23734W        W91952  44.293  23.201  14.047
23735W        W91953  37.883  10.438   4.401
23736W        W91954  34.057  26.433  10.809
23737W        W91955   4.857  36.329   0.271
23738W        W91956  28.493  29.131  13.765
23739W        W91957  30.323  37.427  12.051
23740W        W91958  38.571  28.763  13.464
23741W        W91959  13.954  16.769   3.152
23742W        W91960  12.601  11.871   2.647
23743W        W91961  33.307  31.248   0.002
23744W        W91962  14.595  21.066  14.490
23745W        W91963   5.769  35.660   1.174
23746W        W91964  37.122   1.803  13.180
23747W        W91965  28.072  11.783   9.715
23748W        W91966   5.730   5.424   0.929
23749W        W91967   3.588  37.400   0.763
23750W        W91968  24.614   4.662  10.761
23751W        W91969  34.218   2.837   0.382
23752W        W91970  22.020  32.538  13.179
23753W        W91971  30.150  29.411   4.590
23754W        W91972  41.900   0.648  10.814
23755W        W91973  34.977  31.153  13.302
23756W        W91974  30.191  33.150  14.794
23757W        W91975   6.160  35.058  11.501
23758W        W91976  34.433  23.994   1.644
23759W        W91977  23.596  13.384   1.725
23760W        W91978  24.478  14.316   1.229
23761W        W91979  34.034   6.406  12.523
23762W        W91980  15.913   7.814   0.650
23763W        W91981  14.880   4.729  13.977
23764W        W91982  42.495  30.579   2.733
23765W        W91983  20.252  31.911  12.036
23766W        W91984  40.335  11.848   2.386
23767W        W91985  28.622  29.607  13.522
23768W        W91986  15.190  34.632   2.413
23769W        W91987  16.769  21.697  11.105
23770W        W91988  31.721  41.270  13.838
23771W        W91989  23.758  25.685   0.970
23772W        W91990  26.260  27.515   1.714
23773W        W91991  39.804  12.162  11.709
23774W        W91992  42.254   2.995  11.078
23775W        W91993  20.191  44.762  14.712
23776W        W91994  12.371  22.676  10.687
23777W        W91995  21.376  15.973   4.924
23778W        W91996  11.314  25.384  13.756
23779W        W91997  28.903  31.196  12.319
23780W        W91998  19.847  34.421  12.352
23781W        W91999   9.222  31.072   3.405
23782W        W92000  13.852  15.333   1.879
23783W        W92001  36.045  22.313   3.477
23784W        W92002   5.087  25.055  10.730
23785W        W92003  17.610   3.291  14.794
23786W        W92004  27.629  16.078   3.654
23787W        W92005  41.711  37.874   1.191
23788W        W92006  43.801  26.116   0.896
23789W        W92007  28.438  34.939  11.162
23790W        W92008  17.778  29.346  10.403
23791W        W92009  31.124  30.255   0.860
23792W        W92010  33.561  40.995   2.329
23793W        W92011  24.898  19.800   4.239
23794W        W92012  26.787  44.285   9.821
23795W        W92013   1.618  14.234  12.069
23796W        W92014  26.858  26.277  11.831
23797W        W92015  18.561  38.795   0.014
23798W        W92016  10.087  16.582  10.992
23799W        W92017   0.009  25.581   2.269
23800W        W92018  22.083  29.054   4.332
23801W        W92019  43.681  30.205   2.413
23802W        W92020  33.129  42.541  13.168
23803W        W92021  38.517   9.949   3.667
23804W        W92022  29.135  33.299  13.095
23805W        W92023  23.956  42.557  13.842
23806W        W92024  13.184  16.182  14.134
23807W        W92025  31.664  31.481  14.528
23808W        W92026   7.447  42.088  11.186
23809W        W92027  17.602  19.886  10.685
23810W        W92028   2.172  11.395  14.984
23811W        W92029   3.123  31.417   3.303
23812W        W92030  25.898  22.230   0.451
23813W        W92031  34.885  15.776  14.643
23814W        W92032   2.687   4.694   0.344
23815W        W92033  40.053  44.228   0.215
23816W        W92034  31.724   3.936   4.066
23817W        W92035   1.833  28.040  11.663
23818W        W92036   0.265  16.690  13.852
23819W        W92037  28.528  29.129  11.508
23820W        W92038  33.424  10.348  11.539
23821W        W92039  21.574  18.879  12.010
23822W        W92040  30.905  16.403   3.444
23823W        W92041  15.922  28.638   4.150
23824W        W92042  22.369  33.083   4.878
23825W        W92043  18.635  38.405  12.861
23826W        W92044  33.891  23.746  12.094
23827W        W92045  36.876  12.191  13.399
23828W        W92046  21.356  36.607  12.943
23829W        W92047   8.409  11.338  12.440
23830W        W92048   1.422  33.886  10.682
23831W        W92049   2.987  42.612   3.755
23832W        W92050  36.130  33.051  14.352
23833W        W92051  16.642  11.752  10.666
23834W        W92052   8.943  43.814   4.332
23835W        W92053   7.155  10.260   3.793
23836W        W92054  31.193  12.826   1.336
23837W        W92055  29.112  22.429  11.497
23838W        W92056  44.017  35.446  11.626
23839W        W92057  38.911   9.646   1.280
23840W        W92058  24.348  22.869  11.646
23841W        W92059  31.840  23.251   4.137
23842W        W92060  31.100  38.074   3.319
23843W        W92061  25.280  39.073  11.066
23844W        W92062  38.171  26.540  11.714
23845W        W92063  38.065  32.194   4.569
23846W        W92064   6.162  29.521  14.839
23847W        W92065  40.428  40.293   1.326
23848W        W92066   3.425   3.680   4.213
23849W        W92067   1.361  33.367   0.308
23850W        W92068  22.182  12.807  13.778
23851W        W92069   2.729   2.851   0.962
23852W        W92070  19.999   3.581  14.435
23853W        W92071  25.660  26.706   3.725
23854W        W92072  28.359  37.873  13.856
23855W        W92073  28.874   4.828   1.892
23856W        W92074  31.154  42.913  13.903
23857W        W92075  38.059   2.405   2.633
23858W        W92076  14.516  18.290   3.653
23859W        W92077  33.601  30.513   3.147
23860W        W92078  43.451  41.457  12.092
23861W        W92079  26.227  31.026  14.805
23862W        W92080  35.040  35.662  14.082
23863W        W92081  27.916  21.817   4.727
23864W        W92082  12.479  11.601  11.559
23865W        W92083  24.274   1.637  14.898
23866W        W92084   1.889  28.224   1.194
23867W        W92085   4.156  43.704   2.716
23868W        W92086  38.643  39.464   0.021
23869W        W92087   1.307   7.962  13.764
23870W        W92088  21.302  11.270   2.187
23871W        W92089  22.127  42.966  13.917
23872W        W92090  42.264  41.809   4.959
23873W        W92091   5.650  27.060  11.845
23874W        W92092  10.146  12.659  12.857
23875W        W92093   1.700   7.915  11.239
23876W        W92094  18.516  44.417  12.800
23877W        W92095  22.150  30.141   0.763
23878W        W92096  13.519  26.752   1.164
23879W        W92097  32.156  21.223   0.811
23880W        W92098   8.114  38.388   2.321
23881W        W92099  13.790  37.404   4.897
23882W        W92100  23.164  37.905   2.343
23883W        W92101  37.370   2.894   3.757
23884W        W92102  11.301  30.669  10.630
23885W        W92103  30.808  19.604   9.833
23886W        W92104  18.084  43.435   2.659
23887W        W92105  37.939  11.666   2.202
23888W        W92106  21.048   3.400   2.229
23889W        W92107  34.400  39.326  12.764
23890W        W92108  17.931  37.711  14.308
23891W        W92109   4.677  44.937  11.336
23892W        W92110  44.937   3.779   4.706
23893W        W92111  27.005  23.669   0.731
23894W        W92112   8.402  18.601  11.959
23895W        W92113  19.348  22.674   0.200
23896W        W92114  29.044  10.372  10.258
23897W        W92115  20.981  32.102  12.495
23898W        W92116   9.281   0.855   2.402
23899W        W92117  14.196  38.203  13.398
23900W        W92118   0.446  14.176   1.828
23901W        W92119   5.624  25.481  13.374
23902W        W92120  44.798  30.743   2.736
23903W        W92121  34.418  29.098  14.960
23904W        W92122  17.309  21.195   2.777
23905W        W92123  28.774  43.040   2.888
23906W        W92124  24.525  25.687  12.492
23907W        W92125  25.255  14.094   3.642
23908W        W92126  13.151   2.796  13.368
23909W        W92127  18.152   7.110  12.314
23910W        W92128  42.794  28.515  10.640
23911W        W92129  17.850   0.595  14.242
23912W        W92130  23.110   1.512  12.588
23913W        W92131  37.880  27.467  11.590
23914W        W92132  17.398  20.560  12.918
23915W        W92133  22.168   0.750  13.557
23916W        W92134  13.661  32.635  11.886
23917W        W92135  18.209   2.975  10.692
23918W        W92136  39.750  10.269   3.964
23919W        W92137  32.649  14.616   1.037
23920W        W92138   1.650  10.829   0.884
23921W        W92139  23.611  26.455  11.384
23922W        W92140  12.851   5.785  10.923
23923W        W92141  32.943   1.837   0.911
23924W        W92142  25.941  11.038  13.555
23925W        W92143  18.190  33.793   1.777
23926W        W92144  42.721  31.956  13.907
23927W        W92145  18.752  42.553   1.020
23928W        W92146  16.645  12.270   2.187
23929W        W92147  26.376  12.309   2.408
23930W        W92148   5.143  40.038  13.812
23931W        W92149  33.916  31.017   2.276
23932W        W92150  17.593  27.532   3.252
23933W        W92151  16.490  17.286  10.085
23934W        W92152  43.079  10.604   1.004
23935W        W92153   0.489  13.551   1.105
23936W        W92154  39.320  28.993  14.011
23937W        W92155  24.191  29.620  13.795
23938W        W92156  17.621  17.911   4.608
23939W        W92157  42.001  30.557   4.597
23940W        W92158  24.230  25.760  13.459
23941W        W92159  20.871  36.347   2.420
23942W        W92160   5.245  15.312   4.642
23943W        W92161  12.871  28.213  13.672
23944W        W92162   3.542  12.356   1.370
23945W        W92163  20.074  16.265   4.674
23946W        W92164  40.292  43.205  13.120
23947W        W92165  32.029  12.064   0.200
23948W        W92166  14.841  28.706   1.621
23949W        W92167  42.832   9.518   4.862
23950W        W92168  30.023   9.898  10.650
23951W        W92169  38.230  12.338  14.500
23952W        W92170  34.482  10.782  13.814
23953W        W92171   8.094  21.388   2.033
23954W        W92172  43.519  28.094  11.902
23955W        W92173  19.201  42.746  12.480
23956W        W92174  10.097   9.801  14.456
23957W        W92175  44.604   4.974  12.130
23958W        W92176   3.071   4.463  11.120
23959W        W92177  22.394   8.709  12.819
23960W        W92178  38.941  20.319  14.428
23961W        W92179  39.073   9.634  14.409
23962W        W92180  23.704  37.575  14.423
23963W        W92181  37.776  30.573   3.225
23964W        W92182   5.960  18.784   3.262
23965W        W92183   1.748  23.539  14.587
23966W        W92184   5.205  26.792  13.990
23967W        W92185  13.213  36.368  13.894
23968W        W92186  24.225  18.106  13.088
23969W        W92187  22.522  20.952  11.066
23970W        W92188  28.936  18.772   1.447
23971W        W92189  34.853  10.748  10.614
23972W        W92190   3.426  23.387  10.604
23973W        W92191  42.453  11.117  11.127
23974W        W92192  18.225   9.612   3.698
23975W        W92193  12.825  21.769  12.008
23976W        W92194  27.952  31.881   0.929
23977W        W92195  35.453  24.983  13.019
23978W        W92196  12.227  26.657  13.571
23979W        W92197   9.357  15.188  14.425
23980W        W92198  41.518   6.661  14.222
23981W        W92199  17.284   4.907   2.787
23982W        W92200  13.528  18.111   4.975
23983W        W92201   9.181  19.245   2.795
23984W        W92202  10.096  26.433  12.075
23985W        W92203   3.600  42.471   2.225
23986W        W92204  14.824  25.960  12.139
23987W        W92205   9.759  41.849   4.407
23988W        W92206  21.714   5.626   3.277
23989W        W92207  24.121  36.007  11.707
23990W        W92208  41.759  23.421  11.162
23991W        W92209   0.026  22.086  14.488
23992W        W92210   7.155   3.742  10.816
23993W        W92211  23.962  18.063  13.514
23994W        W92212   0.848  28.451   4.562
23995W        W92213  43.522  18.699   0.460
23996W        W92214   9.925  13.051   3.263
23997W        W92215  35.800  29.186   1.807
23998W        W92216  33.457   5.411   5.088
23999W        W92217  26.571  35.605  13.652
24000W        W92218  28.579  19.074  11.520
24001W        W92219  12.780  18.021   3.933
24002W        W92220  27.508  25.079  13.370
24003W        W92221  18.729   7.890  13.779
24004W        W92222  17.575  27.733   2.616
24005W        W92223   9.946   7.211  13.190
24006W        W92224   9.647  35.378   0.276
24007W        W92225  12.791  14.566   0.190
24008W        W92226  13.318  31.301   3.660
24009W        W92227  17.174  41.547   5.118
24010W        W92228  25.948  28.765  12.444
24011W        W92229  27.657  20.069  12.145
24012W        W92230  22.663   7.699  11.650
24013W        W92231   9.918  23.174   2.815
24014W        W92232  29.363  23.943  11.616
24015W        W92233   3.213  43.786  11.691
24016W        W92234  44.677  22.442  14.329
24017W        W92235  30.422   5.335  14.157
24018W        W92236   8.106  15.145  11.126
24019W        W92237  30.949   4.590  12.426
24020W        W92238  41.436  23.497  12.882
24021W        W92239   1.928  24.077   3.342
24022W        W92240  15.027  14.925  14.461
24023W        W92241  25.533  34.187   3.822
24024W        W92242  10.420  17.021   0.399
24025W        W92243  39.844   2.021  14.779
24026W        W92244  24.929  17.850   0.823
24027W        W92245  41.226  22.155  14.260
24028W        W92246   4.169   2.712  13.235
24029W        W92247  30.730  28.562  11.056
24030W        W92248  28.678  27.461  13.817
24031W        W92249  30.490   1.857  14.184
24032W        W92250   6.198  41.473   4.115
24033W        W92251  12.738  16.165  13.509
24034W        W92252  12.758   2.763  13.011
24035W        W92253  20.944  32.455   4.943
24036W        W92254  42.206  30.339  12.886
24037W        W92255  17.031  26.105   1.915
24038W        W92256  20.116  28.070  12.470
24039W        W92257  14.682  39.584   0.058
24040W        W92258  34.029  21.522  12.464
24041W        W92259  22.733  28.111  12.765
24042W        W92260  12.411  20.187   2.671
24043W        W92261  23.184   8.819   4.866
24044W        W92262  25.013  25.098  12.054
24045W        W92263  34.339  35.193   1.300
24046W        W92264   7.811   6.808  12.513
24047W        W92265   8.335   9.297  11.491
24048W        W92266  23.597  11.689   2.427
24049W        W92267  26.120  25.141  10.123
24050W        W92268   9.098  31.210   4.334
24051W        W92269   4.936  17.093  11.644
24052W        W92270  18.113  37.140   4.148
24053W        W92271   2.721  19.086   3.581
24054W        W92272  21.164  15.869   2.800
24055W        W92273  21.503   5.633  13.472
24056W        W92274  30.432   2.260   3.277
24057W        W92275  25.682   0.811  14.720
24058W        W92276  34.130   3.070   1.360
24059W        W92277  24.706   5.187  12.963
24060W        W92278  15.510   1.910  13.042
24061W        W92279  24.617   7.169  10.938
24062W        W92280  31.958  33.205   0.926
24063W        W92281  23.093  44.553  13.482
24064W        W92282  15.438  24.244  13.025
24065W        W92283  44.354  22.878  11.212
24066W        W92284  42.999   1.845   4.838
24067W        W92285  43.504  35.873   2.156
24068W        W92286   0.005   4.212   3.219
24069W        W92287   7.600   0.816  13.503
24070W        W92288  37.658  30.922  11.178
24071W        W92289  38.263   8.325  12.388
24072W        W92290  12.174  26.432   0.025
24073W        W92291  15.328  36.366   2.786
24074W        W92292  39.658   3.937  14.805
24075W        W92293  44.029  41.993  11.101
24076W        W92294  43.585   1.256  11.180
24077W        W92295  35.634  34.150  11.741
24078W        W92296  30.705  22.041   1.307
24079W        W92297  13.617  12.137   3.175
24080W        W92298  14.449  36.539  13.290
24081W        W92299  18.240   3.327   1.938
24082W        W92300  37.796  32.137  14.256
24083W        W92301  27.445  24.263  12.054
24084W        W92302  13.464   6.478   3.396
24085W        W92303  44.411  29.371  10.322
24086W        W92304   5.684  41.215   2.892
24087W        W92305  27.499  43.418  11.771
24088W        W92306  18.025   0.402   3.667
24089W        W92307  30.262  42.895   4.161
24090W        W92308   5.293  16.183   3.407
24091W        W92309  31.368  18.795   0.979
24092W        W92310  36.740  18.406   2.995
24093W        W92311  14.510  20.041  10.773
24094W        W92312  26.668  16.702  10.658
24095W        W92313   7.352   5.708   0.695
24096W        W92314  20.701  20.511   2.393
24097W        W92315  40.871  20.640   2.295
24098W        W92316  13.364   4.303   0.314
24099W        W92317  14.354  37.620   0.841
24100W        W92318  33.089  20.938  11.358
24101W        W92319  21.537  29.847   4.227
24102W        W92320  38.470  11.361   2.242
24103W        W92321  44.512   4.641   1.744
24104W        W92322  12.378  32.575  11.045
24105W        W92323  39.391  13.381   3.208
24106W        W92324  40.594  14.654   0.925
24107W        W92325  36.612  25.594   4.755
24108W        W92326   8.427  37.628  14.390
24109W        W92327  43.842   5.831  10.776
24110W        W92328   4.141  31.124  13.188
24111W        W92329   4.412   0.023   1.851
24112W        W92330  44.771  22.532   2.798
24113W        W92331   5.973   1.238  13.840
24114W        W92332  34.407  26.962   2.151
24115W        W92333   4.101  15.479   3.700
24116W        W92334  25.629  19.650   1.748
24117W        W92335  22.147  41.711   4.732
24118W        W92336  42.839   9.186   3.558
24119W        W92337   7.283  24.552  11.395
24120W        W92338   6.118   2.469   3.253
24121W        W92339  40.524  13.097   2.748
24122W        W92340  14.311  13.281   1.444
24123W        W92341  25.967   4.794   0.788
24124W        W92342  43.336  35.123   4.203
24125W        W92343  35.049  37.298  12.521
24126W        W92344  41.180  11.371  11.630
24127W        W92345  33.081   7.886  12.807
24128W        W92346  10.906  25.530   4.950
24129W        W92347  29.191  40.693  12.514
24130W        W92348   6.650  25.017  14.750
24131W        W92349  24.575  31.044   2.913
24132W        W92350  40.952  43.486  12.456
24133W        W92351   3.917  14.020  11.499
24134W        W92352  14.085  25.206  10.758
24135W        W92353  21.794  11.041  13.880
24136W        W92354  44.107  20.636  11.205
24137W        W92355   6.943  29.524   1.232
24138W        W92356   7.105   9.401   2.633
24139W        W92357  34.989  25.712  11.891
24140W        W92358  37.904  42.570   3.692
24141W        W92359  44.860  17.356   4.148
24142W        W92360  38.289  10.334  10.957
24143W        W92361   8.664  14.731  14.888
24144W        W92362  17.692  21.538   2.233
24145W        W92363  38.363  18.067   2.820
24146W        W92364  32.203  35.014  13.499
24147W        W92365  34.816  24.636   4.875
24148W        W92366  25.757  17.034  11.169
24149W        W92367  30.496  38.520  11.065
24150W        W92368  20.509   0.598   4.918
24151W        W92369  17.211  32.359  14.282
24152W        W92370  39.949  10.394   0.254
24153W        W92371   2.920  27.865   2.156
24154W        W92372   7.446  22.014   4.068
24155W        W92373  44.058  10.609   3.571
24156W        W92374  38.556   9.949   2.754
24157W        W92375  19.340   1.784   2.181
24158W        W92376  38.343  13.109  12.134
24159W        W92377  28.229  21.114   1.027
24160W        W92378   5.034  42.783  10.717
24161W        W92379  42.325  35.194   2.773
24162W        W92380  11.813  27.924   2.454
24163W        W92381  11.687  21.790  13.691
24164W        W92382   8.353  27.710  13.478
24165W        W92383   8.728   8.781  13.895
24166W        W92384  43.513  33.129  13.535
24167W        W92385  29.287  23.528  13.302
24168W        W92386  35.093   3.168   0.008
24169W        W92387  21.540  41.822  14.999
24170W        W92388   1.513  19.608  12.540
24171W        W92389  10.658  41.510   0.775
24172W        W92390  44.597  26.969   1.777
24173W        W92391  15.987  17.218  10.984
24174W        W92392  24.160  35.548  12.888
24175W        W92393   6.490  37.940  11.653
24176W        W92394   9.253  12.672  11.616
24177W        W92395  21.500  26.002   0.039
24178W        W92396   7.261  26.193  12.049
24179W        W92397   2.330  36.191   4.595
24180W        W92398  19.622  28.133  12.962
24181W        W92399  41.966  27.573   2.853
24182W        W92400   2.019  31.625  11.000
24183W        W92401  26.949  30.101  13.866
24184W        W92402  41.905  39.854   1.393
24185W        W92403  25.441  22.164  12.029
24186W        W92404   2.361  24.622   0.684
24187W        W92405  20.136   4.379   4.098
24188W        W92406  36.714  32.430  12.472
24189W        W92407  10.883  12.227   1.467
24190W        W92408   7.051   8.612   2.213
24191W        W92409  10.568  43.612   1.820
24192W        W92410  43.511  12.709  14.737
24193W        W92411  16.230   1.091   1.037
24194W        W92412  20.431  18.228  11.625
24195W        W92413  43.200  34.559   1.038
24196W        W92414  22.477  29.046   2.367
24197W        W92415  13.205  22.177   1.282
24198W        W92416  11.154   8.162   0.832
24199W        W92417  19.263  37.823   3.707
24200W        W92418   8.852  36.895  11.574
24201W        W92419  26.125   3.937  12.505
24202W        W92420  23.854  13.178  11.933
24203W        W92421  16.633  29.392   0.951
24204W        W92422  44.197  13.294  11.888
24205W        W92423   0.464  17.798  12.173
24206W        W92424  15.867  12.013  10.203
24207W        W92425  19.729   9.806   3.755
24208W        W92426  22.753  15.586  10.218
24209W        W92427  31.583   3.125   4.575
24210W        W92428   6.797  28.640   4.396
24211W        W92429  10.247   1.245   1.735
24212W        W92430  27.397  26.095   4.623
24213W        W92431  12.561  30.862   3.874
24214W        W92432  37.391  43.448   2.098
24215W        W92433  19.191  16.368  13.396
24216W        W92434  36.352  16.712   2.892
24217W        W92435   5.353  29.433  14.320
24218W        W92436  29.901  13.419   1.373
24219W        W92437  41.367  31.435  14.006
24220W        W92438   5.487  27.225   0.238
24221W        W92439  14.124   6.653   4.149
24222W        W92440   5.135  22.409  11.541
24223W        W92441  13.774  10.400   0.847
24224W        W92442  10.826  10.368  12.163
24225W        W92443  38.105  11.349   0.799
24226W        W92444  42.799   7.125  14.255
24227W        W92445  25.553  25.955   1.398
24228W        W92446  30.348  20.039   3.420
24229W        W92447  44.802  44.875  12.416
24230W        W92448  32.640  30.974   1.774
24231W        W92449  28.729  43.934   2.087
24232W        W92450  29.992  32.690   2.765
24233W        W92451   6.197  14.128   2.594
24234W        W92452  25.525  21.273   3.709
24235W        W92453  42.772  22.699   0.925
24236W        W92454  29.533   9.689  10.692
24237W        W92455  37.873   3.476  13.904
24238W        W92456  44.740  36.566  12.097
24239W        W92457  44.843  15.848  11.606
24240W        W92458  22.511  43.262   3.316
24241W        W92459  42.388  10.609  11.792
24242W        W92460  13.355   9.573   3.361
24243W        W92461  25.369  26.213   1.800
24244W        W92462  42.002  43.209  11.033
24245W        W92463  33.114  16.842  11.116
24246W        W92464  21.806  21.721   3.010
24247W        W92465  27.623  18.543   1.601
24248W        W92466  12.348  33.027   3.062
24249W        W92467  34.859  31.473   0.851
24250W        W92468  35.943  26.113   2.871
24251W        W92469  27.055  44.742   1.905
24252W        W92470   1.319  27.638   1.686
24253W        W92471  40.022  35.503  11.461
24254W        W92472  28.910  38.888   1.931
24255W        W92473  38.312  29.527   4.200
24256W        W92474  29.528  35.195  14.496
24257W        W92475  17.647  30.838   0.104
24258W        W92476  28.080  32.501  13.374
24259W        W92477  22.080  41.557  10.797
24260W        W92478  38.120   7.314   4.599
24261W        W92479  34.046   9.267  14.385
24262W        W92480   6.178  29.036   9.806
24263W        W92481  10.522  29.516  10.962
24264W        W92482  30.974   2.787   1.311
24265W        W92483  12.359  24.443  13.820
24266W        W92484   3.279  14.889  10.709
24267W        W92485  29.128  35.026   0.407
24268W        W92486   3.302   3.391  11.534
24269W        W92487  26.177  26.883   4.631
24270W        W92488  40.422  13.741  12.628
24271W        W92489  31.002  32.163  10.671
24272W        W92490  44.757   3.250  13.259
24273W        W92491  21.184  38.945  14.841
24274W        W92492  44.307  23.148   1.155
24275W        W92493  44.821  38.399   0.168
24276W        W92494  19.267   5.750   4.077
24277W        W92495   7.324  39.134  13.687
24278W        W92496   9.412  16.292  14.593
24279W        W92497  36.931  35.954  14.880
24280W        W92498   6.431  39.758   4.641
24281W        W92499  27.177   6.052   2.730
24282W        W92500  38.056   6.932   5.015
24283W        W92501   8.981  38.674  12.894
24284W        W92502  19.201   3.911  11.532
24285W        W92503  19.565  18.752   2.149
24286W        W92504  27.334  42.882   3.016
24287W        W92505   3.905  41.041  11.308
24288W        W92506  22.205  16.617   3.645
24289W        W92507  22.050  18.561  13.780
24290W        W92508  27.103  38.562   3.185
24291W        W92509  13.595  29.616   4.754
24292W        W92510   8.630  23.545   0.269
24293W        W92511   6.362   0.228  12.524
24294W        W92512  39.794   5.397   3.098
24295W        W92513  37.496  26.255   0.753
24296W        W92514  43.810  44.795  13.893
24297W        W92515   2.352  20.278   2.255
24298W        W92516  26.246  43.939   2.303
24299W        W92517   5.834  33.457   2.758
24300W        W92518  12.613   6.255   2.464
24301W        W92519  16.291  13.380  11.145
24302W        W92520   0.413  15.106  10.742
24303W        W92521  16.652  28.502   0.963
24304W        W92522  30.392  23.568  12.030
24305W        W92523  22.575  41.921   4.483
24306W        W92524  23.595  15.108  12.622
24307W        W92525  13.149  21.230   2.295
24308W        W92526   0.003  11.095  12.328
24309W        W92527  36.458   2.190   0.839
24310W        W92528  32.344  17.201   0.799
24311W        W92529  42.559  15.118  11.209
24312W        W92530   9.431   0.284   0.758
24313W        W92531  43.858   2.499  14.827
24314W        W92532  32.847  17.601   2.520
24315W        W92533   5.366   5.314   2.322
24316W        W92534  22.671  14.792  12.966
24317W        W92535  18.237   1.774  13.406
24318W        W92536  10.188  29.924  12.994
24319W        W92537  20.653  34.614  11.206
24320W        W92538   3.605  24.809   1.929
24321W        W92539  26.045  44.385   2.136
24322W        W92540  25.254  19.997  11.965
24323W        W92541   1.272  26.689   2.236
24324W        W92542  27.000  35.611  14.908
24325W        W92543  21.163  35.964   4.549
24326W        W92544  40.465   9.173   3.363
24327W        W92545   0.179  13.048   1.946
24328W        W92546  20.790  28.621   3.601
24329W        W92547  17.550  10.963  11.063
24330W        W92548  40.592  20.136   4.567
24331W        W92549  31.015  29.905  14.981
24332W        W92550   2.309  39.543   3.193
24333W        W92551   7.297   7.732  12.035
24334W        W92552  28.185  15.002  14.070
24335W        W92553   7.763   8.087  13.525
24336W        W92554  14.613  32.261   3.864
24337W        W92555   0.447  16.102   3.193
24338W        W92556  33.331   6.670   4.775
24339W        W92557  11.391  32.058   0.396
24340W        W92558  30.066  43.863  14.903
24341W        W92559  41.708   9.896  13.459
24342W        W92560  22.681  25.021   4.550
24343W        W92561  36.811  11.980  11.167
24344W        W92562  10.602  20.517  13.513
24345W        W92563  40.233   4.349   5.077
24346W        W92564  26.478  37.506   1.751
24347W        W92565   4.480  17.191   2.991
24348W        W92566  33.524  33.357   3.108
24349W        W92567  42.850  42.476   0.197
24350W        W92568  31.722  27.594  12.888
24351W        W92569  20.535  42.047   1.944
24352W        W92570  38.157   4.047   3.130
24353W        W92571  36.983  28.884  13.015
24354W        W92572  19.658   9.152   3.227
24355W        W92573  20.827  44.128  12.039
24356W        W92574   8.148   2.629  10.711
24357W        W92575  33.408  33.160   1.061
24358W        W92576  38.506  38.382   1.033
24359W        W92577  31.172  35.382   4.237
24360W        W92578   8.882   9.154   2.320
24361W        W92579  41.759  18.309  13.223
24362W        W92580  37.291   3.575   3.709
24363W        W92581  10.887  15.104   4.495
24364W        W92582   5.678  39.631   1.891
24365W        W92583  38.891  32.321  14.794
24366W        W92584  19.906  32.130  12.414
24367W        W92585  15.703  34.942  11.675
24368W        W92586  35.085   6.679  11.622
24369W        W92587   5.926   7.369  13.156
24370W        W92588  26.892  18.262   3.840
24371W        W92589  43.905  36.123   4.290
24372W        W92590  27.405  35.837  11.038
24373W        W92591  17.666  37.876  11.035
24374W        W92592   1.358  12.663   2.583
24375W        W92593  43.989  13.652  13.810
24376W        W92594   2.755  42.749  12.078
24377W        W92595   7.873  30.444  10.787
24378W        W92596  39.309  17.289  13.549
24379W        W92597  20.136  30.018   2.630
24380W        W92598  34.589  40.747  12.922
24381W        W92599   0.038   4.593   0.798
24382W        W92600  10.599  10.784   1.150
24383W        W92601  22.611  36.217  14.969
24384W        W92602  35.583  28.435   2.254
24385W        W92603  33.706   8.323  11.223
24386W        W92604  32.109  31.645  14.848
24387W        W92605  18.581   6.916  12.521
24388W        W92606  18.642   1.065  11.687
24389W        W92607  23.435  40.543   0.873
24390W        W92608   0.340  14.846   0.277
24391W        W92609  18.797   6.347  14.841
24392W        W92610  12.209  34.800   3.704
24393W        W92611  41.012  41.766  13.011
24394W        W92612   7.818   7.713  14.364
24395W        W92613  28.435  28.420   4.614
24396W        W92614  36.050  24.124   3.567
24397W        W92615  13.562   9.342  10.717
24398W        W92616  41.060  22.573   3.172
24399W        W92617  25.509   8.181   0.735
24400W        W92618  24.162  16.334  12.362
24401W        W92619  32.830  10.338  14.435
24402W        W92620  38.610  11.284   0.858
24403W        W92621  38.562  15.285   3.812
24404W        W92622  16.963  29.009   2.237
24405W        W92623   0.250  13.218  12.063
24406W        W92624   1.420  35.145   4.618
24407W        W92625  19.995  41.031   2.777
24408W        W92626  44.783  37.645  11.238
24409W        W92627  23.656  39.493  14.374
24410W        W92628  37.962   4.625   3.984
24411W        W92629  20.585  27.339   3.193
24412W        W92630  27.674  26.086   1.361
24413W        W92631  23.225  34.101   2.836
24414W        W92632   4.317  40.258   1.733
24415W        W92633   4.318  38.846  12.516
24416W        W92634   3.841  11.846  14.391
24417W        W92635  28.249  11.190   0.970
24418W        W92636  14.606  28.105   0.357
24419W        W92637  13.814  33.090   4.579
24420W        W92638  30.925   1.785   3.841
24421W        W92639  18.190  30.124  10.603
24422W        W92640  29.058  16.279   1.365
24423W        W92641   1.508  26.432  14.743
24424W        W92642  20.152  31.022   0.443
24425W        W92643  17.606  36.103  12.519
24426W        W92644  36.797  32.585   3.073
24427W        W92645  26.455  44.380  10.240
24428W        W92646  17.247  29.666  14.344
24429W        W92647   3.439  10.287  10.540
24430W        W92648  41.361  24.188   4.130
24431W        W92649  19.850  31.779  13.288
24432W        W92650   3.341  42.080   4.542
24433W        W92651  18.051  24.626   1.681
24434W        W92652  10.424  14.098   5.151
24435W        W92653  28.998  43.191   4.110
24436W        W92654   6.905  21.182  13.043
24437W        W92655  21.481  27.228   3.188
24438W        W92656  44.066  10.666  11.642
24439W        W92657  37.914  39.888   1.353
24440W        W92658  14.073   8.161  11.547
24441W        W92659   6.896  40.444  12.120
24442W        W92660  41.274  38.945   2.717
24443W        W92661  20.235  28.704  14.279
24444W        W92662  11.234  31.920  11.151
24445W        W92663  26.089   2.428   0.807
24446W        W92664   6.443  40.341  13.409
24447W        W92665  31.339  21.453   3.171
24448W        W92666  36.082  16.272  12.846
24449W        W92667   8.642   5.433  10.465
24450W        W92668  32.731  36.819   2.195
24451W        W92669  28.307  27.705  14.746
24452W        W92670   6.867  20.253   2.908
24453W        W92671   4.452   4.919   2.331
24454W        W92672  12.840   4.672   1.872
24455W        W92673  30.104  33.538  13.299
24456W        W92674  40.296  11.793   1.507
24457W        W92675  33.463  18.731  11.007
24458W        W92676  32.319  24.722  13.073
24459W        W92677  39.057  37.564  14.965
24460W        W92678  10.824   9.098   2.315
24461W        W92679   3.734  42.386  11.966
24462W        W92680  35.608  44.368  14.409
24463W        W92681  11.327   3.095  13.104
24464W        W92682   8.048  23.830  11.524
24465W        W92683  12.877  31.677  14.572
24466W        W92684  11.316  17.910   5.042
24467W        W92685   1.039  40.474   1.788
24468W        W92686  26.838  33.050  13.770
24469W        W92687   4.365  39.167  10.630
24470W        W92688  33.127  34.852  13.796
24471W        W92689  22.495  13.897   4.371
24472W        W92690  27.193  11.264  12.062
24473W        W92691  40.606  23.464  12.550
24474W        W92692   4.484  20.650  12.207
24475W        W92693  34.341  19.399   1.737
24476W        W92694  43.397  41.002   2.186
24477W        W92695  25.578  42.333   0.730
24478W        W92696  14.633  10.332   1.042
24479W        W92697   9.841  17.615   1.744
24480W        W92698  17.733   1.295  14.756
24481W        W92699  38.068  33.481  10.737
24482W        W92700  32.907  13.864   2.723
24483W        W92701  32.837   1.801  14.718
24484W        W92702  12.230  26.698   1.738
24485W        W92703   1.006   9.165  12.388
24486W        W92704  30.179  43.026   2.201
24487W        W92705  27.297  16.899   4.952
24488W        W92706   8.163  37.954   3.126
24489W        W92707   2.355  14.723   1.459
24490W        W92708  44.797  32.197  11.194
24491W        W92709  20.407  42.695  12.092
24492W        W92710  26.765  25.645   9.845
24493W        W92711  40.221  30.664  12.227
24494W        W92712  42.020  39.489   2.646
24495W        W92713  12.051  21.035  11.229
24496W        W92714  12.748  17.787   2.886
24497W        W92715  13.277  37.101   1.001
24498W        W92716  33.867  20.528  11.579
24499W        W92717  23.048  35.048   3.126
24500W        W92718   3.039  39.941   1.376
24501W        W92719   0.364   8.714   0.507
24502W        W92720   3.012  41.984  14.198
24503W        W92721   7.656  44.797   1.302
24504W        W92722  18.683  30.129   3.330
24505W        W92723  11.666  39.552   4.591
24506W        W92724  39.013  37.353   2.852
24507W        W92725  38.819  29.690  13.424
24508W        W92726  11.909   4.780   2.882
24509W        W92727  16.297  38.840   1.274
24510W        W92728  33.077   0.524   0.399
24511W        W92729  41.872  38.837  12.582
24512W        W92730  20.518  30.505   0.929
24513W        W92731  38.773  34.401  10.796
24514W        W92732  24.724   2.353   0.491
24515W        W92733  20.078  19.167   3.213
24516W        W92734  14.169   9.293   2.795
24517W        W92735  17.583  42.020  14.968
24518W        W92736   5.532   5.730  13.353
24519W        W92737  11.785  19.735   3.245
24520W        W92738   2.894   9.490  14.184
24521W        W92739   5.298   8.350  14.482
24522W        W92740  39.416  31.441  14.778
24523W        W92741  31.086  24.956  12.460
24524W        W92742   8.811  26.797  13.410
24525W        W92743   0.156  26.016  10.615
24526W        W92744  36.129  34.660   4.541
24527W        W92745  30.595   8.866  11.125
24528W        W92746  35.544  26.100   2.538
24529W        W92747  25.162  31.831  13.347
24530W        W92748  37.382  39.885   0.499
24531W        W92749  39.865  16.101   2.960
24532W        W92750  14.779  32.317   1.306
24533W        W92751   2.541  22.297  14.841
24534W        W92752  16.180  36.150   2.316
24535W        W92753  39.095   1.241   0.208
24536W        W92754   7.608  15.867   4.890
24537W        W92755  17.508  14.038  13.033
24538W        W92756  32.951  13.889   3.660
24539W        W92757  18.192  14.313   0.469
24540W        W92758  41.703  32.448   2.703
24541W        W92759  40.103  30.223  14.880
24542W        W92760  33.070  10.271  12.277
24543W        W92761  43.983  39.567  10.721
24544W        W92762  28.603  15.807  13.983
24545W        W92763  17.612  13.728   3.787
24546W        W92764  17.194  23.507   2.161
24547W        W92765  37.626   6.398   3.739
24548W        W92766  15.763  43.778   3.760
24549W        W92767  32.868   0.914   3.525
24550W        W92768  40.276  13.363  14.317
24551W        W92769  23.044   1.227   4.100
24552W        W92770  12.164   9.894  14.861
24553W        W92771   7.438   3.681  11.650
24554W        W92772  34.099   1.201   2.274
24555W        W92773  23.755  13.695  11.167
24556W        W92774   4.513  21.630   2.759
24557W        W92775  44.892  20.036  13.925
24558W        W92776  39.593  12.751  12.018
24559W        W92777  26.497  42.910  11.178
24560W        W92778  25.693  41.280  12.059
24561W        W92779  38.564  30.148  11.515
24562W        W92780  36.837  13.663   2.914
24563W        W92781  15.336  41.536   5.725
24564W        W92782   5.116  27.588   1.558
24565W        W92783  15.123   9.054   1.239
24566W        W92784  10.731  16.097  13.658
24567W        W92785  19.396  33.928   2.660
24568W        W92786  19.216  20.131   2.277
24569W        W92787  40.882   3.345  12.545
24570W        W92788   5.391  22.474  13.377
24571W        W92789  10.883  23.846   4.559
24572W        W92790  19.608  19.543  11.229
24573W        W92791  13.625  24.805   4.018
24574W        W92792   4.734   9.141   3.665
24575W        W92793   6.607  18.336   4.519
24576W        W92794  21.253  21.245  11.515
24577W        W92795   2.000  38.568   3.365
24578W        W92796  33.440  35.091  12.970
24579W        W92797  24.496  12.730   4.212
24580W        W92798  18.965   9.384   0.239
24581W        W92799  16.862   4.508  11.040
24582W        W92800   2.398  18.331  13.209
24583W        W92801  23.149  24.171  12.033
24584W        W92802  15.273   1.255  13.856
24585W        W92803  37.699   7.218   1.857
24586W        W92804   5.766  15.597   1.120
24587W        W92805   8.382  15.483  10.189
24588W        W92806  28.930  31.902   1.776
24589W        W92807  30.361  38.251   1.369
24590W        W92808  39.359  36.356  13.321
24591W        W92809  12.922  18.616  12.163
24592W        W92810  25.434   3.674   0.676
24593W        W92811  12.345  44.387   2.102
24594W        W92812  12.782  30.630   2.079
24595W        W92813  41.243  42.493  14.301
24596W        W92814  35.700  30.159   3.887
24597W        W92815  26.428  18.707  13.830
24598W        W92816  43.724  40.998   4.895
24599W        W92817  32.837   6.321   3.823
24600W        W92818  15.466  38.544   2.134
24601W        W92819  16.886   6.248  10.679
24602W        W92820  28.469   7.596  12.280
24603W        W92821  28.952  21.933  12.592
24604W        W92822   6.348  17.377  13.593
24605W        W92823  32.590  23.483   0.238
24606W        W92824  31.010  14.797   4.959
24607W        W92825  26.139  44.956  10.602
24608W        W92826  36.997   8.477  14.914
24609W        W92827  18.234  11.351   5.446
24610W        W92828  20.724  28.561  13.370
24611W        W92829  31.420  29.092  13.396
24612W        W92830  20.846  36.696   0.720
24613W        W92831  26.067  44.831   2.389
24614W        W92832  33.854   4.367   2.989
24615W        W92833  20.746  38.723  14.598
24616W        W92834  25.258  18.312   4.231
24617W        W92835  23.051  23.496  10.408
24618W        W92836  33.644  44.675  12.864
24619W        W92837  37.837  11.507   4.377
24620W        W92838   8.769  27.286  11.473
24621W        W92839  31.212   3.331  12.917
24622W        W92840   9.813  36.815   0.870
24623W        W92841  40.577  33.073   1.362
24624W        W92842  16.798  32.882   0.333
24625W        W92843   3.978  15.132  12.020
24626W        W92844  11.129  10.814  13.539
24627W        W92845   1.427  35.416   0.268
24628W        W92846  25.228  14.485   3.313
24629W        W92847  21.686  14.916   2.416
24630W        W92848  27.624  24.585  11.152
24631W        W92849  27.243  14.212  14.965
24632W        W92850  31.076  21.055   3.720
24633W        W92851   1.999  33.030  10.542
24634W        W92852   5.662   2.327   2.979
24635W        W92853  14.930  41.784   4.591
24636W        W92854  15.865   8.148  14.435
24637W        W92855  11.788  20.482   3.697
24638W        W92856  15.768  11.895   2.627
24639W        W92857   4.651  25.639   4.135
24640W        W92858  42.875   7.768  12.165
24641W        W92859  42.004  11.940   0.294
24642W        W92860  23.571  25.940   4.005
24643W        W92861  44.298  44.853   0.868
24644W        W92862  32.946   9.658  11.213
24645W        W92863  18.581  40.943  14.170
24646W        W92864   8.474  31.865   4.511
24647W        W92865  42.760   4.155  13.942
24648W        W92866  27.186  18.557   2.661
24649W        W92867  38.459  29.125   0.336
24650W        W92868  12.358   3.531  10.676
24651W        W92869  26.669  44.756   0.201
24652W        W92870  28.373  35.000   2.786
24653W        W92871  15.425  18.480   3.655
24654W        W92872  30.176  17.040   3.459
24655W        W92873  31.437  13.889   2.246
24656W        W92874  19.305  25.662   2.863
24657W        W92875  13.818  14.348   4.794
24658W        W92876  42.020  25.280   1.784
24659W        W92877   0.241  41.054  13.389
24660W        W92878  35.093  43.062  14.882
24661W        W92879  30.640  24.870  12.676
24662W        W92880  28.429  40.507  13.472
24663W        W92881   6.663  21.283  12.583
24664W        W92882  25.639  30.004   2.139
24665W        W92883  16.312   4.453  14.467
24666W        W92884  21.649   4.007   1.025
24667W        W92885  22.612  25.391   3.337
24668W        W92886  29.867  38.157  11.569
24669W        W92887  32.217  25.112   4.160
24670W        W92888  44.018   1.254   4.237
24671W        W92889  38.813  41.038  11.263
24672W        W92890   4.520   1.273   2.789
24673W        W92891  33.936   1.312  11.191
24674W        W92892  33.701  33.100  10.628
24675W        W92893  32.410  18.942   1.795
24676W        W92894  40.091   3.028  12.931
24677W        W92895  17.633  18.086   3.291
24678W        W92896   5.176  27.628   0.319
24679W        W92897   7.120  11.881  12.483
24680W        W92898  19.702  15.655   1.897
24681W        W92899  18.885  29.261   2.071
24682W        W92900  30.665  23.081   3.132
24683W        W92901  35.165  13.235  11.204
24684W        W92902  40.770  43.791   1.297
24685W        W92903  26.145  11.001   1.917
24686W        W92904  12.707  25.035  14.223
24687W        W92905  15.017  42.606   4.150
24688W        W92906  43.877   6.203  11.523
24689W        W92907  14.557   7.067   2.761
24690W        W92908  16.536  13.126  13.892
24691W        W92909   2.642  38.217   1.679
24692W        W92910  23.290  24.648   2.756
24693W        W92911  13.876   0.509  11.455
24694W        W92912  33.069  26.233   3.236
24695W        W92913  25.405  35.605  10.527
24696W        W92914  20.022  10.770  14.696
24697W        W92915  17.756  28.796  14.228
24698W        W92916  41.808   8.773   0.509
24699W        W92917  30.272   4.759  11.531
24700W        W92918  34.339  15.225  10.628
24701W        W92919   8.741  31.568   2.175
24702W        W92920  15.523  24.096  14.333
24703W        W92921  44.434  39.454  10.473
24704W        W92922   5.435  27.911   3.349
24705W        W92923  17.276  13.384  12.446
24706W        W92924  32.542  11.074   3.848
24707W        W92925  29.712  35.887   1.269
24708W        W92926  42.361  20.054  14.342
24709W        W92927  27.006  39.919  12.898
24710W        W92928  25.704  24.250   2.267
24711W        W92929  17.108  35.853  14.338
24712W        W92930  24.500  36.288  12.579
24713W        W92931  38.222   5.840   5.349
24714W        W92932  15.799   5.563   3.241
24715W        W92933  24.982  15.831  13.936
24716W        W92934  17.169  22.170  12.987
24717W        W92935  33.108  16.742   4.742
24718W        W92936  44.576  26.223   1.282
24719W        W92937  42.510  33.991   0.429
24720W        W92938   0.447  14.378   0.449
24721W        W92939  37.049   2.868   1.009
24722W        W92940  11.435  25.438   5.009
24723W        W92941  12.390  41.099  12.336
24724W        W92942   4.883  17.511   9.951
24725W        W92943  13.556   3.299   4.779
24726W        W92944  21.045  28.513  14.724
24727W        W92945  33.368  28.256   3.759
24728W        W92946  18.554  43.494   4.661
24729W        W92947  41.367  18.177  13.532
24730W        W92948  33.896  25.996   1.820
24731W        W92949  14.019  36.612  11.117
24732W        W92950   6.492  19.687   5.078
24733W        W92951  37.954  18.944   2.710
24734W        W92952  28.057  43.336   0.775
24735W        W92953  42.378  25.530  14.593
24736W        W92954  41.057  17.773  13.422
24737W        W92955  37.177  28.143   3.111
24738W        W92956  29.776  42.744   9.886
24739W        W92957  23.081  14.558  13.189
24740W        W92958  40.586  19.578   4.957
24741W        W92959  30.418  26.250   3.253
24742W        W92960  38.291  44.645   2.431
24743W        W92961   1.364  17.387   3.879
24744W        W92962  11.076  22.689  12.946
24745W        W92963  27.450  41.986   4.904
24746W        W92964   0.286  38.071  14.502
24747W        W92965  13.252  27.706   1.356
24748W        W92966  37.437  35.979   1.741
24749W        W92967  26.418   2.223  11.525
24750W        W92968  16.769  16.834  10.642
24751W        W92969  31.195   6.144  13.844
24752W        W92970   5.072  35.126  13.544
24753W        W92971  11.826  40.969   4.943
24754W        W92972   2.520  10.859   3.341
24755W        W92973  41.905  18.348  12.269
24756W        W92974  21.563  31.814  13.864
24757W        W92975  30.179  24.688   1.825
24758W        W92976   1.218  11.393  10.739
24759W        W92977  31.558  16.854  12.895
24760W        W92978  38.698   5.715   4.964
24761W        W92979  25.935  19.328  11.517
24762W        W92980  41.422  29.633   1.231
24763W        W92981  32.347  22.811   3.441
24764W        W92982  37.655   1.169   0.321
24765W        W92983  39.547   9.112   3.169
24766W        W92984  31.031  41.541   3.617
24767W        W92985  35.624   3.966  14.433
24768W        W92986  34.514  41.802  11.940
24769W        W92987  22.772  40.141  11.395
24770W        W92988  41.859   2.853   0.450
24771W        W92989  25.996  27.965   2.246
24772W        W92990  41.731  14.291   2.055
24773W        W92991  37.758  29.196  10.649
24774W        W92992  20.066  24.614   3.398
24775W        W92993   6.768  13.318   4.079
24776W        W92994  43.300  26.538   3.673
24777W        W92995   5.184  40.388   1.759
24778W        W92996  32.076  31.833   4.232
24779W        W92997  22.783   2.061   2.332
24780W        W92998  34.087  29.843   9.916
24781W        W92999   5.042  24.902  11.209
24782W        W93000   3.513  41.959  12.174
24783W        W93001  20.446  23.972  13.838
24784W        W93002   1.869  22.021  11.955
24785W        W93003  11.362  13.767   0.128
24786W        W93004  12.671  41.786  12.956
24787W        W93005  30.916  31.400  11.536
24788W        W93006  25.232  15.811  10.713
24789W        W93007   3.243  10.858   2.259
24790W        W93008  25.398  37.575  11.238
24791W        W93009  19.039  11.273  11.930
24792W        W93010  25.460   4.778   2.263
24793W        W93011   5.303  44.696   0.936
24794W        W93012  20.415   7.142   4.610
24795W        W93013   0.807  37.553   1.272
24796W        W93014  13.614  43.282  13.301
24797W        W93015   7.169  13.284  11.070
24798W        W93016  30.579  39.846  10.815
24799W        W93017  11.634   2.905   3.912
24800W        W93018  38.650  21.756   2.285
24801W        W93019   8.707  42.881   0.292
24802W        W93020  26.557  34.604  13.491
24803W        W93021  44.483  29.999   0.929
24804W        W93022  39.816  26.108   2.780
24805W        W93023  15.689  29.560  12.212
24806W        W93024  44.343  27.868   3.195
24807W        W93025  25.996  25.712   3.568
24808W        W93026  41.292   4.527   0.289
24809W        W93027  27.976   2.350   1.242
24810W        W93028  38.544  10.843  13.344
24811W        W93029  27.162  42.312  12.971
24812W        W93030   1.248  29.476  14.977
24813W        W93031  24.029  36.934  12.131
24814W        W93032  23.599  14.811   1.203
24815W        W93033  39.500  42.381   2.868
24816W        W93034  26.175  11.628   2.743
24817W        W93035  40.996  39.534  13.181
24818W        W93036  35.859  17.191  10.710
24819W        W93037  21.591  20.163  12.573
24820W        W93038  40.066   8.191   1.331
24821W        W93039  15.829   6.078  14.969
24822W        W93040  28.939   3.676   2.520
24823W        W93041  33.452  44.680   4.610
24824W        W93042  15.575  37.480   3.581
24825W        W93043   4.579   1.317  14.659
24826W        W93044  13.078  19.596   5.089
24827W        W93045  27.112  17.813   3.990
24828W        W93046  28.487  40.577   1.875
24829W        W93047  39.755  12.188   4.586
24830W        W93048  24.787  31.463   0.345
24831W        W93049  25.855  12.765   4.116
24832W        W93050  39.595   1.705   1.051
24833W        W93051  44.799  25.863  12.521
24834W        W93052   4.236  12.599   2.807
24835W        W93053  37.515  41.905   2.598
24836W        W93054   7.679  27.219   2.216
24837W        W93055  34.061  41.158  10.986
24838W        W93056  25.263  28.573  14.785
24839W        W93057  21.002  18.138   2.078
24840W        W93058   3.266   0.997  11.994
24841W        W93059  40.260  23.760  14.431
24842W        W93060   2.115  18.738   1.333
24843W        W93061  35.817  33.328   2.077
24844W        W93062  33.441  33.335   4.986
24845W        W93063  41.031   8.121  13.885
24846W        W93064  44.464  25.281   3.184
24847W        W93065  24.140  33.833   4.261
24848W        W93066  14.614  24.141   4.623
24849W        W93067   6.931  28.130   3.181
24850W        W93068  32.064  37.392  14.863
24851W        W93069   0.583  23.552   0.380
24852W        W93070  43.035  21.580   0.121
24853W        W93071   9.479  15.793  13.860
24854W        W93072  24.732  31.031   1.977
24855W        W93073  33.230  27.146  12.538
24856W        W93074  17.015  17.712   3.785
24857W        W93075  24.190  18.267   2.362
24858W        W93076  25.234  17.608  14.383
24859W        W93077  30.001  26.647  11.354
24860W        W93078  14.647  41.771   4.156
24861W        W93079  28.069  44.309   2.825
24862W        W93080   8.504   1.230   2.680
24863W        W93081  40.145  27.673  14.900
24864W        W93082  30.397  37.888   2.770
24865W        W93083   3.358  33.076   4.706
24866W        W93084  41.375  27.729   2.791
24867W        W93085   5.253  19.614   2.268
24868W        W93086  40.082  32.907   1.303
24869W        W93087  30.698   0.487  12.980
24870W        W93088  32.055  14.735   0.729
24871W        W93089  22.429  42.773   4.421
24872W        W93090  29.978  43.328  14.318
24873W        W93091  28.197  37.570   4.718
24874W        W93092  16.077  34.408  14.024
24875W        W93093  28.866   8.772  10.539
24876W        W93094  37.694  40.619  12.499
24877W        W93095  39.022  21.340   4.102
24878W        W93096  16.149  38.806  12.258
24879W        W93097   0.924   9.764  13.535
24880W        W93098  39.568  16.561   1.259
24881W        W93099  26.657   4.574   2.037
24882W        W93100  30.325  37.019   2.681
24883W        W93101  27.136  11.167  13.514
24884W        W93102  37.472   8.187  13.009
24885W        W93103  12.816  15.398  11.048
24886W        W93104  15.026  34.383   0.823
24887W        W93105  10.042  11.217  13.410
24888W        W93106  18.662   0.721   4.083
24889W        W93107  33.369  42.443  12.045
24890W        W93108  19.006  36.445  14.861
24891W        W93109   9.324  37.350  11.654
24892W        W93110  13.812   8.631  13.783
24893W        W93111   1.252  17.172   0.422
24894W        W93112  32.727  20.192   2.230
24895W        W93113   7.244   2.690  10.739
24896W        W93114  17.878  28.144   0.418
24897W        W93115  21.940  18.393  13.311
24898W        W93116  19.063  34.932  12.414
24899W        W93117  36.591  37.508  12.437
24900W        W93118   9.656  43.335  13.848
24901W        W93119  41.121  31.532   4.919
24902W        W93120   8.652   7.433   2.680
24903W        W93121   5.303  25.185   1.327
24904W        W93122  10.161  29.379  12.987
24905W        W93123  18.117  41.083   4.467
24906W        W93124  27.278  33.412  11.140
24907W        W93125  35.365  42.942   4.327
24908W        W93126  12.355  22.583  11.551
24909W        W93127  24.997  12.890   0.944
24910W        W93128  24.023   9.087   1.300
24911W        W93129  22.045  21.508   3.808
24912W        W93130   3.889  41.254  13.540
24913W        W93131   1.180  10.320   0.524
24914W        W93132   3.132  32.011   0.814
24915W        W93133   5.607  36.577   4.735
24916W        W93134   5.597   4.891   3.972
24917W        W93135  23.580  21.942   2.348
24918W        W93136  20.713  11.212   3.641
24919W        W93137  16.781  42.901  10.837
24920W        W93138  35.547  21.189   0.874
24921W        W93139  44.544  24.556   1.783
24922W        W93140   2.921  32.705   1.398
24923W        W93141  39.431  21.511  10.859
24924W        W93142  32.121   8.639   3.270
24925W        W93143  40.445  25.249   3.789
24926W        W93144   4.748  18.028   3.590
24927W        W93145   2.951  26.637   0.781
24928W        W93146  24.694  34.411  12.318
24929W        W93147  16.418  31.040   1.985
24930W        W93148  16.626   9.683   0.282
24931W        W93149  42.577   0.994  14.335
24932W        W93150  34.311  35.185   2.123
24933W        W93151  22.546  28.459  10.732
24934W        W93152  34.962  18.090  11.537
24935W        W93153  40.143  14.892   0.964
24936W        W93154  10.913  40.133   2.214
24937W        W93155  12.565   1.477  13.517
24938W        W93156  36.609  24.993   1.885
24939W        W93157  16.213  21.793   2.831
24940W        W93158  10.134  18.839   0.891
24941W        W93159  43.123  42.595   1.043
24942W        W93160   8.413  40.005  14.375
24943W        W93161  41.428  39.547  14.259
24944W        W93162   0.989  25.657   2.251
24945W        W93163  29.162  24.504  13.427
24946W        W93164  34.506  20.304  11.595
24947W        W93165  23.477  22.047   3.184
24948W        W93166  44.289   6.608   4.329
24949W        W93167  10.327  23.667  12.564
24950W        W93168  15.312  33.270  11.121
24951W        W93169  16.552  39.328   0.365
24952W        W93170  10.867   8.497  11.395
24953W        W93171  32.847   0.927  14.174
24954W        W93172  44.739  43.276   3.120
24955W        W93173  22.766  44.234   2.385
24956W        W93174  24.734  31.393   3.256
24957W        W93175  39.441  22.611  12.130
24958W        W93176  28.319   5.204  10.691
24959W        W93177  23.442   4.799   3.208
24960W        W93178  22.689  12.599   3.750
24961W        W93179  21.867  36.825   1.717
24962W        W93180  28.594   3.725   4.762
24963W        W93181  30.054  27.465  13.310
24964W        W93182  28.519  16.667  14.251
24965W        W93183  15.620   1.868  11.661
24966W        W93184  26.019   5.391  10.746
24967W        W93185  32.633  36.315   2.226
24968W        W93186  27.980  32.716  14.308
24969W        W93187  19.459  31.002  10.647
24970W        W93188  14.644   4.225   0.810
24971W        W93189  29.964  23.297   4.757
24972W        W93190  41.635   0.725   3.676
24973W        W93191   4.160  15.757   4.276
24974W        W93192  33.455  24.219   2.144
24975W        W93193  35.334  30.195   4.677
24976W        W93194  24.870   5.890  10.638
24977W        W93195  12.498  25.542   2.420
24978W        W93196  30.894   3.662  13.447
24979W        W93197  36.850  16.788  14.770
24980W        W93198  32.185  20.729  13.057
24981W        W93199  36.412  35.975  14.730
24982W        W93200  23.974   3.295  13.904
24983W        W93201  33.385  41.451  10.429
24984W        W93202   7.304   7.425   4.010
24985W        W93203  12.578  28.480  13.346
24986W        W93204  38.326  30.941  12.538
24987W        W93205  37.888  26.572  13.334
24988W        W93206  35.458  30.004   5.672
24989W        W93207  20.684  12.153   4.727
24990W        W93208  31.054  15.171  11.075
24991W        W93209  37.329  14.958   0.718
24992W        W93210  35.189  34.173  14.129
24993W        W93211  29.928  19.073   1.626
24994W        W93212  14.280  36.352   0.266
24995W        W93213   9.905  18.791  12.955
24996W        W93214   3.763  22.916   1.393
24997W        W93215  30.951   3.488  11.703
24998W        W93216  34.437  15.720   3.060
24999W        W93217  10.332   9.426  13.923
25000W        W93218  18.142  22.102  13.158
25001W        W93219   0.344   3.378  12.101
25002W        W93220  20.176  39.067  11.127
25003W        W93221  29.145  30.546   1.242
25004W        W93222  11.335  18.676  11.647
25005W        W93223  11.364   9.811  12.914
25006W        W93224   2.724  25.614   0.971
25007W        W93225  20.732  22.556  12.864
25008W        W93226  33.050  11.140  10.568
25009W        W93227  41.990  25.438  11.859
25010W        W93228  19.631   5.268  12.482
25011W        W93229   3.442   1.209   1.776
25012W        W93230  39.453  30.740   2.828
25013W        W93231  33.373  20.081  14.499
25014W        W93232   0.884  19.210  12.160
25015W        W93233  23.325   4.767  12.161
25016W        W93234  27.822   0.313  10.559
25017W        W93235  12.566   1.436  10.699
25018W        W93236  37.335  13.133  11.950
25019W        W93237  22.140   7.514  13.264
25020W        W93238   8.781  42.495   2.280
25021W        W93239  38.560  37.396   3.100
25022W        W93240  29.664   6.255  13.749
25023W        W93241  18.941  42.328  12.639
25024W        W93242  34.550  36.124   0.375
25025W        W93243  16.173  44.587  14.081
25026W        W93244  32.983  37.896   1.144
25027W        W93245  31.777   8.349   1.761
25028W        W93246   1.301  43.718   4.427
25029W        W93247  34.441  23.496   3.436
25030W        W93248  32.161  40.308  11.256
25031W        W93249  20.029  23.158  10.624
25032W        W93250  27.224  29.137  13.351
25033W        W93251  39.617  44.410   2.739
25034W        W93252  16.792  13.756   0.093
25035W        W93253  17.492  38.471  11.807
25036W        W93254  21.100  35.984   5.390
25037W        W93255  30.190  11.801  14.812
25038W        W93256   5.596  29.089   3.780
25039W        W93257  29.557   3.473   4.526
25040W        W93258   6.681  42.998   1.326
25041W        W93259  41.885  12.688  13.994
25042W        W93260  41.700  40.121  12.190
25043W        W93261  32.471  20.279   3.542
25044W        W93262  28.204   1.734   0.787
25045W        W93263   6.781  27.404  12.975
25046W        W93264  33.067  24.489   2.343
25047W        W93265  21.852  38.696  10.586
25048W        W93266  22.309  31.563   0.881
25049W        W93267  33.054  40.587  12.161
25050W        W93268   4.213  34.128   0.939
25051W        W93269   8.926  26.863   0.473
25052W        W93270  25.910  28.489  11.593
25053W        W93271  11.387  28.671   2.201
25054W        W93272  25.384  33.523  14.818
25055W        W93273   2.522  38.419  12.071
25056W        W93274  35.601  23.721  11.581
25057W        W93275   9.787   0.299  12.093
25058W        W93276  22.479  13.725   3.268
25059W        W93277  13.599   6.896   4.085
25060W        W93278   7.991   9.560  14.594
25061W        W93279  23.950  10.810   2.813
25062W        W93280  28.512  16.507  13.397
25063W        W93281  39.259  36.132  10.644
25064W        W93282  30.426  39.784   2.761
25065W        W93283   9.013   9.706  14.530
25066W        W93284  26.691   4.454   0.800
25067W        W93285  14.836   0.717   2.204
25068W        W93286  10.721  25.003   0.789
25069W        W93287  42.491  16.901  11.678
25070W        W93288  17.670   3.764  11.750
25071W        W93289  32.895  26.632  14.894
25072W        W93290  15.255  24.522   1.677
25073W        W93291  27.122  35.511  12.949
25074W        W93292   7.396  20.083   2.872
25075W        W93293  42.492   0.531   0.947
25076W        W93294  19.547  17.747   2.385
25077W        W93295  22.805  27.643  12.460
25078W        W93296  34.425  21.650   4.704
25079W        W93297  24.379   9.055  12.523
25080W        W93298  40.915  34.889  11.659
25081W        W93299  34.389  23.728  11.199
25082W        W93300  25.108  17.562  14.867
25083W        W93301  26.127  17.271   3.236
25084W        W93302  18.250  28.153  14.138
25085W        W93303  37.424  18.498  14.816
25086W        W93304  31.103  33.403   2.264
25087W        W93305  32.430  24.633  12.551
25088W        W93306  36.251   7.101  11.225
25089W        W93307  40.867   6.623  12.865
25090W        W93308  19.942  40.521   4.537
25091W        W93309  44.532  23.521   4.621
25092W        W93310  28.545  11.584   1.338
25093W        W93311  25.994  14.773   0.010
25094W        W93312  20.773   4.412  14.925
25095W        W93313  20.593   3.654   4.685
25096W        W93314   5.340  32.318  12.003
25097W        W93315  16.657  29.425   1.957
25098W        W93316  27.205  20.243  11.467
25099W        W93317   8.308  44.747  11.656
25100W        W93318  22.491  14.586   2.817
25101W        W93319  43.504   9.673  13.350
25102W        W93320  21.274  30.897  14.844
25103W        W93321   3.357  42.316  14.027
25104W        W93322  14.465  18.377   2.243
25105W        W93323  14.851  39.793   4.472
25106W        W93324   1.163   1.739  11.765
25107W        W93325  32.571  16.543  13.881
25108W        W93326  17.079  23.783  14.125
25109W        W93327  13.329  22.395  14.940
25110W        W93328   2.846  35.794   0.468
25111W        W93329  19.545   3.521   3.116
25112W        W93330  34.564  20.072  11.103
25113W        W93331  18.939  25.774  13.036
25114W        W93332  39.940  32.752   0.818
25115W        W93333   5.786  43.748  13.859
25116W        W93334  23.015  27.043   2.305
25117W        W93335  25.494  13.630  11.564
25118W        W93336  41.399  17.990  14.914
25119W        W93337  13.215  26.694  12.547
25120W        W93338   2.847  11.552   2.730
25121W        W93339  12.606  35.383  13.011
25122W        W93340   5.016  40.752  10.150
25123W        W93341  21.232  35.322   3.702
25124W        W93342   7.891  32.081   1.270
25125W        W93343  35.642  35.533   3.889
25126W        W93344  23.076  38.047   0.840
25127W        W93345  28.135  12.369  11.934
25128W        W93346  43.323  34.189   3.236
25129W        W93347  26.666   3.774  14.380
25130W        W93348  27.213  19.788  12.378
25131W        W93349   2.830  16.131  10.753
25132W        W93350   8.335  10.892  11.607
25133W        W93351   8.577   8.742   2.341
25134W        W93352   5.836  35.879  11.009
25135W        W93353  23.467  39.456   4.130
25136W        W93354   2.409  17.600   1.718
25137W        W93355   2.385  41.866  14.885
25138W        W93356   8.742  18.534   3.719
25139W        W93357   1.994  13.727   4.727
25140W        W93358  36.727  44.944   2.264
25141W        W93359   4.467  22.665  13.759
25142W        W93360  22.974  31.079   2.100
25143W        W93361  28.888   6.006   2.267
25144W        W93362  22.739  24.030   2.224
25145W        W93363  18.646  24.701   2.137
25146W        W93364  10.921  23.970   0.381
25147W        W93365   7.323  32.063   2.211
25148W        W93366  16.531   9.192   0.472
25149W        W93367   3.726   1.168  11.144
25150W        W93368  28.145  28.660   0.925
25151W        W93369  15.873  19.121  13.102
25152W        W93370  18.821  23.769  13.526
25153W        W93371  41.919   3.917  12.958
25154W        W93372   7.584  30.527   2.785
25155W        W93373  23.509  19.660   4.489
25156W        W93374  37.823  17.809  10.816
25157W        W93375  12.613  13.446  10.907
25158W        W93376  27.663  27.077  11.667
25159W        W93377  19.670  26.555   0.035
25160W        W93378  25.544  20.782   3.830
25161W        W93379  41.324  11.649   3.383
25162W        W93380  31.372   1.494  12.550
25163W        W93381  18.460  43.367  12.796
25164W        W93382  20.317   5.548  12.698
25165W        W93383  18.600  27.555  12.577
25166W        W93384  40.997  34.015   3.624
25167W        W93385  12.735  32.149   2.758
25168W        W93386   8.460   9.586  11.998
25169W        W93387  15.733  30.424  14.961
25170W        W93388  23.048  19.513   1.361
25171W        W93389  38.317  44.928  11.837
25172W        W93390  20.773  39.836   4.274
25173W        W93391  10.661  41.920   3.089
25174W        W93392  27.997  35.886  10.616
25175W        W93393  17.247  43.387  14.390
25176W        W93394   0.955   7.727   2.447
25177W        W93395   6.891  40.957  12.386
25178W        W93396  29.137  13.412   0.050
25179W        W93397  21.749  28.282  10.379
25180W        W93398  19.746   0.446  13.431
25181W        W93399  27.222  30.203   3.745
25182W        W93400  32.947  39.499  13.981
25183W        W93401  25.688  20.641   0.026
25184W        W93402  34.918  42.469   3.303
25185W        W93403  30.083  23.447  14.903
25186W        W93404  44.546  43.599   1.801
25187W        W93405  16.586  24.119  14.793
25188W        W93406  17.163   9.672   1.541
25189W        W93407  18.621   5.308  13.297
25190W        W93408  42.880  16.185   2.696
25191W        W93409   1.913  24.463   2.251
25192W        W93410   6.233   2.531  14.295
25193W        W93411  44.030   2.015   3.781
25194W        W93412  28.570   5.404  13.398
25195W        W93413   3.409  24.337   1.222
25196W        W93414  32.642  35.662   2.701
25197W        W93415  16.519  24.414   3.328
25198W        W93416  36.131  29.046  14.353
25199W        W93417  28.463  37.130   3.219
25200W        W93418  13.091  30.965  14.331
25201W        W93419  19.494   2.032  10.610
25202W        W93420  16.526  14.151  11.599
25203W        W93421  40.116   3.522  11.138
25204W        W93422  40.949  15.545  11.989
25205W        W93423   3.361  25.686   4.071
25206W        W93424   6.045  32.577   0.320
25207W        W93425  35.411  29.146  13.781
25208W        W93426  38.159   3.212  14.670
25209W        W93427  32.244   1.031   4.702
25210W        W93428  25.779  36.901  13.496
25211W        W93429  23.159  26.454   2.179
25212W        W93430  25.590  13.412   1.309
25213W        W93431  18.111  39.437   3.582
25214W        W93432  13.660   4.708  12.986
25215W        W93433  22.996   7.377   3.555
25216W        W93434  13.996  13.082  10.733
25217W        W93435  13.359  21.705  10.839
25218W        W93436  15.637  31.501  12.308
25219W        W93437  41.872  20.133   0.524
25220W        W93438   0.006  41.352   2.760
25221W        W93439  40.627  13.734   1.707
25222W        W93440  35.462   5.845  14.339
25223W        W93441  13.922   4.983   2.701
25224W        W93442  14.266   7.448   3.043
25225W        W93443  19.497  37.095  11.437
25226W        W93444  41.354  35.066  11.945
25227W        W93445  31.799   5.830   2.016
25228W        W93446  38.627   7.382   2.246
25229W        W93447  28.134   9.510  13.519
25230W        W93448  12.624   4.679   3.191
25231W        W93449  14.332   4.473  11.097
25232W        W93450  17.744  16.221   3.792
25233W        W93451  16.259  29.074  13.883
25234W        W93452  37.772  12.561  12.410
25235W        W93453   9.660  40.766   3.215
25236W        W93454  19.033   7.277   3.306
25237W        W93455  34.206   5.807  11.072
25238W        W93456  16.356   6.126  14.926
25239W        W93457   6.788  16.287  12.868
25240W        W93458  23.674  19.075  14.551
25241W        W93459  17.713  30.682   1.796
25242W        W93460   4.011  17.453  11.454
25243W        W93461   9.511  12.840  11.123
25244W        W93462  24.971  43.420   2.261
25245W        W93463   3.565  31.105   3.224
25246W        W93464  12.665  33.459   4.196
25247W        W93465  12.630  11.078  14.543
25248W        W93466  31.455  19.147  13.623
25249W        W93467  17.281  10.093  14.780
25250W        W93468   6.121  40.160  11.538
25251W        W93469   9.015  14.571   4.932
25252W        W93470  10.435  36.046   1.486
25253W        W93471   1.209  18.341   2.262
25254W        W93472  36.217   6.686   0.395
25255W        W93473   9.464  13.244   3.262
25256W        W93474  19.750  43.477  12.539
25257W        W93475  16.276  14.685   0.083
25258W        W93476   2.482   3.418  12.789
25259W        W93477  43.761  29.198  11.644
25260W        W93478  21.715   7.087   3.128
25261W        W93479  34.431   5.871   2.700
25262W        W93480  30.163  43.920   0.977
25263W        W93481  40.616  18.640  10.423
25264W        W93482   6.117  21.520   1.272
25265W        W93483  21.213  24.694  12.418
25266W        W93484  31.801  14.083  11.211
25267W        W93485  24.543  34.761  13.436
25268W        W93486  29.707  33.675  13.642
25269W        W93487  18.588  44.709   4.143
25270W        W93488  26.217   1.461   3.812
25271W        W93489  32.966  17.557   4.296
25272W        W93490  38.858   3.502   2.779
25273W        W93491  17.556  26.557  12.023
25274W        W93492  30.146  27.615   3.271
25275W        W93493   3.213  31.259   0.743
25276W        W93494   2.362   1.309  12.482
25277W        W93495  41.897  24.279  12.433
25278W        W93496  28.867  18.634  13.300
25279W        W93497  21.647  18.369  11.974
25280W        W93498   7.802  18.310   2.755
25281W        W93499   2.224  38.629   1.654
25282W        W93500  31.674  10.237   2.639
25283W        W93501  15.145  16.313   3.517
25284W        W93502  30.990  24.956  11.029
25285W        W93503  10.146  23.426  10.191
25286W        W93504   6.695  16.542   1.346
25287W        W93505  32.096  12.856   3.602
25288W        W93506  33.400   0.186  10.778
25289W        W93507  24.571  11.657  13.373
25290W        W93508  44.796  36.387  10.792
25291W        W93509   3.225  14.562  12.020
25292W        W93510  20.294  38.545   0.768
25293W        W93511  23.280  21.783  10.949
25294W        W93512   0.910  14.646   1.662
25295W        W93513  37.191  22.014  11.692
25296W        W93514  13.226  40.338   2.106
25297W        W93515   2.776   0.255  13.278
25298W        W93516   0.885  44.878   4.548
25299W        W93517  19.661  10.645   2.790
25300W        W93518   4.905  43.090  11.108
25301W        W93519  10.799  42.910  13.030
25302W        W93520   5.456  21.976   1.913
25303W        W93521   0.526  15.372   2.505
25304W        W93522   8.695  29.438  11.658
25305W        W93523  22.783  42.812   1.217
25306W        W93524  16.654  25.786   1.144
25307W        W93525  23.239  42.537   4.089
25308W        W93526  19.734  34.946   2.861
25309W        W93527  31.424  35.541   4.838
25310W        W93528  28.327  14.058   5.019
25311W        W93529  39.041  16.151  11.637
25312W        W93530  31.937  19.585   3.742
25313W        W93531  13.200  37.121  12.545
25314W        W93532  25.925  27.286  13.494
25315W        W93533  32.608  18.139   3.038
25316W        W93534   2.696  34.850  11.809
25317W        W93535   8.753  37.556  14.800
25318W        W93536  44.440   8.885   4.208
25319W        W93537  21.461  25.129   1.425
25320W        W93538  12.100   8.391   4.008
25321W        W93539  29.011  30.952  13.805
25322W        W93540  19.194  23.229   4.138
25323W        W93541  13.393  34.363  14.812
25324W        W93542  32.714  43.539   4.438
25325W        W93543  18.083   9.179   4.993
25326W        W93544   5.425  33.065   1.527
25327W        W93545  40.425   7.881  11.369
25328W        W93546  17.073  19.215   1.314
25329W        W93547  28.839  30.403  11.851
25330W        W93548   7.159  29.594  12.835
25331W        W93549  28.661  18.379   4.112
25332W        W93550   5.186  34.547  10.782
25333W        W93551  41.816  39.966   3.758
25334W        W93552  26.894  25.749   2.738
25335W        W93553  10.922   9.563   3.278
25336W        W93554  21.802   8.897  11.565
25337W        W93555  30.976  32.517  11.418
25338W        W93556  24.614  12.427   4.679
25339W        W93557  24.947   9.771  10.958
25340W        W93558  37.940  23.786   0.873
25341W        W93559  12.199  35.353   2.794
25342W        W93560  18.824  14.727   2.676
25343W        W93561  39.929  30.974   2.914
25344W        W93562  34.430  42.574  11.507
25345W        W93563   2.962   5.684  10.750
25346W        W93564   8.315  41.131   2.322
25347W        W93565   6.869  28.264   2.704
25348W        W93566  25.324  25.124  13.980
25349W        W93567   6.302  37.493  14.065
25350W        W93568   5.667  29.122   1.354
25351W        W93569  33.011  18.029   0.774
25352W        W93570  39.981  36.024  11.411
25353W        W93571  28.017  41.800  11.131
25354W        W93572  28.659  28.505   4.151
25355W        W93573  14.277  19.985  12.052
25356W        W93574  13.755  32.395  11.036
25357W        W93575  44.897  32.314   5.115
25358W        W93576  42.720  23.973  11.684
25359W        W93577  11.837   9.319   1.706
25360W        W93578   0.692  22.751  11.695
25361W        W93579  27.481  37.315   0.099
25362W        W93580  10.278  35.267  10.892
25363W        W93581  18.092  14.299  14.538
25364W        W93582  25.089  34.394  14.468
25365W        W93583  27.184  42.467  12.477
25366W        W93584  35.487  20.034   1.675
25367W        W93585  15.709  35.965  11.284
25368W        W93586  31.367  31.057  11.573
25369W        W93587   7.998  25.202  10.166
25370W        W93588  14.776   2.926   4.489
25371W        W93589   5.456  20.943  11.920
25372W        W93590  41.313  14.703  10.753
25373W        W93591  21.729  25.531   3.100
25374W        W93592   3.247  32.635  11.597
25375W        W93593  40.866  17.837   0.289
25376W        W93594   4.322  16.673  14.597
25377W        W93595  14.362   7.916  11.186
25378W        W93596  31.933  29.458   3.827
25379W        W93597  14.360  41.504  11.608
25380W        W93598   9.104  15.765   4.199
25381W        W93599  38.907  43.846   1.248
25382W        W93600  23.517  20.860   1.299
25383W        W93601   4.036   3.387   0.701
25384W        W93602  21.673   8.107   3.327
25385W        W93603   7.126  16.704  13.768
25386W        W93604  34.359  13.918   3.706
25387W        W93605  28.965  31.134   4.641
25388W        W93606  42.307   4.931   3.359
25389W        W93607   1.418  16.191   0.187
25390W        W93608  28.898   2.284   3.092
25391W        W93609  37.465  25.114   4.257
25392W        W93610  30.244  44.026  13.893
25393W        W93611  16.337   8.071  14.215
25394W        W93612  23.610  10.217  13.960
25395W        W93613  22.690  27.732  11.207
25396W        W93614  19.046  15.749  14.082
25397W        W93615  20.363  21.274  12.010
25398W        W93616  23.066  40.943  13.602
25399W        W93617  42.965   0.801  14.631
25400W        W93618  22.317  33.742   1.767
25401W        W93619  25.903  44.423  13.817
25402W        W93620  36.634  36.478  11.444
25403W        W93621  33.440  18.207  11.603
25404W        W93622   0.606  17.646  13.958
25405W        W93623  19.348  32.819  10.226
25406W        W93624  19.395  27.495  14.189
25407W        W93625  11.280  33.106   3.067
25408W        W93626  40.483  13.478  10.602
25409W        W93627  11.362   3.291   1.277
25410W        W93628  25.595   6.694  11.228
25411W        W93629  14.306  23.609   1.995
25412W        W93630  29.792  42.116  13.974
25413W        W93631   9.395  41.346  13.125
25414W        W93632  12.702  13.296  14.087
25415W        W93633   9.726  31.688   3.821
25416W        W93634  20.016  35.487  14.578
25417W        W93635  22.650  35.065   1.281
25418W        W93636  23.208  39.894   3.503
25419W        W93637  22.694  35.393   2.963
25420W        W93638   5.968  18.537   1.193
25421W        W93639  20.477  43.778  13.821
25422W        W93640  36.908  14.807   0.987
25423W        W93641  11.826  40.334   4.207
25424W        W93642  32.496  29.990   2.884
25425W        W93643  23.126   1.281   0.706
25426W        W93644  15.681  44.293  10.996
25427W        W93645  37.534   0.421  12.150
25428W        W93646  40.055  19.090   0.377
25429W        W93647  20.327  36.004   4.202
25430W        W93648   9.700  36.804   0.352
25431W        W93649   2.558  44.371   5.170
25432W        W93650   5.837   6.345  10.942
25433W        W93651  40.975  33.775  13.072
25434W        W93652  30.463  31.050   1.563
25435W        W93653  23.296  32.508   3.206
25436W        W93654   6.741  43.773  13.857
25437W        W93655  14.469   0.962   2.740
25438W        W93656  40.209  15.679  14.757
25439W        W93657  11.679  39.609  13.017
25440W        W93658  14.779  39.447  11.212
25441W        W93659  39.036   7.855   3.184
25442W        W93660   6.336   0.783   4.211
25443W        W93661  31.946  37.984  13.458
25444W        W93662   6.334  27.772   4.676
25445W        W93663  40.282  25.003   2.345
25446W        W93664  36.980  24.137  14.277
25447W        W93665   4.618  11.926  13.929
25448W        W93666  26.686  20.170  11.277
25449W        W93667  10.266  33.528   4.316
25450W        W93668  38.851   3.478  12.355
25451W        W93669  25.247  24.916  11.609
25452W        W93670  14.301  15.597  13.454
25453W        W93671  29.272  35.865   0.648
25454W        W93672  35.897  13.583   0.918
25455W        W93673  30.380  17.954  11.556
25456W        W93674  13.865  43.948  13.898
25457W        W93675  29.077  38.400   1.204
25458W        W93676   6.307   4.587   2.746
25459W        W93677   8.790   4.243  11.161
25460W        W93678  21.423  34.652   0.952
25461W        W93679   2.436  12.701  13.383
25462W        W93680  10.741   0.020   3.867
25463W        W93681  15.261  26.917  12.633
25464W        W93682  42.032  26.713   0.210
25465W        W93683  39.254  22.728   0.780
25466W        W93684   3.240  39.966  14.966
25467W        W93685   1.745  24.026   1.263
25468W        W93686  14.525  24.617   3.615
25469W        W93687   2.904   3.424   4.602
25470W        W93688  24.508  36.847  13.288
25471W        W93689  40.494  22.074  11.465
25472W        W93690  17.023   5.395  11.964
25473W        W93691  25.761  21.404   2.427
25474W        W93692  41.234  27.032   0.266
25475W        W93693  20.151   7.268   1.419
25476W        W93694   7.872  39.671   0.853
25477W        W93695  43.542  24.033  13.396
25478W        W93696  26.990  32.618   3.048
25479W        W93697  28.421  12.993   2.248
25480W        W93698  43.275  12.239   4.047
25481W        W93699  42.543  41.941  12.808
25482W        W93700  12.793  20.910  11.614
25483W        W93701   5.371  33.587  14.688
25484W        W93702   2.833  24.210   1.731
25485W        W93703  43.491  40.225  10.169
25486W        W93704   5.592  38.804   1.313
25487W        W93705  33.828   2.673   0.045
25488W        W93706  26.032  17.176  13.571
25489W        W93707  29.834   2.395  13.384
25490W        W93708  15.218  33.624  11.689
25491W        W93709  36.091  13.158   1.211
25492W        W93710  27.057  43.512   3.211
25493W        W93711  35.438   5.673  10.345
25494W        W93712   9.449  41.912   1.690
25495W        W93713  28.359   4.275  12.312
25496W        W93714  40.388   4.683  14.396
25497W        W93715   1.469   2.970  13.786
25498W        W93716  38.059  13.722   0.824
25499W        W93717  43.686  17.825  12.870
25500W        W93718  37.869  19.703   1.038
25501W        W93719  41.412  28.439   4.420
25502W        W93720  21.300  30.662   1.980
25503W        W93721   4.438  33.520   3.675
25504W        W93722  12.779  17.197  11.095
25505W        W93723   6.694  31.640   0.238
25506W        W93724  43.419  11.356   0.963
25507W        W93725   3.015   0.515  12.309
25508W        W93726   4.765  43.069   2.377
25509W        W93727  16.084  34.653  11.119
25510W        W93728  11.655  43.258   1.888
25511W        W93729  36.019  25.908  11.122
25512W        W93730  19.711  24.501  11.417
25513W        W93731  28.879  30.431  13.901
25514W        W93732  18.655  36.915  11.051
25515W        W93733  27.298  43.691  14.807
25516W        W93734   6.562  34.011   3.208
25517W        W93735   0.844  32.604  14.528
25518W        W93736   2.505  41.724  12.080
25519W        W93737  32.192  43.216  14.716
25520W        W93738  19.659  14.980  10.226
25521W        W93739   7.081  21.269  14.879
25522W        W93740  24.071   7.872   2.549
25523W        W93741   2.875  41.362   4.436
25524W        W93742  21.675  28.871  11.093
25525W        W93743  10.785  39.816  11.730
25526W        W93744  38.872  39.320   1.234
25527W        W93745  43.593  10.773  13.410
25528W        W93746  11.255  32.220  10.719
25529W        W93747  11.080   4.425  12.209
25530W        W93748  16.347  38.963   4.069
25531W        W93749   0.393   2.561  12.451
25532W        W93750  34.472   1.963   2.016
25533W        W93751  39.035   9.270   3.134
25534W        W93752   5.696  38.040   1.035
25535W        W93753  18.293  28.137  10.677
25536W        W93754   2.499  17.676  13.889
25537W        W93755   8.749  40.347   2.945
25538W        W93756  30.668   8.695   4.961
25539W        W93757  24.641  44.064   4.118
25540W        W93758  29.865  37.929   2.829
25541W        W93759  16.572  14.308   0.316
25542W        W93760  15.071   2.958   3.330
25543W        W93761   8.729   2.422   1.349
25544W        W93762  43.194  12.121  14.423
25545W        W93763  31.076  37.487   0.156
25546W        W93764  44.929   4.508  12.378
25547W        W93765  34.695  27.710  13.719
25548W        W93766  32.649  39.097   1.394
25549W        W93767  27.713  27.191   2.199
25550W        W93768  18.598   9.273  13.393
25551W        W93769  16.817   2.926  12.552
25552W        W93770  39.116  11.758   9.848
25553W        W93771   3.050  29.066  14.467
25554W        W93772   2.733  37.576   2.286
25555W        W93773  11.450  14.634  11.502
25556W        W93774   3.985   3.478  14.256
25557W        W93775  33.947   2.286  12.853
25558W        W93776  14.813  14.825   1.392
25559W        W93777  43.490  43.756   4.668
25560W        W93778  17.005  27.210   2.716
25561W        W93779  31.003  39.978  14.920
25562W        W93780  33.991   4.282   4.035
25563W        W93781   4.445  29.916   0.950
25564W        W93782  28.072  17.025  13.512
25565W        W93783   1.655  28.478   2.273
25566W        W93784  25.274  19.515   2.254
25567W        W93785  12.333   6.338   3.133
25568W        W93786  14.656   2.147   2.473
25569W        W93787   3.341   5.242   1.401
25570W        W93788   3.842  44.403   1.269
25571W        W93789  26.145  23.584  11.539
25572W        W93790  27.950   1.069  13.549
25573W        W93791  23.675   2.438   0.019
25574W        W93792  41.174  42.687  11.345
25575W        W93793  43.890  42.481  14.086
25576W        W93794   8.030  14.866  11.574
25577W        W93795  28.905  12.641   0.815
25578W        W93796  15.787  29.505   0.793
25579W        W93797  29.921   4.007  13.554
25580W        W93798  11.693  38.094   0.251
25581W        W93799  14.395  12.226   2.777
25582W        W93800  32.963  41.067   1.730
25583W        W93801  19.749  33.134   4.372
25584W        W93802  22.765  24.545   4.794
25585W        W93803  33.805  18.036   4.178
25586W        W93804  34.965  25.085  12.486
25587W        W93805  11.304  30.509   4.220
25588W        W93806  39.239  31.814   2.718
25589W        W93807  16.600  16.779  13.886
25590W        W93808  21.061  11.138   2.683
25591W        W93809  27.653  16.871   4.573
25592W        W93810   5.836   1.832   3.762
25593W        W93811  14.096  17.305   0.393
25594W        W93812   0.235  35.435  12.350
25595W        W93813  29.196   9.344   1.972
25596W        W93814  19.562  21.091  14.367
25597W        W93815  20.488  23.293   4.782
25598W        W93816   9.772   2.231   3.124
25599W        W93817   8.678  25.233   2.340
25600W        W93818  22.509  15.641   1.408
25601W        W93819   7.334  31.510   2.720
25602W        W93820  34.897  32.521  13.164
25603W        W93821   5.046  13.060  11.209
25604W        W93822  16.696  32.887  12.141
25605W        W93823  44.790  40.897   3.420
25606W        W93824  22.967  17.313   2.833
25607W        W93825  13.305  33.412  14.295
25608W        W93826   7.197   7.805  12.876
25609W        W93827   5.361  12.855   2.238
25610W        W93828  36.342  37.359  14.021
25611W        W93829  17.355   4.674   1.212
25612W        W93830  28.400  22.605   0.891
25613W        W93831  19.424  43.134   1.818
25614W        W93832  40.017  26.280   1.775
25615W        W93833  10.628   3.988   0.176
25616W        W93834  38.325  17.508   4.236
25617W        W93835  17.269  31.429   1.426
25618W        W93836  33.614  11.155   0.991
25619W        W93837  33.579  22.735   1.298
25620W        W93838   7.292  16.318  11.679
25621W        W93839  42.238  33.006  13.503
25622W        W93840   9.936  14.735   2.456
25623W        W93841   5.832  27.560   2.401
25624W        W93842  12.822  28.414  12.504
25625W        W93843  36.604  32.076   3.735
25626W        W93844  12.302  34.965   0.553
25627W        W93845  40.901   8.340   0.256
25628W        W93846  44.842   0.879  13.838
25629W        W93847   1.313  42.553   0.908
25630W        W93848  37.871  31.665  11.561
25631W        W93849   4.020  25.165  14.008
25632W        W93850  21.280  23.941   4.148
25633W        W93851  39.645  23.642  11.338
25634W        W93852  18.277   0.813  14.012
25635W        W93853  18.703  32.202   3.135
25636W        W93854  11.568  37.574  14.749
25637W        W93855  42.072  18.773  12.503
25638W        W93856   5.270   1.207   4.727
25639W        W93857  21.306  41.378  14.806
25640W        W93858  21.310  39.104  14.348
25641W        W93859  18.163  17.341  12.066
25642W        W93860  36.906  33.611   1.849
25643W        W93861  35.917   4.365  14.569
25644W        W93862  39.354  34.975   1.369
25645W        W93863  34.915  34.101   4.530
25646W        W93864  20.469   4.490  11.147
25647W        W93865  22.955  38.854   3.549
25648W        W93866   4.240   8.269  11.696
25649W        W93867  16.678  21.724   0.188
25650W        W93868   0.782   9.395  14.651
25651W        W93869  16.707  22.714   2.464
25652W        W93870  44.729   9.768   1.774
25653W        W93871  40.549  22.312  10.714
25654W        W93872  19.395  36.885   9.909
25655W        W93873  29.600  24.244  12.558
25656W        W93874  36.948   9.784  14.420
25657W        W93875  25.952  24.491   0.327
25658W        W93876  18.912   9.460  12.996
25659W        W93877  11.684  20.282  12.867
25660W        W93878  32.638   9.881   3.165
25661W        W93879   6.437  29.851   4.727
25662W        W93880   4.424  25.939  11.627
25663W        W93881  22.926   3.334   2.744
25664W        W93882  39.118  18.753   1.863
25665W        W93883  36.991  29.432  13.865
25666W        W93884  31.536  28.103  14.468
25667W        W93885   4.970  43.850  13.315
25668W        W93886   0.767  32.146  12.344
25669W        W93887   1.372  25.961  14.573
25670W        W93888  16.917   3.968  13.325
25671W        W93889  26.143   5.207  12.059
25672W        W93890  37.286  28.610   1.310
25673W        W93891  42.383  40.961   1.253
25674W        W93892  18.244  16.046  13.405
25675W        W93893  29.605   6.160  11.599
25676W        W93894  36.287  33.845   0.160
25677W        W93895   1.474   5.975   2.285
25678W        W93896   6.377  43.883  12.227
25679W        W93897  17.793  28.714   3.677
25680W        W93898  20.722  21.767  13.987
25681W        W93899  36.905  24.930  11.145
25682W        W93900   5.712  29.056   2.866
25683W        W93901  20.154  29.939   4.255
25684W        W93902  30.435  16.583  11.741
25685W        W93903  12.102  18.822   2.208
25686W        W93904  30.988  32.435   1.826
25687W        W93905  11.852   2.000   3.008
25688W        W93906  18.401  38.486  14.098
25689W        W93907  32.842  33.394   2.255
25690W        W93908  41.295  37.260   0.360
25691W        W93909  38.131  18.467  14.352
25692W        W93910  39.999  41.944  13.037
25693W        W93911  17.173  43.531   2.108
25694W        W93912  39.010  34.940   3.426
25695W        W93913   1.682  15.204  11.505
25696W        W93914  22.876   1.948  12.859
25697W        W93915  26.669  26.152  10.770
25698W        W93916  32.974  43.042  10.570
25699W        W93917  25.096  15.593   4.093
25700W        W93918  41.726  20.197   1.552
25701W        W93919  39.564  37.576   0.753
25702W        W93920  43.283  29.987   2.666
25703W        W93921  33.578  28.709   3.961
25704W        W93922  18.554  20.196   2.915
25705W        W93923  16.611  16.020  14.356
25706W        W93924   9.920  23.062   3.336
25707W        W93925   9.663  43.722   1.839
25708W        W93926  25.480   6.187  11.240
25709W        W93927  35.946  31.472   0.736
25710W        W93928  34.297   8.838  14.567
25711W        W93929  36.408  10.366  14.792
25712W        W93930  12.631  43.074  12.541
25713W        W93931  10.194   0.340  10.702
25714W        W93932  30.971  11.750   3.136
25715W        W93933  24.647  41.000   0.453
25716W        W93934   9.251  34.289   2.408
25717W        W93935  34.984  30.647   4.119
25718W        W93936  40.840  10.751   4.591
25719W        W93937  31.998   9.452  14.293
25720W        W93938   6.182  18.244  14.865
25721W        W93939  18.174  44.039  12.100
25722W        W93940  26.216   9.847  11.088
25723W        W93941  43.756   8.141  11.060
25724W        W93942  33.951  34.929  14.401
25725W        W93943  43.365   9.896  12.913
25726W        W93944  30.091  37.474   2.753
25727W        W93945  22.461  19.765   2.178
25728W        W93946  14.584   2.532  10.240
25729W        W93947   8.830  31.934  13.671
25730W        W93948  40.500  35.990  13.387
25731W        W93949  11.953  24.068   1.208
25732W        W93950  35.435  24.490  12.000
25733W        W93951   2.312  13.827  14.505
25734W        W93952  17.812  27.257  13.413
25735W        W93953  26.882  13.826   4.234
25736W        W93954  39.363  37.100   0.643
25737W        W93955  22.797  23.418   3.077
25738W        W93956   2.807   8.268  10.769
25739W        W93957  14.740  20.665  14.146
25740W        W93958  33.427  13.017   4.476
25741W        W93959  21.066  22.243  12.328
25742W        W93960  43.300   9.443  13.780
25743W        W93961  33.158  32.176   5.144
25744W        W93962   0.191  25.946  14.804
25745W        W93963  12.308   6.899   3.773
25746W        W93964  22.286  14.823  12.609
25747W        W93965  32.565  35.875  13.614
25748W        W93966  13.774  30.463   2.413
25749W        W93967  10.239  41.172  11.185
25750W        W93968  35.855  17.679   0.872
25751W        W93969  36.984  18.653   2.613
25752W        W93970  11.926  40.064   3.768
25753W        W93971  31.588  29.056   4.243
25754W        W93972  12.644  44.184   4.069
25755W        W93973   6.428  18.092   1.641
25756W        W93974   5.453   7.898  11.705
25757W        W93975  13.030  17.933   0.975
25758W        W93976  28.137  25.079  14.747
25759W        W93977  11.570   7.603   2.774
25760W        W93978  21.291  16.755   2.866
25761W        W93979  19.648  43.075   4.109
25762W        W93980  41.373  29.508  10.547
25763W        W93981  19.063  18.389   2.667
25764W        W93982  36.108  34.900  13.925
25765W        W93983   0.224  29.116   3.574
25766W        W93984  30.821  40.256  13.484
25767W        W93985  12.750  33.946   4.401
25768W        W93986  41.283  15.359   2.825
25769W        W93987  28.563  25.306   0.863
25770W        W93988  40.406  33.895  10.879
25771W        W93989  41.398  39.668  12.333
25772W        W93990  36.231  25.451  14.808
25773W        W93991  23.303  41.006  11.457
25774W        W93992  16.648   5.132  12.868
25775W        W93993  21.208   2.964  11.483
25776W        W93994  19.266  10.911   2.546
25777W        W93995  40.292  19.055   3.212
25778W        W93996  19.785  29.800   0.019
25779W        W93997  12.868  25.194  13.724
25780W        W93998  14.237  34.078  11.057
25781W        W93999  17.774   8.970   1.383
25782W        W94000  15.343   6.480   2.134
25783W        W94001  15.284  36.110  12.897
25784W        W94002  33.480  43.295  11.913
25785W        W94003  14.741  44.713   3.677
25786W        W94004   8.247   3.325  13.727
25787W        W94005  23.498  17.627   2.278
25788W        W94006   1.041  34.664  13.566
25789W        W94007  13.214  39.050   9.978
25790W        W94008   1.715   2.319   5.016
25791W        W94009  17.001  23.458  11.562
25792W        W94010  37.664  22.168  10.252
25793W        W94011  16.604  26.440   4.761
25794W        W94012  29.161   7.718  12.050
25795W        W94013  39.867  43.248   0.345
25796W        W94014  40.100  34.786   5.017
25797W        W94015  41.991  19.682  10.551
25798W        W94016  44.488  19.609   1.913
25799W        W94017  24.782   6.110  12.963
25800W        W94018   0.049  38.403  14.171
25801W        W94019   5.668  11.260  14.262
25802W        W94020  29.996   3.364   4.801
25803W        W94021  32.341  31.828   0.290
25804W        W94022  42.052  41.885  12.904
25805W        W94023  23.888  19.172  11.771
25806W        W94024  27.705  35.069   0.341
25807W        W94025  35.279  39.482   4.542
25808W        W94026  22.041  22.577  13.245
25809W        W94027  32.337  32.054  12.044
25810W        W94028  10.863  42.240   3.668
25811W        W94029  13.377  29.205  13.990
25812W        W94030  26.146   4.939   2.899
25813W        W94031   0.764  25.040  10.596
25814W        W94032  18.723  42.045  11.339
25815W        W94033  39.654  30.348  11.554
25816W        W94034  42.573  28.963  10.434
25817W        W94035  42.617  30.363  10.949
25818W        W94036  10.613  23.717  13.372
25819W        W94037   6.297   7.611  10.275
25820W        W94038  23.208   5.265  12.119
25821W        W94039   1.791  26.734   1.484
25822W        W94040  40.885  41.825   2.495
25823W        W94041  26.692  31.106   2.115
25824W        W94042  19.557   3.652   0.506
25825W        W94043  19.206  12.332   2.604
25826W        W94044   5.724  13.597  14.775
25827W        W94045  44.837  29.427  10.662
25828W        W94046  31.086  32.614  14.891
25829W        W94047  26.624  10.880   2.195
25830W        W94048  41.589   7.076   3.154
25831W        W94049  30.850  28.478   4.515
25832W        W94050  21.116   0.342   0.877
25833W        W94051  16.246  38.079  11.656
25834W        W94052   6.417  16.693  11.627
25835W        W94053   4.908  36.955   4.227
25836W        W94054  24.372  30.522   4.919
25837W        W94055  11.537  26.657  10.543
25838W        W94056  26.202  14.015   4.423
25839W        W94057  35.827   5.856   0.695
25840W        W94058  34.932  39.995   3.667
25841W        W94059   9.443  31.465  13.039
25842W        W94060  31.079  37.365   1.653
25843W        W94061  18.979   8.341  10.645
25844W        W94062  28.084  30.046  11.479
25845W        W94063  27.184  14.266  11.136
25846W        W94064   3.908  44.920   1.963
25847W        W94065  24.209  40.783   2.203
25848W        W94066   3.755  43.950   1.806
25849W        W94067   1.517   5.791  14.385
25850W        W94068  40.105   4.834   4.873
25851W        W94069  22.922   8.300   3.786
25852W        W94070  18.662   5.192   2.925
25853W        W94071  17.921  27.810   2.174
25854W        W94072  11.484  30.210  14.484
25855W        W94073  15.818  35.791   2.806
25856W        W94074  23.545  32.143  14.526
25857W        W94075   1.369   7.032  10.858
25858W        W94076   9.937  19.225   0.592
25859W        W94077  39.920  18.796   1.386
25860W        W94078  44.302  33.799   0.472
25861W        W94079   3.933  23.833   1.922
25862W        W94080  18.228   4.154   3.252
25863W        W94081  16.783  25.661  10.484
25864W        W94082  21.415   8.759  14.266
25865W        W94083  16.073  23.217  12.404
25866W        W94084  36.542  28.049   1.322
25867W        W94085   8.047  30.943  10.712
25868W        W94086  41.131  12.524  11.931
25869W        W94087  11.234  42.832  10.294
25870W        W94088  41.797  16.238   2.694
25871W        W94089  20.651  20.248   1.905
25872W        W94090   4.979  21.711  13.404
25873W        W94091  44.973   2.265   4.294
25874W        W94092  40.502  22.794   0.874
25875W        W94093  37.831   2.990  14.324
25876W        W94094  25.973   5.620   0.160
25877W        W94095   3.439  18.387   3.121
25878W        W94096  37.431   0.496   4.673
25879W        W94097  11.751  19.380   5.038
25880W        W94098  36.723  32.527  14.044
25881W        W94099  37.179  44.393   1.462
25882W        W94100  38.734  13.197   2.400
25883W        W94101  25.912  22.930   3.016
25884W        W94102  38.749  15.727   4.579
25885W        W94103  16.116  10.767   0.279
25886W        W94104  13.728   5.779   2.238
25887W        W94105   6.749  12.071   1.379
25888W        W94106  15.550  28.261   3.713
25889W        W94107   5.197  26.149   2.631
25890W        W94108  37.914  24.649  14.955
25891W        W94109   6.566  19.237   0.638
25892W        W94110  10.449  33.208   9.847
25893W        W94111  14.927  40.309  10.949
25894W        W94112  17.526   4.815   2.311
25895W        W94113  35.623  20.097   2.737
25896W        W94114   1.294  14.181   0.979
25897W        W94115  31.328  19.060  12.634
25898W        W94116  27.465  12.400  11.737
25899W        W94117  27.257  31.124   3.882
25900W        W94118  37.654  11.705   4.804
25901W        W94119  28.938   5.467   3.231
25902W        W94120   8.364   1.340  11.720
25903W        W94121  38.040  32.986  14.891
25904W        W94122  21.446   8.842  10.688
25905W        W94123  25.797   6.434  14.042
25906W        W94124  27.867  43.382  14.836
25907W        W94125  27.609  42.891   3.838
25908W        W94126  28.718  14.221  14.081
25909W        W94127   7.308  12.747   1.920
25910W        W94128  16.670  39.323  12.869
25911W        W94129  12.665  44.790   2.257
25912W        W94130  24.465  11.140   4.508
25913W        W94131  11.114  31.501   0.650
25914W        W94132  38.419  23.711   2.637
25915W        W94133   7.902  15.001   2.446
25916W        W94134   8.571  25.695  10.762
25917W        W94135  43.006   7.846  11.666
25918W        W94136  12.276  38.417   3.858
25919W        W94137  24.212  23.277  14.533
25920W        W94138  33.929  13.036  11.993
25921W        W94139  43.468   0.730  14.860
25922W        W94140  11.147  43.063  11.576
25923W        W94141  24.269   2.778   0.912
25924W        W94142  33.772  25.449   9.892
25925W        W94143  10.744  35.519  12.900
25926W        W94144  39.666   1.127   3.723
25927W        W94145  34.827  18.735   1.528
25928W        W94146  29.309   6.787   0.391
25929W        W94147  10.599   4.497  13.380
25930W        W94148  36.708  40.942  11.174
25931W        W94149   0.798  13.130  12.103
25932W        W94150   2.327  37.438   0.967
25933W        W94151  42.520  18.762   0.426
25934W        W94152  27.758  31.463   3.202
25935W        W94153   0.531   5.988   4.096
25936W        W94154  39.376  10.039   4.782
25937W        W94155   2.707  39.269   1.740
25938W        W94156  32.896  23.192  14.040
25939W        W94157  15.141  14.428  13.966
25940W        W94158   4.182  18.216  13.553
25941W        W94159  39.119  28.893   1.385
25942W        W94160  38.418  25.775   0.238
25943W        W94161  43.515  38.510   1.882
25944W        W94162  18.244  31.893   3.589
25945W        W94163  39.935  29.883   4.906
25946W        W94164  30.020  26.487   4.546
25947W        W94165  17.126  19.780   2.285
25948W        W94166  25.170  36.840  13.979
25949W        W94167  12.582   6.290  11.547
25950W        W94168   8.775   2.844   1.706
25951W        W94169   7.357  29.070  10.962
25952W        W94170  27.314  18.080  10.315
25953W        W94171  38.286  36.965   3.190
25954W        W94172  15.728  12.227  10.652
25955W        W94173   8.210  22.246   2.874
25956W        W94174   1.683  20.680   0.465
25957W        W94175  42.383  30.780   1.735
25958W        W94176  28.587  23.706   3.562
25959W        W94177   7.866   6.872   0.984
25960W        W94178   3.923  22.818  12.556
25961W        W94179  31.950  19.946  13.516
25962W        W94180  19.973  10.531  10.688
25963W        W94181  35.576  25.533   2.427
25964W        W94182  32.086  38.933   0.717
25965W        W94183   1.001  31.612   4.170
25966W        W94184   4.285  44.858   0.023
25967W        W94185  27.784  42.313   0.294
25968W        W94186  14.780  21.750  13.905
25969W        W94187  15.593  26.150   1.904
25970W        W94188   9.745   9.913  12.353
25971W        W94189  20.132  12.612  11.221
25972W        W94190  16.999  40.052  14.954
25973W        W94191  20.228  39.884   1.174
25974W        W94192  30.921  36.395   1.155
25975W        W94193  19.876  21.045  12.477
25976W        W94194  34.138  22.708  14.361
25977W        W94195  37.415   1.275  10.528
25978W        W94196  10.210   0.854   3.417
25979W        W94197  15.233  37.869  12.621
25980W        W94198  41.365   1.981   3.220
25981W        W94199  21.022   8.187   0.924
25982W        W94200  32.521   6.495   3.472
25983W        W94201  15.699  15.369  10.468
25984W        W94202  41.931   0.023   1.320
25985W        W94203  43.073  27.436  14.276
25986W        W94204  40.826  35.958  14.074
25987W        W94205  33.444   9.635  13.272
25988W        W94206   0.303  18.153  12.521
25989W        W94207  23.426  37.558   3.817
25990W        W94208  17.185  33.631  13.941
25991W        W94209  38.789  10.682  12.049
25992W        W94210   4.739  18.190   2.197
25993W        W94211   5.628  36.320  10.826
25994W        W94212  44.324   4.248  12.984
25995W        W94213  26.026  18.614   3.273
25996W        W94214  10.602  10.869   1.660
25997W        W94215  10.702  44.508   1.658
25998W        W94216  36.374  18.664   4.752
25999W        W94217  32.893  13.821  14.043
26000W        W94218  34.335  15.170  12.398
26001W        W94219   7.251  26.275   2.461
26002W        W94220  23.959  13.889  14.901
26003W        W94221  19.029   5.141   1.232
26004W        W94222  31.672   5.716   4.561
26005W        W94223  20.635  23.163   1.700
26006W        W94224  25.026  21.967   3.322
26007W        W94225   8.835  27.054   2.817
26008W        W94226   9.238  16.722  11.873
26009W        W94227   6.845   8.419  11.111
26010W        W94228  28.182  29.064  14.766
26011W        W94229  21.243  20.439   3.611
26012W        W94230  17.991  36.623   4.127
26013W        W94231   6.142  37.866  11.283
26014W        W94232  37.947  16.752  13.417
26015W        W94233  18.740  39.968  13.954
26016W        W94234  24.732   0.004  12.975
26017W        W94235  28.670  39.981  14.520
26018W        W94236  39.337  37.060   2.425
26019W        W94237  28.742  31.450  14.519
26020W        W94238  29.038   7.308  13.802
26021W        W94239   2.078  39.073  12.948
26022W        W94240  19.824  42.290   0.269
26023W        W94241   5.055  13.599   0.329
26024W        W94242  43.418  33.335   1.368
26025W        W94243  44.460  29.346   1.625
26026W        W94244  39.951  13.137  12.798
26027W        W94245  37.394  38.276   0.927
26028W        W94246  31.521  32.005   3.524
26029W        W94247  41.176  38.143   0.327
26030W        W94248  25.976  19.017   4.184
26031W        W94249  34.939  44.450   4.615
26032W        W94250  21.175  10.188  11.588
26033W        W94251  28.753  13.373   3.055
26034W        W94252  10.235  19.533   3.291
26035W        W94253  14.570   2.380   0.875
26036W        W94254   8.362  41.792   3.749
26037W        W94255  31.443  24.751  11.148
26038W        W94256   1.748  29.550   0.792
26039W        W94257  12.524  12.839  12.974
26040W        W94258   0.921   0.456   3.676
26041W        W94259  19.137  28.480   0.628
26042W        W94260  26.658  14.231   2.497
26043W        W94261  44.345  25.227   4.381
26044W        W94262   6.416  16.344   2.744
26045W        W94263  20.642  43.959  12.473
26046W        W94264  24.967  11.656   3.178
26047W        W94265  29.932  21.224   4.546
26048W        W94266  35.931  18.156  13.305
26049W        W94267   8.908  26.740   1.335
26050W        W94268   1.859  22.898  10.543
26051W        W94269  11.096   6.756   4.124
26052W        W94270  27.086  34.324  13.682
26053W        W94271  36.920  17.942   3.130
26054W        W94272  28.399  29.612   2.123
26055W        W94273  18.494  17.599   1.378
26056W        W94274  13.757   0.788   3.072
26057W        W94275  44.588  39.393  14.571
26058W        W94276  16.710  30.692  11.956
26059W        W94277  23.964  27.207   0.888
26060W        W94278  17.551  16.081   1.842
26061W        W94279   5.637   2.984  12.593
26062W        W94280  24.297  18.105  14.835
26063W        W94281   8.129   7.642  11.065
26064W        W94282   8.388  25.254   2.757
26065W        W94283   5.247  25.576   3.325
26066W        W94284  24.526  39.530   3.380
26067W        W94285   6.849  10.575   2.370
26068W        W94286  43.445  14.615   4.385
26069W        W94287  18.122  32.642  14.245
26070W        W94288  11.699   6.992   4.937
26071W        W94289  37.406  22.499  13.763
26072W        W94290  10.133   8.828   2.263
26073W        W94291  21.679   0.583  13.601
26074W        W94292   7.731  28.498   4.439
26075W        W94293   9.634  31.431  12.392
26076W        W94294   8.834  18.348   0.724
26077W        W94295  27.574   8.065  14.382
26078W        W94296   0.769  22.756   2.842
26079W        W94297  26.399  16.354  11.647
26080W        W94298  39.256  28.229   1.413
26081W        W94299  31.439  25.088   0.308
26082W        W94300   3.621  36.448   4.934
26083W        W94301  44.209  22.071   2.805
26084W        W94302  26.490  21.153   3.592
26085W        W94303  43.665  40.550   4.275
26086W        W94304   1.207  12.599  12.834
26087W        W94305  26.063  30.097   2.949
26088W        W94306  38.029   4.731   3.319
26089W        W94307  25.308  21.051  10.846
26090W        W94308  40.166  43.595  11.099
26091W        W94309  24.545  15.648  14.353
26092W        W94310   7.291  41.051   0.229
26093W        W94311  38.873  17.206   1.138
26094W        W94312  34.858  24.048  12.541
26095W        W94313  25.716   8.629  11.174
26096W        W94314   7.429   8.755   3.594
26097W        W94315  22.141   7.375   1.232
26098W        W94316  26.668   3.681  13.369
26099W        W94317   3.227  32.368   4.107
26100W        W94318  15.210  23.783  10.618
26101W        W94319  32.479  31.272   4.750
26102W        W94320  36.535  30.530  14.236
26103W        W94321  44.034  36.875   0.444
26104W        W94322   2.359  17.956   2.791
26105W        W94323  29.797  30.558   2.699
26106W        W94324  34.052   6.902  13.028
26107W        W94325  11.352  25.640  14.493
26108W        W94326  29.731  36.976   3.752
26109W        W94327  22.806  13.290  12.015
26110W        W94328  28.566  22.459  13.774
26111W        W94329   5.897  30.323   0.734
26112W        W94330  25.165  23.882  11.582
26113W        W94331   8.842  20.396   5.048
26114W        W94332  42.972   8.438   0.399
26115W        W94333   1.760  32.418  13.400
26116W        W94334  12.429   6.662   2.749
26117W        W94335   7.862   9.887   2.309
26118W        W94336  14.954  39.446  14.288
26119W        W94337  33.269  26.030   2.250
26120W        W94338  29.586  17.501  13.904
26121W        W94339  41.592  25.103   4.961
26122W        W94340  27.683  25.187   0.925
26123W        W94341  36.109   1.296   0.819
26124W        W94342  43.510  37.942   4.364
26125W        W94343   2.255  16.067  12.114
26126W        W94344   1.971   9.695  13.543
26127W        W94345   5.817  18.683   2.793
26128W        W94346  44.961  28.967  12.494
26129W        W94347   7.820  15.108   3.348
26130W        W94348  10.787  13.022   1.742
26131W        W94349   0.140  30.674  12.812
26132W        W94350  28.168  24.215   4.135
26133W        W94351  33.933  32.986  11.853
26134W        W94352  41.338  21.063   2.925
26135W        W94353  39.087  38.294   3.079
26136W        W94354   5.003  20.679   1.331
26137W        W94355  34.521  28.685  11.649
26138W        W94356   4.816  16.022  13.042
26139W        W94357   5.122  19.087  11.553
26140W        W94358  39.209  31.550  11.892
26141W        W94359  28.402   3.863   3.751
26142W        W94360  33.976  16.179  13.832
26143W        W94361   2.675  44.602  11.238
26144W        W94362  35.116   7.419   3.137
26145W        W94363  10.904  32.446   4.736
26146W        W94364   6.933  15.289  12.663
26147W        W94365  21.806  32.858   0.882
26148W        W94366  25.570   7.878   0.238
26149W        W94367  27.721  33.121   3.624
26150W        W94368  12.250  39.574  10.759
26151W        W94369  32.900   3.391  12.057
26152W        W94370  40.283  32.996   1.783
26153W        W94371   0.078  15.065   2.146
26154W        W94372  18.628  18.165   1.905
26155W        W94373  34.037  19.515  11.680
26156W        W94374   0.007   4.686  10.236
26157W        W94375  25.130   2.984  14.499
26158W        W94376  44.501  44.495  12.629
26159W        W94377  29.022   2.422  12.390
26160W        W94378   1.753  37.462  11.041
26161W        W94379   3.492  25.989   3.071
26162W        W94380   8.755  32.683  14.287
26163W        W94381  39.422   8.317   4.516
26164W        W94382  20.583  36.498   5.011
26165W        W94383   3.782  11.168   3.763
26166W        W94384  10.675  31.576   2.181
26167W        W94385  23.506  40.589   1.820
26168W        W94386  35.481  41.232  12.724
26169W        W94387  28.032  41.533  14.848
26170W        W94388   4.781   0.330  13.550
26171W        W94389  19.565  29.492   2.663
26172W        W94390  18.594  32.040  13.528
26173W        W94391   0.310  23.235  14.042
26174W        W94392   9.388  25.486   0.224
26175W        W94393  39.350  22.069   1.258
26176W        W94394  30.206  36.036   4.629
26177W        W94395  35.958   8.465  12.022
26178W        W94396  11.780  28.880   0.244
26179W        W94397   0.406   8.903  12.177
26180W        W94398  24.030  41.551  14.740
26181W        W94399  29.428   2.250   4.203
26182W        W94400  37.873  19.727   3.708
26183W        W94401  17.530  32.568   0.878
26184W        W94402  15.711  24.465  13.497
26185W        W94403  15.968  40.796  11.651
26186W        W94404   0.732  28.088   3.177
26187W        W94405  12.888  32.154  14.364
26188W        W94406  42.829  43.325  14.255
26189W        W94407  14.720  22.504   3.084
26190W        W94408  39.317  18.809  11.082
26191W        W94409   0.072  41.286   3.284
26192W        W94410  32.971  25.790   3.498
26193W        W94411  39.894  29.474   2.629
26194W        W94412  41.921  24.465   3.527
26195W        W94413  11.418  43.852  11.911
26196W        W94414  33.364   0.921   2.246
26197W        W94415  34.643  30.777   2.774
26198W        W94416  19.351  20.027  14.065
26199W        W94417  32.968  34.825   1.507
26200W        W94418  18.061  41.248   3.193
26201W        W94419   9.506  42.498   2.862
26202W        W94420  26.582  35.363   2.612
26203W        W94421  40.920  17.050  14.001
26204W        W94422  36.866  33.934   4.605
26205W        W94423   4.309  23.672   0.934
26206W        W94424   4.662  35.464  12.173
26207W        W94425  22.668  40.015   0.310
26208W        W94426  26.856  11.517   1.809
26209W        W94427   4.308   2.630   4.046
26210W        W94428  25.953  42.382  12.621
26211W        W94429  30.890  39.373   1.329
26212W        W94430   2.658  26.601   1.630
26213W        W94431   7.510  32.729  11.645
26214W        W94432  39.721  22.563   2.721
26215W        W94433  18.968  14.205   3.663
26216W        W94434  18.342   5.531  10.665
26217W        W94435  29.846  22.613  14.946
26218W        W94436  37.279  24.647   1.827
26219W        W94437  30.511  30.250   4.588
26220W        W94438   8.377   7.911   0.263
26221W        W94439  24.448   3.407   1.850
26222W        W94440  10.821   8.095  13.911
26223W        W94441  25.226  20.673   4.241
26224W        W94442  28.154  22.274   4.888
26225W        W94443   6.162  17.980   0.317
26226W        W94444   5.287  22.601   5.003
26227W        W94445  36.479   6.800   1.899
26228W        W94446  16.497  23.793   2.281
26229W        W94447  32.492  41.291   1.757
26230W        W94448   6.048  11.768   1.811
26231W        W94449  11.787  34.084   1.883
26232W        W94450  34.833  20.141  14.019
26233W        W94451  41.104   5.326   2.901
26234W        W94452  36.425  14.666   3.704
26235W        W94453  34.638   9.277  12.951
26236W        W94454   7.084  18.122  10.792
26237W        W94455  40.555  29.474  13.970
26238W        W94456  10.787   7.220   0.377
26239W        W94457   0.500  42.975  11.866
26240W        W94458  31.252   8.741   3.393
26241W        W94459  22.156  21.657  12.014
26242W        W94460  39.413  32.979   0.290
26243W        W94461  25.956  36.558   1.652
26244W        W94462  24.976  36.788   3.298
26245W        W94463  20.169  31.686  12.484
26246W        W94464   8.809  43.249  13.115
26247W        W94465  36.943  34.397  10.604
26248W        W94466  39.548  25.487  13.928
26249W        W94467  18.601  20.631   2.201
26250W        W94468  34.983   0.489  11.975
26251W        W94469  28.910   3.145   3.191
26252W        W94470  33.885   0.522  12.656
26253W        W94471  28.317  14.862  11.951
26254W        W94472  39.980  36.579  12.717
26255W        W94473  35.314  15.784  14.935
26256W        W94474  29.911  29.063   1.805
26257W        W94475  10.347  27.539  11.244
26258W        W94476  21.030  34.627  14.369
26259W        W94477   8.904   4.410  14.923
26260W        W94478   1.012   7.126  13.704
26261W        W94479  43.772  14.264  13.644
26262W        W94480  17.838  33.718   2.576
26263W        W94481  30.166   7.928  13.530
26264W        W94482  14.121  19.919  14.950
26265W        W94483   2.848  32.090   3.899
26266W        W94484  40.389  31.687   2.797
26267W        W94485  35.465  15.423  14.544
26268W        W94486   6.007   4.861  12.130
26269W        W94487  38.647  35.906   5.046
26270W        W94488   0.431  28.925  11.974
26271W        W94489  16.857  42.987  14.345
26272W        W94490  44.419  28.540   3.599
26273W        W94491   6.899  14.155  14.313
26274W        W94492  39.461  12.567   0.054
26275W        W94493  21.397  18.163   2.891
26276W        W94494  33.308  18.069   1.828
26277W        W94495   3.534  31.689   0.849
26278W        W94496  10.775   2.866  11.442
26279W        W94497  10.489  15.306  10.219
26280W        W94498  44.527  33.052  14.445
26281W        W94499  10.280   9.202  11.932
26282W        W94500  42.469  37.019   3.339
26283W        W94501  13.221  28.672   2.744
26284W        W94502  41.431  41.738   0.008
26285W        W94503  30.988  44.419  10.536
26286W        W94504  22.221  16.355  12.551
26287W        W94505   9.492   9.405   1.938
26288W        W94506  41.269  10.093  13.284
26289W        W94507  31.968  42.149   4.155
26290W        W94508  26.469  26.502   2.294
26291W        W94509   2.807  29.487   0.282
26292W        W94510  39.590  31.370   1.733
26293W        W94511   9.444   9.437   3.910
26294W        W94512   7.425  21.602   0.068
26295W        W94513  17.851  28.899  11.628
26296W        W94514   9.919  42.898  11.774
26297W        W94515   6.667  40.972   0.911
26298W        W94516  38.434   0.467  11.078
26299W        W94517  25.934  35.049   4.197
26300W        W94518  10.250  33.554   1.887
26301W        W94519  43.512   8.538  10.832
26302W        W94520  17.283  13.274   0.771
26303W        W94521  22.170  28.588  12.080
26304W        W94522   5.424  27.926   4.153
26305W        W94523  15.425  17.303  12.512
26306W        W94524  21.915  34.620  13.031
26307W        W94525   4.502  31.969   1.721
26308W        W94526   5.968  43.958   4.812
26309W        W94527  43.487  37.343  12.347
26310W        W94528  39.832  20.792   1.225
26311W        W94529  39.791  37.316  14.864
26312W        W94530   7.253   0.145  12.438
26313W        W94531  33.130  26.103   2.736
26314W        W94532  32.262  40.392  10.713
26315W        W94533   2.877  34.740  11.222
26316W        W94534  12.305  40.836   1.363
26317W        W94535   7.283  12.302   1.367
26318W        W94536  39.034  31.969  10.022
26319W        W94537   1.195  11.761  13.962
26320W        W94538   0.817  28.681  13.988
26321W        W94539   8.193  14.791  14.549
26322W        W94540  31.402   6.834  12.575
26323W        W94541  21.683   9.908   1.882
26324W        W94542  17.254  15.992  11.441
26325W        W94543   8.579  32.180   1.751
26326W        W94544  37.568  32.650  13.349
26327W        W94545  20.461  22.573   3.808
26328W        W94546  23.213  18.705   1.758
26329W        W94547  26.042  40.142   2.766
26330W        W94548  31.351  35.841   0.300
26331W        W94549  22.418  24.111   0.711
26332W        W94550  31.543   4.051   0.199
26333W        W94551  16.180   7.654  10.898
26334W        W94552  19.894  26.534  10.789
26335W        W94553  43.466  31.197   1.256
26336W        W94554  27.460   7.759   2.287
26337W        W94555  37.319   9.608   3.255
26338W        W94556  13.817  11.245   4.537
26339W        W94557  41.307  25.119  13.777
26340W        W94558  37.539   4.464  14.403
26341W        W94559   8.628  38.868  14.923
26342W        W94560  17.144   7.433  12.089
26343W        W94561  23.009  30.845  14.116
26344W        W94562  32.752  17.185  10.284
26345W        W94563   9.645  25.064   4.585
26346W        W94564  30.588   7.704   1.454
26347W        W94565  19.238   6.018   3.220
26348W        W94566  44.426  31.492   2.690
26349W        W94567  29.600  12.215  14.542
26350W        W94568  26.681  21.222  14.504
26351W        W94569  35.015  11.291   2.310
26352W        W94570  15.324   9.402  13.976
26353W        W94571  22.666  12.544  10.344
26354W        W94572  11.815  36.472  12.914
26355W        W94573   1.720  28.563   1.760
26356W        W94574   4.320  25.081   5.001
26357W        W94575  36.710  43.430   2.699
26358W        W94576  40.835  31.425  14.805
26359W        W94577  44.556  22.165   0.891
26360W        W94578  27.646  26.453   1.803
26361W        W94579   1.752  28.670   0.883
26362W        W94580  26.299  38.114  12.813
26363W        W94581  41.574  34.502  13.577
26364W        W94582   8.679  33.632   0.707
26365W        W94583  38.900   4.359  10.697
26366W        W94584   5.748  19.210   3.484
26367W        W94585   7.482   8.190   4.439
26368W        W94586  37.108  25.657   0.288
26369W        W94587   3.324  30.379   4.908
26370W        W94588   6.341   8.442  11.601
26371W        W94589   2.392  14.355  14.502
26372W        W94590  40.697  37.908  12.317
26373W        W94591  32.174  23.482  11.481
26374W        W94592  29.616   0.601  10.898
26375W        W94593  34.354   4.811   4.646
26376W        W94594  10.829  38.841   1.453
26377W        W94595   9.735  35.475  13.831
26378W        W94596  24.281  38.937   0.503
26379W        W94597  39.612  39.868   3.231
26380W        W94598  38.420  10.330   4.517
26381W        W94599  40.241  24.206   5.102
26382W        W94600  33.068  13.970  12.768
26383W        W94601  10.972  41.131   2.845
26384W        W94602  14.388  32.416  10.397
26385W        W94603  27.285  20.643   3.616
26386W        W94604  18.733   5.770   2.384
26387W        W94605  28.513  32.373   1.327
26388W        W94606  10.875  37.946   3.731
26389W        W94607  16.599  38.187   1.220
26390W        W94608  26.578  28.700   1.346
26391W        W94609  22.485  18.710  11.652
26392W        W94610   4.485  10.253   3.202
26393W        W94611  36.022  25.586  13.305
26394W        W94612  27.924  28.432  13.539
26395W        W94613  41.997  14.205   4.033
26396W        W94614  30.422  24.149  10.623
26397W        W94615  38.820  14.340  13.500
26398W        W94616  28.032  39.898   3.193
26399W        W94617  31.222  29.613  12.097
26400W        W94618  10.708  18.059  11.144
26401W        W94619  19.135   1.083  10.665
26402W        W94620  40.769   5.226   0.484
26403W        W94621   9.116   7.123  13.399
26404W        W94622  19.555  10.380  14.431
26405W        W94623  16.849  39.995   1.713
26406W        W94624   2.269  30.197   0.477
26407W        W94625  32.650  29.646  13.060
26408W        W94626  17.800  43.920  10.233
26409W        W94627  36.625   6.318   4.137
26410W        W94628   6.958   1.895  14.747
26411W        W94629  11.127   1.448   4.227
26412W        W94630   1.276  33.138  12.004
26413W        W94631  28.246  35.439   3.625
26414W        W94632  44.719  34.526   4.732
26415W        W94633   9.136  43.391  10.715
26416W        W94634  17.749  15.284   3.544
26417W        W94635   5.133  40.944   1.816
26418W        W94636   6.476  38.295  12.982
26419W        W94637  22.843  42.416   0.454
26420W        W94638   7.439   4.818   2.799
26421W        W94639   8.270   6.064  13.077
26422W        W94640  36.939   7.787   0.428
26423W        W94641  25.215  13.563   5.032
26424W        W94642  13.593   7.342  11.580
26425W        W94643  13.361  25.804   4.176
26426W        W94644  44.020  28.988   3.238
26427W        W94645  33.092  38.123   0.137
26428W        W94646  39.458  40.499   1.202
26429W        W94647  40.450  31.005   2.081
26430W        W94648  29.567   9.206  10.496
26431W        W94649   4.864   0.237  10.603
26432W        W94650  36.250   9.250   1.829
26433W        W94651  37.592  27.131  12.824
26434W        W94652  28.171  35.058  11.586
26435W        W94653  28.412   7.304  13.538
26436W        W94654  37.566  40.530   2.282
26437W        W94655   1.973  37.368  11.500
26438W        W94656  41.479  33.475   1.178
26439W        W94657  39.592  40.570   3.621
26440W        W94658   6.547  20.095   0.026
26441W        W94659  18.581  36.874  10.214
26442W        W94660  14.613  37.671   3.715
26443W        W94661  32.928  24.627  11.845
26444W        W94662  31.914  39.857   0.326
26445W        W94663  43.186  40.947  13.497
26446W        W94664  33.017  14.668   4.536
26447W        W94665  15.717  39.324   1.686
26448W        W94666  15.726  24.123   4.576
26449W        W94667  11.564  25.178   4.546
26450W        W94668  18.684  24.313   4.305
26451W        W94669  20.564  32.662   4.638
26452W        W94670  32.948  35.350  11.193
26453W        W94671  34.504  30.019  14.319
26454W        W94672  20.696  38.410   4.320
26455W        W94673  24.533  24.024   4.518
26456W        W94674  10.319  30.171   0.313
26457W        W94675  26.037  40.812   3.890
26458W        W94676   9.689  28.131  12.337
26459W        W94677  20.213  27.496   0.447
26460W        W94678  11.718  28.521   4.046
26461W        W94679  43.935   4.723   2.314
26462W        W94680  12.545  10.798   0.887
26463W        W94681  18.213   4.743  12.465
26464W        W94682  15.508  25.045   2.888
26465W        W94683  16.939  22.966  11.392
26466W        W94684  32.192   9.757   3.779
26467W        W94685  31.901  30.511   4.318
26468W        W94686   1.912   2.287  13.866
26469W        W94687  28.511  30.088   0.687
26470W        W94688   3.909  17.544  12.522
26471W        W94689  37.674  26.425   5.050
26472W        W94690  25.051  32.884  11.606
26473W        W94691  12.089   0.244   9.794
26474W        W94692  11.621  28.462  14.674
26475W        W94693  13.443  38.547   0.782
26476W        W94694   4.418  16.699  14.089
26477W        W94695  21.661  38.089  11.567
26478W        W94696   8.856  35.667  14.425
26479W        W94697   6.630  22.779  14.983
26480W        W94698  37.414  43.561  12.011
26481W        W94699  23.961  10.372   0.933
26482W        W94700  43.678  24.971  11.498
26483W        W94701  36.596  34.435   4.668
26484W        W94702  38.081  10.195  13.979
26485W        W94703  32.130  29.123   2.943
26486W        W94704  36.337  28.819   4.168
26487W        W94705  23.637  28.493   0.002
26488W        W94706  10.372   6.887   0.658
26489W        W94707  16.182  36.793  11.625
26490W        W94708  28.953  12.501  14.104
26491W        W94709  10.623  37.946  12.596
26492W        W94710   5.294  26.990  11.453
26493W        W94711  37.918  23.423   4.615
26494W        W94712  23.622  37.787  13.088
26495W        W94713  24.661  32.568  13.564
26496W        W94714  34.503  14.745  13.970
26497W        W94715  13.149  25.285  11.157
26498W        W94716   6.874  26.817  12.935
26499W        W94717  33.861  34.305   0.283
26500W        W94718   7.434   3.941  11.189
26501W        W94719  39.441  11.868  14.219
26502W        W94720   6.870  34.538  12.574
26503W        W94721  29.978  24.042  10.860
26504W        W94722  38.632  25.324   2.380
26505W        W94723  33.165  36.496   2.858
26506W        W94724  40.496   4.797  14.891
26507W        W94725  27.396   0.690  14.479
26508W        W94726  14.381  23.640   2.991
26509W        W94727  36.621   4.776   4.183
26510W        W94728  43.386  37.018  14.354
26511W        W94729  40.438  26.877   2.842
26512W        W94730  15.889  17.519   1.870
26513W        W94731  43.002   5.863   1.413
26514W        W94732   3.444   4.773  10.676
26515W        W94733  39.069   1.222   0.736
26516W        W94734  41.916   1.539  11.123
26517W        W94735  11.454   7.293   4.480
26518W        W94736   7.333  43.661   5.168
26519W        W94737  11.104  22.461  12.419
26520W        W94738  26.522  34.416   3.655
26521W        W94739  18.274  16.633  14.426
26522W        W94740  32.931  35.914  11.150
26523W        W94741  28.864   3.190   1.107
26524W        W94742  17.567  40.502   1.514
26525W        W94743   3.782  37.426   4.568
26526W        W94744   8.200   1.769  10.516
26527W        W94745  17.455  15.589   4.233
26528W        W94746  33.605  22.145   4.102
26529W        W94747  10.893  22.057   3.201
26530W        W94748   8.676  29.045  11.140
26531W        W94749  27.708  10.075  10.792
26532W        W94750  33.693  14.601  10.355
26533W        W94751  35.342  42.103   0.039
26534W        W94752  23.137  12.394   3.666
26535W        W94753   4.779   1.711   2.236
26536W        W94754  35.850   6.869   0.739
26537W        W94755   9.150  41.506  14.106
26538W        W94756  34.416   7.652   2.265
26539W        W94757  42.870  42.354  10.731
26540W        W94758  41.428  35.888   4.062
26541W        W94759  42.302   4.302  11.965
26542W        W94760  32.824  36.591   0.518
26543W        W94761  19.365  44.687  11.228
26544W        W94762  31.510  42.301  12.046
26545W        W94763  18.951  32.820   2.782
26546W        W94764   4.241  25.863   0.286
26547W        W94765  20.614  22.637   0.957
26548W        W94766   9.438  29.663   0.057
26549W        W94767   7.417  35.893   2.283
26550W        W94768   8.914  10.510  12.864
26551W        W94769  43.833  31.505   1.488
26552W        W94770  13.341  18.398  11.926
26553W        W94771  17.195  21.771   0.287
26554W        W94772  15.302   1.732  11.014
26555W        W94773   0.474   9.166   4.676
26556W        W94774  23.984  19.833   4.622
26557W        W94775  34.684  10.641  13.356
26558W        W94776  32.755  29.348   4.276
26559W        W94777  20.616  28.931  12.112
26560W        W94778   5.196  35.018  14.134
26561W        W94779   9.879  36.831   4.328
26562W        W94780  41.966   7.995   1.948
26563W        W94781  27.666  37.012   4.724
26564W        W94782  13.647  40.508  13.947
26565W        W94783  22.217   4.870   1.762
26566W        W94784  12.217   3.536  12.118
26567W        W94785  27.142  39.401   4.371
26568W        W94786  35.070   2.233  11.465
26569W        W94787  17.202  21.833   1.404
26570W        W94788  38.845  38.990  11.954
26571W        W94789  42.317  20.169  10.394
26572W        W94790  19.626   1.796   3.915
26573W        W94791  27.677  22.524  10.353
26574W        W94792  40.684  29.687   0.324
26575W        W94793  11.869   3.339   0.377
26576W        W94794  23.674  30.510  10.454
26577W        W94795  35.069  31.521  12.455
26578W        W94796  36.360   5.966   3.732
26579W        W94797   2.347  36.439   2.299
26580W        W94798   8.788  24.102   1.475
26581W        W94799  21.022  25.685  12.529
26582W        W94800  11.289  28.296  11.577
26583W        W94801   4.852  12.731  13.103
26584W        W94802   4.813  43.232   4.637
26585W        W94803  21.121  38.910   3.355
26586W        W94804  24.931  14.205   0.407
26587W        W94805   6.451  25.461   1.722
26588W        W94806   4.031  36.945   3.297
26589W        W94807  44.954  24.619   0.062
26590W        W94808   7.696   9.664  10.610
26591W        W94809   6.943  35.373   3.191
26592W        W94810  25.035  26.140   4.548
26593W        W94811  18.045  20.455  12.670
26594W        W94812  31.156  44.362   3.656
26595W        W94813  25.209   4.507   4.128
26596W        W94814  24.709  26.757  14.663
26597W        W94815   9.089  10.706  12.417
26598W        W94816  41.882  41.528  13.298
26599W        W94817   1.222  23.936   4.096
26600W        W94818  29.541   4.202  13.242
26601W        W94819  29.150  15.150   1.657
26602W        W94820  36.484  37.514  13.363
26603W        W94821  13.646   2.912  10.971
26604W        W94822  34.898   4.837  13.891
26605W        W94823  21.771  24.130   2.674
26606W        W94824  18.233  44.788   4.884
26607W        W94825  15.692  10.704   3.274
26608W        W94826   9.249  37.685  11.141
26609W        W94827  37.031  16.557   0.201
26610W        W94828  35.313  11.342   4.118
26611W        W94829   0.718   4.812   2.823
26612W        W94830  24.242  20.666   2.127
26613W        W94831  23.620  36.259   2.702
26614W        W94832  34.659  32.902   2.616
26615W        W94833  19.731  21.550  14.600
26616W        W94834  36.028   2.627  13.083
26617W        W94835  39.461   6.317  14.420
26618W        W94836  33.072  30.090   9.934
26619W        W94837  27.930  25.801  13.708
26620W        W94838  35.324  44.753  14.024
26621W        W94839   7.284  14.304   4.551
26622W        W94840  40.971   1.331   3.871
26623W        W94841  27.899  11.441   2.688
26624W        W94842  35.340   4.703   4.900
26625W        W94843  28.128  42.256   4.159
26626W        W94844  14.763   8.786  13.689
26627W        W94845   2.842  23.512   2.621
26628W        W94846   4.309  36.892  14.669
26629W        W94847  29.446  25.001   0.251
26630W        W94848  35.744   9.218  11.178
26631W        W94849  12.442  25.023  11.709
26632W        W94850  20.338  21.788   2.326
26633W        W94851  36.501  11.347   3.125
26634W        W94852   1.845  30.953  14.978
26635W        W94853  38.092   1.351   0.782
26636W        W94854  34.233  27.968  11.187
26637W        W94855  42.950  34.220   0.695
26638W        W94856  12.171  15.121   1.971
26639W        W94857  14.236  23.762   4.604
26640W        W94858  17.742  18.809   2.668
26641W        W94859  35.770   3.698  10.989
26642W        W94860  32.014  30.258  11.983
26643W        W94861   3.881  38.430   4.819
26644W        W94862  26.469   7.384  13.609
26645W        W94863  32.672  11.250   0.053
26646W        W94864   6.737  39.574  14.191
26647W        W94865  35.596  43.204   1.332
26648W        W94866   1.814   3.419  14.592
26649W        W94867  39.252  39.761  10.219
26650W        W94868  23.199  31.179  13.319
26651W        W94869  14.236  21.151  10.598
26652W        W94870  14.783  13.103  14.075
26653W        W94871   5.279  28.614   0.276
26654W        W94872  22.005  33.147  11.580
26655W        W94873  16.811   8.400   3.158
26656W        W94874  32.640  28.069  14.651
26657W        W94875   5.998  35.395  11.136
26658W        W94876  18.658  10.637  13.875
26659W        W94877  15.959   7.191  13.855
26660W        W94878  40.749  36.018   0.420
26661W        W94879  14.422   2.633   2.599
26662W        W94880  29.629  18.682  14.500
26663W        W94881  24.676  33.272   1.249
26664W        W94882   9.220  31.894  13.294
26665W        W94883  39.825  26.757   0.798
26666W        W94884  23.991  18.812  12.138
26667W        W94885   0.391  40.779   0.105
26668W        W94886  39.718  21.100  11.066
26669W        W94887  11.126   8.291   1.934
26670W        W94888  35.501  25.799  12.167
26671W        W94889  30.288  17.218   0.507
26672W        W94890  17.322  25.586   0.812
26673W        W94891  13.519  15.079   1.173
26674W        W94892  38.827  15.776   2.635
26675W        W94893  20.869  17.961  12.591
26676W        W94894  10.203  40.392  10.184
26677W        W94895  40.283  27.729   3.854
26678W        W94896  12.263  29.147  11.648
26679W        W94897  27.374  28.576   4.740
26680W        W94898   1.054  35.982  12.011
26681W        W94899  27.729  11.931   0.547
26682W        W94900  36.025   9.966   2.273
26683W        W94901   3.090   3.361  11.996
26684W        W94902  24.715  43.946   0.907
26685W        W94903  42.593  28.777   2.316
26686W        W94904  15.971  28.660   2.229
26687W        W94905  41.427   4.687   4.529
26688W        W94906  36.590   2.725  11.042
26689W        W94907  27.048  29.633  14.067
26690W        W94908  25.799  27.204  14.379
26691W        W94909  43.115  38.643  10.398
26692W        W94910  41.481  29.602  12.530
26693W        W94911  44.232  15.735   3.671
26694W        W94912  34.005  28.928   3.733
26695W        W94913  10.841  12.102   3.005
26696W        W94914  13.862  17.708  11.482
26697W        W94915  29.913  42.812   1.236
26698W        W94916  32.174   6.652   1.517
26699W        W94917  28.680   4.194   0.852
26700W        W94918  39.362   5.024  10.346
26701W        W94919   4.213  43.947  14.402
26702W        W94920  16.052  19.313   1.701
26703W        W94921  39.908  16.161  12.618
26704W        W94922  28.095  24.552   0.496
26705W        W94923   7.332  32.420   0.200
26706W        W94924   6.166  36.841   0.891
26707W        W94925  43.886  19.567   3.790
26708W        W94926   0.499  32.023  12.897
26709W        W94927   6.691   8.036  14.966
26710W        W94928  41.306  39.869   2.359
26711W        W94929   8.407  33.748  12.034
26712W        W94930   3.783  37.467  11.168
26713W        W94931  36.463  32.212   4.211
26714W        W94932  40.599  11.653   0.020
26715W        W94933  21.715   3.377   4.905
26716W        W94934  39.117  36.845   2.851
26717W        W94935   6.466  22.030   3.517
26718W        W94936  30.147   9.769   4.088
26719W        W94937  12.719  13.310   1.868
26720W        W94938   0.491  33.317   1.809
26721W        W94939   2.641  28.434  13.995
26722W        W94940  21.510  30.173   0.462
26723W        W94941  18.696  20.252  13.498
26724W        W94942  13.258  16.206  11.874
26725W        W94943  24.078  33.093  13.592
26726W        W94944  20.733  42.415  13.030
26727W        W94945  39.089  17.521  13.950
26728W        W94946  37.014  16.255   0.694
26729W        W94947  16.055  30.263   0.407
26730W        W94948  34.849  26.971  13.565
26731W        W94949  10.046  14.684   1.476
26732W        W94950  19.954  26.897  13.487
26733W        W94951  16.615   3.853   4.324
26734W        W94952  31.343  16.662   2.317
26735W        W94953  29.537  29.070  14.854
26736W        W94954  26.297   0.384   0.172
26737W        W94955   3.358  31.884  14.044
26738W        W94956  24.355  34.955  11.857
26739W        W94957   8.817  22.240  14.404
26740W        W94958  30.796  38.547   3.111
26741W        W94959   7.184   6.233   4.600
26742W        W94960   5.286   4.312   1.325
26743W        W94961  29.393  17.769  12.415
26744W        W94962  34.121  21.783   1.780
26745W        W94963  35.462  36.600  14.120
26746W        W94964  37.087   9.024  14.861
26747W        W94965  36.052  38.574  11.703
26748W        W94966  29.050  24.086  10.732
26749W        W94967  26.302  23.464   0.064
26750W        W94968  43.415  25.253  13.948
26751W        W94969  30.755  30.018   3.162
26752W        W94970   9.734  28.577   4.346
26753W        W94971  10.493  36.673  11.802
26754W        W94972  13.888  19.012   3.655
26755W        W94973  42.549   3.805  14.404
26756W        W94974  35.816  41.546  14.549
26757W        W94975  26.562  37.188   2.141
26758W        W94976  20.134  36.469   5.246
26759W        W94977  22.494  10.285  12.565
26760W        W94978  31.354  10.334   3.776
26761W        W94979  27.195  44.036   0.341
26762W        W94980  37.806  31.434  11.098
26763W        W94981  25.124  42.292   0.461
26764W        W94982  12.682  12.398   0.762
26765W        W94983   4.345  31.008  11.664
26766W        W94984  15.218   1.740   1.900
26767W        W94985   1.158  29.968   2.861
26768W        W94986  43.439  44.937   0.458
26769W        W94987  21.281   9.721  12.856
26770W        W94988  41.951  29.246  13.542
26771W        W94989   7.349  39.110  10.537
26772W        W94990  36.726  33.095  12.083
26773W        W94991   2.734  23.319  14.844
26774W        W94992   2.395  15.525   3.103
26775W        W94993  41.871  18.665   3.493
26776W        W94994  28.691  41.496  12.070
26777W        W94995  20.663   5.058   1.074
26778W        W94996  29.091  16.847   4.201
26779W        W94997  37.026   4.443   4.657
26780W        W94998   2.566  41.489   1.697
26781W        W94999  21.551  42.348  14.983
26782W        W95000  15.661  13.854  11.942
26783W        W95001   6.926  44.663   0.402
26784W        W95002  37.024  30.062   3.751
26785W        W95003  43.585  35.839  11.997
26786W        W95004  18.988  17.765  11.761
26787W        W95005  37.578  33.901  12.360
26788W        W95006   1.642   0.713   2.173
26789W        W95007  39.886   5.682   1.853
26790W        W95008  30.219   3.440   0.058
26791W        W95009  42.102   4.124  12.397
26792W        W95010  33.077   3.269   3.183
26793W        W95011  29.681  29.692  13.486
26794W        W95012  20.983  27.040   4.558
26795W        W95013   5.147  39.845   2.723
26796W        W95014  32.423  12.174  11.403
26797W        W95015  29.450  40.035  12.583
26798W        W95016  44.791  31.012  10.766
26799W        W95017  14.246   5.092  13.614
26800W        W95018  19.726  14.896   1.113
26801W        W95019  16.540   4.395   4.483
26802W        W95020   1.252  19.808  11.967
26803W        W95021   2.630  11.150  14.978
26804W        W95022  38.087  12.570   1.890
26805W        W95023  13.116   9.845   4.649
26806W        W95024  15.625  25.366  12.997
26807W        W95025  35.042  28.404   2.289
26808W        W95026  15.912  25.987   3.814
26809W        W95027  13.854   0.867   4.939
26810W        W95028  38.907   9.322  11.281
26811W        W95029   9.802  16.966   2.924
26812W        W95030  36.488  30.192  12.952
26813W        W95031  26.615  25.402   2.278
26814W        W95032   2.940  13.649   4.380
26815W        W95033  16.777  22.944  13.824
26816W        W95034  21.455  44.478  11.256
26817W        W95035  29.137  32.489  12.539
26818W        W95036   8.293  34.345  14.090
26819W        W95037  25.033  23.718  13.521
26820W        W95038  11.070   7.577   0.744
26821W        W95039  15.305  21.251  11.716
26822W        W95040   3.339  15.756   0.351
26823W        W95041  32.107  13.370   3.550
26824W        W95042  14.783   8.688   0.444
26825W        W95043  15.645  42.921   0.574
26826W        W95044  22.202   2.312  13.590
26827W        W95045  20.306  29.514   0.110
26828W        W95046  24.445   2.494  13.553
26829W        W95047  29.166  41.482  14.096
26830W        W95048  40.920  36.624  12.896
26831W        W95049   8.852  28.108   2.715
26832W        W95050   2.404  41.348   4.656
26833W        W95051  43.761  26.560   1.270
26834W        W95052  42.601   1.897  11.554
26835W        W95053  38.266   5.363   0.246
26836W        W95054  36.250  13.784  13.924
26837W        W95055  15.239  25.689  10.677
26838W        W95056  39.332  17.990  12.606
26839W        W95057  40.218   2.284   3.305
26840W        W95058  13.521  19.164   0.855
26841W        W95059  11.181   8.811   3.755
26842W        W95060  43.302   1.399   4.905
26843W        W95061  43.794  17.581   3.581
26844W        W95062  41.372  44.957   0.862
26845W        W95063  36.165  32.223  13.369
26846W        W95064  25.276  33.069   1.863
26847W        W95065  18.309  22.834   2.756
26848W        W95066  35.710  30.435   2.046
26849W        W95067  43.947  44.600   0.429
26850W        W95068  40.718  30.841  12.427
26851W        W95069  42.523   2.258   1.782
26852W        W95070  10.827   1.100   2.237
26853W        W95071  11.854  22.519  11.494
26854W        W95072  32.003   7.431   0.378
26855W        W95073  36.081   6.807   1.226
26856W        W95074  18.892  17.664   3.684
26857W        W95075  25.233  17.017   0.480
26858W        W95076  38.041  29.038  11.050
26859W        W95077  31.439  20.208  13.460
26860W        W95078   9.394   0.825  12.913
26861W        W95079  19.036  31.106   0.246
26862W        W95080   0.494  26.658  13.953
26863W        W95081  26.634  14.595   4.027
26864W        W95082  43.909  32.061  14.527
26865W        W95083  33.273   4.104  12.608
26866W        W95084   8.978  11.391   0.940
26867W        W95085   6.802   5.682  14.411
26868W        W95086  12.064  37.334  11.590
26869W        W95087  43.311  20.232  10.906
26870W        W95088   0.822  26.214  11.125
26871W        W95089  13.318   6.918  11.558
26872W        W95090  29.315  22.282   3.289
26873W        W95091  29.566  29.731   1.234
26874W        W95092  19.281  25.505  12.052
26875W        W95093  14.548  34.566  12.956
26876W        W95094   9.326  23.468  14.462
26877W        W95095   1.366   3.693   1.624
26878W        W95096  25.251   6.173   0.248
26879W        W95097  12.408  27.570  12.469
26880W        W95098  14.147  22.995  13.977
26881W        W95099  36.699  11.162   2.643
26882W        W95100  41.601   0.008  14.523
26883W        W95101  35.474  19.105   2.852
26884W        W95102  34.150   6.495   4.098
26885W        W95103  42.760  22.699  13.677
26886W        W95104  18.586   3.888   4.590
26887W        W95105  41.079  43.131   1.335
26888W        W95106  22.649  43.736   2.459
26889W        W95107  17.013  42.919   0.819
26890W        W95108  17.830   6.301  14.840
26891W        W95109  38.846  14.694   1.326
26892W        W95110   0.362  21.164  11.022
26893W        W95111  22.008  17.131   1.425
26894W        W95112   4.439  30.926   4.278
26895W        W95113  12.537   7.734  14.622
26896W        W95114  18.013  32.869  14.694
26897W        W95115  43.429  12.239   2.444
26898W        W95116  12.328   5.452   0.650
26899W        W95117  14.676  25.548  11.415
26900W        W95118   3.770  41.603  10.059
26901W        W95119  20.105   4.791  10.405
26902W        W95120  38.813  35.466  11.052
26903W        W95121  30.161  28.578   1.878
26904W        W95122  12.039  28.506  10.203
26905W        W95123  41.912  32.170  11.750
26906W        W95124  16.750  22.549   2.968
26907W        W95125   3.258  43.986  14.037
26908W        W95126  10.691  38.628   4.904
26909W        W95127  34.351  20.373   1.711
26910W        W95128  24.166  26.549  12.144
26911W        W95129  12.651  40.688  14.949
26912W        W95130   2.291  16.946  11.534
26913W        W95131  33.747   9.387   1.542
26914W        W95132  37.845  15.372  10.598
26915W        W95133  38.870  28.146  10.701
26916W        W95134  13.807  33.435   3.218
26917W        W95135  15.472  13.303  11.589
26918W        W95136  26.239  16.127  11.212
26919W        W95137  16.816   5.367  12.424
26920W        W95138  37.515  16.950  10.672
26921W        W95139  10.159  22.273   0.915
26922W        W95140  33.407  13.215   0.018
26923W        W95141  10.653  23.029  11.905
26924W        W95142   5.305   7.874  10.720
26925W        W95143  17.338  12.145  11.251
26926W        W95144  42.754  24.368   2.428
26927W        W95145  43.865  18.222  11.947
26928W        W95146  33.629  33.874  12.572
26929W        W95147  15.592   8.683  12.976
26930W        W95148  41.865  38.755  11.652
26931W        W95149  28.123  17.639   3.658
26932W        W95150  41.004  22.518   3.713
26933W        W95151  32.121  38.871   3.144
26934W        W95152   4.326   2.117  14.962
26935W        W95153  39.192  36.599  13.909
26936W        W95154  20.096  36.405   0.771
26937W        W95155  13.385  12.309  13.433
26938W        W95156  42.171  17.716  11.570
26939W        W95157   0.005  32.493   0.839
26940W        W95158  31.113  14.928   2.851
26941W        W95159   4.693   0.801  12.654
26942W        W95160  37.295  15.504   4.649
26943W        W95161   7.732   8.773  10.778
26944W        W95162   3.868  11.597  12.291
26945W        W95163  14.579  34.472  13.467
26946W        W95164   6.878  40.511  12.631
26947W        W95165  31.879   5.366   2.800
26948W        W95166  31.796  23.952  12.019
26949W        W95167  13.346  22.303  11.598
26950W        W95168  34.310  30.349  13.401
26951W        W95169  18.278  36.888  10.672
26952W        W95170  17.260   3.154  12.405
26953W        W95171  34.115  19.272   0.382
26954W        W95172  30.559  18.792  12.668
26955W        W95173  39.884  17.819   4.187
26956W        W95174   0.740  38.431  11.591
26957W        W95175  43.451  16.583  11.533
26958W        W95176  13.375   2.255  12.552
26959W        W95177  39.036  16.997   2.264
26960W        W95178  37.857  12.642   3.602
26961W        W95179  38.038   8.344   1.275
26962W        W95180   1.924  17.828   4.076
26963W        W95181  34.368  24.532   0.670
26964W        W95182   9.391   0.737  10.677
26965W        W95183  34.419   2.518  13.276
26966W        W95184  41.986  22.435  13.117
26967W        W95185   0.055  22.755  14.140
26968W        W95186  23.717   0.871   3.756
26969W        W95187   9.909  16.565   1.238
26970W        W95188  16.224  42.530  12.863
26971W        W95189  13.459  42.717   3.240
26972W        W95190   0.836  10.327  12.934
26973W        W95191  10.803  35.841   4.171
26974W        W95192  43.929  28.685   1.747
26975W        W95193  10.245  20.615   4.038
26976W        W95194  35.797  42.099  14.745
26977W        W95195  25.806   2.787  12.993
26978W        W95196  12.400  38.855  12.430
26979W        W95197  13.281  38.164  14.399
26980W        W95198  30.506  12.665  12.919
26981W        W95199  35.898  34.004  14.842
26982W        W95200  27.276  23.096  12.405
26983W        W95201  40.894  15.861   4.661
26984W        W95202  32.382  40.118  13.842
26985W        W95203  22.056  44.600   1.151
26986W        W95204   6.187  17.207   3.016
26987W        W95205  21.627  42.262   3.378
26988W        W95206  22.699  22.205   3.751
26989W        W95207  29.007   6.871   2.165
26990W        W95208  22.524   7.682   2.408
26991W        W95209   1.913   6.228  14.035
26992W        W95210  40.107  40.996  10.614
26993W        W95211  44.487  23.229  13.005
26994W        W95212  27.007  14.827  14.415
26995W        W95213  31.334  44.032  12.961
26996W        W95214   4.021   1.364   4.481
26997W        W95215  23.093  18.562   2.283
26998W        W95216   3.440  26.798  14.428
26999W        W95217   8.168  11.512   0.451
27000W        W95218  36.348   0.440  10.707
27001W        W95219  14.770  24.755  13.494
27002W        W95220  41.900  38.800   1.907
27003W        W95221   8.128   3.813  14.893
27004W        W95222  31.107  43.752  13.348
27005W        W95223  43.007  24.144   0.965
27006W        W95224   6.502  26.916   4.481
27007W        W95225  37.099  17.712   1.339
27008W        W95226  33.920   6.644  14.361
27009W        W95227  33.155  34.374   4.233
27010W        W95228  14.622  36.755   1.867
27011W        W95229  31.385  39.172  14.923
27012W        W95230  15.712  33.536  11.490
27013W        W95231  19.184  11.071   1.249
27014W        W95232   8.615  23.677   5.140
27015W        W95233  24.532  40.072  12.824
27016W        W95234  37.478   4.759  10.717
27017W        W95235  12.853  16.538   0.460
27018W        W95236  41.520  14.777  14.986
27019W        W95237   4.153  26.587  14.057
27020W        W95238   8.049   8.266   0.017
27021W        W95239  29.061  22.054   4.678
27022W        W95240  30.460  26.110  12.044
27023W        W95241  36.795  27.526  13.107
27024W        W95242  31.932  37.028   4.524
27025W        W95243  36.348   3.699  13.863
27026W        W95244  35.084  11.819   2.273
27027W        W95245  29.792  43.914   1.950
27028W        W95246  32.837  34.472  11.580
27029W        W95247  11.746   9.813  12.568
27030W        W95248  25.889  38.538  13.004
27031W        W95249   9.929  43.485  14.437
27032W        W95250  25.674  24.526  14.868
27033W        W95251   0.877  11.291  13.074
27034W        W95252  26.420   6.002  10.265
27035W        W95253  27.519   3.550   3.297
27036W        W95254  15.790  41.243  11.933
27037W        W95255   5.972  24.552   2.227
27038W        W95256  22.622  39.256  13.661
27039W        W95257  20.097  33.088  14.573
27040W        W95258  13.042  12.267  11.985
27041W        W95259  29.552  23.415   1.467
27042W        W95260  27.467   4.784  12.844
27043W        W95261  22.119  10.817   2.749
27044W        W95262  33.450  28.776   1.843
27045W        W95263  20.465  37.840   2.818
27046W        W95264  16.711  41.089   2.836
27047W        W95265   2.170   4.552   0.381
27048W        W95266  30.960  28.100  11.989
27049W        W95267  37.151   5.728   3.456
27050W        W95268  14.173  37.758   4.983
27051W        W95269   2.605   7.771  12.912
27052W        W95270  10.342   5.286  13.937
27053W        W95271  40.471   4.455  13.941
27054W        W95272  32.613  22.213  12.585
27055W        W95273  31.184  37.742  11.095
27056W        W95274  13.206  15.617  13.441
27057W        W95275  11.343  34.295   2.703
27058W        W95276  21.629  34.175   3.186
27059W        W95277   4.743  32.951  14.417
27060W        W95278  32.997  13.101  14.729
27061W        W95279   0.389  24.331   0.059
27062W        W95280  10.048  15.922   5.508
27063W        W95281  11.252  11.306  10.673
27064W        W95282  20.597  20.673   0.922
27065W        W95283  30.498  14.540   2.737
27066W        W95284  26.110   1.972   2.472
27067W        W95285  22.091   3.510   2.109
27068W        W95286   6.891  38.442   2.638
27069W        W95287  44.029  17.349  14.602
27070W        W95288  22.919  25.164   1.974
27071W        W95289  20.489  29.464  13.795
27072W        W95290  16.626  19.729   2.436
27073W        W95291  31.231  16.852   2.777
27074W        W95292  36.480   5.929   1.944
27075W        W95293   7.406  20.881  11.239
27076W        W95294   5.812  16.228  10.147
27077W        W95295  29.985  33.357   4.132
27078W        W95296  13.922  21.192  13.061
27079W        W95297  17.826  11.143   2.894
27080W        W95298  16.385  23.168   0.104
27081W        W95299   3.878  44.517  10.261
27082W        W95300  28.604  28.887  12.388
27083W        W95301  25.551  42.319   3.413
27084W        W95302  32.008   4.763  12.565
27085W        W95303  44.583   0.345  10.277
27086W        W95304  25.238  10.851   4.633
27087W        W95305   5.712  15.787  12.146
27088W        W95306  15.611  30.054   2.789
27089W        W95307  38.931  43.461  14.091
27090W        W95308  15.667   7.185   0.163
27091W        W95309  27.024   7.111   3.907
27092W        W95310   7.393  25.430   4.139
27093W        W95311  31.934  21.274  13.979
27094W        W95312  33.209  22.446  12.919
27095W        W95313  19.640  26.565  12.133
27096W        W95314   5.623  22.790  13.031
27097W        W95315   3.692  28.059  10.362
27098W        W95316  27.576   9.976   3.269
27099W        W95317  38.348  14.734  14.521
27100W        W95318  31.471  14.512  14.897
27101W        W95319  39.603  23.073  11.011
27102W        W95320  25.721  39.371   2.725
27103W        W95321  12.642   7.565  10.732
27104W        W95322  21.132  34.949  14.780
27105W        W95323  16.214  34.075   3.202
27106W        W95324  28.177   3.571  11.510
27107W        W95325  34.551  40.237  13.007
27108W        W95326  44.053  33.267  11.500
27109W        W95327  19.097   1.360   4.408
27110W        W95328  44.696  37.136  12.891
27111W        W95329   0.150  19.250   2.235
27112W        W95330   0.402   8.350   0.852
27113W        W95331  14.160  17.610  13.779
27114W        W95332  24.546   8.301   1.943
27115W        W95333  17.602  37.088   0.335
27116W        W95334   9.401  36.420   3.729
27117W        W95335  36.401   3.976  13.415
27118W        W95336  26.074  43.600  13.492
27119W        W95337  19.743  32.345  13.020
27120W        W95338   7.682  30.638   3.709
27121W        W95339  32.813   2.960   2.853
27122W        W95340  21.394  43.244   1.826
27123W        W95341  12.193  28.274   0.787
27124W        W95342   7.150  41.086  11.967
27125W        W95343  28.453   5.402  12.077
27126W        W95344  25.572  30.402  14.497
27127W        W95345   1.375  11.717  11.110
27128W        W95346   1.385  11.614   4.606
27129W        W95347  13.738  44.975   3.756
27130W        W95348  15.410  41.457   1.837
27131W        W95349  44.556  34.283  12.853
27132W        W95350  41.339   2.790   1.273
27133W        W95351  35.103  37.012   2.370
27134W        W95352  12.005   0.524   1.575
27135W        W95353  36.379  39.579  10.958
27136W        W95354   8.208  33.852  13.948
27137W        W95355  15.192  17.545  10.418
27138W        W95356  19.147  21.647  12.905
27139W        W95357  25.660  17.984  13.006
27140W        W95358  17.660  16.694  13.116
27141W        W95359  31.447  30.576   0.179
27142W        W95360  11.891  29.126  13.147
27143W        W95361  37.101   4.948  13.890
27144W        W95362  29.214   9.815  14.393
27145W        W95363  19.188   7.912  11.961
27146W        W95364  18.667   3.003  12.477
27147W        W95365  11.256  29.020  11.037
27148W        W95366  39.385   8.707  12.423
27149W        W95367   6.758  37.047   3.589
27150W        W95368   2.760  15.825  12.057
27151W        W95369  39.012   0.883   9.957
27152W        W95370   8.960  16.590  13.383
27153W        W95371  44.174   6.453  11.870
27154W        W95372  39.571   4.621  14.035
27155W        W95373  39.400  27.758   1.686
27156W        W95374  27.528  21.464   2.381
27157W        W95375  32.555  15.321  13.127
27158W        W95376   4.771  16.283  14.886
27159W        W95377  34.088  16.716   3.713
27160W        W95378  33.474  35.391  13.378
27161W        W95379  38.729  34.924   1.992
27162W        W95380  31.033   4.010   2.753
27163W        W95381  15.812  13.835  13.563
27164W        W95382  24.697  35.011   1.312
27165W        W95383   1.175   3.765  11.041
27166W        W95384  13.300  43.404   0.914
27167W        W95385  18.461  44.929  11.399
27168W        W95386  17.669  34.511   4.595
27169W        W95387   9.627   6.777  12.417
27170W        W95388  20.503  29.724  12.808
27171W        W95389  22.494  26.607   4.677
27172W        W95390  30.201  30.200  14.263
27173W        W95391  35.082  42.057  12.518
27174W        W95392  22.190  33.224   1.843
27175W        W95393  40.821   4.847   3.729
27176W        W95394  28.376  15.185   1.029
27177W        W95395  18.072   9.616  14.248
27178W        W95396  23.205  44.972  14.396
27179W        W95397  13.538   4.202  12.804
27180W        W95398  26.452  15.759   2.478
27181W        W95399  11.310  35.316   0.842
27182W        W95400   5.129   0.666  12.414
27183W        W95401  29.544   7.341   0.042
27184W        W95402   2.678  13.472  14.350
27185W        W95403  24.130   6.822   4.043
27186W        W95404  44.531   9.224   1.976
27187W        W95405   2.804  34.184   3.794
27188W        W95406  32.188  36.197   3.183
27189W        W95407  11.178   0.470   0.994
27190W        W95408   8.014  23.687  10.273
27191W        W95409  39.064  21.492  14.926
27192W        W95410  19.124  14.737  10.284
27193W        W95411  32.860  30.055   0.252
27194W        W95412  28.673  38.075   2.428
27195W        W95413   7.607   6.211   9.824
27196W        W95414   8.787  29.433   1.742
27197W        W95415  18.133   4.415   0.696
27198W        W95416  32.299   8.950   5.114
27199W        W95417   4.253  12.092   2.727
27200W        W95418   8.382   7.209  11.187
27201W        W95419  35.317  25.097   1.267
27202W        W95420  43.844  16.861  14.508
27203W        W95421  39.594  29.128   4.340
27204W        W95422   3.682  15.400  10.682
27205W        W95423  20.651   1.966   1.017
27206W        W95424  10.298  28.729   2.209
27207W        W95425  38.890  20.363   0.372
27208W        W95426   3.362  24.409  12.962
27209W        W95427  22.796  13.597   2.844
27210W        W95428  44.513  14.426   5.061
27211W        W95429  22.806   8.347   2.673
27212W        W95430  33.418  40.287   0.026
27213W        W95431  35.713  38.617   3.866
27214W        W95432  11.168  44.886  12.891
27215W        W95433  19.405  41.307  14.218
27216W        W95434  13.644   9.607  11.153
27217W        W95435   8.703  41.839   1.184
27218W        W95436   3.979  42.050   0.660
27219W        W95437  21.024  35.670  10.601
27220W        W95438   7.389  32.147  14.762
27221W        W95439  23.247  31.900   2.094
27222W        W95440  18.525   8.168  10.504
27223W        W95441  11.328  24.187  12.992
27224W        W95442   5.789  34.024  12.859
27225W        W95443  40.106  39.556  11.848
27226W        W95444   7.600  12.398  11.231
27227W        W95445  37.800   6.885   4.569
27228W        W95446  12.577  19.280   2.886
27229W        W95447   6.149  25.058  12.997
27230W        W95448  38.057   9.035   4.718
27231W        W95449  13.974   2.966   1.757
27232W        W95450   2.545  29.985  13.424
27233W        W95451  34.517  13.266  12.929
27234W        W95452  23.285   9.338  14.384
27235W        W95453  10.631  30.047  12.765
27236W        W95454  13.574  10.654   1.793
27237W        W95455   3.859  31.927   4.142
27238W        W95456  22.818   0.723  12.326
27239W        W95457  19.098  16.227  11.788
27240W        W95458   5.386  37.388   3.266
27241W        W95459  17.661  30.872  10.550
27242W        W95460  12.288  10.720  12.798
27243W        W95461  36.429  37.976  12.625
27244W        W95462  29.176  43.852   2.443
27245W        W95463  43.025  26.851  11.144
27246W        W95464  33.989   3.772   2.270
27247W        W95465  31.017  30.145   9.455
27248W        W95466  43.435  41.589  11.563
27249W        W95467  24.483  43.498  14.343
27250W        W95468  24.796  22.154   2.875
27251W        W95469  22.810  34.602   3.331
27252W        W95470  31.443   6.522   3.272
27253W        W95471  20.669  23.811   0.228
27254W        W95472  42.990  27.864   2.448
27255W        W95473  37.086  10.251   1.868
27256W        W95474  39.931  22.948  14.484
27257W        W95475   4.693  34.392  10.598
27258W        W95476   6.208  21.042  12.550
27259W        W95477   8.641  19.671  12.603
27260W        W95478  18.769  43.110  11.551
27261W        W95479  30.331  25.564   1.736
27262W        W95480  32.975  37.405   2.388
27263W        W95481   6.858   7.296   3.154
27264W        W95482  18.280  10.234   4.062
27265W        W95483  22.306  27.853  11.527
27266W        W95484  35.933  37.537   1.213
27267W        W95485  28.948   9.186   2.446
27268W        W95486   3.995  40.035  14.410
27269W        W95487  11.816   2.884   2.918
27270W        W95488  39.994  13.106   2.866
27271W        W95489  15.700  41.316   4.631
27272W        W95490  10.129  32.604   3.153
27273W        W95491  41.965  32.705   2.262
27274W        W95492  14.188   0.759   3.340
27275W        W95493  32.534  36.767  14.302
27276W        W95494  28.295  42.242  11.108
27277W        W95495  12.516  17.765  14.850
27278W        W95496   2.230   3.738  12.020
27279W        W95497  17.588  43.415  13.105
27280W        W95498  28.147  21.634   1.166
27281W        W95499   2.960  44.280   4.135
27282W        W95500  43.032  36.982  11.533
27283W        W95501  19.819  42.995  11.028
27284W        W95502  19.337  18.779  13.469
27285W        W95503   2.390  23.946   0.597
27286W        W95504  30.732  12.173   4.518
27287W        W95505   3.031  10.107  14.067
27288W        W95506   1.102  44.238   0.391
27289W        W95507  12.354  34.617   4.543
27290W        W95508  27.001  34.840  11.196
27291W        W95509  22.754  42.142  13.316
27292W        W95510  24.415   7.445   0.127
27293W        W95511   2.878  15.766   4.282
27294W        W95512  12.649  18.783   4.413
27295W        W95513  35.071   3.028  13.099
27296W        W95514  25.753   5.234   3.136
27297W        W95515  23.295  39.004   3.938
27298W        W95516  29.937   4.700   2.434
27299W        W95517  33.819  31.372  14.939
27300W        W95518   4.180  35.620   0.057
27301W        W95519  18.241  18.984   3.419
27302W        W95520  28.500  41.373  10.718
27303W        W95521   6.126  16.214   0.322
27304W        W95522  40.324   8.424   1.786
27305W        W95523   0.834  14.484   4.682
27306W        W95524  24.033   0.549  12.742
27307W        W95525  30.063  24.643   2.730
27308W        W95526  22.729  13.529  14.375
27309W        W95527  43.911  15.401   1.869
27310W        W95528  11.394  41.414   3.165
27311W        W95529   6.752  26.034   2.311
27312W        W95530  20.569   6.734   3.630
27313W        W95531  43.434   0.984  14.371
27314W        W95532  18.280   1.135  12.664
27315W        W95533  41.216  13.187   5.048
27316W        W95534  35.654  15.860   4.435
27317W        W95535  41.800  13.230  13.840
27318W        W95536   7.294  15.200   1.466
27319W        W95537  30.019  35.348   3.376
27320W        W95538  38.831  42.197  14.980
27321W        W95539  34.446  23.680   5.015
27322W        W95540  39.601  23.611  13.298
27323W        W95541  15.117  15.081   0.455
27324W        W95542  33.649  27.694  13.025
27325W        W95543  15.082  26.661  13.091
27326W        W95544  42.127  31.934   1.082
27327W        W95545   9.368  17.297  10.823
27328W        W95546  19.996   5.644   2.686
27329W        W95547   8.747  43.797   1.980
27330W        W95548  21.528  29.618   2.149
27331W        W95549  33.323  44.660  10.810
27332W        W95550  38.449  25.746  14.348
27333W        W95551  44.404  14.828   0.229
27334W        W95552  12.881   3.373   1.315
27335W        W95553  21.785  22.654   1.441
27336W        W95554   2.462  31.669   0.333
27337W        W95555  34.484  14.972   1.026
27338W        W95556  39.102  34.832  10.456
27339W        W95557  38.055   2.410   4.055
27340W        W95558  41.928  21.040   1.795
27341W        W95559   2.622  41.145   3.698
27342W        W95560  36.032  11.209  14.682
27343W        W95561  42.972  44.486  11.189
27344W        W95562  30.139  24.483   1.339
27345W        W95563  17.593  18.783   4.469
27346W        W95564  22.125  43.004   1.023
27347W        W95565  43.779  11.049   3.560
27348W        W95566  20.174   5.971   1.789
27349W        W95567  12.661  12.122   1.232
27350W        W95568  32.358  36.990   1.830
27351W        W95569  30.525   5.932   3.138
27352W        W95570  25.142  15.607   3.590
27353W        W95571  19.982  14.989   4.913
27354W        W95572  16.283  38.885   2.332
27355W        W95573  44.793  32.452  12.505
27356W        W95574  17.114  37.849   0.405
27357W        W95575  34.568  29.017  14.444
27358W        W95576  13.869  16.274  10.552
27359W        W95577  33.884  32.634   0.696
27360W        W95578   3.495  38.831  10.647
27361W        W95579   2.976  14.113   2.781
27362W        W95580   4.902  21.276  14.495
27363W        W95581   0.451  28.389  11.112
27364W        W95582  37.312   0.787   0.379
27365W        W95583  33.954  27.604   0.646
27366W        W95584  10.130   1.873  13.921
27367W        W95585  37.894  19.468   1.831
27368W        W95586  11.636  18.669  12.068
27369W        W95587   9.143  11.118   1.804
27370W        W95588  31.246   6.305   4.073
27371W        W95589   5.893   4.250  11.126
27372W        W95590   7.191  38.696   4.542
27373W        W95591  26.820  31.655  10.928
27374W        W95592  42.095  42.364   1.414
27375W        W95593  21.534   5.961  11.190
27376W        W95594  28.234  26.103  11.627
27377W        W95595  26.936  10.136  10.261
27378W        W95596  29.545  40.909   4.524
27379W        W95597  31.610  10.862  14.521
27380W        W95598  28.709  33.437   1.437
27381W        W95599  43.917   3.481   0.910
27382W        W95600   0.330   5.303   2.158
27383W        W95601  36.380  31.303   3.302
27384W        W95602  39.890  16.098  13.591
27385W        W95603  31.122  13.073   0.078
27386W        W95604  23.017  24.671  11.990
27387W        W95605  31.253   1.336  11.635
27388W        W95606  37.521  20.284   2.793
27389W        W95607  14.278  35.138  14.428
27390W        W95608  21.203  44.301   5.266
27391W        W95609  16.668  24.862   2.408
27392W        W95610   4.691  14.447  10.604
27393W        W95611   2.317  33.580   4.565
27394W        W95612  14.197  17.715   0.703
27395W        W95613  14.789  15.746   1.398
27396W        W95614  33.703   8.004   0.888
27397W        W95615  33.162  10.893  14.008
27398W        W95616  15.535  12.596  14.183
27399W        W95617   1.451  24.483  12.005
27400W        W95618  29.457  43.415  13.564
27401W        W95619  31.732   2.819   3.159
27402W        W95620  41.426  23.804   3.262
27403W        W95621  27.757  41.932  10.687
27404W        W95622  16.154  40.630   0.520
27405W        W95623  12.890  26.683  10.627
27406W        W95624  23.396  37.937   4.161
27407W        W95625  18.047  33.912   5.027
27408W        W95626  17.811  16.892  10.495
27409W        W95627  12.309  11.778  10.262
27410W        W95628  36.100   0.983   4.113
27411W        W95629   9.270  14.113   3.412
27412W        W95630  44.616   4.551   3.161
27413W        W95631  18.791   2.448   3.610
27414W        W95632  40.502  36.881  13.552
27415W        W95633  12.613   9.326  11.942
27416W        W95634  16.690  24.976   1.501
27417W        W95635   1.235  38.052  13.585
27418W        W95636  14.611  34.326  14.442
27419W        W95637  15.976  23.042   3.351
27420W        W95638   4.792  41.535   0.850
27421W        W95639   1.858  30.526  11.156
27422W        W95640  27.553  16.355   0.957
27423W        W95641  13.232  25.114   0.829
27424W        W95642  29.119   9.454  13.310
27425W        W95643  39.826  29.062  14.012
27426W        W95644  29.195  33.066  11.904
27427W        W95645  23.681  35.669   9.789
27428W        W95646  36.828  14.118   4.584
27429W        W95647  12.662  41.322  11.908
27430W        W95648  25.751  26.573   4.578
27431W        W95649  41.833  20.593  11.888
27432W        W95650  37.790   7.736   4.644
27433W        W95651  42.602  27.102  12.205
27434W        W95652   4.749  24.925   4.745
27435W        W95653  11.584  18.052   4.635
27436W        W95654  30.412  18.020   3.234
27437W        W95655   8.923  22.523   0.295
27438W        W95656  29.115   9.105  13.729
27439W        W95657  15.892  13.254   4.395
27440W        W95658  12.377  24.990  13.801
27441W        W95659   5.115  20.833   4.293
27442W        W95660  41.557   6.764  12.451
27443W        W95661  25.036  26.579  11.583
27444W        W95662  13.165  29.440  12.134
27445W        W95663  33.164  12.791   1.790
27446W        W95664  15.278  21.979  12.100
27447W        W95665   8.426  38.826   4.516
27448W        W95666  40.857  13.535   4.038
27449W        W95667   2.939  25.560  13.505
27450W        W95668  37.545   9.891   2.848
27451W        W95669  17.591  44.982  11.248
27452W        W95670  32.987  15.105   4.141
27453W        W95671  35.402  15.392   4.498
27454W        W95672  14.038  14.417  12.942
27455W        W95673  38.871  41.087  10.749
27456W        W95674  32.477  22.812   4.862
27457W        W95675  37.607   6.246   1.784
27458W        W95676   1.668  22.225   4.594
27459W        W95677   7.169   3.844   3.559
27460W        W95678  25.040  19.688  14.487
27461W        W95679   0.773  17.403  11.468
27462W        W95680  35.542  41.254   0.822
27463W        W95681  39.543  19.116   1.201
27464W        W95682   9.788  35.877   0.453
27465W        W95683   1.799  12.919  13.993
27466W        W95684   6.456  26.164   3.734
27467W        W95685  12.504   0.408   1.496
27468W        W95686   8.179  12.563  12.879
27469W        W95687  41.400  23.843   0.740
27470W        W95688   0.816  29.415   3.210
27471W        W95689  20.114  42.799   2.262
27472W        W95690   0.890  42.773  13.487
27473W        W95691  16.632   0.251  12.331
27474W        W95692  42.193  10.948   2.097
27475W        W95693  35.065   4.187   2.677
27476W        W95694   7.552   4.233  14.415
27477W        W95695  34.935  28.998  11.641
27478W        W95696   5.164   4.365   4.313
27479W        W95697  42.985   5.140   0.065
27480W        W95698  27.471  36.976  11.674
27481W        W95699  19.662  32.441   1.726
27482W        W95700  22.699  41.708  11.517
27483W        W95701  16.181  43.029  12.973
27484W        W95702  23.252  41.444   2.219
27485W        W95703  29.010  38.997   1.044
27486W        W95704   3.539  21.444  14.681
27487W        W95705  17.276   1.747   3.369
27488W        W95706  37.077  44.507  13.880
27489W        W95707  42.545   6.001  12.881
27490W        W95708  31.042  16.064   0.184
27491W        W95709   7.404   5.350   1.096
27492W        W95710  38.595   7.786   2.918
27493W        W95711   2.669  13.823   1.954
27494W        W95712   8.957  37.575   0.330
27495W        W95713  11.239  18.802   0.845
27496W        W95714   2.679  18.030  14.813
27497W        W95715   4.132  11.184  12.923
27498W        W95716   9.842  16.750   4.099
27499W        W95717   9.753   6.528  10.756
27500W        W95718  37.405   0.870  13.635
27501W        W95719  41.546  29.539   0.738
27502W        W95720  22.218  32.646   2.701
27503W        W95721  21.413  42.336  11.048
27504W        W95722  24.532   7.254   4.648
27505W        W95723   5.787  29.964  10.783
27506W        W95724  28.028  12.936  12.337
27507W        W95725  36.147   3.952  14.351
27508W        W95726  42.206   1.453  10.527
27509W        W95727  20.718   6.625  13.555
27510W        W95728  14.268   6.516   0.043
27511W        W95729  40.719  15.655  11.069
27512W        W95730   4.504  24.241  13.542
27513W        W95731  24.342   2.250   0.887
27514W        W95732  12.627  42.315  11.887
27515W        W95733   8.249   8.296  11.680
27516W        W95734   3.905  25.073   2.695
27517W        W95735  22.536  12.371   4.189
27518W        W95736  35.269  12.488  11.670
27519W        W95737  30.736  15.519   2.423
27520W        W95738   9.282   2.787   1.863
27521W        W95739  30.838  43.002   0.990
27522W        W95740  17.201  23.402   3.491
27523W        W95741  39.339  16.539   4.056
27524W        W95742  29.133  31.423   0.161
27525W        W95743  26.538   9.831  12.450
27526W        W95744  44.976  34.007   4.018
27527W        W95745  25.944  32.065   3.254
27528W        W95746  12.769  25.253   3.765
27529W        W95747  28.008  32.075   0.442
27530W        W95748  37.706  36.562  14.941
27531W        W95749  35.342  41.493  11.782
27532W        W95750  20.164  11.155  12.550
27533W        W95751  42.508  21.185   4.366
27534W        W95752  17.937  11.227   1.896
27535W        W95753  19.978   7.410  13.034
27536W        W95754  40.974  38.909   0.856
27537W        W95755  35.983   3.246  14.950
27538W        W95756   8.807  13.376   2.832
27539W        W95757  31.131   1.234  12.152
27540W        W95758  32.642  18.713  14.385
27541W        W95759  26.985  34.405   4.550
27542W        W95760   2.699  41.945   1.211
27543W        W95761  24.712  43.323   3.706
27544W        W95762  34.930  22.210  14.194
27545W        W95763   5.837  44.372  10.153
27546W        W95764  14.498  21.376   4.080
27547W        W95765   4.445  34.044  12.947
27548W        W95766  21.017  29.963  11.511
27549W        W95767  27.815  34.352  10.155
27550W        W95768   7.772  30.372   0.352
27551W        W95769  29.990  23.527   3.087
27552W        W95770   2.053  11.356  13.014
27553W        W95771  27.783  37.231   3.842
27554W        W95772   2.149  29.555  10.754
27555W        W95773   2.743  21.671  14.438
27556W        W95774   5.908  43.824  12.499
27557W        W95775  21.556  32.224  11.484
27558W        W95776  23.578  19.045  10.806
27559W        W95777  12.298  26.911  14.819
27560W        W95778   3.682  27.231  14.588
27561W        W95779  21.031  12.364   3.838
27562W        W95780  43.744  31.416   4.514
27563W        W95781   0.211  43.152   1.056
27564W        W95782  14.957  24.999  10.795
27565W        W95783  29.055  41.353  10.766
27566W        W95784  40.257  38.635  13.858
27567W        W95785  11.384  16.229   2.700
27568W        W95786  35.005  36.605   3.140
27569W        W95787  43.524  29.201  12.093
27570W        W95788   2.780  31.191  11.900
27571W        W95789  17.549   8.727   1.783
27572W        W95790   9.811  23.640   0.892
27573W        W95791  27.082  10.906   1.289
27574W        W95792  28.532  38.574  14.519
27575W        W95793  21.939  29.037  12.093
27576W        W95794  25.646  10.605  13.512
27577W        W95795  25.395   0.268   1.839
27578W        W95796   7.460  12.993  10.735
27579W        W95797  31.384   8.590  12.049
27580W        W95798  10.389   7.769   2.384
27581W        W95799   3.385  29.000  11.612
27582W        W95800  13.319  25.511  10.704
27583W        W95801  11.658   7.946   4.585
27584W        W95802  11.766  43.058  14.240
27585W        W95803  18.988  28.967   2.872
27586W        W95804  31.416  24.386  13.845
27587W        W95805  44.750  21.713   0.819
27588W        W95806  43.434   6.374  10.730
27589W        W95807   4.132  28.466   0.964
27590W        W95808   7.935   6.807   4.625
27591W        W95809  20.564  42.338  11.214
27592W        W95810  15.360   0.906   1.332
27593W        W95811  19.364  33.522   0.383
27594W        W95812  28.709  19.095  12.385
27595W        W95813   4.936  36.213   2.391
27596W        W95814  28.100  36.491  13.855
27597W        W95815  29.628  33.100  10.539
27598W        W95816  40.345  18.278  10.711
27599W        W95817  10.338  15.793   0.782
27600W        W95818  21.111  20.082   3.243
27601W        W95819  20.703  37.012   2.356
27602W        W95820  12.631  36.161  10.774
27603W        W95821   3.656  29.470   0.468
27604W        W95822  24.490  19.576  14.345
27605W        W95823   7.585  40.329   1.198
27606W        W95824  24.020  27.197   3.320
27607W        W95825  29.751   8.489  11.538
27608W        W95826  12.160  38.548  14.386
27609W        W95827  25.115  35.835   3.274
27610W        W95828  36.475   2.341  14.944
27611W        W95829   6.308  19.504  14.239
27612W        W95830   9.053   0.490  14.442
27613W        W95831   9.169  36.040  12.862
27614W        W95832  38.018   6.947   0.188
27615W        W95833  17.403  21.237   4.153
27616W        W95834  42.836  33.129  12.784
27617W        W95835  23.043   5.260  10.661
27618W        W95836  41.992   4.271  14.726
27619W        W95837  42.568  25.897   1.403
27620W        W95838  23.181  19.257   0.910
27621W        W95839  33.370  23.786  12.025
27622W        W95840  22.467  25.838  13.660
27623W        W95841  43.352  30.895  11.714
27624W        W95842   6.454   6.536   2.743
27625W        W95843  23.487  12.084  11.468
27626W        W95844  25.491  16.567  11.128
27627W        W95845  19.349  42.757   2.736
27628W        W95846  28.895   3.429  14.058
27629W        W95847   3.164   8.796  11.951
27630W        W95848  20.099  35.590   5.018
27631W        W95849  11.795  43.405   1.044
27632W        W95850  20.951  17.519  12.881
27633W        W95851  31.652  19.423   1.557
27634W        W95852   8.217  25.791  11.989
27635W        W95853  25.414  17.093  13.003
27636W        W95854  22.519  13.320  14.822
27637W        W95855   0.043   5.189  13.523
27638W        W95856   5.379  16.551  11.990
27639W        W95857  19.655  17.875  12.962
27640W        W95858   0.319  26.435   5.024
27641W        W95859  36.118  18.870  11.404
27642W        W95860  13.332  44.322   0.725
27643W        W95861  26.732  21.969  11.786
27644W        W95862  43.676  24.217  12.926
27645W        W95863  20.262  26.855  11.429
27646W        W95864  12.861  43.439   4.522
27647W        W95865  15.804  37.961   0.336
27648W        W95866  35.521  14.258  12.076
27649W        W95867  40.391  23.240   4.522
27650W        W95868   3.265  42.762  13.819
27651W        W95869  41.614  43.996   3.711
27652W        W95870   2.568  35.354   2.285
27653W        W95871  12.325  23.541   0.759
27654W        W95872  44.846  42.703   0.364
27655W        W95873  12.323   6.769  13.434
27656W        W95874   8.360  15.332  14.349
27657W        W95875  27.700  15.089   3.252
27658W        W95876  28.267  44.139  10.284
27659W        W95877  14.905  41.454  14.772
27660W        W95878  35.638  10.636   0.447
27661W        W95879  25.245  42.142  12.920
27662W        W95880  16.661  40.498  14.973
27663W        W95881  10.684  41.044  11.963
27664W        W95882  38.427  17.809  11.503
27665W        W95883   9.070  14.078   5.183
27666W        W95884  29.553  19.293   4.728
27667W        W95885  19.116   9.163   2.317
27668W        W95886  26.447  28.768   4.475
27669W        W95887   2.162  20.110  13.423
27670W        W95888   9.872  13.033  12.597
27671W        W95889  12.829  44.356   0.811
27672W        W95890  17.154  19.650  10.548
27673W        W95891  37.055  12.729  12.058
27674W        W95892  20.269  40.921  12.458
27675W        W95893  37.564  24.964  12.445
27676W        W95894  14.682  36.978   0.882
27677W        W95895  19.273   4.740  12.317
27678W        W95896  10.254  41.921   2.755
27679W        W95897  18.765  44.812   1.471
27680W        W95898  22.869  40.405   4.606
27681W        W95899  42.105  38.521  12.942
27682W        W95900  11.770   5.374   4.644
27683W        W95901  19.005   0.360  13.704
27684W        W95902  36.882  17.070   4.152
27685W        W95903  19.015  20.784   1.276
27686W        W95904  44.356  33.983  14.516
27687W        W95905  16.405   7.792   0.495
27688W        W95906  19.231  21.955   4.646
27689W        W95907  37.536  29.473  13.901
27690W        W95908  23.743  26.153  10.454
27691W        W95909  26.180  43.250  12.994
27692W        W95910   9.279  34.707   3.142
27693W        W95911  18.717   8.578   0.544
27694W        W95912  29.116   6.877  13.522
27695W        W95913  16.381  40.008   3.736
27696W        W95914  30.440  32.837   2.557
27697W        W95915  18.660  17.751  11.128
27698W        W95916  12.048  17.302  11.554
27699W        W95917  41.334  34.605   2.346
27700W        W95918   4.374  28.766  11.170
27701W        W95919  33.203  19.595   4.179
27702W        W95920  43.456  20.049   4.080
27703W        W95921  36.924  32.484   3.561
27704W        W95922  29.536  19.456  11.533
27705W        W95923  22.991  11.521  14.435
27706W        W95924  15.730  13.385  14.469
27707W        W95925  27.377  41.906   2.441
27708W        W95926  11.843  21.953   0.556
27709W        W95927   2.596  24.522   2.845
27710W        W95928   1.421  39.067  10.698
27711W        W95929  19.544  23.757  13.945
27712W        W95930   4.655  18.818   1.820
27713W        W95931  19.598   0.440   4.546
27714W        W95932  14.592  36.954  12.947
27715W        W95933  14.790  39.417   2.346
27716W        W95934  19.691  11.720  13.085
27717W        W95935  42.501  45.000  11.583
27718W        W95936  39.049  33.040   3.199
27719W        W95937  13.941  17.198  12.789
27720W        W95938  20.706  12.102   0.425
27721W        W95939  29.486  14.302   0.990
27722W        W95940  41.527  44.173   1.449
27723W        W95941  20.203  35.031  13.399
27724W        W95942  18.900  23.400  11.928
27725W        W95943  11.350  24.970  12.644
27726W        W95944   2.983  28.069  11.750
27727W        W95945  32.494  15.546   3.689
27728W        W95946   9.402  38.559  12.022
27729W        W95947  19.219   4.268   2.622
27730W        W95948  11.319   8.723   1.711
27731W        W95949   2.101  11.395   3.855
27732W        W95950  21.435  25.585   1.101
27733W        W95951  24.490  31.486   1.973
27734W        W95952  28.690  38.527  13.447
27735W        W95953  24.416   8.635  14.083
27736W        W95954  30.308  25.496   4.131
27737W        W95955  27.097   5.160   1.562
27738W        W95956  43.460   0.454  13.927
27739W        W95957  42.078  11.676  11.522
27740W        W95958   6.524  28.634  11.659
27741W        W95959  40.648   0.731  11.205
27742W        W95960  41.997   2.862   2.996
27743W        W95961  36.090  38.337  10.622
27744W        W95962  18.845  37.496  11.490
27745W        W95963  18.925  16.809  13.294
27746W        W95964   6.726  15.621   3.504
27747W        W95965  19.084  29.808   4.677
27748W        W95966  11.234  16.352   4.503
27749W        W95967  10.650  14.055   0.494
27750W        W95968   0.297  13.307   3.564
27751W        W95969   8.771   9.441  14.996
27752W        W95970  10.691  40.039   0.842
27753W        W95971  16.063   1.206  12.646
27754W        W95972  29.416  10.723  13.489
27755W        W95973  40.544  19.605  10.797
27756W        W95974  33.233   0.378   2.958
27757W        W95975  42.585  41.374   2.624
27758W        W95976   4.235  42.469   0.432
27759W        W95977   6.082  19.006  12.935
27760W        W95978   0.985   5.212  14.865
27761W        W95979  32.852  39.697   4.111
27762W        W95980  21.706  24.068  13.955
27763W        W95981  25.973  33.787   1.425
27764W        W95982  12.777  36.339   1.452
27765W        W95983   3.642  26.954   2.884
27766W        W95984  36.252  12.342  14.525
27767W        W95985  38.264  19.623  10.952
27768W        W95986  10.473  29.213   2.317
27769W        W95987  31.500  24.958   0.819
27770W        W95988  32.790   6.940   2.321
27771W        W95989  13.273  26.574   4.587
27772W        W95990  14.916  42.115   3.894
27773W        W95991  40.548  43.990   0.344
27774W        W95992  43.814   5.293  14.326
27775W        W95993  44.779  40.800  13.341
27776W        W95994   3.182  31.681  12.510
27777W        W95995  19.564  39.584   2.679
27778W        W95996  21.483  31.097  14.392
27779W        W95997  42.814   2.229  10.653
27780W        W95998  36.811  13.668   1.383
27781W        W95999  38.859  15.181   0.607
27782W        W96000  36.320  35.406  14.500
27783W        W96001  12.830  30.137   3.418
27784W        W96002  20.265  36.907   0.771
27785W        W96003  42.360  26.920  13.359
27786W        W96004   4.777   9.583  11.500
27787W        W96005  13.310   0.588   3.602
27788W        W96006  28.329   5.375   4.599
27789W        W96007  23.231  43.488   1.791
27790W        W96008  22.158  39.427  12.500
27791W        W96009  30.455   4.001  13.531
27792W        W96010   2.933  32.207   5.256
27793W        W96011  10.760  31.328   5.012
27794W        W96012  14.033  21.148  11.073
27795W        W96013   9.864  10.375  12.126
27796W        W96014  11.163  25.957   1.728
27797W        W96015   6.840   6.192  14.449
27798W        W96016  28.513   5.774  14.456
27799W        W96017  11.795  38.639   2.869
27800W        W96018  17.472  10.743   0.871
27801W        W96019  29.407  29.896   0.331
27802W        W96020  37.870  15.057   2.084
27803W        W96021   3.690   3.549   2.713
27804W        W96022  38.806  18.555   3.787
27805W        W96023  33.151  33.424  14.748
27806W        W96024  40.953  43.587  13.701
27807W        W96025  36.857  41.236   4.109
27808W        W96026  33.117  36.396  14.804
27809W        W96027  27.023  18.692  10.715
27810W        W96028  34.513  12.800  11.149
27811W        W96029  40.623  39.003  12.144
27812W        W96030  37.620  10.231   4.832
27813W        W96031  23.109  40.764   3.374
27814W        W96032  20.980   9.287   0.426
27815W        W96033  20.156  28.733   2.795
27816W        W96034  34.634  41.796   4.049
27817W        W96035  37.355   5.401  13.855
27818W        W96036  34.659  44.950   4.675
27819W        W96037  10.036  33.538   0.159
27820W        W96038  39.859   8.223   2.698
27821W        W96039  29.106  14.542   0.014
27822W        W96040  21.385   6.577   3.011
27823W        W96041  42.750  31.107   4.654
27824W        W96042  40.017  37.949  14.910
27825W        W96043  10.784  31.433  10.724
27826W        W96044  34.385   7.694   0.406
27827W        W96045  11.195  21.614   3.128
27828W        W96046  14.531  25.944   3.788
27829W        W96047  18.796  36.969   0.935
27830W        W96048   3.398  35.396  13.921
27831W        W96049   1.379  29.449   1.345
27832W        W96050  24.373  22.439  13.463
27833W        W96051  17.131  41.787  11.029
27834W        W96052  22.949  33.413  14.284
27835W        W96053  15.125  10.219   2.249
27836W        W96054  40.948   3.731   2.167
27837W        W96055  37.930  39.375   0.580
27838W        W96056  20.017  33.987  12.563
27839W        W96057   5.916  33.095   0.151
27840W        W96058  42.961   8.427   0.948
27841W        W96059  29.929  41.239   2.690
27842W        W96060   1.421   5.862   3.353
27843W        W96061  39.894  27.961   0.248
27844W        W96062  25.701  18.040  14.893
27845W        W96063   7.327  25.729   0.039
27846W        W96064  44.600   6.826  11.168
27847W        W96065   1.578  15.872  13.288
27848W        W96066  22.014   5.981  12.546
27849W        W96067   4.818   9.118  10.534
27850W        W96068   6.199  17.268   5.308
27851W        W96069  40.868  39.787   3.782
27852W        W96070  20.529  37.940  13.505
27853W        W96071  31.581  28.882   2.361
27854W        W96072   9.372  22.495  13.307
27855W        W96073  33.531   9.718   3.287
27856W        W96074  44.155  32.696   4.197
27857W        W96075  15.654  36.603   0.204
27858W        W96076  14.489  24.598   2.729
27859W        W96077  13.776  18.252   1.372
27860W        W96078  36.505  39.331  10.526
27861W        W96079  18.997  18.735  10.403
27862W        W96080   1.488  33.916  12.425
27863W        W96081  14.104   7.609   4.045
27864W        W96082  22.126  18.076  12.959
27865W        W96083  12.743  38.189   3.915
27866W        W96084   8.184   5.394   3.076
27867W        W96085  34.890   4.168  14.975
27868W        W96086   4.724  14.400  14.585
27869W        W96087  31.514  13.684   4.124
27870W        W96088  42.363  21.055  14.451
27871W        W96089  13.161   6.186   1.963
27872W        W96090   2.311  32.148  14.455
27873W        W96091   3.792   7.352   1.073
27874W        W96092   9.259  23.937   4.074
27875W        W96093   0.773  27.001   2.632
27876W        W96094  20.910  27.225   4.086
27877W        W96095   6.379   9.379  14.424
27878W        W96096  28.254  23.104  12.729
27879W        W96097  22.230  41.269   1.425
27880W        W96098  37.492   9.736  10.105
27881W        W96099  14.715  42.316  10.165
27882W        W96100   1.763  16.818   4.147
27883W        W96101  22.512  40.463   5.004
27884W        W96102  26.190  34.633   3.281
27885W        W96103  36.951  12.871   0.798
27886W        W96104  13.531  28.408   1.170
27887W        W96105  13.951  39.809  12.859
27888W        W96106  41.015  14.798   2.356
27889W        W96107  10.742  41.004  14.887
27890W        W96108  21.939   7.510  12.287
27891W        W96109  41.945  32.405   0.964
27892W        W96110  10.772  26.993   4.366
27893W        W96111  34.381   0.340  12.764
27894W        W96112   0.347   1.296  12.327
27895W        W96113  21.755  14.235   4.536
27896W        W96114  19.876  23.004   0.139
27897W        W96115  42.341   5.153  11.357
27898W        W96116  20.122   0.383  10.427
27899W        W96117  40.283  42.516  14.536
27900W        W96118  44.636  29.492   4.570
27901W        W96119   9.320  34.525   3.642
27902W        W96120   9.107  32.615   4.152
27903W        W96121  14.870   7.261  14.732
27904W        W96122  43.667   0.842  12.519
27905W        W96123  38.260   6.189  10.074
27906W        W96124  16.052  14.008  11.663
27907W        W96125  28.106  27.121   3.049
27908W        W96126  14.667  44.561  13.505
27909W        W96127   8.834  21.616   2.690
27910W        W96128   0.805  35.490   1.948
27911W        W96129  23.482   7.864  10.723
27912W        W96130   0.785  22.715  10.089
27913W        W96131  23.583  10.182   1.753
27914W        W96132  37.124  43.365  12.518
27915W        W96133  24.471   4.287  13.824
27916W        W96134   8.560  19.654  10.324
27917W        W96135   0.140   4.663   3.019
27918W        W96136  22.648  10.731   2.719
27919W        W96137  36.048  40.737  10.396
27920W        W96138   3.490   7.050  10.297
27921W        W96139  23.464   8.612  11.066
27922W        W96140   4.851  28.040   3.322
27923W        W96141   0.018  34.906  14.879
27924W        W96142  13.804   7.914  14.912
27925W        W96143   0.688  23.199   3.131
27926W        W96144   2.395  33.998   0.842
27927W        W96145  12.456  15.057   2.413
27928W        W96146   7.544  40.883   1.318
27929W        W96147   4.976  14.678   3.607
27930W        W96148  11.475  10.491  14.803
27931W        W96149  32.324  17.024  11.006
27932W        W96150  17.535   0.500   3.713
27933W        W96151  21.259  30.168   2.886
27934W        W96152  22.276  13.389  11.154
27935W        W96153  15.116  12.447  12.837
27936W        W96154  30.182  19.644   4.551
27937W        W96155   1.449  22.846   2.598
27938W        W96156  40.349  24.248  12.091
27939W        W96157  23.344  31.103   0.029
27940W        W96158   8.268   8.306   2.346
27941W        W96159  33.856  27.439   0.163
27942W        W96160  19.808   6.490  13.526
27943W        W96161  39.754  32.650  13.910
27944W        W96162  25.486  22.787   1.929
27945W        W96163  29.122  44.039  12.421
27946W        W96164   5.960  33.929   0.655
27947W        W96165  35.431  27.850  14.449
27948W        W96166  18.951  26.045   2.283
27949W        W96167  13.612  42.406  14.903
27950W        W96168  30.457   3.160   1.880
27951W        W96169   0.162  19.547   1.280
27952W        W96170  33.038  17.125   2.352
27953W        W96171  42.537  22.245  11.604
27954W        W96172  30.501  14.381  12.360
27955W        W96173  16.257  34.892  14.790
27956W        W96174   8.851  39.970  12.493
27957W        W96175  23.541   0.547  14.950
27958W        W96176  34.983  35.157   4.615
27959W        W96177  31.020  29.051  11.087
27960W        W96178  31.878  39.620   1.329
27961W        W96179  39.006   0.400   9.767
27962W        W96180   0.390  35.358  10.773
27963W        W96181  43.046   1.430  10.905
27964W        W96182  44.059  14.583   3.323
27965W        W96183  37.828  20.292   1.278
27966W        W96184   9.808  28.925  14.068
27967W        W96185  43.058  11.604  11.259
27968W        W96186  24.977  20.279   2.671
27969W        W96187  37.291  24.000   4.120
27970W        W96188   4.369  44.287   1.267
27971W        W96189   3.455  33.188  12.452
27972W        W96190  11.604   9.904   0.542
27973W        W96191  10.284  19.685  14.766
27974W        W96192  27.495   7.667  11.207
27975W        W96193  36.763  15.262   0.375
27976W        W96194  16.961  18.448  10.270
27977W        W96195  10.716  12.561   2.799
27978W        W96196  32.295  35.454   0.278
27979W        W96197  23.522   8.511  14.092
27980W        W96198  44.830  41.481  11.908
27981W        W96199  15.755  24.026  12.688
27982W        W96200  38.923  18.973   2.706
27983W        W96201  26.253  34.630   4.099
27984W        W96202   1.412   0.446  12.332
27985W        W96203  23.652   8.946  12.002
27986W        W96204  13.097  26.798   0.275
27987W        W96205  23.032   8.229  12.436
27988W        W96206  31.023  10.141   4.120
27989W        W96207  39.439   8.725   4.212
27990W        W96208  19.171  16.744  11.639
27991W        W96209  44.782  31.498   1.708
27992W        W96210  33.098  42.366   1.292
27993W        W96211  22.566  16.078   0.597
27994W        W96212  15.585  25.706  12.099
27995W        W96213   7.527  31.074   4.422
27996W        W96214  36.350   8.549   1.917
27997W        W96215   2.336  21.438  13.971
27998W        W96216  20.234  25.393   2.395
27999W        W96217   2.236  21.066   3.074
28000W        W96218  41.849  39.335  12.479
28001W        W96219  28.006  27.449   4.698
28002W        W96220  25.711  12.676   3.042
28003W        W96221  16.231  40.784  13.471
28004W        W96222  12.686  43.062   3.702
28005W        W96223  13.660  13.079   3.483
28006W        W96224  34.849  34.893  13.511
28007W        W96225  34.156   7.758   0.890
28008W        W96226   1.955   2.830  13.925
28009W        W96227  39.394   4.149   0.816
28010W        W96228  14.594  33.465  12.845
28011W        W96229  10.824  22.026   0.185
28012W        W96230  42.548  30.629   4.549
28013W        W96231  15.083  29.762  12.961
28014W        W96232  30.370  25.275   2.765
28015W        W96233  41.803  18.640  14.147
28016W        W96234   5.455  25.188  11.122
28017W        W96235  34.014   2.750   3.306
28018W        W96236  11.901  32.681   4.376
28019W        W96237  19.651  38.271  13.246
28020W        W96238  17.118  16.581   1.400
28021W        W96239  29.918  22.728  12.492
28022W        W96240  19.211  14.296   1.393
28023W        W96241   1.478  35.913   2.315
28024W        W96242  27.283  31.564   5.129
28025W        W96243   7.537  11.599  14.725
28026W        W96244  12.575  20.971   1.479
28027W        W96245  28.688  26.102  10.689
28028W        W96246   5.339   4.314  14.011
28029W        W96247   7.475  42.458   1.381
28030W        W96248  12.141  11.677   2.855
28031W        W96249  36.375  41.917  11.155
28032W        W96250  18.005  23.086   3.291
28033W        W96251   1.258  44.736   0.357
28034W        W96252  35.507  12.746  12.068
28035W        W96253   5.758  39.467  12.624
28036W        W96254  41.737  24.984  14.038
28037W        W96255   3.448   3.816   3.730
28038W        W96256   6.498  13.175   4.612
28039W        W96257  35.719  43.757  13.801
28040W        W96258  27.986  39.278  12.012
28041W        W96259  44.711  24.816   1.356
28042W        W96260  13.200  12.678  14.181
28043W        W96261   7.888  40.793   2.230
28044W        W96262  39.439  41.504   3.646
28045W        W96263  43.330  15.669  14.973
28046W        W96264  35.825  19.468   4.578
28047W        W96265  32.075  36.001  13.337
28048W        W96266  12.190  35.425  13.289
28049W        W96267  27.641  39.173  13.873
28050W        W96268  26.654  11.735  12.468
28051W        W96269  34.104  21.711  11.943
28052W        W96270  41.316   6.517   2.535
28053W        W96271  39.057   1.944  13.014
28054W        W96272  15.577  40.352  11.589
28055W        W96273  31.517  41.196   1.807
28056W        W96274   7.762  35.089  10.677
28057W        W96275   0.512  44.095  11.677
28058W        W96276  37.509   3.124   0.952
28059W        W96277   1.538  12.236   3.333
28060W        W96278  10.862  40.809   3.718
28061W        W96279  36.580   3.226   1.506
28062W        W96280  19.562  38.783  13.347
28063W        W96281  37.480  37.429  10.882
28064W        W96282   1.934   5.808   4.220
28065W        W96283  10.619  19.004  14.279
28066W        W96284   5.210  33.974  14.991
28067W        W96285  43.972  37.511  10.776
28068W        W96286  19.688   4.506   3.910
28069W        W96287   8.021  16.082  12.065
28070W        W96288  15.358  20.155   3.276
28071W        W96289   6.791  21.068   0.269
28072W        W96290  36.788  32.683  11.151
28073W        W96291   7.783  42.830  14.768
28074W        W96292  23.728  36.514   4.139
28075W        W96293  20.617  12.071  12.384
28076W        W96294  32.379  37.715   0.121
28077W        W96295   4.446  37.374   0.927
28078W        W96296  13.735   6.327  12.061
28079W        W96297  30.160   9.471  12.649
28080W        W96298  13.168  41.195  12.048
28081W        W96299  16.233  35.864  14.839
28082W        W96300  25.979   8.319   0.884
28083W        W96301  42.858  43.621   1.041
28084W        W96302  27.262  22.617  14.894
28085W        W96303  20.268  44.298  14.863
28086W        W96304  14.241  14.672   0.604
28087W        W96305   8.385  40.777   3.706
28088W        W96306  13.458  16.674   4.036
28089W        W96307  25.479  18.495  14.787
28090W        W96308  44.435   2.477  13.367
28091W        W96309  31.657   1.694   4.178
28092W        W96310  20.020  17.059   3.289
28093W        W96311  23.959   4.269  13.935
28094W        W96312  12.814  41.354   1.461
28095W        W96313   2.273  39.823  13.533
28096W        W96314   6.640  18.442  12.054
28097W        W96315   2.760   7.330   4.136
28098W        W96316  19.180  44.443  14.046
28099W        W96317  35.443   4.427  14.375
28100W        W96318  13.774  32.079   3.769
28101W        W96319  27.782   6.765  10.787
28102W        W96320  19.541  13.219   4.285
28103W        W96321  25.017   3.971  13.528
28104W        W96322   4.285   6.259   2.209
28105W        W96323  20.038   9.318   2.913
28106W        W96324  26.586   0.681  12.223
28107W        W96325  14.129  25.956   2.144
28108W        W96326  34.883  13.019  14.519
28109W        W96327   4.521  39.538  14.412
28110W        W96328   3.766  39.118   0.439
28111W        W96329  12.698  11.850   0.763
28112W        W96330  34.351   7.193   0.185
28113W        W96331  38.351  31.149  13.498
28114W        W96332  34.488  28.488  14.603
28115W        W96333  17.196  40.567  11.893
28116W        W96334  22.716  27.640   3.219
28117W        W96335  21.808  29.523   4.531
28118W        W96336   7.386  35.050   4.648
28119W        W96337  22.228   4.988  13.388
28120W        W96338   8.621  32.139   0.474
28121W        W96339   1.090  34.035   0.765
28122W        W96340   0.398  38.831  11.597
28123W        W96341   7.721   0.394   1.368
28124W        W96342   3.890  12.286  13.593
28125W        W96343  38.550   2.549  11.229
28126W        W96344   2.761   9.417   1.033
28127W        W96345   6.869  32.441   0.883
28128W        W96346  36.823  36.408   2.736
28129W        W96347  30.168  24.740  12.561
28130W        W96348   7.444  15.070  14.399
28131W        W96349  16.491  37.044   2.680
28132W        W96350  17.531  44.113  12.922
28133W        W96351  36.194   9.312   4.650
28134W        W96352  20.649  36.485  13.513
28135W        W96353  42.491  25.514  12.602
28136W        W96354   7.282  17.545   1.721
28137W        W96355   0.292  32.726   3.709
28138W        W96356  44.902  21.178   3.490
28139W        W96357  28.878   4.830  12.836
28140W        W96358  31.203  25.437  12.523
28141W        W96359   3.715  26.576   3.376
28142W        W96360  31.849  42.514  13.548
28143W        W96361  31.476  14.468   0.677
28144W        W96362  18.131  16.831   1.378
28145W        W96363  42.561   4.823   2.599
28146W        W96364   4.280   5.694   3.363
28147W        W96365  28.366   8.299  14.972
28148W        W96366   7.160  20.527  12.533
28149W        W96367   9.499  11.829  12.024
28150W        W96368  26.891  40.140   2.650
28151W        W96369   7.078  43.175   1.037
28152W        W96370  38.572   2.336   2.712
28153W        W96371   2.457   2.143   3.255
28154W        W96372  17.307   0.702   2.177
28155W        W96373  27.551  29.197  12.113
28156W        W96374  24.022   0.929   1.411
28157W        W96375  10.398  28.195   4.104
28158W        W96376   9.802  10.324   4.179
28159W        W96377  26.785  15.132   0.040
28160W        W96378  22.772   2.855  11.928
28161W        W96379  10.227   1.605   0.904
28162W        W96380   1.012  18.980   2.407
28163W        W96381  26.452  29.050   3.675
28164W        W96382  37.445  11.228   4.629
28165W        W96383  38.033  43.153   2.407
28166W        W96384  28.970  27.309  11.158
28167W        W96385  28.934  42.742   0.696
28168W        W96386  29.198   0.707  13.832
28169W        W96387  35.384   0.332   4.301
28170W        W96388  40.592  12.845   0.154
28171W        W96389  21.326   3.806   4.129
28172W        W96390  11.337  39.467  12.029
28173W        W96391  13.375   8.616   4.209
28174W        W96392  38.115   4.177  13.470
28175W        W96393  10.592  12.459   3.296
28176W        W96394  34.030  41.375  13.318
28177W        W96395  42.135  39.987   2.781
28178W        W96396  40.412  27.562   1.987
28179W        W96397  26.723  27.033   3.829
28180W        W96398  38.660  24.812   0.391
28181W        W96399   9.219  40.924  13.382
28182W        W96400  43.006   1.442   1.870
28183W        W96401  27.042  12.789   4.813
28184W        W96402  18.287  28.156  12.528
28185W        W96403  15.643  29.436  14.706
28186W        W96404  15.317  28.401   3.242
28187W        W96405   4.101   1.478  13.568
28188W        W96406  33.133   2.805   4.969
28189W        W96407  31.473  12.030  14.802
28190W        W96408  24.506  20.130  13.620
28191W        W96409  10.305  19.630   4.138
28192W        W96410  38.270  16.057   4.257
28193W        W96411  16.500  32.086   0.425
28194W        W96412  17.812  40.482  12.500
28195W        W96413  20.285  32.794  14.964
28196W        W96414  28.459  26.472  10.987
28197W        W96415  23.088  31.914   2.574
28198W        W96416  41.564   6.584   3.294
28199W        W96417  33.504  13.132  10.768
28200W        W96418  16.336  19.789  13.469
28201W        W96419  40.228   8.652   2.833
28202W        W96420  20.260  35.614   0.483
28203W        W96421  20.504  14.164  13.855
28204W        W96422   1.454  19.482  10.756
28205W        W96423  25.240   8.834  12.995
28206W        W96424  31.959   8.356   3.672
28207W        W96425  37.061   7.964   0.913
28208W        W96426  36.078  16.166  14.618
28209W        W96427   3.450  36.234  12.007
28210W        W96428  43.048  30.118  10.711
28211W        W96429  28.120  28.861  11.820
28212W        W96430  35.992   7.882   2.277
28213W        W96431  43.802  33.445   2.937
28214W        W96432  42.830   8.004   1.668
28215W        W96433  19.219  10.054   1.230
28216W        W96434  31.214  44.056   2.123
28217W        W96435  21.625   5.911   0.330
28218W        W96436  30.085  24.085  13.624
28219W        W96437   6.238  41.261   0.818
28220W        W96438  31.912  26.953  10.296
28221W        W96439  40.040  23.013   0.960
28222W        W96440  32.917  16.257   3.348
28223W        W96441  14.371  21.879   4.154
28224W        W96442  42.976  25.047   0.973
28225W        W96443  10.383   0.656   0.874
28226W        W96444   3.863  33.048  12.058
28227W        W96445  21.690   1.400   1.289
28228W        W96446  14.922  33.335  12.010
28229W        W96447  37.668  19.142   2.323
28230W        W96448  21.677   6.320   3.837
28231W        W96449   1.974  24.448  12.033
28232W        W96450  15.081  11.820  14.283
28233W        W96451  40.737  38.951   2.788
28234W        W96452  36.909  14.147  11.713
28235W        W96453  24.506  22.267   0.343
28236W        W96454   1.897  44.673  10.366
28237W        W96455  21.214  32.932   3.705
28238W        W96456  13.866   2.708  13.791
28239W        W96457  42.140   3.461  11.270
28240W        W96458  12.614  28.545   0.664
28241W        W96459   4.393  42.598   4.535
28242W        W96460   1.963  15.114  11.096
28243W        W96461  42.797  22.248   1.273
28244W        W96462  36.010  41.488   0.883
28245W        W96463  10.550  31.625  12.169
28246W        W96464  23.654  16.928  11.895
28247W        W96465   3.806  12.130   1.776
28248W        W96466  24.047  36.926   4.061
28249W        W96467  23.024  17.335   0.409
28250W        W96468  20.173  15.616  11.941
28251W        W96469  14.162  28.810  14.331
28252W        W96470  35.051  35.780   1.420
28253W        W96471  37.995  37.287  12.036
28254W        W96472   3.456   4.247  10.621
28255W        W96473  13.740  15.267  13.082
28256W        W96474  16.212  34.365   3.901
28257W        W96475   8.835  19.834  10.729
28258W        W96476   9.492  34.094  14.780
28259W        W96477  17.612  21.012   1.350
28260W        W96478  35.552  14.257  14.806
28261W        W96479   3.327  14.347  11.574
28262W        W96480  33.547  33.158  11.541
28263W        W96481  37.183  37.506   2.803
28264W        W96482   1.136  12.757  11.977
28265W        W96483  37.508   4.378   4.073
28266W        W96484  10.445  31.381   2.600
28267W        W96485  39.333  34.855   2.792
28268W        W96486   6.518  40.417   3.668
28269W        W96487  43.744  34.649   4.381
28270W        W96488  16.555  22.067  11.392
28271W        W96489   6.147  28.188   2.184
28272W        W96490  40.460  35.535   1.751
28273W        W96491  38.090  18.501  11.453
28274W        W96492  40.806  36.837   1.354
28275W        W96493  41.401   7.465   1.823
28276W        W96494  10.050   8.717  11.156
28277W        W96495  29.549  31.422  12.382
28278W        W96496  14.348  20.584   4.619
28279W        W96497  23.215  31.552  14.762
28280W        W96498   7.799  21.764  12.147
28281W        W96499  38.349  43.451  11.912
28282W        W96500  28.805  39.893   3.637
28283W        W96501  18.591  37.374   4.060
28284W        W96502  21.129   3.372   4.982
28285W        W96503  10.726  22.694   1.820
28286W        W96504  44.645   7.271  10.847
28287W        W96505  43.587   4.636  11.121
28288W        W96506  34.930  17.055  10.730
28289W        W96507  27.398  27.340   0.812
28290W        W96508  19.695  24.524   2.500
28291W        W96509  12.474   3.435  12.553
28292W        W96510  32.640  10.631   4.266
28293W        W96511  40.401  41.714   2.342
28294W        W96512   9.903  22.768   4.985
28295W        W96513  36.573  15.991   0.928
28296W        W96514   7.097   5.849   4.185
28297W        W96515  21.687  14.654  13.231
28298W        W96516  23.965  30.833  11.195
28299W        W96517  31.669  30.590  10.245
28300W        W96518  25.175  16.211   2.472
28301W        W96519  40.557  33.890   4.628
28302W        W96520  44.433   7.675  11.926
28303W        W96521  22.276  44.974   1.432
28304W        W96522  26.935  29.335   1.928
28305W        W96523  31.528   7.753   4.834
28306W        W96524  42.821  12.144   3.685
28307W        W96525   5.304  26.037  12.632
28308W        W96526  19.498  17.056  13.850
28309W        W96527   4.744   5.358  12.838
28310W        W96528  44.650  36.417   2.193
28311W        W96529  39.380   9.700  12.492
28312W        W96530  24.428  32.933   0.962
28313W        W96531  25.031  20.088   3.126
28314W        W96532  33.718  15.148   0.452
28315W        W96533  23.454  38.049  11.037
28316W        W96534  11.864  32.487   3.244
28317W        W96535   8.333  35.403  12.952
28318W        W96536  34.797  11.988   3.168
28319W        W96537  33.991  14.207   0.897
28320W        W96538   9.268  32.456   3.690
28321W        W96539  19.751  42.946  10.518
28322W        W96540  38.952  28.964  11.083
28323W        W96541  21.455   7.666  10.674
28324W        W96542  39.282  37.944  12.332
28325W        W96543  11.894  43.755  11.009
28326W        W96544  16.796   7.973   2.827
28327W        W96545  35.912   5.256   0.242
28328W        W96546  16.884  44.974  13.576
28329W        W96547  36.335  20.157   0.120
28330W        W96548  22.142   7.629   0.233
28331W        W96549  35.863  33.929   4.094
28332W        W96550  32.094   1.946   2.760
28333W        W96551  39.838   8.197   1.794
28334W        W96552  41.921  20.676  12.888
28335W        W96553   6.126   3.811  11.034
28336W        W96554   5.941  41.537  14.406
28337W        W96555  29.256   3.026   4.565
28338W        W96556   7.176  26.938  14.588
28339W        W96557  25.527  21.579   1.005
28340W        W96558  26.892  13.274  11.973
28341W        W96559  28.432  29.896   2.716
28342W        W96560  19.673  37.156   2.737
28343W        W96561  43.088  30.866  12.505
28344W        W96562   7.467   2.771  13.334
28345W        W96563  33.569  12.503   3.604
28346W        W96564  44.738  27.749  11.629
28347W        W96565   7.946  14.324   0.082
28348W        W96566  25.544  17.198  14.504
28349W        W96567  23.606  20.108   2.732
28350W        W96568   4.707  37.790   0.641
28351W        W96569   2.317  43.973   2.102
28352W        W96570  15.130  32.610   2.779
28353W        W96571  22.276  21.232  11.447
28354W        W96572  38.908  27.248   1.254
28355W        W96573  29.481  43.904   4.882
28356W        W96574  26.981  34.335   0.409
28357W        W96575  17.326   5.320   4.585
28358W        W96576  40.372   7.381  11.219
28359W        W96577  32.943  13.232   4.422
28360W        W96578  30.136  13.172   2.359
28361W        W96579  12.876  39.384   1.025
28362W        W96580  39.516  29.633   4.218
28363W        W96581  27.703   4.700  14.222
28364W        W96582  29.585  33.533  11.755
28365W        W96583  36.410  15.963  13.483
28366W        W96584   7.896  13.268   0.477
28367W        W96585  30.937  22.926  14.777
28368W        W96586  44.481  35.895   1.330
28369W        W96587   9.352  44.861   2.233
28370W        W96588  39.824  12.260   0.321
28371W        W96589  37.842  40.776  11.463
28372W        W96590   6.769  32.168  12.896
28373W        W96591  14.165  34.121  12.398
28374W        W96592  17.668   9.309  12.463
28375W        W96593  25.682  40.945   0.561
28376W        W96594   3.324  28.119  12.902
28377W        W96595  37.906   7.903   3.704
28378W        W96596  15.595   2.188  14.371
28379W        W96597  44.837  13.795  13.418
28380W        W96598  38.628  40.742   4.133
28381W        W96599  16.151  13.271   1.632
28382W        W96600  32.023   7.396  10.119
28383W        W96601  38.129   3.485  12.961
28384W        W96602  36.530   7.274  13.782
28385W        W96603  41.183  35.446  11.084
28386W        W96604  33.191  14.560   5.147
28387W        W96605   8.688  15.688   0.960
28388W        W96606   6.449   7.082  11.998
28389W        W96607  23.227  23.476   1.738
28390W        W96608   4.191  26.411  12.822
28391W        W96609  19.205  38.581   3.421
28392W        W96610   7.629  12.822  11.567
28393W        W96611  12.695   7.444   0.782
28394W        W96612  22.966   3.360  13.744
28395W        W96613  22.071  36.761  12.117
28396W        W96614   3.802  42.475   2.705
28397W        W96615  38.266  32.664  12.643
28398W        W96616   2.688   0.587   1.156
28399W        W96617  31.038  33.608   3.749
28400W        W96618   9.210  23.069  12.614
28401W        W96619  27.675  34.049  12.712
28402W        W96620  41.830  22.919   2.076
28403W        W96621  16.549   1.342   4.402
28404W        W96622   7.136   0.100   4.101
28405W        W96623  18.742  10.261   2.915
28406W        W96624  34.836  23.119  10.694
28407W        W96625  22.222  16.017  13.853
28408W        W96626  27.582  17.683   3.732
28409W        W96627  17.059  44.785   4.058
28410W        W96628   1.679  24.033   4.365
28411W        W96629  17.801  21.489  14.913
28412W        W96630  18.035  32.571  13.447
28413W        W96631  20.198  34.050  13.562
28414W        W96632  14.802  35.817  13.499
28415W        W96633  42.772   0.145   1.235
28416W        W96634  37.643  21.761   2.791
28417W        W96635  38.547  21.502  10.405
28418W        W96636  36.400  12.853  14.407
28419W        W96637  13.942   3.802  11.371
28420W        W96638  16.295  30.462  11.568
28421W        W96639  32.327  42.727  13.447
28422W        W96640  41.430  19.579  14.375
28423W        W96641   6.675  13.120  11.883
28424W        W96642  43.870  42.034  11.578
28425W        W96643  34.567  38.506  11.564
28426W        W96644   8.864  17.778  11.492
28427W        W96645  23.446   9.156   3.690
28428W        W96646  33.076   7.933   2.189
28429W        W96647  39.789   3.709   1.718
28430W        W96648  29.522   3.292  14.908
28431W        W96649  35.022  39.288   2.451
28432W        W96650  14.587   9.278   2.465
28433W        W96651  38.880  43.326   1.224
28434W        W96652  32.676  16.105  14.424
28435W        W96653  42.360  37.288   0.469
28436W        W96654   8.297  25.243  13.882
28437W        W96655   3.792  19.299  11.986
28438W        W96656  40.087  30.372  12.718
28439W        W96657  21.723  25.720  13.084
28440W        W96658  39.496   6.243  11.157
28441W        W96659  36.796  12.177   1.946
28442W        W96660  26.036  33.262   1.470
28443W        W96661  22.984  35.172   4.159
28444W        W96662  39.961  16.002   4.827
28445W        W96663   8.562  16.739  14.806
28446W        W96664  17.774  26.991  14.688
28447W        W96665  44.953  19.741  10.726
28448W        W96666  42.800  34.049   3.230
28449W        W96667  34.163  18.690  13.358
28450W        W96668  23.557  20.375   1.421
28451W        W96669  35.304   0.974  11.298
28452W        W96670  12.573  16.705  13.820
28453W        W96671  24.693  14.196   2.737
28454W        W96672  11.545   3.886   3.415
28455W        W96673  30.600  26.577  11.277
28456W        W96674   3.324  30.811  14.911
28457W        W96675  23.264   2.712  14.792
28458W        W96676  23.034  32.465  13.059
28459W        W96677  36.879  16.672   4.472
28460W        W96678  19.453  26.175   2.166
28461W        W96679   2.246  17.010   4.105
28462W        W96680  38.721  14.305   4.784
28463W        W96681  31.982  16.834  12.576
28464W        W96682  27.934   6.939   1.937
28465W        W96683  14.691   5.705  13.839
28466W        W96684  13.131  39.722  11.694
28467W        W96685   6.497   2.744   2.822
28468W        W96686  27.004  18.706   0.179
28469W        W96687   7.377  24.246   2.264
28470W        W96688  34.360  30.333   2.804
28471W        W96689  18.453  25.145   4.127
28472W        W96690  38.804  37.980   0.715
28473W        W96691  24.260   4.219   0.316
28474W        W96692   8.395  36.908  14.840
28475W        W96693  17.272  34.040  12.883
28476W        W96694  22.779  19.565   1.797
28477W        W96695  31.848   1.732  10.808
28478W        W96696   8.132  13.067  11.970
28479W        W96697  14.330  38.810  14.721
28480W        W96698   4.457  26.973  10.504
28481W        W96699  38.238  33.307   4.638
28482W        W96700  36.120  29.422   2.124
28483W        W96701  37.222  10.311  14.622
28484W        W96702  39.063   5.660  13.971
28485W        W96703  34.492  22.528  11.976
28486W        W96704  13.127  44.980  14.420
28487W        W96705  16.172  22.702   0.254
28488W        W96706   7.868  44.164   0.465
28489W        W96707   1.425  16.546   1.610
28490W        W96708  44.366  33.124  11.931
28491W        W96709  36.307  27.192  13.467
28492W        W96710  32.115  41.347   0.207
28493W        W96711  29.922   5.927  14.063
28494W        W96712  41.285  19.351   4.037
28495W        W96713  41.957  42.514   2.849
28496W        W96714  42.555  27.596  10.760
28497W        W96715   7.890   2.836  12.511
28498W        W96716  42.998  21.081  10.642
28499W        W96717  28.452  19.189   4.327
28500W        W96718  16.492   8.856  14.763
28501W        W96719  43.033  30.633  10.791
28502W        W96720  27.143   8.423  12.623
28503W        W96721   6.500  28.445   1.910
28504W        W96722  44.498   4.886  10.315
28505W        W96723  24.095  23.701   0.299
28506W        W96724   9.769   4.986   4.798
28507W        W96725   6.645  37.004   1.381
28508W        W96726  12.788   4.673   0.942
28509W        W96727  37.532  10.746  11.137
28510W        W96728  22.069  44.522   1.676
28511W        W96729   9.084  16.970   3.573
28512W        W96730  19.608   0.722   4.083
28513W        W96731   3.642  11.418   0.308
28514W        W96732   9.782  41.099  12.867
28515W        W96733  30.433  31.119   1.027
28516W        W96734  29.583  42.932   4.686
28517W        W96735  17.534   1.238   4.114
28518W        W96736  31.229  15.677  11.337
28519W        W96737  38.487  16.041   1.426
28520W        W96738  26.013   8.069   0.004
28521W        W96739  15.722  28.060  10.500
28522W        W96740  22.466   9.559  11.159
28523W        W96741  17.548  23.613  13.963
28524W        W96742  27.176  18.600   1.226
28525W        W96743  10.224  38.993   2.243
28526W        W96744  37.308  18.123  12.383
28527W        W96745  23.677  24.642  10.986
28528W        W96746  25.968  11.579   0.089
28529W        W96747  15.832  25.148   3.797
28530W        W96748  44.992  27.741  13.971
28531W        W96749  17.181  25.893  13.494
28532W        W96750  22.967   2.684   3.672
28533W        W96751   1.134  24.361  11.012
28534W        W96752  20.640   5.683  13.117
28535W        W96753  14.345   5.508   4.889
28536W        W96754   4.930  10.585  14.350
28537W        W96755   1.942   5.292   2.274
28538W        W96756  36.660  31.726  13.004
28539W        W96757   4.300  34.322   0.461
28540W        W96758  24.759  22.629   3.207
28541W        W96759   2.502  26.669  10.780
28542W        W96760  30.287   0.245  11.101
28543W        W96761   8.863  35.909  13.940
28544W        W96762  27.105  22.675  11.623
28545W        W96763  38.486  22.994   1.882
28546W        W96764  23.175  28.728   0.044
28547W        W96765  39.931  17.708   2.217
28548W        W96766  35.119  16.458   0.322
28549W        W96767  43.722   9.845  11.678
28550W        W96768  31.334  27.516   2.372
28551W        W96769  15.989  21.076   1.787
28552W        W96770   6.743  41.880  12.415
28553W        W96771  22.733  42.743  11.780
28554W        W96772   4.828  42.314   3.605
28555W        W96773  13.863  22.465   4.683
28556W        W96774  41.928  14.844   1.292
28557W        W96775  18.592  22.779   2.328
28558W        W96776  37.840  27.896  14.049
28559W        W96777  44.370  35.749  13.881
28560W        W96778  25.049  30.548   2.266
28561W        W96779   7.444  23.744   2.894
28562W        W96780  21.245  16.124   2.338
28563W        W96781  42.126  32.517  12.417
28564W        W96782   8.336  22.938  10.911
28565W        W96783  24.137   6.609  10.239
28566W        W96784   4.739  15.429   2.974
28567W        W96785  33.608  17.320  11.103
28568W        W96786  28.495  30.986   1.791
28569W        W96787  29.152  39.503  11.692
28570W        W96788  13.659   2.712  12.889
28571W        W96789  34.619   0.040  11.042
28572W        W96790  14.344  40.310   5.111
28573W        W96791  21.110  25.697   2.689
28574W        W96792  30.709  14.036   3.668
28575W        W96793  37.944  34.798  10.643
28576W        W96794  15.817  38.387  12.177
28577W        W96795  17.349  23.965  12.383
28578W        W96796  21.402  12.578  11.955
28579W        W96797  38.507  39.842   2.762
28580W        W96798  41.844  40.956   3.586
28581W        W96799  38.650  21.252   1.145
28582W        W96800  39.578  35.970   1.747
28583W        W96801  38.403  12.335   0.917
28584W        W96802  10.165  31.595   2.180
28585W        W96803  14.978  35.463   3.381
28586W        W96804  25.736  21.278  11.672
28587W        W96805  30.189  35.071   0.373
28588W        W96806  15.652  23.217   3.729
28589W        W96807   2.802  44.297   0.332
28590W        W96808   4.936   4.685   2.215
28591W        W96809  27.818  37.945  13.076
28592W        W96810  15.674   8.640   3.136
28593W        W96811  10.338  12.844   3.020
28594W        W96812  29.716  17.789   4.978
28595W        W96813  39.129  18.220   4.684
28596W        W96814  19.845  22.180   0.760
28597W        W96815  34.372  43.623  12.365
28598W        W96816  11.723  41.800   2.211
28599W        W96817  41.102  19.019  12.997
28600W        W96818  33.502  36.323   3.645
28601W        W96819  28.924  11.749  12.924
28602W        W96820  41.578  27.482   4.638
28603W        W96821  33.072  41.928  10.475
28604W        W96822  30.770  17.977   0.299
28605W        W96823  16.608  43.202  14.773
28606W        W96824  17.875  31.140   0.960
28607W        W96825   9.863  34.522  12.633
28608W        W96826   3.651  43.926  13.686
28609W        W96827  13.617  42.935   4.122
28610W        W96828  14.860   9.893   1.212
28611W        W96829   0.944  11.461   2.592
28612W        W96830   4.235  38.037  11.619
28613W        W96831   4.589   4.306  13.359
28614W        W96832  18.218  22.894  14.281
28615W        W96833   0.329   4.166  11.688
28616W        W96834   6.941   3.418   3.302
28617W        W96835   5.699   8.118   0.355
28618W        W96836  30.993   0.554   2.171
28619W        W96837   9.703   6.554  14.128
28620W        W96838  12.886  12.762  12.036
28621W        W96839  38.348   3.457  12.463
28622W        W96840  43.296   4.944   0.469
28623W        W96841  11.821  13.938  12.004
28624W        W96842  32.208  28.046   3.677
28625W        W96843  12.736  42.439  13.738
28626W        W96844   9.375  38.560   1.782
28627W        W96845  39.049  30.461   2.620
28628W        W96846   9.903  25.760  12.067
28629W        W96847  20.551  26.105  11.269
28630W        W96848  21.111  30.200   2.234
28631W        W96849  13.564   1.926   0.265
28632W        W96850  34.488  20.053   0.848
28633W        W96851  13.584  15.628   2.231
28634W        W96852  35.323  35.614  11.587
28635W        W96853   3.071  29.693   4.212
28636W        W96854  24.016  40.840   1.258
28637W        W96855   5.251  14.088   0.427
28638W        W96856  35.990  14.226   4.070
28639W        W96857   9.930  28.977  10.693
28640W        W96858  20.601  11.659  13.385
28641W        W96859   5.865   3.228   0.765
28642W        W96860   9.546  37.518  13.980
28643W        W96861  10.904  27.813  10.461
28644W        W96862  12.729  37.418   2.378
28645W        W96863   5.733  40.449  10.688
28646W        W96864  13.039  40.414   0.868
28647W        W96865  32.486  10.454  12.885
28648W        W96866  44.539  23.057  10.447
28649W        W96867  28.598  38.865  11.578
28650W        W96868  21.615   6.653  14.804
28651W        W96869  41.485  23.949  12.595
28652W        W96870   4.460  32.001  12.955
28653W        W96871  32.914   5.667   0.962
28654W        W96872  37.076  44.937  12.881
28655W        W96873  26.426  42.945  12.093
28656W        W96874  32.489  39.627  13.770
28657W        W96875   8.063  10.342  10.283
28658W        W96876  37.106  35.157  11.049
28659W        W96877  37.585  11.094  13.920
28660W        W96878  13.106  44.200  14.872
28661W        W96879   2.229  28.709  14.209
28662W        W96880  36.982  38.091   4.170
28663W        W96881  23.017   8.400  12.929
28664W        W96882  39.651  33.279   2.762
28665W        W96883  32.034  24.224   2.562
28666W        W96884  15.266  10.575   2.621
28667W        W96885   7.277  34.991  13.524
28668W        W96886  28.671  33.904   0.109
28669W        W96887  29.996  38.556   3.706
28670W        W96888  35.594   4.964   1.191
28671W        W96889  16.770   1.279   0.926
28672W        W96890  11.175  26.331   0.353
28673W        W96891  28.080  33.788  12.549
28674W        W96892  34.584  20.685   3.671
28675W        W96893  13.323  20.730  14.635
28676W        W96894  16.438  29.440  11.590
28677W        W96895  29.667   0.867  12.003
28678W        W96896  22.678  13.067  12.467
28679W        W96897  35.228  42.366  11.236
28680W        W96898  29.807  30.186   4.081
28681W        W96899  17.666  38.633   0.218
28682W        W96900  27.405  43.615   4.854
28683W        W96901   8.674   2.221  11.864
28684W        W96902  13.770   0.277   2.826
28685W        W96903  22.531  11.141  10.186
28686W        W96904  12.714   0.859  11.247
28687W        W96905  36.918  24.070  13.343
28688W        W96906   3.037  24.516   0.443
28689W        W96907  26.743   1.648   3.797
28690W        W96908  17.695   7.037   3.180
28691W        W96909  44.174  22.143  14.958
28692W        W96910  17.082   3.575  14.703
28693W        W96911  39.703  13.164   2.358
28694W        W96912  17.154   4.772   1.927
28695W        W96913  11.671  41.022  12.941
28696W        W96914  29.148   4.270  14.856
28697W        W96915  11.123   3.658   2.177
28698W        W96916  18.253  39.929   1.596
28699W        W96917  35.995  18.664   0.532
28700W        W96918  30.990  18.220   4.735
28701W        W96919  26.048  42.565  15.000
28702W        W96920   9.694  39.920   2.682
28703W        W96921  14.563  43.303  13.503
28704W        W96922  15.261   3.883   3.858
28705W        W96923  36.493   6.639  14.957
28706W        W96924   1.074  20.009   1.783
28707W        W96925  37.598  39.620   2.301
28708W        W96926  23.045  24.292   1.847
28709W        W96927   1.858  34.572  12.945
28710W        W96928   1.880  22.188  13.282
28711W        W96929  37.903  42.525  10.738
28712W        W96930  44.054  13.225   4.601
28713W        W96931  29.069  34.049   1.930
28714W        W96932  19.542  13.359  12.189
28715W        W96933  17.217  24.787   0.286
28716W        W96934   7.479   4.510   2.381
28717W        W96935   3.244  20.009  14.999
28718W        W96936  44.775   0.875   3.972
28719W        W96937   3.949  30.788   0.426
28720W        W96938  17.474  13.127   4.671
28721W        W96939  13.297  42.990  10.514
28722W        W96940  26.927  27.552   0.743
28723W        W96941  27.528  12.274   3.231
28724W        W96942  11.875  16.135   1.768
28725W        W96943  24.410  19.186   2.247
28726W        W96944  43.490  21.755   1.343
28727W        W96945  25.135  17.988  10.427
28728W        W96946  38.825  42.495   4.195
28729W        W96947  16.366  13.370   3.570
28730W        W96948  37.119  40.968  12.086
28731W        W96949  37.558  41.330  12.490
28732W        W96950  39.104  12.692  11.106
28733W        W96951  25.272  41.627  12.892
28734W        W96952  14.036  39.655  13.361
28735W        W96953   3.904  44.525   0.757
28736W        W96954  20.797  19.652  12.725
28737W        W96955  44.392  27.552   3.775
28738W        W96956  44.772  30.140   0.541
28739W        W96957  16.071  26.548  12.392
28740W        W96958  35.063   1.926   0.712
28741W        W96959   4.440  37.516  10.483
28742W        W96960  18.828  20.571   1.732
28743W        W96961  20.527   1.910   0.442
28744W        W96962  14.822  42.348   0.868
28745W        W96963   2.416  39.167   4.663
28746W        W96964  16.555  39.400  11.499
28747W        W96965  37.769  19.540   5.169
28748W        W96966  10.013  40.468  11.396
28749W        W96967  25.659  37.192   2.375
28750W        W96968  43.569  29.458  12.546
28751W        W96969  22.221   7.129   0.383
28752W        W96970   4.256  38.417   2.345
28753W        W96971  39.464   9.421   2.766
28754W        W96972  34.529  32.243  12.342
28755W        W96973  19.718   4.221   1.297
28756W        W96974  13.109  15.402  12.407
28757W        W96975  42.082   0.534  12.185
28758W        W96976  39.916  20.159  14.313
28759W        W96977  22.061   4.187   3.427
28760W        W96978  25.085  12.642   2.495
28761W        W96979  27.044   0.941   2.874
28762W        W96980   1.296  15.387  10.671
28763W        W96981  14.407   8.247   3.974
28764W        W96982   3.790  37.905   4.867
28765W        W96983   4.875   9.153   4.617
28766W        W96984  40.494  39.840  13.465
28767W        W96985  32.350   8.623   2.350
28768W        W96986  41.585  31.976  12.833
28769W        W96987  40.833  27.052   1.236
28770W        W96988   4.210  37.593   4.836
28771W        W96989  19.197  15.619   1.751
28772W        W96990  26.639   5.974   0.862
28773W        W96991  14.355   6.161   4.239
28774W        W96992  34.079  42.336   4.812
28775W        W96993  30.029  27.914   3.672
28776W        W96994   7.726   3.798  12.410
28777W        W96995  24.408   4.904   4.888
28778W        W96996   8.016  29.720  12.070
28779W        W96997  16.899   3.685  12.924
28780W        W96998  31.036  29.126  12.817
28781W        W96999  35.782   5.584   4.830
28782W        W97000   7.857  27.590  14.020
28783W        W97001  24.184  27.624   4.861
28784W        W97002  41.998  20.011   4.844
28785W        W97003  42.581  29.497  14.708
28786W        W97004  34.351   3.707   3.248
28787W        W97005  16.309  37.116  11.229
28788W        W97006  27.403   5.629   3.663
28789W        W97007  33.851   9.582  12.963
28790W        W97008  41.453  30.154  11.847
28791W        W97009  26.808  21.041  10.290
28792W        W97010  21.117  13.250   3.620
28793W        W97011  15.214  24.036   1.885
28794W        W97012  34.404  17.063  12.619
28795W        W97013   6.199   3.796   4.410
28796W        W97014  21.624   0.177   0.838
28797W        W97015  20.787  37.771   5.058
28798W        W97016  10.811  32.528  10.732
28799W        W97017  28.501  14.069   3.764
28800W        W97018  33.827  17.741  12.386
28801W        W97019  43.061  31.641  12.044
28802W        W97020   4.753  32.381   2.787
28803W        W97021  22.977  16.195  11.834
28804W        W97022  31.328  24.939  12.005
28805W        W97023  40.726   0.358  12.526
28806W        W97024   0.963  14.142   1.814
28807W        W97025  24.210  12.739   3.147
28808W        W97026  40.724  22.255   4.114
28809W        W97027  27.917  22.724   2.184
28810W        W97028  17.434  43.945   2.261
28811W        W97029  31.614  40.960  12.326
28812W        W97030  35.444  28.218   1.793
28813W        W97031  40.859   7.338   4.174
28814W        W97032   6.805   7.114  12.441
28815W        W97033  43.756  35.438   1.329
28816W        W97034  20.989  11.325  14.124
28817W        W97035  41.469   2.993   2.282
28818W        W97036   6.407  28.110   3.204
28819W        W97037   6.411  14.651  10.970
28820W        W97038  25.979   5.239  13.371
28821W        W97039  23.112  35.386  13.367
28822W        W97040   2.460  21.136   0.347
28823W        W97041  30.998  21.945  11.644
28824W        W97042  17.140  40.994   2.579
28825W        W97043  44.248  27.189  13.585
28826W        W97044  43.927   2.181   4.268
28827W        W97045  20.181   8.809   2.772
28828W        W97046   7.742  15.681   3.186
28829W        W97047  11.964   5.081   1.466
28830W        W97048  34.780  24.454   1.770
28831W        W97049  28.708  24.921  10.682
28832W        W97050  33.894  39.992   3.968
28833W        W97051  11.437  12.664  11.085
28834W        W97052   1.710  25.446  12.077
28835W        W97053  39.585   5.734   5.502
28836W        W97054   0.557  39.078   3.282
28837W        W97055  38.130  23.968   4.414
28838W        W97056  31.379  20.522  14.041
28839W        W97057  40.588  16.177   4.366
28840W        W97058  42.703   6.202   3.249
28841W        W97059  42.366  18.003  14.550
28842W        W97060   0.444  22.465   3.584
28843W        W97061  17.251  37.466   5.163
28844W        W97062  22.675  41.016   0.208
28845W        W97063  14.326  36.590   0.741
28846W        W97064  23.923  38.944   3.290
28847W        W97065  30.434  11.243  12.484
28848W        W97066  29.779  26.944   3.866
28849W        W97067  19.218  33.743   4.114
28850W        W97068  16.689  18.870   1.191
28851W        W97069  35.606  29.574   3.356
28852W        W97070  31.901   6.302   1.192
28853W        W97071   8.150  40.528   5.021
28854W        W97072  42.962  16.848  13.438
28855W        W97073  22.703  25.027   1.476
28856W        W97074  14.445  42.122  11.601
28857W        W97075  11.781  27.954   0.853
28858W        W97076   4.470  40.634   4.789
28859W        W97077  35.651  11.588   1.237
28860W        W97078  24.069  36.854  13.580
28861W        W97079  38.327  39.367   4.108
28862W        W97080  21.357  29.995   1.344
28863W        W97081  44.791  23.735   0.046
28864W        W97082  31.848  24.726  12.865
28865W        W97083  19.114  39.067  14.385
28866W        W97084  42.430  13.891  10.715
28867W        W97085  29.330  12.568  12.428
28868W        W97086  35.612  34.984   3.165
28869W        W97087   6.878  15.505  13.991
28870W        W97088  37.767  44.743   2.392
28871W        W97089   2.320  42.905  10.602
28872W        W97090   7.263  23.541   3.372
28873W        W97091  36.384   2.760   1.322
28874W        W97092  39.786   5.829  11.338
28875W        W97093   5.269  14.557   1.218
28876W        W97094  30.608   2.862   4.914
28877W        W97095  39.024  28.870  10.187
28878W        W97096   9.178  40.367  11.193
28879W        W97097  15.255  26.216  14.890
28880W        W97098  13.917   8.716   0.233
28881W        W97099  27.465  36.445  13.238
28882W        W97100  13.117   1.824   3.596
28883W        W97101  44.457  11.508  11.311
28884W        W97102  27.167   7.947  12.473
28885W        W97103  35.606  25.374   3.286
28886W        W97104  22.305  23.527  13.373
28887W        W97105   1.723  27.955  12.148
28888W        W97106  19.537   4.816  14.224
28889W        W97107  30.050  35.920   3.190
28890W        W97108  13.673   8.344  10.702
28891W        W97109  33.987  10.234  14.287
28892W        W97110   1.901   1.848  11.234
28893W        W97111  29.153  29.552   4.650
28894W        W97112  30.816   8.614   2.417
28895W        W97113  41.595  38.462  13.029
28896W        W97114  38.767  30.102  11.043
28897W        W97115  15.087  20.179  11.618
28898W        W97116  15.596  29.999  12.470
28899W        W97117  17.132  34.830  14.461
28900W        W97118  29.198  36.086  12.942
28901W        W97119  33.721  23.781   4.156
28902W        W97120  23.044  11.662   0.008
28903W        W97121  31.413  40.745  13.066
28904W        W97122   2.271   6.729  13.429
28905W        W97123  12.798   3.587  14.295
28906W        W97124  25.191  33.066   3.094
28907W        W97125   0.765   0.258   3.170
28908W        W97126  25.224  16.176   0.049
28909W        W97127  39.924  37.995  14.379
28910W        W97128  44.354   6.742  12.659
28911W        W97129  30.889  25.798   0.368
28912W        W97130   1.509  40.856   4.121
28913W        W97131   2.511  27.588   0.855
28914W        W97132  28.747  19.134  13.978
28915W        W97133  39.783  15.002  11.926
28916W        W97134  12.820  20.207   0.513
28917W        W97135   9.877  41.732   4.927
28918W        W97136   1.434   3.422   0.387
28919W        W97137  36.964  43.619  10.812
28920W        W97138   3.826  25.522  11.205
28921W        W97139  18.202   4.726   1.758
28922W        W97140   9.784  11.164   1.183
28923W        W97141   1.297  17.153  13.691
28924W        W97142   2.985  36.959  12.449
28925W        W97143  18.481  34.326   4.235
28926W        W97144  31.350  43.944   3.919
28927W        W97145  27.698  19.502   2.783
28928W        W97146  22.225  14.629   3.314
28929W        W97147  34.017   9.380   4.156
28930W        W97148  42.271  42.379  12.909
28931W        W97149   1.893  35.958  13.444
28932W        W97150   6.368  17.058  14.267
28933W        W97151  20.792  27.756   2.316
28934W        W97152  26.093  36.829  14.216
28935W        W97153  20.475  21.231  10.490
28936W        W97154  21.056  28.033   3.167
28937W        W97155   0.170  35.260   0.924
28938W        W97156  29.999  34.156   2.668
28939W        W97157   5.471   1.214   3.276
28940W        W97158   2.078   4.983  13.166
28941W        W97159   0.213  44.320   4.308
28942W        W97160  10.720  22.272  13.777
28943W        W97161  33.714  30.032   0.015
28944W        W97162  20.501  32.931  12.629
28945W        W97163   0.245  28.846   0.866
28946W        W97164  13.419  26.092   4.601
28947W        W97165  38.838  42.276   0.513
28948W        W97166   8.287  26.841  11.974
28949W        W97167  26.582  40.961  13.943
28950W        W97168  10.851  43.275   3.151
28951W        W97169  35.565  37.778   0.426
28952W        W97170  11.555  17.201  12.847
28953W        W97171  31.916  25.151   0.505
28954W        W97172  10.897   4.864  11.485
28955W        W97173  18.576   6.779   2.380
28956W        W97174   8.474  20.024  13.213
28957W        W97175  23.440   8.633   2.801
28958W        W97176  34.169  11.282  14.075
28959W        W97177  26.588  34.824  14.010
28960W        W97178  42.943   0.853   3.157
28961W        W97179   1.443   4.967  12.175
28962W        W97180  43.023   4.983   2.727
28963W        W97181   0.944  31.201  11.050
28964W        W97182  16.329  19.286  13.300
28965W        W97183  35.780  32.591  10.942
28966W        W97184  13.380  35.008   0.426
28967W        W97185   5.658   0.994   4.082
28968W        W97186  11.125  19.641  13.443
28969W        W97187   4.017  29.968   3.186
28970W        W97188   7.089  31.165   3.097
28971W        W97189   2.883  24.462  12.165
28972W        W97190  39.509  43.602  13.545
28973W        W97191  25.835   1.467  12.856
28974W        W97192  12.829  19.391   1.989
28975W        W97193  43.221  27.804  10.029
28976W        W97194  36.106   0.881  11.575
28977W        W97195   6.728  31.122   0.261
28978W        W97196  17.670  41.276  11.893
28979W        W97197   1.724  25.242   3.722
28980W        W97198   3.406  34.563   3.263
28981W        W97199  40.074  24.954  14.536
28982W        W97200  20.859  43.211   2.616
28983W        W97201   9.753  32.572  12.332
28984W        W97202   2.243  36.015  14.988
28985W        W97203  39.313  23.399   3.047
28986W        W97204   5.747  11.661   0.947
28987W        W97205   1.456   0.764  13.743
28988W        W97206  28.369   3.094   2.315
28989W        W97207  36.232  10.641   4.988
28990W        W97208   8.074  39.494  13.097
28991W        W97209  38.478  43.215   2.145
28992W        W97210   0.975  30.418   3.532
28993W        W97211  35.596  43.952   4.681
28994W        W97212   9.162  26.429  10.720
28995W        W97213  33.433  40.052  10.571
28996W        W97214  20.018  10.832  13.387
28997W        W97215  24.665  28.871   1.322
28998W        W97216  35.268   4.904  14.292
28999W        W97217  33.648  16.867  12.221
29000W        W97218  43.920   8.489  14.395
29001W        W97219  28.130  17.644   0.861
29002W        W97220  39.512  27.477  12.895
29003W        W97221   3.124  13.950  13.529
29004W        W97222   9.192   7.859  14.838
29005W        W97223  29.587  44.808   2.705
29006W        W97224  10.907  24.955  11.537
29007W        W97225  10.394  29.318  11.757
29008W        W97226  21.452   5.861   0.915
29009W        W97227   8.283   1.684   2.514
29010W        W97228  44.593  29.958   1.985
29011W        W97229  28.141  17.211  10.782
29012W        W97230   2.982  44.413  11.684
29013W        W97231  14.582   4.394   3.090
29014W        W97232  41.997  29.213  11.061
29015W        W97233  15.135  39.751   1.297
29016W        W97234  42.476  35.329  12.252
29017W        W97235  34.081  27.427   3.670
29018W        W97236  10.332   4.843  11.507
29019W        W97237   2.991  22.009  11.711
29020W        W97238  19.147  16.335  11.281
29021W        W97239   5.989  34.912   0.881
29022W        W97240  18.046   4.794  14.724
29023W        W97241   2.095   6.172   0.878
29024W        W97242  23.048  37.342  13.828
29025W        W97243  29.223  31.445   1.868
29026W        W97244  34.682  41.217   4.042
29027W        W97245  17.204  23.026   3.823
29028W        W97246  22.664  17.087  13.290
29029W        W97247  17.235  24.260   1.922
29030W        W97248  12.120  23.603   1.914
29031W        W97249   9.739  16.065  11.557
29032W        W97250   9.288   1.668  12.397
29033W        W97251  43.950  24.708   4.679
29034W        W97252  20.952  30.696   0.713
29035W        W97253  14.569  24.735  11.011
29036W        W97254  36.037   9.691   2.749
29037W        W97255   5.150  10.157   4.614
29038W        W97256  16.638   5.372   2.115
29039W        W97257  40.025   4.391   3.920
29040W        W97258   7.295  36.625   1.743
29041W        W97259   1.869   7.012  11.121
29042W        W97260  22.112   0.999  11.923
29043W        W97261  39.523  22.113   4.977
29044W        W97262  38.915  42.786   0.440
29045W        W97263  11.240  25.918  12.366
29046W        W97264  17.964   9.269   0.416
29047W        W97265  25.000  31.031   0.495
29048W        W97266  39.967   6.842   0.009
29049W        W97267  31.050   7.333  13.434
29050W        W97268  35.796  42.947   0.372
29051W        W97269  35.916  12.658  13.916
29052W        W97270  10.602  18.737  10.699
29053W        W97271  18.878  12.845   3.698
29054W        W97272  42.008   0.188   2.288
29055W        W97273  27.424  29.364   0.854
29056W        W97274  40.405   8.174   2.671
29057W        W97275  41.802  19.234   0.473
29058W        W97276  17.565   9.234  13.306
29059W        W97277  39.085   3.349   2.228
29060W        W97278  34.030   4.392  14.212
29061W        W97279  19.105  31.699  12.420
29062W        W97280  23.000  40.111  13.958
29063W        W97281  20.584  43.051   2.221
29064W        W97282  23.068  43.422   1.198
29065W        W97283  12.795  24.270   0.859
29066W        W97284  11.666  22.749  11.903
29067W        W97285  34.025  37.154   4.538
29068W        W97286  38.504  22.079   0.839
29069W        W97287  24.454   0.937  12.916
29070W        W97288   5.939  12.570   2.356
29071W        W97289  42.805  42.485   3.491
29072W        W97290  18.020  43.405  14.843
29073W        W97291  28.340  19.309   0.272
29074W        W97292  12.805  34.456  11.980
29075W        W97293  13.700  11.718   1.495
29076W        W97294  40.926   6.207  11.098
29077W        W97295  15.546  38.446   0.343
29078W        W97296  20.885  31.434   5.549
29079W        W97297  28.598  44.494  10.479
29080W        W97298  31.458  21.096  11.081
29081W        W97299  25.390  10.696   1.811
29082W        W97300  34.209   4.710   3.092
29083W        W97301   4.861  19.863   3.363
29084W        W97302  29.518  35.440  13.721
29085W        W97303  17.132  32.078   0.217
29086W        W97304  40.717  17.574  14.869
29087W        W97305  26.392  20.183   3.772
29088W        W97306  24.789   9.361  12.497
29089W        W97307  21.601   6.409  12.031
29090W        W97308  18.139  34.206   1.452
29091W        W97309   6.338  27.428  14.221
29092W        W97310  36.768  18.007  11.138
29093W        W97311   7.330  25.407   0.456
29094W        W97312  41.881  34.450  14.804
29095W        W97313  35.375  23.218  12.544
29096W        W97314  29.778  36.430  11.016
29097W        W97315  39.965  36.886   0.948
29098W        W97316   2.525  44.448  13.846
29099W        W97317  29.995  34.986  14.431
29100W        W97318  44.586   1.789   0.838
29101W        W97319  14.987  34.020   0.469
29102W        W97320  44.292   5.486  14.381
29103W        W97321  41.588  14.801  12.981
29104W        W97322   0.222   3.353   2.488
29105W        W97323  29.076   9.679   0.631
29106W        W97324  24.045  13.503   2.581
29107W        W97325   3.937   5.228   4.618
29108W        W97326   1.807  42.009   1.747
29109W        W97327  26.536   1.772   0.699
29110W        W97328  30.841  31.466  13.487
29111W        W97329  35.637   2.764  11.197
29112W        W97330  37.576  23.220   3.580
29113W        W97331   1.417   6.703   0.759
29114W        W97332  17.209   9.206  11.385
29115W        W97333  21.133  38.563   4.080
29116W        W97334  10.714  44.434   3.140
29117W        W97335  33.332   6.440   3.778
29118W        W97336  24.712  36.577  13.892
29119W        W97337  30.906  28.250   4.966
29120W        W97338  40.958  35.393  14.817
29121W        W97339  26.865  40.278   4.954
29122W        W97340   4.933  16.611   4.585
29123W        W97341  28.002   6.727   4.151
29124W        W97342  37.422  25.269   0.490
29125W        W97343   4.823  21.208  12.447
29126W        W97344  22.655  30.556   1.320
29127W        W97345  25.503   9.373   2.566
29128W        W97346   5.259  22.209   0.721
29129W        W97347  23.401   6.981  10.678
29130W        W97348  20.826  18.619   0.519
29131W        W97349  21.505  27.489   4.038
29132W        W97350   8.830  33.945   3.256
29133W        W97351  19.508   0.534  11.531
29134W        W97352  43.311  28.480  14.494
29135W        W97353   8.597  26.999  12.355
29136W        W97354  23.402   1.866  13.866
29137W        W97355  34.464  39.527  11.819
29138W        W97356  24.162  27.641   2.420
29139W        W97357  12.183  15.650  14.645
29140W        W97358  36.608   4.186  14.322
29141W        W97359  21.658  13.808  13.361
29142W        W97360  44.097   7.255  12.987
29143W        W97361  23.330  43.413   3.731
29144W        W97362   4.693  31.930   4.925
29145W        W97363  42.748  18.900   4.714
29146W        W97364  10.427  14.626   0.485
29147W        W97365  17.419  30.325  10.248
29148W        W97366  38.893  42.615  12.947
29149W        W97367  15.840  42.308  11.908
29150W        W97368  33.858  41.845   0.097
29151W        W97369  12.266   3.017  11.957
29152W        W97370   7.416  43.202   3.439
29153W        W97371  31.457  34.466   2.490
29154W        W97372  15.249  33.904   2.169
29155W        W97373  22.278  13.675  14.136
29156W        W97374   9.748  28.650  12.184
29157W        W97375  18.118   5.239   0.114
29158W        W97376  36.827  13.059   0.103
29159W        W97377  28.653  42.224   4.117
29160W        W97378  23.798  43.507   0.764
29161W        W97379  18.289  28.564   1.729
29162W        W97380  40.001  42.799   3.902
29163W        W97381  37.824   6.817  11.119
29164W        W97382  39.847  17.237  14.419
29165W        W97383  12.754  12.071  11.463
29166W        W97384  23.846  23.924  13.755
29167W        W97385  12.622  25.072  10.970
29168W        W97386  43.963  23.960  14.277
29169W        W97387   1.698  18.031   0.683
29170W        W97388  34.857  12.880   0.372
29171W        W97389  36.054  38.316  14.675
29172W        W97390  14.411  18.807  12.180
29173W        W97391   5.133  13.514  13.450
29174W        W97392  11.413   7.441  13.874
29175W        W97393   5.225  43.999  12.868
29176W        W97394  24.577  44.722   1.577
29177W        W97395   1.901  30.039  13.992
29178W        W97396   2.521  39.936   4.844
29179W        W97397  33.641  26.395   2.146
29180W        W97398  31.853  12.414  14.843
29181W        W97399  20.355  31.530  12.945
29182W        W97400  40.015  33.838   4.045
29183W        W97401   0.997  35.115  13.882
29184W        W97402   7.673  29.429  11.573
29185W        W97403   8.420  27.141  10.689
29186W        W97404  30.702  17.445   0.305
29187W        W97405  11.924   9.455   0.676
29188W        W97406  39.921   5.254   0.117
29189W        W97407   5.203  22.583   4.493
29190W        W97408   8.332  23.987   0.290
29191W        W97409  31.610  39.353  11.935
29192W        W97410  17.285  26.575  10.591
29193W        W97411  34.068  25.120  12.680
29194W        W97412  29.609  15.426  11.904
29195W        W97413  26.500   4.122   1.816
29196W        W97414  23.687  11.825   4.473
29197W        W97415  13.827   3.289   2.512
29198W        W97416  44.965  42.326  14.375
29199W        W97417  40.353  38.623  11.936
29200W        W97418   1.213  42.298  14.363
29201W        W97419  23.175  31.960  13.027
29202W        W97420   4.239  14.002  12.118
29203W        W97421   3.492  43.538   1.992
29204W        W97422   4.374  18.195   4.102
29205W        W97423  34.463  23.783  13.394
29206W        W97424   3.776  33.895  10.483
29207W        W97425  39.676  38.633   1.534
29208W        W97426  42.259  14.876   2.753
29209W        W97427  18.375  31.709   1.747
29210W        W97428  31.102   1.712  14.508
29211W        W97429  12.698  43.616  11.664
29212W        W97430   1.595   0.029   1.910
29213W        W97431  23.245  43.842   3.993
29214W        W97432   2.717  15.100  10.656
29215W        W97433   5.635   1.330  12.052
29216W        W97434  33.700  26.170  13.004
29217W        W97435  23.639  44.472   0.852
29218W        W97436   3.676   0.784   2.908
29219W        W97437  18.786  14.988  11.211
29220W        W97438  21.195  16.625  12.409
29221W        W97439  37.620  25.672   2.350
29222W        W97440  33.326  25.871   9.790
29223W        W97441   3.903  25.790  12.088
29224W        W97442  34.865  30.976  10.618
29225W        W97443  16.190  26.758   2.891
29226W        W97444   2.524  14.317  13.103
29227W        W97445  24.657  31.357   4.108
29228W        W97446  11.664   8.293   0.648
29229W        W97447   1.215   8.470  13.866
29230W        W97448  27.964  22.472   4.017
29231W        W97449  27.666  11.485  12.038
29232W        W97450   3.884  21.110  11.459
29233W        W97451  30.421  18.784   0.663
29234W        W97452  15.704  23.750  11.270
29235W        W97453  21.342  16.540  11.389
29236W        W97454   0.991  42.044   3.926
29237W        W97455  33.860  37.030   1.871
29238W        W97456  12.552  40.905  13.153
29239W        W97457  20.867  35.117  10.835
29240W        W97458   4.313  10.755   0.090
29241W        W97459  28.487  29.001   2.941
29242W        W97460  16.819  30.997   3.152
29243W        W97461  33.970  43.183  13.552
29244W        W97462  34.575  36.356  14.919
29245W        W97463  21.675  36.106   3.174
29246W        W97464  25.102  31.023   3.058
29247W        W97465   4.980   7.805   2.760
29248W        W97466  32.946  38.138  11.396
29249W        W97467   7.410  25.603  14.039
29250W        W97468  31.375  32.923   4.114
29251W        W97469  33.696  15.297  13.201
29252W        W97470  17.141   1.477   2.048
29253W        W97471  39.376  39.773   2.789
29254W        W97472  16.660  44.372  11.854
29255W        W97473  13.311  14.926  14.873
29256W        W97474   6.229  19.092  10.692
29257W        W97475  15.275   6.069   2.441
29258W        W97476  10.365   0.610  14.900
29259W        W97477   4.416   0.743  13.073
29260W        W97478  17.683  34.348  11.430
29261W        W97479   0.005   7.517  14.821
29262W        W97480  31.081  35.474  11.521
29263W        W97481  44.258  37.288  13.925
29264W        W97482   2.467  18.836  14.364
29265W        W97483  33.125  24.140   9.829
29266W        W97484  35.246   7.409  13.030
29267W        W97485   1.543  35.923   0.263
29268W        W97486  31.997  23.473  11.958
29269W        W97487   9.754  19.535   1.385
29270W        W97488   1.303  39.855   3.253
29271W        W97489  21.670  39.416  12.299
29272W        W97490   1.724   7.037   2.318
29273W        W97491  21.159   9.577   4.918
29274W        W97492  43.457   1.354  13.509
29275W        W97493  39.790  14.452  12.910
29276W        W97494  30.182   7.684   2.180
29277W        W97495  15.799  39.075  11.189
29278W        W97496  11.875  12.820   0.888
29279W        W97497  37.404  24.042  11.249
29280W        W97498  41.284  28.007  11.136
29281W        W97499  23.682  36.800   3.533
29282W        W97500   3.318  24.472   3.906
29283W        W97501  21.799  42.314  14.515
29284W        W97502  17.055  27.050   1.881
29285W        W97503  42.337  17.853  11.092
29286W        W97504  44.368  27.107  10.668
29287W        W97505  27.985  20.685  14.702
29288W        W97506  37.766  18.279   4.081
29289W        W97507  22.469   9.272  13.995
29290W        W97508  33.643  38.369  11.303
29291W        W97509  28.631  32.488  12.490
29292W        W97510   1.339  38.351   2.689
29293W        W97511  22.469  13.071  10.309
29294W        W97512   1.754  32.049   3.010
29295W        W97513   9.438  18.527  12.026
29296W        W97514  41.439  26.619  10.917
29297W        W97515  37.672  37.511   4.061
29298W        W97516   0.244  19.199  13.850
29299W        W97517  27.553  25.771   2.334
29300W        W97518  44.469   8.815   0.644
29301W        W97519   6.210  30.384   2.962
29302W        W97520   9.731  30.067  12.324
29303W        W97521  18.334  26.602   1.899
29304W        W97522  36.246  42.236  13.027
29305W        W97523  16.929   4.253  14.682
29306W        W97524  43.885  28.892   2.240
29307W        W97525  42.980  39.440  13.091
29308W        W97526   7.866  10.422   3.777
29309W        W97527   5.710  18.587   0.733
29310W        W97528  29.204  16.699  10.429
29311W        W97529   5.299  42.379  11.991
29312W        W97530  30.221  37.711   1.277
29313W        W97531  40.648  39.804   2.631
29314W        W97532   6.364  20.980   2.711
29315W        W97533  23.797  32.651   3.261
29316W        W97534   0.182  43.217  11.521
29317W        W97535  30.695  44.557  13.197
29318W        W97536  39.435  25.128   1.312
29319W        W97537   9.357  33.313  10.414
29320W        W97538  33.365  34.873   1.831
29321W        W97539  14.697  25.005  14.101
29322W        W97540  27.989  16.086   0.788
29323W        W97541  26.618  18.284   3.377
29324W        W97542  26.616  22.164   2.281
29325W        W97543  19.544  24.113  12.147
29326W        W97544  15.232  16.105  11.510
29327W        W97545   1.249   3.122   2.250
29328W        W97546  34.354   1.271  12.785
29329W        W97547   7.018   8.242  13.122
29330W        W97548   4.375   3.232   1.873
29331W        W97549  28.926  31.886   4.075
29332W        W97550  32.288  25.242   0.164
29333W        W97551  34.337  42.799   0.394
29334W        W97552  34.716  34.372  13.941
29335W        W97553  34.859   1.929   2.737
29336W        W97554  18.850  16.348  13.955
29337W        W97555   5.886  33.068  12.084
29338W        W97556   0.437  42.028   2.122
29339W        W97557   5.860   1.313   3.622
29340W        W97558  16.189  31.139   4.791
29341W        W97559  41.589  19.126   1.778
29342W        W97560  35.054  32.097  14.830
29343W        W97561  26.011  26.113   2.415
29344W        W97562  13.341  32.954  14.587
29345W        W97563  38.027  12.130  12.552
29346W        W97564  14.492  17.701   0.283
29347W        W97565  38.884  15.772  14.377
29348W        W97566   1.524  17.553   0.871
29349W        W97567  32.716  42.727   2.853
29350W        W97568  39.600  23.791   2.188
29351W        W97569  26.736  23.229   1.354
29352W        W97570  23.105   7.152  11.070
29353W        W97571  16.479  30.198  11.977
29354W        W97572   1.303  31.130   0.851
29355W        W97573  28.861  25.447  14.329
29356W        W97574  22.822   6.509  14.415
29357W        W97575   8.297  19.157   3.316
29358W        W97576  35.567  36.118  14.324
29359W        W97577  40.995  43.205  13.352
29360W        W97578  26.095  43.340   4.804
29361W        W97579  43.467   2.338  12.425
29362W        W97580  35.167  29.936  11.489
29363W        W97581  28.149  29.233   3.238
29364W        W97582  10.652  10.727   4.664
29365W        W97583   3.189  15.593  11.153
29366W        W97584  24.224  15.892   3.177
29367W        W97585   8.287  43.406   3.389
29368W        W97586  28.070   4.735   0.795
29369W        W97587   9.899  41.901   2.142
29370W        W97588   9.441  43.173  11.591
29371W        W97589   9.151   6.834   3.142
29372W        W97590  14.836   3.777   1.144
29373W        W97591   3.657  44.007  12.969
29374W        W97592   3.852   3.961  14.698
29375W        W97593  24.581  43.009   2.886
29376W        W97594  30.637  11.061  12.016
29377W        W97595   2.363  28.476   3.224
29378W        W97596  33.265  28.497   1.037
29379W        W97597  14.225  24.973  12.868
29380W        W97598  24.368   4.892   3.891
29381W        W97599  41.901  10.143  13.880
29382W        W97600   8.170  43.693   4.896
29383W        W97601   0.398   2.484   1.865
29384W        W97602  15.652  13.651  14.016
29385W        W97603  35.048  28.705   0.899
29386W        W97604  34.897   7.892  11.923
29387W        W97605  30.996  21.464   2.753
29388W        W97606  38.538  35.012  12.763
29389W        W97607  23.940  34.556   0.897
29390W        W97608  37.491  18.854  13.141
29391W        W97609  15.681  30.556   2.708
29392W        W97610  12.649   6.184  10.663
29393W        W97611  40.310  33.950   1.683
29394W        W97612  40.582  14.610  13.833
29395W        W97613  28.084   9.538   4.196
29396W        W97614  17.153   7.721  11.672
29397W        W97615  38.956  24.603  10.823
29398W        W97616  30.915  25.477  14.403
29399W        W97617  14.259  36.275   2.217
29400W        W97618  19.213  30.208   2.214
29401W        W97619   8.447  16.554  13.479
29402W        W97620  37.438   1.966  13.549
29403W        W97621  27.548  38.068   4.524
29404W        W97622  39.508  31.038   4.575
29405W        W97623  17.046  15.813  12.818
29406W        W97624  38.531   3.496   2.320
29407W        W97625   4.197  28.548  13.291
29408W        W97626   6.754  29.679  11.674
29409W        W97627  34.210  20.204   2.178
29410W        W97628  22.965  39.543   1.333
29411W        W97629   4.451  23.943  11.963
29412W        W97630  22.182  16.319   2.336
29413W        W97631  20.626  30.097  14.562
29414W        W97632  21.978  12.775  13.299
29415W        W97633  10.826  24.223   1.678
29416W        W97634   8.950  20.391  11.577
29417W        W97635  38.682   4.216  14.741
29418W        W97636  28.158  26.084  14.076
29419W        W97637  22.965   9.384  13.942
29420W        W97638  41.109  27.705  10.735
29421W        W97639  33.464   2.166   4.473
29422W        W97640  32.629  43.717   0.914
29423W        W97641  33.098  21.470  13.911
29424W        W97642  34.707  39.934  10.913
29425W        W97643  38.137  12.836   1.436
29426W        W97644   6.311  19.507  12.936
29427W        W97645  21.234  20.219  14.919
29428W        W97646  40.273  37.617  11.128
29429W        W97647  18.211  44.385  10.713
29430W        W97648   8.744  10.749   1.726
29431W        W97649   6.402  40.791  10.218
29432W        W97650  37.737  13.837   1.217
29433W        W97651  21.729  42.776  14.710
29434W        W97652  27.538  10.472  12.082
29435W        W97653  32.738  34.653   1.938
29436W        W97654  24.302  12.394  11.651
29437W        W97655  23.026  21.543  13.877
29438W        W97656  31.077  12.922   4.198
29439W        W97657   3.419  42.674   1.312
29440W        W97658  13.217  18.227   4.571
29441W        W97659  28.086  43.507  12.467
29442W        W97660  41.241  27.425   3.241
29443W        W97661  13.586   6.898   0.948
29444W        W97662  28.404  11.676  13.057
29445W        W97663  43.555  22.709   1.367
29446W        W97664   4.877  15.059   1.965
29447W        W97665  32.097  37.476  13.489
29448W        W97666  15.243  22.611  13.495
29449W        W97667   6.220  11.174   4.563
29450W        W97668  28.326  28.631  14.506
29451W        W97669   5.762  12.753  14.684
29452W        W97670   6.879  19.296  11.904
29453W        W97671  17.506  21.947  14.839
29454W        W97672  43.878   7.316  10.877
29455W        W97673  16.212  23.769   2.739
29456W        W97674  15.139  18.711  12.508
29457W        W97675  35.359   3.805   4.027
29458W        W97676  13.839  22.595  13.892
29459W        W97677  38.957  12.699   0.004
29460W        W97678   2.400  42.372   0.042
29461W        W97679  24.979   0.743  12.519
29462W        W97680  34.744   4.905  14.405
29463W        W97681  31.874   0.618  12.656
29464W        W97682  18.171  34.948   2.794
29465W        W97683  28.923  11.278   0.417
29466W        W97684  37.524  17.657  12.514
29467W        W97685  10.960  13.287   3.574
29468W        W97686  27.476  13.500  13.520
29469W        W97687  23.972   2.449   2.694
29470W        W97688  19.757   7.887   4.311
29471W        W97689  38.543  17.193   3.855
29472W        W97690  19.715  37.510   1.428
29473W        W97691   7.376  44.683   3.236
29474W        W97692   6.703   0.849  12.467
29475W        W97693  41.832  21.118  12.589
29476W        W97694   1.264  44.542   4.702
29477W        W97695   6.065  18.123  10.737
29478W        W97696  11.959  37.745   1.908
29479W        W97697   5.137  13.147   1.283
29480W        W97698  20.656  33.016   9.815
29481W        W97699  31.388  34.540  11.493
29482W        W97700  13.347  10.657   0.656
29483W        W97701  10.728  36.342  12.122
29484W        W97702   4.516  41.974  11.890
29485W        W97703  29.445  40.632   3.614
29486W        W97704  23.717   2.348   3.283
29487W        W97705  14.722  30.798  13.478
29488W        W97706   7.490   0.927   4.703
29489W        W97707  36.259  23.168  14.417
29490W        W97708  34.834  37.500   3.625
29491W        W97709  13.576   5.452  12.466
29492W        W97710  21.035  44.983  13.237
29493W        W97711  18.717  13.487  14.385
29494W        W97712  29.851  31.957   0.450
29495W        W97713  13.554  36.002   1.968
29496W        W97714   7.218  25.408  12.995
29497W        W97715   8.912  18.588  13.350
29498W        W97716  30.365  21.561  14.532
29499W        W97717   7.562   7.201   1.262
29500W        W97718   3.799  26.422  14.435
29501W        W97719  18.351  21.144   0.481
29502W        W97720  11.448   9.737   1.908
29503W        W97721  42.556  36.909  11.712
29504W        W97722  32.239  24.650   1.220
29505W        W97723   0.391   2.793   3.689
29506W        W97724  28.825   2.435  13.318
29507W        W97725  41.963  37.197   4.654
29508W        W97726   1.189  17.709   4.822
29509W        W97727  12.556   0.440  10.746
29510W        W97728  31.501   6.340   4.541
29511W        W97729  15.036  39.156   1.637
29512W        W97730   3.895  43.488  14.296
29513W        W97731  39.105  44.284   2.781
29514W        W97732  20.041   1.347  12.304
29515W        W97733  28.065  13.824  13.276
29516W        W97734   7.776  34.271   0.406
29517W        W97735  15.256  25.120   0.346
29518W        W97736   4.444  43.391   0.989
29519W        W97737  25.071  12.366   0.791
29520W        W97738  15.690  30.981   4.160
29521W        W97739   6.653  19.773   3.677
29522W        W97740  27.949   9.599   3.298
29523W        W97741  14.421  37.012   3.301
29524W        W97742   5.823  35.502  14.506
29525W        W97743  17.614  43.841   4.600
29526W        W97744   0.731  22.925  14.031
29527W        W97745   8.758  17.989   4.593
29528W        W97746  23.536   9.456  12.008
29529W        W97747  44.707   3.255   4.149
29530W        W97748   6.653  39.608  12.659
29531W        W97749  27.719  39.794   1.406
29532W        W97750  10.281  22.685   4.125
29533W        W97751  25.729   1.225   1.397
29534W        W97752  37.086  38.709   0.379
29535W        W97753  21.249   2.123   2.677
29536W        W97754  32.621  21.256  12.416
29537W        W97755  21.129  43.808  13.445
29538W        W97756  10.354  38.335  12.315
29539W        W97757  33.555  43.383   1.078
29540W        W97758   8.218  24.533   2.023
29541W        W97759   1.757   7.802  12.428
29542W        W97760  35.634  40.414  13.475
29543W        W97761  31.740  31.000   4.321
29544W        W97762  12.247  24.438   0.440
29545W        W97763  32.170  24.469  10.706
29546W        W97764  20.565   7.707  10.408
29547W        W97765   4.883  28.844  12.501
29548W        W97766   8.983  38.874   1.656
29549W        W97767   3.820   5.446   1.295
29550W        W97768  32.833  40.977   4.565
29551W        W97769  24.279  31.716  11.828
29552W        W97770  17.933  15.116   1.768
29553W        W97771   5.220  44.611  13.782
29554W        W97772  44.114  31.818   1.159
29555W        W97773  31.345  15.187   4.110
29556W        W97774  15.364  39.297   1.259
29557W        W97775   5.123  36.439  10.810
29558W        W97776   1.557   8.857  14.435
29559W        W97777  19.035  17.269  11.554
29560W        W97778  41.565  44.878  11.295
29561W        W97779   0.896  36.174   3.225
29562W        W97780  30.578   2.136  11.127
29563W        W97781  39.644  13.735   3.984
29564W        W97782   0.022  33.485  14.858
29565W        W97783  19.096  36.922  10.718
29566W        W97784  25.978  20.291   2.018
29567W        W97785  17.392   4.512  14.833
29568W        W97786   1.355  38.282  12.042
29569W        W97787  35.388   1.356   4.501
29570W        W97788  12.789   9.347  14.096
29571W        W97789  13.999   2.328  12.681
29572W        W97790  24.648  24.303   0.671
29573W        W97791   7.830  26.977   2.647
29574W        W97792  35.980  40.623   3.573
29575W        W97793  29.295  23.501   4.074
29576W        W97794  24.198  19.883   1.761
29577W        W97795  19.740   5.833   3.143
29578W        W97796  19.644  20.016   1.931
29579W        W97797  27.024  17.862  11.903
29580W        W97798   4.122  33.603   4.579
29581W        W97799  18.096   8.714  14.007
29582W        W97800   5.824  31.452   2.284
29583W        W97801  43.345  22.969  12.564
29584W        W97802  28.197   3.256   3.625
29585W        W97803  11.643  15.774  10.753
29586W        W97804  23.666   0.056  14.072
29587W        W97805   9.432   7.303   3.922
29588W        W97806  33.307   2.729  12.363
29589W        W97807  44.354  41.758  11.644
29590W        W97808  25.217  20.968  12.400
29591W        W97809  31.858  22.566  13.453
29592W        W97810   0.943  15.860  11.502
29593W        W97811  11.778  43.712  10.279
29594W        W97812   0.957   2.403  11.638
29595W        W97813  15.600  35.039   5.180
29596W        W97814  10.715  17.786   9.897
29597W        W97815  14.777  20.580  11.605
29598W        W97816  25.063  20.327  14.957
29599W        W97817  37.499  36.968  11.626
29600W        W97818  12.169  21.998   1.811
29601W        W97819  37.479   2.255   2.413
29602W        W97820  44.054   1.159  11.403
29603W        W97821  36.024  12.728  11.237
29604W        W97822  16.287  38.985  11.325
29605W        W97823  19.447  14.865  13.342
29606W        W97824   0.812  18.039   2.381
29607W        W97825  42.392  26.774   2.617
29608W        W97826   3.336   9.189   0.016
29609W        W97827  44.908  31.669   2.799
29610W        W97828  42.775  42.210   2.396
29611W        W97829   3.955  29.437  14.460
29612W        W97830   7.769   6.636   4.169
29613W        W97831  33.894  40.530   4.093
29614W        W97832  36.358  36.523  11.889
29615W        W97833   8.621  17.566   2.004
29616W        W97834   7.563  34.132  11.823
29617W        W97835  28.121  38.844  10.974
29618W        W97836  29.182  11.743  12.052
29619W        W97837   3.303  25.029   4.819
29620W        W97838  35.326  35.165  14.389
29621W        W97839   1.444  32.877   1.765
29622W        W97840  32.889  36.815   0.056
29623W        W97841  18.202  13.639  13.400
29624W        W97842   9.228   9.844   2.628
29625W        W97843  31.010   6.373   1.862
29626W        W97844   2.410   7.196  11.216
29627W        W97845  31.558   1.254   0.775
29628W        W97846  40.562  11.227  13.269
29629W        W97847  11.283  10.084   4.075
29630W        W97848  38.297  33.982   2.162
29631W        W97849  42.936  34.840  13.361
29632W        W97850  32.958  30.192  12.120
29633W        W97851  43.925  23.745  11.245
29634W        W97852  27.579   1.723   1.873
29635W        W97853   5.613  28.900   0.528
29636W        W97854  23.808   0.610   3.326
29637W        W97855   1.149  13.830  11.083
29638W        W97856   3.946  11.883   0.318
29639W        W97857   8.728  24.527   4.668
29640W        W97858  30.677  36.771   0.633
29641W        W97859   1.796  39.887   1.790
29642W        W97860  42.706  14.633  11.044
29643W        W97861  44.734   8.383   4.403
29644W        W97862  40.910   2.718   0.420
29645W        W97863  28.753  24.085  11.144
29646W        W97864   8.240   3.151   0.969
29647W        W97865   7.694  39.424  13.446
29648W        W97866   7.777  39.555   3.679
29649W        W97867  44.841  38.050  13.829
29650W        W97868  29.217  29.977   3.345
29651W        W97869  14.680  22.017  10.591
29652W        W97870   6.304  30.584  12.642
29653W        W97871  18.626   2.650   4.091
29654W        W97872  33.902  37.955   2.804
29655W        W97873  33.218  26.631   4.758
29656W        W97874   6.302  28.466   3.653
29657W        W97875  19.443  15.540  11.574
29658W        W97876  11.872  17.943   1.854
29659W        W97877  29.154  37.775  12.643
29660W        W97878  44.327  17.279  12.163
29661W        W97879   6.670   5.746   0.326
29662W        W97880  32.881  39.990   0.191
29663W        W97881  10.313  40.327   2.021
29664W        W97882  40.148  31.986   3.306
29665W        W97883  28.217   0.968   1.879
29666W        W97884  44.005  33.620  13.137
29667W        W97885  18.315  15.532   0.827
29668W        W97886  38.465  14.358  11.687
29669W        W97887   5.325  36.011  12.802
29670W        W97888  19.778  17.604   1.937
29671W        W97889  26.249  18.253  13.983
29672W        W97890  13.082   0.812   4.438
29673W        W97891   6.095   0.775  10.165
29674W        W97892  25.998  14.142   3.973
29675W        W97893  40.369  24.579  13.325
29676W        W97894   5.338  28.703  11.178
29677W        W97895  15.314  44.503  14.243
29678W        W97896  38.501  44.890  12.827
29679W        W97897  16.661   0.878   2.706
29680W        W97898  17.181   2.323  12.849
29681W        W97899  27.851  34.436  13.221
29682W        W97900  36.470  40.345  14.293
29683W        W97901  39.325  42.473  12.725
29684W        W97902  41.224  19.162  13.466
29685W        W97903  28.099  15.658  13.443
29686W        W97904  19.048  12.566  12.586
29687W        W97905   1.877  24.931  10.791
29688W        W97906  22.120  22.222  13.646
29689W        W97907   7.449   8.786  11.949
29690W        W97908  22.646  32.499  12.165
29691W        W97909  18.219  10.869   1.668
29692W        W97910  42.351   0.847   1.332
29693W        W97911  14.185  39.850   3.357
29694W        W97912  29.432  10.306   3.650
29695W        W97913   2.258  11.283  11.626
29696W        W97914  27.942   6.234  11.929
29697W        W97915  44.352  27.612  10.469
29698W        W97916  41.931  29.773  11.750
29699W        W97917  29.682  24.727   1.864
29700W        W97918  14.251   0.003   2.835
29701W        W97919   3.759  17.016  11.581
29702W        W97920  25.094  33.568   1.855
29703W        W97921  23.222  22.559   1.186
29704W        W97922  42.268  40.498  14.270
29705W        W97923   0.789  15.699  12.918
29706W        W97924  21.573   9.839  11.535
29707W        W97925  29.273   7.231   4.539
29708W        W97926  12.232  42.315   4.280
29709W        W97927  19.489  32.286   4.575
29710W        W97928  32.554  30.653  13.910
29711W        W97929  29.728  14.649   2.681
29712W        W97930  21.131  10.678   0.773
29713W        W97931   6.433   8.086  13.280
29714W        W97932   3.867  33.772   1.779
29715W        W97933   7.372   1.322  13.489
29716W        W97934   8.904   3.510  14.989
29717W        W97935  39.516  25.785   0.746
29718W        W97936  10.185  37.818  14.762
29719W        W97937  36.321  24.653  10.676
29720W        W97938  24.894   3.283   2.343
29721W        W97939  33.640  28.413  14.843
29722W        W97940   9.346   6.830  10.706
29723W        W97941  35.484   8.267   3.142
29724W        W97942  12.017   7.218  13.488
29725W        W97943   3.241  41.500  12.797
29726W        W97944   1.266   3.947   2.637
29727W        W97945  26.542  14.878   5.408
29728W        W97946   3.801  30.444   3.217
29729W        W97947   4.208  15.313   2.352
29730W        W97948  17.583  31.464   3.252
29731W        W97949   2.743  39.091  11.138
29732W        W97950  35.438  35.394   4.699
29733W        W97951   0.486  41.260   2.986
29734W        W97952  11.740   2.743  14.262
29735W        W97953  29.381  12.141   0.849
29736W        W97954   2.939  42.807   1.440
29737W        W97955  20.165   9.620  13.454
29738W        W97956  31.464  38.336   3.632
29739W        W97957  34.028   6.228  13.599
29740W        W97958  25.232  22.816  11.543
29741W        W97959  11.543  41.444   0.013
29742W        W97960  26.131  23.204   0.994
29743W        W97961  34.976  29.730   4.044
29744W        W97962   2.365  18.542   1.725
29745W        W97963  29.759  17.064  14.260
29746W        W97964  26.000  30.091  13.888
29747W        W97965  29.104  24.588   0.250
29748W        W97966   3.413   5.250  13.537
29749W        W97967  29.608   4.138   1.728
29750W        W97968   2.595   4.935  13.044
29751W        W97969  33.835  42.992   4.256
29752W        W97970  32.723   7.936  11.990
29753W        W97971  10.303  37.549  11.946
29754W        W97972  43.315  40.071   3.091
29755W        W97973  41.345  26.616   3.738
29756W        W97974  31.981   2.789  13.017
29757W        W97975   6.796  20.149  12.436
29758W        W97976  25.469  31.393   4.234
29759W        W97977  32.148  15.597  13.881
29760W        W97978  33.384  23.071  11.725
29761W        W97979  36.680  30.952   0.956
29762W        W97980  43.301  29.647   3.081
29763W        W97981  40.057  23.097   1.919
29764W        W97982   7.670  29.610  12.907
29765W        W97983   4.467  43.998  13.312
29766W        W97984  35.533  13.918   4.999
29767W        W97985   4.382  42.922   0.680
29768W        W97986  14.695   8.497   1.269
29769W        W97987  22.185  34.132  14.759
29770W        W97988  44.176  43.223  14.305
29771W        W97989  31.036  26.498  14.857
29772W        W97990  39.758  16.862   4.256
29773W        W97991  24.952  39.333  12.269
29774W        W97992  22.106  31.094   0.978
29775W        W97993  18.163  44.314  10.181
29776W        W97994  35.782  10.509  13.930
29777W        W97995   3.316  23.514   0.922
29778W        W97996  27.426  29.659  10.505
29779W        W97997  34.415   7.411  14.469
29780W        W97998  32.927  17.935  12.645
29781W        W97999  38.540  36.463  10.698
29782W        W98000  16.182   0.701  11.939
29783W        W98001  26.136   4.086  13.941
29784W        W98002  38.168  12.797   0.888
29785W        W98003  15.631  36.808  11.579
29786W        W98004  43.331   6.908  10.535
29787W        W98005  38.545  22.242   2.450
29788W        W98006  16.693  29.566   2.880
29789W        W98007   3.983  10.063  13.960
29790W        W98008  38.067   4.855   2.358
29791W        W98009  24.770  42.758   4.643
29792W        W98010  31.889  18.763  10.477
29793W        W98011  42.323   5.226  11.863
29794W        W98012  33.117  31.821  11.523
29795W        W98013  25.166  15.192  11.065
29796W        W98014  27.192  28.590  11.118
29797W        W98015  12.291  22.011   0.288
29798W        W98016  13.012  31.850  13.107
29799W        W98017   4.861  32.185  14.867
29800W        W98018  18.285  25.431  12.211
29801W        W98019  23.668  27.665  12.596
29802W        W98020  35.544  39.100  10.985
29803W        W98021  12.369  35.138  11.009
29804W        W98022   0.063  31.738  11.986
29805W        W98023  44.847  15.457  13.879
29806W        W98024  38.961  16.555   3.272
29807W        W98025  27.048  20.672  14.732
29808W        W98026   4.433   3.027  12.918
29809W        W98027  20.647  33.853   4.333
29810W        W98028  39.429  20.761   3.280
29811W        W98029  16.056  18.543  10.738
29812W        W98030  25.651   6.394   0.008
29813W        W98031  18.351  24.634   4.082
29814W        W98032  33.168  15.569   1.180
29815W        W98033  39.503  36.369   1.429
29816W        W98034  44.261   2.482   0.332
29817W        W98035  17.388  12.730   2.199
29818W        W98036  30.242  40.623   4.555
29819W        W98037  19.178  31.881  11.096
29820W        W98038  31.478  26.562  11.701
29821W        W98039  42.670  32.932  13.220
29822W        W98040   2.835  29.451   1.285
29823W        W98041  44.188  36.807   2.951
29824W        W98042   1.217  40.950  12.516
29825W        W98043  15.052  24.999   3.141
29826W        W98044  44.565  14.981   1.184
29827W        W98045  29.118  27.785  13.002
29828W        W98046   1.263   4.150   2.148
29829W        W98047  16.867  13.336   4.356
29830W        W98048  15.043   2.149   2.144
29831W        W98049  11.594  11.237  13.140
29832W        W98050  43.266  30.580   3.247
29833W        W98051   0.202  41.988  13.618
29834W        W98052  24.019  18.462   4.573
29835W        W98053  18.435   2.379  11.369
29836W        W98054  33.598   0.713  14.824
29837W        W98055  10.654  40.618  10.287
29838W        W98056   4.319  41.236  13.864
29839W        W98057   6.216  24.921   3.236
29840W        W98058  30.866   0.789  13.389
29841W        W98059  34.804  23.645  14.028
29842W        W98060  14.723  30.523   2.286
29843W        W98061  44.298   5.713   2.774
29844W        W98062  38.476  20.897   4.238
29845W        W98063  25.697  28.151  14.266
29846W        W98064  21.479  23.118   4.545
29847W        W98065  24.592  35.347  14.467
29848W        W98066  31.922  19.196  14.848
29849W        W98067  26.352  15.305  13.644
29850W        W98068   0.858   6.786  11.458
29851W        W98069  30.928  27.466  12.456
29852W        W98070   7.210  40.526   1.488
29853W        W98071  38.969  40.171  11.506
29854W        W98072  10.935  14.055   0.067
29855W        W98073   9.251  19.426   1.174
29856W        W98074  22.827   3.741  12.112
29857W        W98075  31.438  19.687  13.557
29858W        W98076  37.267  40.888  12.586
29859W        W98077   9.598  39.756  14.017
29860W        W98078  40.243   4.873   4.363
29861W        W98079   3.674  22.992  12.974
29862W        W98080   9.780  12.261   2.677
29863W        W98081  18.249  19.980  14.331
29864W        W98082  15.710  41.846  10.898
29865W        W98083  36.462  27.554  12.327
29866W        W98084  42.270  40.086  11.016
29867W        W98085  39.461  37.819   4.183
29868W        W98086  12.288  32.355   4.654
29869W        W98087  23.730  38.652  13.379
29870W        W98088   9.270  15.157  11.660
29871W        W98089  38.801  12.803  10.698
29872W        W98090   2.923   9.017  13.021
29873W        W98091  43.781   4.532  14.849
29874W        W98092  11.335  29.897   1.716
29875W        W98093  42.238  30.755   2.291
29876W        W98094  29.222  35.060   2.433
29877W        W98095  36.993  28.569   4.924
29878W        W98096  41.705   4.693  10.748
29879W        W98097  18.931   8.444   0.085
29880W        W98098  32.225  35.005   2.808
29881W        W98099  23.095  16.047   0.673
29882W        W98100  38.320  40.668  11.136
29883W        W98101  40.611  36.306   4.766
29884W        W98102   1.045  35.331   3.124
29885W        W98103  39.468  18.340  13.555
29886W        W98104   0.723  38.881   0.868
29887W        W98105  15.684  18.619   3.172
29888W        W98106  39.722   9.743   0.655
29889W        W98107  12.806  32.666   0.186
29890W        W98108  30.106  29.458   3.668
29891W        W98109  29.576  16.923  10.751
29892W        W98110  24.762  30.965  10.552
29893W        W98111   9.614  11.108  11.140
29894W        W98112   9.514   9.182  11.984
29895W        W98113   7.566   4.704  10.614
29896W        W98114  44.042  43.811   2.908
29897W        W98115  26.663  12.198  10.726
29898W        W98116  41.588  37.983   4.060
29899W        W98117   1.473  30.356   1.541
29900W        W98118  21.690  11.724   2.837
29901W        W98119  12.835   8.661   1.304
29902W        W98120  44.018  34.333  14.020
29903W        W98121   5.178  44.716   1.452
29904W        W98122  23.589  28.119   1.425
29905W        W98123  41.353  22.845   4.547
29906W        W98124  10.082  21.740  12.104
29907W        W98125   7.863  41.460   4.029
29908W        W98126  36.932  15.513  14.553
29909W        W98127  22.530   2.346  14.926
29910W        W98128  38.886   6.762  14.794
29911W        W98129  42.554  15.744   4.606
29912W        W98130  24.766   7.117  13.031
29913W        W98131  11.303  34.890   1.227
29914W        W98132  34.411  44.131  10.454
29915W        W98133  35.432  31.390  12.111
29916W        W98134  29.860   3.669   4.086
29917W        W98135  31.175  11.212   1.890
29918W        W98136  43.302  26.135  11.176
29919W        W98137  29.396   7.307  13.398
29920W        W98138  38.100  28.471  11.172
29921W        W98139  38.492   6.693  10.446
29922W        W98140  35.367  16.137  11.454
29923W        W98141   6.742  31.451   4.780
29924W        W98142  32.481  28.110  13.299
29925W        W98143  30.359  32.085   0.470
29926W        W98144  41.818  40.344  14.017
29927W        W98145  42.946  15.319   3.317
29928W        W98146   2.870  38.396   4.204
29929W        W98147  43.798  35.446   3.126
29930W        W98148  10.904  20.797   2.273
29931W        W98149  44.690  40.828  12.472
29932W        W98150  37.619  15.145  11.009
29933W        W98151  33.061  22.733  13.331
29934W        W98152  12.748  29.645   1.120
29935W        W98153  30.771  33.881  10.542
29936W        W98154  15.800   9.795   4.872
29937W        W98155   0.713  29.930   0.230
29938W        W98156   6.111  12.840  12.486
29939W        W98157  42.964  11.137  11.141
29940W        W98158  27.155   1.512   3.251
29941W        W98159  15.498  31.160   3.677
29942W        W98160   1.131  36.063   2.669
29943W        W98161  34.994   6.025   3.847
29944W        W98162  38.895   1.107   3.285
29945W        W98163   1.970   1.238  11.618
29946W        W98164   9.072  42.206   1.935
29947W        W98165  20.125  32.027  12.879
29948W        W98166  21.016   8.828  13.888
29949W        W98167  15.372   8.268  13.204
29950W        W98168  21.536  20.045  14.510
29951W        W98169  41.504  22.001   4.575
29952W        W98170   9.680  10.648   0.280
29953W        W98171   4.144   7.722  12.899
29954W        W98172   5.935  29.872  12.239
29955W        W98173   1.494  26.642  10.534
29956W        W98174  22.715  14.294  12.937
29957W        W98175  32.133   5.709   3.751
29958W        W98176  26.469  40.319   0.253
29959W        W98177  21.239  12.340   1.318
29960W        W98178  11.316  37.652   4.151
29961W        W98179  34.974  38.047   0.724
29962W        W98180  27.960  39.371   3.983
29963W        W98181   2.813  27.610  13.269
29964W        W98182   9.382   9.982   0.735
29965W        W98183   7.216  15.057  12.266
29966W        W98184  37.784  24.107  14.923
29967W        W98185  29.957  10.693   2.317
29968W        W98186  38.533  32.008  13.705
29969W        W98187  17.225   9.249  11.895
29970W        W98188  25.865  15.271  13.932
29971W        W98189   8.374  29.463   2.613
29972W        W98190   4.939   3.117  14.253
29973W        W98191   5.590  40.291  13.872
29974W        W98192  42.010  38.055  14.747
29975W        W98193  20.022   8.389  12.890
29976W        W98194   7.905  16.647   4.294
29977W        W98195  29.497  20.674   1.738
29978W        W98196   3.014  11.329  12.181
29979W        W98197  27.211  19.360   2.408
29980W        W98198  18.856  32.676  14.049
29981W        W98199  43.528  15.508  10.736
29982W        W98200   7.940  15.779   1.269
29983W        W98201  14.842   7.217  12.962
29984W        W98202  14.010  23.971   2.251
29985W        W98203   5.815   4.824   3.413
29986W        W98204  38.561  39.714  11.332
29987W        W98205   4.455  42.128   0.776
29988W        W98206  39.460  44.877  14.344
29989W        W98207  42.479   4.456  14.738
29990W        W98208  35.865   1.734   2.890
29991W        W98209  38.367  39.776   3.717
29992W        W98210  28.028  34.131  10.911
29993W        W98211  26.459  19.582  10.756
29994W        W98212  34.969  42.768   2.577
29995W        W98213  21.125  25.178   2.673
29996W        W98214  44.478  36.394   3.197
29997W        W98215  28.508  38.464   0.586
29998W        W98216  44.188  41.513   2.357
29999W        W98217  38.054   7.405   0.456
30000W        W98218  29.972   4.224   0.336
30001W        W98219  17.769  33.064  11.092
30002W        W98220  19.283  38.495   0.963
30003W        W98221   3.957  22.693   1.837
30004W        W98222  22.131  32.799   3.183
30005W        W98223  42.812  38.601   3.465
30006W        W98224  12.401  36.036  12.535
30007W        W98225  15.797   2.926  12.964
30008W        W98226  18.133   6.008  10.700
30009W        W98227  20.302   2.530   1.767
30010W        W98228   4.856  15.690   3.970
30011W        W98229  33.135  15.644  14.781
30012W        W98230  26.890  16.275   3.130
30013W        W98231  13.652   8.321   2.814
30014W        W98232  38.845  40.282   4.242
30015W        W98233  26.399  20.719  11.696
30016W        W98234  38.125  11.792  11.239
30017W        W98235  12.917  32.050   2.153
30018W        W98236  23.753  17.428  12.029
30019W        W98237  18.440   8.389   0.033
30020W        W98238  43.671  21.521   1.773
30021W        W98239   1.485  26.588   3.732
30022W        W98240  42.616   7.327  12.890
30023W        W98241  31.167  32.831   3.384
30024W        W98242   5.643  10.654  11.618
30025W        W98243  11.220   4.933   3.086
30026W        W98244  21.309  38.106   2.711
30027W        W98245  19.651  27.563  11.225
30028W        W98246   3.788   9.291  14.718
30029W        W98247  21.714  32.074   5.495
30030W        W98248  18.730   9.281   1.054
30031W        W98249  24.953  21.189   2.840
30032W        W98250  26.780  11.810   3.233
30033W        W98251  17.286  20.503   0.935
30034W        W98252  12.740  30.978  10.844
30035W        W98253  30.481   2.853   1.138
30036W        W98254  13.653   3.890   1.454
30037W        W98255  33.911  38.834   1.599
30038W        W98256   8.286  30.877   1.864
30039W        W98257  13.717   0.932   3.585
30040W        W98258  43.869  31.161  11.014
30041W        W98259  29.338   1.137   2.351
30042W        W98260  27.670  24.659   2.549
30043W        W98261   4.454   7.219  14.841
30044W        W98262  39.383   5.992   1.235
30045W        W98263  28.855  11.705  14.000
30046W        W98264  15.745   0.350   1.685
30047W        W98265  36.587  23.408  14.730
30048W        W98266  34.967  25.246   4.160
30049W        W98267  12.239  31.187   1.425
30050W        W98268  39.919  41.781  14.399
30051W        W98269  15.125  31.501  11.030
30052W        W98270   9.283   2.259   0.940
30053W        W98271  35.604  17.072   3.211
30054W        W98272  22.298  14.802  11.797
30055W        W98273  21.478  37.069   4.079
30056W        W98274  12.076   1.512   2.912
30057W        W98275  39.860   6.839   3.385
30058W        W98276   3.895  44.352  13.849
30059W        W98277  13.668  17.496  11.927
30060W        W98278  40.870  15.880  11.537
30061W        W98279   4.445  12.307  11.350
30062W        W98280   3.930  32.446  13.416
30063W        W98281  44.817  35.902   2.154
30064W        W98282  17.590  41.858  12.461
30065W        W98283   8.795  32.093   2.235
30066W        W98284  34.715  12.267  14.165
30067W        W98285  16.834   3.344   4.370
30068W        W98286  18.665  29.880  11.701
30069W        W98287  22.701  27.135  13.087
30070W        W98288  41.439  21.256   3.837
30071W        W98289  16.547  22.634   3.949
30072W        W98290   8.234  14.255   4.242
30073W        W98291  36.275  34.234   4.240
30074W        W98292  12.230  40.080  14.514
30075W        W98293  44.005  34.655   2.102
30076W        W98294  33.325  30.331  13.152
30077W        W98295  14.373   5.904  11.543
30078W        W98296  39.821   7.231   2.790
30079W        W98297  41.340  32.878  14.801
30080W        W98298   8.950  44.228  12.817
30081W        W98299   4.310  41.436   1.762
30082W        W98300   6.775  16.439  11.958
30083W        W98301  41.476  32.977   1.384
30084W        W98302  34.986   4.302  13.735
30085W        W98303  24.071  14.105  13.522
30086W        W98304   8.920  11.899   0.938
30087W        W98305  22.060  17.735   4.181
30088W        W98306   3.970   2.248  12.328
30089W        W98307   6.746   4.224   2.259
30090W        W98308  16.981  20.074   3.617
30091W        W98309  40.090  20.014  13.423
30092W        W98310  34.740  25.011  14.823
30093W        W98311   3.371  37.574   4.145
30094W        W98312   5.242   7.402   3.214
30095W        W98313   3.764  13.127  10.961
30096W        W98314  32.104   9.419  12.295
30097W        W98315  18.137  29.899  11.077
30098W        W98316  21.752  28.949   3.721
30099W        W98317  19.516  41.749   1.009
30100W        W98318  22.459   8.738  14.414
30101W        W98319  44.739   7.969   0.084
30102W        W98320  13.842   4.742   0.942
30103W        W98321  30.313  38.562   3.294
30104W        W98322  13.538  14.215   2.361
30105W        W98323  39.369  34.432  13.861
30106W        W98324  26.608   3.739  12.459
30107W        W98325   4.307  42.433   5.014
30108W        W98326  28.454  10.691   4.625
30109W        W98327   8.301   5.898   1.881
30110W        W98328   5.264  41.008  13.615
30111W        W98329  44.015   1.761  10.760
30112W        W98330  33.333  28.833  11.143
30113W        W98331  31.910  44.484   1.486
30114W        W98332   5.188  10.520  13.874
30115W        W98333  35.019  39.972  13.826
30116W        W98334  17.689   1.820  14.852
30117W        W98335  27.957  33.186   3.157
30118W        W98336  14.592   9.929  10.481
30119W        W98337  36.013  40.219  10.440
30120W        W98338   3.328  38.765  12.465
30121W        W98339  29.834  32.622   0.935
30122W        W98340  14.050   3.803   4.183
30123W        W98341   3.860  22.548  14.298
30124W        W98342   0.959  43.460  10.576
30125W        W98343  43.956  23.079   0.761
30126W        W98344  29.113   0.744   0.959
30127W        W98345  37.871  38.795   3.114
30128W        W98346   0.126  43.360  13.480
30129W        W98347  23.175  37.962   4.627
30130W        W98348  29.873  23.939  14.995
30131W        W98349  16.828  27.587  12.134
30132W        W98350  11.898  18.664   2.733
30133W        W98351  15.830  32.464  10.604
30134W        W98352  25.161  40.443   2.348
30135W        W98353  32.587  44.526  13.004
30136W        W98354  20.986  42.062  11.215
30137W        W98355   4.958  33.483  10.706
30138W        W98356  13.261  16.681  12.620
30139W        W98357   3.210  41.433  13.303
30140W        W98358  43.195  44.830  10.821
30141W        W98359   7.363  37.911  11.971
30142W        W98360  38.598   5.941  14.474
30143W        W98361   9.791  38.632   0.097
30144W        W98362  36.133  43.955   1.029
30145W        W98363  24.439  13.920   4.898
30146W        W98364   1.510  14.716   4.616
30147W        W98365  19.073  34.116  12.738
30148W        W98366   6.892  39.454  13.691
30149W        W98367  11.946  43.169  13.259
30150W        W98368  14.048  12.223  12.038
30151W        W98369   8.445  23.735   1.298
30152W        W98370  11.664   1.752  14.309
30153W        W98371  27.177  12.442   4.470
30154W        W98372  27.083  14.525  12.880
30155W        W98373  38.134  37.403   3.797
30156W        W98374  17.839  31.909   3.252
30157W        W98375  32.673   8.071   3.051
30158W        W98376  15.905  24.197  10.297
30159W        W98377  32.445  24.967   5.064
30160W        W98378  27.644   6.623  12.802
30161W        W98379  21.191  37.540  13.066
30162W        W98380  17.322  18.537  14.941
30163W        W98381  21.755  40.700  10.676
30164W        W98382  31.198  27.445   4.671
30165W        W98383   2.989  28.444   1.312
30166W        W98384  39.610  16.132  11.645
30167W        W98385  11.713  14.824  13.229
30168W        W98386  28.162  26.023   1.572
30169W        W98387   0.314   2.255   1.351
30170W        W98388  17.947  16.130  13.808
30171W        W98389   6.101  23.444  12.585
30172W        W98390  39.366  32.309  11.096
30173W        W98391  42.475  34.809   4.533
30174W        W98392  30.617  44.230  10.832
30175W        W98393  24.741  30.360   4.605
30176W        W98394  18.562  36.933  11.574
30177W        W98395   8.832  32.660   0.902
30178W        W98396  28.687  23.634   5.335
30179W        W98397  35.181  35.678   5.039
30180W        W98398   0.259  34.922   3.225
30181W        W98399  30.212  27.591   4.606
30182W        W98400   9.326  27.659  13.814
30183W        W98401   4.990  42.763   9.855
30184W        W98402  27.513  12.089   1.919
30185W        W98403  34.429  35.357  11.986
30186W        W98404  38.822   1.819   4.400
30187W        W98405   7.333  23.038   3.184
30188W        W98406  29.473  26.542   4.653
30189W        W98407  30.389  15.504   0.508
30190W        W98408   8.922  11.209  12.408
30191W        W98409  33.875  10.112  11.566
30192W        W98410  16.493  33.609   2.957
30193W        W98411   8.471   9.903   1.255
30194W        W98412  40.579  17.629   1.747
30195W        W98413   4.722   4.535  12.892
30196W        W98414  16.691  31.392  14.929
30197W        W98415  40.434  43.739  14.885
30198W        W98416  31.927  38.835   4.109
30199W        W98417   4.914  19.285  11.029
30200W        W98418  19.229  11.337  13.616
30201W        W98419  42.584  15.799   2.849
30202W        W98420  32.217  28.341  14.781
30203W        W98421  12.208  14.319  12.047
30204W        W98422   6.678  41.257   4.097
30205W        W98423  40.307   3.783   0.802
30206W        W98424  29.961  28.487  14.964
30207W        W98425  37.990   4.862   4.552
30208W        W98426   4.443  34.497   2.705
30209W        W98427  44.278  13.117   1.521
30210W        W98428  25.640  37.937   3.370
30211W        W98429   1.064  44.981   2.229
30212W        W98430  21.273   6.005   3.652
30213W        W98431  28.189  32.570   2.976
30214W        W98432  25.698  35.662   2.159
30215W        W98433  18.109  29.685   2.120
30216W        W98434  41.620  17.326  13.858
30217W        W98435   1.768  21.417  14.348
30218W        W98436  19.669  23.166   4.337
30219W        W98437  29.045  28.526   1.856
30220W        W98438   2.228  30.596  14.231
30221W        W98439  25.766  38.482  12.321
30222W        W98440  12.341  28.082   3.824
30223W        W98441  37.606   0.340  10.847
30224W        W98442   3.326  23.215   1.412
30225W        W98443  32.047  25.135  13.937
30226W        W98444  40.352  17.337   0.167
30227W        W98445  12.298   8.746   1.212
30228W        W98446   2.943  20.176   4.137
30229W        W98447  36.173  33.007   2.295
30230W        W98448  43.095  23.969   2.333
30231W        W98449   0.002   8.741   4.679
30232W        W98450  16.677  10.032  12.045
30233W        W98451   5.889  26.176   2.941
30234W        W98452   8.836   8.691  14.397
30235W        W98453  29.355   1.227   5.084
30236W        W98454  43.545   2.650  11.642
30237W        W98455  11.549  39.525   0.346
30238W        W98456  39.317  15.711  11.623
30239W        W98457  39.615  30.569  12.832
30240W        W98458  36.366  20.677   3.744
30241W        W98459  40.114  14.112   2.300
30242W        W98460  24.162  10.937  14.667
30243W        W98461  35.396  11.538   0.343
30244W        W98462   1.896  20.718   3.644
30245W        W98463  18.545  28.998  11.206
30246W        W98464  44.403  16.077  10.715
30247W        W98465  42.344  20.505  12.132
30248W        W98466  29.917  44.842  13.119
30249W        W98467  21.098  31.679  11.154
30250W        W98468  16.656  36.119  12.547
30251W        W98469  23.126  43.520   4.746
30252W        W98470  35.534   7.240   4.084
30253W        W98471  39.218  42.119   1.923
30254W        W98472   8.946  33.413   4.061
30255W        W98473   7.772  33.183  11.849
30256W        W98474  31.642   6.690   2.413
30257W        W98475  34.613  26.650   0.267
30258W        W98476  28.060  39.187  13.332
30259W        W98477  17.153  20.959  11.015
30260W        W98478  23.599   7.916   3.994
30261W        W98479  23.525   6.420  12.453
30262W        W98480  16.564  10.382  11.658
30263W        W98481   9.164  29.209  11.080
30264W        W98482  43.093   1.764  11.644
30265W        W98483   7.381  14.595  10.250
30266W        W98484  28.253  34.392  10.500
30267W        W98485  16.350  11.702   0.754
30268W        W98486   1.011  43.374  11.078
30269W        W98487   5.477  40.781   9.876
30270W        W98488  34.891  16.880  13.520
30271W        W98489   3.476   4.218   4.053
30272W        W98490  34.107  30.817  13.514
30273W        W98491  19.668   8.406  13.483
30274W        W98492  33.733  26.755   4.823
30275W        W98493  31.666   6.154   2.386
30276W        W98494  33.950  42.549   3.277
30277W        W98495  23.647  19.806  11.111
30278W        W98496  14.137  10.654  12.505
30279W        W98497  32.144  19.818  11.638
30280W        W98498  11.892  18.755  13.435
30281W        W98499   5.082   7.402   2.449
30282W        W98500  21.099  14.081  14.571
30283W        W98501  25.020  27.130  14.903
30284W        W98502   4.660  43.330   3.217
30285W        W98503  27.524  25.644   0.044
30286W        W98504   7.918  37.229   1.387
30287W        W98505   9.565  43.060  12.095
30288W        W98506  43.077  19.691   0.314
30289W        W98507  24.676  32.932   3.163
30290W        W98508  29.498  19.138   2.445
30291W        W98509  30.587  21.477  12.487
30292W        W98510   1.470   9.146   2.689
30293W        W98511  29.884  31.022  13.480
30294W        W98512  23.701  37.367   1.802
30295W        W98513  16.245  22.487   4.689
30296W        W98514  25.384   1.611  11.948
30297W        W98515  23.755  17.024  11.255
30298W        W98516  39.836  22.233   1.834
30299W        W98517  30.769  14.895  13.400
30300W        W98518  19.160  29.098  11.828
30301W        W98519  16.356   7.168   4.166
30302W        W98520  10.380  15.968   3.111
30303W        W98521  31.507  40.209   1.905
30304W        W98522  21.498  27.170  12.142
30305W        W98523   7.870  12.294   4.203
30306W        W98524  40.008  14.277  13.386
30307W        W98525   8.661  25.735  11.721
30308W        W98526  43.034   2.874  14.500
30309W        W98527  22.662  10.415   3.362
30310W        W98528  19.681  12.313   0.435
30311W        W98529  26.251  22.563  13.287
30312W        W98530   2.416  34.921   1.368
30313W        W98531  15.692  19.176   1.045
30314W        W98532  41.344  32.033   4.235
30315W        W98533  14.273   0.487   1.856
30316W        W98534  13.585  24.037   4.518
30317W        W98535  30.057  21.218   2.123
30318W        W98536  22.780  38.253   2.291
30319W        W98537  38.474  43.506   2.567
30320W        W98538  39.524  26.912   3.795
30321W        W98539   5.257  35.818   1.312
30322W        W98540  25.438   5.690  11.270
30323W        W98541   6.737   2.706  11.994
30324W        W98542   4.051  35.630   4.843
30325W        W98543  37.391  35.400   4.629
30326W        W98544   0.370  39.507   2.170
30327W        W98545  43.895  40.207   2.262
30328W        W98546  10.626  37.082  12.142
30329W        W98547  13.805  20.996  11.493
30330W        W98548  10.384   5.828   9.964
30331W        W98549  18.049  30.093  13.837
30332W        W98550  39.384   8.933   1.760
30333W        W98551  22.761  41.641   2.104
30334W        W98552  22.592  25.871   3.534
30335W        W98553  31.535  12.704   2.898
30336W        W98554  12.600  26.029  14.029
30337W        W98555  18.379   7.422  11.526
30338W        W98556   7.740  23.250   0.209
30339W        W98557  34.054  41.878  14.638
30340W        W98558  37.458  22.298   3.315
30341W        W98559  20.464  36.349  13.992
30342W        W98560  17.070  10.806   1.881
30343W        W98561  27.895   1.675  12.658
30344W        W98562   1.988  20.568  12.242
30345W        W98563  17.042  40.891  13.898
30346W        W98564   1.543  33.301   3.205
30347W        W98565   1.876   7.292   4.081
30348W        W98566  32.347   0.071  13.028
30349W        W98567   6.368  23.135  14.277
30350W        W98568  23.770   8.650   0.242
30351W        W98569  36.648  14.254  11.278
30352W        W98570  13.082  17.533   1.913
30353W        W98571   5.649  22.809   4.664
30354W        W98572  20.260   9.149  12.495
30355W        W98573  41.989  23.994  12.020
30356W        W98574   7.892  31.213  14.233
30357W        W98575  37.669  42.589  12.794
30358W        W98576  25.524  27.578   4.749
30359W        W98577   7.681  12.331   3.728
30360W        W98578  21.552  20.713   4.795
30361W        W98579  35.645  21.694  10.717
30362W        W98580  24.706  14.857   4.046
30363W        W98581  24.715  32.023   0.938
30364W        W98582  31.100  12.762   3.189
30365W        W98583  43.303  29.282   4.283
30366W        W98584  13.111   0.615  13.789
30367W        W98585  43.929  19.572  13.998
30368W        W98586  22.590   3.174   1.120
30369W        W98587  31.549  16.630  13.366
30370W        W98588  20.845   3.254   1.770
30371W        W98589   7.380   1.329   2.156
30372W        W98590  22.504  24.645  13.993
30373W        W98591   6.512  33.107  14.475
30374W        W98592  19.604   5.230  14.840
30375W        W98593  39.367  38.334   0.065
30376W        W98594  26.280  13.503   3.243
30377W        W98595   3.046   1.718   0.474
30378W        W98596   2.282  19.786   2.427
30379W        W98597   3.840  38.739  12.663
30380W        W98598   1.159   7.621   4.145
30381W        W98599  14.414  21.451  13.705
30382W        W98600   9.318  32.821   2.277
30383W        W98601  12.318  22.905   4.691
30384W        W98602   1.729   5.058  12.618
30385W        W98603  25.151  22.536  12.855
30386W        W98604   3.170  12.406   0.327
30387W        W98605  38.839  26.417   1.587
30388W        W98606  24.085  30.537  10.790
30389W        W98607  13.286  13.295   2.252
30390W        W98608   4.339   8.895  10.565
30391W        W98609  41.771  15.178   2.808
30392W        W98610  11.300   0.179   3.476
30393W        W98611  36.825  38.319   1.757
30394W        W98612  37.387  28.925  11.682
30395W        W98613  16.216  44.041  11.647
30396W        W98614  27.252  13.146   4.501
30397W        W98615  32.970  34.554  13.382
30398W        W98616  12.841  26.403   0.908
30399W        W98617  42.331   0.231   4.557
30400W        W98618   6.308  29.590  12.567
30401W        W98619   3.053  16.935  12.684
30402W        W98620  17.774  14.803  13.516
30403W        W98621  42.203  32.499  13.390
30404W        W98622   7.033  31.206   4.384
30405W        W98623  36.842   2.216  10.882
30406W        W98624  29.619  42.999  12.802
30407W        W98625  42.003   0.915  14.926
30408W        W98626  17.975  35.068   3.762
30409W        W98627  41.528  25.265   0.293
30410W        W98628  26.530  36.364  14.960
30411W        W98629   1.810  32.717  12.976
30412W        W98630   6.159  15.527  12.845
30413W        W98631  27.664  20.601   2.467
30414W        W98632  10.402   3.102  14.441
30415W        W98633   3.515   0.546  12.125
30416W        W98634  27.986  13.380  12.631
30417W        W98635  32.296  16.062  11.111
30418W        W98636  15.299   5.392  10.461
30419W        W98637  12.675  29.860   4.677
30420W        W98638  22.113  26.472   3.286
30421W        W98639  13.067  15.716  14.429
30422W        W98640  38.454  26.515  10.961
30423W        W98641  15.988  32.097   0.303
30424W        W98642  33.154   1.915  12.397
30425W        W98643  18.354  39.309   2.285
30426W        W98644  32.239  41.222  13.783
30427W        W98645  29.176  36.481   4.851
30428W        W98646  43.839   4.033  14.761
30429W        W98647  16.629  20.208   2.594
30430W        W98648   5.487   7.435  12.008
30431W        W98649   2.665   2.293  14.398
30432W        W98650  24.169  24.672  11.059
30433W        W98651  39.832  35.357  10.522
30434W        W98652   3.214  10.731   4.448
30435W        W98653  34.125  35.937   1.470
30436W        W98654  32.945   4.950  10.755
30437W        W98655  25.903  13.620   0.912
30438W        W98656  24.932  36.150  13.420
30439W        W98657  34.424  38.001  11.607
30440W        W98658  44.898  13.824  12.398
30441W        W98659  12.408  19.008   0.158
30442W        W98660  43.820  41.969   1.633
30443W        W98661   0.933  21.270   2.686
30444W        W98662   3.314  19.376  10.496
30445W        W98663  32.557  27.713   0.085
30446W        W98664  14.584  33.023  13.147
30447W        W98665  23.781  32.604  14.697
30448W        W98666   9.850  30.971  10.504
30449W        W98667  37.260  14.026   0.924
30450W        W98668  18.673  24.625   4.735
30451W        W98669  38.974  22.263  14.228
30452W        W98670  19.515  26.374  13.339
30453W        W98671  12.871   9.627   0.428
30454W        W98672  40.780  24.267  12.945
30455W        W98673  37.963  26.889  13.779
30456W        W98674  12.749   6.740  11.252
30457W        W98675  36.412  40.869   0.030
30458W        W98676  16.585  34.129   2.280
30459W        W98677  35.907  28.953  12.909
30460W        W98678   1.936  25.457  10.726
30461W        W98679  11.858  35.616  10.626
30462W        W98680  37.343  20.328   1.874
30463W        W98681  34.787  33.132  12.506
30464W        W98682  30.161  29.610  14.326
30465W        W98683  36.472  25.309   0.316
30466W        W98684  39.285   9.696   3.208
30467W        W98685  14.425  41.878   4.592
30468W        W98686  31.165  29.415   3.358
30469W        W98687  26.217  37.802  11.886
30470W        W98688   5.409   3.438  14.525
30471W        W98689   8.366  17.621   0.828
30472W        W98690   6.980  42.650   2.729
30473W        W98691  41.338  12.359   1.211
30474W        W98692  23.241  16.102  14.795
30475W        W98693  33.001  40.998   0.043
30476W        W98694  32.826  21.768  11.777
30477W        W98695  40.980  42.267  12.097
30478W        W98696   4.725  31.062   1.861
30479W        W98697  21.844  23.628   1.825
30480W        W98698  37.621   6.483  13.615
30481W        W98699  10.704   8.008  11.502
30482W        W98700   8.352  15.254   4.978
30483W        W98701  34.053  16.263   1.690
30484W        W98702  33.499  24.555  13.896
30485W        W98703  18.459  37.109   2.349
30486W        W98704  19.046  35.827  12.487
30487W        W98705  12.852  28.961   0.886
30488W        W98706  30.395   0.982  13.611
30489W        W98707  13.365   3.171   3.850
30490W        W98708  43.784  44.487  14.824
30491W        W98709  34.818  19.227   1.810
30492W        W98710  22.880   6.450   1.806
30493W        W98711  44.975  17.609   3.202
30494W        W98712  24.958  42.452   1.391
30495W        W98713  19.134  11.663   0.433
30496W        W98714  37.620  15.212  13.427
30497W        W98715  23.302  43.653   3.113
30498W        W98716  35.684  42.768   2.171
30499W        W98717  23.052  20.650  10.869
30500W        W98718  39.097  15.098  11.370
30501W        W98719   5.444   4.782  14.810
30502W        W98720  43.199  24.427  12.951
30503W        W98721  34.105   0.496   3.648
30504W        W98722   9.284   4.847   4.342
30505W        W98723  11.736  12.128   3.747
30506W        W98724  15.258  42.389   3.185
30507W        W98725  23.529  41.487  13.096
30508W        W98726  20.638  25.960   3.776
30509W        W98727  39.855  20.459  11.680
30510W        W98728  39.576   1.324   2.741
30511W        W98729  14.718  39.915  10.655
30512W        W98730  35.688   8.191   4.050
30513W        W98731  30.041   3.898  14.921
30514W        W98732   1.556  10.274  11.913
30515W        W98733  23.847  29.263  13.955
30516W        W98734   7.464  44.449  13.080
30517W        W98735  26.848  21.820  14.656
30518W        W98736  20.827   0.227   3.580
30519W        W98737  26.058   3.219  11.582
30520W        W98738  20.088  30.006  14.330
30521W        W98739  32.657   1.187   0.035
30522W        W98740  27.417  27.245   4.092
30523W        W98741  37.689  34.916  12.480
30524W        W98742   5.717  17.291  11.446
30525W        W98743  21.824  24.021   0.016
30526W        W98744  21.636   9.543  13.965
30527W        W98745   9.131   0.455   0.342
30528W        W98746  27.035  12.299   1.006
30529W        W98747  41.297  30.509  10.745
30530W        W98748  12.295  13.181   2.164
30531W        W98749  28.790  27.207   3.684
30532W        W98750  29.444   4.261  13.755
30533W        W98751  29.764  33.349  14.047
30534W        W98752  12.629  43.845   3.151
30535W        W98753  43.095  36.358   2.835
30536W        W98754  10.806   8.874   1.824
30537W        W98755  35.190  39.776  10.868
30538W        W98756  26.141  42.633  14.493
30539W        W98757  34.420   0.018   1.661
30540W        W98758  32.459  40.696  14.910
30541W        W98759   0.746   3.412  13.401
30542W        W98760   4.510  36.871   3.125
30543W        W98761  37.589  21.800  14.356
30544W        W98762  43.251   4.366   1.349
30545W        W98763   0.341  21.542  10.622
30546W        W98764  27.444  35.137  13.614
30547W        W98765  21.694  41.323  12.580
30548W        W98766  25.173  31.894  12.512
30549W        W98767  38.673   9.795  12.951
30550W        W98768  32.403  42.422   3.783
30551W        W98769  29.000  23.988   0.962
30552W        W98770  43.248  39.519   2.351
30553W        W98771  22.931   7.311  12.551
30554W        W98772  15.133  13.725  10.683
30555W        W98773  32.456   4.682   1.226
30556W        W98774  20.962   0.173   2.631
30557W        W98775  30.703  37.337  13.378
30558W        W98776  44.351  27.764   0.578
30559W        W98777   0.651  23.727   2.975
30560W        W98778  15.152  20.682   0.503
30561W        W98779  15.588  31.068  13.034
30562W        W98780  26.166  44.360   2.633
30563W        W98781  24.005  42.970  14.971
30564W        W98782  25.642  41.881   1.654
30565W        W98783  21.040  35.074   4.179
30566W        W98784  43.339   4.135   2.740
30567W        W98785  18.591  18.178  12.063
30568W        W98786   7.694  18.611   2.325
30569W        W98787   6.716  16.505   2.327
30570W        W98788  36.021   8.360   0.235
30571W        W98789   7.138  20.164  12.918
30572W        W98790  23.065   4.994  12.540
30573W        W98791  19.271  30.405  13.038
30574W        W98792   7.845   5.052   2.538
30575W        W98793  41.800  16.340   3.591
30576W        W98794  37.071  26.878  11.000
30577W        W98795  16.370  32.593   0.458
30578W        W98796  40.233  35.186   4.207
30579W        W98797  28.399  40.001  13.404
30580W        W98798  41.117  25.519   0.445
30581W        W98799  11.639   9.225  13.425
30582W        W98800  10.794  19.806  10.986
30583W        W98801  29.715  16.568  11.117
30584W        W98802   3.074   7.834  10.847
30585W        W98803  34.739  34.471   4.227
30586W        W98804  15.150   4.888   1.847
30587W        W98805   6.737  23.472  10.783
30588W        W98806  20.329  37.849  11.621
30589W        W98807  20.994  17.709   1.122
30590W        W98808   1.290   0.168  10.969
30591W        W98809  29.845   7.767   2.933
30592W        W98810   8.638  33.374  12.378
30593W        W98811  24.513   4.909   0.000
30594W        W98812  25.988  19.530  11.007
30595W        W98813  28.086  40.044  10.746
30596W        W98814  11.394  22.619   2.183
30597W        W98815  21.599  34.568  11.847
30598W        W98816  28.395   5.326  14.717
30599W        W98817   6.704  37.692   0.890
30600W        W98818   5.956  26.420   1.781
30601W        W98819   9.886  13.604  12.430
30602W        W98820  44.975  18.295  14.792
30603W        W98821   4.913  26.900  14.396
30604W        W98822   5.819  39.455   5.096
30605W        W98823  39.994   5.517   3.572
30606W        W98824  44.750  42.536  11.837
30607W        W98825  32.365  35.013   1.906
30608W        W98826  36.489  35.853   1.898
30609W        W98827   7.539  27.020  12.196
30610W        W98828  36.343   4.200   2.198
30611W        W98829   9.549  36.324  13.510
30612W        W98830   4.837  16.358   3.198
30613W        W98831  31.860  18.519   3.218
30614W        W98832  10.150  44.452  14.869
30615W        W98833   2.687   2.139   4.549
30616W        W98834  34.680  29.968  14.842
30617W        W98835  40.981  38.831   3.752
30618W        W98836  21.613  23.502   0.471
30619W        W98837  39.051   5.227   5.054
30620W        W98838  29.068  18.251  14.995
30621W        W98839   8.868   9.938   0.793
30622W        W98840  18.206  44.185   4.933
30623W        W98841   8.421  28.008  14.781
30624W        W98842  11.013   2.281  14.014
30625W        W98843  33.518  25.651  10.748
30626W        W98844  40.328   5.223  14.374
30627W        W98845  30.901  42.006  14.778
30628W        W98846  10.302  37.813   4.610
30629W        W98847   7.188  34.189  11.471
30630W        W98848  18.333  41.297   1.354
30631W        W98849  35.843  38.930   2.870
30632W        W98850  41.451  44.200  11.646
30633W        W98851   7.633  35.597  14.804
30634W        W98852  29.021  43.287   0.707
30635W        W98853  36.666  30.178   5.040
30636W        W98854  41.062  36.112  12.122
30637W        W98855  10.892   9.670   0.025
30638W        W98856  35.796   1.015   4.533
30639W        W98857  13.091   9.757  14.962
30640W        W98858  16.797  44.403  10.888
30641W        W98859  27.202  24.065  12.468
30642W        W98860  15.706  32.080  13.491
30643W        W98861   6.069  10.859   2.016
30644W        W98862  32.519  28.676  11.335
30645W        W98863   0.724  18.554  13.007
30646W        W98864   9.714  29.143   3.248
30647W        W98865  34.153  36.977  12.535
30648W        W98866  34.883  37.529   0.661
30649W        W98867  31.074   1.100   5.121
30650W        W98868   4.839  16.023   3.583
30651W        W98869  39.077  10.355   1.015
30652W        W98870  40.407   4.404  13.029
30653W        W98871  30.196  23.038  12.130
30654W        W98872   0.184  10.303   0.822
30655W        W98873  37.321   3.614   4.435
30656W        W98874   2.317   2.110  11.999
30657W        W98875  30.813  40.505   3.937
30658W        W98876  40.311  36.334  11.694
30659W        W98877   5.673  27.430  13.474
30660W        W98878  24.088  38.704   1.945
30661W        W98879  27.258  24.432  14.772
30662W        W98880  17.451   3.156   3.288
30663W        W98881  19.053  15.881   2.177
30664W        W98882  23.102  35.979  12.468
30665W        W98883   3.706  18.168  14.805
30666W        W98884  11.375  13.602  11.154
30667W        W98885   3.454   1.243  11.581
30668W        W98886  23.687  42.963   2.725
30669W        W98887  15.829  12.790   4.123
30670W        W98888  19.638   8.157  12.533
30671W        W98889  43.426  13.680   0.866
30672W        W98890  31.802  35.125  14.520
30673W        W98891  23.082   8.937  11.290
30674W        W98892  34.654  38.370  10.499
30675W        W98893  28.349  34.867   0.049
30676W        W98894  15.732  20.381   1.353
30677W        W98895   2.386   3.776   4.199
30678W        W98896  26.551  40.847  12.990
30679W        W98897  19.246  15.090   1.832
30680W        W98898  27.913  40.789   1.067
30681W        W98899  32.024  13.293  13.662
30682W        W98900  35.341   0.772   4.562
30683W        W98901  18.469  21.120   2.277
30684W        W98902   6.859  37.553  13.578
30685W        W98903   8.891  27.072  11.936
30686W        W98904  14.163  24.661   4.109
30687W        W98905  25.201   6.755  13.918
30688W        W98906  15.467  35.754   0.508
30689W        W98907  16.796   7.170  13.128
30690W        W98908  17.597  37.603   0.315
30691W        W98909  41.543  31.116   1.266
30692W        W98910  38.907  10.164  14.333
30693W        W98911  10.127  27.455   1.369
30694W        W98912  18.437  33.984   9.925
30695W        W98913   1.338  24.787  10.802
30696W        W98914  41.422  38.943   1.338
30697W        W98915  31.424  26.045  13.898
30698W        W98916  15.696  31.380   3.207
30699W        W98917  10.791  42.313   2.238
30700W        W98918  25.176  44.558   1.312
30701W        W98919  40.851   4.235   0.333
30702W        W98920  27.687   1.726   0.631
30703W        W98921  37.988  32.997  13.467
30704W        W98922  20.736   9.867   2.341
30705W        W98923  11.186  31.615   2.112
30706W        W98924  41.896  26.447   1.216
30707W        W98925   9.939  15.723  13.613
30708W        W98926  12.605  12.208   4.405
30709W        W98927  37.915   6.367   0.864
30710W        W98928  43.178  14.895   3.003
30711W        W98929  43.400   5.614   4.195
30712W        W98930  27.959  23.276   3.594
30713W        W98931  18.676  28.932   0.674
30714W        W98932  26.146  36.581  10.677
30715W        W98933  24.024  17.617   2.290
30716W        W98934  34.942  31.385  11.411
30717W        W98935  29.567  29.045  13.102
30718W        W98936  31.861  28.689   0.908
30719W        W98937   7.210  24.982   4.498
30720W        W98938  37.453  16.816   2.690
30721W        W98939  18.385  38.369   1.297
30722W        W98940  20.111  31.187  13.914
30723W        W98941  24.791  29.178   3.280
30724W        W98942   9.496  21.129  11.647
30725W        W98943  14.550  17.277   4.514
30726W        W98944   3.157  42.522   0.436
30727W        W98945  42.851  32.314   2.399
30728W        W98946  44.822  37.919  14.334
30729W        W98947  29.348  26.748  11.101
30730W        W98948  41.333  35.984   1.142
30731W        W98949   8.312  12.443  11.618
30732W        W98950  42.459  17.640   1.211
30733W        W98951  16.409  37.616   4.126
30734W        W98952  30.228  23.798   1.098
30735W        W98953  22.966  41.022  14.099
30736W        W98954   3.997  41.907  11.946
30737W        W98955  22.314  33.894  12.856
30738W        W98956  19.776  33.669   2.937
30739W        W98957  12.184   1.056   4.961
30740W        W98958  17.186  36.275   0.289
30741W        W98959  30.671  26.190   4.808
30742W        W98960  22.213   6.270  12.928
30743W        W98961  43.694  17.300   3.997
30744W        W98962  19.732  25.375   2.662
30745W        W98963  23.983   9.406  11.153
30746W        W98964  16.768  20.041   1.637
30747W        W98965  37.344  12.909   2.093
30748W        W98966  32.841   4.863  13.225
30749W        W98967  19.490  14.272  14.716
30750W        W98968  21.689  30.644   0.336
30751W        W98969   5.169  40.691  12.464
30752W        W98970   1.780  21.539   2.355
30753W        W98971   5.970  21.561   0.718
30754W        W98972   9.618  10.956   1.633
30755W        W98973   3.526  28.483   0.023
30756W        W98974  44.356  41.470  12.097
30757W        W98975  40.244  25.953  12.718
30758W        W98976  23.992  41.249  12.506
30759W        W98977  20.506  17.320   2.223
30760W        W98978  18.219  31.074   4.301
30761W        W98979  11.806  26.748  13.296
30762W        W98980   8.353   9.734  13.860
30763W        W98981  40.317  23.151   3.289
30764W        W98982   5.445  41.505   1.190
30765W        W98983  10.366  42.224  14.330
30766W        W98984  16.594  27.885   2.299
30767W        W98985  10.880  29.579  12.623
30768W        W98986  36.985  18.803   4.116
30769W        W98987  19.626  28.588   4.412
30770W        W98988  10.180   1.253  14.321
30771W        W98989  11.569  12.366   3.316
30772W        W98990   9.404  31.084  10.747
30773W        W98991   2.784   3.012  12.883
30774W        W98992  21.672  39.000  12.862
30775W        W98993  44.476  43.247  14.995
30776W        W98994  14.022  40.782   2.481
30777W        W98995  24.078  22.042  14.395
30778W        W98996  32.276   2.978   1.727
30779W        W98997  18.840   7.217  14.559
30780W        W98998  37.074  16.279   3.582
30781W        W98999  29.689  25.143  14.791
30782W        W99000  32.506  33.935   4.262
30783W        W99001   1.426  22.554  14.505
30784W        W99002   0.838  30.631  14.451
30785W        W99003  12.474  41.793   2.647
30786W        W99004  12.213  18.611   0.820
30787W        W99005  33.477   1.032  13.517
30788W        W99006  33.178   4.122  13.465
30789W        W99007  42.862  29.685   4.990
30790W        W99008  26.741   5.995   1.716
30791W        W99009  23.609  27.563   2.713
30792W        W99010   5.658  20.948   4.588
30793W        W99011  20.761  33.096   4.403
30794W        W99012   7.370  44.912   0.406
30795W        W99013  35.921   5.937  10.697
30796W        W99014   8.426  23.823   2.845
30797W        W99015   6.977  28.696  13.843
30798W        W99016  30.043  31.677  10.616
30799W        W99017  11.103  23.558   2.215
30800W        W99018  30.463  27.039  11.105
30801W        W99019  20.542  23.581   2.928
30802W        W99020   7.175  42.337   1.786
30803W        W99021  10.342  28.844   0.822
30804W        W99022  25.138  29.102   2.345
30805W        W99023  36.060  41.238   3.135
30806W        W99024   7.314  42.886  12.187
30807W        W99025  44.151  29.726   1.814
30808W        W99026  12.347   1.008  13.518
30809W        W99027  10.834  40.247  13.481
30810W        W99028  21.957   0.030   1.808
30811W        W99029  41.516  21.459   2.642
30812W        W99030  25.191  12.253  13.975
30813W        W99031  24.290   1.682  14.004
30814W        W99032   8.950   7.321  12.926
30815W        W99033  25.445   1.290   0.422
30816W        W99034   3.183  29.832  11.006
30817W        W99035  36.072   3.866   1.344
30818W        W99036   6.818  42.397   0.886
30819W        W99037  35.363   2.896   3.048
30820W        W99038  20.054  19.056   1.813
30821W        W99039  35.890  44.245   1.426
30822W        W99040  44.809  44.459  13.151
30823W        W99041  44.899  18.350  14.246
30824W        W99042  11.552  25.229   2.266
30825W        W99043  37.022  27.214   4.598
30826W        W99044   2.819   8.540  13.972
30827W        W99045  39.517  42.843  13.074
30828W        W99046  37.107   8.868   3.213
30829W        W99047   8.341  11.430  10.738
30830W        W99048   6.050  39.920   9.830
30831W        W99049  39.401  24.696   2.166
30832W        W99050   4.209  32.398   1.744
30833W        W99051  41.983  20.716   1.379
30834W        W99052  25.014  36.544  14.952
30835W        W99053  33.179   1.976  12.916
30836W        W99054  34.378  43.720   1.527
30837W        W99055  44.979   8.499  13.879
30838W        W99056  28.047  31.646  10.688
30839W        W99057  25.465  12.767   4.500
30840W        W99058  39.587  35.036  12.622
30841W        W99059  36.406   8.805   2.951
30842W        W99060   9.159  36.175  11.153
30843W        W99061  12.798  33.038   3.937
30844W        W99062  43.335  12.159   3.490
30845W        W99063   1.208  14.923   2.761
30846W        W99064  44.945  42.125  12.137
30847W        W99065  14.901  13.824   3.707
30848W        W99066  14.523   2.773  11.533
30849W        W99067  19.094  38.300   2.447
30850W        W99068  32.137   7.465   1.367
30851W        W99069  43.765  38.896   2.863
30852W        W99070  13.327  12.770  10.846
30853W        W99071   1.363  33.392  12.908
30854W        W99072  14.344  40.427  13.354
30855W        W99073  30.613  22.046   0.790
30856W        W99074   9.957  11.844   0.919
30857W        W99075   3.734  39.763  10.425
30858W        W99076  21.265  37.273  12.643
30859W        W99077  41.881  25.514   4.879
30860W        W99078  29.254  32.125   3.722
30861W        W99079  27.600  24.826  12.513
30862W        W99080  32.553  16.642   0.921
30863W        W99081  11.104  31.911  14.991
30864W        W99082  17.256  40.701   2.167
30865W        W99083  22.368   0.940  14.008
30866W        W99084  16.819  27.560  13.007
30867W        W99085   4.878   5.186   2.226
30868W        W99086   3.238  42.844   4.709
30869W        W99087  42.997  37.617  10.772
30870W        W99088   6.615  17.966   4.958
30871W        W99089  11.279  14.102   0.757
30872W        W99090  32.323  36.035   4.043
30873W        W99091  24.731   7.012   0.145
30874W        W99092  41.805  22.200   1.128
30875W        W99093  44.034  22.170   4.783
30876W        W99094  37.837  28.949  13.981
30877W        W99095  33.805  24.942   3.171
30878W        W99096  24.084   1.891  12.369
30879W        W99097   9.022  11.550   5.047
30880W        W99098   7.511  36.274  12.424
30881W        W99099  26.254  37.233   4.875
30882W        W99100  40.397  28.444  14.268
30883W        W99101  28.228   3.418   2.769
30884W        W99102  18.218  27.495   3.896
30885W        W99103  38.635  30.601  11.252
30886W        W99104  23.796   4.480   2.268
30887W        W99105  24.227  18.634  13.046
30888W        W99106   9.236   8.197   0.262
30889W        W99107  27.492  29.678   2.216
30890W        W99108  36.401  23.044   4.673
30891W        W99109  18.303   0.692   1.010
30892W        W99110  41.546  37.500   3.839
30893W        W99111  37.464  42.923   2.758
30894W        W99112  14.766  25.467  10.598
30895W        W99113   9.915   8.840  12.059
30896W        W99114   6.916  33.648  13.001
30897W        W99115  24.426   9.277   4.738
30898W        W99116  29.192   2.972  12.756
30899W        W99117  20.442  30.180   1.781
30900W        W99118  19.080  36.153  11.215
30901W        W99119  32.087  27.290  13.795
30902W        W99120  12.912  36.102  12.537
30903W        W99121  43.252  23.727   0.801
30904W        W99122  13.169  31.966  14.922
30905W        W99123   1.303  25.606   3.820
30906W        W99124  12.946  33.922   2.371
30907W        W99125   8.212  36.935  10.674
30908W        W99126   9.947  14.355  10.351
30909W        W99127  30.482  37.850  10.464
30910W        W99128   6.386  13.784  11.140
30911W        W99129  34.535   1.298   4.402
30912W        W99130  38.858  30.953  12.632
30913W        W99131  11.230  18.982   1.364
30914W        W99132  20.562  36.103   5.348
30915W        W99133  22.806   2.254  11.181
30916W        W99134  30.894  42.787  11.454
30917W        W99135  36.288  34.885  14.488
30918W        W99136  37.480   9.280   4.117
30919W        W99137   2.344  41.472   1.225
30920W        W99138  20.260  42.608   3.660
30921W        W99139  37.072   2.450   2.077
30922W        W99140  18.217  31.843  11.147
30923W        W99141   3.795   1.456  13.150
30924W        W99142   2.153  11.736   0.853
30925W        W99143  43.805  20.304   2.108
30926W        W99144  28.899   0.288   0.888
30927W        W99145  39.704  40.144  14.838
30928W        W99146   8.234  39.009   4.051
30929W        W99147  32.324  33.142  11.051
30930W        W99148  23.331  34.981   2.699
30931W        W99149  32.589  26.604   4.564
30932W        W99150  30.375  30.409  13.817
30933W        W99151   7.118   2.351   5.028
30934W        W99152  43.546   3.926   1.248
30935W        W99153  28.291   6.914  11.237
30936W        W99154  19.185   5.364  13.573
30937W        W99155  33.398  11.414  11.382
30938W        W99156  32.210  16.564  11.201
30939W        W99157  31.436   5.209  14.906
30940W        W99158  23.132  16.329  13.278
30941W        W99159  36.442  29.128   3.779
30942W        W99160  33.584  25.751  11.235
30943W        W99161  14.450  44.909  12.087
30944W        W99162  25.654   3.526  10.821
30945W        W99163   2.230  13.376  14.744
30946W        W99164   3.511  20.238   3.240
30947W        W99165  21.283   1.438  11.469
30948W        W99166   0.468   8.356   2.165
30949W        W99167  22.741  37.397  12.078
30950W        W99168   2.901   8.378   2.704
30951W        W99169  15.606   8.846  13.955
30952W        W99170  18.674  22.388   2.024
30953W        W99171   2.724  33.289   2.356
30954W        W99172  17.879  38.851  14.789
30955W        W99173  42.419   0.204  11.104
30956W        W99174  17.715  36.593   1.433
30957W        W99175  27.631  36.083  11.872
30958W        W99176  29.139  28.053   1.662
30959W        W99177  17.190  32.193  10.549
30960W        W99178  12.399  23.568  12.356
30961W        W99179  39.081  30.944   2.437
30962W        W99180  39.024   9.069  13.540
30963W        W99181   5.680   9.234   2.359
30964W        W99182   5.167   4.511   4.838
30965W        W99183  44.504  14.381   2.663
30966W        W99184   4.280  35.080  10.556
30967W        W99185  35.597  20.486  12.987
30968W        W99186  16.491  32.878  14.917
30969W        W99187   4.284   3.513   2.291
30970W        W99188  29.936   7.914   3.996
30971W        W99189  34.560  22.537   1.657
30972W        W99190  27.269  35.356   1.324
30973W        W99191  32.090  35.858   0.798
30974W        W99192   9.755   4.202   1.291
30975W        W99193  33.537   8.765   3.560
30976W        W99194   8.931  15.584  14.400
30977W        W99195  27.612  16.883   0.977
30978W        W99196  33.587  44.629   2.679
30979W        W99197  31.392   9.853  12.054
30980W        W99198  44.073  40.424  11.371
30981W        W99199  12.144  16.283  10.900
30982W        W99200  37.768  37.984  12.611
30983W        W99201  24.702  27.096  12.585
30984W        W99202  30.433   3.961  11.404
30985W        W99203  35.512  41.313  14.910
30986W        W99204  21.760  30.911   1.305
30987W        W99205  24.732  20.324  12.788
30988W        W99206  39.416   4.839   5.060
30989W        W99207  25.011  13.875  11.551
30990W        W99208  41.843   9.446  14.330
30991W        W99209  16.676  44.359   2.756
30992W        W99210  19.531  32.089  14.574
30993W        W99211  35.010  41.238  10.755
30994W        W99212  27.226   4.085  14.557
30995W        W99213  43.047  39.597   0.022
30996W        W99214  17.673  12.293  14.770
30997W        W99215   4.225   9.507  12.122
30998W        W99216  39.483  23.591  10.859
30999W        W99217  23.890   7.430   2.312
31000W        W99218  40.363  14.773  14.722
31001W        W99219  32.556   9.377   3.007
31002W        W99220  12.750  16.968   4.750
31003W        W99221  32.304  23.475   3.804
31004W        W99222   3.410  13.134   0.912
31005W        W99223  24.443  10.180   3.638
31006W        W99224  37.460   4.908   3.233
31007W        W99225  16.869  10.328   1.841
31008W        W99226  32.493  40.560   3.192
31009W        W99227  16.642  19.020   3.650
31010W        W99228   2.750  33.449   4.242
31011W        W99229  21.641  27.481   0.515
31012W        W99230  33.163   4.858  11.228
31013W        W99231  26.124  13.199   4.253
31014W        W99232  14.181  20.115   4.919
31015W        W99233  24.393  33.515   3.545
31016W        W99234  15.199   3.230   2.900
31017W        W99235  14.737  29.010   2.805
31018W        W99236  17.766  22.154  10.596
31019W        W99237  20.564  42.923   0.398
31020W        W99238  25.948   8.092   2.466
31021W        W99239   2.404  25.240   3.292
31022W        W99240  43.877  13.129   1.172
31023W        W99241  21.559  10.135  11.970
31024W        W99242  42.377  13.652  14.581
31025W        W99243   9.288  12.303  13.111
31026W        W99244  36.444  20.931  14.754
31027W        W99245  16.581  29.570  12.604
31028W        W99246  10.822  17.710   5.510
31029W        W99247   4.416  10.382  14.629
31030W        W99248  15.734   7.408   2.250
31031W        W99249   0.930  43.371   4.553
31032W        W99250  32.980  19.377   1.752
31033W        W99251  37.878  34.112  11.458
31034W        W99252   0.019  34.897   2.186
31035W        W99253  15.126  29.228   0.281
31036W        W99254  10.086   9.710   0.416
31037W        W99255   1.960  44.847   2.427
31038W        W99256   0.875  12.601   0.982
31039W        W99257  19.998   4.913  11.786
31040W        W99258  17.752   1.303  11.545
31041W        W99259  22.719  18.236   3.180
31042W        W99260  37.551  22.268  12.978
31043W        W99261  42.548  24.906   0.707
31044W        W99262  15.742  38.834  11.915
31045W        W99263  35.957  22.091  13.034
31046W        W99264  20.242   5.417   0.404
31047W        W99265   1.831  37.133  12.163
31048W        W99266  23.681  30.642  12.529
31049W        W99267   6.942  16.188  10.569
31050W        W99268  23.666  40.542  10.267
31051W        W99269   1.155   5.703   0.790
31052W        W99270  25.728   3.147   4.073
31053W        W99271   4.762  31.661   3.645
31054W        W99272  38.707  22.676   2.890
31055W        W99273  23.769  12.737   4.959
31056W        W99274  29.556  44.310   2.887
31057W        W99275   3.768  23.816  12.186
31058W        W99276  16.315  38.893  14.505
31059W        W99277  19.649  14.661   0.643
31060W        W99278   3.044  22.134  13.053
31061W        W99279   8.888   9.636   2.974
31062W        W99280  31.918  33.354  13.422
31063W        W99281  42.993   5.311   1.382
31064W        W99282  30.452  32.721   1.664
31065W        W99283   9.861  26.138   0.805
31066W        W99284  24.186  39.627   2.745
31067W        W99285  14.339  30.900  13.834
31068W        W99286  25.036  40.481   4.197
31069W        W99287   7.949  33.607  10.694
31070W        W99288  21.443  34.931  14.268
31071W        W99289  20.957  10.842   4.205
31072W        W99290  39.517  42.866   3.657
31073W        W99291  37.526  30.113  11.616
31074W        W99292   5.698  32.011  13.921
31075W        W99293   9.570  11.719  14.067
31076W        W99294  23.770  40.661  13.928
31077W        W99295  39.881  24.640   3.475
31078W        W99296  18.283  32.097  12.111
31079W        W99297  21.006  31.377   1.428
31080W        W99298  12.163  16.777  14.108
31081W        W99299  24.139  26.663  13.624
31082W        W99300  34.535  43.961  11.987
31083W        W99301  39.162  30.573  14.347
31084W        W99302  29.160  38.294   4.601
31085W        W99303  12.779  10.061  10.745
31086W        W99304  20.804   2.189  14.308
31087W        W99305  13.707  40.879  13.459
31088W        W99306  40.482  39.062  14.768
31089W        W99307  15.512  31.086  11.241
31090W        W99308  36.814  19.315   3.293
31091W        W99309  27.552  32.864   1.447
31092W        W99310  20.181  41.590  11.005
31093W        W99311  37.546  42.554   1.927
31094W        W99312  14.681   3.225  11.342
31095W        W99313   5.407   8.102   2.758
31096W        W99314  20.150  20.892   4.830
31097W        W99315  24.216   0.829  11.981
31098W        W99316  43.490  28.844   1.057
31099W        W99317  39.210   6.369  11.584
31100W        W99318  11.245   3.960  14.275
31101W        W99319  37.355  44.433   4.751
31102W        W99320  28.674  44.959   2.747
31103W        W99321   6.925  41.892   1.832
31104W        W99322  10.386  43.123   2.248
31105W        W99323  29.910  38.714  12.303
31106W        W99324  27.496  44.931   2.134
31107W        W99325  39.730   5.257   4.963
31108W        W99326  29.252  41.332   0.486
31109W        W99327  10.369  26.307  14.039
31110W        W99328   1.313   1.829   2.382
31111W        W99329  18.660   3.790   3.186
31112W        W99330  32.416  19.773  10.850
31113W        W99331  14.710  34.494   0.438
31114W        W99332  27.005  38.771  10.493
31115W        W99333  38.777  44.414   0.350
31116W        W99334  30.080  33.332   1.377
31117W        W99335   0.510  31.437  11.173
31118W        W99336  36.940   0.264  14.731
31119W        W99337   2.304  22.623   1.701
31120W        W99338   0.754  28.973  11.581
31121W        W99339   4.697  36.471  11.097
31122W        W99340   3.958  32.130  12.992
31123W        W99341  34.088  14.073   5.067
31124W        W99342  10.491  35.048  12.930
31125W        W99343   8.885  43.557   1.293
31126W        W99344   0.884  14.584   3.645
31127W        W99345  30.891   6.314  14.880
31128W        W99346   8.945  13.337  11.653
31129W        W99347  19.264  30.446   3.476
31130W        W99348  17.669  21.425  12.070
31131W        W99349  18.034   6.048  13.474
31132W        W99350  26.557  31.444  14.740
31133W        W99351   7.768  35.772  13.344
31134W        W99352  37.312   8.683   0.289
31135W        W99353  32.022  28.709  13.976
31136W        W99354   4.637  37.318  11.661
31137W        W99355  14.297  30.389   0.519
31138W        W99356  18.093  36.819   0.373
31139W        W99357  22.020  41.690  12.314
31140W        W99358   1.566  35.746  11.070
31141W        W99359  35.408   4.503  11.351
31142W        W99360  13.143  25.886  14.442
31143W        W99361  11.619  18.025  12.782
31144W        W99362   4.304  17.536   3.325
31145W        W99363   9.655   9.229   0.543
31146W        W99364  31.642  31.932  11.757
31147W        W99365  19.914  14.646   3.455
31148W        W99366  12.826  10.512   0.039
31149W        W99367  32.627   5.738   1.407
31150W        W99368  18.482   3.286  11.993
31151W        W99369  37.880  23.091  13.290
31152W        W99370  22.048  26.709   2.799
31153W        W99371  18.108  21.087   0.023
31154W        W99372  28.376  15.125  14.547
31155W        W99373   6.677  23.001   3.844
31156W        W99374   5.509  19.232  11.980
31157W        W99375  10.502  37.025   5.140
31158W        W99376  13.891  23.227   4.290
31159W        W99377  35.112  41.598  11.100
31160W        W99378   9.611   6.233   1.641
31161W        W99379  27.354  41.332   2.816
31162W        W99380  23.058  19.073   2.209
31163W        W99381  20.518  21.653  12.481
31164W        W99382  36.404  28.282  13.333
31165W        W99383  12.155   2.832   1.221
31166W        W99384  15.901  23.214   0.467
31167W        W99385  36.938  33.918  10.347
31168W        W99386  22.516  32.634   2.234
31169W        W99387   9.702  44.883  14.246
31170W        W99388  15.582  30.901   1.017
31171W        W99389  39.503  28.139  11.094
31172W        W99390  36.056  41.228   2.247
31173W        W99391  37.810  36.370  12.148
31174W        W99392  42.475  34.141   0.910
31175W        W99393   3.433  21.180  11.662
31176W        W99394  11.327  16.740   0.822
31177W        W99395  32.622  20.016   0.585
31178W        W99396  35.629   4.730   3.731
31179W        W99397   0.866  21.865   4.197
31180W        W99398  21.004  33.344   1.345
31181W        W99399  14.096   9.345   3.370
31182W        W99400   4.291  13.641  14.826
31183W        W99401   0.895  29.470   0.438
31184W        W99402   3.381  16.668   3.460
31185W        W99403  24.437   8.754   2.165
31186W        W99404   6.156  18.045  12.890
31187W        W99405  25.923   2.543  13.434
31188W        W99406  15.694   4.850  12.108
31189W        W99407  33.347  32.180   2.880
31190W        W99408  19.219  31.982  11.938
31191W        W99409  22.987  29.567  12.483
31192W        W99410   0.491  31.468  14.194
31193W        W99411   5.876  28.164   3.092
31194W        W99412  21.184   4.728   1.659
31195W        W99413  13.322  36.045  14.320
31196W        W99414  22.234   1.526  14.797
31197W        W99415  24.903   8.903   0.370
31198W        W99416  27.273  41.079  13.447
31199W        W99417  17.177  11.551   1.214
31200W        W99418   4.765  25.840   4.597
31201W        W99419  31.076  24.999  14.538
31202W        W99420  30.870  26.958   1.846
31203W        W99421  26.235  11.117  13.156
31204W        W99422   3.962  20.494   3.603
31205W        W99423  19.668  28.264   3.209
31206W        W99424  37.343  39.350  14.193
31207W        W99425  24.710  13.456   4.822
31208W        W99426  26.635  12.918   1.959
31209W        W99427  37.822   2.389  12.484
31210W        W99428  39.046  33.423  10.701
31211W        W99429   5.199  15.056   1.100
31212W        W99430  20.716   2.011   3.145
31213W        W99431  13.081  10.882   1.699
31214W        W99432  43.028   8.149  12.480
31215W        W99433  29.885   2.301   1.228
31216W        W99434  30.872  23.127  13.892
31217W        W99435  37.118   4.680   4.180
31218W        W99436  35.954  33.257   4.847
31219W        W99437  14.107   1.484  12.447
31220W        W99438  18.606  41.694  12.076
31221W        W99439  13.611  34.082  10.658
31222W        W99440  35.492   7.247   0.902
31223W        W99441  19.789  24.613  12.908
31224W        W99442  25.998  22.116  14.957
31225W        W99443  30.029  23.234  12.575
31226W        W99444   7.613  32.015   3.296
31227W        W99445  36.852  36.102   0.358
31228W        W99446  41.337   9.105  11.151
31229W        W99447  35.606   4.271   0.367
31230W        W99448  28.937  29.880  12.086
31231W        W99449  29.199   6.133   4.193
31232W        W99450  21.127  32.599  13.375
31233W        W99451  29.925  35.130  13.580
31234W        W99452   6.767   7.284   1.712
31235W        W99453   7.558  42.869   4.021
31236W        W99454  38.198  43.701  11.136
31237W        W99455  34.039  17.616   2.157
31238W        W99456  42.928   4.159  14.981
31239W        W99457  19.749  12.034  14.585
31240W        W99458  40.742   1.626  10.363
31241W        W99459  25.388  10.978  12.589
31242W        W99460  33.446  42.286   4.196
31243W        W99461   4.320  22.543  12.366
31244W        W99462  39.528  12.796   4.056
31245W        W99463   3.747  14.148   3.405
31246W        W99464  34.841  27.128   1.921
31247W        W99465   6.631  31.621   1.335
31248W        W99466   9.402  42.280  13.409
31249W        W99467  27.491   6.375  11.040
31250W        W99468  22.755  32.374  12.634
31251W        W99469  18.212   0.780   4.894
31252W        W99470  25.684  29.978   1.607
31253W        W99471   0.640  16.031   1.261
31254W        W99472  25.115  36.253   4.570
31255W        W99473  39.988   3.371  12.403
31256W        W99474  33.572  30.604   5.258
31257W        W99475  38.987  25.038   1.578
31258W        W99476  44.437  28.964   4.525
31259W        W99477  10.445   3.261  12.698
31260W        W99478   2.777  38.329  10.790
31261W        W99479   6.425  13.308  14.996
31262W        W99480  37.319   3.761   2.412
31263W        W99481  33.555  38.266  14.862
31264W        W99482   3.958  23.300   2.099
31265W        W99483  22.325   9.169   3.746
31266W        W99484  38.514   9.322   0.248
31267W        W99485   2.499  36.545  12.886
31268W        W99486   6.561  22.813   4.554
31269W        W99487  16.812  24.459  12.386
31270W        W99488   6.439   5.717  12.382
31271W        W99489  24.630  16.077  12.477
31272W        W99490  12.379  32.172  13.520
31273W        W99491  26.434  17.504  13.707
31274W        W99492  21.769  20.053   2.782
31275W        W99493   3.641   3.749   1.683
31276W        W99494   5.204  42.899   2.669
31277W        W99495   2.522   9.358  12.420
31278W        W99496  43.739  38.917   2.066
31279W        W99497   3.436  27.766   4.065
31280W        W99498   6.301  36.938   2.300
31281W        W99499  38.333  16.567   1.734
31282W        W99500  32.120  39.416  14.047
31283W        W99501   5.253  43.834  14.296
31284W        W99502   1.889  15.340  13.838
31285W        W99503  33.962  10.170   4.637
31286W        W99504   1.251  42.689   3.338
31287W        W99505  36.862  13.759  12.796
31288W        W99506  13.596  14.188  13.092
31289W        W99507  12.788  30.094   1.378
31290W        W99508  25.061   0.430  13.982
31291W        W99509  27.424   4.958   1.923
31292W        W99510  40.869   3.353  10.731
31293W        W99511   3.299  26.887   3.299
31294W        W99512  41.650  33.781  10.981
31295W        W99513  40.231  42.311  13.559
31296W        W99514  19.235   1.837   0.672
31297W        W99515  25.539  14.826   4.097
31298W        W99516  37.745  37.120  13.972
31299W        W99517   2.885  12.849   0.401
31300W        W99518   8.776  26.437   1.722
31301W        W99519  13.991  16.795  10.585
31302W        W99520  28.371  20.548  12.179
31303W        W99521  22.482   8.051   3.578
31304W        W99522  31.649  38.603   2.777
31305W        W99523  20.966  39.736  10.269
31306W        W99524  41.050  23.762   4.146
31307W        W99525  36.087  16.769  10.474
31308W        W99526  38.509   0.843  14.666
31309W        W99527  18.813  37.011  12.050
31310W        W99528  22.033  29.659   0.892
31311W        W99529  41.520  25.118   2.786
31312W        W99530  41.374  26.597  14.484
31313W        W99531  37.001  10.872  14.252
31314W        W99532  40.419  29.426   4.373
31315W        W99533  30.552  22.021  13.392
31316W        W99534  44.990  21.162  14.457
31317W        W99535  15.884  11.900  11.027
31318W        W99536  30.305  15.655  14.342
31319W        W99537  15.865   0.959   0.001
31320W        W99538  37.078   0.754  14.924
31321W        W99539   0.179   9.649  14.004
31322W        W99540   9.032  10.541  14.429
31323W        W99541  44.486  17.331   2.955
31324W        W99542  17.281  43.715   0.346
31325W        W99543  32.019  13.166   4.027
31326W        W99544   5.206  20.416   3.974
31327W        W99545  32.337   6.160   5.079
31328W        W99546  30.083  24.939  13.059
31329W        W99547   7.271  42.420   4.056
31330W        W99548   8.439  42.351  10.216
31331W        W99549  35.328  25.134  13.506
31332W        W99550  32.850  32.138   3.843
31333W        W99551  25.056  42.258  13.917
31334W        W99552   3.034   1.328   2.800
31335W        W99553  25.834  37.906   1.839
31336W        W99554  24.271  13.542   3.996
31337W        W99555  13.900   7.880   2.969
31338W        W99556  17.816  15.784   3.345
31339W        W99557  33.201   0.758  11.642
31340W        W99558  22.003  26.576  13.379
31341W        W99559  33.563   1.716  12.641
31342W        W99560  16.760  33.025  10.665
31343W        W99561  38.409  16.914  13.520
31344W        W99562  11.854  16.650   1.691
31345W        W99563   3.974   3.724   3.167
31346W        W99564   5.827  16.559   1.348
31347W        W99565  13.589  30.008  14.349
31348W        W99566  38.932  18.967  13.950
31349W        W99567  25.249  28.156   4.042
31350W        W99568  28.860  44.756  12.052
31351W        W99569  19.670   6.760  11.299
31352W        W99570  10.284  30.881  11.192
31353W        W99571  10.184  11.187   3.590
31354W        W99572  43.035  22.698   1.370
31355W        W99573  14.217  25.928   1.253
31356W        W99574  16.340  38.410   0.776
31357W        W99575  26.269   7.338   4.188
31358W        W99576  39.542   0.227   3.598
31359W        W99577  17.590  16.804  12.618
31360W        W99578   7.331  29.387   3.617
31361W        W99579  20.311   7.439   2.789
31362W        W99580  14.082   7.532   3.531
31363W        W99581  10.739  18.859   0.466
31364W        W99582  41.852  40.927   2.718
31365W        W99583  27.042  36.955  12.643
31366W        W99584   1.511  41.612  14.867
31367W        W99585   6.571  44.476  10.888
31368W        W99586  21.322  30.053  11.909
31369W        W99587  16.158  16.258  14.433
31370W        W99588  41.996  18.727  13.018
31371W        W99589  16.224  40.546   1.299
31372W        W99590  19.368  21.740   4.184
31373W        W99591  34.095  29.626  12.073
31374W        W99592  37.930  26.596   0.722
31375W        W99593  20.341   5.065   3.408
31376W        W99594   7.340  39.354  11.319
31377W        W99595   3.697  41.432   3.206
31378W        W99596  14.675  13.335   4.580
31379W        W99597  19.273  30.325  13.917
31380W        W99598  34.058  29.633  12.876
31381W        W99599   4.240   5.378   2.196
31382W        W99600   8.490  34.454  12.629
31383W        W99601   3.203  15.615   4.645
31384W        W99602  36.454  35.051   3.834
31385W        W99603  10.705  20.935  11.816
31386W        W99604  33.180   1.556  10.615
31387W        W99605  35.056  41.778   2.736
31388W        W99606  10.133  30.075  14.417
31389W        W99607  13.165  39.292   3.239
31390W        W99608  15.293  40.478  13.084
31391W        W99609  20.545  17.043   2.667
31392W        W99610  16.782  25.552  10.990
31393W        W99611   0.718  31.004   1.526
31394W        W99612  36.774   8.803  10.226
31395W        W99613  16.573  16.742  12.899
31396W        W99614  35.856  11.749  13.963
31397W        W99615  33.351   0.892   3.754
31398W        W99616  32.470  37.909   1.290
31399W        W99617  22.012  39.500   3.206
31400W        W99618  37.869   3.990  14.817
31401W        W99619  31.799  21.523   3.424
31402W        W99620   5.337  12.786  14.984
31403W        W99621  28.866  20.597   0.040
31404W        W99622  40.283   8.314   4.662
31405W        W99623   9.239  21.041  13.195
31406W        W99624  44.473  44.579   0.449
31407W        W99625   7.235  29.119  14.547
31408W        W99626  13.523  22.263  13.152
31409W        W99627  18.779  34.486   4.629
31410W        W99628  40.596  25.652  12.942
31411W        W99629   9.624  30.946   3.104
31412W        W99630  25.161  41.715   1.873
31413W        W99631  17.887   4.830  10.858
31414W        W99632  16.460  16.226   0.778
31415W        W99633  18.174  18.285   1.649
31416W        W99634  38.382  39.244  11.961
31417W        W99635  24.571  15.967   0.838
31418W        W99636  14.692  23.282   1.828
31419W        W99637  15.027  36.570  14.579
31420W        W99638  17.412   2.483  13.417
31421W        W99639  42.284  31.721  13.783
31422W        W99640  40.202   1.438  11.597
31423W        W99641  27.140  43.052  14.501
31424W        W99642  13.654  30.149   4.951
31425W        W99643   7.888   7.026   2.449
31426W        W99644  12.296  37.978   4.587
31427W        W99645  39.610   6.846  12.535
31428W        W99646  19.250  13.455   2.543
31429W        W99647  36.333  11.091   3.609
31430W        W99648  40.413   5.643  10.737
31431W        W99649  26.173  43.384   2.832
31432W        W99650  11.054  14.629  11.186
31433W        W99651  33.128  25.697  14.322
31434W        W99652  15.160  31.537  12.064
31435W        W99653  16.873  25.975   4.636
31436W        W99654  10.060  23.005   4.476
31437W        W99655   0.604  34.985   1.319
31438W        W99656  33.113  17.213   3.402
31439W        W99657  20.471  10.642   5.047
31440W        W99658  39.334   5.748   0.287
31441W        W99659  26.640   7.584   1.386
31442W        W99660  36.945  44.502   0.378
31443W        W99661  21.105   2.618  14.465
31444W        W99662   7.903  28.449  10.676
31445W        W99663  24.834  25.159  14.036
31446W        W99664   5.696  23.900   0.381
31447W        W99665  37.593   0.773  14.924
31448W        W99666  41.362  16.103   4.765
31449W        W99667   7.415  33.507  12.914
31450W        W99668  22.042  31.571   3.797
31451W        W99669  24.224  18.383   1.864
31452W        W99670  39.910  31.890   1.260
31453W        W99671  38.370   7.203  14.849
31454W        W99672  38.975  31.454  12.799
31455W        W99673   8.688  11.800  13.687
31456W        W99674  16.258   7.623  10.368
31457W        W99675  14.668  37.940  10.983
31458W        W99676  12.047  10.773  10.560
31459W        W99677  40.069  12.018   4.209
31460W        W99678  24.945  30.939   2.577
31461W        W99679  32.432   7.278  14.205
31462W        W99680   4.442  12.838   4.133
31463W        W99681  13.075  15.346   1.224
31464W        W99682   5.443  31.902  10.700
31465W        W99683  13.139  10.035   3.361
31466W        W99684  33.480   1.909  14.128
31467W        W99685  12.547  38.807   1.103
31468W        W99686  26.664  30.378  12.460
31469W        W99687   4.038  40.110   5.382
31470W        W99688  14.650  20.567  14.654
31471W        W99689  15.416  30.610  12.810
31472W        W99690  14.878   1.381   0.729
31473W        W99691   1.757  24.681   0.232
31474W        W99692  21.611  21.314  13.990
31475W        W99693   1.904   0.239  13.673
31476W        W99694  22.279  42.490  14.574
31477W        W99695  39.373  37.559   4.748
31478W        W99696  35.043  21.902  11.102
31479W        W99697   0.111  35.108   4.778
31480W        W99698  28.247   9.126  11.846
31481W        W99699  33.181  28.469   2.190
31482W        W99700  43.681  35.829  10.991
31483W        W99701   5.331   1.962   2.782
31484W        W99702  19.866  37.618  11.457
31485W        W99703  11.311  35.394  13.603
31486W        W99704  29.319   5.360   1.288
31487W        W99705  24.826  13.628   4.046
31488W        W99706   8.625  12.655   1.566
31489W        W99707  22.023  34.626  11.556
31490W        W99708  11.466   8.868   0.232
31491W        W99709  23.659  12.649   2.405
31492W        W99710  10.799  31.542   4.111
31493W        W99711  26.699  28.830   3.230
31494W        W99712  37.003  37.427   0.229
31495W        W99713  13.551   2.028   4.297
31496W        W99714  40.382  26.904  12.990
31497W        W99715   4.851  26.876   4.559
31498W        W99716  20.955  11.922   2.265
31499W        W99717  34.811  40.308  12.568
31500W        W99718  26.763  26.162   1.752
31501W        W99719  20.043  31.993  14.400
31502W        W99720  11.751  11.884  12.055
31503W        W99721  29.154  20.214   2.917
31504W        W99722   0.441   4.394  13.440
31505W        W99723  26.509  10.269   4.593
31506W        W99724  39.269  19.613   4.582
31507W        W99725   0.603   8.922   9.745
31508W        W99726   7.926  26.030  14.080
31509W        W99727   7.782  20.452  10.661
31510W        W99728   0.730  43.502  14.346
31511W        W99729  27.639  17.536  14.549
31512W        W99730  17.531  10.744  12.596
31513W        W99731  44.968  27.539   0.820
31514W        W99732  34.409  19.964  13.770
31515W        W99733  42.187   6.231  11.938
31516W        W99734   1.985  33.995   0.455
31517W        W99735  12.078   1.977   4.849
31518W        W99736  16.929  27.439  14.967
31519W        W99737   9.152   4.765   2.627
31520W        W99738   8.679  38.026   0.523
31521W        W99739  18.219  19.406   0.402
31522W        W99740  33.882  38.801  14.364
31523W        W99741  37.833  44.660   4.656
31524W        W99742   3.542  15.862  14.860
31525W        W99743  12.588  28.837   1.752
31526W        W99744  36.934   8.617  13.958
31527W        W99745  44.588  24.782  11.934
31528W        W99746  10.112  14.619  13.026
31529W        W99747  30.924   2.439   9.826
31530W        W99748  17.533  27.218   2.791
31531W        W99749   7.750  30.159  12.058
31532W        W99750  30.182   5.914   4.779
31533W        W99751  35.668  13.108  11.210
31534W        W99752  43.364  37.824   0.836
31535W        W99753  32.914  26.025  10.094
31536W        W99754  30.394  30.556  12.933
31537W        W99755  23.129  31.012   2.594
31538W        W99756  27.959  37.781  11.887
31539W        W99757  20.135  19.561   1.703
31540W        W99758  40.802  34.117   1.723
31541W        W99759  12.634  28.551   3.838
31542W        W99760   6.983  20.738   4.406
31543W        W99761  38.299   0.811   3.672
31544W        W99762  11.503  40.438  11.579
31545W        W99763  10.833  17.289   4.602
31546W        W99764  43.774   4.851  11.585
31547W        W99765  16.681  26.478   3.383
31548W        W99766  14.702  36.318  14.227
31549W        W99767  26.241  23.892  12.343
31550W        W99768  14.840  29.551   0.680
31551W        W99769  38.833  32.486  14.304
31552W        W99770  22.259   5.941   1.206
31553W        W99771   5.342  26.615   2.406
31554W        W99772  16.567  43.899  10.672
31555W        W99773  31.979  41.953  14.422
31556W        W99774  27.961   6.432   4.957
31557W        W99775  38.964  41.007  11.763
31558W        W99776   3.628  28.474   0.996
31559W        W99777   2.796  17.873  10.824
31560W        W99778  17.606  32.358  14.872
31561W        W99779  15.170  41.784  14.441
31562W        W99780   2.703  41.021  12.523
31563W        W99781   0.799  12.362  12.086
31564W        W99782  28.467  29.398   2.606
31565W        W99783  41.389  20.226   0.752
31566W        W99784   5.338  32.570  11.542
31567W        W99785  12.113   7.455   1.466
31568W        W99786  21.703   3.403  14.836
31569W        W99787  15.546  11.591   5.045
31570W        W99788   3.333  38.514  14.686
31571W        W99789  32.074  12.528  10.267
31572W        W99790  30.546  42.284   0.820
31573W        W99791   2.892  12.133  13.618
31574W        W99792   7.416  39.082  14.323
31575W        W99793  21.813  29.847  13.977
31576W        W99794   0.285  11.287  11.552
31577W        W99795  37.596  41.205  10.788
31578W        W99796  44.776  28.509   4.509
31579W        W99797  22.498   0.865   4.521
31580W        W99798  26.679  39.255  14.393
31581W        W99799  14.081  22.751   0.879
31582W        W99800  32.040  29.518   2.129
31583W        W99801  39.821  25.631   0.356
31584W        W99802  42.409   3.430  14.848
31585W        W99803   9.821  13.653   3.162
31586W        W99804  43.370  23.245  14.974
31587W        W99805  39.490  11.226   2.216
31588W        W99806   9.767  37.664  11.674
31589W        W99807  14.012  43.177  10.321
31590W        W99808  40.091  41.317   0.305
31591W        W99809  38.946  40.406   2.282
31592W        W99810  30.747  32.941  13.511
31593W        W99811  16.591  13.329   2.881
31594W        W99812  17.393  17.535  13.596
31595W        W99813  14.138  12.597  10.458
31596W        W99814   1.469   5.467   2.171
31597W        W99815  32.584  21.405  13.847
31598W        W99816  22.042  28.608  12.955
31599W        W99817  39.618  11.398   2.693
31600W        W99818   8.422  14.982   2.338
31601W        W99819   2.481  11.772  12.174
31602W        W99820  26.722  25.600   0.430
31603W        W99821  24.782  15.031   1.702
31604W        W99822  27.870  32.652  12.894
31605W        W99823  25.584   7.465  13.140
31606W        W99824  28.868  23.506   0.956
31607W        W99825  34.024  23.245  12.002
31608W        W99826  23.629   4.380  10.760
31609W        W99827   8.301   3.117  12.020
31610W        W99828  44.289   5.343   4.077
31611W        W99829   7.307  24.127   0.746
31612W        W99830  42.506  32.162  14.336
31613W        W99831  29.568  23.087  10.009
31614W        W99832  31.946  26.834   4.101
31615W        W99833  37.080  11.105  13.775
31616W        W99834  27.156  27.459  13.853
31617W        W99835  17.774  32.936  12.575
31618W        W99836   1.655  41.475   2.955
31619W        W99837  28.355  43.703  11.923
31620W        W99838  24.112  11.781   4.210
31621W        W99839  22.700  27.029  14.272
31622W        W99840  39.848   5.940   4.092
31623W        W99841  14.493  25.728  12.458
31624W        W99842   2.564   4.330   1.759
31625W        W99843  10.920   8.346  13.423
31626W        W99844  44.951  19.332  14.588
31627W        W99845  18.730   0.999   3.024
31628W        W99846  34.189  31.665   4.125
31629W        W99847   9.225  10.186  11.833
31630W        W99848  43.820  38.499  13.801
31631W        W99849  36.977  33.384  13.471
31632W        W99850  18.594  43.301  12.004
31633W        W99851  32.106  11.776  11.393
31634W        W99852  11.338  33.292   4.031
31635W        W99853  17.638  38.980  11.072
31636W        W99854  43.097  43.573   3.771
31637W        W99855  35.359  31.151  11.663
31638W        W99856  17.714   1.773  12.657
31639W        W99857  40.161  31.691   4.580
31640W        W99858  43.967  12.876  13.349
31641W        W99859   8.566  42.116   3.251
31642W        W99860  12.735  38.299   1.917
31643W        W99861  43.595  18.973   3.238
31644W        W99862  36.980  42.551  10.648
31645W        W99863  40.518  44.436  13.469
31646W        W99864  35.333  32.088   1.848
31647W        W99865   5.197  19.067  13.547
31648W        W99866   1.488  25.076   0.749
31649W        W99867  38.973  37.927   1.797
31650W        W99868   4.656  32.907  13.363
31651W        W99869  40.488  29.053  12.135
31652W        W99870  39.802  10.935  12.099
31653W        W99871  16.843  32.438  11.391
31654W        W99872  42.402  24.666   3.653
31655W        W99873  44.776   9.508  10.775
31656W        W99874   5.683  41.831   0.409
31657W        W99875  37.844  23.764   1.931
31658W        W99876  12.921   4.675  13.433
31659W        W99877   9.403  19.908   1.262
31660W        W99878   3.986   6.590  14.018
31661W        W99879  39.377  18.618   0.300
31662W        W99880  42.910  44.288  13.015
31663W        W99881  33.861  30.561   0.916
31664W        W99882  37.975  35.018  13.378
31665W        W99883  40.758  18.199   1.349
31666W        W99884  31.239  40.177  11.529
31667W        W99885  27.530  11.112  13.048
31668W        W99886   2.763  21.660   4.664
31669W        W99887   6.886  38.603  12.220
31670W        W99888  10.753   9.257  12.175
31671W        W99889   0.356  40.851   2.708
31672W        W99890  21.665  37.047   0.031
31673W        W99891  19.554  10.820   4.633
31674W        W99892  37.931   9.763  14.760
31675W        W99893  32.169  43.542   1.091
31676W        W99894   4.717  40.596   1.860
31677W        W99895  16.081   3.447   2.203
31678W        W99896  20.070  39.562   3.712
31679W        W99897  10.598  42.787   3.326
31680W        W99898  37.538  43.675  12.903
31681W        W99899  41.991  25.901  14.489
31682W        W99900   4.313  16.589  13.587
31683W        W99901  41.700  14.194  14.812
31684W        W99902  21.102  38.478  11.886
31685W        W99903  34.799  10.073  14.956
31686W        W99904  20.689  14.095   4.505
31687W        W99905  32.105  19.229  10.646
31688W        W99906  27.888  17.861   3.247
31689W        W99907   4.378  17.498  11.043
31690W        W99908  31.595  43.537   2.035
31691W        W99909  20.999  20.406  12.322
31692W        W99910  11.902  44.421  14.169
31693W        W99911   7.798  33.785  13.607
31694W        W99912   8.484  22.336   1.211
31695W        W99913  13.777  16.725  12.470
31696W        W99914  20.734  21.466  14.456
31697W        W99915  22.865   6.117  11.642
31698W        W99916  39.504  24.998  11.913
31699W        W99917  17.602   7.932   2.456
31700W        W99918  32.031  35.610   1.642
31701W        W99919  12.655  36.801   1.750
31702W        W99920  28.080  17.833   4.145
31703W        W99921  34.967  12.522  14.540
31704W        W99922  36.641  21.203  12.522
31705W        W99923  32.159  10.150   0.367
31706W        W99924   4.438   1.581   4.247
31707W        W99925  20.347  19.093   3.734
31708W        W99926   3.726  15.689  14.309
31709W        W99927   8.889  26.596  12.503
31710W        W99928  27.722  10.663  11.560
31711W        W99929  12.421   5.329   0.131
31712W        W99930  23.216  44.367  10.662
31713W        W99931   7.373  43.323  11.946
31714W        W99932  20.876  34.288  12.558
31715W        W99933  28.222  13.062   0.069
31716W        W99934   2.891  20.291  12.962
31717W        W99935  18.787  29.141   4.726
31718W        W99936   6.680  19.244   1.147
31719W        W99937  28.614   7.764   3.594
31720W        W99938   3.320  38.655   2.816
31721W        W99939   2.525  36.027  14.529
31722W        W99940  18.689  39.849  10.609
31723W        W99941   8.310  38.435  14.964
31724W        W99942  25.588  33.056   1.272
31725W        W99943  34.089   6.852   1.360
31726W        W99944  29.667  20.294  13.969
31727W        W99945  14.074   3.766  10.715
31728W        W99946  38.852  37.273   1.402
31729W        W99947  15.682   6.273  10.696
31730W        W99948  42.198  16.159  14.524
31731W        W99949  28.544  12.756  13.591
31732W        W99950   7.399  32.715  12.533
31733W        W99951   8.994   4.376   0.853
31734W        W99952   9.696  38.955   3.537
31735W        W99953  25.484  28.645  10.708
31736W        W99954  31.061   8.444   4.706
31737W        W99955  44.357  11.393  12.503
31738W        W99956  38.661   2.001  14.388
31739W        W99957   7.995  40.526   3.518
31740W        W99958   1.949  39.378  13.365
31741W        W99959   1.484   0.803   3.356
31742W        W99960  31.155  43.685  12.594
31743W        W99961  18.046   7.231  14.870
31744W        W99962   6.010   8.777   3.192
31745W        W99963  30.092  29.635   3.091
31746W        W99964  35.107  31.290   4.480
31747W        W99965  36.943  14.147   2.235
31748W        W99966  17.114  33.187  12.348
31749W        W99967  42.969  14.783  14.229
31750W        W99968  33.104   3.470   1.310
31751W        W99969  32.476  10.302   1.388
31752W        W99970  32.053  39.872   0.873
31753W        W99971  14.609  20.440  12.585
31754W        W99972   3.991  12.815   0.331
31755W        W99973  30.354  16.187   4.826
31756W        W99974   2.947  11.528   4.558
31757W        W99975  30.591  33.517   5.046
31758W        W99976  33.423  42.337  10.307
31759W        W99977  43.792   9.292   0.994
31760W        W99978  11.306   8.024  11.045
31761W        W99979  37.525  27.133   2.343
31762W        W99980  19.800  36.575   4.203
31763W        W99981   9.155  19.606   4.674
31764W        W99982  23.525   9.205  12.850
31765W        W99983  43.498  34.504  11.116
31766W        W99984  15.645  37.072   2.308
31767W        W99985   9.221  20.666   2.354
31768W        W99986  24.571   0.357  14.860
31769W        W99987  18.785  29.874  13.499
31770W        W99988  16.053  30.610  13.484
31771W        W99989  36.578  24.154  10.671
31772W        W99990  20.520  26.814   4.021
31773W        W99991   1.934  19.529   3.231
31774W        W99992  20.710  11.451   1.294
31775W        W99993  32.875  30.929   3.314
31776W        W99994  19.530  23.731  14.800
31777W        W99995  24.084   3.496  10.780
31778W        W99996   3.180  19.110  13.943
31779W        W99997  18.166  29.600  10.646
31780W        W99998  41.482   9.144   2.798
31781W        W99999  12.101   0.511   4.604
31782W        W    0  32.037   1.792   4.521
31783W        W    1   5.586   5.960   4.106
31784W        W    2  19.869  32.676   4.157
31785W        W    3  32.502   3.774   3.729
31786W        W    4  19.994  22.293  12.902
31787W        W    5  15.059  44.542  14.798
31788W        W    6  25.962  39.983  10.695
31789W        W    7   8.329  41.130  10.016
31790W        W    8  29.972   6.423   1.792
31791W        W    9  26.624   1.149   3.781
31792W        W   10  43.869  30.035   1.389
31793W        W   11  39.669  29.167   2.283
31794W        W   12  23.706  38.809   0.490
31795W        W   13  26.711  36.185   2.008
31796W        W   14   0.547   5.692   1.659
31797W        W   15  12.662   2.223   2.788
31798W        W   16  26.968  14.812   0.423
31799W        W   17  30.221  18.568  12.337
31800W        W   18  23.256  43.900   1.287
31801W        W   19   0.838   2.737  10.741
31802W        W   20  41.272   5.953   4.107
31803W        W   21  33.572  24.225  11.025
31804W        W   22  12.223  13.347   1.672
31805W        W   23  20.124  44.895   4.624
31806W        W   24  35.681   5.341  14.379
31807W        W   25  29.944   2.944   3.698
31808W        W   26  30.580   6.829  12.942
31809W        W   27   6.989  21.683   1.954
31810W        W   28  27.981   2.362  14.403
31811W        W   29   8.325  10.665  14.840
31812W        W   30  32.533  40.812   0.818
31813W        W   31  28.054  33.447   0.774
31814W        W   32  36.569  41.552   4.387
31815W        W   33   5.252  15.179   0.489
31816W        W   34  26.188  28.425   1.771
31817W        W   35  15.155   8.843   3.073
31818W        W   36  28.474  30.078   1.855
31819W        W   37  43.273   6.134   4.129
31820W        W   38  32.657  36.648  12.383
31821W        W   39  37.321   7.097  11.649
31822W        W   40  19.004  14.120  14.615
31823W        W   41  36.368  26.801   4.023
31824W        W   42  31.109   5.947   3.633
31825W        W   43  34.335  31.617   0.003
31826W        W   44  16.443  41.344  11.165
31827W        W   45  25.098   8.714   3.177
31828W        W   46  39.719  15.821  10.918
31829W        W   47   2.528  41.777  11.171
31830W        W   48   3.497   6.933   2.801
31831W        W   49  17.263  32.213  12.481
31832W        W   50  37.310  40.086   2.143
31833W        W   51   3.917  41.140   4.138
31834W        W   52  21.700  10.294  13.517
31835W        W   53  32.973  34.242  14.316
31836W        W   54   2.067   5.259  14.871
31837W        W   55  17.055   9.331   3.212
31838W        W   56   9.732   8.764   5.034
31839W        W   57  36.442  22.707   0.832
31840W        W   58  26.972  34.463  13.213
31841W        W   59  31.010  13.804   4.015
31842W        W   60   7.184  32.881   2.792
31843W        W   61   8.840  23.419   3.770
31844W        W   62  20.019  36.118  12.345
31845W        W   63  42.315  33.817  11.100
31846W        W   64   9.178   4.880  13.994
31847W        W   65  36.016   6.417   4.219
31848W        W   66  11.658   2.884   4.925
31849W        W   67   3.594   6.641  13.489
31850W        W   68   4.641  27.630  13.125
31851W        W   69  36.026  43.335  10.757
31852W        W   70  41.420  18.079   1.963
31853W        W   71  14.982  44.785   4.126
31854W        W   72  16.084  10.571  14.375
31855W        W   73  29.840   3.173   2.353
31856W        W   74   1.890  26.457   2.950
31857W        W   75  10.633  43.958  11.556
31858W        W   76  42.044  32.586  11.485
31859W        W   77  19.072  41.390   2.346
31860W        W   78  25.180  28.391   0.774
31861W        W   79  41.994  44.192   1.191
31862W        W   80  19.579  15.276   1.476
31863W        W   81  24.745  10.666   0.497
31864W        W   82   3.307  20.453   2.829
31865W        W   83  36.427   7.849  13.319
31866W        W   84  21.773  10.951  11.216
31867W        W   85  19.961  32.677   0.376
31868W        W   86  17.373  13.911  12.540
31869W        W   87  40.822  37.546  11.965
31870W        W   88  29.626  30.588  13.408
31871W        W   89  24.789  43.885   2.438
31872W        W   90  39.164  31.131   1.536
31873W        W   91   1.650  15.198  12.479
31874W        W   92  26.414   0.388   4.208
31875W        W   93  38.715  34.393   3.732
31876W        W   94  10.704  24.454  11.412
31877W        W   95  44.886  31.548  13.400
31878W        W   96  23.206  10.460   4.237
31879W        W   97  18.633   6.977  13.929
31880W        W   98   0.245   6.197  11.425
31881W        W   99  35.145  18.128   2.880
31882W        W  100  17.103  37.732  12.174
31883W        W  101  15.771  15.089  12.538
31884W        W  102  27.675  15.259  12.493
31885W        W  103  32.042   9.953  14.358
31886W        W  104  28.644  41.375   3.221
31887W        W  105  11.867   6.659  11.524
31888W        W  106  30.432  33.643   4.156
31889W        W  107  37.613  19.224  11.468
31890W        W  108   6.381  32.891  14.936
31891W        W  109  44.747   6.812  14.351
31892W        W  110  11.497  10.240  14.319
31893W        W  111  31.344  42.064  11.545
31894W        W  112   1.976  21.974  12.797
31895W        W  113  39.376   6.509  13.479
31896W        W  114  34.845   1.650   0.187
31897W        W  115   7.329  21.667   4.583
31898W        W  116   4.840   6.673  11.175
31899W        W  117  27.461  29.926   2.810
31900W        W  118  22.834   2.209   4.567
31901W        W  119   2.685  12.698   4.103
31902W        W  120  23.318   9.135  12.366
31903W        W  121  37.840  18.649  12.821
31904W        W  122  30.045  39.545   1.361
31905W        W  123  22.492  27.020   2.342
31906W        W  124  35.273  25.342  12.108
31907W        W  125  35.483   9.870   9.959
31908W        W  126  20.257   4.725   1.787
31909W        W  127  18.574  40.831   0.582
31910W        W  128  41.526   8.636  11.123
31911W        W  129  22.634  39.012   1.897
31912W        W  130  15.297  18.328  11.117
31913W        W  131  13.194  38.016   4.650
31914W        W  132  32.358   4.847   3.623
31915W        W  133  37.089   9.120  13.219
31916W        W  134   7.417  16.131  14.795
31917W        W  135  16.842  11.170   0.165
31918W        W  136   5.986  14.566  10.638
31919W        W  137   1.339   6.999  11.393
31920W        W  138   2.860   6.204   1.957
31921W        W  139  20.173  35.578  11.159
31922W        W  140  39.548  17.059  13.981
31923W        W  141   9.643  20.553   2.744
31924W        W  142   3.810  41.276  10.461
31925W        W  143   6.959   4.793   3.016
31926W        W  144  41.242  39.347  11.119
31927W        W  145   7.343  33.779   4.135
31928W        W  146  10.754  21.131   2.654
31929W        W  147  24.587   2.738  10.527
31930W        W  148  22.687  16.625  14.451
31931W        W  149  26.228  33.815  11.090
31932W        W  150  38.948  36.405  14.363
31933W        W  151  17.714  44.312  10.687
31934W        W  152   2.021  38.473  11.269
31935W        W  153  15.128  15.699   0.963
31936W        W  154   2.064   9.205  13.357
31937W        W  155  38.616  24.995  13.965
31938W        W  156  38.328  20.269   1.957
31939W        W  157  34.441  34.378   4.627
31940W        W  158  12.206  14.257   1.762
31941W        W  159  36.909  40.766   1.574
31942W        W  160  29.957  11.480   0.488
31943W        W  161  36.125  15.091   4.028
31944W        W  162  29.540   7.197  10.723
31945W        W  163  12.745  41.603  12.353
31946W        W  164   6.673   1.935   3.295
31947W        W  165   5.768  11.834  14.991
31948W        W  166   7.585   4.937  11.080
31949W        W  167   7.884  33.912   4.795
31950W        W  168   9.169  41.357  14.588
31951W        W  169  25.459  25.075   3.148
31952W        W  170  20.679  16.231  14.517
31953W        W  171  26.988  22.950   3.715
31954W        W  172  37.236  41.315  12.881
31955W        W  173   0.081  15.119  12.588
31956W        W  174  33.102   5.754   0.006
31957W        W  175  24.705   3.126  12.428
31958W        W  176  26.166   0.649   2.532
31959W        W  177  10.637  20.157  12.871
31960W        W  178  17.225  36.087   3.045
31961W        W  179  21.574  14.427  11.187
31962W        W  180   8.745   2.732   4.332
31963W        W  181  41.065   2.343   9.784
31964W        W  182  29.044  22.960  12.623
31965W        W  183  41.321  40.558   3.611
31966W        W  184  27.933   0.246   4.204
31967W        W  185  15.073  43.931   1.738
31968W        W  186  42.892  10.688  14.520
31969W        W  187   1.866  35.570  12.152
31970W        W  188  32.479  37.394   0.571
31971W        W  189  40.462   8.401  13.080
31972W        W  190  25.018  10.205   4.504
31973W        W  191  11.537  30.424  10.231
31974W        W  192  34.885  16.521   3.308
31975W        W  193  24.156  34.863   3.240
31976W        W  194  25.122  15.836   1.704
31977W        W  195  28.698   8.278  10.423
31978W        W  196  26.769  30.244   4.539
31979W        W  197  43.013  43.253  11.352
31980W        W  198  33.340   4.330   1.760
31981W        W  199  22.010  20.180   4.209
31982W        W  200  34.915  37.434   1.173
31983W        W  201  24.581  14.733   3.568
31984W        W  202   5.693  16.353  11.066
31985W        W  203  20.523  38.033   1.494
31986W        W  204  35.434  10.367   4.101
31987W        W  205  18.238  39.949  10.365
31988W        W  206  22.434   1.257  14.408
31989W        W  207  31.611  20.189  14.915
31990W        W  208   5.321  35.566  14.328
31991W        W  209   5.751  27.137   2.117
31992W        W  210   4.598  32.881   4.045
31993W        W  211  37.237  16.153   2.186
31994W        W  212  21.566   9.780  13.512
31995W        W  213  38.075   6.264   1.980
31996W        W  214  28.087  43.476  13.875
31997W        W  215   3.409  24.542   3.269
31998W        W  216  41.040  28.595  12.442
31999W        W  217  42.214  15.845  13.892
32000W        W  218   5.975  31.129  11.155
32001W        W  219  19.354  27.689  12.978
32002W        W  220   5.564   1.420   0.652
32003W        W  221  25.181  25.516   2.252
32004W        W  222  39.406  37.127  11.144
32005W        W  223  26.610  20.582  10.441
32006W        W  224  41.745  41.264   2.308
32007W        W  225  12.172  15.832  11.872
32008W        W  226  33.201  40.513   1.307
32009W        W  227  23.296  31.683  13.941
32010W        W  228  22.072  37.598   4.671
32011W        W  229  33.067   0.543   4.310
32012W        W  230  35.489  38.438  11.534
32013W        W  231  31.395  15.124  10.578
32014W        W  232   5.834   8.824   4.343
32015W        W  233  34.496   1.034   3.091
32016W        W  234  21.638  32.678  13.462
32017W        W  235  12.273  22.487  10.209
32018W        W  236  23.739  12.283   4.209
32019W        W  237   5.386   3.162   3.219
32020W        W  238  19.411  38.221  12.000
32021W        W  239   2.764  27.802   3.445
32022W        W  240  34.221  15.176   1.979
32023W        W  241  13.758  39.786  10.580
32024W        W  242  28.609  16.411   5.358
32025W        W  243  18.510  19.589   0.847
32026W        W  244  25.978  15.650   4.162
32027W        W  245  27.490  39.250  14.370
32028W        W  246   2.931  19.091   2.752
32029W        W  247   5.759  10.138  13.099
32030W        W  248  30.445  20.177  13.031
32031W        W  249  31.049  21.654  13.981
32032W        W  250   0.515  23.021   0.418
32033W        W  251  41.964  29.909   2.610
32034W        W  252  41.518  13.619  11.451
32035W        W  253  19.202  24.230  10.781
32036W        W  254   7.291  28.569  12.525
32037W        W  255  20.313  22.123  14.831
32038W        W  256  11.798  11.054   1.183
32039W        W  257  37.323  43.842  12.436
32040W        W  258  16.172  20.034   2.466
32041W        W  259  35.294  21.516  12.859
32042W        W  260  31.265   3.029  12.522
32043W        W  261  39.045  35.893  14.398
32044W        W  262  34.516   1.918   3.177
32045W        W  263  32.005   0.708   0.731
32046W        W  264  36.067  15.042   1.392
32047W        W  265   8.154  22.658   1.938
32048W        W  266  42.825  16.024  11.926
32049W        W  267   7.685  37.459   4.159
32050W        W  268  14.213  23.530  13.696
32051W        W  269  32.571  30.460   3.055
32052W        W  270  22.142  28.678   1.698
32053W        W  271  39.362  26.082  10.549
32054W        W  272  32.286   8.839   4.251
32055W        W  273  35.615  22.518  12.043
32056W        W  274  31.700  36.681  10.970
32057W        W  275  20.202  13.261  11.953
32058W        W  276  36.461  18.002   1.561
32059W        W  277  17.588  22.082  11.494
32060W        W  278  32.686  30.521   5.136
32061W        W  279  18.211  20.929  12.556
32062W        W  280   1.694  36.417  13.612
32063W        W  281   6.644  29.667  12.961
32064W        W  282  12.319  40.919  14.060
32065W        W  283  35.052   9.698  12.029
32066W        W  284  15.732  16.183  11.669
32067W        W  285  41.317  43.277  13.875
32068W        W  286  30.075   4.916   1.089
32069W        W  287  16.287   8.833  11.669
32070W        W  288  34.638  29.635  10.614
32071W        W  289  32.912  39.844   2.777
32072W        W  290  42.506  36.899   2.255
32073W        W  291  19.146  29.118   3.860
32074W        W  292  18.971   1.839   0.230
32075W        W  293   6.675   3.621   4.542
32076W        W  294   1.197  23.107   3.222
32077W        W  295  18.175  17.702  10.877
32078W        W  296  30.686   5.934  12.531
32079W        W  297  23.663   8.701   1.729
32080W        W  298  16.485   7.697   1.886
32081W        W  299  34.390  34.848   0.846
32082W        W  300  12.434  39.461  11.218
32083W        W  301   0.180  20.241  12.474
32084W        W  302  24.485   8.126  12.842
32085W        W  303  10.208   3.459  10.657
32086W        W  304   1.212  44.940  11.442
32087W        W  305   9.838  23.756   2.792
32088W        W  306  44.278  25.418   0.837
32089W        W  307  35.679  26.267  12.038
32090W        W  308  35.353  20.735  13.383
32091W        W  309  34.370  19.152   0.831
32092W        W  310  23.620   6.782  11.723
32093W        W  311  15.744  35.873  13.098
32094W        W  312   1.321   3.032  10.711
32095W        W  313   1.857  44.440  10.823
32096W        W  314  20.665  11.216   1.857
32097W        W  315  35.693  33.979  14.081
32098W        W  316   4.374  15.122   2.808
32099W        W  317   3.803  12.564  11.589
32100W        W  318  41.072  32.726   3.642
32101W        W  319  24.948  31.866  14.440
32102W        W  320  14.247   7.110  12.119
32103W        W  321  42.335  20.056   2.328
32104W        W  322  44.500  11.737  11.786
32105W        W  323  36.273   4.725  13.910
32106W        W  324  41.356   1.502   0.672
32107W        W  325  10.682  21.401  12.666
32108W        W  326  32.864  44.358  14.351
32109W        W  327  13.125  22.447   0.754
32110W        W  328  25.444  36.962   1.955
32111W        W  329   5.344  27.352  13.864
32112W        W  330  27.484  21.095  10.867
32113W        W  331  37.104  32.022   3.713
32114W        W  332  28.718  39.400   3.725
32115W        W  333  35.057  14.271  12.873
32116W        W  334   9.889  42.509  13.358
32117W        W  335  26.181  15.465  14.510
32118W        W  336   2.777   0.880   3.045
32119W        W  337  16.740  44.882   2.900
32120W        W  338  15.783  15.858  10.612
32121W        W  339  12.705  12.816   0.360
32122W        W  340  40.816  29.686  14.370
32123W        W  341  17.453  21.044   0.492
32124W        W  342  22.261  27.957  13.950
32125W        W  343   8.380  24.766   2.895
32126W        W  344   7.317  12.811   4.573
32127W        W  345  18.118  27.212  12.448
32128W        W  346  35.097  29.355  10.256
32129W        W  347  43.557   8.514   3.188
32130W        W  348  23.074  32.691   1.708
32131W        W  349   7.709  10.890  11.143
32132W        W  350  24.320  35.995  10.172
32133W        W  351  35.823   1.941   1.456
32134W        W  352   2.348  15.896   5.073
32135W        W  353  36.379  37.876  10.745
32136W        W  354   4.383  13.217   0.143
32137W        W  355  42.510  19.754  13.379
32138W        W  356  21.066   5.014  12.852
32139W        W  357   3.143  16.652   4.733
32140W        W  358  30.633   0.009   3.794
32141W        W  359  43.570  25.410   0.216
32142W        W  360  13.164  41.260  13.935
32143W        W  361   9.096  26.166  11.935
32144W        W  362  14.488   8.638  10.460
32145W        W  363  10.728  29.592   1.073
32146W        W  364  11.311  14.643   3.342
32147W        W  365   1.852  33.528   1.946
32148W        W  366  42.517  39.407   0.891
32149W        W  367  35.375  11.359  12.510
32150W        W  368  28.420  27.040  12.040
32151W        W  369   2.800  35.417   3.204
32152W        W  370  14.390  10.898  14.757
32153W        W  371  20.040  29.737  13.071
32154W        W  372  33.063  18.645   4.334
32155W        W  373  26.503  21.528   5.334
32156W        W  374  20.374  15.080   0.939
32157W        W  375  17.016  27.575  10.965
32158W        W  376  20.586   2.461  12.979
32159W        W  377   2.273  24.729   3.246
32160W        W  378  36.004  41.138   3.625
32161W        W  379  36.513   9.803  14.763
32162W        W  380  34.507  29.103   1.302
32163W        W  381  34.541  38.295  13.558
32164W        W  382  19.436  43.795  10.525
32165W        W  383  27.587  22.846   4.182
32166W        W  384  43.532  32.698   0.861
32167W        W  385   3.500   3.284  12.889
32168W        W  386  22.300  28.908  10.840
32169W        W  387   5.297   5.290   1.194
32170W        W  388  34.961  23.257  14.346
32171W        W  389  40.038  14.352  10.988
32172W        W  390   5.997  14.101  14.904
32173W        W  391  18.744  40.057   4.261
32174W        W  392   3.183  20.052   3.652
32175W        W  393  10.314  24.641  11.722
32176W        W  394  26.835   5.930  11.014
32177W        W  395  40.113  13.345   3.831
32178W        W  396  31.906  26.129   1.680
32179W        W  397  12.645  30.593  14.943
32180W        W  398  22.264   7.170  12.032
32181W        W  399  23.121   1.836  14.302
32182W        W  400  17.999   5.451   2.249
32183W        W  401  10.578  33.495   1.460
32184W        W  402  22.730  32.159   2.242
32185W        W  403  22.233  33.988   3.836
32186W        W  404   8.917  35.422  12.407
32187W        W  405  14.040  34.988  14.948
32188W        W  406  31.141  22.826   1.263
32189W        W  407  10.794  34.086   0.490
32190W        W  408  13.637  29.100  11.767
32191W        W  409   5.780  31.896  13.438
32192W        W  410  16.540  10.772  13.380
32193W        W  411  20.973  21.380   1.205
32194W        W  412  29.511  19.597   1.671
32195W        W  413  10.415  30.435   2.707
32196W        W  414  10.379  18.788   5.094
32197W        W  415  17.022   1.400   2.582
32198W        W  416  37.607  39.972  11.192
32199W        W  417  39.522   9.506  13.422
32200W        W  418  10.230   6.027   4.578
32201W        W  419   4.363   0.232   0.832
32202W        W  420   3.313  24.799  12.012
32203W        W  421  37.119  32.375  13.289
32204W        W  422  19.654  41.581   3.262
32205W        W  423  18.041  23.494  11.644
32206W        W  424  21.612  36.142   5.478
32207W        W  425  19.994  34.989  12.936
32208W        W  426  24.475  15.769  13.837
32209W        W  427  26.636  10.844   0.069
32210W        W  428  18.771   8.316  11.476
32211W        W  429  16.596  40.914   1.827
32212W        W  430  39.393  33.201   4.315
32213W        W  431  40.695   3.793   3.001
32214W        W  432  39.644  19.575   2.409
32215W        W  433  26.629  13.267   4.473
32216W        W  434  18.373  27.663  13.035
32217W        W  435  22.196  10.828   4.591
32218W        W  436  27.129  37.954  14.407
32219W        W  437  15.865  34.368  12.590
32220W        W  438  37.127  33.447   2.826
32221W        W  439  19.186  10.621   3.734
32222W        W  440  18.234   5.780   0.307
32223W        W  441   9.774   2.988   2.584
32224W        W  442  43.534  30.406   2.860
32225W        W  443  16.162  31.854   0.743
32226W        W  444  10.794  18.668   4.439
32227W        W  445   1.264   9.268   3.710
32228W        W  446  24.570  23.164   1.434
32229W        W  447  11.198  21.763   4.113
32230W        W  448  21.683  20.594  14.986
32231W        W  449  14.926  22.057   2.929
32232W        W  450   8.423  13.356   3.206
32233W        W  451  13.371  27.710  13.903
32234W        W  452   4.784   7.386   0.691
32235W        W  453   1.387   8.673   4.604
32236W        W  454  40.952   2.812   3.146
32237W        W  455  22.358  12.107  14.381
32238W        W  456  24.518  11.444  12.483
32239W        W  457  27.424  12.041  11.372
32240W        W  458  13.167  29.937   4.911
32241W        W  459  21.284   6.740   1.900
32242W        W  460  19.516   6.351   1.462
32243W        W  461  41.080  35.525   3.274
32244W        W  462  42.752  26.029  10.992
32245W        W  463  37.397  41.048   3.451
32246W        W  464   4.728  13.830   4.875
32247W        W  465  32.413  24.126  14.020
32248W        W  466  38.945   2.182   0.617
32249W        W  467   8.788  13.625   1.325
32250W        W  468  13.139  23.045   4.645
32251W        W  469  36.168  37.115   0.500
32252W        W  470  34.354  38.776   0.401
32253W        W  471  40.341  36.089   2.449
32254W        W  472  30.005   5.560   1.866
32255W        W  473  23.477  36.941   5.281
32256W        W  474  19.384   6.078  10.732
32257W        W  475  18.468  21.520   2.664
32258W        W  476  35.042  44.238   1.770
32259W        W  477   6.746  36.491   0.475
32260W        W  478  44.408   9.632  11.521
32261W        W  479   4.905  32.432   1.012
32262W        W  480   9.916  35.018  12.992
32263W        W  481   9.873  18.180  13.506
32264W        W  482  37.428   2.395  14.537
32265W        W  483  13.917  11.149   3.160
32266W        W  484  43.305   3.638  13.943
32267W        W  485  23.682  29.647   1.453
32268W        W  486   6.533  11.870   3.654
32269W        W  487  31.195  26.721  10.718
32270W        W  488  34.921  18.137  13.525
32271W        W  489  25.534  39.951   2.793
32272W        W  490   9.883  24.609   0.815
32273W        W  491  15.272   5.611   0.981
32274W        W  492  35.143  24.631   1.113
32275W        W  493  15.491  31.481   4.090
32276W        W  494  26.909   7.129  12.256
32277W        W  495  36.382  43.867   2.091
32278W        W  496  30.375   5.391   0.015
32279W        W  497   0.576  35.808   4.142
32280W        W  498  33.712  12.741   0.048
32281W        W  499  43.072  34.430  13.743
32282W        W  500   1.722  29.372   3.237
32283W        W  501   1.255  36.187  12.782
32284W        W  502   7.901  16.362  13.074
32285W        W  503  30.917   5.433   3.646
32286W        W  504  26.908  23.702   1.250
32287W        W  505  10.790  18.097   2.594
32288W        W  506   7.663  25.221   4.573
32289W        W  507   5.620  23.051  11.151
32290W        W  508  24.702  39.740  11.147
32291W        W  509   5.770  30.016   3.811
32292W        W  510  37.115  38.562   1.343
32293W        W  511  27.923  25.504   3.696
32294W        W  512   0.513  21.174  14.436
32295W        W  513   6.031  15.669   2.986
32296W        W  514  39.284  37.168   5.131
32297W        W  515  36.877  10.456   3.206
32298W        W  516  18.715  42.110   2.486
32299W        W  517  21.870   0.811  14.051
32300W        W  518  43.495  18.551  14.539
32301W        W  519  40.378  32.492  12.129
32302W        W  520   9.466  30.794   0.634
32303W        W  521   1.879   0.800  11.392
32304W        W  522  25.135  20.762  11.578
32305W        W  523  33.927  21.361  12.958
32306W        W  524  14.691  22.749  11.136
32307W        W  525  42.893   2.995  12.204
32308W        W  526  33.465  20.779  13.483
32309W        W  527  23.609   9.454   4.114
32310W        W  528  22.541  17.470  10.723
32311W        W  529  24.272  44.959   1.195
32312W        W  530  34.920  34.607   1.895
32313W        W  531  30.161  42.585   3.223
32314W        W  532  17.536  12.435   0.742
32315W        W  533  43.240  21.612  14.308
32316W        W  534  25.365   8.274   3.771
32317W        W  535   5.967  30.551  14.015
32318W        W  536  12.914  21.257   0.540
32319W        W  537  36.096  17.693  13.887
32320W        W  538   3.902  32.493  12.085
32321W        W  539  20.499   8.646  12.064
32322W        W  540  18.496  32.055  12.977
32323W        W  541  34.016   1.668  13.526
32324W        W  542  14.428  21.128   4.897
32325W        W  543  43.764  38.294  11.104
32326W        W  544  42.598  33.518   1.729
32327W        W  545  35.902   3.960  14.921
32328W        W  546  18.851   9.580  12.340
32329W        W  547   2.270  19.982   4.696
32330W        W  548  33.914  32.054  13.917
32331W        W  549  21.031  33.889  12.899
32332W        W  550   7.863  40.073   4.921
32333W        W  551  43.222  31.638   1.101
32334W        W  552  15.364  33.967   1.684
32335W        W  553  35.822  35.402  12.863
32336W        W  554  14.167  31.567  12.469
32337W        W  555  36.829   5.351  11.598
32338W        W  556  31.456  27.454  12.460
32339W        W  557   4.720  37.082  10.336
32340W        W  558  26.482  26.585  11.641
32341W        W  559  28.498   2.384   1.223
32342W        W  560   8.769   6.291  13.620
32343W        W  561  27.008  26.788  11.950
32344W        W  562  31.899   0.818  13.946
32345W        W  563   1.235  28.320  12.830
32346W        W  564  17.153  27.039   0.277
32347W        W  565   1.352  20.040   4.590
32348W        W  566  22.125   0.070   0.949
32349W        W  567  38.118   0.202  10.258
32350W        W  568  20.134  23.522  11.594
32351W        W  569   0.779   5.168   2.446
32352W        W  570  37.154   5.339   0.909
32353W        W  571  31.857  11.348  11.197
32354W        W  572  38.031  44.614  11.562
32355W        W  573   7.211  35.441  12.882
32356W        W  574   0.759  42.235   0.531
32357W        W  575  30.027  38.298  11.113
32358W        W  576   2.003  17.002  14.330
32359W        W  577  39.367  42.425   1.243
32360W        W  578   5.709  39.111  12.081
32361W        W  579  11.409  21.986   0.868
32362W        W  580  29.076  29.989  14.912
32363W        W  581  36.342  37.724   0.929
32364W        W  582  31.200  38.998  10.599
32365W        W  583   1.245  39.929   0.705
32366W        W  584  20.738  41.979  14.549
32367W        W  585  43.980  19.267  11.903
32368W        W  586  41.010   0.351   0.433
32369W        W  587  24.774   8.091   2.882
32370W        W  588  37.890  25.986  12.493
32371W        W  589  41.802  37.784  14.335
32372W        W  590   9.155  27.702   0.053
32373W        W  591  21.817  18.739   2.171
32374W        W  592  26.330  29.679  12.009
32375W        W  593  40.425  42.436   1.389
32376W        W  594  35.378   9.784  12.943
32377W        W  595  38.574  28.073  12.949
32378W        W  596  37.604   7.697   0.373
32379W        W  597  29.506  13.713   4.519
32380W        W  598   5.358  31.151   1.190
32381W        W  599  33.646  34.914  11.526
32382W        W  600  30.049  42.847  11.511
32383W        W  601  37.444  25.480  11.169
32384W        W  602  41.084  19.010   3.722
32385W        W  603  18.086  15.256   4.654
32386W        W  604  26.987   3.769   3.343
32387W        W  605  10.255   1.335  12.540
32388W        W  606   9.653   1.494  13.459
32389W        W  607  32.363  32.000  13.003
32390W        W  608  13.129  35.726  11.253
32391W        W  609  33.998  29.889  11.389
32392W        W  610  12.620   3.029  10.722
32393W        W  611  13.323  17.628  11.553
32394W        W  612  30.493  43.750   3.214
32395W        W  613  18.664  29.012   2.467
32396W        W  614  25.624   0.245  13.481
32397W        W  615  43.026  39.842   2.709
32398W        W  616   7.448  42.421   2.221
32399W        W  617  16.706  33.386   4.606
32400W        W  618  43.877  18.064  12.433
32401W        W  619   7.158  30.943  12.105
32402W        W  620  33.612   6.010   3.800
32403W        W  621   3.282  15.863  10.704
32404W        W  622   8.432  13.354  11.611
32405W        W  623   9.789  17.628   0.757
32406W        W  624  14.401   2.114   3.708
32407W        W  625  17.643   1.501   2.208
32408W        W  626  36.476   6.695   3.313
32409W        W  627  28.044   3.002   4.063
32410W        W  628   3.677  15.616   4.462
32411W        W  629  26.061   2.848   1.131
32412W        W  630  18.242  12.652  14.377
32413W        W  631  24.946  43.104  11.171
32414W        W  632  39.764  42.399  12.971
32415W        W  633   1.243  10.189  13.267
32416W        W  634  17.754   5.930   2.279
32417W        W  635  10.600  32.838  12.598
32418W        W  636  31.783  32.006  12.601
32419W        W  637  43.359  21.138  12.961
32420W        W  638   6.178  39.773  14.845
32421W        W  639   0.954   3.410   1.333
32422W        W  640  12.607  30.489  13.523
32423W        W  641  43.009  33.299   3.104
32424W        W  642  23.954  42.988   4.237
32425W        W  643  43.514  39.412  10.879
32426W        W  644  41.934   7.521  10.752
32427W        W  645  10.729  40.884  10.720
32428W        W  646  39.580  40.423  10.659
32429W        W  647  27.178  30.186   3.207
32430W        W  648  29.000  21.664  14.371
32431W        W  649  17.100  44.273   3.272
32432W        W  650  38.986  40.514  11.917
32433W        W  651  37.819  23.906   4.791
32434W        W  652  13.259  10.105   4.220
32435W        W  653  14.335  18.202  14.925
32436W        W  654  31.510  27.631   4.310
32437W        W  655  21.846  27.109   1.836
32438W        W  656  38.541  15.661  10.986
32439W        W  657  35.357   2.318  11.010
32440W        W  658  22.029  29.398  13.953
32441W        W  659   0.026  33.755   2.827
32442W        W  660  25.573  29.433   2.754
32443W        W  661   5.285  38.392   1.162
32444W        W  662  11.198  26.304  12.711
32445W        W  663   1.662   8.862  11.470
32446W        W  664  29.046  14.778  12.707
32447W        W  665  31.042   0.943   3.398
32448W        W  666  41.786  37.375   3.279
32449W        W  667  40.323  11.178   1.342
32450W        W  668  10.858  36.067  13.608
32451W        W  669  30.647  44.778   1.931
32452W        W  670  41.247   1.233   0.228
32453W        W  671  32.560  43.941   1.802
32454W        W  672  11.855  41.007  13.809
32455W        W  673  27.804   8.760   2.710
32456W        W  674  38.753   3.314  10.770
32457W        W  675  32.506  44.826   0.416
32458W        W  676   6.647  26.460  10.808
32459W        W  677  44.071  15.474  12.374
32460W        W  678  18.745   7.954  14.931
32461W        W  679  18.999  38.782   1.746
32462W        W  680  23.267  13.601  14.383
32463W        W  681  25.618  19.230  13.570
32464W        W  682   8.302  30.940  14.355
32465W        W  683  29.446  19.150  11.984
32466W        W  684  31.561  37.984   2.214
32467W        W  685  15.196  23.221  11.499
32468W        W  686  24.149  10.633   1.343
32469W        W  687  18.974   3.391   2.167
32470W        W  688  39.853   9.705   1.147
32471W        W  689  14.401  15.721   2.842
32472W        W  690  35.752  17.685   1.851
32473W        W  691  21.392  27.325   1.782
32474W        W  692  16.300  29.130   2.820
32475W        W  693   5.860  15.552  14.364
32476W        W  694  27.191  27.678  11.046
32477W        W  695  32.081  37.105   5.033
32478W        W  696   7.937  42.726  10.634
32479W        W  697  39.094  16.814   3.679
32480W        W  698   3.784   2.724  12.485
32481W        W  699  21.534  11.411   1.724
32482W        W  700  33.657   7.153  13.652
32483W        W  701  13.273  14.777  13.404
32484W        W  702  39.096   1.437  13.048
32485W        W  703   3.100  17.137   2.090
32486W        W  704  44.068  19.392   3.270
32487W        W  705  36.295   7.617  11.150
32488W        W  706  25.186  19.514  10.657
32489W        W  707  20.016   4.623  14.296
32490W        W  708   6.604  29.879  13.463
32491W        W  709  40.188  37.990   0.440
32492W        W  710  40.578   7.234  12.475
32493W        W  711  23.603  36.790  11.574
32494W        W  712  25.459  36.940   3.259
32495W        W  713  21.355  36.254   9.758
32496W        W  714  30.685  26.919   0.417
32497W        W  715  37.302  23.240   0.171
32498W        W  716  38.630  18.543  12.566
32499W        W  717  29.166   6.323   1.929
32500W        W  718  32.392   5.305   2.733
32501W        W  719  30.009  37.275  11.217
32502W        W  720   2.479  25.705  10.730
32503W        W  721  41.732   4.321  11.119
32504W        W  722  10.123  14.714  14.417
32505W        W  723   2.863  22.961   3.331
32506W        W  724  22.620  37.783  14.461
32507W        W  725  11.963   8.193  13.388
32508W        W  726  31.360  35.344  11.122
32509W        W  727  29.841  23.975  12.941
32510W        W  728   9.343  10.237  12.341
32511W        W  729   7.264   2.419   4.533
32512W        W  730  18.879  21.701  12.423
32513W        W  731   7.689  35.012  12.590
32514W        W  732   4.977  40.212   1.293
32515W        W  733  21.879  13.141   4.164
32516W        W  734  26.481   5.695   4.528
32517W        W  735  19.597  34.800  13.868
32518W        W  736  30.576   5.306   2.298
32519W        W  737  12.792  20.526  11.269
32520W        W  738  26.710  11.785  10.360
32521W        W  739  18.116  36.620  10.262
32522W        W  740  28.704   6.751  10.979
32523W        W  741   0.306  41.822  12.358
32524W        W  742  40.299  40.319   1.899
32525W        W  743  29.018  25.312  12.950
32526W        W  744  30.882  11.183   0.140
32527W        W  745  37.462  14.646  10.823
32528W        W  746  36.683  38.049  13.489
32529W        W  747  25.572   5.715   2.206
32530W        W  748  22.128   8.409  12.363
32531W        W  749   6.380  23.427   3.348
32532W        W  750  33.564  20.716   0.303
32533W        W  751  13.252   8.614   1.642
32534W        W  752  25.316  26.891   2.852
32535W        W  753  33.867   5.418   1.038
32536W        W  754  40.169  16.710   1.851
32537W        W  755  44.588  16.733   1.301
32538W        W  756  21.413  16.365  14.685
32539W        W  757  13.024  10.877  11.917
32540W        W  758  30.495   1.741   0.184
32541W        W  759  25.200  12.362  11.930
32542W        W  760  26.529  38.737   4.274
32543W        W  761   2.778  28.652  13.542
32544W        W  762   6.254  22.590  10.765
32545W        W  763   8.915  26.074   4.774
32546W        W  764  40.547  19.817  11.667
32547W        W  765  17.600  27.913  14.341
32548W        W  766  37.089  27.128  14.865
32549W        W  767   1.825  45.000  13.076
32550W        W  768  17.633   8.781  11.402
32551W        W  769  12.928  13.080  14.920
32552W        W  770  42.335  16.784  12.903
32553W        W  771  15.606  37.497  13.345
32554W        W  772  11.338  43.104  10.717
32555W        W  773  18.995  41.244  12.833
32556W        W  774  31.844  44.013  13.052
32557W        W  775  43.201  16.198  14.535
32558W        W  776   8.477  15.718   1.870
32559W        W  777  30.022  30.630   4.195
32560W        W  778   8.402  37.095   1.274
32561W        W  779  28.954  25.198   4.093
32562W        W  780  15.387  39.942   0.335
32563W        W  781  42.745  14.136  11.834
32564W        W  782  41.744  21.466  13.967
32565W        W  783  35.375  15.365  14.012
32566W        W  784  24.023  13.378  11.492
32567W        W  785  25.520  33.932  12.960
32568W        W  786  19.712  14.842   1.731
32569W        W  787  31.026  29.690   2.481
32570W        W  788  33.170  34.980   2.831
32571W        W  789   3.888  42.641  10.240
32572W        W  790  24.690  24.246  14.242
32573W        W  791  33.841  32.007   3.717
32574W        W  792  38.972  10.444   0.012
32575W        W  793  11.791  38.129   2.849
32576W        W  794   3.475  32.612  13.610
32577W        W  795  32.036  26.986  14.343
32578W        W  796   5.622  39.334   5.582
32579W        W  797  23.251  35.875  10.652
32580W        W  798  34.214  23.432   0.404
32581W        W  799   7.223   6.235  10.716
32582W        W  800  24.709  22.626  13.101
32583W        W  801  28.176  16.963   3.242
32584W        W  802  25.611  23.986   3.274
32585W        W  803  16.711  37.423  14.935
32586W        W  804  37.682  20.317  11.094
32587W        W  805  25.835  33.935  12.183
32588W        W  806  24.206   0.478   1.219
32589W        W  807   6.949  10.656  10.704
32590W        W  808  25.518  26.492   1.319
32591W        W  809  12.321  23.119   1.069
32592W        W  810   8.833  40.162  13.027
32593W        W  811   7.745  22.024   0.078
32594W        W  812  42.837  32.625   0.041
32595W        W  813  13.419  20.648   0.150
32596W        W  814  18.749  19.040   3.660
32597W        W  815  29.776   8.725  14.728
32598W        W  816  15.057  43.464  11.143
32599W        W  817  28.669  17.819  11.142
32600W        W  818  17.064  35.490  14.804
32601W        W  819   9.138  38.111  12.079
32602W        W  820   9.704  30.100   2.368
32603W        W  821  12.677  34.399  13.065
32604W        W  822  35.572  23.563  14.725
32605W        W  823  29.070  11.731   1.169
32606W        W  824  44.321  39.332   5.086
32607W        W  825  29.536   2.467   0.272
32608W        W  826  14.554  23.226   2.730
32609W        W  827  37.296  20.543   0.833
32610W        W  828  21.679   2.662   2.099
32611W        W  829  28.117  19.976   3.664
32612W        W  830  30.675  20.019  10.702
32613W        W  831  17.380  20.514   1.821
32614W        W  832  44.301  23.768  10.858
32615W        W  833  23.114  23.723  13.860
32616W        W  834   1.094  38.082  12.561
32617W        W  835  44.530   9.706  13.522
32618W        W  836  40.121  14.619   0.538
32619W        W  837   9.994  25.736   3.165
32620W        W  838  39.391  25.464  11.703
32621W        W  839  43.264  13.126   1.801
32622W        W  840  32.971  37.423   4.444
32623W        W  841  19.516  44.031   0.860
32624W        W  842  42.805   2.488   4.069
32625W        W  843  39.526  33.643  10.735
32626W        W  844  13.088  14.141   1.414
32627W        W  845  40.259  38.808   2.673
32628W        W  846  22.230  10.706  12.930
32629W        W  847  15.669  39.659   0.709
32630W        W  848   6.318  36.337   4.777
32631W        W  849  39.026  25.337  10.220
32632W        W  850   6.074  25.998   0.535
32633W        W  851   0.736  23.615  11.559
32634W        W  852  25.072  17.497   4.756
32635W        W  853  23.031  36.554   2.713
32636W        W  854  22.645   4.430   0.940
32637W        W  855  36.199  22.737  13.665
32638W        W  856  35.048  31.367  10.906
32639W        W  857   2.800  14.858   3.284
32640W        W  858  39.587  39.111   4.872
32641W        W  859  27.793  19.640  12.383
32642W        W  860   0.038  18.838  14.426
32643W        W  861  23.589  40.572  11.522
32644W        W  862  43.522   2.328   3.324
32645W        W  863  26.053  15.441   0.811
32646W        W  864  27.679  43.269  12.249
32647W        W  865  31.448   2.280   9.912
32648W        W  866  38.595  30.387   1.937
32649W        W  867  43.432  34.701   3.313
32650W        W  868   4.913   8.836   4.179
32651W        W  869  33.410   6.747  12.488
32652W        W  870  22.648  20.564   4.628
32653W        W  871  27.883   9.944   3.712
32654W        W  872  36.463  36.026   2.853
32655W        W  873  35.845  21.212  10.652
32656W        W  874   2.404   9.687   2.792
32657W        W  875  26.435  43.282  12.509
32658W        W  876  39.860   4.450  10.683
32659W        W  877  21.027  25.965   4.132
32660W        W  878  21.098  26.190   2.863
32661W        W  879  11.697  34.028  11.540
32662W        W  880  12.671  21.735   4.612
32663W        W  881  42.969   7.497   3.915
32664W        W  882  17.150   4.026   2.613
32665W        W  883  36.114  26.586  13.322
32666W        W  884  15.080  43.713  13.147
32667W        W  885   4.026   9.689  10.953
32668W        W  886  16.348  32.639   1.388
32669W        W  887  12.450  10.287  13.653
32670W        W  888  19.968  26.393  13.557
32671W        W  889   4.973  34.879   0.967
32672W        W  890  12.197   7.766   3.337
32673W        W  891   0.172  32.609   0.353
32674W        W  892  15.683  13.401  12.171
32675W        W  893   4.552  15.065  13.469
32676W        W  894   4.392  42.844  13.369
32677W        W  895  41.608  23.128   3.793
32678W        W  896  32.960  30.211  10.447
32679W        W  897  40.502  42.908   4.011
32680W        W  898  18.295  44.271  14.506
32681W        W  899  40.755  21.438   2.458
32682W        W  900   0.789  36.026  11.583
32683W        W  901  32.552  24.681   0.808
32684W        W  902  26.218  24.203   4.558
32685W        W  903  22.121  40.006   2.448
32686W        W  904  21.988  18.769  14.247
32687W        W  905  38.111  21.560   0.184
32688W        W  906  34.551   8.757  14.122
32689W        W  907  12.223  21.077   4.121
32690W        W  908  13.302  21.097  11.588
32691W        W  909  15.819   2.989   9.965
32692W        W  910  37.516  39.877   2.904
32693W        W  911  39.605  19.601  14.542
32694W        W  912  36.542  23.553   2.336
32695W        W  913  21.528  44.565  13.487
32696W        W  914   7.716   3.891   3.684
32697W        W  915  12.763  38.393  12.112
32698W        W  916  34.832  19.119  11.182
32699W        W  917  25.637  21.471   1.500
32700W        W  918   7.958  41.388   3.529
32701W        W  919  29.672  41.763  12.112
32702W        W  920  24.627  35.836   1.915
32703W        W  921  35.386  43.189   0.853
32704W        W  922  12.588  29.444   3.257
32705W        W  923   8.568   9.750   0.415
32706W        W  924  38.002  38.320  12.261
32707W        W  925  28.973  31.186  10.830
32708W        W  926  14.675  29.783  11.277
32709W        W  927  38.673  18.812  10.217
32710W        W  928  19.209  31.206  12.310
32711W        W  929  14.798  12.153   3.441
32712W        W  930  33.246  21.634   1.915
32713W        W  931  40.798  17.381   0.914
32714W        W  932  39.607  19.837  12.602
32715W        W  933   9.075  40.703   2.674
32716W        W  934  42.808  10.220  14.768
32717W        W  935  33.332  37.581   3.109
32718W        W  936  11.556  15.823  11.685
32719W        W  937  44.940  27.697  12.077
32720W        W  938   5.185  44.428  10.649
32721W        W  939   0.186  41.831  14.488
32722W        W  940  19.245  39.097  10.936
32723W        W  941  31.408  16.804  10.211
32724W        W  942  38.395  10.727   4.861
32725W        W  943  18.258  36.119  10.256
32726W        W  944  41.364  19.827  13.883
32727W        W  945  31.433  18.120   4.504
32728W        W  946  42.478  38.459  10.992
32729W        W  947  33.081  34.342  11.146
32730W        W  948  26.498  15.637   1.974
32731W        W  949  14.800   9.891   3.248
32732W        W  950  23.198  38.060  11.564
32733W        W  951  18.769   2.944  13.243
32734W        W  952  43.300  35.913  12.489
32735W        W  953  42.863  22.900   3.162
32736W        W  954  23.957  31.453   3.822
32737W        W  955  40.833   5.679   4.086
32738W        W  956  11.423   0.175  14.658
32739W        W  957  43.440   8.601   1.417
32740W        W  958  25.754  26.974   0.527
32741W        W  959  18.551   8.613   1.895
32742W        W  960   1.835  21.264  13.331
32743W        W  961  26.515   4.251  12.434
32744W        W  962   6.825  12.918  11.280
32745W        W  963  38.578   7.407  11.075
32746W        W  964  26.136  23.455  12.045
32747W        W  965  24.552  43.308  10.890
32748W        W  966  33.508  34.669   0.323
32749W        W  967  12.382  34.037  14.766
32750W        W  968   4.471  14.300   1.853
32751W        W  969  15.545  39.573  14.409
32752W        W  970  43.168   3.675  12.606
32753W        W  971  37.189  30.913   0.832
32754W        W  972   3.073  11.443   3.187
32755W        W  973  40.936  21.741  14.572
32756W        W  974  29.689  41.400   3.169
32757W        W  975  36.391  30.914   0.515
32758W        W  976  19.343  14.859   4.146
32759W        W  977  30.561  14.617   4.523
32760W        W  978  27.944  18.757  14.756
32761W        W  979  36.853  16.160   4.561
32762W        W  980  22.092  25.368  12.169
32763W        W  981  44.305   7.810   4.056
32764W        W  982  38.424   8.057   3.327
32765W        W  983   0.359  27.423  12.923
32766W        W  984  29.667  35.973   0.259
32767W        W  985  12.334  25.473  14.764
32768W        W  986   2.431  38.048   0.738
32769W        W  987  15.467  39.950   2.473
32770W        W  988  14.520  34.118  10.604
32771W        W  989  10.172  13.840   4.792
32772W        W  990  38.505   9.150   2.279
32773W        W  991  16.522  26.727   1.363
32774W        W  992   2.175  24.568  13.826
32775W        W  993   3.589  17.704   0.944
32776W        W  994  16.316  18.178  13.585
32777W        W  995  25.563  23.997  14.733
32778W        W  996  22.029   4.473   4.868
32779W        W  997  28.217  40.314  13.041
32780W        W  998  41.777  16.767  12.957
32781W        W  999  29.862  13.534  11.567
32782W        W 1000  18.669  42.073   0.031
32783W        W 1001  17.666  44.017   3.239
32784W        W 1002  41.325   8.833   0.709
32785W        W 1003  35.934  19.745   2.403
32786W        W 1004  16.724  30.677   1.295
32787W        W 1005  11.762  16.744   0.275
32788W        W 1006  34.073  25.015   1.820
32789W        W 1007   0.282  30.413  14.449
32790W        W 1008  36.557  36.411   4.190
32791W        W 1009  37.881  20.108   4.280
32792W        W 1010  20.788  28.510   1.959
32793W        W 1011  25.842   8.335   4.601
32794W        W 1012  44.528  44.722   3.918
32795W        W 1013   6.170  15.731  12.380
32796W        W 1014  14.271  38.150  11.220
32797W        W 1015   2.652  21.741  12.047
32798W        W 1016  36.781  24.519  11.595
32799W        W 1017  31.090  29.614  12.596
32800W        W 1018  32.089  35.875  13.852
32801W        W 1019  20.588  24.048   1.003
32802W        W 1020   9.825  17.013  14.953
32803W        W 1021  30.239  18.489   2.713
32804W        W 1022  31.003  29.619  11.119
32805W        W 1023  41.504  24.770   0.447
32806W        W 1024   5.220  23.912  11.629
32807W        W 1025  10.853  37.955  11.587
32808W        W 1026  32.928  18.205  11.488
32809W        W 1027  24.330   9.198  13.372
32810W        W 1028  18.708   0.502   0.337
32811W        W 1029  28.139  44.666   5.038
32812W        W 1030   8.139  28.174  13.460
32813W        W 1031  21.665  37.687  10.636
32814W        W 1032  26.430  42.236   3.865
32815W        W 1033  38.642  29.143  14.479
32816W        W 1034  34.691  11.454   1.944
32817W        W 1035   4.057   5.660  10.613
32818W        W 1036   2.441   3.221  11.114
32819W        W 1037  14.703  42.010   5.331
32820W        W 1038   5.868  23.614  14.047
32821W        W 1039  17.774  11.569   2.608
32822W        W 1040  22.074  13.519   3.573
32823W        W 1041  27.968  18.061   2.379
32824W        W 1042  14.812  33.120  14.492
32825W        W 1043  19.210  36.940  14.479
32826W        W 1044  24.477  17.001   2.819
32827W        W 1045  26.574  35.532  11.279
32828W        W 1046  27.582  23.198  14.412
32829W        W 1047  11.146  14.697   4.330
32830W        W 1048   7.986  22.632  13.434
32831W        W 1049  26.971  32.989  11.094
32832W        W 1050   6.906  16.071   3.674
32833W        W 1051   1.509  43.293  11.013
32834W        W 1052  32.207  40.838  13.416
32835W        W 1053  21.126  12.817  10.148
32836W        W 1054  22.540  44.963  13.105
32837W        W 1055  23.728  17.520  11.136
32838W        W 1056   7.810  26.293  11.546
32839W        W 1057  18.169  20.515  12.135
32840W        W 1058  20.226   0.790  11.197
32841W        W 1059   0.239   1.406  14.459
32842W        W 1060  18.129  27.033  11.400
32843W        W 1061  19.183  28.310   4.512
32844W        W 1062  22.089   6.443   1.119
32845W        W 1063  24.931   6.559   3.134
32846W        W 1064  32.584  26.101  12.324
32847W        W 1065  31.391  19.425  14.472
32848W        W 1066  13.858  42.362   2.498
32849W        W 1067  37.023  44.797   4.978
32850W        W 1068   0.815  41.902   2.473
32851W        W 1069  31.558   0.036   0.343
32852W        W 1070   1.242  35.174   1.841
32853W        W 1071  36.563  28.103  14.305
32854W        W 1072  32.034   1.847  10.316
32855W        W 1073   1.392   5.203  11.078
32856W        W 1074  31.541  23.494  10.670
32857W        W 1075  31.503  34.971   3.195
32858W        W 1076  28.900  42.898  12.138
32859W        W 1077  32.587  34.324   3.918
32860W        W 1078  42.312  36.219   2.773
32861W        W 1079  22.002  31.993  11.644
32862W        W 1080   9.773  10.772  13.981
32863W        W 1081  29.522  36.520   3.587
32864W        W 1082  28.434  26.070  14.897
32865W        W 1083  41.350   3.481   2.455
32866W        W 1084  38.988  20.516  11.643
32867W        W 1085   5.366  18.224  14.333
32868W        W 1086  33.820   0.799   4.032
32869W        W 1087  23.149  20.278  10.532
32870W        W 1088  22.675  37.435   3.934
32871W        W 1089   0.403  10.703  10.794
32872W        W 1090  35.832  31.960   1.927
32873W        W 1091  44.129  10.782  13.448
32874W        W 1092   1.286  29.155   3.396
32875W        W 1093   8.185  13.994  12.902
32876W        W 1094  34.895  21.389   4.038
32877W        W 1095   1.407  10.609  11.110
32878W        W 1096  41.480   3.761  11.119
32879W        W 1097   8.771   5.706   1.865
32880W        W 1098  41.056  34.084   0.450
32881W        W 1099   0.030  30.006   1.705
32882W        W 1100  42.842  10.593   3.627
32883W        W 1101   5.343   9.637  10.941
32884W        W 1102  31.340  18.561  14.991
32885W        W 1103  29.659   0.996   3.630
32886W        W 1104   0.242  33.573   3.923
32887W        W 1105   6.450  12.883   0.282
32888W        W 1106  40.252  27.171  11.367
32889W        W 1107  29.844  34.639   3.671
32890W        W 1108  27.560  41.507  12.737
32891W        W 1109  18.169  28.465   2.621
32892W        W 1110  35.099  35.833  13.191
32893W        W 1111  27.517  34.821  11.149
32894W        W 1112  30.121  40.123   1.435
32895W        W 1113  20.352  15.266  14.223
32896W        W 1114  39.744  32.507  12.064
32897W        W 1115  39.996   6.527  14.525
32898W        W 1116  33.124  35.180   0.518
32899W        W 1117  17.857   3.302  13.777
32900W        W 1118  36.372  20.094   1.614
32901W        W 1119  41.968  34.581   4.625
32902W        W 1120  11.504  32.901   2.654
32903W        W 1121  37.387   8.381  14.074
32904W        W 1122   9.360  22.730   4.969
32905W        W 1123  32.177  22.921   3.939
32906W        W 1124  32.995   5.792  12.378
32907W        W 1125  41.453  22.853  11.570
32908W        W 1126  36.865   2.325   0.315
32909W        W 1127  25.007  31.651  14.909
32910W        W 1128  13.853  20.442   0.440
32911W        W 1129  37.616  22.025  13.875
32912W        W 1130  41.783  15.438   1.994
32913W        W 1131  32.998  40.868  12.589
32914W        W 1132  23.269  15.848   3.863
32915W        W 1133  34.275   4.709  14.524
32916W        W 1134  40.360   1.660  12.532
32917W        W 1135  14.039  41.369   3.180
32918W        W 1136  33.674   5.734   3.376
32919W        W 1137   3.231  37.948  14.299
32920W        W 1138  15.628  17.335  13.461
32921W        W 1139  42.477  28.248   2.436
32922W        W 1140   8.767   8.306   3.639
32923W        W 1141  19.599  39.786   3.859
32924W        W 1142  44.048  33.621   0.012
32925W        W 1143  27.436  20.790   1.164
32926W        W 1144   4.379   5.434  12.485
32927W        W 1145  28.997  11.979  12.473
32928W        W 1146  26.496   5.511   3.662
32929W        W 1147  10.332  15.333   4.826
32930W        W 1148   1.849  31.901  14.330
32931W        W 1149  10.855  14.242   1.030
32932W        W 1150  21.027  25.277   1.150
32933W        W 1151   5.899  22.976   0.404
32934W        W 1152  17.683  38.830  10.591
32935W        W 1153  44.864  22.592  12.032
32936W        W 1154  14.996  15.415   0.098
32937W        W 1155  40.895   5.134  14.979
32938W        W 1156  40.595  19.128   3.631
32939W        W 1157   8.432  17.485  11.280
32940W        W 1158  37.796  15.646   2.727
32941W        W 1159   3.219  26.366   3.359
32942W        W 1160  23.815  23.225   2.383
32943W        W 1161   3.497  40.882  14.782
32944W        W 1162  18.778  36.052   2.775
32945W        W 1163   0.468  25.652   3.242
32946W        W 1164  15.509  39.990   3.356
32947W        W 1165  23.692  41.614  11.367
32948W        W 1166  35.765  44.216  11.141
32949W        W 1167  22.707  44.881  14.761
32950W        W 1168  32.517  13.721   0.003
32951W        W 1169  17.264  28.196   1.765
32952W        W 1170  16.597  37.297  10.819
32953W        W 1171  14.450  11.136   3.167
32954W        W 1172   0.508  34.478   3.350
32955W        W 1173  28.598  36.747   4.102
32956W        W 1174   4.347  21.287  11.574
32957W        W 1175  14.243  35.422   1.902
32958W        W 1176   9.151  42.309   3.237
32959W        W 1177  44.865  21.460  12.174
32960W        W 1178  41.262  17.081   2.165
32961W        W 1179  36.834  37.195  11.187
32962W        W 1180  22.028   0.554   0.777
32963W        W 1181  44.531  39.753   2.792
32964W        W 1182  43.450  37.575  13.280
32965W        W 1183  42.502  26.560   3.116
32966W        W 1184  43.841  18.161  14.407
32967W        W 1185  30.511  29.483  10.979
32968W        W 1186  20.146   6.302   0.352
32969W        W 1187  40.320  43.379   4.858
32970W        W 1188  25.722  11.364   1.426
32971W        W 1189  43.348  23.085   3.179
32972W        W 1190  23.718  35.556   1.838
32973W        W 1191  41.967  40.968   0.445
32974W        W 1192  16.672  23.091   3.695
32975W        W 1193  27.961  15.834   2.653
32976W        W 1194  42.506  14.698   1.934
32977W        W 1195  28.962  27.156   2.703
32978W        W 1196  13.399  22.650   2.660
32979W        W 1197   9.055  12.582   0.404
32980W        W 1198  38.381   5.002  14.268
32981W        W 1199  18.848   4.035   1.742
32982W        W 1200  24.217  13.389   3.477
32983W        W 1201  19.299  30.025  10.758
32984W        W 1202  38.565  34.607  14.056
32985W        W 1203  13.295   4.524  13.796
32986W        W 1204  25.010  33.812   1.378
32987W        W 1205  32.176   2.959  13.526
32988W        W 1206  20.192  15.311  10.074
32989W        W 1207  35.980  38.128   2.370
32990W        W 1208   4.921   1.651   2.730
32991W        W 1209  15.946  25.283  13.409
32992W        W 1210   4.429  37.715  13.279
32993W        W 1211  14.132   1.054   0.955
32994W        W 1212  27.869  20.376  14.285
32995W        W 1213   5.137  34.966   4.162
32996W        W 1214  19.741  31.930  11.961
32997W        W 1215  16.410   5.425   4.727
32998W        W 1216  19.232  14.564   0.927
32999W        W 1217  22.628  10.711  13.902
33000W        W 1218  24.346  27.861  13.916
33001W        W 1219   5.917  38.436  14.228
33002W        W 1220  39.049  30.587  10.958
33003W        W 1221  23.107  22.959   1.751
33004W        W 1222  33.667  33.839   3.250
33005W        W 1223  13.159  44.045  13.550
33006W        W 1224  37.053   1.216   4.747
33007W        W 1225  31.543  31.691  14.039
33008W        W 1226   0.816  31.691   0.517
33009W        W 1227  29.812   6.053  13.289
33010W        W 1228   8.151  29.620   2.195
33011W        W 1229  43.855  14.588  12.197
33012W        W 1230  12.383  18.763   1.771
33013W        W 1231  14.137  28.951   0.307
33014W        W 1232  31.545  10.692  12.720
33015W        W 1233  19.033  31.354  14.791
33016W        W 1234  29.052  31.637   4.514
33017W        W 1235   2.096  17.084   2.842
33018W        W 1236  25.087  33.256   2.309
33019W        W 1237  37.115  27.504   3.813
33020W        W 1238  38.350  16.538   4.304
33021W        W 1239  32.638   1.864   0.458
33022W        W 1240  11.737   4.637   3.733
33023W        W 1241   7.968  25.032   1.669
33024W        W 1242  18.602  18.184   1.365
33025W        W 1243  29.112   8.252   1.922
33026W        W 1244   9.387  44.792   3.278
33027W        W 1245  17.718  13.333   3.401
33028W        W 1246  19.860  12.210  12.911
33029W        W 1247   3.482   1.297  10.704
33030W        W 1248   7.396  20.619   4.755
33031W        W 1249  38.668  40.599  11.513
33032W        W 1250  11.444   5.681  12.568
33033W        W 1251   6.861  44.524   2.121
33034W        W 1252  10.491  42.907   1.312
33035W        W 1253  31.985  27.656   0.744
33036W        W 1254  20.139  13.177   2.190
33037W        W 1255  10.618  43.203  11.101
33038W        W 1256  24.240  24.122   4.107
33039W        W 1257  25.140  22.330  13.930
33040W        W 1258  11.920   7.388   2.376
33041W        W 1259   3.861  12.812  13.485
33042W        W 1260  25.973  28.382   3.630
33043W        W 1261  18.745   0.714   4.997
33044W        W 1262  33.564   6.271  12.367
33045W        W 1263  20.388  23.247  11.967
33046W        W 1264  41.557  37.453  11.607
33047W        W 1265  13.657   7.818   1.950
33048W        W 1266  28.704  44.475  10.994
33049W        W 1267   9.669  40.992  10.673
33050W        W 1268   0.778   3.654  13.874
33051W        W 1269  37.389  28.889   0.910
33052W        W 1270  34.351  33.093  12.150
33053W        W 1271  20.717  20.136   0.016
33054W        W 1272  26.178  31.487  13.770
33055W        W 1273  13.166  15.132   4.598
33056W        W 1274  10.582  27.685  13.448
33057W        W 1275  24.959  28.859  11.104
33058W        W 1276  12.725  29.705  11.098
33059W        W 1277  43.339  13.614   4.791
33060W        W 1278   8.316   7.339  10.675
33061W        W 1279  24.248  44.949   4.157
33062W        W 1280  22.170  25.167  10.512
33063W        W 1281  16.295  29.689   2.232
33064W        W 1282  42.018  18.775   2.499
33065W        W 1283  17.169  35.657   3.334
33066W        W 1284   0.759  31.359   4.537
33067W        W 1285  27.842   3.343  13.804
33068W        W 1286  12.824  38.044  12.548
33069W        W 1287  32.548  42.100  12.075
33070W        W 1288   6.726   4.396  14.963
33071W        W 1289  44.125  31.626  11.092
33072W        W 1290  18.262  25.926  14.460
33073W        W 1291   7.119   9.806  14.329
33074W        W 1292  41.264  30.867  11.160
33075W        W 1293  16.741  23.256  12.131
33076W        W 1294  29.417  29.177   0.923
33077W        W 1295  36.894  24.698  13.925
33078W        W 1296  16.321  27.481   0.700
33079W        W 1297  24.545   8.063   2.414
33080W        W 1298  20.712  11.880  14.966
33081W        W 1299   3.279  35.892   0.744
33082W        W 1300  27.434  44.194  14.858
33083W        W 1301  29.264  18.278  13.974
33084W        W 1302  16.298   9.665  14.303
33085W        W 1303  43.236   8.138   3.038
33086W        W 1304  16.645  38.344   0.369
33087W        W 1305  31.099  43.413   0.762
33088W        W 1306  25.559  19.259   4.389
33089W        W 1307  27.118  25.879   0.953
33090W        W 1308  14.033  19.482  12.922
33091W        W 1309  42.149  17.404  12.505
33092W        W 1310  25.104  32.626   4.417
33093W        W 1311  44.363  29.017  13.793
33094W        W 1312  40.387  18.818   0.051
33095W        W 1313  14.724  27.872   2.758
33096W        W 1314   8.691   4.784   2.315
33097W        W 1315  17.346  15.101   0.920
33098W        W 1316  34.076  13.279   2.258
33099W        W 1317  21.524  40.022  13.934
33100W        W 1318  34.511   7.637  10.576
33101W        W 1319  40.499  40.426   0.073
33102W        W 1320  16.198  27.412   1.874
33103W        W 1321  13.688  10.304   2.791
33104W        W 1322  40.852  44.785  11.885
33105W        W 1323  28.927  34.761  11.128
33106W        W 1324  29.080  16.357   2.392
33107W        W 1325  19.448  12.466   1.753
33108W        W 1326  31.800  27.381   1.138
33109W        W 1327  18.085  43.349   3.204
33110W        W 1328  40.833  26.026   1.986
33111W        W 1329   5.915  28.549   2.731
33112W        W 1330  15.232  38.321   3.832
33113W        W 1331  20.762  22.648   3.361
33114W        W 1332  32.879  31.998  12.938
33115W        W 1333  24.309  18.664   2.733
33116W        W 1334   8.322  37.245   3.593
33117W        W 1335   3.416  30.952  12.054
33118W        W 1336  25.605  38.095   2.412
33119W        W 1337  14.783  15.457  13.687
33120W        W 1338  29.913  26.499  13.656
33121W        W 1339  16.959  40.646   5.115
33122W        W 1340   2.525  12.108   1.381
33123W        W 1341   1.920  20.143  11.948
33124W        W 1342   0.426  36.909  14.966
33125W        W 1343  35.091  36.995  14.034
33126W        W 1344  33.357  16.784   3.220
33127W        W 1345  35.869  17.915  11.611
33128W        W 1346   7.842  23.291   4.155
33129W        W 1347  12.036  15.617   1.861
33130W        W 1348   6.939  21.702   2.793
33131W        W 1349  26.012  41.972  11.389
33132W        W 1350  39.595  25.187  10.915
33133W        W 1351  43.061  22.219  11.626
33134W        W 1352  23.688   4.935  10.453
33135W        W 1353  27.160   0.937  13.853
33136W        W 1354   4.646  14.942   0.424
33137W        W 1355  23.475  25.988  13.571
33138W        W 1356  36.482  36.048  13.667
33139W        W 1357  11.777   5.275  12.566
33140W        W 1358  28.068  41.721   2.772
33141W        W 1359  22.015  22.474  11.847
33142W        W 1360  36.093   5.526  12.167
33143W        W 1361   4.382  17.744  13.481
33144W        W 1362  41.070   9.470  12.176
33145W        W 1363  18.597   2.208  14.007
33146W        W 1364  42.405  18.516  14.582
33147W        W 1365  26.745   6.644  11.508
33148W        W 1366  29.590  44.841   2.167
33149W        W 1367  19.285  36.460  10.730
33150W        W 1368  12.854   6.312   4.398
33151W        W 1369   8.124  44.016   4.234
33152W        W 1370  10.606  33.418  14.360
33153W        W 1371  25.225  35.634   2.793
33154W        W 1372   5.751  12.926  11.169
33155W        W 1373  10.274   0.765   1.954
33156W        W 1374   3.171   8.256   3.166
33157W        W 1375  17.529  11.595  12.557
33158W        W 1376  12.241  11.779  13.995
33159W        W 1377  41.375  26.505  11.428
33160W        W 1378  44.966   8.416  12.939
33161W        W 1379   1.840  26.260   1.727
33162W        W 1380  44.120   7.993   2.639
33163W        W 1381   5.300   7.375  10.664
33164W        W 1382  35.294  38.134   1.757
33165W        W 1383  32.081  25.180  12.980
33166W        W 1384  18.112  10.393  10.762
33167W        W 1385   7.821  27.962   3.589
33168W        W 1386  44.213  20.765  10.728
33169W        W 1387  15.865  42.244   3.693
33170W        W 1388  30.624  24.389  13.488
33171W        W 1389   6.015  33.300   2.270
33172W        W 1390  11.345  10.044   1.080
33173W        W 1391   2.035  20.592  14.713
33174W        W 1392  10.190  39.061  13.409
33175W        W 1393  11.413  25.644   4.335
33176W        W 1394  19.564  33.900   3.352
33177W        W 1395   6.196  22.068  14.332
33178W        W 1396  35.582  33.795  10.494
33179W        W 1397   6.334  42.192   0.968
33180W        W 1398  30.155  27.045  10.669
33181W        W 1399  44.803  43.759   2.272
33182W        W 1400  10.043   7.167   1.807
33183W        W 1401  18.316  13.680  12.888
33184W        W 1402   0.794   3.385  12.379
33185W        W 1403  42.265  25.703   3.044
33186W        W 1404  43.263   0.781   2.166
33187W        W 1405  24.541  13.781   3.623
33188W        W 1406  19.414  30.981   4.622
33189W        W 1407   9.920  24.971  11.600
33190W        W 1408  35.824  32.134  12.992
33191W        W 1409  22.029  13.651   2.324
33192W        W 1410  33.847  37.467   1.225
33193W        W 1411  21.505  25.178   1.940
33194W        W 1412  26.361  32.658  13.122
33195W        W 1413  24.246  26.148   3.305
33196W        W 1414  14.149  13.376   3.292
33197W        W 1415   2.292  18.022   0.900
33198W        W 1416  10.417  22.047   0.523
33199W        W 1417  44.789  39.781   3.259
33200W        W 1418  41.948  20.041   1.986
33201W        W 1419   8.068  29.521   0.524
33202W        W 1420  12.332  18.519  13.321
33203W        W 1421  20.623  24.006  12.927
33204W        W 1422  23.366  34.250   4.245
33205W        W 1423  39.508  27.444  11.983
33206W        W 1424   9.131  35.110   1.787
33207W        W 1425  10.923  25.293  13.413
33208W        W 1426  11.607  24.293   9.791
33209W        W 1427   1.755  20.235   1.170
33210W        W 1428  39.880  16.624  10.387
33211W        W 1429  41.239  30.368   4.187
33212W        W 1430   6.380  33.448   4.109
33213W        W 1431  12.014  32.713   0.004
33214W        W 1432  44.283  41.722   3.857
33215W        W 1433  39.198   6.885   1.881
33216W        W 1434  34.452  12.440   3.663
33217W        W 1435   2.873   6.971  11.310
33218W        W 1436  12.423  33.934   0.642
33219W        W 1437  37.889   6.808   2.191
33220W        W 1438  27.099  34.515  12.184
33221W        W 1439  38.844   5.187  14.107
33222W        W 1440   2.020  20.167   5.129
33223W        W 1441  15.314  37.244  11.109
33224W        W 1442  26.400  40.251   1.336
33225W        W 1443  26.150  38.376   0.785
33226W        W 1444  12.697  13.101  13.589
33227W        W 1445  30.052  33.643   0.956
33228W        W 1446  27.141  39.985   4.147
33229W        W 1447  29.035  39.094  14.994
33230W        W 1448  35.082   6.902  12.909
33231W        W 1449  41.972  20.513  14.058
33232W        W 1450  18.124  38.921  12.346
33233W        W 1451  35.525  39.367   1.470
33234W        W 1452  24.702  39.392  13.515
33235W        W 1453  16.791  14.429   0.792
33236W        W 1454  28.524  14.775  11.499
33237W        W 1455   9.635  38.384  10.955
33238W        W 1456  36.458  15.821   4.134
33239W        W 1457  38.959  23.351   3.717
33240W        W 1458  31.079  37.152  13.030
33241W        W 1459   6.289  16.276   5.380
33242W        W 1460  19.137  20.172   4.147
33243W        W 1461  40.163  43.849  14.443
33244W        W 1462   0.268   6.826   3.705
33245W        W 1463  29.411  22.652   0.779
33246W        W 1464  42.271  19.258  13.950
33247W        W 1465  39.303  24.085  14.778
33248W        W 1466  14.836   0.070   2.859
33249W        W 1467   6.560  23.664  12.484
33250W        W 1468  29.787  23.704  13.382
33251W        W 1469  17.107  25.054  14.295
33252W        W 1470  22.579  36.123  13.444
33253W        W 1471   2.567  41.103  14.566
33254W        W 1472  42.407  31.413   4.932
33255W        W 1473  31.965  37.793  13.924
33256W        W 1474  41.436   0.181   1.333
33257W        W 1475  10.834   2.877  13.073
33258W        W 1476  15.698  43.459  14.125
33259W        W 1477  24.821  25.914  10.542
33260W        W 1478  36.547  28.248   1.800
33261W        W 1479   5.210   6.969  11.918
33262W        W 1480   0.186  17.745  14.895
33263W        W 1481  11.777   9.429  11.419
33264W        W 1482  18.257  20.026   4.242
33265W        W 1483  15.855  40.466   4.192
33266W        W 1484  33.980   7.901  12.370
33267W        W 1485   2.834   3.954  13.475
33268W        W 1486  25.290  41.394   4.653
33269W        W 1487  24.531  35.411   2.310
33270W        W 1488  15.295  31.377   2.262
33271W        W 1489  31.188  30.049   2.162
33272W        W 1490  30.255  15.400  13.890
33273W        W 1491  24.220   1.350  12.632
33274W        W 1492  24.648  39.523  14.346
33275W        W 1493  40.272  35.821  12.462
33276W        W 1494   4.313  18.288  12.512
33277W        W 1495  24.987   1.365  11.645
33278W        W 1496  19.212  27.114   2.621
33279W        W 1497  36.781  26.742   1.334
33280W        W 1498  22.074  24.311   0.383
33281W        W 1499   5.116   5.956  13.067
33282W        W 1500   1.793   3.188  12.697
33283W        W 1501   4.991  33.395   1.556
33284W        W 1502  31.867  14.284   0.949
33285W        W 1503  31.537  34.068   3.378
33286W        W 1504  25.590  22.456   4.140
33287W        W 1505  41.989   9.794  11.953
33288W        W 1506  43.917   0.900   0.084
33289W        W 1507  40.901   6.160   0.856
33290W        W 1508  41.432   3.055  10.628
33291W        W 1509  20.815   0.807  12.553
33292W        W 1510  36.326  24.905  13.395
33293W        W 1511  15.681  40.467   3.229
33294W        W 1512  16.153  19.586   2.151
33295W        W 1513  33.867  21.048   0.797
33296W        W 1514   4.444  10.688   1.769
33297W        W 1515  32.446  41.757   0.047
33298W        W 1516   7.200  39.082   4.205
33299W        W 1517  42.341   0.852   0.319
33300W        W 1518  30.420  22.883  12.610
33301W        W 1519   4.714  33.052   2.323
33302W        W 1520  15.835  36.497   1.435
33303W        W 1521  28.658  10.024  10.707
33304W        W 1522  39.802  13.733  12.073
33305W        W 1523  15.564  31.589  11.318
33306W        W 1524  14.096   5.714   3.126
33307W        W 1525  19.278   1.925  12.955
33308W        W 1526  38.990  25.941   0.269
33309W        W 1527  28.687  44.913  11.605
33310W        W 1528   2.709  16.075   1.353
33311W        W 1529  33.116  32.972   2.443
33312W        W 1530  28.181  36.076  12.726
33313W        W 1531  28.886  34.503   1.738
33314W        W 1532  42.870  37.913   0.952
33315W        W 1533  25.591  26.522   3.256
33316W        W 1534  44.191  34.118  10.597
33317W        W 1535  24.369  42.344  11.657
33318W        W 1536  37.575  10.214  12.816
33319W        W 1537  39.892  42.728   2.818
33320W        W 1538   4.156  28.900   3.803
33321W        W 1539   2.775  23.991  10.354
33322W        W 1540   3.564   8.241  14.462
33323W        W 1541  27.433  41.105  11.594
33324W        W 1542  30.706   3.386   3.546
33325W        W 1543  39.966  18.667   3.229
33326W        W 1544  28.740  20.259  13.786
33327W        W 1545   8.168  38.456   0.454
33328W        W 1546   8.623   1.832   3.296
33329W        W 1547  30.550  24.190   4.133
33330W        W 1548  28.917  15.702  11.667
33331W        W 1549  17.689   2.847   4.751
33332W        W 1550  15.376  30.170  13.104
33333W        W 1551  34.879   7.157  11.133
33334W        W 1552  28.054   9.925  13.212
33335W        W 1553  40.032  37.335   0.717
33336W        W 1554   6.962  36.319   0.916
33337W        W 1555  24.776  26.062   3.245
33338W        W 1556   5.517   1.782   4.163
33339W        W 1557  28.188  18.695   0.206
33340W        W 1558  38.341  19.402  13.431
33341W        W 1559  43.707   2.932   4.147
33342W        W 1560  14.086   2.402   0.697
33343W        W 1561  31.589  42.099   0.246
33344W        W 1562  41.301  35.930  14.298
33345W        W 1563  32.887  20.979  13.912
33346W        W 1564   1.913   6.694  13.812
33347W        W 1565   6.838   0.842  14.189
33348W        W 1566   3.407  14.949   2.774
33349W        W 1567  35.471   8.298   1.095
33350W        W 1568  40.798  14.823  10.708
33351W        W 1569   3.426  23.161  11.168
33352W        W 1570  13.669  44.002  12.585
33353W        W 1571  28.730  41.198  11.212
33354W        W 1572  28.275  27.873  11.437
33355W        W 1573  12.363   4.173   0.169
33356W        W 1574  43.374  27.200  11.269
33357W        W 1575  30.001  20.390  13.379
33358W        W 1576  29.084   3.920   5.568
33359W        W 1577   9.360  16.293  12.588
33360W        W 1578  17.065   9.744   2.911
33361W        W 1579  40.855  16.132  13.713
33362W        W 1580  10.468  18.054   1.295
33363W        W 1581  27.471  18.173  11.201
33364W        W 1582  38.986  21.902  12.740
33365W        W 1583  39.245  15.671   4.513
33366W        W 1584   4.651  21.618  10.979
33367W        W 1585  36.411  25.950   2.735
33368W        W 1586  21.337  18.344   2.421
33369W        W 1587  40.529  15.549   4.980
33370W        W 1588   1.537  31.046   2.089
33371W        W 1589  34.955   6.734   0.054
33372W        W 1590  40.545  43.973  11.057
33373W        W 1591  23.257  10.241   0.058
33374W        W 1592  26.863  28.673   4.817
33375W        W 1593  25.780   4.376   2.234
33376W        W 1594  17.026  13.891   1.896
33377W        W 1595   9.655  24.962  10.305
33378W        W 1596  36.010  20.522   1.335
33379W        W 1597   4.701  28.147  10.776
33380W        W 1598  19.880  44.475   0.924
33381W        W 1599  27.544   0.258   2.733
33382W        W 1600  10.252  18.049   0.435
33383W        W 1601  36.077  40.377  11.406
33384W        W 1602  30.786  13.543   2.803
33385W        W 1603  31.993  32.809   1.843
33386W        W 1604  38.291  31.584   4.246
33387W        W 1605  17.867  31.004   3.294
33388W        W 1606  20.680  11.637  14.440
33389W        W 1607   1.320  30.810  14.369
33390W        W 1608  31.385  39.907   0.439
33391W        W 1609  26.699  35.152  10.888
33392W        W 1610  33.475  27.599  12.521
33393W        W 1611  28.147   4.330   3.703
33394W        W 1612  15.309  30.117  14.826
33395W        W 1613  33.399   8.919   0.794
33396W        W 1614  35.511  13.137   4.516
33397W        W 1615  38.106  21.780  14.307
33398W        W 1616   0.119  11.331  12.776
33399W        W 1617  19.946  40.376  11.698
33400W        W 1618   4.450  20.198   0.895
33401W        W 1619  32.854   4.644  14.326
33402W        W 1620   6.750  27.075  13.380
33403W        W 1621  36.537  39.479   1.401
33404W        W 1622  10.620  37.557  11.351
33405W        W 1623  14.568  29.394   2.214
33406W        W 1624  18.773  25.755   1.660
33407W        W 1625  30.697  27.925  11.549
33408W        W 1626  35.802  33.107  11.064
33409W        W 1627   5.326  13.363   3.298
33410W        W 1628   0.490  11.877  12.068
33411W        W 1629  10.784  22.681   4.395
33412W        W 1630   2.261  34.705  14.787
33413W        W 1631  32.631  30.816   3.832
33414W        W 1632   9.648   1.995  13.833
33415W        W 1633  41.521  35.941  10.415
33416W        W 1634   0.269  36.070   3.765
33417W        W 1635  44.075  29.459  12.513
33418W        W 1636   0.265   6.877   1.333
33419W        W 1637   5.637   3.316   2.782
33420W        W 1638  39.941  40.457   2.288
33421W        W 1639  33.966  10.779   3.872
33422W        W 1640   9.190  34.921  11.572
33423W        W 1641  40.212  42.863   0.019
33424W        W 1642   6.949  43.567  14.286
33425W        W 1643  21.699  22.068  11.629
33426W        W 1644  42.599  41.279  11.582
33427W        W 1645  28.608  39.934  10.740
33428W        W 1646  41.386  38.095  11.589
33429W        W 1647  12.924   4.868  13.962
33430W        W 1648  34.350  29.940   4.829
33431W        W 1649   7.910  39.929  12.860
33432W        W 1650  18.262  22.551   1.257
33433W        W 1651  37.521  23.739  12.962
33434W        W 1652  19.826  31.014   1.367
33435W        W 1653  12.294  39.852  14.986
33436W        W 1654  35.572  23.950  14.287
33437W        W 1655   1.514   9.261  12.414
33438W        W 1656  35.357   4.468   2.360
33439W        W 1657  42.723  25.949  12.409
33440W        W 1658  32.443  11.321   0.502
33441W        W 1659  25.050  42.318   3.598
33442W        W 1660   8.639  41.118  12.061
33443W        W 1661  41.873  27.163  13.382
33444W        W 1662  27.011   6.956   1.864
33445W        W 1663  30.311  37.449  14.524
33446W        W 1664  26.850  38.984   4.626
33447W        W 1665  30.106  22.591   3.766
33448W        W 1666  37.305  30.600  10.384
33449W        W 1667   7.753   6.759  10.731
33450W        W 1668   3.405  22.360   2.956
33451W        W 1669  34.901  21.470  12.515
33452W        W 1670  43.652  19.217   2.772
33453W        W 1671  16.647  23.211   4.835
33454W        W 1672  34.326  32.253   3.750
33455W        W 1673  16.301   1.659  14.524
33456W        W 1674   3.189  22.159   4.668
33457W        W 1675  26.025   9.862  12.342
33458W        W 1676  40.181   9.993   0.525
33459W        W 1677   2.876  24.734   4.782
33460W        W 1678  13.223  10.624   4.271
33461W        W 1679  25.660  29.421   4.060
33462W        W 1680  24.599   6.238  10.903
33463W        W 1681   9.337   7.273  10.948
33464W        W 1682  38.541  17.083   1.838
33465W        W 1683  40.733  36.871   3.685
33466W        W 1684  39.012  18.285  12.907
33467W        W 1685  20.166  14.821  13.615
33468W        W 1686   9.297  37.149  13.340
33469W        W 1687  10.733  28.741  13.331
33470W        W 1688  42.557   5.804   4.594
33471W        W 1689  28.387  41.890   3.218
33472W        W 1690  15.715  39.300   3.687
33473W        W 1691   4.419  21.272   1.017
33474W        W 1692  16.209   8.216   0.270
33475W        W 1693  26.873  43.792   3.680
33476W        W 1694  15.389  19.278   3.187
33477W        W 1695  42.319   9.272  14.451
33478W        W 1696  26.270  20.232  14.399
33479W        W 1697   8.263   5.306   4.581
33480W        W 1698  43.149  18.730  14.099
33481W        W 1699  35.885  21.771  14.026
33482W        W 1700  37.485  13.727  14.406
33483W        W 1701  23.066  24.610   1.443
33484W        W 1702  34.621  40.950  13.765
33485W        W 1703   1.693  11.796  14.911
33486W        W 1704  10.055  16.688  11.959
33487W        W 1705  11.913  14.280  14.727
33488W        W 1706  15.875  32.993  10.653
33489W        W 1707  33.867  34.730  12.852
33490W        W 1708  13.055  31.314   4.498
33491W        W 1709  41.995   4.832  11.153
33492W        W 1710  42.115  16.902   1.973
33493W        W 1711  34.659   9.708  13.352
33494W        W 1712  21.160  12.697   2.702
33495W        W 1713  28.979  41.126  13.786
33496W        W 1714  19.650  15.664  13.733
33497W        W 1715  21.166  15.501   4.900
33498W        W 1716   4.504  17.366  11.557
33499W        W 1717  30.871  35.099  12.021
33500W        W 1718  35.004  30.091  12.958
33501W        W 1719  15.183  37.973   4.234
33502W        W 1720  35.171  44.973  12.840
33503W        W 1721  22.647  13.583  13.345
33504W        W 1722  12.609  32.879   3.493
33505W        W 1723  18.155  27.360  14.789
33506W        W 1724   7.753  33.431  14.589
33507W        W 1725  13.138  36.872   0.415
33508W        W 1726   3.520  39.095   1.757
33509W        W 1727  35.360  25.593   3.703
33510W        W 1728  44.235  31.096  12.942
33511W        W 1729   9.108  18.688   3.319
33512W        W 1730  10.144  12.390  14.808
33513W        W 1731  15.422  20.704   1.898
33514W        W 1732  27.876  37.509   2.347
33515W        W 1733   8.806  44.920   3.623
33516W        W 1734  18.229  39.938  11.400
33517W        W 1735   8.437  34.606   3.238
33518W        W 1736  24.684  20.729  14.324
33519W        W 1737  29.673  34.890   1.320
33520W        W 1738  26.047  43.995  14.553
33521W        W 1739   8.169  25.698   2.687
33522W        W 1740  41.706  15.024  12.434
33523W        W 1741  31.087  23.437   4.030
33524W        W 1742  14.717  31.756  11.827
33525W        W 1743   3.345  36.376   2.951
33526W        W 1744  21.714   8.820   2.163
33527W        W 1745  22.747  21.740  14.759
33528W        W 1746   6.479   5.400   2.992
33529W        W 1747  12.314   9.619   3.309
33530W        W 1748   4.239  39.098  11.489
33531W        W 1749   9.552  41.926   3.177
33532W        W 1750  44.446  25.772  13.524
33533W        W 1751  34.858  44.776  13.794
33534W        W 1752  31.592   9.803   2.321
33535W        W 1753  21.592  16.662  10.959
33536W        W 1754  36.896  16.564  11.142
33537W        W 1755   4.914   5.758   2.802
33538W        W 1756  21.179   4.799   2.206
33539W        W 1757  29.280  27.070   3.799
33540W        W 1758  41.086   8.133  12.112
33541W        W 1759  30.624  13.840  14.182
33542W        W 1760  26.054  21.498   9.869
33543W        W 1761  32.008   6.632   4.872
33544W        W 1762   4.294   3.986  13.086
33545W        W 1763  12.059  14.605  12.851
33546W        W 1764   7.733  25.643   2.408
33547W        W 1765  33.744   5.759  10.190
33548W        W 1766  12.637  35.914  11.223
33549W        W 1767  43.954  42.005   3.259
33550W        W 1768   5.643  35.884   1.645
33551W        W 1769  32.407  42.330   2.890
33552W        W 1770  34.566  18.314  14.439
33553W        W 1771  39.413  14.782  14.974
33554W        W 1772  26.185  27.542  11.120
33555W        W 1773   1.265  41.927   4.750
33556W        W 1774   3.856  36.067  12.360
33557W        W 1775  39.809  37.069   0.321
33558W        W 1776  43.236  13.199   0.790
33559W        W 1777   2.791  37.859  14.019
33560W        W 1778  40.611  10.855  13.591
33561W        W 1779   6.200  37.997  13.958
33562W        W 1780   1.125  37.361  14.750
33563W        W 1781  34.147  11.940   2.256
33564W        W 1782  34.902  24.166   5.080
33565W        W 1783   2.788   0.072   1.208
33566W        W 1784  31.729   3.252  13.001
33567W        W 1785   8.257  40.898  11.008
33568W        W 1786  18.022  14.800   1.291
33569W        W 1787   9.708  41.547   2.684
33570W        W 1788  38.966  43.288   0.368
33571W        W 1789  22.593  14.561  13.440
33572W        W 1790  10.400  16.367   4.560
33573W        W 1791  11.520   0.542   2.188
33574W        W 1792  33.166  33.502   4.127
33575W        W 1793  24.469  16.198  10.599
33576W        W 1794  13.284  22.196   2.431
33577W        W 1795   5.074  27.434  13.448
33578W        W 1796  42.592  13.561  12.859
33579W        W 1797  32.094  43.971  13.535
33580W        W 1798  15.838  11.925  14.279
33581W        W 1799   3.865  35.853  10.508
33582W        W 1800  26.040  33.471   0.429
33583W        W 1801  34.673  16.748  12.273
33584W        W 1802  40.820  10.321  13.230
33585W        W 1803  31.494  14.222  12.047
33586W        W 1804  27.706  31.787   4.816
33587W        W 1805  39.019  35.030  10.915
33588W        W 1806  29.576   6.900  13.103
33589W        W 1807  30.353  23.560   0.357
33590W        W 1808  35.413   0.712  12.123
33591W        W 1809   1.167  42.936  12.629
33592W        W 1810  25.643   0.100  10.776
33593W        W 1811  28.318  38.168   1.006
33594W        W 1812   4.396  35.984   1.273
33595W        W 1813  42.888  15.699   1.264
33596W        W 1814  31.934  20.672   4.614
33597W        W 1815   4.773  35.415  11.651
33598W        W 1816  13.310   9.900   1.326
33599W        W 1817  37.088  21.707   0.435
33600W        W 1818  32.674   1.954  11.110
33601W        W 1819   5.962  25.500   1.964
33602W        W 1820   9.336  21.815   2.609
33603W        W 1821  12.225  30.022   2.985
33604W        W 1822  11.339  20.172   2.837
33605W        W 1823  12.602   5.091  11.606
33606W        W 1824   2.988  32.048   2.580
33607W        W 1825   5.020  44.892   2.917
33608W        W 1826  18.388  17.726  13.492
33609W        W 1827  37.829  17.240   1.176
33610W        W 1828  16.625   5.751  12.109
33611W        W 1829   7.045  36.015  14.379
33612W        W 1830  42.422  22.638  12.925
33613W        W 1831   3.345  34.031   0.298
33614W        W 1832  36.969  24.952   4.205
33615W        W 1833  42.795  42.240  11.578
33616W        W 1834  21.662   9.853  14.452
33617W        W 1835  29.461  33.950   3.660
33618W        W 1836  40.563  34.600  14.308
33619W        W 1837  39.649  25.129   0.430
33620W        W 1838  24.099  39.451  12.490
33621W        W 1839  41.843  33.591  10.342
33622W        W 1840  34.659  44.403  12.199
33623W        W 1841  23.551  13.156  14.231
33624W        W 1842   8.454  41.293   0.325
33625W        W 1843   6.796  27.728  14.086
33626W        W 1844  36.595  38.510   1.316
33627W        W 1845  26.703   0.457   4.635
33628W        W 1846  22.176  17.123   4.500
33629W        W 1847   9.065  43.840   0.599
33630W        W 1848   0.050   7.044   1.783
33631W        W 1849   9.377  13.684  12.507
33632W        W 1850   3.711  36.799   1.876
33633W        W 1851  30.345  23.746  14.246
33634W        W 1852  17.081  24.054  14.623
33635W        W 1853  26.968  23.613  11.192
33636W        W 1854  24.815  22.788   5.357
33637W        W 1855   6.814  16.291   1.797
33638W        W 1856   5.892  29.097  14.767
33639W        W 1857  43.878  27.263  11.390
33640W        W 1858  25.631  44.761   1.141
33641W        W 1859   8.763   7.811  12.948
33642W        W 1860  17.766  16.244  10.252
33643W        W 1861  33.312   9.273  11.151
33644W        W 1862  42.735  41.489   5.084
33645W        W 1863  18.517   1.511  12.402
33646W        W 1864   8.771  15.334  12.587
33647W        W 1865  39.693  26.615   2.102
33648W        W 1866  19.639  36.988   1.337
33649W        W 1867  27.894   8.101   0.017
33650W        W 1868   7.891   9.194  10.526
33651W        W 1869  10.199  34.845  10.609
33652W        W 1870   8.895  42.605  11.109
33653W        W 1871  28.487  30.863  10.708
33654W        W 1872   6.486  25.071  10.345
33655W        W 1873   3.370  25.799  12.059
33656W        W 1874   2.043  17.922   3.212
33657W        W 1875  36.458  38.026   3.466
33658W        W 1876  11.378  33.156  13.392
33659W        W 1877  22.217  40.328   0.169
33660W        W 1878   8.874  23.048  13.959
33661W        W 1879   5.539  21.246  12.911
33662W        W 1880  36.877   0.465   2.190
33663W        W 1881  32.016   2.370  14.873
33664W        W 1882  35.948   1.287  11.976
33665W        W 1883  36.066  19.989  12.739
33666W        W 1884   1.632  37.375  14.870
33667W        W 1885  39.611  28.018  14.335
33668W        W 1886  29.235  34.366  11.273
33669W        W 1887  33.170  25.402   4.301
33670W        W 1888  21.221  13.709  14.945
33671W        W 1889  15.315  10.138   1.268
33672W        W 1890  44.761  13.375   2.886
33673W        W 1891   0.242   0.952  10.766
33674W        W 1892  32.070  26.994   0.355
33675W        W 1893  14.968  35.849  12.578
33676W        W 1894   0.354  29.720   1.322
33677W        W 1895   8.062   4.217  13.074
33678W        W 1896  23.022  13.555  12.952
33679W        W 1897  40.644   9.170  12.133
33680W        W 1898  16.792  32.506  10.522
33681W        W 1899  28.683  36.110  14.479
33682W        W 1900  20.922  24.195  13.853
33683W        W 1901  42.343   9.242   4.818
33684W        W 1902  32.415  29.522   2.636
33685W        W 1903  14.021  29.293  12.592
33686W        W 1904  10.888   7.267   2.152
33687W        W 1905  39.792  41.190   2.799
33688W        W 1906   4.028  40.385   2.339
33689W        W 1907  15.132  27.523   2.784
33690W        W 1908   6.390  41.215  14.816
33691W        W 1909  42.881   4.205  12.906
33692W        W 1910  32.453  19.033   4.870
33693W        W 1911  36.166  17.165  11.137
33694W        W 1912  37.106  28.968  14.472
33695W        W 1913  26.011  35.108  14.844
33696W        W 1914   5.280  15.130   2.299
33697W        W 1915   3.734  31.878  13.392
33698W        W 1916   9.665  13.880   3.620
33699W        W 1917  22.661  19.327   0.844
33700W        W 1918  14.373  26.390   0.353
33701W        W 1919  26.646  38.949   3.775
33702W        W 1920  21.347   9.458  14.802
33703W        W 1921  12.752  10.468  12.071
33704W        W 1922  12.021  33.619   4.739
33705W        W 1923  36.585  26.768  12.612
33706W        W 1924  36.979  38.444  12.764
33707W        W 1925   6.657   5.067   2.635
33708W        W 1926  16.219  25.011   1.252
33709W        W 1927  41.331   2.233  11.036
33710W        W 1928  42.655  36.987  12.387
33711W        W 1929  28.072  30.641  13.398
33712W        W 1930  17.214  28.503  12.811
33713W        W 1931  18.162  31.172  11.722
33714W        W 1932  38.993  19.146   4.587
33715W        W 1933   6.645   1.788  10.497
33716W        W 1934  25.252  43.522   3.838
33717W        W 1935  36.905  15.759   0.565
33718W        W 1936  32.276  14.717  11.177
33719W        W 1937   4.757  13.108  12.749
33720W        W 1938  41.482  13.810   3.874
33721W        W 1939  12.905  11.390  11.040
33722W        W 1940  34.345  21.086   3.215
33723W        W 1941  35.677  34.062  12.673
33724W        W 1942  12.916  25.557   0.852
33725W        W 1943  44.978  12.882   2.853
33726W        W 1944  27.076  14.054  12.640
33727W        W 1945  25.233  36.639   2.880
33728W        W 1946  34.038  39.931  13.876
33729W        W 1947  14.813  36.423   2.900
33730W        W 1948  25.567  16.849  12.417
33731W        W 1949  44.515  22.687  14.779
33732W        W 1950  28.950   3.473  11.579
33733W        W 1951   2.997   2.502   2.119
33734W        W 1952  36.921  34.725   3.040
33735W        W 1953  41.921  19.263   1.366
33736W        W 1954   4.648  27.243   2.760
33737W        W 1955  40.677   8.640   4.046
33738W        W 1956  33.663  16.126   0.397
33739W        W 1957  20.062   7.957  13.958
33740W        W 1958  22.991  12.051   0.358
33741W        W 1959  10.946   8.731   4.297
33742W        W 1960   9.931  39.350  13.870
33743W        W 1961  31.960   2.667   0.900
33744W        W 1962  18.277  21.096   2.907
33745W        W 1963  38.613   4.079   0.529
33746W        W 1964  39.438   5.845   2.842
33747W        W 1965  22.173  14.737   2.399
33748W        W 1966  10.349  21.630   1.399
33749W        W 1967  11.682  13.858  13.828
33750W        W 1968  31.829  13.469  11.420
33751W        W 1969  13.072   8.772  12.804
33752W        W 1970  42.674  14.130  13.638
33753W        W 1971  19.396  11.029  11.012
33754W        W 1972  19.117  28.966   1.394
33755W        W 1973  28.977  16.180   3.806
33756W        W 1974  39.812  32.522  10.887
33757W        W 1975  33.424   2.305   3.523
33758W        W 1976  38.726  41.720  14.810
33759W        W 1977  24.056   8.701  14.442
33760W        W 1978   1.454   3.764  13.435
33761W        W 1979  20.583  30.971   4.008
33762W        W 1980  22.275  40.876   4.044
33763W        W 1981  29.196   9.551   4.181
33764W        W 1982  31.527   1.984  12.414
33765W        W 1983   0.510  38.987  10.556
33766W        W 1984  24.174  10.699  10.379
33767W        W 1985   2.470  44.740  14.826
33768W        W 1986   8.377  21.202  12.435
33769W        W 1987   9.408  25.200  13.348
33770W        W 1988   8.296  18.854  10.147
33771W        W 1989  10.174  29.031   3.624
33772W        W 1990  10.398  25.551  14.278
33773W        W 1991  34.673   4.588  10.527
33774W        W 1992  20.545   2.471   2.288
33775W        W 1993  44.817  30.528  12.427
33776W        W 1994  14.528  19.653  12.934
33777W        W 1995  13.362   7.444   0.286
33778W        W 1996  15.237   7.937  11.929
33779W        W 1997  14.131  32.865  12.092
33780W        W 1998   7.950  18.757   0.885
33781W        W 1999  11.406  29.008  13.274
33782W        W 2000  37.821   7.378  14.986
33783W        W 2001  35.378  13.705   4.572
33784W        W 2002  18.848  17.651   4.249
33785W        W 2003  14.590  42.450  12.640
33786W        W 2004   0.086   1.232   2.422
33787W        W 2005  30.554  44.931  11.981
33788W        W 2006   0.506  26.439  12.831
33789W        W 2007   1.278  21.777   4.518
33790W        W 2008   3.626  33.309   1.650
33791W        W 2009  31.833   8.649   2.428
33792W        W 2010  26.643   1.650  13.837
33793W        W 2011  23.545   1.801  11.506
33794W        W 2012  35.883  27.453   2.716
33795W        W 2013   7.778  26.429   0.814
33796W        W 2014   9.956  23.120  10.614
33797W        W 2015  22.028   5.889  14.388
33798W        W 2016  11.874  41.072   2.727
33799W        W 2017  27.848  26.965  13.877
33800W        W 2018   0.554  13.367  11.675
33801W        W 2019   1.036  33.081   3.299
33802W        W 2020  21.193   7.249  10.221
33803W        W 2021  33.793  38.284  14.307
33804W        W 2022  29.244  39.325  13.839
33805W        W 2023  20.544   0.320  11.607
33806W        W 2024  27.792  21.597  11.263
33807W        W 2025  17.368  10.233   0.685
33808W        W 2026  16.520   3.306  14.041
33809W        W 2027  44.369  19.732  14.880
33810W        W 2028  16.113  41.812  12.119
33811W        W 2029  41.292  21.602  11.585
33812W        W 2030  26.472  42.991  13.820
33813W        W 2031   5.850   2.763  14.026
33814W        W 2032   6.362  43.728   2.170
33815W        W 2033   5.709  17.980   5.067
33816W        W 2034  18.843  14.268   0.791
33817W        W 2035  13.658  17.617   3.661
33818W        W 2036   6.152  43.479   9.932
33819W        W 2037   0.817  18.085  13.795
33820W        W 2038  33.510  13.236  13.150
33821W        W 2039  10.828  27.473   0.340
33822W        W 2040  34.234  21.317   1.913
33823W        W 2041  24.867   8.882  10.894
33824W        W 2042  14.712  14.348  14.904
33825W        W 2043   8.360  28.289  14.349
33826W        W 2044  27.148  34.751  14.546
33827W        W 2045  15.119  27.864  14.428
33828W        W 2046   7.638  43.001  13.013
33829W        W 2047  12.539  31.671   2.084
33830W        W 2048   8.400  36.336   3.724
33831W        W 2049  25.508  27.748   2.304
33832W        W 2050   3.913   4.150   1.891
33833W        W 2051  22.246  20.529  11.920
33834W        W 2052  11.098   5.822   3.177
33835W        W 2053  21.792  35.646  14.728
33836W        W 2054  24.463  16.528  11.026
33837W        W 2055  10.341  13.601   0.501
33838W        W 2056  25.256  27.609  14.816
33839W        W 2057  44.556   3.429   0.327
33840W        W 2058   7.203  35.257  14.867
33841W        W 2059  19.652  25.248  14.973
33842W        W 2060  11.651  12.948   4.430
33843W        W 2061  42.636  41.502   0.418
33844W        W 2062   1.966  40.305   3.608
33845W        W 2063  16.719  14.361   4.291
33846W        W 2064  26.223  14.013  11.033
33847W        W 2065  38.746  36.579  13.102
33848W        W 2066  10.435  37.379  10.646
33849W        W 2067  40.972  20.173  13.931
33850W        W 2068  34.349  12.499  13.381
33851W        W 2069  27.137   4.967   4.202
33852W        W 2070  12.122  10.179  11.012
33853W        W 2071  38.429  38.022  13.418
33854W        W 2072  14.616  40.118   3.552
33855W        W 2073  27.128  30.912  12.984
33856W        W 2074  16.358  31.016  14.769
33857W        W 2075  30.090   2.562  12.978
33858W        W 2076  20.496  28.660  10.748
33859W        W 2077  23.652  17.617  14.505
33860W        W 2078  23.551  10.484  13.508
33861W        W 2079   7.412  25.074  14.256
33862W        W 2080  26.434  26.106  13.782
33863W        W 2081   4.544  10.053  12.378
33864W        W 2082  44.651  13.589  11.445
33865W        W 2083  33.391  29.710   3.757
33866W        W 2084  21.529  38.468  12.185
33867W        W 2085  10.795  21.680  11.740
33868W        W 2086   6.790  44.520   2.639
33869W        W 2087  32.952  11.883   1.020
33870W        W 2088   7.971   2.116   5.032
33871W        W 2089  17.860  32.331   1.219
33872W        W 2090  38.812  40.727   0.954
33873W        W 2091  29.130   7.326   1.802
33874W        W 2092  41.465  10.333  13.685
33875W        W 2093   4.953   8.037   5.208
33876W        W 2094  39.791  22.166  10.961
33877W        W 2095  26.057  24.647   1.181
33878W        W 2096  12.398  17.867  12.143
33879W        W 2097   9.399  41.884   2.244
33880W        W 2098  26.086  24.624   3.621
33881W        W 2099  30.908   6.079  12.004
33882W        W 2100  16.214  24.104   0.866
33883W        W 2101  42.810  32.090  11.963
33884W        W 2102  27.169  13.377   0.260
33885W        W 2103   2.162  40.942  10.736
33886W        W 2104  15.724  10.666   1.296
33887W        W 2105  29.472   5.352   2.209
33888W        W 2106  16.657  23.740  13.034
33889W        W 2107  11.229  44.309   2.414
33890W        W 2108  28.291  24.264  10.436
33891W        W 2109   9.703  26.330   3.824
33892W        W 2110  19.285   1.220  14.855
33893W        W 2111  23.922   0.941   1.914
33894W        W 2112  26.968  21.753  12.383
33895W        W 2113   8.321  44.288   1.722
33896W        W 2114  22.634   2.310   1.767
33897W        W 2115  38.715   0.815   5.113
33898W        W 2116   2.151  39.829   3.582
33899W        W 2117  12.044   7.168  11.620
33900W        W 2118  23.954  36.355  13.408
33901W        W 2119  42.732  25.098  13.561
33902W        W 2120  14.012  13.872   1.731
33903W        W 2121   4.760  17.964   2.659
33904W        W 2122  31.143  10.055   2.405
33905W        W 2123  27.593  13.269   2.297
33906W        W 2124  24.675  10.680   1.373
33907W        W 2125  18.058  17.557   4.804
33908W        W 2126  35.310  15.514   0.395
33909W        W 2127  17.019  34.489   0.710
33910W        W 2128   4.423   0.256  13.947
33911W        W 2129  33.131  26.142  12.148
33912W        W 2130  40.004  29.231  14.746
33913W        W 2131  18.161  44.330  11.228
33914W        W 2132  31.335  28.703   2.798
33915W        W 2133  42.371  33.795   3.385
33916W        W 2134  42.457   0.346   0.461
33917W        W 2135   5.676  14.751  12.470
33918W        W 2136  20.113  38.020  13.115
33919W        W 2137  39.540  43.747  13.008
33920W        W 2138  13.557   0.830   0.312
33921W        W 2139   2.456   2.430  13.860
33922W        W 2140  12.434  12.880   3.625
33923W        W 2141  16.171  10.669   2.013
33924W        W 2142  23.391   3.280  10.312
33925W        W 2143  15.120  25.982   3.275
33926W        W 2144  18.989  19.318  14.954
33927W        W 2145  11.916  12.225  12.849
33928W        W 2146   8.637  20.751  12.425
33929W        W 2147  35.571  20.299   4.587
33930W        W 2148   8.222  14.516  12.949
33931W        W 2149  19.092  26.267  10.691
33932W        W 2150  28.960   1.705   3.812
33933W        W 2151  27.171  29.902  12.980
33934W        W 2152   8.608  34.443  11.100
33935W        W 2153  24.977  16.222  10.604
33936W        W 2154  16.794  15.841  11.952
33937W        W 2155   3.947  42.536  12.711
33938W        W 2156  32.594  17.479  11.029
33939W        W 2157  23.952  34.626  12.013
33940W        W 2158   8.856  15.632  10.844
33941W        W 2159  43.971  38.340  13.301
33942W        W 2160  38.934  16.242   2.854
33943W        W 2161  33.304  18.550   2.823
33944W        W 2162   1.953  23.906  10.728
33945W        W 2163   2.380  26.231   1.850
33946W        W 2164  40.401  17.055   1.164
33947W        W 2165   9.953   8.208  10.994
33948W        W 2166   4.141  37.042   2.169
33949W        W 2167  24.309  19.063  14.414
33950W        W 2168  43.338  12.289   1.445
33951W        W 2169  23.760  42.069  14.005
33952W        W 2170   0.996  41.469   4.600
33953W        W 2171  18.033  16.765   2.897
33954W        W 2172  25.809  13.629  14.318
33955W        W 2173  39.142  31.151   0.108
33956W        W 2174   6.916  37.458   1.326
33957W        W 2175  13.580   1.704   1.342
33958W        W 2176  11.829  13.756   0.940
33959W        W 2177  28.668   7.326   0.112
33960W        W 2178  37.468  18.341   2.556
33961W        W 2179   8.216   5.880   3.301
33962W        W 2180   2.664  13.550   3.932
33963W        W 2181  28.433  13.557   2.168
33964W        W 2182   6.402  28.159  13.984
33965W        W 2183  19.152  13.319  12.614
33966W        W 2184  41.435  21.241   0.914
33967W        W 2185  21.447  17.669  11.479
33968W        W 2186   3.917  19.551  14.722
33969W        W 2187  38.780  44.405   2.380
33970W        W 2188  16.861  37.551   4.377
33971W        W 2189  12.122  41.457   4.868
33972W        W 2190  17.367  14.827   0.207
33973W        W 2191  20.948  44.752   1.820
33974W        W 2192  11.052  23.953  13.359
33975W        W 2193  28.105  10.599   4.248
33976W        W 2194  14.533   6.927  14.513
33977W        W 2195  34.838  42.790  13.490
33978W        W 2196  27.837   4.401   1.304
33979W        W 2197   4.068  18.225  11.963
33980W        W 2198  37.639  38.911  14.379
33981W        W 2199  34.125  37.955   2.353
33982W        W 2200  28.679  33.062  11.877
33983W        W 2201   3.176   0.803   3.589
33984W        W 2202  18.249  33.862   4.203
33985W        W 2203  12.323   0.429   3.581
33986W        W 2204  37.030  34.522   1.750
33987W        W 2205  11.594  15.040   2.674
33988W        W 2206   7.368  22.771  14.549
33989W        W 2207   0.476  21.443   1.393
33990W        W 2208  27.711   2.689   4.336
33991W        W 2209  44.905  12.845  11.926
33992W        W 2210   8.911  20.298   3.595
33993W        W 2211   8.462  22.131  12.626
33994W        W 2212  17.128   6.647   2.324
33995W        W 2213   8.853   2.481  10.592
33996W        W 2214  12.866  40.060  13.835
33997W        W 2215  44.392   3.942   2.302
33998W        W 2216  44.338  28.935   1.938
33999W        W 2217  28.703  34.843  14.081
34000W        W 2218  16.637  17.233   2.593
34001W        W 2219  18.603   1.811  11.177
34002W        W 2220   6.290  35.919  10.311
34003W        W 2221  20.239   6.932   2.759
34004W        W 2222  24.737  40.096   4.958
34005W        W 2223  24.329  37.389  11.407
34006W        W 2224  34.881  31.849  13.959
34007W        W 2225   9.616   5.754   3.103
34008W        W 2226  27.966  43.487  11.599
34009W        W 2227  39.453  31.897  12.198
34010W        W 2228   5.263  31.620   1.450
34011W        W 2229  21.182  20.022   4.304
34012W        W 2230  24.440   2.199   1.770
34013W        W 2231  36.081  22.704  11.519
34014W        W 2232  19.694  40.939   0.107
34015W        W 2233  41.600  20.372   2.162
34016W        W 2234  13.619  38.054  10.664
34017W        W 2235  33.937  36.518   1.234
34018W        W 2236  24.670   7.969  14.261
34019W        W 2237   5.252   3.883   4.028
34020W        W 2238  35.927  20.265   1.829
34021W        W 2239  31.258   8.447   1.702
34022W        W 2240  10.734   9.419   4.921
34023W        W 2241  33.965  31.004   1.698
34024W        W 2242  26.561  11.982   2.796
34025W        W 2243  17.147  13.092  11.027
34026W        W 2244  28.954  42.542   1.378
34027W        W 2245  42.359  26.248   1.034
34028W        W 2246  21.456  36.503  13.825
34029W        W 2247  12.198  19.215  11.783
34030W        W 2248  27.043  44.062  14.522
34031W        W 2249  28.190  35.396  11.969
34032W        W 2250  14.747  35.833  12.114
34033W        W 2251  35.100  17.627  14.280
34034W        W 2252   6.804   9.187   0.495
34035W        W 2253   4.292  19.377   1.509
34036W        W 2254  22.302  10.699   3.633
34037W        W 2255   2.289  35.285  12.131
34038W        W 2256  15.624   7.593  11.922
34039W        W 2257  23.113  24.637   3.242
34040W        W 2258  28.240  30.554   4.543
34041W        W 2259  11.199  27.945   4.713
34042W        W 2260  11.647  39.262  13.505
34043W        W 2261  31.684  13.052  13.305
34044W        W 2262  36.286  30.694  10.321
34045W        W 2263  42.898   9.041  12.460
34046W        W 2264  32.543   1.761  10.272
34047W        W 2265   9.879  32.608   0.808
34048W        W 2266  13.709  35.386  11.052
34049W        W 2267  36.314  33.977   0.690
34050W        W 2268   1.693  28.710   3.710
34051W        W 2269   8.455  15.636   0.346
34052W        W 2270  34.448  10.165   3.313
34053W        W 2271  36.252  18.887   1.195
34054W        W 2272  33.045  43.897  12.057
34055W        W 2273  35.783  27.626  12.866
34056W        W 2274  23.648  32.686  12.593
34057W        W 2275   4.470  20.707   3.554
34058W        W 2276   2.058  27.097   3.209
34059W        W 2277  24.174  30.137  13.335
34060W        W 2278  18.007  31.092  10.887
34061W        W 2279  30.309  42.068   4.699
34062W        W 2280  16.738  40.299  11.678
34063W        W 2281  38.820  22.005   1.271
34064W        W 2282  21.133  29.403  14.783
34065W        W 2283  21.267   7.692   4.172
34066W        W 2284  10.670   5.465  12.076
34067W        W 2285  32.178  39.820  11.703
34068W        W 2286  12.161  13.398  14.969
34069W        W 2287  37.527  28.089  13.044
34070W        W 2288  42.441  35.864  13.834
34071W        W 2289  44.839  27.122  11.212
34072W        W 2290  31.110   6.494   0.788
34073W        W 2291   7.674  44.324   0.921
34074W        W 2292  10.930   6.581  11.126
34075W        W 2293  31.731  39.011  10.635
34076W        W 2294  36.308   2.019   4.624
34077W        W 2295   5.763  36.478  13.374
34078W        W 2296  31.483  44.704  11.061
34079W        W 2297  21.299  26.542  14.965
34080W        W 2298   5.343  10.576   3.815
34081W        W 2299  23.964  39.623   4.089
34082W        W 2300  21.768   7.424  14.473
34083W        W 2301  29.103   5.275   5.009
34084W        W 2302  20.580  35.117  12.318
34085W        W 2303  44.591  13.914   1.260
34086W        W 2304  42.813   6.923  11.917
34087W        W 2305  12.636  22.970   4.105
34088W        W 2306   9.273   6.275  11.504
34089W        W 2307  44.907  15.099  12.080
34090W        W 2308  11.019  34.981   4.550
34091W        W 2309  43.981  31.415   2.378
34092W        W 2310  42.463  14.780   0.923
34093W        W 2311  18.182   3.438  13.398
34094W        W 2312  44.023  16.633   0.349
34095W        W 2313  13.779  37.260  12.571
34096W        W 2314  10.804   7.245  14.732
34097W        W 2315  26.611  20.569  14.033
34098W        W 2316  34.456  18.335   2.406
34099W        W 2317  43.354  37.349  12.829
34100W        W 2318  16.513  24.215  13.294
34101W        W 2319  42.893  26.960   0.738
34102W        W 2320  29.916   3.193   3.255
34103W        W 2321  42.840  14.144   1.265
34104W        W 2322  35.977   9.047  13.926
34105W        W 2323  22.781  16.502  10.174
34106W        W 2324  14.182  12.672   0.277
34107W        W 2325  29.666  16.295  13.345
34108W        W 2326  27.287   6.310  13.323
34109W        W 2327  17.033   8.889   2.668
34110W        W 2328  31.726  11.368  12.830
34111W        W 2329  22.502  34.819  14.372
34112W        W 2330  41.077  14.302   3.290
34113W        W 2331  43.257   3.977  11.679
34114W        W 2332  40.874  26.187  13.732
34115W        W 2333  21.694   3.243  13.446
34116W        W 2334   4.211  39.981   3.591
34117W        W 2335  33.423  30.084   3.357
34118W        W 2336  17.669  24.674   4.660
34119W        W 2337  38.046  31.949  14.687
34120W        W 2338   8.748  11.478   3.250
34121W        W 2339   8.593  17.093   3.530
34122W        W 2340  39.519   4.987   1.387
34123W        W 2341  21.046  25.198  14.809
34124W        W 2342  22.287  15.321   3.564
34125W        W 2343   5.400  20.021  10.717
34126W        W 2344  23.068  39.439  13.459
34127W        W 2345  10.326   1.739  14.398
34128W        W 2346  12.407  33.047   1.336
34129W        W 2347   1.845  20.933   4.942
34130W        W 2348  10.094   7.324  11.932
34131W        W 2349  43.387  39.353  11.368
34132W        W 2350  35.500  33.525  12.819
34133W        W 2351  17.076   0.586   1.698
34134W        W 2352   9.629  18.898  14.686
34135W        W 2353  21.941   3.123  12.930
34136W        W 2354  39.314  26.045  13.887
34137W        W 2355  16.041  18.617   0.414
34138W        W 2356  26.954  29.937  10.516
34139W        W 2357  15.270  42.735  14.741
34140W        W 2358  19.102  22.188   4.179
34141W        W 2359  22.491  12.173   4.916
34142W        W 2360  41.442  40.814   0.288
34143W        W 2361   8.426  35.838   2.426
34144W        W 2362  30.514  40.239  11.239
34145W        W 2363  21.035   6.216   3.135
34146W        W 2364   3.402  40.221   2.731
34147W        W 2365  36.094  20.722   4.188
34148W        W 2366  19.164   7.308   4.511
34149W        W 2367  10.307   3.789  13.913
34150W        W 2368   7.307   9.848  14.814
34151W        W 2369   4.961  17.340   3.247
34152W        W 2370  25.176  40.522  14.673
34153W        W 2371  30.439   3.924   3.416
34154W        W 2372  41.331  43.127   3.677
34155W        W 2373   4.273  36.941  11.657
34156W        W 2374  15.073  34.570  13.011
34157W        W 2375   1.941  16.539   2.257
34158W        W 2376  39.818  32.627   0.300
34159W        W 2377  25.713  32.051   1.267
34160W        W 2378  22.204  23.991  13.599
34161W        W 2379  19.493  33.329  11.179
34162W        W 2380  23.472  17.068   0.375
34163W        W 2381  20.043  41.331   2.327
34164W        W 2382  23.810  40.270  11.154
34165W        W 2383  35.780  42.013  13.363
34166W        W 2384  37.117   5.410  12.034
34167W        W 2385  21.143   2.893   0.447
34168W        W 2386   4.876  18.875   3.158
34169W        W 2387  33.513  33.355  13.776
34170W        W 2388  22.142   9.593   0.211
34171W        W 2389  34.560   6.603   3.134
34172W        W 2390  27.852  36.561   4.490
34173W        W 2391  37.681   1.247   3.807
34174W        W 2392  22.497  20.460  14.380
34175W        W 2393  34.440  43.448  13.540
34176W        W 2394  12.761  29.435  10.642
34177W        W 2395  29.081   6.266  12.931
34178W        W 2396  16.043  43.698   4.601
34179W        W 2397  27.051   5.203  10.466
34180W        W 2398   0.159  10.685  13.986
34181W        W 2399  27.882  22.562   0.819
34182W        W 2400  31.545   5.234   0.844
34183W        W 2401  36.837  20.684  12.493
34184W        W 2402  32.515  37.473  14.589
34185W        W 2403  36.918  17.210   1.525
34186W        W 2404  39.848  15.230  13.289
34187W        W 2405  40.747   3.800   4.248
34188W        W 2406  29.465  22.204  10.753
34189W        W 2407  10.411  36.828   3.101
34190W        W 2408  30.391  34.940   4.548
34191W        W 2409  26.196  42.066  10.919
34192W        W 2410  10.241  27.173  10.924
34193W        W 2411  15.637  35.499  11.521
34194W        W 2412  19.396   7.142  11.601
34195W        W 2413   3.789  24.929   4.941
34196W        W 2414   2.749  22.143  12.640
34197W        W 2415  16.872  35.548   2.502
34198W        W 2416  12.558  42.847   2.449
34199W        W 2417  11.172  33.158  11.564
34200W        W 2418  16.351  37.589  11.496
34201W        W 2419  28.611   0.511   0.295
34202W        W 2420  10.346  42.089   2.286
34203W        W 2421   5.653  16.055  13.539
34204W        W 2422  27.201  34.903   4.055
34205W        W 2423  11.063   3.845   3.623
34206W        W 2424   3.183   1.798   0.962
34207W        W 2425   7.370  44.375   0.388
34208W        W 2426  41.181  43.001   4.597
34209W        W 2427   8.802  26.685   4.092
34210W        W 2428  37.071  32.604  12.081
34211W        W 2429  22.369  28.434  12.535
34212W        W 2430  36.098  36.803   2.315
34213W        W 2431  13.204  34.465   2.618
34214W        W 2432  13.047  28.118   0.372
34215W        W 2433  17.597   8.698  10.369
34216W        W 2434   4.181  40.904   1.733
34217W        W 2435  24.794   9.908  13.731
34218W        W 2436   7.968  24.590   0.998
34219W        W 2437  18.089  13.071   1.816
34220W        W 2438  13.618   3.754  10.476
34221W        W 2439   7.620   4.381   4.208
34222W        W 2440  22.261   8.169  11.059
34223W        W 2441  21.132  19.563   0.730
34224W        W 2442  25.257  35.858  13.713
34225W        W 2443   5.161  16.307  11.055
34226W        W 2444  27.733   8.548   0.257
34227W        W 2445   1.346  21.926  11.215
34228W        W 2446  36.931  24.171  11.972
34229W        W 2447  24.118  10.433  11.217
34230W        W 2448  25.411  31.600   2.021
34231W        W 2449  21.060  19.358  10.488
34232W        W 2450  30.175  13.584  12.007
34233W        W 2451  23.628  31.113  14.339
34234W        W 2452  39.112  28.606   0.914
34235W        W 2453  29.957  13.829  12.449
34236W        W 2454  15.779  18.196   3.936
34237W        W 2455   9.057  40.453   0.550
34238W        W 2456  23.559   2.860  12.356
34239W        W 2457  24.700  36.306  12.096
34240W        W 2458   0.840   7.324   0.716
34241W        W 2459  44.603  13.099  10.741
34242W        W 2460  28.437  14.172   2.858
34243W        W 2461  20.043   5.675  11.156
34244W        W 2462  38.021  33.134  14.348
34245W        W 2463  33.577  36.628  13.058
34246W        W 2464  33.073  34.982   3.664
34247W        W 2465  10.007  18.951   1.436
34248W        W 2466  20.704  40.248  11.064
34249W        W 2467  18.634  16.387  13.462
34250W        W 2468  39.270  33.690   2.200
34251W        W 2469  21.859  34.385   3.614
34252W        W 2470  44.277  26.236  14.158
34253W        W 2471  33.484  38.534   3.213
34254W        W 2472  34.057  32.330   4.651
34255W        W 2473   3.965  12.566   3.261
34256W        W 2474  38.854   5.034   4.219
34257W        W 2475  11.917  37.348  12.515
34258W        W 2476  10.630  33.011  11.530
34259W        W 2477  23.337  32.261  10.511
34260W        W 2478   2.965  30.204  10.706
34261W        W 2479   4.946  36.521   3.252
34262W        W 2480  27.104  17.702  11.016
34263W        W 2481  37.987  11.602   3.554
34264W        W 2482  19.733  14.114   0.174
34265W        W 2483  13.751  43.171  12.821
34266W        W 2484   7.509  44.189   1.747
34267W        W 2485  31.416   3.089  10.314
34268W        W 2486  16.591  18.364   1.287
34269W        W 2487  41.964  32.031  12.489
34270W        W 2488   0.993   9.053  10.725
34271W        W 2489  23.228  20.301   1.810
34272W        W 2490  19.507   6.229   4.069
34273W        W 2491  31.073   1.518  13.072
34274W        W 2492  29.474   8.654  13.276
34275W        W 2493  44.266  32.283   0.352
34276W        W 2494  26.193  44.870   1.892
34277W        W 2495  41.503  38.928   2.226
34278W        W 2496  34.474   5.783  13.876
34279W        W 2497  42.293  32.322   1.378
34280W        W 2498   0.311  44.970  12.096
34281W        W 2499   0.460  43.802   1.349
34282W        W 2500  20.246  19.553  14.772
34283W        W 2501  24.232  19.247   0.822
34284W        W 2502  25.034  19.102   1.359
34285W        W 2503  29.141   4.399   1.727
34286W        W 2504  29.599  10.134  10.946
34287W        W 2505  38.981  35.446   9.949
34288W        W 2506  34.597  34.426   0.590
34289W        W 2507  39.878  29.987   2.466
34290W        W 2508   4.952  30.692  14.244
34291W        W 2509  29.582  17.882   0.783
34292W        W 2510  37.264  28.479  12.872
34293W        W 2511  22.078   9.880  10.436
34294W        W 2512  17.360  32.445   1.360
34295W        W 2513  29.687  44.865  14.855
34296W        W 2514  31.332  14.109   4.744
34297W        W 2515  38.305  22.059   1.356
34298W        W 2516   3.669   1.501  11.966
34299W        W 2517  12.767  14.246   1.852
34300W        W 2518  31.524  11.572  12.094
34301W        W 2519  44.262  43.442   3.258
34302W        W 2520  43.062  21.930  12.259
34303W        W 2521  32.010  44.573   5.011
34304W        W 2522   2.894  32.919  12.204
34305W        W 2523  30.931  16.281   4.090
34306W        W 2524  33.149  43.578  11.636
34307W        W 2525  16.674  44.752  14.932
34308W        W 2526   0.036  33.018  14.538
34309W        W 2527  16.310  36.516  13.986
34310W        W 2528  26.362  15.677  12.259
34311W        W 2529  30.919  13.029  10.678
34312W        W 2530  13.327  12.682   4.438
34313W        W 2531  32.513  41.558   3.439
34314W        W 2532  11.359  16.194   1.726
34315W        W 2533  19.651   8.831   1.226
34316W        W 2534   9.778  29.393   3.717
34317W        W 2535  33.458  30.776  13.447
34318W        W 2536  11.721  17.616   2.682
34319W        W 2537   8.924  20.465  12.097
34320W        W 2538  28.332  16.481   3.176
34321W        W 2539   9.373  22.410   1.499
34322W        W 2540  20.246  40.940  13.315
34323W        W 2541   2.410  30.568   4.618
34324W        W 2542  40.559   4.415   1.592
34325W        W 2543  11.774  13.440  12.090
34326W        W 2544   5.937   6.410  11.429
34327W        W 2545   0.237  14.062   5.144
34328W        W 2546  40.667  26.216  14.232
34329W        W 2547  21.181  24.007   3.297
34330W        W 2548  37.145  38.898  14.505
34331W        W 2549   6.398  40.974   2.218
34332W        W 2550   7.824  36.366  14.360
34333W        W 2551  10.417  41.499   4.055
34334W        W 2552  24.459   1.428  14.452
34335W        W 2553  20.222  10.437   0.028
34336W        W 2554  22.703  15.676   5.146
34337W        W 2555   0.987   6.092   3.595
34338W        W 2556   7.972  40.716   4.539
34339W        W 2557  39.879  11.099  14.005
34340W        W 2558  30.055   2.754   1.430
34341W        W 2559  33.848   9.787  12.498
34342W        W 2560  38.005  13.124   1.856
34343W        W 2561  29.685  40.340  11.721
34344W        W 2562  13.751  31.873   0.828
34345W        W 2563  14.653   4.839   3.393
34346W        W 2564  16.607   0.684   1.904
34347W        W 2565  24.847  11.746   2.020
34348W        W 2566  20.754  22.560   1.453
34349W        W 2567   8.814  11.102   2.476
34350W        W 2568  43.233   8.122   1.332
34351W        W 2569   5.415  29.184  11.179
34352W        W 2570  24.710  28.644   3.278
34353W        W 2571  17.351   2.949   0.804
34354W        W 2572   6.297  35.621  11.527
34355W        W 2573  21.523  24.399  14.700
34356W        W 2574  35.567  20.656   3.228
34357W        W 2575  16.067   8.760   3.754
34358W        W 2576  10.339  10.377  12.398
34359W        W 2577  24.143  18.598   1.379
34360W        W 2578  23.320  18.760   0.831
34361W        W 2579   7.645  26.045  13.657
34362W        W 2580  44.763  41.912   0.978
34363W        W 2581  23.712  24.310   1.351
34364W        W 2582  27.287   8.767   2.685
34365W        W 2583   9.632  41.999   0.785
34366W        W 2584   1.744  42.454  12.070
34367W        W 2585  29.462   3.208  14.410
34368W        W 2586  43.254  10.304   4.529
34369W        W 2587   4.924  22.134   2.310
34370W        W 2588  32.397  11.283  11.889
34371W        W 2589  43.474  23.097  11.130
34372W        W 2590  11.204   2.428  13.101
34373W        W 2591  35.923   8.557  12.570
34374W        W 2592  42.280  40.854  14.957
34375W        W 2593   5.029  11.636   1.957
34376W        W 2594  21.163  30.089   4.578
34377W        W 2595  25.068   7.358   4.613
34378W        W 2596  17.335  35.853  10.761
34379W        W 2597  22.237  26.228   0.371
34380W        W 2598  19.672  33.565  11.585
34381W        W 2599  25.507   1.045  10.774
34382W        W 2600  14.872   4.239  14.818
34383W        W 2601   5.630  15.195   2.844
34384W        W 2602  14.683  32.688   0.361
34385W        W 2603  12.181  20.530  13.876
34386W        W 2604  18.406  12.044   0.861
34387W        W 2605  17.440  28.556   4.030
34388W        W 2606  22.692  20.788   1.049
34389W        W 2607  37.360  41.099   1.734
34390W        W 2608  43.827  23.216   3.687
34391W        W 2609  20.229  16.679  12.103
34392W        W 2610  17.134  41.202  12.753
34393W        W 2611   8.165  38.235   3.587
34394W        W 2612  39.646  15.082  14.587
34395W        W 2613   5.901  28.673   4.372
34396W        W 2614   0.889   8.414   3.744
34397W        W 2615  43.609  22.296  13.811
34398W        W 2616  14.688  30.184   1.894
34399W        W 2617  18.520   4.378   1.493
34400W        W 2618  33.814   4.859  14.295
34401W        W 2619  22.500  31.273  11.666
34402W        W 2620  35.880  12.489   4.683
34403W        W 2621   8.406   7.772   2.314
34404W        W 2622  44.377  36.019  14.318
34405W        W 2623  38.980   5.682   3.700
34406W        W 2624   6.526  10.032   2.670
34407W        W 2625  18.016  21.224   2.484
34408W        W 2626  34.456  31.842  14.270
34409W        W 2627  38.444  25.650   0.726
34410W        W 2628   3.828   0.727  12.578
34411W        W 2629   6.200  42.268   3.379
34412W        W 2630  26.904  22.007   1.851
34413W        W 2631  42.899  40.075   3.422
34414W        W 2632  39.480  31.737  13.521
34415W        W 2633   0.567  39.998  12.160
34416W        W 2634   3.114   6.013  10.097
34417W        W 2635  36.303   7.024   3.667
34418W        W 2636  10.402   6.701   1.135
34419W        W 2637   1.964  43.889   4.435
34420W        W 2638  39.874  26.708  11.708
34421W        W 2639  25.675  12.748  11.111
34422W        W 2640  22.384  34.253   1.840
34423W        W 2641   5.477  36.558   3.661
34424W        W 2642  28.398  16.080   1.159
34425W        W 2643   9.137  18.733  13.780
34426W        W 2644   9.713  20.462  11.152
34427W        W 2645   8.382  32.715   3.336
34428W        W 2646  14.249  34.947   2.075
34429W        W 2647  17.741  43.597  14.435
34430W        W 2648   3.157  32.465   0.412
34431W        W 2649   8.865   3.087   4.700
34432W        W 2650  38.285  26.001  13.928
34433W        W 2651  15.638  43.991  12.688
34434W        W 2652  19.801  35.368   2.299
34435W        W 2653  18.874  32.534   0.247
34436W        W 2654   6.943  10.087   2.370
34437W        W 2655  11.064  32.427   4.256
34438W        W 2656  37.502  26.878   2.825
34439W        W 2657  22.748  40.598  13.870
34440W        W 2658  33.260  28.065  14.656
34441W        W 2659  37.899  14.874  10.628
34442W        W 2660  17.051  14.174   1.157
34443W        W 2661  42.298  34.092   2.922
34444W        W 2662   5.393  34.582   1.774
34445W        W 2663  37.301  38.045  12.824
34446W        W 2664  44.472  10.817   1.874
34447W        W 2665   6.212  19.251  12.487
34448W        W 2666  26.604   5.099   3.352
34449W        W 2667  25.026  29.139  12.449
34450W        W 2668  19.346   2.317   0.845
34451W        W 2669  43.825   4.782  13.537
34452W        W 2670  13.725  24.003   2.720
34453W        W 2671   5.281  10.691  13.367
34454W        W 2672  27.935  24.606   0.996
34455W        W 2673  28.098  20.802   4.686
34456W        W 2674  11.857  42.795   0.151
34457W        W 2675  22.547  37.357  13.031
34458W        W 2676  32.587  11.366  10.401
34459W        W 2677  40.064  36.066  10.899
34460W        W 2678  22.792  32.392   0.100
34461W        W 2679  18.676  28.389  11.318
34462W        W 2680  34.805  40.024   2.304
34463W        W 2681  28.640  21.826   1.207
34464W        W 2682  16.325  28.427   1.933
34465W        W 2683   2.363  19.260  12.098
34466W        W 2684   3.478  18.802  14.508
34467W        W 2685  39.826   9.680   1.665
34468W        W 2686  42.499  20.151   4.724
34469W        W 2687  16.405  13.089  11.557
34470W        W 2688  18.156  32.655  12.387
34471W        W 2689   8.620  38.760  14.016
34472W        W 2690   3.372  14.890  14.863
34473W        W 2691  39.991  12.739   2.221
34474W        W 2692   8.400  44.081  13.990
34475W        W 2693  12.601   8.933   2.706
34476W        W 2694  22.187  16.467  14.739
34477W        W 2695  39.954  16.605   4.645
34478W        W 2696  15.553  34.297  14.279
34479W        W 2697  39.861   2.524   3.585
34480W        W 2698  23.029  12.322   2.195
34481W        W 2699  34.124   8.977  13.936
34482W        W 2700  28.719  40.898  10.795
34483W        W 2701  14.144   2.836  12.520
34484W        W 2702  40.300  36.267   0.439
34485W        W 2703  17.176  31.780   1.056
34486W        W 2704  39.880  35.284  13.017
34487W        W 2705  16.660  18.779   4.929
34488W        W 2706  19.090   2.205  12.477
34489W        W 2707   6.288   7.443  14.469
34490W        W 2708  40.536   3.871   2.478
34491W        W 2709  26.589  41.839  13.526
34492W        W 2710  18.639  29.482  11.387
34493W        W 2711  40.931  25.779   0.023
34494W        W 2712  32.611  23.761   3.124
34495W        W 2713  12.769  13.605   1.229
34496W        W 2714  30.347  17.727   0.000
34497W        W 2715   2.863  17.578  14.244
34498W        W 2716   4.655  16.172  10.994
34499W        W 2717  18.197   8.859   4.598
34500W        W 2718  39.369  43.639   1.921
34501W        W 2719   2.374  39.252   2.762
34502W        W 2720  32.304  20.688   3.234
34503W        W 2721  22.449  25.979   2.606
34504W        W 2722  21.678  26.471  11.609
34505W        W 2723  41.360  15.274  13.892
34506W        W 2724  25.247  27.884  13.130
34507W        W 2725  18.277  35.652  12.056
34508W        W 2726  40.780  40.892   0.633
34509W        W 2727  30.523  28.586   3.402
34510W        W 2728  32.445  10.849  10.673
34511W        W 2729  36.608  31.322   1.367
34512W        W 2730  25.604   4.188   4.259
34513W        W 2731  10.390  32.002   1.399
34514W        W 2732  31.098  32.464   4.718
34515W        W 2733  10.793   2.263   3.263
34516W        W 2734  38.768  24.068  14.838
34517W        W 2735  29.965  22.097   1.787
34518W        W 2736  16.798  42.636   3.687
34519W        W 2737  24.248  31.474   0.874
34520W        W 2738  24.575  31.711  12.233
34521W        W 2739  30.672  23.584  11.614
34522W        W 2740   0.454   6.581  13.055
34523W        W 2741  33.093  13.474  12.950
34524W        W 2742  43.965  13.113  13.818
34525W        W 2743  34.513  25.130  12.931
34526W        W 2744  12.312  40.389   3.072
34527W        W 2745  35.782  11.559  14.976
34528W        W 2746   3.379   2.503  13.848
34529W        W 2747  37.978  15.112   0.624
34530W        W 2748  38.875  17.306   2.764
34531W        W 2749  36.329  39.576  13.724
34532W        W 2750  37.267  18.556   1.217
34533W        W 2751  43.063   1.556  12.707
34534W        W 2752  39.918  25.554   1.036
34535W        W 2753   5.359  41.957  13.256
34536W        W 2754  44.409  38.863   0.424
34537W        W 2755  34.502  15.747  13.094
34538W        W 2756  21.720  25.470   0.703
34539W        W 2757  18.946  12.658   0.453
34540W        W 2758  27.861  38.478   2.424
34541W        W 2759   6.859  38.311   1.825
34542W        W 2760   1.305   3.972   0.294
34543W        W 2761  28.915  22.275  10.176
34544W        W 2762  29.233  43.304  10.507
34545W        W 2763  15.375  12.188  14.478
34546W        W 2764  13.303   8.624  11.909
34547W        W 2765  29.743  31.851   4.550
34548W        W 2766  12.725  39.440  13.071
34549W        W 2767  43.919  39.353   3.915
34550W        W 2768  29.430  17.441  10.742
34551W        W 2769  31.329   6.261   0.190
34552W        W 2770   6.413  39.478  13.514
34553W        W 2771  29.115  10.072   4.168
34554W        W 2772  21.230  13.715   1.854
34555W        W 2773  12.715  29.837   2.960
34556W        W 2774   6.823  37.066   2.199
34557W        W 2775  28.858  12.396   2.259
34558W        W 2776   7.514  14.508  13.526
34559W        W 2777   3.525  33.046  10.576
34560W        W 2778  40.294   6.623   3.592
34561W        W 2779  44.307  24.306   0.531
34562W        W 2780  28.135  17.821  14.897
34563W        W 2781  21.894   5.076   3.339
34564W        W 2782   9.621  34.341  14.336
34565W        W 2783  34.156  16.716  12.180
34566W        W 2784  39.494  41.562   1.008
34567W        W 2785  30.295   5.611  11.637
34568W        W 2786  26.175  14.521  12.652
34569W        W 2787  13.313   6.209  10.832
34570W        W 2788  11.304  22.347  11.956
34571W        W 2789  10.995  19.059  14.689
34572W        W 2790  42.948  25.105   0.441
34573W        W 2791  15.446  15.784  10.984
34574W        W 2792   0.463  31.749   4.027
34575W        W 2793  18.360  13.204  12.651
34576W        W 2794  22.810  37.650  13.384
34577W        W 2795   7.246  42.398  12.367
34578W        W 2796  32.614  23.720   4.186
34579W        W 2797  21.725  38.348   2.928
34580W        W 2798  18.685  20.887  12.782
34581W        W 2799  43.970  40.555   1.419
34582W        W 2800  14.515  44.903   1.722
34583W        W 2801   2.233  35.128  10.611
34584W        W 2802   4.708   7.854  11.971
34585W        W 2803   3.467   9.720   1.293
34586W        W 2804  14.370  28.567  13.521
34587W        W 2805  27.363  30.539  11.643
34588W        W 2806  43.887  11.519   2.009
34589W        W 2807  38.853  30.695   0.176
34590W        W 2808  22.132  28.476   4.528
34591W        W 2809  18.395  30.473   1.060
34592W        W 2810   8.146  27.160  14.083
34593W        W 2811  29.936  29.419  13.025
34594W        W 2812  38.562  21.664  14.517
34595W        W 2813  43.410  19.896  11.263
34596W        W 2814  12.285   2.933  12.468
34597W        W 2815  18.037  25.084  14.838
34598W        W 2816  25.193  40.211  12.126
34599W        W 2817  19.000  40.358  11.741
34600W        W 2818   7.856  24.133   2.126
34601W        W 2819  28.068  44.072   3.275
34602W        W 2820  38.882  11.093  14.290
34603W        W 2821  32.212   0.991   2.438
34604W        W 2822  31.176  14.548   1.481
34605W        W 2823  42.070  18.347  11.071
34606W        W 2824   6.119  40.947   1.764
34607W        W 2825  19.298  24.628   2.835
34608W        W 2826   5.785  31.150  12.454
34609W        W 2827  39.260   5.301   9.902
34610W        W 2828  11.862  20.458  11.582
34611W        W 2829  31.998   7.877   4.498
34612W        W 2830  27.422  18.117   1.903
34613W        W 2831  39.396  13.313  14.432
34614W        W 2832  17.217   6.124  12.486
34615W        W 2833  33.944  12.876   0.495
34616W        W 2834  27.533  27.175   3.194
34617W        W 2835   1.472   6.294   3.611
34618W        W 2836  24.093  24.714   4.187
34619W        W 2837  38.881  41.977   2.313
34620W        W 2838  30.594  12.800   4.028
34621W        W 2839   2.392  26.424  14.066
34622W        W 2840  20.067  32.807   4.632
34623W        W 2841  33.991  44.791   0.845
34624W        W 2842  18.100  36.376  12.486
34625W        W 2843  41.089   2.467   2.738
34626W        W 2844  40.428   4.358   2.651
34627W        W 2845   7.812   0.150   0.351
34628W        W 2846  28.435   6.831  13.782
34629W        W 2847  38.546  10.744  14.956
34630W        W 2848  11.152  30.851   2.535
34631W        W 2849  30.118  31.886   1.832
34632W        W 2850   3.802   7.448   3.117
34633W        W 2851   0.492  16.365  14.869
34634W        W 2852  31.001  16.120  11.140
34635W        W 2853  22.715  19.787   0.131
34636W        W 2854  18.965  23.977   4.578
34637W        W 2855  42.292  38.449  14.931
34638W        W 2856  20.243  19.457  13.939
34639W        W 2857  41.309  36.833  11.082
34640W        W 2858  19.689  23.776  13.058
34641W        W 2859   8.142  36.796   3.707
34642W        W 2860  19.556  26.332   1.065
34643W        W 2861  12.313  10.642  11.783
34644W        W 2862   6.896  13.145   0.271
34645W        W 2863  32.085  10.026   2.372
34646W        W 2864  38.281  14.671   0.493
34647W        W 2865  17.260   1.839   1.228
34648W        W 2866  27.667  18.110  10.730
34649W        W 2867  40.086   3.142  11.953
34650W        W 2868  19.725  17.371   4.331
34651W        W 2869  26.072  26.680   3.374
34652W        W 2870  18.346  39.718  12.389
34653W        W 2871   1.446  23.080  14.482
34654W        W 2872  27.513  44.553  13.097
34655W        W 2873  23.497  38.340   4.525
34656W        W 2874  27.461  36.348   2.377
34657W        W 2875  30.907  21.173  14.024
34658W        W 2876  36.518  13.657  12.001
34659W        W 2877   2.041  34.909  12.588
34660W        W 2878  18.598  19.012  10.572
34661W        W 2879  10.635  32.107   3.297
34662W        W 2880   6.608   5.664   4.156
34663W        W 2881   7.791  43.084  13.851
34664W        W 2882  41.606  16.015   4.283
34665W        W 2883  18.239   1.642   0.917
34666W        W 2884  26.675  24.134   1.403
34667W        W 2885  38.526   2.728  13.886
34668W        W 2886  12.724   1.255   2.347
34669W        W 2887  39.940  20.083   3.175
34670W        W 2888  21.386  13.047   4.167
34671W        W 2889  28.712   2.038  12.969
34672W        W 2890   7.484  13.677  11.056
34673W        W 2891  12.537  16.358  13.079
34674W        W 2892   4.156  43.742  12.006
34675W        W 2893  23.042  19.784  12.590
34676W        W 2894   2.892  32.154  14.007
34677W        W 2895  40.314  31.534  14.037
34678W        W 2896  19.446  36.833   5.515
34679W        W 2897  10.271  17.820  12.440
34680W        W 2898  24.901   1.727  12.037
34681W        W 2899  11.257  10.298  10.510
34682W        W 2900  40.785   0.747   2.261
34683W        W 2901   8.563  42.947  11.962
34684W        W 2902  38.110  23.536  13.117
34685W        W 2903   2.510  41.449  11.572
34686W        W 2904  34.088   6.112   9.755
34687W        W 2905  25.089   2.460  12.576
34688W        W 2906   4.786  44.942  14.880
34689W        W 2907  19.475   2.846   1.818
34690W        W 2908  41.837   2.255   3.230
34691W        W 2909   8.500  29.718   1.380
34692W        W 2910  27.023   3.249   4.637
34693W        W 2911  24.319  29.460  14.475
34694W        W 2912  18.971  28.584  13.500
34695W        W 2913   0.429   7.843   0.992
34696W        W 2914  36.833  37.330   3.785
34697W        W 2915  42.480  20.161  10.875
34698W        W 2916  18.110   4.574   1.250
34699W        W 2917  43.595  32.541  11.939
34700W        W 2918  36.383  23.147   0.494
34701W        W 2919  19.183  19.755   1.921
34702W        W 2920  27.446   4.471   3.215
34703W        W 2921   5.380  20.746   3.014
34704W        W 2922  17.677  25.606   0.198
34705W        W 2923  37.178   5.730  11.489
34706W        W 2924   0.698  37.072   4.417
34707W        W 2925  10.621  37.291   3.210
34708W        W 2926  40.035  23.617   4.505
34709W        W 2927  32.415   4.363  14.444
34710W        W 2928  39.317  29.679  11.123
34711W        W 2929   8.601  15.432  12.078
34712W        W 2930  40.659  17.228  12.445
34713W        W 2931  10.570   4.560  14.498
34714W        W 2932  36.056  18.315  12.840
34715W        W 2933   9.236  22.587   4.248
34716W        W 2934  26.684  32.470   4.250
34717W        W 2935  13.150  39.028   2.776
34718W        W 2936  16.723   9.311  12.055
34719W        W 2937  33.512  20.028   2.730
34720W        W 2938  14.284  39.153   0.743
34721W        W 2939  20.978   4.741   4.499
34722W        W 2940  21.941  40.251  10.846
34723W        W 2941   8.022  19.196   1.961
34724W        W 2942  17.220  17.654   2.335
34725W        W 2943  35.878  18.591   1.032
34726W        W 2944   8.803  36.606  14.995
34727W        W 2945  29.522  21.756   3.040
34728W        W 2946  12.867  30.531  14.483
34729W        W 2947  33.424  43.608   3.677
34730W        W 2948  16.289   2.956  13.745
34731W        W 2949   1.066  30.391   4.080
34732W        W 2950  17.491  39.140  12.588
34733W        W 2951   5.370  40.344   2.743
34734W        W 2952  35.435  39.348   0.957
34735W        W 2953  16.775  26.978  12.604
34736W        W 2954  44.853  23.499   3.394
34737W        W 2955  17.190  20.843  11.527
34738W        W 2956   8.090  42.754   4.020
34739W        W 2957   7.768  31.857   4.137
34740W        W 2958  32.595   2.280   4.655
34741W        W 2959  23.119  24.995   2.412
34742W        W 2960  13.418  32.954   1.494
34743W        W 2961  21.113  31.850   3.340
34744W        W 2962  14.572  14.632  14.125
34745W        W 2963  18.729  23.672  10.105
34746W        W 2964  42.750  36.126  14.150
34747W        W 2965   0.048   8.001  13.749
34748W        W 2966  12.658  36.632  11.899
34749W        W 2967   8.747  17.799  13.971
34750W        W 2968  36.904   8.736  14.455
34751W        W 2969   1.004  12.934  11.195
34752W        W 2970   7.254  14.753  13.074
34753W        W 2971   0.406  10.802  14.421
34754W        W 2972   1.888   7.757   1.739
34755W        W 2973  24.036  17.726  13.890
34756W        W 2974  15.101   7.784   0.408
34757W        W 2975  16.139   4.970  12.974
34758W        W 2976   9.657   6.019  11.684
34759W        W 2977  34.251  19.669  10.712
34760W        W 2978  35.605   1.858  11.146
34761W        W 2979  21.359   2.233  12.038
34762W        W 2980  44.995   1.947  12.910
34763W        W 2981   8.248   9.355   0.397
34764W        W 2982  41.330  32.436  13.924
34765W        W 2983   8.084   8.651   3.232
34766W        W 2984   1.179  19.535   4.325
34767W        W 2985  31.985  35.111   4.088
34768W        W 2986   5.286  41.721   0.745
34769W        W 2987  21.705  36.973   2.171
34770W        W 2988  40.644  44.109   3.324
34771W        W 2989   3.835  22.625   0.969
34772W        W 2990  38.036  10.163   3.587
34773W        W 2991   5.973  30.610   2.570
34774W        W 2992  19.312  42.165  14.387
34775W        W 2993  30.007  25.176   1.908
34776W        W 2994  17.656  38.794   4.872
34777W        W 2995  16.221  27.004  12.137
34778W        W 2996  31.461  27.169  11.184
34779W        W 2997  43.423   2.186  14.923
34780W        W 2998  34.267  30.109  12.838
34781W        W 2999  13.090  28.664  13.477
34782W        W 3000  33.501  18.043   0.956
34783W        W 3001  38.399  33.025   2.603
34784W        W 3002  18.653   1.362   2.116
34785W        W 3003   8.307  18.538   0.533
34786W        W 3004  16.693  11.645   1.422
34787W        W 3005   6.338  13.879   3.237
34788W        W 3006  24.082   2.341  12.058
34789W        W 3007   5.000   9.589   3.716
34790W        W 3008  25.194  17.316  12.070
34791W        W 3009  23.774  44.036  12.182
34792W        W 3010  21.445   2.036  10.944
34793W        W 3011  43.348  14.258  12.612
34794W        W 3012  30.455   9.655  13.347
34795W        W 3013  12.663   3.232   0.852
34796W        W 3014  26.661  37.573  12.050
34797W        W 3015  41.078  18.097  11.205
34798W        W 3016  19.137  39.459   2.918
34799W        W 3017  27.560  30.599  13.526
34800W        W 3018   8.645  16.613   3.728
34801W        W 3019  35.655  43.473   0.484
34802W        W 3020  20.788  18.508  12.596
34803W        W 3021   7.850  37.018   4.883
34804W        W 3022  14.195  30.477  13.561
34805W        W 3023  36.055  25.125  10.627
34806W        W 3024  40.696   3.813  14.746
34807W        W 3025  40.494  41.958  13.212
34808W        W 3026   8.913  33.616  11.877
34809W        W 3027  21.009  29.455  11.568
34810W        W 3028  16.525   5.777   2.679
34811W        W 3029  17.615  41.046   0.731
34812W        W 3030  35.187  27.118  11.102
34813W        W 3031  18.742  37.543  14.008
34814W        W 3032  29.820  37.575  12.601
34815W        W 3033  26.630  10.737  14.065
34816W        W 3034  20.092  14.273   4.460
34817W        W 3035  23.333  37.241  14.335
34818W        W 3036  21.173  10.439  10.196
34819W        W 3037  22.777  22.656   1.425
34820W        W 3038  39.381  35.528  13.888
34821W        W 3039   9.621   1.333   0.000
34822W        W 3040   7.272  38.447  14.896
34823W        W 3041  43.703  37.588   2.197
34824W        W 3042   8.448  26.433   1.303
34825W        W 3043   4.921  26.083   1.757
34826W        W 3044  26.170  15.676  14.022
34827W        W 3045  17.575  17.011   3.060
34828W        W 3046  33.373  30.877   1.014
34829W        W 3047   8.694  31.670   1.666
34830W        W 3048  36.481   0.669   1.872
34831W        W 3049  43.022  18.760   0.418
34832W        W 3050  29.586  42.521  12.577
34833W        W 3051  24.457  36.410  14.306
34834W        W 3052  28.668  27.855   1.803
34835W        W 3053  23.247  19.128   3.120
34836W        W 3054   5.693  32.903  13.183
34837W        W 3055   6.373  24.250  11.018
34838W        W 3056  35.107  40.026   0.728
34839W        W 3057  18.279   7.893   0.152
34840W        W 3058  41.939  41.036   4.083
34841W        W 3059  36.801  37.914   0.728
34842W        W 3060  33.904  35.108  13.220
34843W        W 3061  19.541  40.861   1.910
34844W        W 3062  20.757  30.106  13.026
34845W        W 3063  30.055  19.932  11.104
34846W        W 3064  43.492  16.105  14.060
34847W        W 3065   1.375  18.502   1.622
34848W        W 3066  38.541   4.465  13.479
34849W        W 3067  29.936  33.192   2.317
34850W        W 3068  22.628  43.591   4.585
34851W        W 3069  12.037  12.858   1.850
34852W        W 3070  27.062  18.947   3.295
34853W        W 3071  15.858  12.377  14.521
34854W        W 3072  41.807  13.184   0.944
34855W        W 3073  31.474  26.653  13.482
34856W        W 3074   7.974   0.869  12.012
34857W        W 3075  25.868  43.626  14.251
34858W        W 3076  20.353   8.333   2.831
34859W        W 3077  20.474  14.730  14.040
34860W        W 3078  19.749  31.073  11.086
34861W        W 3079  15.831  10.386   1.746
34862W        W 3080  16.886  39.811  11.532
34863W        W 3081  32.822  33.460   0.230
34864W        W 3082  28.114  14.154   3.257
34865W        W 3083  17.493  40.447   3.140
34866W        W 3084  31.498  31.443   2.260
34867W        W 3085  24.117  26.030  14.371
34868W        W 3086  18.064   6.196  12.485
34869W        W 3087  19.705  13.095  13.646
34870W        W 3088  33.486  14.807   3.175
34871W        W 3089  27.234  14.083   4.497
34872W        W 3090  14.581  13.024   0.144
34873W        W 3091   6.007  18.727  13.385
34874W        W 3092  13.062  26.955  14.198
34875W        W 3093  13.772   9.926   1.062
34876W        W 3094  30.685  38.391   0.979
34877W        W 3095   8.726  38.753  10.707
34878W        W 3096   7.494   0.496   2.348
34879W        W 3097  31.089  35.535  14.716
34880W        W 3098   5.918  36.560  12.505
34881W        W 3099   9.338  32.972   0.463
34882W        W 3100  43.836   9.032  13.094
34883W        W 3101  23.225  27.965  12.029
34884W        W 3102  13.153  24.901  14.498
34885W        W 3103   5.081  26.835  13.035
34886W        W 3104   7.451  33.721  10.840
34887W        W 3105  43.866  13.083   4.144
34888W        W 3106   9.865  11.890   3.622
34889W        W 3107  42.943   5.487   2.738
34890W        W 3108  39.298  22.273  11.134
34891W        W 3109  44.466  29.465   2.140
34892W        W 3110  30.185  30.923  13.885
34893W        W 3111  13.240  12.696   1.243
34894W        W 3112  11.295  34.007   1.726
34895W        W 3113   1.915   4.511   0.845
34896W        W 3114  28.438  23.831   0.915
34897W        W 3115  29.794  31.826   2.352
34898W        W 3116   8.482  25.735   0.762
34899W        W 3117  33.366  15.759   0.219
34900W        W 3118  33.337  32.947  13.127
34901W        W 3119  32.483  21.788   4.632
34902W        W 3120  25.532  41.298  11.143
34903W        W 3121  15.632  39.244  14.003
34904W        W 3122   8.742   0.004   1.223
34905W        W 3123  21.457  24.271   3.636
34906W        W 3124  18.252  38.802   2.361
34907W        W 3125   0.862  22.730   3.358
34908W        W 3126   7.952  37.357  11.655
34909W        W 3127  10.342  36.000   3.423
34910W        W 3128  13.362  24.785  13.966
34911W        W 3129  31.351  14.353  14.418
34912W        W 3130   8.397  10.101  11.998
34913W        W 3131  17.680  23.633  12.669
34914W        W 3132  31.879  16.170  11.361
34915W        W 3133  36.069  30.690  11.612
34916W        W 3134  44.981   9.192  13.924
34917W        W 3135   3.419  16.252  13.047
34918W        W 3136  16.570  42.837   1.078
34919W        W 3137  32.457   3.138  14.859
34920W        W 3138  23.333   2.423  13.953
34921W        W 3139  33.360  22.162   0.254
34922W        W 3140   5.380   1.643  14.606
34923W        W 3141   4.531  32.026  11.678
34924W        W 3142  33.996  30.258   5.044
34925W        W 3143  33.151  32.624  12.171
34926W        W 3144  19.302   6.810   2.657
34927W        W 3145   3.838  39.430   4.882
34928W        W 3146  40.838  27.046  11.924
34929W        W 3147   0.889  18.139  13.293
34930W        W 3148  16.779   7.370   3.205
34931W        W 3149   2.151  43.511   3.782
34932W        W 3150  13.846  26.996  14.921
34933W        W 3151  34.807  34.174   3.103
34934W        W 3152   4.662  31.678   2.167
34935W        W 3153   4.930  10.799   0.760
34936W        W 3154  32.028   1.409  13.076
34937W        W 3155  27.168   3.565   2.913
34938W        W 3156   3.781  13.592  10.629
34939W        W 3157  25.545  34.438  13.026
34940W        W 3158  13.730  38.111   0.580
34941W        W 3159   1.182  16.144  12.503
34942W        W 3160  29.210  26.109   3.739
34943W        W 3161  38.913  21.232  13.902
34944W        W 3162  43.815   3.248   0.449
34945W        W 3163  34.636  17.286  11.116
34946W        W 3164  13.942  38.617   1.637
34947W        W 3165  18.865   7.736   4.429
34948W        W 3166  36.318  11.162   0.337
34949W        W 3167   0.730  40.531  12.918
34950W        W 3168  24.829  18.013   4.257
34951W        W 3169  23.012  39.138   2.644
34952W        W 3170   4.725  27.688   3.692
34953W        W 3171   0.217  32.040  11.542
34954W        W 3172   1.280   7.107  12.861
34955W        W 3173  34.601  19.375   4.132
34956W        W 3174  22.291   6.645   2.712
34957W        W 3175  18.244  36.419   3.714
34958W        W 3176  34.099  41.313  13.839
34959W        W 3177  22.224   9.378   3.238
34960W        W 3178   5.808  34.504   2.094
34961W        W 3179   4.870  24.093  13.211
34962W        W 3180   3.889   9.360  10.527
34963W        W 3181  30.013   7.282   2.849
34964W        W 3182  25.301  34.334   3.166
34965W        W 3183  43.183  40.309   1.757
34966W        W 3184  21.472  27.505  11.614
34967W        W 3185   8.811   6.199  12.546
34968W        W 3186  38.742   3.234   4.886
34969W        W 3187  20.091  27.233   2.548
34970W        W 3188  26.451  24.350  13.107
34971W        W 3189  14.809  21.489   4.889
34972W        W 3190  30.874   2.494  14.922
34973W        W 3191  12.309  27.486   1.317
34974W        W 3192   3.949  44.952   2.778
34975W        W 3193  18.034  20.502   4.159
34976W        W 3194  18.298  30.661   1.800
34977W        W 3195  25.231  30.200   3.225
34978W        W 3196  32.469   3.755   2.790
34979W        W 3197   5.400   0.938   2.820
34980W        W 3198  21.999  36.577  13.964
34981W        W 3199   7.457  38.153  13.336
34982W        W 3200  44.911  29.517   1.859
34983W        W 3201  34.645  33.963  11.719
34984W        W 3202  30.990  23.450  14.844
34985W        W 3203   2.024   0.380  12.795
34986W        W 3204  41.969  39.085   3.321
34987W        W 3205  37.257  26.610  10.134
34988W        W 3206  35.602  26.262  12.926
34989W        W 3207  13.273  27.173   3.936
34990W        W 3208  39.892  25.445  11.869
34991W        W 3209  25.003  43.162  13.733
34992W        W 3210   7.660  39.318   4.176
34993W        W 3211   4.769   2.265  13.434
34994W        W 3212  20.512   5.384  11.345
34995W        W 3213  13.302  13.751  12.030
34996W        W 3214   0.975  28.982  13.564
34997W        W 3215  22.583  19.742  13.858
34998W        W 3216   7.679  16.553  14.476
34999W        W 3217  44.864  23.767  11.116
35000W        W 3218  38.573  31.903  11.508
35001W        W 3219   8.778  19.613   2.377
35002W        W 3220   9.326  29.943  13.022
35003W        W 3221  40.360  29.573   2.429
35004W        W 3222  20.315   0.584   2.066
35005W        W 3223  11.839  36.339   1.817
35006W        W 3224   6.767  26.487  13.307
35007W        W 3225   2.368  43.757  11.190
35008W        W 3226  31.044  19.460  12.447
35009W        W 3227  26.471  19.271  11.566
35010W        W 3228  14.658  25.028  12.075
35011W        W 3229  16.239  20.717  10.438
35012W        W 3230   4.809  17.372   4.171
35013W        W 3231  21.060  30.654   5.174
35014W        W 3232   7.847  14.338   0.921
35015W        W 3233  31.895   3.760  11.450
35016W        W 3234  32.517   2.742  10.656
35017W        W 3235  26.372  43.724   3.662
35018W        W 3236  37.674   3.876   1.270
35019W        W 3237  29.177   7.758   2.232
35020W        W 3238   2.684  25.192   2.064
35021W        W 3239  35.664  38.949  13.922
35022W        W 3240   6.565  39.956   4.043
35023W        W 3241   1.550  24.321  14.880
35024W        W 3242   7.170  14.853  14.780
35025W        W 3243  39.099  28.278  12.941
35026W        W 3244  26.525  43.398   0.851
35027W        W 3245  28.282  24.645   4.987
35028W        W 3246  13.581  25.956  13.480
35029W        W 3247   0.549   8.294   4.121
35030W        W 3248  29.927  13.782   0.272
35031W        W 3249  12.302   2.310   0.042
35032W        W 3250  38.587   4.803   1.039
35033W        W 3251  38.015  28.153  10.776
35034W        W 3252  12.986  40.033   4.600
35035W        W 3253  14.680  28.345   1.266
35036W        W 3254  30.664  40.570  14.314
35037W        W 3255  20.514  15.453   3.381
35038W        W 3256  29.478  29.228  13.582
35039W        W 3257  20.497  44.142  12.915
35040W        W 3258   3.739  31.190   3.713
35041W        W 3259   1.894   0.234   1.251
35042W        W 3260  20.448  12.807   4.059
35043W        W 3261  18.096  35.337  12.538
35044W        W 3262  11.058  11.938  14.945
35045W        W 3263  19.438  15.212   2.670
35046W        W 3264   3.463  23.892  14.739
35047W        W 3265  37.816  21.299   0.535
35048W        W 3266  16.370   2.920  12.935
35049W        W 3267   7.868   4.706  13.129
35050W        W 3268  41.060  28.428   4.810
35051W        W 3269  23.935  29.028   3.593
35052W        W 3270  14.906  34.891  13.639
35053W        W 3271  37.922  25.582   2.764
35054W        W 3272  10.250   9.456   3.675
35055W        W 3273  43.844  32.481  10.677
35056W        W 3274   0.769  10.358   4.661
35057W        W 3275  24.202  32.567   2.933
35058W        W 3276  11.445  39.948  12.676
35059W        W 3277  38.893  34.662  11.233
35060W        W 3278   9.426  26.408   3.117
35061W        W 3279  21.109   5.708   3.277
35062W        W 3280   1.336  22.445  11.161
35063W        W 3281   3.906  18.731  12.032
35064W        W 3282  28.053  26.516  14.371
35065W        W 3283   4.201  27.352   0.345
35066W        W 3284  37.004   1.945   2.197
35067W        W 3285   6.449  12.210  13.212
35068W        W 3286  37.866   3.715   3.686
35069W        W 3287  28.747  22.880  10.163
35070W        W 3288  28.094  39.358   4.965
35071W        W 3289  35.445  21.152  12.072
35072W        W 3290  10.639   5.271   2.686
35073W        W 3291   2.612  39.131  12.884
35074W        W 3292  16.526  24.017  11.065
35075W        W 3293  25.193  28.723   3.179
35076W        W 3294  22.024  43.937   3.536
35077W        W 3295   1.365  38.328   4.518
35078W        W 3296  37.650  38.030   0.493
35079W        W 3297  12.067   0.099   1.825
35080W        W 3298  18.369  32.405  13.855
35081W        W 3299   0.999   6.191   3.067
35082W        W 3300   9.362  13.174   4.277
35083W        W 3301  34.504   6.233  12.722
35084W        W 3302  13.619  20.286  10.728
35085W        W 3303   7.785  12.269  14.562
35086W        W 3304  30.489  41.330   2.671
35087W        W 3305  23.024  21.978   3.399
35088W        W 3306   0.850  39.431   4.359
35089W        W 3307   2.306   2.651   1.420
35090W        W 3308  27.129  40.050   2.193
35091W        W 3309  14.833  14.638   3.335
35092W        W 3310   2.800  27.984   0.652
35093W        W 3311   9.648  19.565   0.862
35094W        W 3312  14.235  43.921   4.374
35095W        W 3313  41.435   1.393   4.078
35096W        W 3314  41.978  16.560   0.847
35097W        W 3315  23.335  20.759  14.311
35098W        W 3316  10.819   1.199  12.880
35099W        W 3317  29.509  33.928   4.540
35100W        W 3318  35.556   7.922   1.494
35101W        W 3319  25.362  30.967   2.282
35102W        W 3320  26.665  15.570   0.310
35103W        W 3321  25.052  43.734  12.509
35104W        W 3322  12.826  35.198  11.476
35105W        W 3323  32.184  41.230   2.171
35106W        W 3324  32.126  31.439   3.916
35107W        W 3325  13.468  30.923   1.759
35108W        W 3326  12.733   3.071  14.377
35109W        W 3327  10.307  36.059   2.927
35110W        W 3328   6.951   6.419  13.008
35111W        W 3329  36.181  20.122  11.128
35112W        W 3330  36.373  24.810   0.242
35113W        W 3331   4.738  37.780   3.771
35114W        W 3332   4.799  12.468   1.818
35115W        W 3333  29.926  28.567   4.670
35116W        W 3334  38.392  23.657  12.167
35117W        W 3335  12.788  22.903   1.205
35118W        W 3336  34.937   8.390   1.256
35119W        W 3337  22.540  13.924   1.529
35120W        W 3338   4.194   3.876   0.903
35121W        W 3339  24.743   5.235  13.876
35122W        W 3340  40.776  44.781   4.155
35123W        W 3341   6.864  26.775   3.208
35124W        W 3342  16.290  35.574  10.706
35125W        W 3343  31.959  12.359  11.199
35126W        W 3344   2.907   4.524  12.028
35127W        W 3345  42.632   2.315  11.121
35128W        W 3346  30.376  42.584   1.200
35129W        W 3347  42.804  14.293   3.284
35130W        W 3348  35.986  43.041   3.656
35131W        W 3349  14.985  37.567   4.602
35132W        W 3350   7.307  36.588   0.038
35133W        W 3351  42.042  19.919  13.511
35134W        W 3352  12.986  34.900   2.369
35135W        W 3353  38.843   6.177  13.957
35136W        W 3354  36.483   5.110   3.212
35137W        W 3355  22.198  40.470   2.194
35138W        W 3356  28.227  14.076  14.076
35139W        W 3357  12.974  21.520  11.142
35140W        W 3358  13.509  25.533  14.429
35141W        W 3359  25.966  20.040   2.986
35142W        W 3360  12.709  26.015   2.378
35143W        W 3361  26.511  18.900   4.990
35144W        W 3362  28.931  11.956  14.837
35145W        W 3363  10.664  36.107  12.603
35146W        W 3364  22.722  28.345   2.904
35147W        W 3365   9.306  30.974  12.238
35148W        W 3366  11.161  43.992  12.372
35149W        W 3367  43.082  10.432   3.176
35150W        W 3368  37.265  22.328   3.796
35151W        W 3369   0.981  14.970  10.722
35152W        W 3370  11.221  34.496  13.980
35153W        W 3371  16.310  26.166   1.205
35154W        W 3372   2.491  42.753  13.758
35155W        W 3373   0.326  39.028   3.729
35156W        W 3374  10.638  32.654   0.035
35157W        W 3375  44.984   8.319  12.443
35158W        W 3376  11.035  19.537  12.117
35159W        W 3377  25.704   4.723   3.216
35160W        W 3378  25.997  33.014   0.128
35161W        W 3379  19.795   6.380  10.986
35162W        W 3380  22.774  26.693  10.239
35163W        W 3381  29.569   9.703  13.436
35164W        W 3382  10.354  21.931   3.326
35165W        W 3383   2.947  17.856   1.729
35166W        W 3384  38.170  11.841   3.148
35167W        W 3385  35.167  23.750   1.306
35168W        W 3386  35.428  18.378  12.395
35169W        W 3387  31.625  42.709  13.110
35170W        W 3388  36.500  32.374  11.463
35171W        W 3389  15.727   1.736   3.088
35172W        W 3390  14.801   5.302   2.602
35173W        W 3391  20.088  35.583   3.664
35174W        W 3392  29.915  20.063  14.416
35175W        W 3393  31.431  19.604  10.728
35176W        W 3394  23.787  27.153   1.992
35177W        W 3395  21.945  17.064   3.532
35178W        W 3396  26.225   0.276   3.714
35179W        W 3397  28.640  13.073   3.807
35180W        W 3398  25.265  42.399  14.371
35181W        W 3399   0.895   5.636  12.683
35182W        W 3400  44.799  17.541   3.671
35183W        W 3401  15.430  19.762  12.467
35184W        W 3402  33.390  18.929  12.155
35185W        W 3403   8.876  25.068   2.776
35186W        W 3404   6.393  42.545   1.345
35187W        W 3405   5.106   7.145   4.981
35188W        W 3406   0.360  31.037   4.672
35189W        W 3407  41.496  33.786  13.908
35190W        W 3408  30.683   3.231   1.431
35191W        W 3409  34.816  43.716  11.626
35192W        W 3410  25.669  38.556   0.685
35193W        W 3411   4.796   9.299  14.754
35194W        W 3412  43.221  44.249   1.313
35195W        W 3413  31.019   9.322   0.725
35196W        W 3414  19.509  13.614  13.983
35197W        W 3415   9.428  30.929   0.113
35198W        W 3416  29.111  39.950   3.217
35199W        W 3417  41.308   6.040  12.201
35200W        W 3418   2.157  15.015   0.311
35201W        W 3419  37.623  42.083  12.924
35202W        W 3420  36.947  39.483  10.752
35203W        W 3421   3.822  39.020  13.559
35204W        W 3422  10.185  10.171  14.905
35205W        W 3423   6.468  11.276   1.075
35206W        W 3424  21.132  16.605  12.925
35207W        W 3425  37.713   0.448  14.520
35208W        W 3426  14.098  35.491   0.052
35209W        W 3427   9.716   8.133   0.861
35210W        W 3428  12.375  12.783  12.143
35211W        W 3429  36.275  42.770  10.019
35212W        W 3430  25.710  15.062   0.776
35213W        W 3431  29.427  23.806  14.250
35214W        W 3432  30.877  27.445   2.044
35215W        W 3433  11.755  42.415   3.434
35216W        W 3434   3.824  24.525   4.070
35217W        W 3435  26.113   3.032   2.785
35218W        W 3436   9.965  18.604  12.017
35219W        W 3437  16.186  11.211  12.131
35220W        W 3438   2.239  28.521   2.332
35221W        W 3439   6.237  31.051   1.885
35222W        W 3440   3.829   2.155  13.895
35223W        W 3441  17.719  29.425   1.866
35224W        W 3442  11.313  35.944  12.629
35225W        W 3443  21.610  16.814  13.036
35226W        W 3444  10.897  32.779   1.011
35227W        W 3445  32.138   0.503   4.531
35228W        W 3446  26.428  34.992   3.547
35229W        W 3447  17.589  42.358   1.667
35230W        W 3448  24.748  42.982   2.407
35231W        W 3449  10.668   4.944   2.212
35232W        W 3450  33.479  28.347  11.253
35233W        W 3451  38.104  26.545  12.465
35234W        W 3452   3.073  42.813  14.291
35235W        W 3453  10.312  38.969  12.893
35236W        W 3454  13.852  12.066  11.610
35237W        W 3455  38.667  19.466   4.200
35238W        W 3456  38.191  17.991   4.158
35239W        W 3457  20.138  15.817  10.187
35240W        W 3458  38.393  15.154   0.305
35241W        W 3459  36.910  31.195  12.482
35242W        W 3460  22.963   2.460   0.784
35243W        W 3461   4.171  44.951  14.505
35244W        W 3462   7.243  17.286  11.894
35245W        W 3463  25.105  35.968   0.683
35246W        W 3464   3.687  14.847  13.582
35247W        W 3465  13.935   0.690  14.983
35248W        W 3466  43.855  18.685  11.068
35249W        W 3467  33.121  19.348   1.214
35250W        W 3468   4.954  35.887   0.508
35251W        W 3469  41.188  40.525   0.653
35252W        W 3470  17.793  27.247   3.693
35253W        W 3471   8.006  37.036   4.171
35254W        W 3472  30.330   8.635   4.579
35255W        W 3473  32.059  37.255  12.052
35256W        W 3474  38.541   7.766  11.592
35257W        W 3475  15.552   5.991   0.834
35258W        W 3476  40.386  44.255  10.590
35259W        W 3477   2.973  19.613  11.565
35260W        W 3478   7.296   4.646  14.791
35261W        W 3479   3.396  21.239  12.166
35262W        W 3480  12.075  23.483  14.600
35263W        W 3481  36.916  35.259   3.707
35264W        W 3482  16.759   9.048  11.608
35265W        W 3483  40.764  44.440   3.706
35266W        W 3484   4.458  36.431   2.336
35267W        W 3485  43.988  22.647  14.887
35268W        W 3486  22.007  20.793  12.313
35269W        W 3487   5.279  26.676  11.906
35270W        W 3488  16.173  19.777   3.177
35271W        W 3489  42.047  11.864   3.853
35272W        W 3490   2.152  28.708  11.562
35273W        W 3491  31.986  36.434   2.452
35274W        W 3492  33.502  22.245   2.222
35275W        W 3493   2.341  38.100  12.899
35276W        W 3494   8.458  10.725   4.848
35277W        W 3495   6.639   1.841   1.370
35278W        W 3496  37.405  13.929   2.369
35279W        W 3497  10.692  11.251  11.497
35280W        W 3498  27.161  42.706   3.973
35281W        W 3499  10.820  32.082  11.470
35282W        W 3500  33.747  24.694   4.220
35283W        W 3501   3.398  21.828   0.401
35284W        W 3502  33.312  37.050  12.895
35285W        W 3503  20.598  40.451   2.641
35286W        W 3504  38.182  15.643   3.754
35287W        W 3505  31.142   9.520   4.792
35288W        W 3506  30.653  33.405  14.858
35289W        W 3507   8.458  23.244  11.328
35290W        W 3508  25.579  30.447   1.423
35291W        W 3509  43.879  36.888  14.465
35292W        W 3510  35.095  25.597  13.350
35293W        W 3511   7.735   5.272   4.415
35294W        W 3512  26.506  26.743   0.955
35295W        W 3513  28.998  26.339  11.013
35296W        W 3514  27.530  36.615  10.702
35297W        W 3515  25.900  29.559   2.351
35298W        W 3516  22.979  31.872  10.697
35299W        W 3517  16.621   8.291  11.166
35300W        W 3518  32.079  24.667  11.525
35301W        W 3519  16.112  41.809  14.891
35302W        W 3520  39.573  39.455  13.443
35303W        W 3521  18.401  42.432  14.711
35304W        W 3522  15.258  11.791  11.502
35305W        W 3523  25.252  40.509  12.557
35306W        W 3524   4.425  40.146   1.207
35307W        W 3525  35.293  22.437  11.666
35308W        W 3526  13.387  40.019   3.771
35309W        W 3527  16.597   9.809  13.865
35310W        W 3528  35.015   9.812   2.131
35311W        W 3529  15.587  41.809   2.222
35312W        W 3530  27.487  28.421  13.813
35313W        W 3531  12.927  39.956   1.155
35314W        W 3532  17.540  27.461  10.837
35315W        W 3533   4.291  13.694  11.623
35316W        W 3534  27.182  12.234  14.225
35317W        W 3535  24.201   3.696  12.156
35318W        W 3536  19.194  37.599   3.239
35319W        W 3537  10.051  19.145  13.877
35320W        W 3538  21.066   6.205  11.134
35321W        W 3539   2.672  22.292   3.873
35322W        W 3540   0.284  27.579   4.669
35323W        W 3541  16.577  13.850  14.086
35324W        W 3542  28.119  10.629   3.295
35325W        W 3543  25.496  25.420  14.791
35326W        W 3544  29.181   3.354  12.019
35327W        W 3545  36.102   1.287   2.752
35328W        W 3546  15.766  17.761   4.238
35329W        W 3547  38.331  43.243  14.307
35330W        W 3548   1.383  37.353  12.371
35331W        W 3549   7.397  35.089   0.365
35332W        W 3550  32.597  37.254  14.126
35333W        W 3551  14.673   9.598  11.858
35334W        W 3552   1.341  26.134  11.162
35335W        W 3553  19.508  21.493  12.516
35336W        W 3554  16.154   4.941   3.850
35337W        W 3555  41.891  42.773  12.925
35338W        W 3556  34.923  13.839   4.385
35339W        W 3557  33.609  29.548  11.971
35340W        W 3558  33.644  42.507  12.491
35341W        W 3559  44.618  37.151  11.248
35342W        W 3560  24.273  12.570   5.068
35343W        W 3561  14.731  34.831  12.137
35344W        W 3562  14.816  28.026   4.547
35345W        W 3563  12.180  28.966   3.909
35346W        W 3564  32.706  35.151   2.730
35347W        W 3565   1.711   1.268  12.056
35348W        W 3566  28.646   7.316   3.863
35349W        W 3567  40.787  35.663  12.004
35350W        W 3568  22.566  28.067   1.334
35351W        W 3569   2.903  20.746   2.773
35352W        W 3570  10.871  44.420  11.521
35353W        W 3571  34.907  42.971  14.402
35354W        W 3572  38.432  24.963   4.343
35355W        W 3573   6.743   4.423  12.911
35356W        W 3574   6.318  13.371   3.267
35357W        W 3575  29.164  28.785  12.929
35358W        W 3576   7.807  40.710  12.092
35359W        W 3577  13.822  14.639   2.245
35360W        W 3578  34.125   6.244   4.548
35361W        W 3579   0.696  20.129  12.438
35362W        W 3580  37.567   2.029  13.041
35363W        W 3581  16.229  43.311  14.350
35364W        W 3582  21.354   9.150   2.291
35365W        W 3583  15.973  16.503   5.433
35366W        W 3584   0.004   8.188   2.308
35367W        W 3585  42.387   2.923   0.021
35368W        W 3586  24.372  34.915   1.723
35369W        W 3587   1.944  26.022  12.375
35370W        W 3588  23.075  12.814  14.104
35371W        W 3589  33.155  20.111   4.248
35372W        W 3590  35.959  37.000  12.991
35373W        W 3591  24.208   9.767   4.581
35374W        W 3592  32.494   2.850   3.556
35375W        W 3593  29.160  26.979  11.512
35376W        W 3594  42.412  22.175   3.395
35377W        W 3595  39.585  27.472   2.644
35378W        W 3596  23.603   1.237  13.593
35379W        W 3597  28.533  42.633  10.752
35380W        W 3598  36.177  43.694  14.588
35381W        W 3599  38.909  27.041  11.652
35382W        W 3600  42.854  38.486   1.668
35383W        W 3601  26.592  39.348   0.329
35384W        W 3602  20.068  37.039   0.305
35385W        W 3603  27.700  13.279   0.349
35386W        W 3604  32.365  34.482  12.458
35387W        W 3605  29.482   0.879   0.630
35388W        W 3606  29.861  33.546  10.415
35389W        W 3607   7.594  16.580  14.991
35390W        W 3608  25.079  37.308   3.258
35391W        W 3609  27.899  17.374   0.007
35392W        W 3610  42.448  42.773   4.863
35393W        W 3611  30.619  37.604  14.927
35394W        W 3612  12.306  10.366  14.948
35395W        W 3613  34.592   3.262  14.802
35396W        W 3614  22.272  24.723   2.807
35397W        W 3615  15.266  37.897  14.996
35398W        W 3616  36.183  11.750   3.185
35399W        W 3617   4.902  38.723   5.159
35400W        W 3618  31.353  39.145  11.515
35401W        W 3619  26.458  22.221  13.634
35402W        W 3620  11.151  33.051   0.652
35403W        W 3621  14.254  35.877  11.598
35404W        W 3622  29.688   7.664   2.353
35405W        W 3623   8.844  19.648  13.073
35406W        W 3624  11.445  42.291   1.688
35407W        W 3625  25.250  35.622   0.277
35408W        W 3626   0.767   6.487  13.520
35409W        W 3627  23.590  23.507  13.934
35410W        W 3628  16.348  29.125  12.768
35411W        W 3629  40.519  32.617  11.588
35412W        W 3630  30.410  13.279   1.467
35413W        W 3631  44.445  20.354   3.275
35414W        W 3632   9.222   5.101  14.453
35415W        W 3633  30.666   0.040  14.987
35416W        W 3634   8.451  23.511  12.121
35417W        W 3635  15.729  38.939   0.348
35418W        W 3636  11.368   8.403  14.367
35419W        W 3637  12.198  30.738  12.491
35420W        W 3638  19.835  13.615  11.853
35421W        W 3639   2.848  39.951  14.049
35422W        W 3640   3.822  44.693  14.797
35423W        W 3641   8.651  23.153  14.931
35424W        W 3642  23.459  25.590   1.369
35425W        W 3643  41.276  34.449   3.661
35426W        W 3644  35.085   8.478  12.522
35427W        W 3645  17.093  44.508   1.408
35428W        W 3646  14.252   6.922   4.899
35429W        W 3647  35.902  30.545  14.618
35430W        W 3648  40.861   4.196  12.893
35431W        W 3649  20.769  29.196  12.998
35432W        W 3650  36.544  30.710   2.760
35433W        W 3651  25.759  27.532  14.774
35434W        W 3652  25.715   7.156  11.045
35435W        W 3653  22.970  38.501   1.181
35436W        W 3654  33.079  39.431  14.505
35437W        W 3655   1.612  27.565  11.695
35438W        W 3656  21.649  12.374   0.426
35439W        W 3657  12.186   9.358   2.416
35440W        W 3658  44.902  21.028  13.601
35441W        W 3659  13.589  36.575  13.596
35442W        W 3660  16.521   1.488  11.972
35443W        W 3661  17.905  43.300  12.721
35444W        W 3662   2.754  40.255   0.028
35445W        W 3663  15.805   1.287  11.444
35446W        W 3664  20.620   7.152   2.458
35447W        W 3665   2.841  21.672   3.158
35448W        W 3666  36.297   3.241   5.393
35449W        W 3667  11.145  25.184   3.621
35450W        W 3668  29.991  40.334  12.145
35451W        W 3669  15.688  31.950   4.325
35452W        W 3670  35.998  36.065   0.769
35453W        W 3671  27.979  39.795   4.623
35454W        W 3672   3.765   3.261   3.119
35455W        W 3673   1.984  44.239  14.422
35456W        W 3674   2.457   2.447   3.745
35457W        W 3675   6.333  23.148  13.776
35458W        W 3676  22.596  16.165  11.500
35459W        W 3677  21.053  22.076  12.892
35460W        W 3678  32.717  17.600   0.693
35461W        W 3679  25.571  26.448  13.863
35462W        W 3680  12.469   4.986  14.225
35463W        W 3681  14.266  21.517   1.784
35464W        W 3682  40.582  21.727   3.549
35465W        W 3683  32.506  10.272  14.992
35466W        W 3684   6.922   2.225  10.805
35467W        W 3685  37.586  19.617   3.221
35468W        W 3686  30.394  41.818   3.363
35469W        W 3687  43.955  41.483  11.423
35470W        W 3688  16.521  42.840   4.533
35471W        W 3689  14.029  41.403  13.764
35472W        W 3690  18.566  29.631   1.844
35473W        W 3691  29.066   6.377  11.615
35474W        W 3692  13.304  15.319  11.395
35475W        W 3693   1.222  29.996   3.761
35476W        W 3694  24.605  12.931   4.722
35477W        W 3695  27.963  25.924   0.074
35478W        W 3696  43.798  42.255  12.207
35479W        W 3697   1.334  26.089   1.821
35480W        W 3698  17.101  25.103   0.839
35481W        W 3699  31.140  15.648   0.946
35482W        W 3700   8.409  34.489   3.994
35483W        W 3701  25.034   0.944   4.587
35484W        W 3702   5.248  32.066   1.172
35485W        W 3703  15.668  22.729   3.616
35486W        W 3704  43.819   4.135   4.683
35487W        W 3705  39.104  21.617   3.280
35488W        W 3706  16.112  29.860  12.135
35489W        W 3707  19.353  28.241  12.369
35490W        W 3708  19.665  11.436   1.788
35491W        W 3709  22.069  34.618   0.422
35492W        W 3710   9.849  20.316   0.052
35493W        W 3711  31.128  13.011  14.572
35494W        W 3712  15.680   9.886   4.383
35495W        W 3713  12.215  27.318   4.078
35496W        W 3714  30.388   0.946  10.652
35497W        W 3715  14.372  31.165   1.432
35498W        W 3716  27.957   1.257   3.902
35499W        W 3717  27.461  34.358  14.390
35500W        W 3718  33.645   2.821   4.964
35501W        W 3719  26.074   0.464   3.225
35502W        W 3720   2.930  40.107  12.744
35503W        W 3721  17.274  21.033   0.957
35504W        W 3722  39.552   5.396  10.716
35505W        W 3723  25.499   6.807  10.711
35506W        W 3724  15.624  13.723   2.182
35507W        W 3725  28.171  21.064  13.349
35508W        W 3726  39.912  27.775  12.019
35509W        W 3727  17.106   9.323  12.406
35510W        W 3728  40.039  39.142   4.430
35511W        W 3729   4.364  29.112   3.386
35512W        W 3730  19.516   0.803  11.086
35513W        W 3731  29.674  36.005   4.696
35514W        W 3732  23.135  40.201   4.996
35515W        W 3733  27.894  15.907   0.044
35516W        W 3734  28.344  36.007   0.959
35517W        W 3735   7.721  17.212  11.656
35518W        W 3736   8.990  15.761   2.844
35519W        W 3737  19.836  43.002   2.670
35520W        W 3738  15.905  21.051   3.118
35521W        W 3739  27.558  32.026   9.902
35522W        W 3740  19.305  10.372  12.805
35523W        W 3741  17.249  40.437  10.969
35524W        W 3742  11.031  13.565   2.636
35525W        W 3743  14.721  30.099  13.037
35526W        W 3744  14.317  25.709  10.750
35527W        W 3745  42.761  28.878  12.348
35528W        W 3746  43.932  15.856  13.311
35529W        W 3747   0.498   3.273   0.349
35530W        W 3748  11.013  11.358  12.463
35531W        W 3749  25.731  43.316   3.776
35532W        W 3750  30.030  42.262   2.816
35533W        W 3751  17.955  37.578   1.137
35534W        W 3752  25.755  23.500   4.175
35535W        W 3753  24.101  37.167   4.999
35536W        W 3754   0.430  13.638   1.738
35537W        W 3755   2.459  20.203   3.194
35538W        W 3756   5.694  29.668   3.207
35539W        W 3757  31.221  44.444  11.446
35540W        W 3758   7.686  31.363   0.671
35541W        W 3759  11.959  33.884  13.793
35542W        W 3760  29.124   7.903  11.540
35543W        W 3761   2.143  22.174   4.815
35544W        W 3762  44.391  14.277   3.580
35545W        W 3763  30.527  37.083  12.407
35546W        W 3764  23.844  12.338   1.277
35547W        W 3765  17.353   7.479   4.018
35548W        W 3766  20.688  44.404   4.081
35549W        W 3767  10.146  19.592   0.271
35550W        W 3768  31.455  26.127   5.575
35551W        W 3769  14.625  11.915  13.592
35552W        W 3770  13.224  40.025  14.843
35553W        W 3771  39.570  44.073   2.322
35554W        W 3772  19.547   9.450  11.967
35555W        W 3773  11.373  17.333   4.853
35556W        W 3774  43.365  10.599   0.235
35557W        W 3775  42.770  22.524  11.252
35558W        W 3776  39.338  37.975  13.899
35559W        W 3777   5.242  19.398   4.784
35560W        W 3778  37.306  37.858   0.065
35561W        W 3779  38.545  31.903  12.420
35562W        W 3780  24.647  24.487  13.392
35563W        W 3781  11.135  18.741   3.642
35564W        W 3782   9.004  44.776  10.638
35565W        W 3783  27.290   2.465  13.836
35566W        W 3784  29.386  27.425   0.823
35567W        W 3785  32.942  26.730   3.274
35568W        W 3786  41.336  31.368  14.655
35569W        W 3787  12.629  19.518   0.139
35570W        W 3788  18.706  18.542   3.766
35571W        W 3789  33.445  26.990   4.453
35572W        W 3790  35.112  17.201   2.237
35573W        W 3791  21.766  44.999  10.754
35574W        W 3792  39.413  39.987   4.620
35575W        W 3793  26.463   1.605   1.722
35576W        W 3794  11.243  25.188   3.125
35577W        W 3795   2.379  13.337   1.634
35578W        W 3796  26.474  22.046   5.331
35579W        W 3797  33.880   4.738  13.808
35580W        W 3798  11.731   7.695   3.603
35581W        W 3799  26.100  24.726  13.049
35582W        W 3800   8.969   8.996  13.473
35583W        W 3801  21.550  44.350  11.756
35584W        W 3802  20.086  12.734  13.571
35585W        W 3803   6.919  21.750  14.982
35586W        W 3804   1.393  12.751   3.976
35587W        W 3805  21.639  15.012   0.904
35588W        W 3806  34.589  12.171   0.202
35589W        W 3807   2.719  21.675   2.637
35590W        W 3808  28.589  19.743   3.626
35591W        W 3809  36.337  20.131   1.099
35592W        W 3810   5.068  15.874  10.794
35593W        W 3811  27.490  16.406  11.704
35594W        W 3812  38.857  39.162   2.158
35595W        W 3813  32.600  12.665  10.241
35596W        W 3814  36.948  39.114   2.180
35597W        W 3815  38.260  38.761  12.092
35598W        W 3816  13.573  12.599  12.698
35599W        W 3817   7.698  30.181   1.389
35600W        W 3818   7.702   9.057  11.401
35601W        W 3819   8.314  42.995   3.078
35602W        W 3820  32.623  41.321   0.951
35603W        W 3821  12.103  23.049  14.899
35604W        W 3822  23.004   5.362   1.626
35605W        W 3823  10.694  27.383  11.633
35606W        W 3824  14.297   8.177   1.932
35607W        W 3825  29.691   1.719  12.842
35608W        W 3826   8.313   5.902  10.714
35609W        W 3827   2.973  37.979   2.518
35610W        W 3828   9.378  42.416  14.334
35611W        W 3829  17.698  18.215  12.541
35612W        W 3830  26.885  30.974  12.033
35613W        W 3831  24.236  43.094   2.309
35614W        W 3832   3.715  43.511   1.521
35615W        W 3833  18.026   0.839  12.993
35616W        W 3834  34.440  33.991   1.803
35617W        W 3835  42.057  13.232   4.779
35618W        W 3836  20.068  11.730  13.428
35619W        W 3837  15.358  22.216   1.303
35620W        W 3838  11.245  12.642   4.332
35621W        W 3839  24.541  30.478  13.507
35622W        W 3840  36.977  25.136  10.641
35623W        W 3841   1.044   8.777  14.418
35624W        W 3842  18.723  39.261   3.812
35625W        W 3843   7.279  38.907  12.633
35626W        W 3844  44.346  18.852   1.539
35627W        W 3845  15.605  20.142   0.906
35628W        W 3846  19.235  25.565  13.606
35629W        W 3847  40.817  43.747   4.166
35630W        W 3848  28.959  18.547  12.349
35631W        W 3849  21.704  44.734  12.655
35632W        W 3850  43.482  37.232   1.566
35633W        W 3851   6.803   8.240  13.591
35634W        W 3852  24.989  32.176   0.509
35635W        W 3853  26.232  30.451   4.700
35636W        W 3854  20.380  19.788   0.208
35637W        W 3855   9.214  35.644   3.061
35638W        W 3856   2.231  17.546   1.204
35639W        W 3857  31.953  17.763  12.406
35640W        W 3858  30.107  34.248  10.370
35641W        W 3859  33.600   5.659  11.672
35642W        W 3860  30.418  39.400  10.554
35643W        W 3861  40.628  25.054   5.082
35644W        W 3862  14.351  19.756   0.647
35645W        W 3863   8.540  29.723   0.717
35646W        W 3864  38.705   1.812  10.500
35647W        W 3865  10.767  26.543  13.779
35648W        W 3866  11.438  16.687  11.148
35649W        W 3867  43.560  36.357   3.549
35650W        W 3868  16.298  33.631  12.118
35651W        W 3869  36.951   8.203  13.333
35652W        W 3870  13.735   8.665  13.284
35653W        W 3871  36.987  29.615   1.560
35654W        W 3872  19.116  33.064   1.284
35655W        W 3873  38.579  39.535  12.584
35656W        W 3874  11.417  11.627  14.337
35657W        W 3875  20.681  17.431  11.898
35658W        W 3876  29.858  25.513  14.403
35659W        W 3877   2.810  12.201  12.659
35660W        W 3878   2.012   2.370  12.348
35661W        W 3879  28.181  31.719  11.966
35662W        W 3880  44.971  17.136   2.647
35663W        W 3881  10.309   1.565   3.833
35664W        W 3882  23.148   8.198  11.070
35665W        W 3883  28.098  39.973   2.346
35666W        W 3884   6.750  18.460   4.989
35667W        W 3885   4.307  26.099  14.006
35668W        W 3886  13.681  24.723  12.083
35669W        W 3887   6.974  19.232   0.274
35670W        W 3888  18.782  37.639   3.654
35671W        W 3889  41.871  26.970   1.395
35672W        W 3890   0.194  14.588  12.431
35673W        W 3891  19.982  25.033  12.062
35674W        W 3892  14.737  38.087   1.408
35675W        W 3893  26.281  20.149   1.102
35676W        W 3894   8.380  42.612  11.055
35677W        W 3895  26.743   9.618   0.955
35678W        W 3896  39.335  10.310   1.491
35679W        W 3897  39.045  32.028  13.561
35680W        W 3898  43.960   3.018  14.823
35681W        W 3899  11.744  19.514  14.949
35682W        W 3900  43.766  32.105  11.061
35683W        W 3901  14.097   8.805  14.752
35684W        W 3902  18.227  10.214  12.530
35685W        W 3903  18.663  41.159   0.977
35686W        W 3904   2.983  19.067   1.204
35687W        W 3905  40.996  27.229   4.070
35688W        W 3906  29.359  23.098  12.998
35689W        W 3907  16.402  43.769   9.820
35690W        W 3908  25.857   4.294  13.514
35691W        W 3909   3.467  29.633   0.924
35692W        W 3910  25.449   4.306  12.701
35693W        W 3911  41.596  33.411   2.603
35694W        W 3912   9.929  43.481  14.954
35695W        W 3913   3.545  40.614   4.943
35696W        W 3914  36.035  12.355   2.304
35697W        W 3915  36.320  25.136   1.229
35698W        W 3916  15.177   5.318  12.493
35699W        W 3917  12.294  43.169  13.755
35700W        W 3918  33.443   9.222   3.351
35701W        W 3919  35.477  43.609   3.191
35702W        W 3920  43.596   5.904   2.261
35703W        W 3921  16.836   5.285   4.461
35704W        W 3922  25.962  22.632  12.327
35705W        W 3923  14.554  16.779  13.798
35706W        W 3924  26.089  31.206  11.032
35707W        W 3925  41.848  24.968  14.537
35708W        W 3926   8.749  28.108   1.181
35709W        W 3927  16.279  20.742   2.692
35710W        W 3928  26.733  37.837   4.807
35711W        W 3929   5.345  12.600  11.220
35712W        W 3930  22.166  38.083   2.810
35713W        W 3931   6.844  22.717   1.825
35714W        W 3932  26.364  14.391   0.779
35715W        W 3933  37.956  21.041  12.012
35716W        W 3934  39.895  37.158  11.957
35717W        W 3935  11.045  20.427   1.935
35718W        W 3936  39.455  43.594  11.592
35719W        W 3937   3.038  29.580  14.309
35720W        W 3938   3.231  12.265  12.353
35721W        W 3939  22.931  26.274  11.121
35722W        W 3940  36.094   0.165  11.175
35723W        W 3941  11.849  15.848  11.232
35724W        W 3942  32.167  27.514  14.751
35725W        W 3943  33.968  24.676   4.727
35726W        W 3944  18.061  28.315   3.986
35727W        W 3945  16.066  29.528   4.564
35728W        W 3946  36.848  22.989   0.660
35729W        W 3947   1.055   0.784  14.590
35730W        W 3948   1.278   9.213  12.867
35731W        W 3949  35.504  22.595   3.250
35732W        W 3950  41.415  28.900   4.155
35733W        W 3951  26.899   5.621  14.380
35734W        W 3952  13.775  17.252  13.866
35735W        W 3953  23.207  12.741  13.616
35736W        W 3954  25.784  11.876   1.450
35737W        W 3955   5.433  18.159   2.014
35738W        W 3956  28.088  26.916   0.279
35739W        W 3957   4.946  21.792  14.437
35740W        W 3958  30.990  34.262   2.261
35741W        W 3959  22.058  10.098   0.294
35742W        W 3960  10.038  36.377  13.367
35743W        W 3961  10.662  23.193  13.314
35744W        W 3962  14.158  11.108  14.336
35745W        W 3963   1.968  34.660  14.360
35746W        W 3964  28.212  40.773  12.750
35747W        W 3965   8.768  15.798  13.122
35748W        W 3966  18.796  17.327   1.738
35749W        W 3967  39.375  25.223   2.856
35750W        W 3968  33.663  41.794   1.840
35751W        W 3969   3.671  38.533  13.430
35752W        W 3970   1.434  22.405   2.279
35753W        W 3971  41.826  24.086  10.755
35754W        W 3972  42.991  38.842  14.494
35755W        W 3973  25.990  37.652  13.991
35756W        W 3974  10.280   5.686   2.798
35757W        W 3975  18.115  26.016   4.127
35758W        W 3976  26.529  39.499  11.973
35759W        W 3977  31.135  38.056  14.358
35760W        W 3978   2.851  16.643  11.681
35761W        W 3979  10.158  39.351  10.633
35762W        W 3980  27.210  12.574   2.916
35763W        W 3981  41.235  28.118   3.105
35764W        W 3982  34.938  28.748  12.067
35765W        W 3983  12.543  26.824   5.082
35766W        W 3984  35.585  19.167  14.806
35767W        W 3985  16.679  17.290  14.002
35768W        W 3986  20.197  13.676   0.897
35769W        W 3987  30.849  31.991   4.835
35770W        W 3988  14.675  20.638   1.159
35771W        W 3989  37.665   8.387   2.116
35772W        W 3990  35.512  26.186   5.107
35773W        W 3991   8.640   3.581  11.447
35774W        W 3992   1.851  39.514   3.899
35775W        W 3993  10.339  40.819  11.615
35776W        W 3994  35.808  42.210  13.868
35777W        W 3995  21.719  36.531   0.963
35778W        W 3996  10.114   2.918  10.621
35779W        W 3997  12.586  14.211  11.636
35780W        W 3998  31.172  43.910   0.831
35781W        W 3999  36.637   1.074   1.581
35782W        W 4000  26.639  11.674  10.871
35783W        W 4001  36.084  43.319  12.286
35784W        W 4002  13.049  21.483   3.183
35785W        W 4003  16.281   5.983  13.840
35786W        W 4004  25.684  41.964  12.161
35787W        W 4005   6.445  24.536  12.508
35788W        W 4006  34.188  37.469  11.149
35789W        W 4007  27.193  26.029  12.644
35790W        W 4008  35.400   2.902   2.544
35791W        W 4009  26.316  35.071  10.542
35792W        W 4010  23.525   4.326  11.263
35793W        W 4011  26.181  19.009   0.927
35794W        W 4012  23.730   7.693  11.145
35795W        W 4013  10.261  12.529   3.984
35796W        W 4014  22.788  35.364   3.686
35797W        W 4015   9.817  17.706   4.587
35798W        W 4016  21.632  44.421   1.374
35799W        W 4017  40.432  17.352  12.000
35800W        W 4018  31.544  29.399  14.513
35801W        W 4019  24.728  33.781  13.279
35802W        W 4020   1.458   2.130  11.606
35803W        W 4021   1.714  39.103  13.755
35804W        W 4022  13.381   7.136  12.027
35805W        W 4023  25.474  34.628   0.927
35806W        W 4024   4.172  24.081   0.650
35807W        W 4025   0.344  39.013  13.541
35808W        W 4026  28.128  24.411  11.049
35809W        W 4027  43.658  43.344   1.533
35810W        W 4028  36.477   9.321  14.989
35811W        W 4029   0.413  36.859   1.431
35812W        W 4030  20.008  17.390   2.359
35813W        W 4031  26.994  32.858   0.151
35814W        W 4032   1.324   2.520   4.716
35815W        W 4033  37.851   6.153  14.533
35816W        W 4034   0.247  26.559   3.767
35817W        W 4035   6.100  37.367  11.428
35818W        W 4036  36.118  14.153  11.214
35819W        W 4037  14.543  12.783  12.523
35820W        W 4038   2.421  17.016  13.485
35821W        W 4039  29.669  39.780   3.934
35822W        W 4040  15.991  22.920  11.058
35823W        W 4041  32.522  29.081  14.843
35824W        W 4042  22.815  13.754  11.192
35825W        W 4043  40.263  41.809   5.020
35826W        W 4044  13.879  29.408   3.625
35827W        W 4045  44.421  20.813  13.553
35828W        W 4046  38.521  24.447  12.201
35829W        W 4047  31.299  26.906   4.923
35830W        W 4048   7.649   7.313  14.029
35831W        W 4049  27.635   4.334  10.668
35832W        W 4050  15.850  32.544  11.463
35833W        W 4051  12.329   4.911   4.153
35834W        W 4052  40.803  36.935   4.716
35835W        W 4053  20.466  39.363   0.840
35836W        W 4054  15.043  10.780  11.885
35837W        W 4055   0.154   6.452   4.034
35838W        W 4056  37.610  36.450  10.484
35839W        W 4057   7.377   2.803  12.527
35840W        W 4058   5.243  21.026  14.791
35841W        W 4059  43.951  39.603   4.785
35842W        W 4060  11.971  19.108  10.786
35843W        W 4061  12.880  32.831   3.057
35844W        W 4062  13.949  22.539  13.388
35845W        W 4063  21.519   7.700  13.465
35846W        W 4064  31.538  12.168   1.403
35847W        W 4065  22.349  35.001   2.885
35848W        W 4066  29.859  28.603   2.343
35849W        W 4067   9.408  16.301  14.076
35850W        W 4068   0.421  15.738  14.391
35851W        W 4069   3.748  36.650  14.321
35852W        W 4070  38.522  22.760  14.873
35853W        W 4071  39.930   5.840   1.365
35854W        W 4072  33.413  42.916  13.439
35855W        W 4073  40.296   3.961  13.957
35856W        W 4074  43.001  23.105  11.464
35857W        W 4075  10.021  11.694   2.763
35858W        W 4076  18.300  29.484   1.383
35859W        W 4077  12.781  24.568   3.292
35860W        W 4078   4.601  41.222  14.773
35861W        W 4079  37.017  27.016  12.948
35862W        W 4080  42.289  25.531   4.563
35863W        W 4081  31.799   7.788  14.621
35864W        W 4082  34.888   1.976   1.725
35865W        W 4083   4.233  25.320   4.081
35866W        W 4084   9.952  33.123  14.003
35867W        W 4085   7.578   9.774   0.702
35868W        W 4086   5.333  33.593   2.857
35869W        W 4087  34.567  35.381  13.833
35870W        W 4088   0.856  32.564  10.671
35871W        W 4089  23.978  23.998  12.440
35872W        W 4090  36.957  26.500  13.801
35873W        W 4091  37.704  31.439  10.553
35874W        W 4092  25.468  25.171   0.878
35875W        W 4093  14.352  36.453  12.806
35876W        W 4094  10.654  19.285  13.055
35877W        W 4095  25.019  11.791   4.199
35878W        W 4096  28.063  44.581   3.294
35879W        W 4097  39.540  18.027  14.420
35880W        W 4098   0.978   9.364   0.747
35881W        W 4099  29.175  43.816  11.505
35882W        W 4100  34.871  38.903   0.357
35883W        W 4101  17.876  43.825   5.117
35884W        W 4102   2.012  36.853  12.560
35885W        W 4103  43.927   1.438  13.249
35886W        W 4104  29.244  24.220  11.202
35887W        W 4105  10.596  23.600   3.179
35888W        W 4106  33.023  10.143   0.350
35889W        W 4107  43.693  43.800   1.885
35890W        W 4108  42.308  30.157   4.925
35891W        W 4109  17.574  15.277   0.431
35892W        W 4110  21.085  18.744   3.830
35893W        W 4111  19.737  37.868   3.916
35894W        W 4112  34.640  28.163   3.200
35895W        W 4113  21.512  15.605   4.532
35896W        W 4114  17.454  31.412  13.589
35897W        W 4115  20.351  18.601  13.374
35898W        W 4116  29.533  22.158  11.709
35899W        W 4117  13.161  44.950  13.028
35900W        W 4118   4.355  17.817  11.453
35901W        W 4119   6.362  23.053  12.823
35902W        W 4120  37.076  29.004  12.076
35903W        W 4121   8.489  29.143   1.357
35904W        W 4122  22.300  26.438   1.191
35905W        W 4123  16.598  35.185  10.538
35906W        W 4124  22.244  10.677  14.362
35907W        W 4125  20.381  39.465  11.550
35908W        W 4126  20.607  15.244  10.854
35909W        W 4127  42.955  41.371   3.756
35910W        W 4128   5.947  43.492   1.124
35911W        W 4129  36.962  37.584  12.035
35912W        W 4130  31.053  32.363   3.202
35913W        W 4131   9.727  22.723  14.100
35914W        W 4132   2.431  40.397  11.831
35915W        W 4133  28.636  19.270   2.299
35916W        W 4134  32.250   9.023  14.146
35917W        W 4135  38.061  38.528  13.278
35918W        W 4136  39.028  38.378  14.429
35919W        W 4137  21.516  14.126  10.768
35920W        W 4138  27.228  38.892  14.078
35921W        W 4139   7.426  43.424   1.326
35922W        W 4140  39.809  40.956   2.290
35923W        W 4141  35.836   8.827  11.575
35924W        W 4142  25.689  42.011  10.833
35925W        W 4143  31.443  25.797  14.894
35926W        W 4144   2.366  23.680  10.420
35927W        W 4145   0.238  41.236  14.391
35928W        W 4146  13.792  43.406   2.323
35929W        W 4147   2.004   9.326  14.748
35930W        W 4148  16.619  20.989   3.875
35931W        W 4149  16.325  13.831  13.544
35932W        W 4150  43.890   0.030   1.364
35933W        W 4151  35.773  18.201   4.113
35934W        W 4152  22.731  35.180  12.639
35935W        W 4153  16.696  31.929  13.508
35936W        W 4154  15.993  14.722   2.652
35937W        W 4155  23.519  30.480  12.026
35938W        W 4156  41.347  12.953  10.646
35939W        W 4157  44.203  19.967   3.845
35940W        W 4158  21.755  40.738   2.127
35941W        W 4159  15.082  11.500   1.294
35942W        W 4160  20.140  17.876   2.262
35943W        W 4161   9.733  36.645   1.364
35944W        W 4162  33.537  20.710   2.258
35945W        W 4163  18.200   9.995   4.588
35946W        W 4164  23.513  14.258   1.166
35947W        W 4165   6.509  37.911   1.798
35948W        W 4166  26.932  14.570  10.759
35949W        W 4167   5.457  22.968  13.495
35950W        W 4168  43.973   3.536  14.731
35951W        W 4169  33.092   3.999   2.077
35952W        W 4170   2.043  21.776   3.750
35953W        W 4171  40.848  30.903   2.819
35954W        W 4172  21.697  40.905   2.901
35955W        W 4173  31.396  44.938  12.838
35956W        W 4174  35.010  41.506  14.079
35957W        W 4175  43.495  22.969  10.633
35958W        W 4176   2.405  32.927  13.963
35959W        W 4177  32.590  21.742  12.804
35960W        W 4178  17.156  24.661   4.111
35961W        W 4179  40.735  19.328  13.412
35962W        W 4180   4.476  26.155   4.275
35963W        W 4181  41.939  27.736  14.250
35964W        W 4182  26.913   2.851  13.482
35965W        W 4183  30.471  13.193   0.389
35966W        W 4184  37.490  34.852   3.259
35967W        W 4185  41.822  21.471   4.971
35968W        W 4186  38.027  25.877   1.447
35969W        W 4187  18.154  42.432   2.552
35970W        W 4188  30.368  22.470  11.063
35971W        W 4189   1.919  19.212  10.865
35972W        W 4190  16.096   6.294   3.878
35973W        W 4191  26.247  22.970  11.843
35974W        W 4192  14.075   2.447   1.710
35975W        W 4193   5.434  26.564   0.003
35976W        W 4194   1.381  41.989   0.203
35977W        W 4195  31.281   1.326   0.349
35978W        W 4196  11.354  15.171   3.983
35979W        W 4197  40.342  10.875   4.534
35980W        W 4198  38.523  31.021   3.213
35981W        W 4199  16.692  34.585   0.279
35982W        W 4200  22.140  11.636   3.726
35983W        W 4201  38.306  43.082  12.273
35984W        W 4202  41.313  32.122   0.163
35985W        W 4203  35.432  20.772   3.709
35986W        W 4204  38.902  42.475  14.043
35987W        W 4205  28.095  29.061  12.312
35988W        W 4206  13.068  33.747   4.022
35989W        W 4207  32.139  17.058  14.433
35990W        W 4208  20.131  29.689   0.946
35991W        W 4209  35.436  12.687   1.709
35992W        W 4210  33.187   4.803  12.122
35993W        W 4211  37.142   5.877  13.920
35994W        W 4212  21.272   1.742  14.978
35995W        W 4213  19.524  37.532   0.939
35996W        W 4214  14.178   4.760  11.677
35997W        W 4215  35.312   7.160  12.515
35998W        W 4216   2.141  41.310   5.103
35999W        W 4217   2.489  17.622   3.183
36000W        W 4218  18.636  43.299   3.909
36001W        W 4219   0.243  40.558  13.101
36002W        W 4220  24.572  35.324  12.627
36003W        W 4221  33.017  12.878  12.959
36004W        W 4222  40.235   2.665  12.532
36005W        W 4223  17.071  11.593   3.257
36006W        W 4224  30.102  13.106  14.417
36007W        W 4225   5.887  33.862  10.574
36008W        W 4226  41.590  38.433   1.422
36009W        W 4227  14.902  18.043  13.741
36010W        W 4228  12.374  42.460  13.123
36011W        W 4229  14.104   0.499   5.216
36012W        W 4230  13.666  13.809   4.724
36013W        W 4231   4.723  17.104  11.196
36014W        W 4232  23.221  29.721   4.090
36015W        W 4233  16.817  41.851  10.573
36016W        W 4234  25.005  40.397  13.450
36017W        W 4235  30.942  38.834  12.213
36018W        W 4236   9.686  26.644   0.941
36019W        W 4237  34.514  31.195  12.468
36020W        W 4238   8.117   0.770   2.826
36021W        W 4239  40.389  41.536  14.463
36022W        W 4240  40.368  25.827  10.659
36023W        W 4241   6.454   8.505   3.570
36024W        W 4242   2.268  29.490   2.433
36025W        W 4243  41.953  26.966  14.749
36026W        W 4244  12.837  40.142  13.329
36027W        W 4245   8.503  42.919   5.210
36028W        W 4246   7.594  44.053  13.889
36029W        W 4247   4.493  38.520   0.547
36030W        W 4248  23.159  37.113   0.967
36031W        W 4249  33.934   4.789   2.677
36032W        W 4250  18.201   6.198  12.000
36033W        W 4251  25.035  37.044  12.042
36034W        W 4252   6.657  41.714   2.871
36035W        W 4253  36.528  12.166  10.765
36036W        W 4254  37.238  21.080  13.933
36037W        W 4255  11.717  29.521  10.159
36038W        W 4256  36.486  44.466  11.697
36039W        W 4257  23.122  20.018   0.546
36040W        W 4258  28.175  43.277   0.248
36041W        W 4259  39.276  40.250   3.338
36042W        W 4260  14.602  20.343  13.488
36043W        W 4261  33.953  26.965  11.038
36044W        W 4262   1.244  29.857   0.384
36045W        W 4263  25.508  32.652  11.650
36046W        W 4264   4.820   5.836  14.787
36047W        W 4265   7.236  40.021   1.435
36048W        W 4266  13.641  31.680   1.413
36049W        W 4267  21.859   3.770   3.190
36050W        W 4268  27.590  44.717   3.527
36051W        W 4269   5.748  36.284  12.903
36052W        W 4270  20.820  37.548   4.126
36053W        W 4271  36.900  16.060  11.066
36054W        W 4272  39.003  35.134  11.421
36055W        W 4273  22.779  25.128  12.112
36056W        W 4274   6.754  34.060  12.383
36057W        W 4275   1.029  12.287   3.699
36058W        W 4276  41.418  39.314  13.787
36059W        W 4277   1.794  19.530  12.979
36060W        W 4278  16.982   5.658   3.609
36061W        W 4279  19.597  37.826   4.571
36062W        W 4280  28.854  38.423  11.581
36063W        W 4281  44.174  39.863   0.418
36064W        W 4282  13.053  31.375  11.004
36065W        W 4283  42.415  17.539   2.671
36066W        W 4284  32.139   6.813  10.995
36067W        W 4285  32.343  16.261  11.580
36068W        W 4286   5.846  21.907   3.110
36069W        W 4287  15.326  41.257  11.758
36070W        W 4288   5.468   2.785   0.966
36071W        W 4289  44.283  34.850   3.598
36072W        W 4290  37.924   9.675   1.251
36073W        W 4291  27.271   2.603  14.352
36074W        W 4292   1.271  31.324   2.422
36075W        W 4293  41.649  31.490   0.056
36076W        W 4294  20.286  20.123  13.361
36077W        W 4295  15.051   6.371   0.197
36078W        W 4296   3.950   7.389  13.328
36079W        W 4297  14.260  26.937  14.090
36080W        W 4298  26.267  39.496  13.136
36081W        W 4299  15.183  11.102   2.589
36082W        W 4300  22.932  17.087   3.709
36083W        W 4301  10.315  31.781   0.501
36084W        W 4302  14.680  42.697   4.598
36085W        W 4303  24.530  13.003  12.589
36086W        W 4304  22.407  28.340   0.638
36087W        W 4305   2.990  16.552   1.388
36088W        W 4306  35.006  28.416  11.675
36089W        W 4307  38.104   9.343  12.001
36090W        W 4308  41.240  28.891   4.655
36091W        W 4309  30.844  37.031   2.658
36092W        W 4310   7.695   1.895   4.130
36093W        W 4311  37.495  33.942   3.298
36094W        W 4312   7.859  15.194  10.272
36095W        W 4313  38.635  11.608   3.254
36096W        W 4314  32.129  43.983  11.749
36097W        W 4315   6.333   2.404  11.900
36098W        W 4316  18.017  27.998   4.464
36099W        W 4317  17.972  13.274  13.060
36100W        W 4318  34.556   6.125   1.259
36101W        W 4319  11.695  31.482  10.545
36102W        W 4320  35.226   0.699   3.785
36103W        W 4321   9.451   5.511  13.132
36104W        W 4322  33.206  12.347   0.875
36105W        W 4323  15.196   5.130  13.361
36106W        W 4324  15.097  39.789  10.994
36107W        W 4325  23.333  35.702  10.176
36108W        W 4326  17.349  18.558  13.777
36109W        W 4327  29.043  35.508  10.758
36110W        W 4328  40.902  18.057  14.797
36111W        W 4329   7.501   6.408  11.113
36112W        W 4330  39.354  12.593   2.937
36113W        W 4331   4.772  27.107   3.659
36114W        W 4332   3.519  22.045  12.858
36115W        W 4333  34.074  40.812   1.010
36116W        W 4334  35.886  23.130   4.577
36117W        W 4335  33.874   0.863   1.456
36118W        W 4336  24.033  29.745  11.642
36119W        W 4337  25.747  26.193   3.654
36120W        W 4338  24.907  27.462   0.765
36121W        W 4339  10.086  24.320   3.445
36122W        W 4340  28.986  14.665   1.817
36123W        W 4341  20.523  38.944   0.533
36124W        W 4342  21.250  25.213  10.738
36125W        W 4343  34.091  44.927  12.024
36126W        W 4344  32.131  10.760   3.702
36127W        W 4345   7.169  16.081  13.505
36128W        W 4346   6.600   4.899  10.165
36129W        W 4347  36.865   1.947  13.608
36130W        W 4348  22.961  17.654   2.339
36131W        W 4349  33.780  13.251   4.093
36132W        W 4350  38.527  24.936  13.051
36133W        W 4351   3.103   6.809  13.262
36134W        W 4352  11.326  40.159   1.246
36135W        W 4353   4.806   2.873  10.614
36136W        W 4354  15.051  22.219   0.892
36137W        W 4355  34.414  40.806   0.554
36138W        W 4356  10.657  15.506  14.864
36139W        W 4357  40.810  31.500   3.777
36140W        W 4358  42.030   5.392   3.625
36141W        W 4359  28.511  10.709   1.777
36142W        W 4360   0.307  18.806  12.074
36143W        W 4361  44.280  42.500   3.161
36144W        W 4362  33.683   0.147   2.802
36145W        W 4363   3.943   5.668  13.306
36146W        W 4364  32.406   1.660   3.425
36147W        W 4365   8.896  13.406   0.024
36148W        W 4366   5.096  44.317  11.133
36149W        W 4367  42.046  10.980   3.715
36150W        W 4368  13.551  39.253  14.446
36151W        W 4369  25.771  19.264  14.994
36152W        W 4370  40.700  13.954   3.201
36153W        W 4371  43.976   1.937  11.670
36154W        W 4372   9.816   9.192   3.675
36155W        W 4373  25.446  44.728  11.112
36156W        W 4374  40.118  10.258  12.932
36157W        W 4375   1.266  34.876   3.122
36158W        W 4376  34.629  24.627   1.111
36159W        W 4377  21.687  41.546  11.628
36160W        W 4378   1.275  40.080  11.596
36161W        W 4379  28.859  25.722   3.711
36162W        W 4380   1.674  11.722   3.230
36163W        W 4381  20.623   8.363  11.672
36164W        W 4382  40.301  24.595   3.182
36165W        W 4383  34.682   4.872  12.119
36166W        W 4384   8.674  34.961   4.736
36167W        W 4385  32.224   8.811   1.474
36168W        W 4386   8.125  39.520   4.078
36169W        W 4387  11.120   3.925  11.538
36170W        W 4388  32.857  32.051  13.964
36171W        W 4389  25.700  25.638   0.804
36172W        W 4390  15.165   3.934   1.510
36173W        W 4391   8.003  42.551   1.343
36174W        W 4392   3.384   1.838  12.583
36175W        W 4393  11.802   8.723  13.356
36176W        W 4394  35.296  19.969  13.844
36177W        W 4395  10.519  13.576   2.666
36178W        W 4396   6.313   4.676  13.853
36179W        W 4397  10.355   6.532   4.511
36180W        W 4398   0.935  32.031   0.886
36181W        W 4399  35.297  12.067  11.961
36182W        W 4400  23.693  33.365  13.050
36183W        W 4401  39.425  13.621  11.153
36184W        W 4402  15.272  27.963   1.686
36185W        W 4403  26.643   6.521   1.015
36186W        W 4404   9.278  15.239  12.585
36187W        W 4405  22.191  21.896   0.941
36188W        W 4406  24.727   3.856  11.281
36189W        W 4407   3.576  23.040   1.865
36190W        W 4408  12.255  26.961   2.237
36191W        W 4409  26.385  13.327  11.848
36192W        W 4410   3.651  42.844  12.285
36193W        W 4411  13.751  32.639   2.231
36194W        W 4412  30.357  24.009  11.694
36195W        W 4413  33.371   4.901  13.981
36196W        W 4414   2.932  20.893   0.932
36197W        W 4415  37.293  36.111   2.684
36198W        W 4416  34.665  16.237  11.926
36199W        W 4417  12.809  24.301   2.834
36200W        W 4418  20.286   5.922  11.534
36201W        W 4419  16.306  39.591  11.978
36202W        W 4420  30.109   9.661  11.596
36203W        W 4421  20.286   8.627  12.521
36204W        W 4422  12.831  34.901  11.057
36205W        W 4423  36.644  16.622   3.744
36206W        W 4424  10.340  38.102  14.364
36207W        W 4425  11.600  15.147   0.180
36208W        W 4426  10.812  44.507   3.775
36209W        W 4427  32.396   8.245   4.518
36210W        W 4428  41.516  35.290  12.636
36211W        W 4429   4.010   6.781  12.640
36212W        W 4430  37.876  33.166   3.774
36213W        W 4431   0.503  30.482   0.373
36214W        W 4432  10.867   5.928  10.753
36215W        W 4433  30.436   5.828  12.082
36216W        W 4434  13.611   8.160   3.371
36217W        W 4435  25.526  20.029   2.167
36218W        W 4436  39.845   8.447  12.465
36219W        W 4437  21.846   2.897  14.903
36220W        W 4438  43.247   0.668   4.034
36221W        W 4439  38.095   0.277   3.805
36222W        W 4440  42.101  35.126  10.963
36223W        W 4441   5.020  43.957  11.503
36224W        W 4442  44.274  21.736   4.953
36225W        W 4443  35.035  30.630   0.457
36226W        W 4444  24.525  34.159   2.817
36227W        W 4445   1.902  17.768  12.474
36228W        W 4446  26.917  19.256   0.382
36229W        W 4447  32.766  12.497   2.410
36230W        W 4448  31.189   5.952  11.493
36231W        W 4449  14.323  23.182   4.613
36232W        W 4450  42.556  44.295  12.023
36233W        W 4451  27.611  40.923   0.407
36234W        W 4452  26.772  12.148  13.922
36235W        W 4453   9.128  27.832   3.366
36236W        W 4454   6.404  33.573  10.744
36237W        W 4455   7.104  44.158  14.042
36238W        W 4456   8.541  44.328   4.220
36239W        W 4457   5.290  15.545  11.935
36240W        W 4458   4.854  20.727  12.641
36241W        W 4459  22.818   4.930  12.057
36242W        W 4460  33.963  23.605  14.500
36243W        W 4461  39.946  17.002   0.929
36244W        W 4462  22.024  13.021   3.693
36245W        W 4463  13.029  27.914   1.802
36246W        W 4464  25.128  39.369  14.477
36247W        W 4465  39.971  12.582   1.318
36248W        W 4466  20.332  28.760  12.989
36249W        W 4467  34.120  26.971  13.902
36250W        W 4468  44.983  38.508  12.039
36251W        W 4469   9.070  17.517  14.886
36252W        W 4470  17.775  35.421   0.905
36253W        W 4471   8.432  44.971   0.800
36254W        W 4472   3.373  22.972  12.511
36255W        W 4473  15.252  26.891   1.006
36256W        W 4474   1.908  36.419  10.767
36257W        W 4475   0.275  12.587   1.680
36258W        W 4476  41.607   1.799  14.615
36259W        W 4477  14.422  17.118  12.593
36260W        W 4478  25.563  33.513   2.382
36261W        W 4479  41.864   8.708  11.518
36262W        W 4480  13.122  21.461   0.965
36263W        W 4481  44.160  30.599  14.970
36264W        W 4482  24.621  17.085  13.815
36265W        W 4483  16.481  12.196   0.789
36266W        W 4484   1.082  33.535   3.077
36267W        W 4485  17.466  24.470  12.358
36268W        W 4486  27.818  26.524  10.316
36269W        W 4487  15.533  38.357   4.576
36270W        W 4488  17.627  31.993   1.517
36271W        W 4489  18.869   7.235   0.862
36272W        W 4490  39.401  11.589   4.348
36273W        W 4491  39.679  20.499   1.903
36274W        W 4492  23.575  15.993   4.247
36275W        W 4493  13.586  18.141  12.784
36276W        W 4494   0.412  29.223  12.421
36277W        W 4495  21.095  30.542   0.223
36278W        W 4496  26.437  30.470   4.210
36279W        W 4497  15.003  33.026   4.040
36280W        W 4498  37.657   3.389  11.294
36281W        W 4499  13.850  26.751   3.157
36282W        W 4500  17.198  20.933  13.748
36283W        W 4501  15.821   8.951  12.556
36284W        W 4502  17.639  19.691   0.900
36285W        W 4503  19.057  22.743  14.293
36286W        W 4504  32.528  39.426  10.945
36287W        W 4505  11.167  24.710  13.071
36288W        W 4506  18.321   1.448  11.441
36289W        W 4507  27.586  39.557  13.499
36290W        W 4508  43.293  22.580   1.817
36291W        W 4509  21.783  30.966  14.827
36292W        W 4510  27.155  13.283   2.541
36293W        W 4511  12.853   4.254  12.552
36294W        W 4512   8.141  43.859  11.700
36295W        W 4513  38.454  26.917   3.125
36296W        W 4514   6.728  20.545   0.198
36297W        W 4515  15.267  11.941   3.226
36298W        W 4516  13.685   2.514   4.138
36299W        W 4517  14.915   5.350   0.465
36300W        W 4518  26.506  36.922  13.953
36301W        W 4519  24.978  35.893   4.210
36302W        W 4520  37.045   1.720  12.190
36303W        W 4521   6.728  19.070  11.456
36304W        W 4522  10.560   1.444  12.008
36305W        W 4523  24.462  31.706  14.483
36306W        W 4524  42.187  25.226   4.164
36307W        W 4525   2.863  18.098   1.223
36308W        W 4526  37.765  36.506  11.676
36309W        W 4527  17.241  44.479  10.519
36310W        W 4528   0.580  41.025  12.044
36311W        W 4529  43.780  17.052  14.002
36312W        W 4530  18.333  19.635  12.694
36313W        W 4531  16.182  43.483  14.856
36314W        W 4532  39.521  21.828  11.256
36315W        W 4533  26.790   7.614  12.427
36316W        W 4534  26.462   7.947  14.358
36317W        W 4535  29.742  23.967   2.315
36318W        W 4536  26.518  13.039   1.158
36319W        W 4537  24.265  18.111   3.352
36320W        W 4538  41.231  32.950   1.842
36321W        W 4539  16.412  36.627   2.080
36322W        W 4540  34.884   2.194   0.296
36323W        W 4541  13.296   6.889   3.638
36324W        W 4542  27.991  23.286   1.858
36325W        W 4543  16.123  19.363  11.349
36326W        W 4544   9.374  37.692  14.425
36327W        W 4545  17.557   4.360   2.576
36328W        W 4546  40.222  44.219   2.089
36329W        W 4547  19.828  36.554  10.734
36330W        W 4548  32.954  26.130  12.654
36331W        W 4549  30.434   3.641   1.695
36332W        W 4550  30.786   8.756   3.193
36333W        W 4551  37.505   4.289  11.247
36334W        W 4552  26.743  32.993  13.276
36335W        W 4553  14.622  27.691   3.613
36336W        W 4554  12.672  22.154  10.376
36337W        W 4555   6.316  13.050   4.144
36338W        W 4556  38.500  31.422   3.775
36339W        W 4557  13.510  16.664  10.621
36340W        W 4558  31.511  42.509   0.562
36341W        W 4559  23.706  32.887   4.138
36342W        W 4560  19.008  44.474   3.950
36343W        W 4561  38.066   2.821  12.111
36344W        W 4562  19.266  43.272  11.645
36345W        W 4563  39.397  18.807   0.786
36346W        W 4564   6.792  11.660   0.888
36347W        W 4565  20.250  14.311  14.323
36348W        W 4566  11.810   5.662  13.945
36349W        W 4567  33.529  23.940   4.625
36350W        W 4568   5.332   8.464   4.375
36351W        W 4569   0.952  29.973  11.652
36352W        W 4570  29.180  17.704   2.823
36353W        W 4571   7.619  22.389   2.337
36354W        W 4572  32.535  24.049  12.548
36355W        W 4573  40.705   7.634  12.865
36356W        W 4574   4.909  35.698   2.373
36357W        W 4575  32.901  13.124   0.255
36358W        W 4576  38.558  42.769  14.330
36359W        W 4577  15.250   2.507   3.556
36360W        W 4578  34.855   8.202   5.028
36361W        W 4579  33.070  11.182  13.260
36362W        W 4580  25.454   9.695  10.677
36363W        W 4581  10.199  18.015   4.750
36364W        W 4582  23.941  34.124  11.966
36365W        W 4583   1.036  38.445   3.663
36366W        W 4584  29.151   7.230   3.115
36367W        W 4585  26.140  37.053   1.250
36368W        W 4586  42.382   0.725  11.054
36369W        W 4587   8.815  18.655   2.798
36370W        W 4588   5.919   5.910  10.688
36371W        W 4589   5.971  11.136   2.426
36372W        W 4590   0.584  43.487   3.649
36373W        W 4591  25.674  39.974   3.757
36374W        W 4592  31.318   1.878  11.963
36375W        W 4593  10.630  38.625  14.970
36376W        W 4594  42.425  27.895  14.381
36377W        W 4595  29.962  44.809  11.118
36378W        W 4596  12.873  23.948   1.336
36379W        W 4597   8.343  35.553   0.303
36380W        W 4598  23.045  31.090   3.090
36381W        W 4599  23.509   9.972   0.434
36382W        W 4600   0.392  41.911   0.309
36383W        W 4601   6.478  20.964   1.342
36384W        W 4602  13.081  37.378   0.255
36385W        W 4603  13.893  28.998  12.188
36386W        W 4604   4.315  22.642  10.988
36387W        W 4605  35.091   6.995  12.048
36388W        W 4606   6.960  27.534  12.475
36389W        W 4607  31.878   3.587   1.781
36390W        W 4608  12.890  24.118  11.250
36391W        W 4609  22.195  13.591   0.630
36392W        W 4610  16.747  36.849  13.884
36393W        W 4611  17.121  22.217   1.789
36394W        W 4612  42.251  37.932  11.706
36395W        W 4613  17.603  24.725   3.733
36396W        W 4614  24.927  13.978   4.983
36397W        W 4615   5.024  23.240  11.794
36398W        W 4616  42.061  42.607   4.089
36399W        W 4617  36.300  27.282  14.293
36400W        W 4618  32.925  36.141   4.085
36401W        W 4619  38.863  29.230  12.030
36402W        W 4620  15.666  31.594  13.941
36403W        W 4621  21.547  38.014  12.467
36404W        W 4622  18.898   4.396   3.753
36405W        W 4623  26.954   2.842   3.212
36406W        W 4624  31.014  11.762   4.665
36407W        W 4625  26.386  23.079   2.906
36408W        W 4626  18.113  39.310   3.072
36409W        W 4627  15.579  17.356   3.788
36410W        W 4628  17.014  15.321  12.998
36411W        W 4629  22.109  18.621   4.446
36412W        W 4630   0.650  43.379  13.487
36413W        W 4631  15.794  41.068  13.536
36414W        W 4632  39.365  22.192   3.427
36415W        W 4633  27.158   6.336   2.289
36416W        W 4634   7.375  15.810   0.223
36417W        W 4635  39.313  44.974   3.190
36418W        W 4636  15.664  40.893  10.881
36419W        W 4637  29.640   7.495   4.172
36420W        W 4638  21.887  25.464  12.638
36421W        W 4639   0.049   4.722  14.406
36422W        W 4640  10.101   7.166   3.129
36423W        W 4641  25.509  36.271  11.064
36424W        W 4642  39.370  10.499  13.381
36425W        W 4643  11.326   0.005   1.207
36426W        W 4644   6.917  18.487  11.198
36427W        W 4645   7.982  36.409  12.558
36428W        W 4646  10.488  11.286  12.430
36429W        W 4647  30.925   0.483  14.842
36430W        W 4648  33.126  18.725  13.311
36431W        W 4649  36.054  28.738  14.940
36432W        W 4650  41.805  36.385  13.375
36433W        W 4651  37.341  18.308   3.050
36434W        W 4652   9.336  20.520  10.804
36435W        W 4653  16.194  19.172   0.826
36436W        W 4654  15.166  41.338   4.518
36437W        W 4655   8.379  23.550  14.359
36438W        W 4656   1.320   8.974   4.123
36439W        W 4657  40.106  12.793  12.049
36440W        W 4658  29.688  30.040   2.432
36441W        W 4659  24.698  15.803   3.424
36442W        W 4660  24.611  14.717   2.683
36443W        W 4661  20.661   9.319   3.725
36444W        W 4662  22.160  40.798  12.927
36445W        W 4663  14.375  23.583  10.456
36446W        W 4664  38.282  32.362   3.223
36447W        W 4665  16.774   1.365   4.845
36448W        W 4666   6.198  35.748   5.123
36449W        W 4667  21.374  44.925  12.333
36450W        W 4668  24.496  22.533   9.996
36451W        W 4669  30.708  42.614   4.145
36452W        W 4670  27.640   4.534  13.713
36453W        W 4671  36.882   4.364   1.003
36454W        W 4672  19.538   2.951  14.961
36455W        W 4673  10.496  25.717   3.225
36456W        W 4674  42.897  32.603   1.446
36457W        W 4675  13.314  15.261  10.886
36458W        W 4676   8.204  28.680   3.547
36459W        W 4677  15.873   0.317  11.206
36460W        W 4678   5.223  31.813  12.642
36461W        W 4679  41.856  18.804  10.579
36462W        W 4680  36.354  11.739  14.251
36463W        W 4681  38.832  43.876   3.691
36464W        W 4682  13.369   5.924  13.594
36465W        W 4683  26.509  34.100   0.408
36466W        W 4684   8.197  27.623  11.590
36467W        W 4685  15.085  28.571   3.676
36468W        W 4686  18.634   2.959   4.705
36469W        W 4687  33.691  41.597  13.972
36470W        W 4688  13.124  22.436   3.544
36471W        W 4689   0.845  20.734   2.662
36472W        W 4690  26.565  32.994  12.789
36473W        W 4691  29.431  15.548   2.679
36474W        W 4692   9.470   7.397  13.049
36475W        W 4693  17.844  12.161  13.418
36476W        W 4694  29.568  35.557   3.144
36477W        W 4695  28.563  28.322   1.982
36478W        W 4696  40.586  44.266  11.483
36479W        W 4697   7.210   0.680  13.842
36480W        W 4698  43.664  29.652   1.692
36481W        W 4699  44.138  39.534  14.262
36482W        W 4700  24.107  14.699   1.227
36483W        W 4701   4.846  15.685  11.229
36484W        W 4702  22.737   8.760  13.267
36485W        W 4703  27.366  25.641   1.439
36486W        W 4704  40.781  15.757   4.125
36487W        W 4705  43.840  24.583   0.529
36488W        W 4706  38.472   5.781   3.787
36489W        W 4707  21.501  39.988  14.776
36490W        W 4708  33.166  30.554   2.200
36491W        W 4709   8.143  24.100   3.431
36492W        W 4710  15.751  13.590  10.346
36493W        W 4711  13.381  10.838   1.285
36494W        W 4712  20.505  26.428  10.285
36495W        W 4713   4.800  13.596   4.376
36496W        W 4714  44.688  24.991  11.488
36497W        W 4715   4.493   7.061   2.786
36498W        W 4716  23.775  44.281   3.291
36499W        W 4717  15.564   9.751   0.373
36500W        W 4718  13.203   0.360  12.057
36501W        W 4719   1.842  17.338   4.068
36502W        W 4720  33.395  30.149  11.746
36503W        W 4721  21.673  20.921   2.400
36504W        W 4722  27.159  15.877  13.918
36505W        W 4723  24.244  37.542  14.888
36506W        W 4724  41.914   3.262  14.833
36507W        W 4725  27.898  26.148  12.006
36508W        W 4726  41.033  37.091  14.497
36509W        W 4727  32.860  34.309   2.287
36510W        W 4728  21.111  36.891  13.920
36511W        W 4729   2.231   1.983   1.807
36512W        W 4730  27.991  26.673  11.154
36513W        W 4731  26.698  30.873  12.558
36514W        W 4732  20.715   9.695   4.676
36515W        W 4733  40.257  24.526   2.144
36516W        W 4734  17.507  11.368   9.833
36517W        W 4735  44.913  40.971  13.811
36518W        W 4736  13.665  43.348  10.667
36519W        W 4737  16.697  37.636  12.526
36520W        W 4738  41.793  23.552   3.577
36521W        W 4739   8.712  16.675   1.154
36522W        W 4740  43.017  41.004   0.477
36523W        W 4741   2.739   0.952  10.783
36524W        W 4742  18.624  12.902   2.797
36525W        W 4743  19.890  24.482  12.411
36526W        W 4744  10.792  21.080   0.797
36527W        W 4745  11.303  43.110   0.207
36528W        W 4746  43.318  32.417  11.530
36529W        W 4747  37.488  34.948  14.929
36530W        W 4748  24.329  16.782  13.033
36531W        W 4749  41.989  38.707   4.634
36532W        W 4750   7.919   0.730  11.090
36533W        W 4751   4.037  23.032  13.381
36534W        W 4752  16.071  38.939   3.628
36535W        W 4753  32.564  11.104   2.716
36536W        W 4754  41.259   6.336   0.026
36537W        W 4755  10.523  16.113   5.565
36538W        W 4756  13.742  32.917  13.314
36539W        W 4757  13.270  37.868   3.176
36540W        W 4758   7.286  18.622   4.262
36541W        W 4759   7.951  33.822   3.281
36542W        W 4760   0.848   0.277  12.148
36543W        W 4761  44.281  33.305   3.049
36544W        W 4762  23.996  43.242  14.479
36545W        W 4763  14.875   3.539   5.086
36546W        W 4764   2.341  21.382   4.828
36547W        W 4765  27.014  29.136  12.052
36548W        W 4766  11.861   9.607   3.635
36549W        W 4767  31.462  19.319   4.612
36550W        W 4768  28.436  26.958   0.904
36551W        W 4769   3.066  12.744  10.297
36552W        W 4770  41.286  26.721   2.397
36553W        W 4771  12.853  35.558   4.750
36554W        W 4772  25.213  35.589   3.720
36555W        W 4773  38.467  28.733  12.575
36556W        W 4774  16.075  22.542   3.157
36557W        W 4775   5.665   7.282   4.509
36558W        W 4776  44.496  29.184  12.549
36559W        W 4777  24.954  21.434   1.833
36560W        W 4778  35.772  14.670   4.208
36561W        W 4779  23.738  31.412   0.943
36562W        W 4780  30.097  27.144  14.314
36563W        W 4781   8.871   1.890   4.884
36564W        W 4782   1.269  27.866  11.931
36565W        W 4783  33.587   5.215  11.394
36566W        W 4784  38.935   8.093   4.506
36567W        W 4785  27.998  29.431  11.969
36568W        W 4786   2.305  40.098   0.838
36569W        W 4787  34.975   2.711   2.759
36570W        W 4788   9.737  17.588  14.059
36571W        W 4789  12.599  37.870  12.137
36572W        W 4790  27.941  13.603   4.266
36573W        W 4791  18.026  41.553   3.607
36574W        W 4792  13.334  14.637   3.703
36575W        W 4793   1.777  34.431  12.457
36576W        W 4794  15.801  41.917  12.635
36577W        W 4795  41.394  38.123   0.801
36578W        W 4796  23.777  29.407   3.281
36579W        W 4797   9.961  43.380  10.057
36580W        W 4798  25.838  14.802  10.731
36581W        W 4799   2.135  25.398  12.566
36582W        W 4800  37.384   0.923   2.879
36583W        W 4801  23.223  32.985   3.703
36584W        W 4802  27.009  16.827  13.715
36585W        W 4803  44.985  25.438  14.223
36586W        W 4804  11.645  33.068   3.629
36587W        W 4805  13.615  14.857   1.816
36588W        W 4806  10.799  16.402  14.637
36589W        W 4807   2.829  13.047  13.420
36590W        W 4808  19.131  13.142  13.116
36591W        W 4809  33.851  43.632   0.264
36592W        W 4810  41.864   3.424  12.763
36593W        W 4811  15.090  10.359  14.251
36594W        W 4812  27.112  43.947  10.650
36595W        W 4813  31.256  40.924   1.436
36596W        W 4814   3.899  19.635   1.276
36597W        W 4815   2.882  23.202  14.356
36598W        W 4816   6.221   3.627   0.843
36599W        W 4817  10.842  36.507   0.795
36600W        W 4818  19.465   1.397   3.633
36601W        W 4819  38.563   2.692  13.024
36602W        W 4820   9.650  11.131  14.372
36603W        W 4821  20.928  17.533  11.449
36604W        W 4822   1.114  41.949  14.755
36605W        W 4823  21.146  15.775   0.786
36606W        W 4824  43.106  11.538  13.914
36607W        W 4825  14.617   8.344   0.794
36608W        W 4826  16.083   7.360   2.928
36609W        W 4827   5.806   2.270   0.764
36610W        W 4828  32.094  23.054  11.184
36611W        W 4829  19.866   7.273   3.693
36612W        W 4830   5.479  44.160  12.456
36613W        W 4831  23.133   8.747  14.534
36614W        W 4832   7.891  30.890  11.685
36615W        W 4833  10.177   6.530  13.855
36616W        W 4834  30.968  12.798   0.859
36617W        W 4835  35.166  16.072  12.838
36618W        W 4836  42.397  19.816   3.744
36619W        W 4837  37.561  27.226   3.836
36620W        W 4838   3.070  23.166   1.876
36621W        W 4839   1.639  29.036   1.498
36622W        W 4840  19.713  24.187   3.557
36623W        W 4841  30.093  40.849  12.501
36624W        W 4842  35.472   8.789  13.347
36625W        W 4843  29.619   0.343   1.847
36626W        W 4844  35.780  32.061  10.947
36627W        W 4845  22.544  41.997   0.271
36628W        W 4846  28.533   4.934   4.426
36629W        W 4847  31.380   0.934  13.957
36630W        W 4848   5.905  17.018   2.249
36631W        W 4849   7.801  15.240   4.115
36632W        W 4850  13.757  41.945   5.098
36633W        W 4851  27.410  29.019   4.465
36634W        W 4852  35.949  12.762   1.967
36635W        W 4853   3.475   2.213   4.366
36636W        W 4854  12.735  20.768   3.662
36637W        W 4855  27.592  43.716  12.520
36638W        W 4856   7.928  18.480  14.244
36639W        W 4857  22.009  23.349   4.119
36640W        W 4858  23.240  30.649  13.151
36641W        W 4859  24.701  21.004  14.768
36642W        W 4860  19.978  27.518  14.928
36643W        W 4861  23.908  37.155  12.614
36644W        W 4862   7.165  16.314   0.219
36645W        W 4863  28.724  37.615  12.932
36646W        W 4864  44.101   1.082   4.998
36647W        W 4865  41.082   4.903   0.747
36648W        W 4866  22.959  23.718  12.909
36649W        W 4867  18.282  22.643   3.259
36650W        W 4868  32.156  39.188  11.195
36651W        W 4869  42.385  21.555  14.421
36652W        W 4870  40.308  38.511  13.086
36653W        W 4871  17.136  25.796  11.524
36654W        W 4872  41.970  11.722  13.146
36655W        W 4873  32.670   2.769   4.044
36656W        W 4874   4.004  25.999   3.042
36657W        W 4875  22.154  39.880   4.904
36658W        W 4876  13.280  35.888   0.204
36659W        W 4877   7.752  43.657  14.194
36660W        W 4878  42.839  20.848  14.507
36661W        W 4879  25.546  35.307  14.929
36662W        W 4880  34.806  37.441  13.885
36663W        W 4881  38.746  14.638  10.499
36664W        W 4882  37.462  34.153   4.270
36665W        W 4883  27.966  12.119  10.497
36666W        W 4884  42.208  20.070  11.298
36667W        W 4885   2.504  11.777  12.698
36668W        W 4886  12.112  21.656   3.536
36669W        W 4887   3.847  24.067   4.380
36670W        W 4888  13.627   5.285  12.981
36671W        W 4889  40.851  22.250  12.378
36672W        W 4890  43.918  26.000   4.238
36673W        W 4891   9.826   0.817  12.063
36674W        W 4892  36.176  11.232  11.114
36675W        W 4893  11.433  22.181   3.960
36676W        W 4894  30.150  33.131  12.280
36677W        W 4895  25.735  44.315  11.040
36678W        W 4896  25.410  16.033   0.606
36679W        W 4897   7.200  23.744   2.201
36680W        W 4898  37.239  30.396   4.090
36681W        W 4899  18.194  40.986  11.454
36682W        W 4900  14.801  19.179   0.262
36683W        W 4901  34.502  35.209  12.466
36684W        W 4902  39.405  25.902   4.625
36685W        W 4903  25.224  27.767   4.400
36686W        W 4904  39.003  13.578  14.794
36687W        W 4905  37.344  32.202   2.777
36688W        W 4906  20.022  21.503   2.825
36689W        W 4907   7.689  22.353   5.112
36690W        W 4908  16.753  31.687   1.341
36691W        W 4909  15.516  13.655   5.650
36692W        W 4910  13.330  35.009  13.494
36693W        W 4911  44.503   9.687   2.222
36694W        W 4912  14.844  16.652  10.850
36695W        W 4913  25.003  35.695  10.882
36696W        W 4914  17.299  32.856   1.713
36697W        W 4915  41.897   2.751  14.924
36698W        W 4916   1.415  12.123  12.890
36699W        W 4917  31.115   6.235  10.188
36700W        W 4918  36.633  30.519  13.340
36701W        W 4919  36.935   4.756   2.637
36702W        W 4920   2.085   5.807   1.589
36703W        W 4921  34.357  35.055  13.451
36704W        W 4922   3.898   9.183   2.414
36705W        W 4923  17.284  11.774  13.032
36706W        W 4924  26.816  14.151   0.888
36707W        W 4925  19.629   9.202   2.157
36708W        W 4926  18.619  11.361  12.895
36709W        W 4927  12.111  34.369  10.725
36710W        W 4928  41.470   6.721  11.617
36711W        W 4929  33.737  38.434   4.107
36712W        W 4930  12.842   6.216   2.972
36713W        W 4931  17.283  37.060   3.145
36714W        W 4932   7.584  38.969   3.318
36715W        W 4933  21.508  23.470   4.157
36716W        W 4934  36.663  32.864   2.234
36717W        W 4935  41.097  19.015   1.904
36718W        W 4936  40.953  27.823  13.919
36719W        W 4937   8.372  32.294  13.046
36720W        W 4938  12.620  39.319  14.345
36721W        W 4939   4.842  18.162   0.315
36722W        W 4940   2.328  30.641  11.497
36723W        W 4941  42.448  12.771  11.970
36724W        W 4942  28.108   2.507  12.028
36725W        W 4943   9.665  12.869  14.901
36726W        W 4944  24.391  35.950   2.355
36727W        W 4945  19.775  43.474  11.681
36728W        W 4946   1.355  25.812   0.459
36729W        W 4947  36.932  13.190  10.668
36730W        W 4948  20.772  44.857  11.548
36731W        W 4949  36.816  28.650   1.484
36732W        W 4950  41.550   2.043  12.438
36733W        W 4951  28.087  44.962  13.913
36734W        W 4952  18.102  25.480  13.999
36735W        W 4953  34.319  32.658   2.248
36736W        W 4954  42.878  42.902   3.186
36737W        W 4955  15.712   3.247  13.398
36738W        W 4956  38.580  23.082   4.969
36739W        W 4957  33.140  28.359  12.992
36740W        W 4958  10.310  13.318   3.557
36741W        W 4959  30.430  31.147  11.456
36742W        W 4960  10.721  15.790   2.268
36743W        W 4961  23.205  24.179  12.947
36744W        W 4962  41.787   8.459   1.755
36745W        W 4963  10.514  17.179  14.207
36746W        W 4964   0.741   2.742   0.482
36747W        W 4965  43.799  20.839  12.858
36748W        W 4966  38.463  44.895  14.212
36749W        W 4967  33.718  39.987   4.450
36750W        W 4968  22.244   3.951  13.383
36751W        W 4969   8.966  29.608  13.729
36752W        W 4970  32.147   9.846  10.979
36753W        W 4971  32.206  32.364  12.515
36754W        W 4972  13.288  33.566  11.021
36755W        W 4973   9.406   4.306  14.022
36756W        W 4974  18.373   8.738   5.039
36757W        W 4975   3.709  38.761  14.006
36758W        W 4976  31.636  21.175   0.815
36759W        W 4977  11.578   1.318   4.750
36760W        W 4978  26.628  32.473   1.781
36761W        W 4979   0.351   3.651  12.533
36762W        W 4980  14.122  10.663   2.275
36763W        W 4981  36.065   1.792   0.995
36764W        W 4982   1.743   7.517  11.986
36765W        W 4983   1.306  38.016   3.534
36766W        W 4984   6.695   1.117   4.433
36767W        W 4985  22.171  19.802   0.213
36768W        W 4986  10.657   6.854   2.359
36769W        W 4987  41.800  23.011  12.039
36770W        W 4988   7.338  40.457  13.300
36771W        W 4989  38.555  44.376   2.838
36772W        W 4990   7.244  42.483  13.364
36773W        W 4991  32.251  21.428  11.076
36774W        W 4992  20.659  37.153  10.688
36775W        W 4993  41.421  39.473  12.819
36776W        W 4994   5.832  32.825   3.673
36777W        W 4995  17.079   3.215   2.358
36778W        W 4996  36.961   1.761  11.233
36779W        W 4997  17.198  14.131   2.625
36780W        W 4998   5.543  15.232   4.183
36781W        W 4999  17.913  22.302   4.577
36782W        W 5000  29.796  27.707  12.359
36783W        W 5001  30.142  34.410  14.020
36784W        W 5002  17.532  37.868   1.740
36785W        W 5003  27.381  21.193   4.089
36786W        W 5004  12.190  19.572  10.616
36787W        W 5005  20.298  41.822   4.350
36788W        W 5006  40.276   7.428  12.043
36789W        W 5007  36.182  18.798  12.828
36790W        W 5008  37.961  11.225  12.494
36791W        W 5009  34.188  12.014  11.123
36792W        W 5010   3.219  36.741   4.777
36793W        W 5011  14.657   3.396  13.463
36794W        W 5012  12.482  13.641   0.816
36795W        W 5013  36.759  15.773   2.895
36796W        W 5014  44.536   2.152  12.964
36797W        W 5015  16.368   5.010  12.408
36798W        W 5016  20.849  16.667  11.439
36799W        W 5017  24.558  21.028   4.055
36800W        W 5018  29.017  30.680  12.423
36801W        W 5019  41.103  35.610   2.299
36802W        W 5020  16.640  42.879   2.111
36803W        W 5021  15.729  17.145  14.312
36804W        W 5022  12.163  26.620   3.853
36805W        W 5023  34.383   3.586   1.447
36806W        W 5024  30.532  44.363  12.708
36807W        W 5025   6.418   5.210  12.485
36808W        W 5026  17.249   7.960   3.083
36809W        W 5027   1.368   1.079   4.691
36810W        W 5028  42.296  32.100  12.105
36811W        W 5029  42.975   7.796  13.672
36812W        W 5030  39.332  21.439   1.909
36813W        W 5031  13.673  28.724  13.080
36814W        W 5032  43.370   1.917   5.199
36815W        W 5033  19.953  43.022  12.015
36816W        W 5034  12.247  36.948  11.895
36817W        W 5035  21.248  42.436   3.075
36818W        W 5036  39.106  30.059   2.954
36819W        W 5037  25.402  33.099  10.358
36820W        W 5038  21.579  28.919   4.208
36821W        W 5039  22.537   7.000   0.007
36822W        W 5040   6.225  39.072   2.864
36823W        W 5041  17.441  11.436   1.796
36824W        W 5042  42.825  34.867  12.860
36825W        W 5043  25.173  40.905   0.441
36826W        W 5044  43.856  40.011  10.489
36827W        W 5045  19.890  15.471   5.069
36828W        W 5046  29.511  20.303   2.106
36829W        W 5047  42.376  22.179   2.882
36830W        W 5048   0.396  34.538  12.574
36831W        W 5049  10.165  34.097   3.520
36832W        W 5050  22.289  32.244   3.036
36833W        W 5051  38.996  24.534   0.677
36834W        W 5052  31.913  18.547  13.061
36835W        W 5053   8.118  26.961  14.542
36836W        W 5054  22.857  28.631  12.586
36837W        W 5055  21.255  30.905   1.485
36838W        W 5056  15.537  27.883   2.748
36839W        W 5057  12.641  32.614   1.136
36840W        W 5058  22.456  37.830   9.885
36841W        W 5059  20.508   0.908   4.136
36842W        W 5060  32.036  11.945   1.390
36843W        W 5061  18.048  34.727   1.399
36844W        W 5062   4.040  42.973  14.270
36845W        W 5063  43.559  37.816   0.346
36846W        W 5064   5.401  34.099  11.010
36847W        W 5065  16.585  39.084  14.908
36848W        W 5066  31.886   7.384   2.658
36849W        W 5067  27.746   6.379   3.183
36850W        W 5068  10.989   5.852  13.424
36851W        W 5069  39.755   7.270  14.237
36852W        W 5070  35.342  10.883  10.697
36853W        W 5071  24.069  17.684   0.918
36854W        W 5072  15.787   8.725   0.315
36855W        W 5073  35.320  38.205  14.304
36856W        W 5074  29.671  42.321   3.165
36857W        W 5075  41.492  36.928  11.570
36858W        W 5076   9.730  39.388   2.721
36859W        W 5077  25.499  21.492   1.991
36860W        W 5078  20.599  35.681   0.885
36861W        W 5079  36.319  30.156   4.611
36862W        W 5080  12.386  41.607  14.520
36863W        W 5081  32.474  26.746   4.061
36864W        W 5082  40.591  38.462  12.345
36865W        W 5083  31.756  44.847  10.649
36866W        W 5084   6.252  44.640  13.929
36867W        W 5085  21.622   2.211   0.960
36868W        W 5086  28.193  42.945   2.294
36869W        W 5087  12.339  40.302   4.121
36870W        W 5088  17.212  43.773   3.223
36871W        W 5089  34.396  25.476   2.753
36872W        W 5090  10.236  18.591   0.404
36873W        W 5091   9.605  43.400   2.726
36874W        W 5092   1.173  16.678   3.243
36875W        W 5093  15.240  12.235   1.628
36876W        W 5094  36.252  42.779   4.193
36877W        W 5095  26.887   7.363  13.293
36878W        W 5096  16.303  19.692   0.751
36879W        W 5097  41.560   6.729   1.267
36880W        W 5098   1.863  22.039   1.225
36881W        W 5099  12.782   6.390   1.402
36882W        W 5100  14.746  27.959  13.824
36883W        W 5101  29.156  20.520  11.161
36884W        W 5102   6.244   9.054   4.095
36885W        W 5103  15.070  21.058  14.332
36886W        W 5104  16.302  21.210   1.374
36887W        W 5105   6.396  31.961  11.704
36888W        W 5106  26.663  27.583  13.856
36889W        W 5107  26.467  27.213  10.419
36890W        W 5108  37.044  34.299   4.919
36891W        W 5109  11.725  33.968  14.254
36892W        W 5110  19.384  19.848  14.962
36893W        W 5111  10.928  20.970  14.383
36894W        W 5112  22.129   0.759   2.335
36895W        W 5113  16.686  37.088   4.154
36896W        W 5114  28.061   9.779  11.513
36897W        W 5115  42.355  20.185   2.846
36898W        W 5116  23.215  25.998  11.971
36899W        W 5117  12.529   3.448   1.822
36900W        W 5118  36.196  38.426   3.701
36901W        W 5119  38.346  43.903   2.860
36902W        W 5120   5.243  11.368  11.462
36903W        W 5121  13.567   5.862   4.580
36904W        W 5122  39.442  27.504   0.901
36905W        W 5123  28.496  14.415   5.339
36906W        W 5124  33.999  14.663  13.804
36907W        W 5125  31.458  12.160   1.937
36908W        W 5126  34.364   3.793  12.075
36909W        W 5127  27.385   3.395   2.317
36910W        W 5128   4.378   4.624  10.767
36911W        W 5129  39.061  39.412  13.574
36912W        W 5130  27.692  22.727   1.690
36913W        W 5131  34.064  22.543  10.382
36914W        W 5132  43.920  30.919   3.820
36915W        W 5133  32.504  35.167   4.103
36916W        W 5134  38.639  14.092   2.552
36917W        W 5135  34.950   4.116  13.273
36918W        W 5136   9.360   8.858   4.605
36919W        W 5137  37.122  25.870  11.180
36920W        W 5138   8.180   0.336   1.879
36921W        W 5139  24.052  37.967   1.150
36922W        W 5140   2.394  26.379  12.405
36923W        W 5141  24.457  10.546   0.912
36924W        W 5142  25.026   2.866   4.000
36925W        W 5143  32.102  27.028   0.877
36926W        W 5144  38.307  36.951   0.238
36927W        W 5145  12.656  34.131  10.666
36928W        W 5146  37.295  11.750  14.470
36929W        W 5147  31.458  28.647   1.276
36930W        W 5148  11.717  36.466  10.640
36931W        W 5149   6.628  40.479   0.783
36932W        W 5150  34.197  33.122   2.538
36933W        W 5151  32.611  21.122  14.318
36934W        W 5152   4.095  23.636   3.271
36935W        W 5153  11.506   4.863  13.840
36936W        W 5154   7.819  21.474  13.035
36937W        W 5155  19.583  12.935  14.282
36938W        W 5156  36.251  42.023   3.659
36939W        W 5157  30.443   2.574   2.119
36940W        W 5158  31.417   2.349  14.244
36941W        W 5159  18.089  23.032   1.392
36942W        W 5160  29.645  39.486   1.929
36943W        W 5161  27.060  20.817  13.822
36944W        W 5162  28.476  44.899  12.395
36945W        W 5163   1.770  29.402  12.345
36946W        W 5164  22.185  17.254   0.947
36947W        W 5165   4.920  35.783  12.994
36948W        W 5166  14.038  40.909   0.982
36949W        W 5167  29.554  16.397   3.081
36950W        W 5168   0.477   1.223   3.133
36951W        W 5169  43.906  40.336  11.858
36952W        W 5170  31.147  36.344  14.357
36953W        W 5171  27.621  13.509   4.684
36954W        W 5172  38.110  36.996   0.726
36955W        W 5173  41.428  37.503   4.335
36956W        W 5174  39.482  11.720   0.399
36957W        W 5175  33.818   3.749  14.825
36958W        W 5176  16.326   3.684   0.284
36959W        W 5177  21.043   6.719  11.117
36960W        W 5178  20.679  20.434  14.478
36961W        W 5179  33.624   1.422   2.323
36962W        W 5180  19.198   5.723  13.951
36963W        W 5181  38.300   3.803   1.803
36964W        W 5182  12.789  28.697  12.921
36965W        W 5183   0.761   0.994   3.567
36966W        W 5184  11.460  28.446   4.631
36967W        W 5185   3.125  39.050  12.852
36968W        W 5186  10.224  44.358   1.467
36969W        W 5187  16.653  15.612  14.740
36970W        W 5188   5.241  29.480   3.792
36971W        W 5189  22.554   6.443  14.869
36972W        W 5190  21.488  20.639  12.381
36973W        W 5191  25.971   6.768   2.713
36974W        W 5192   0.207  34.351  11.626
36975W        W 5193  24.027   4.913   5.259
36976W        W 5194  39.099   5.956  14.409
36977W        W 5195  34.795  20.652   1.823
36978W        W 5196  39.582  20.129  13.733
36979W        W 5197  15.804  22.091   2.932
36980W        W 5198  42.716  14.705   2.927
36981W        W 5199  28.986  15.340   3.668
36982W        W 5200   2.172  24.020   2.856
36983W        W 5201  11.726  23.650  13.125
36984W        W 5202  11.610   5.855   3.245
36985W        W 5203  35.573  11.140   4.526
36986W        W 5204  17.426  22.711  12.062
36987W        W 5205  40.231  19.731   0.509
36988W        W 5206  16.087  29.206   2.358
36989W        W 5207   4.305  18.310   1.324
36990W        W 5208  33.563  41.914  12.063
36991W        W 5209  38.053   3.005   3.224
36992W        W 5210  35.870   7.763   4.883
36993W        W 5211  42.494   9.957   1.344
36994W        W 5212  28.690   2.988  12.983
36995W        W 5213  44.792  36.333  13.502
36996W        W 5214  21.093   6.805   0.975
36997W        W 5215  20.279  42.495   0.357
36998W        W 5216  24.262  42.363   3.027
36999W        W 5217   1.456  20.052   0.767
37000W        W 5218  30.028  19.702  13.499
37001W        W 5219  32.872   8.935  12.072
37002W        W 5220   7.152  25.045  10.646
37003W        W 5221  44.406  24.442  13.479
37004W        W 5222   2.353  17.467  11.631
37005W        W 5223  30.607  23.865  13.401
37006W        W 5224  43.436  15.325   3.131
37007W        W 5225  20.756  35.079   1.804
37008W        W 5226  42.240  28.180   2.887
37009W        W 5227   3.467   4.157  11.119
37010W        W 5228  35.379  15.598   2.572
37011W        W 5229   6.824  36.246  11.160
37012W        W 5230   7.270  22.498   2.711
37013W        W 5231   7.932  16.970   2.237
37014W        W 5232  27.470   2.482   2.347
37015W        W 5233  24.019  25.526  12.560
37016W        W 5234  34.877  17.909   3.277
37017W        W 5235  20.295  31.388  13.440
37018W        W 5236  32.696  10.371   3.297
37019W        W 5237  15.357  37.118   3.272
37020W        W 5238  23.204  32.580  14.759
37021W        W 5239  11.683   3.818   4.418
37022W        W 5240  17.335  39.399   2.396
37023W        W 5241   4.831  31.620   4.156
37024W        W 5242   7.769   9.066   3.246
37025W        W 5243   0.517  38.472  10.757
37026W        W 5244  28.979  37.922  11.627
37027W        W 5245  41.112  23.774  12.216
37028W        W 5246   8.612  43.556   2.597
37029W        W 5247  40.872  10.670   0.911
37030W        W 5248  30.613  39.807   3.634
37031W        W 5249   5.612   9.662  14.042
37032W        W 5250  39.279  30.187  11.177
37033W        W 5251  29.587  11.103  10.806
37034W        W 5252  38.751  41.216  14.330
37035W        W 5253  44.319  28.044   2.652
37036W        W 5254   4.042   0.020  10.421
37037W        W 5255   1.276  23.874   1.414
37038W        W 5256  10.256   4.624  14.963
37039W        W 5257  39.070   5.279   1.287
37040W        W 5258  24.231  21.243  14.804
37041W        W 5259   0.833  23.621   1.268
37042W        W 5260  35.894  24.732  13.141
37043W        W 5261   9.330  39.080   2.628
37044W        W 5262  26.955  27.545  11.508
37045W        W 5263   9.199   7.357   1.898
37046W        W 5264  30.852  23.015   1.814
37047W        W 5265  37.932  40.047  14.930
37048W        W 5266   9.242  24.302   2.587
37049W        W 5267   6.969  20.677  12.067
37050W        W 5268  26.697  34.071  13.460
37051W        W 5269  20.638  26.817  12.862
37052W        W 5270   4.904   5.385  11.636
37053W        W 5271  17.944  30.434  14.935
37054W        W 5272   6.122  38.753  11.350
37055W        W 5273  34.656  35.295   3.019
37056W        W 5274   3.118  19.983   2.769
37057W        W 5275  25.063  13.570  10.656
37058W        W 5276  14.745  12.734  12.042
37059W        W 5277  25.077  26.624   3.244
37060W        W 5278  40.583  26.383   2.796
37061W        W 5279  43.092  13.134   4.795
37062W        W 5280  30.935   7.750   1.824
37063W        W 5281  22.046  23.741   3.192
37064W        W 5282  22.695  11.312   4.235
37065W        W 5283  25.698   9.802  13.783
37066W        W 5284  34.926  26.092  13.374
37067W        W 5285   5.216  16.162   4.419
37068W        W 5286  34.656  12.644  14.948
37069W        W 5287  31.120  35.927   5.054
37070W        W 5288  41.139  23.624   1.168
37071W        W 5289  10.606  10.525   0.708
37072W        W 5290   2.762  25.508  11.181
37073W        W 5291  36.164  32.984   3.883
37074W        W 5292  25.180  44.170  12.237
37075W        W 5293  29.568  20.797  11.255
37076W        W 5294   6.827  39.753   5.578
37077W        W 5295  11.162  22.553   4.809
37078W        W 5296  42.115  30.884  14.853
37079W        W 5297   7.765  34.577   1.689
37080W        W 5298  28.403  38.526   3.290
37081W        W 5299  27.705   4.912  11.890
37082W        W 5300  10.331  19.517   2.269
37083W        W 5301  43.640   0.295   4.223
37084W        W 5302  15.309  25.063   4.523
37085W        W 5303  44.822  10.294   3.247
37086W        W 5304  20.148  14.812  10.151
37087W        W 5305  30.619  22.487   3.971
37088W        W 5306   5.771  18.838   4.270
37089W        W 5307  41.142  13.428  10.722
37090W        W 5308  13.763  10.840  11.527
37091W        W 5309   3.631  38.976   2.281
37092W        W 5310  42.724  16.793   0.635
37093W        W 5311  15.747  34.353   2.728
37094W        W 5312  28.675  19.058  10.481
37095W        W 5313  36.989  25.112   2.743
37096W        W 5314  15.226  38.319   1.519
37097W        W 5315  27.979  42.485  14.692
37098W        W 5316  32.849  28.143   2.396
37099W        W 5317  44.071  17.272   2.646
37100W        W 5318  28.644   6.226   3.086
37101W        W 5319  10.759   0.142   2.458
37102W        W 5320  15.689  22.988  12.659
37103W        W 5321  18.647  31.109  12.967
37104W        W 5322  35.539  17.600  14.554
37105W        W 5323  31.410  22.183  12.955
37106W        W 5324  24.035  25.095   1.824
37107W        W 5325  22.691  16.568  13.439
37108W        W 5326   9.282   7.180   9.866
37109W        W 5327   5.238   8.510  12.835
37110W        W 5328  30.219  31.428  11.024
37111W        W 5329   3.873  34.624   0.481
37112W        W 5330  13.061  16.785   0.041
37113W        W 5331  16.559  24.704  12.022
37114W        W 5332  42.089  44.783  14.418
37115W        W 5333  38.356  14.789  11.394
37116W        W 5334   7.327  22.261  11.438
37117W        W 5335  39.351  25.607  14.397
37118W        W 5336   4.129  20.998   1.401
37119W        W 5337  16.112  24.736  14.843
37120W        W 5338   9.379  16.174   4.043
37121W        W 5339  22.571  22.997   0.434
37122W        W 5340  36.029  27.967  13.685
37123W        W 5341  13.753  34.700   1.405
37124W        W 5342  44.958  17.861  12.117
37125W        W 5343  30.367  44.508  13.622
37126W        W 5344  28.288  31.818   1.332
37127W        W 5345  23.684  12.064  12.293
37128W        W 5346  29.988  10.399  10.530
37129W        W 5347  29.959  28.122  12.057
37130W        W 5348  40.937  22.525   0.951
37131W        W 5349  31.183  26.066  12.446
37132W        W 5350  36.357  12.185   0.020
37133W        W 5351   4.452  14.731  11.101
37134W        W 5352  36.127   2.367   1.668
37135W        W 5353   7.655  36.926   3.822
37136W        W 5354   3.832   2.029  12.776
37137W        W 5355  42.539  14.691   4.508
37138W        W 5356  27.202  38.352   4.227
37139W        W 5357  19.115   7.438  12.859
37140W        W 5358  35.614  21.286  12.529
37141W        W 5359  15.606  23.005  13.495
37142W        W 5360  34.841  11.343   3.181
37143W        W 5361   4.743  28.384   4.452
37144W        W 5362   9.877  13.368  10.804
37145W        W 5363  26.519  32.571   3.297
37146W        W 5364  14.234  34.095  13.396
37147W        W 5365  16.539   6.266   4.120
37148W        W 5366  17.181   5.036   9.911
37149W        W 5367  31.071  29.131  14.536
37150W        W 5368  33.568  33.562   0.722
37151W        W 5369  29.592  22.708   3.609
37152W        W 5370   2.349  44.972   2.119
37153W        W 5371  17.870  29.620  11.944
37154W        W 5372   2.059  12.678   1.801
37155W        W 5373   2.367  41.418  12.494
37156W        W 5374  26.581  18.115   2.185
37157W        W 5375  42.962  44.266   5.188
37158W        W 5376  12.478  13.590   3.062
37159W        W 5377  20.386   7.213   3.653
37160W        W 5378   1.925  43.547   2.802
37161W        W 5379  24.669  43.473  12.894
37162W        W 5380  15.113  39.411  11.907
37163W        W 5381  16.100  22.629   4.206
37164W        W 5382  42.011  34.098  12.875
37165W        W 5383  40.989   7.822   0.320
37166W        W 5384  19.155  29.523  13.570
37167W        W 5385  32.167  27.169   3.272
37168W        W 5386  20.701  24.673  12.321
37169W        W 5387   0.327  32.335   1.881
37170W        W 5388  29.158  26.926   3.324
37171W        W 5389   8.341   2.888  11.103
37172W        W 5390  12.046  43.038   0.792
37173W        W 5391  43.011   7.142   4.285
37174W        W 5392   8.987   4.598   1.901
37175W        W 5393  24.429  19.097   3.654
37176W        W 5394  17.860  14.070   0.778
37177W        W 5395   0.092  44.518  12.163
37178W        W 5396  22.181  10.381  13.350
37179W        W 5397  27.052  26.982  14.916
37180W        W 5398  12.208  16.599   2.640
37181W        W 5399   7.414  23.301  13.390
37182W        W 5400  13.681  25.478  13.365
37183W        W 5401  23.197   3.664   3.722
37184W        W 5402  10.058   5.912  11.973
37185W        W 5403  27.470   2.448   0.504
37186W        W 5404  11.051  43.954  10.703
37187W        W 5405  36.852  33.648  13.901
37188W        W 5406  10.127   5.853  14.818
37189W        W 5407  37.627  36.949  12.109
37190W        W 5408  25.696  14.073   2.190
37191W        W 5409  14.593  15.041   2.281
37192W        W 5410  19.001   0.909   0.201
37193W        W 5411  22.309   2.345  11.165
37194W        W 5412   4.829  10.142  14.108
37195W        W 5413   1.224  25.740   2.712
37196W        W 5414   6.901  17.424   0.025
37197W        W 5415  10.925  18.221  10.654
37198W        W 5416  14.151  41.967   3.273
37199W        W 5417  14.752  21.694   2.596
37200W        W 5418   9.570   0.416   1.698
37201W        W 5419   5.418  37.494  13.978
37202W        W 5420  22.184  38.880   4.284
37203W        W 5421  41.247   0.244  14.020
37204W        W 5422  41.201   5.256  12.657
37205W        W 5423  19.017   8.783  10.920
37206W        W 5424  11.641  19.072  13.096
37207W        W 5425   5.421  44.029   4.795
37208W        W 5426  30.213  16.451  14.921
37209W        W 5427  14.576  18.242  13.396
37210W        W 5428   4.688  40.951  10.508
37211W        W 5429   5.679  37.969  14.074
37212W        W 5430  35.484  30.597  14.909
37213W        W 5431  31.165  33.636  14.988
37214W        W 5432  41.378  14.055   2.401
37215W        W 5433   6.688   7.946  11.114
37216W        W 5434  27.130  39.985   3.624
37217W        W 5435  10.865  19.525   4.047
37218W        W 5436  33.946  28.962   1.980
37219W        W 5437   4.833  31.619  14.222
37220W        W 5438  17.324  17.756   0.758
37221W        W 5439  12.802  15.202  11.519
37222W        W 5440   4.184  32.817   0.345
37223W        W 5441  42.013  24.961   1.379
37224W        W 5442  20.152  32.680  13.762
37225W        W 5443  27.482  38.285   0.288
37226W        W 5444  17.262  43.288  11.521
37227W        W 5445  40.241  17.026   4.403
37228W        W 5446  37.327   2.889  11.968
37229W        W 5447  32.009   1.008  14.414
37230W        W 5448  37.909  22.082  10.706
37231W        W 5449  28.370  26.988  11.138
37232W        W 5450   4.826  41.525   1.771
37233W        W 5451  30.443  28.559   9.894
37234W        W 5452  27.967  18.508  14.308
37235W        W 5453  37.848  24.140  12.925
37236W        W 5454  29.621  40.914  10.848
37237W        W 5455  44.781   4.984   2.835
37238W        W 5456  27.795  13.206  10.026
37239W        W 5457  44.276  30.014   0.455
37240W        W 5458  29.159  24.031  14.630
37241W        W 5459   3.376  16.553  13.465
37242W        W 5460  29.073  16.800   2.734
37243W        W 5461  42.959  27.717   4.974
37244W        W 5462   7.886   0.445  14.920
37245W        W 5463  16.225  13.609  14.377
37246W        W 5464  21.114  20.236  10.646
37247W        W 5465  20.987   2.519  13.468
37248W        W 5466   8.318  17.272  14.066
37249W        W 5467  35.325   3.155  11.412
37250W        W 5468  19.640  26.721  12.967
37251W        W 5469  13.141   5.461  13.362
37252W        W 5470  18.389   6.676  12.092
37253W        W 5471  10.001  39.357  12.303
37254W        W 5472  17.634  12.793  11.212
37255W        W 5473  33.008   9.742  12.696
37256W        W 5474  31.840  18.130  13.589
37257W        W 5475  27.644  12.833  12.005
37258W        W 5476  13.268  14.272  12.060
37259W        W 5477   3.997   3.515   1.213
37260W        W 5478  25.220  18.771  11.470
37261W        W 5479   9.203  34.304   0.990
37262W        W 5480   6.993  19.116  11.029
37263W        W 5481   7.299  12.800  11.179
37264W        W 5482  11.391   6.683   2.677
37265W        W 5483  42.111  13.696  13.852
37266W        W 5484   2.375  21.136  10.772
37267W        W 5485  42.751  22.271  12.597
37268W        W 5486   7.263  26.668  10.976
37269W        W 5487  24.113  18.081   1.448
37270W        W 5488  35.462  26.001  13.339
37271W        W 5489  24.423   1.387   4.502
37272W        W 5490   4.454   2.875  11.383
37273W        W 5491  23.561  16.273   3.765
37274W        W 5492  18.814   5.405   4.974
37275W        W 5493  35.348  32.026  13.211
37276W        W 5494  31.669  18.507   3.711
37277W        W 5495  43.761   1.768   3.379
37278W        W 5496  23.594   2.313  10.735
37279W        W 5497  26.187  31.959   1.705
37280W        W 5498  26.461   8.283  14.867
37281W        W 5499   1.644  18.672   4.356
37282W        W 5500  25.814  16.890   4.590
37283W        W 5501   5.311   8.369  10.429
37284W        W 5502  31.973  28.104  12.055
37285W        W 5503  39.580  31.956  10.756
37286W        W 5504  32.622   7.366   3.173
37287W        W 5505  35.523  38.059  12.517
37288W        W 5506  29.973  21.579  14.188
37289W        W 5507  38.238   0.187   5.043
37290W        W 5508  24.775  26.929   2.928
37291W        W 5509  36.148  20.547   0.488
37292W        W 5510  44.036  23.569  10.431
37293W        W 5511  39.866   0.459   0.870
37294W        W 5512  17.824  43.086  14.399
37295W        W 5513   2.463  10.352   3.294
37296W        W 5514  38.366  17.260   1.208
37297W        W 5515  31.422  21.644   4.344
37298W        W 5516  12.368  40.645  11.411
37299W        W 5517   6.431  10.882  13.730
37300W        W 5518  38.857  38.368  10.999
37301W        W 5519  13.175  22.164  14.517
37302W        W 5520   6.918  39.534   0.898
37303W        W 5521  27.684  18.154   4.217
37304W        W 5522  17.676   0.754  14.691
37305W        W 5523   0.698  30.563   0.855
37306W        W 5524  14.230   1.329   4.738
37307W        W 5525  42.094  30.465   0.479
37308W        W 5526  31.638  21.765  12.720
37309W        W 5527  18.204  14.760   4.693
37310W        W 5528  24.023   0.774   0.807
37311W        W 5529  35.410  31.913  14.309
37312W        W 5530  11.784  30.493  10.700
37313W        W 5531   5.461  29.188   2.418
37314W        W 5532   8.304  44.124  10.064
37315W        W 5533  24.224  29.128  13.615
37316W        W 5534  37.479  43.295  13.283
37317W        W 5535  29.481   0.339  14.767
37318W        W 5536  39.789  35.537  11.929
37319W        W 5537   6.119  26.935  12.027
37320W        W 5538  43.886   9.786   4.152
37321W        W 5539  11.780  21.953   2.762
37322W        W 5540  15.100  40.533  11.698
37323W        W 5541  27.532  38.581  13.151
37324W        W 5542   9.173   4.739   4.849
37325W        W 5543  13.430   8.716  14.199
37326W        W 5544   4.108  30.003  13.308
37327W        W 5545  18.348  16.769   3.317
37328W        W 5546   5.493  39.562  11.936
37329W        W 5547  35.157  44.329  12.409
37330W        W 5548  33.562  35.132  11.054
37331W        W 5549  11.707  35.273  14.342
37332W        W 5550  20.198  39.363   3.236
37333W        W 5551  11.882  17.007   2.329
37334W        W 5552  27.523   3.043   4.708
37335W        W 5553   2.230  25.395   4.615
37336W        W 5554  25.513   0.862   4.414
37337W        W 5555  42.403  15.068   0.461
37338W        W 5556  43.524  16.633   2.625
37339W        W 5557  17.638  41.887  14.453
37340W        W 5558  23.918  37.909   3.843
37341W        W 5559  26.080  36.589  14.890
37342W        W 5560  35.864  18.448   3.639
37343W        W 5561  16.748   7.815   3.845
37344W        W 5562  22.340  25.110   4.140
37345W        W 5563  24.234  19.212  13.926
37346W        W 5564  19.555  22.234   3.296
37347W        W 5565  31.499   9.695  13.503
37348W        W 5566  44.263   6.751   3.824
37349W        W 5567   0.221  44.275   2.594
37350W        W 5568  19.188   1.034   2.741
37351W        W 5569   6.040  38.739  11.859
37352W        W 5570  42.402  41.302   3.771
37353W        W 5571  18.358   7.299   0.829
37354W        W 5572  26.620  24.944   2.612
37355W        W 5573  42.849   3.407   3.831
37356W        W 5574  34.111  30.839   2.745
37357W        W 5575   7.504   4.225  13.844
37358W        W 5576  16.328   9.885   3.392
37359W        W 5577  24.523  21.364  13.484
37360W        W 5578  20.857  36.932   1.859
37361W        W 5579  39.450  29.386   1.792
37362W        W 5580  32.452  19.343  14.950
37363W        W 5581  14.718  31.974   4.296
37364W        W 5582  20.740  13.574   0.902
37365W        W 5583   9.753   1.846   0.796
37366W        W 5584  44.894  27.195  14.759
37367W        W 5585  19.207  17.087   3.584
37368W        W 5586  25.198  35.349  13.758
37369W        W 5587  28.554  22.239  10.549
37370W        W 5588  36.951   7.168  14.024
37371W        W 5589  20.444   8.392   3.354
37372W        W 5590  19.749  28.219  13.469
37373W        W 5591  23.118  33.687  14.710
37374W        W 5592  21.276  31.596   4.616
37375W        W 5593   0.899  28.691  12.035
37376W        W 5594   4.677  18.328  13.488
37377W        W 5595  10.551  12.568  13.159
37378W        W 5596   8.484   6.432   0.057
37379W        W 5597  13.612  18.146   3.694
37380W        W 5598  24.384  31.811   4.542
37381W        W 5599  36.933  12.330   0.763
37382W        W 5600  44.042   2.190   3.269
37383W        W 5601  28.893  25.549   1.425
37384W        W 5602  27.213  38.286  13.441
37385W        W 5603   1.972  30.285  11.595
37386W        W 5604  23.186  35.671  11.508
37387W        W 5605  41.503  23.354   0.900
37388W        W 5606  44.917  41.292  10.528
37389W        W 5607  38.402  18.774   0.265
37390W        W 5608  21.554   0.978   4.184
37391W        W 5609  25.192  39.047  13.590
37392W        W 5610  24.404   1.154   1.771
37393W        W 5611  30.895  38.089   3.803
37394W        W 5612   7.180  28.574   3.098
37395W        W 5613  33.853   9.862   1.346
37396W        W 5614  18.037  25.673   3.350
37397W        W 5615   3.290  27.419   0.244
37398W        W 5616   3.085  32.850  11.157
37399W        W 5617   3.418  39.802  12.510
37400W        W 5618  21.493  23.775   3.701
37401W        W 5619  16.472  35.045  11.844
37402W        W 5620  15.158  36.006   1.731
37403W        W 5621  33.143  16.610  13.066
37404W        W 5622  20.261  13.785   4.310
37405W        W 5623  33.491  21.231   2.308
37406W        W 5624  38.604   9.306  12.130
37407W        W 5625   8.894   7.414  11.166
37408W        W 5626  29.654   6.393  11.137
37409W        W 5627  13.619  12.612   2.939
37410W        W 5628  10.768  29.440   1.961
37411W        W 5629  26.965   0.032   3.351
37412W        W 5630  23.055  29.179  14.794
37413W        W 5631   9.126  24.955   3.218
37414W        W 5632  34.658  18.283   2.888
37415W        W 5633   2.290   0.369   4.373
37416W        W 5634  25.555   9.292  12.965
37417W        W 5635  42.041  14.584   1.737
37418W        W 5636  43.584  17.304   1.807
37419W        W 5637  30.982  33.071  10.660
37420W        W 5638  20.625  38.915   1.503
37421W        W 5639  16.886   2.349   9.867
37422W        W 5640  12.818   2.479  11.416
37423W        W 5641  24.130  41.554   3.888
37424W        W 5642  43.875   2.866   2.012
37425W        W 5643  31.420  20.201   3.385
37426W        W 5644  11.424  21.021   0.779
37427W        W 5645  39.950  18.724   4.085
37428W        W 5646  10.281  19.211  13.416
37429W        W 5647  41.205  33.765   2.763
37430W        W 5648  37.235   3.977  13.186
37431W        W 5649  31.041  12.162  10.746
37432W        W 5650  33.106  35.984   3.627
37433W        W 5651  44.119  29.037  14.270
37434W        W 5652   0.715  28.629   0.328
37435W        W 5653   1.525  13.761  11.888
37436W        W 5654   4.854  16.040  12.516
37437W        W 5655  23.403  18.346  14.866
37438W        W 5656  24.430  14.674  10.412
37439W        W 5657  25.677  25.575   0.268
37440W        W 5658   9.370  22.845   1.114
37441W        W 5659  10.676  31.518  13.568
37442W        W 5660  20.638  23.543  12.663
37443W        W 5661  24.936  43.902   0.416
37444W        W 5662  26.925  31.599   1.492
37445W        W 5663  12.347  39.031  12.939
37446W        W 5664  32.515  31.531  12.835
37447W        W 5665  42.872  28.359  12.428
37448W        W 5666  27.686  10.254  14.749
37449W        W 5667  26.582  44.371   2.232
37450W        W 5668  37.465   4.229  10.734
37451W        W 5669  39.431  26.163   2.259
37452W        W 5670  29.325  36.021  11.715
37453W        W 5671  35.096  41.880   0.463
37454W        W 5672  14.184   1.954  11.034
37455W        W 5673  19.052   6.793   1.674
37456W        W 5674  17.861  29.996  13.372
37457W        W 5675  31.432   9.309   3.625
37458W        W 5676  24.391   5.852   0.837
37459W        W 5677  13.879  27.588  13.880
37460W        W 5678  18.513  43.060   2.173
37461W        W 5679  11.768  10.860  12.059
37462W        W 5680  32.912  26.236   4.734
37463W        W 5681  16.537  30.593  14.303
37464W        W 5682  38.409  23.171  14.385
37465W        W 5683  12.192  30.253  13.316
37466W        W 5684  26.612   0.339   0.723
37467W        W 5685  44.780  35.297  12.546
37468W        W 5686  29.913   6.096   1.373
37469W        W 5687   8.509  20.152   2.097
37470W        W 5688  12.756  12.730  12.530
37471W        W 5689  35.420  42.908   1.720
37472W        W 5690  39.855   0.324  10.317
37473W        W 5691  34.340  18.031  14.054
37474W        W 5692  41.821  34.480   3.695
37475W        W 5693   5.382  36.612  13.049
37476W        W 5694  22.044  16.062   2.754
37477W        W 5695  43.575  21.272  14.992
37478W        W 5696  21.930  11.131  12.976
37479W        W 5697  44.448  10.922  14.386
37480W        W 5698   9.507  15.769   0.595
37481W        W 5699  44.751  41.672   3.215
37482W        W 5700   6.687  40.871  11.892
37483W        W 5701   8.473  15.626  13.498
37484W        W 5702  14.312  16.182   4.330
37485W        W 5703  29.948  42.356   3.599
37486W        W 5704  33.930  19.025  11.641
37487W        W 5705   9.374  12.159   0.410
37488W        W 5706  38.030   4.408  11.217
37489W        W 5707   6.172   7.853  10.721
37490W        W 5708  24.595  33.078  13.392
37491W        W 5709  43.885  31.483  10.612
37492W        W 5710  21.201   7.281  11.054
37493W        W 5711  29.385   8.365  11.183
37494W        W 5712  30.131  32.273  12.505
37495W        W 5713  41.971  37.339  13.460
37496W        W 5714  36.403  13.848  12.494
37497W        W 5715  28.162  35.944   3.751
37498W        W 5716  18.298  35.203  14.332
37499W        W 5717  11.361  11.181   0.436
37500W        W 5718  10.392  38.899   1.738
37501W        W 5719  39.108  44.028  11.014
37502W        W 5720   1.398   5.839  13.520
37503W        W 5721  30.616  20.792   4.922
37504W        W 5722   7.625  43.797   2.582
37505W        W 5723  27.208  27.079   3.628
37506W        W 5724  23.166   5.350   2.098
37507W        W 5725  39.373  23.768   2.654
37508W        W 5726  41.560   2.229   2.792
37509W        W 5727  44.211  41.884   2.002
37510W        W 5728  27.157   0.254   1.922
37511W        W 5729  36.852  36.991  14.954
37512W        W 5730   6.571  36.063  14.204
37513W        W 5731   1.926  40.011  14.520
37514W        W 5732   2.535   8.672  13.055
37515W        W 5733  26.910  20.229   4.743
37516W        W 5734   8.222  30.185   1.445
37517W        W 5735  17.308  28.077  13.763
37518W        W 5736  12.767  17.094  12.107
37519W        W 5737   3.510  40.398   2.231
37520W        W 5738   0.218  23.425   3.008
37521W        W 5739  27.252  27.487  14.927
37522W        W 5740   4.775  34.507  11.090
37523W        W 5741  28.513   0.108  14.758
37524W        W 5742  32.998  16.826  13.898
37525W        W 5743  14.081   6.338   1.924
37526W        W 5744  24.160  37.989   3.365
37527W        W 5745  21.080  18.970  11.866
37528W        W 5746  30.160  14.734  14.435
37529W        W 5747  26.966  13.559  10.610
37530W        W 5748  40.924   1.753   3.067
37531W        W 5749  21.508  23.731  12.083
37532W        W 5750  29.434   0.243   3.257
37533W        W 5751  11.154  22.004  11.079
37534W        W 5752  15.681  33.857   5.149
37535W        W 5753  21.969  28.109   4.175
37536W        W 5754  30.714   9.732   2.314
37537W        W 5755  18.132  10.007  14.972
37538W        W 5756  25.213  36.337   3.321
37539W        W 5757   2.129   7.235   5.119
37540W        W 5758  34.062  39.769   1.868
37541W        W 5759  30.090   9.794  14.666
37542W        W 5760   8.257  43.546  14.934
37543W        W 5761  20.368  40.385  11.417
37544W        W 5762  44.845  36.868   0.674
37545W        W 5763  36.113  34.698   4.021
37546W        W 5764   8.029   3.670   4.625
37547W        W 5765  35.872   0.289   3.113
37548W        W 5766  33.092  10.792  14.529
37549W        W 5767  14.237  42.785  12.018
37550W        W 5768  15.537  40.894  13.946
37551W        W 5769  22.781  37.324   1.899
37552W        W 5770  20.746   7.189   1.959
37553W        W 5771  12.864  10.127   1.245
37554W        W 5772   0.007  40.030   0.775
37555W        W 5773  12.521  17.820   0.996
37556W        W 5774   7.600   5.733   4.174
37557W        W 5775  18.751  22.237  12.370
37558W        W 5776  23.515  18.219   0.848
37559W        W 5777   0.171   1.335   1.242
37560W        W 5778   0.495  36.590  13.129
37561W        W 5779  39.932  15.001   2.876
37562W        W 5780  26.830  25.108   3.533
37563W        W 5781  44.400  44.051  14.479
37564W        W 5782  29.246   2.471  11.494
37565W        W 5783  36.036  43.742  11.966
37566W        W 5784  36.404  34.566   3.165
37567W        W 5785  42.331  18.603  10.697
37568W        W 5786  32.749  26.529  13.060
37569W        W 5787   1.017  30.573  13.104
37570W        W 5788   3.216  10.938  12.518
37571W        W 5789  42.571  43.281   0.053
37572W        W 5790  41.285   4.198  12.588
37573W        W 5791  15.805  25.268   1.015
37574W        W 5792  22.183  38.876   4.818
37575W        W 5793  15.745  16.363   4.140
37576W        W 5794   7.992  23.973  14.341
37577W        W 5795  22.576  25.197   2.814
37578W        W 5796   7.688  29.870   0.483
37579W        W 5797  14.896   1.386   9.799
37580W        W 5798  17.135  16.495  11.545
37581W        W 5799  17.589   0.486  11.180
37582W        W 5800  31.539   7.757   4.305
37583W        W 5801  20.457   3.794  14.521
37584W        W 5802  34.170   8.829   4.792
37585W        W 5803   8.737  23.999   4.694
37586W        W 5804  43.616  16.280   3.385
37587W        W 5805  43.021   6.617   0.302
37588W        W 5806  13.102  14.858   3.260
37589W        W 5807  12.332  36.522   4.411
37590W        W 5808  12.150  43.705   3.303
37591W        W 5809   8.870  39.550   9.798
37592W        W 5810  25.619  17.824  13.507
37593W        W 5811  24.125  36.455  11.412
37594W        W 5812  32.073  29.152  10.222
37595W        W 5813  37.573  34.800  13.937
37596W        W 5814  26.613   5.464  11.088
37597W        W 5815  13.938  29.173   0.724
37598W        W 5816   6.541  37.831  14.393
37599W        W 5817   4.233  33.017  11.582
37600W        W 5818  16.357  39.272   2.705
37601W        W 5819  39.650  37.006  14.255
37602W        W 5820  16.740  40.628  12.676
37603W        W 5821  16.851  10.241   0.556
37604W        W 5822  22.248   5.632  14.829
37605W        W 5823  40.588  26.045  13.305
37606W        W 5824  13.103  28.011   4.574
37607W        W 5825  18.494  37.997  13.873
37608W        W 5826   1.644   3.990  12.976
37609W        W 5827  41.950  32.039  14.027
37610W        W 5828  29.388  39.920   1.005
37611W        W 5829  32.931   0.314  10.994
37612W        W 5830  12.261  22.599   1.043
37613W        W 5831  34.109  30.509  10.560
37614W        W 5832   7.031  29.463   4.921
37615W        W 5833  39.824   1.817  11.615
37616W        W 5834  44.884  18.072   1.356
37617W        W 5835  15.954   4.222   1.440
37618W        W 5836   6.815  33.860   2.746
37619W        W 5837   5.529  20.754   1.287
37620W        W 5838  31.536  24.439   0.856
37621W        W 5839  11.227  32.474   2.404
37622W        W 5840  31.426  12.303  13.872
37623W        W 5841  25.522  42.816   0.570
37624W        W 5842  34.229  31.206   5.004
37625W        W 5843  30.511   8.151  14.342
37626W        W 5844  15.215   2.695  14.886
37627W        W 5845   6.401  16.127  14.877
37628W        W 5846  30.231  12.743  14.793
37629W        W 5847  41.158  25.266  10.948
37630W        W 5848   1.504  39.800   2.787
37631W        W 5849  42.906  26.252  11.945
37632W        W 5850  36.349   0.845   2.854
37633W        W 5851  12.238  16.861   1.389
37634W        W 5852  32.347  16.086  13.922
37635W        W 5853  42.229  14.645   4.099
37636W        W 5854  32.651  24.016   0.359
37637W        W 5855   1.625   3.514   4.174
37638W        W 5856  17.775   0.731  11.601
37639W        W 5857  16.740  31.972   1.863
37640W        W 5858  36.557  10.920   0.767
37641W        W 5859  43.477   8.275  12.288
37642W        W 5860  23.098  18.580   4.252
37643W        W 5861  20.754  39.798   0.899
37644W        W 5862  22.231   7.089   1.878
37645W        W 5863   2.261   6.889   1.869
37646W        W 5864  13.449  12.722  11.356
37647W        W 5865   2.620  34.630  13.603
37648W        W 5866  11.230  22.819   3.675
37649W        W 5867  35.060   7.297   9.932
37650W        W 5868  12.128  42.817   4.324
37651W        W 5869   8.734  44.781  11.386
37652W        W 5870   6.202   8.209  14.831
37653W        W 5871   3.282  30.978   1.587
37654W        W 5872  40.466  31.338  11.106
37655W        W 5873  17.593   5.249  11.103
37656W        W 5874  14.121  41.525   1.316
37657W        W 5875  42.746  13.536  14.919
37658W        W 5876  40.250  12.103   3.752
37659W        W 5877  31.070  22.788   0.726
37660W        W 5878  15.936   9.706  11.563
37661W        W 5879  39.046   0.956  10.476
37662W        W 5880  36.672  41.943  13.923
37663W        W 5881  11.209  10.562   4.187
37664W        W 5882  27.593  18.784   4.538
37665W        W 5883  19.915  17.764   2.744
37666W        W 5884  18.095   9.629   0.931
37667W        W 5885  31.383  11.456  11.046
37668W        W 5886   7.958  32.441  11.644
37669W        W 5887  27.152  12.901  12.848
37670W        W 5888   2.364  27.746  10.083
37671W        W 5889  20.523  41.817  13.672
37672W        W 5890  18.798  44.892  14.532
37673W        W 5891   0.207   9.862  11.888
37674W        W 5892   7.410  10.887  11.570
37675W        W 5893  18.407  23.546   0.328
37676W        W 5894  24.904  10.684   2.822
37677W        W 5895  42.484  11.791  13.281
37678W        W 5896  13.404  31.426   0.494
37679W        W 5897  33.055  16.675  10.624
37680W        W 5898  37.077  14.310   4.133
37681W        W 5899  38.303  42.264  10.942
37682W        W 5900  33.965  38.774   1.087
37683W        W 5901  44.423   8.623  14.350
37684W        W 5902   4.293  23.487  13.455
37685W        W 5903  21.073  37.751  12.607
37686W        W 5904   4.338  36.461   0.469
37687W        W 5905   6.425   2.901  11.091
37688W        W 5906  17.666  10.096  10.780
37689W        W 5907  36.161  12.342   4.171
37690W        W 5908   1.434  38.042  14.067
37691W        W 5909   8.932  18.155  11.146
37692W        W 5910  24.964  17.253  11.592
37693W        W 5911  15.768  15.770  10.097
37694W        W 5912  38.552  17.742   1.066
37695W        W 5913  17.665  23.572  11.182
37696W        W 5914  16.751   5.611  13.080
37697W        W 5915  28.011  38.880   4.192
37698W        W 5916   2.421  34.776  10.939
37699W        W 5917  30.405  44.925   4.242
37700W        W 5918  39.412  37.877  10.462
37701W        W 5919  27.148   8.681  13.156
37702W        W 5920  37.812  13.891  13.023
37703W        W 5921  25.228   9.244   4.253
37704W        W 5922  42.930  18.230   2.719
37705W        W 5923  16.575  44.797   3.853
37706W        W 5924  25.906  43.862   0.041
37707W        W 5925  13.189   6.731   4.522
37708W        W 5926  29.085  21.661   4.350
37709W        W 5927  26.201  34.451   2.282
37710W        W 5928  34.018  23.956  13.656
37711W        W 5929  44.862  12.132  12.578
37712W        W 5930   1.834  11.162   0.287
37713W        W 5931  33.675  37.437   0.093
37714W        W 5932  40.382  29.083  10.681
37715W        W 5933   1.589  17.235   0.030
37716W        W 5934  20.361   5.721  10.763
37717W        W 5935  33.498  10.643  11.024
37718W        W 5936  32.445   5.780   0.819
37719W        W 5937  37.802  29.604  14.349
37720W        W 5938   8.151  10.087  11.119
37721W        W 5939   6.707  11.748   4.320
37722W        W 5940  28.471  12.033   2.281
37723W        W 5941  14.347   5.252  14.555
37724W        W 5942   1.695   9.948  13.973
37725W        W 5943  29.333   2.404   2.841
37726W        W 5944   1.452  22.078   1.862
37727W        W 5945  39.841  16.146   3.479
37728W        W 5946  33.512  20.963  14.786
37729W        W 5947  20.530  10.166  12.527
37730W        W 5948  13.267  41.326   2.616
37731W        W 5949   8.425  30.970  12.531
37732W        W 5950  41.988  32.177   5.259
37733W        W 5951  42.240  34.969   1.234
37734W        W 5952  40.100  44.684   1.810
37735W        W 5953  33.699  37.628  11.108
37736W        W 5954  40.083  28.628  13.887
37737W        W 5955   9.913  17.248  11.684
37738W        W 5956  41.024  14.216  13.340
37739W        W 5957  34.401  41.988   3.612
37740W        W 5958  19.602  42.003  11.599
37741W        W 5959   5.174  34.617  13.341
37742W        W 5960  30.106   8.075  12.891
37743W        W 5961  38.848  11.190   4.569
37744W        W 5962  36.842  29.156   0.274
37745W        W 5963  34.897  18.188   3.710
37746W        W 5964  12.839   3.751  12.404
37747W        W 5965   3.628  26.226  13.468
37748W        W 5966  16.701  24.978  12.425
37749W        W 5967  30.649  12.833   2.857
37750W        W 5968   4.259  15.767  14.311
37751W        W 5969  43.583   8.738   3.647
37752W        W 5970   5.764  40.068  14.928
37753W        W 5971  42.907  12.901   0.481
37754W        W 5972  14.259   9.787   4.026
37755W        W 5973   4.147  43.737  11.264
37756W        W 5974  35.574  10.252  13.088
37757W        W 5975   5.718   4.379  13.042
37758W        W 5976  37.474  41.538   3.246
37759W        W 5977   7.668  23.615   1.392
37760W        W 5978   8.264   7.427  14.422
37761W        W 5979   0.991  35.306   0.527
37762W        W 5980  37.610  19.601  13.659
37763W        W 5981  12.404  20.558   2.323
37764W        W 5982  31.673  44.325   3.689
37765W        W 5983  32.069  10.840  12.018
37766W        W 5984   0.470  35.459  14.095
37767W        W 5985  25.642  14.086  10.306
37768W        W 5986  12.817  41.430   2.347
37769W        W 5987  21.403  43.643  14.816
37770W        W 5988  22.886  10.314   2.400
37771W        W 5989  35.550   4.467   3.267
37772W        W 5990  14.354   7.406  13.863
37773W        W 5991  11.902  33.261  10.984
37774W        W 5992  15.487  36.614   3.207
37775W        W 5993   5.173  11.720   1.474
37776W        W 5994  26.403  19.401   4.093
37777W        W 5995  37.531  23.012  14.733
37778W        W 5996  13.783  24.548   1.209
37779W        W 5997   4.463  39.633   4.532
37780W        W 5998   9.621   1.136   4.086
37781W        W 5999  34.416   0.862   1.269
37782W        W 6000  18.026  17.664  14.781
37783W        W 6001   4.135   0.306   0.365
37784W        W 6002  26.438  29.973  13.068
37785W        W 6003   5.749   2.743   2.326
37786W        W 6004  35.585  42.670  14.044
37787W        W 6005  28.884   7.975   2.849
37788W        W 6006  28.988   8.445   3.969
37789W        W 6007   4.292  21.704  13.887
37790W        W 6008  37.511   9.406  13.270
37791W        W 6009  11.731  18.767   3.213
37792W        W 6010   1.227  22.020   3.841
37793W        W 6011  27.690  36.825   0.431
37794W        W 6012   9.267   7.911  13.006
37795W        W 6013  10.180  14.472  12.114
37796W        W 6014   0.547  28.305   2.369
37797W        W 6015  41.965   8.614  13.888
37798W        W 6016  27.966  40.305   1.841
37799W        W 6017  27.271  13.158   3.109
37800W        W 6018  21.142  25.070  13.831
37801W        W 6019   0.370  18.723   1.685
37802W        W 6020  22.563  32.672   0.488
37803W        W 6021  24.048  10.876   0.907
37804W        W 6022  22.665  26.854   3.787
37805W        W 6023  33.120  39.579  13.501
37806W        W 6024  37.759  13.922  11.525
37807W        W 6025  38.974  24.140   2.001
37808W        W 6026   7.731  31.100  12.139
37809W        W 6027  17.291  41.332  12.249
37810W        W 6028   1.043  44.431   4.256
37811W        W 6029  10.404  43.959   2.889
37812W        W 6030  26.666  18.227  10.881
37813W        W 6031  42.491  11.948  10.700
37814W        W 6032  25.750   9.205   4.216
37815W        W 6033  38.298  23.730   1.681
37816W        W 6034  11.693  26.145  13.955
37817W        W 6035  10.480  11.586   4.694
37818W        W 6036   8.389  26.265  13.958
37819W        W 6037   6.362  25.259  11.180
37820W        W 6038  11.155   2.965   3.712
37821W        W 6039   2.028  38.062   4.671
37822W        W 6040  30.575  16.220  10.384
37823W        W 6041  33.632  35.571  10.054
37824W        W 6042  16.869  13.112  13.429
37825W        W 6043  11.695  35.537   2.707
37826W        W 6044  42.396  39.912   1.046
37827W        W 6045  37.107  10.160   1.367
37828W        W 6046  32.562  35.384  13.388
37829W        W 6047  40.606  30.977  14.849
37830W        W 6048   5.893  31.397  13.360
37831W        W 6049  32.358  21.587   1.194
37832W        W 6050   4.776  11.894  13.054
37833W        W 6051  32.911  12.279  11.526
37834W        W 6052  35.629   0.762  14.932
37835W        W 6053  29.612   8.454   1.825
37836W        W 6054  36.016  26.811   4.715
37837W        W 6055  12.693   1.176  10.284
37838W        W 6056   6.320  43.772   0.911
37839W        W 6057  29.982  39.838  14.008
37840W        W 6058  21.600   0.849  13.069
37841W        W 6059  10.275  22.549  14.602
37842W        W 6060  36.121  22.509  11.040
37843W        W 6061  15.210  18.966  12.056
37844W        W 6062  14.125  24.483  12.049
37845W        W 6063  14.440   7.407  11.175
37846W        W 6064  40.020   4.365  14.212
37847W        W 6065  25.226  41.014   3.257
37848W        W 6066   5.818  20.655   3.301
37849W        W 6067  17.582  34.810  11.236
37850W        W 6068  21.026  29.462  13.884
37851W        W 6069  18.089  35.488   4.502
37852W        W 6070   5.049  41.192  12.875
37853W        W 6071  25.559  29.496   1.344
37854W        W 6072   0.916  25.066   5.121
37855W        W 6073  24.211  28.161   3.602
37856W        W 6074   0.995  28.421   1.252
37857W        W 6075  21.807  32.737  10.552
37858W        W 6076  36.406  25.587  11.025
37859W        W 6077  40.097  42.840   1.362
37860W        W 6078  23.987  33.103   2.348
37861W        W 6079  30.521  18.411   4.791
37862W        W 6080  32.144  20.674   1.523
37863W        W 6081  18.581  19.367   3.236
37864W        W 6082  21.891  11.731   4.207
37865W        W 6083  15.667  12.253   3.868
37866W        W 6084  38.062  13.843  14.020
37867W        W 6085   8.790  13.589  14.442
37868W        W 6086  44.446  13.114  13.089
37869W        W 6087  27.993  18.665  12.138
37870W        W 6088  12.875  41.606   3.390
37871W        W 6089  24.480  27.758   1.626
37872W        W 6090  31.649  14.385   2.202
37873W        W 6091  29.166  27.400  13.320
37874W        W 6092  10.616  31.936   0.933
37875W        W 6093  28.809  29.615   1.815
37876W        W 6094  44.465  40.527   0.447
37877W        W 6095  15.080  23.307  14.026
37878W        W 6096   1.009  23.905  12.523
37879W        W 6097  10.438  29.147  13.492
37880W        W 6098  26.949  23.130  14.887
37881W        W 6099  33.531   3.781   3.773
37882W        W 6100  37.935  44.291   2.217
37883W        W 6101   5.051  37.934  12.070
37884W        W 6102   9.270   4.993   3.438
37885W        W 6103  17.565  44.619  12.849
37886W        W 6104  28.432  44.331   3.574
37887W        W 6105  44.840  34.398  13.924
37888W        W 6106  28.359  38.503   2.346
37889W        W 6107  36.576  34.589   2.677
37890W        W 6108  29.754  14.978  12.692
37891W        W 6109  12.291  17.732  13.299
37892W        W 6110   3.563  25.958  11.155
37893W        W 6111  36.454  30.976  12.467
37894W        W 6112  27.482  33.548   4.482
37895W        W 6113  13.709   9.438   2.525
37896W        W 6114  44.776  13.924   2.852
37897W        W 6115  43.384  38.875  11.559
37898W        W 6116  40.361  21.187  12.038
37899W        W 6117  14.079   9.285   4.313
37900W        W 6118  32.076   6.421   9.933
37901W        W 6119  19.960   0.056  13.776
37902W        W 6120   4.241  34.317   3.404
37903W        W 6121   9.819  18.097  14.103
37904W        W 6122  17.010  17.699  12.841
37905W        W 6123  42.470  27.150   1.223
37906W        W 6124  24.114  21.255   4.172
37907W        W 6125  30.110   9.628   1.396
37908W        W 6126  35.942  24.658   2.271
37909W        W 6127   0.834  21.125   4.932
37910W        W 6128  39.527  23.419  13.773
37911W        W 6129  28.055  27.949  11.886
37912W        W 6130  10.993  32.883   4.025
37913W        W 6131  23.746   4.247   0.284
37914W        W 6132  10.769  21.240  13.887
37915W        W 6133  15.313   1.270  12.940
37916W        W 6134  19.049  14.828  11.632
37917W        W 6135  12.082  12.547  11.780
37918W        W 6136  26.280  38.260   4.167
37919W        W 6137  11.769  44.323   0.186
37920W        W 6138  35.599  19.192   4.979
37921W        W 6139   5.939  29.056   3.376
37922W        W 6140   2.753   5.223   1.700
37923W        W 6141  40.417  37.993  10.806
37924W        W 6142   4.806  18.105  12.584
37925W        W 6143  28.149  20.260   1.310
37926W        W 6144  43.953  25.693   2.620
37927W        W 6145  44.570  43.854  11.954
37928W        W 6146   6.930   9.682  13.845
37929W        W 6147  11.631  43.166  10.194
37930W        W 6148  14.416  23.137   2.241
37931W        W 6149   3.723  26.652  13.785
37932W        W 6150  31.542  43.938   1.702
37933W        W 6151  28.317  25.830   3.753
37934W        W 6152   5.542  37.919  14.582
37935W        W 6153  18.962  15.463  13.356
37936W        W 6154  10.112   8.017   2.791
37937W        W 6155  25.395  31.027  13.628
37938W        W 6156   4.564   0.993   2.153
37939W        W 6157   8.423  26.966   1.301
37940W        W 6158  23.697  28.644   3.350
37941W        W 6159   6.005  20.057   1.734
37942W        W 6160   6.891   5.026  13.553
37943W        W 6161  24.975  26.628   0.640
37944W        W 6162  36.232   4.859   0.296
37945W        W 6163  22.743  22.511   2.469
37946W        W 6164  23.026  34.347   3.729
37947W        W 6165  28.217   5.285   0.535
37948W        W 6166  12.233  42.803  14.127
37949W        W 6167  21.602  10.933   1.929
37950W        W 6168  27.949  41.578  11.576
37951W        W 6169  19.577  18.346   4.057
37952W        W 6170  20.617  38.062  12.575
37953W        W 6171  27.228   8.413   2.249
37954W        W 6172  18.482  20.353   0.513
37955W        W 6173  19.722  33.949  14.338
37956W        W 6174   7.106  20.079   0.129
37957W        W 6175   8.712  39.942   3.252
37958W        W 6176  15.795   1.743  11.195
37959W        W 6177  31.947  43.330  11.217
37960W        W 6178  22.665  39.179   0.055
37961W        W 6179  44.304  23.328  12.136
37962W        W 6180  34.584  16.195   4.202
37963W        W 6181  22.421  21.093   0.256
37964W        W 6182  44.540   2.400   1.989
37965W        W 6183  28.376  19.667  11.536
37966W        W 6184  28.574  21.407  10.225
37967W        W 6185  34.869  13.690  11.547
37968W        W 6186   3.952  32.660  12.950
37969W        W 6187  37.032  10.726  13.412
37970W        W 6188  33.038  27.620   3.773
37971W        W 6189  42.814   4.208   3.798
37972W        W 6190  34.164  26.529  14.364
37973W        W 6191  26.693  18.610  12.482
37974W        W 6192   9.753   6.991  10.278
37975W        W 6193  19.530  28.410   1.840
37976W        W 6194  32.076  36.021  14.390
37977W        W 6195  21.640   7.459   0.218
37978W        W 6196  14.283  13.535  11.948
37979W        W 6197  18.632  35.051   3.693
37980W        W 6198  19.924  14.149  10.718
37981W        W 6199  16.098  30.129   1.990
37982W        W 6200  22.122   1.706  12.420
37983W        W 6201  30.135  43.924  12.513
37984W        W 6202  37.288  32.882   4.760
37985W        W 6203  37.894   4.339   1.118
37986W        W 6204  25.362  38.653  11.504
37987W        W 6205  27.614  42.609  12.922
37988W        W 6206   2.618  23.561  13.574
37989W        W 6207  19.571  23.014   3.830
37990W        W 6208  20.535  22.664   2.897
37991W        W 6209  18.537  18.696  12.260
37992W        W 6210  36.639  23.005   3.960
37993W        W 6211  12.652  14.334  13.820
37994W        W 6212  27.946  24.090   0.735
37995W        W 6213  44.950  22.146   4.621
37996W        W 6214  33.070  10.658   4.809
37997W        W 6215   9.401  24.711   2.870
37998W        W 6216   3.225  29.697   2.238
37999W        W 6217  23.601  12.909   1.948
38000W        W 6218  37.980   7.791   0.790
38001W        W 6219  15.677  21.875  10.218
38002W        W 6220  27.841   7.351  13.482
38003W        W 6221  35.472  30.063  12.068
38004W        W 6222  35.352  27.129   9.832
38005W        W 6223   1.906  36.593   3.247
38006W        W 6224  23.919  23.152  11.115
38007W        W 6225  36.525  16.341   4.199
38008W        W 6226   8.959  41.779   1.621
38009W        W 6227  14.897   9.214  11.624
38010W        W 6228  23.460  22.250  13.301
38011W        W 6229   1.342  18.999   0.831
38012W        W 6230  34.524  37.879  13.903
38013W        W 6231  19.230  23.759  11.548
38014W        W 6232  10.693  25.966   4.777
38015W        W 6233  39.998  37.562   0.256
38016W        W 6234  10.766  30.944  11.974
38017W        W 6235  27.014  39.507   2.880
38018W        W 6236  19.050  33.117  12.519
38019W        W 6237  33.920  33.902   4.604
38020W        W 6238   2.844   4.053   0.998
38021W        W 6239   3.698  20.542   4.452
38022W        W 6240  35.360  17.249   3.631
38023W        W 6241  38.021  36.579   4.226
38024W        W 6242  17.463  14.555   2.843
38025W        W 6243   1.722   8.293   1.810
38026W        W 6244   0.703  21.552  10.994
38027W        W 6245  30.607  38.021   2.252
38028W        W 6246  13.860  12.589  11.693
38029W        W 6247  17.686   0.336  13.837
38030W        W 6248  20.741  32.629  11.618
38031W        W 6249   2.999  32.336  11.237
38032W        W 6250  14.008  39.588   0.708
38033W        W 6251  10.791  19.070   1.673
38034W        W 6252  15.042  22.450  12.097
38035W        W 6253  25.692  36.488   3.154
38036W        W 6254  27.542   9.595   2.950
38037W        W 6255  28.845  32.380   3.539
38038W        W 6256  29.116  33.538   0.206
38039W        W 6257  35.353   1.864  12.429
38040W        W 6258   8.620  24.917  12.162
38041W        W 6259  23.549  35.854   3.853
38042W        W 6260   6.292  23.443  10.496
38043W        W 6261  26.025  16.283  10.742
38044W        W 6262  11.735   6.468   2.368
38045W        W 6263  12.704  10.869  11.095
38046W        W 6264  27.149   9.000  14.533
38047W        W 6265  25.179   4.383  10.566
38048W        W 6266   7.687   5.159   4.916
38049W        W 6267  22.641   7.871   1.421
38050W        W 6268   1.283  20.567  13.378
38051W        W 6269  10.666  29.518  13.830
38052W        W 6270   2.784  12.553   3.631
38053W        W 6271   9.376  43.956  11.970
38054W        W 6272  42.777  24.532   1.515
38055W        W 6273  14.921   7.148  11.123
38056W        W 6274  33.937   3.891   4.538
38057W        W 6275  22.916   9.159   4.559
38058W        W 6276  10.565  34.328   4.100
38059W        W 6277  15.088  30.040   3.193
38060W        W 6278  41.338  40.341  13.796
38061W        W 6279  18.159  11.793   5.120
38062W        W 6280  34.385  32.604   1.398
38063W        W 6281  44.491  38.218   4.551
38064W        W 6282  12.331  18.164   1.948
38065W        W 6283   4.905   4.707  13.417
38066W        W 6284  43.520  36.412  12.965
38067W        W 6285  37.920  12.905   4.069
38068W        W 6286  35.664   0.716   4.996
38069W        W 6287  18.274   5.788  14.366
38070W        W 6288  43.695  21.998   2.831
38071W        W 6289  33.335  33.451   0.244
38072W        W 6290  42.005  38.894   2.418
38073W        W 6291  11.894  15.485  10.403
38074W        W 6292  28.923  41.838   2.228
38075W        W 6293   1.216   4.074   3.623
38076W        W 6294  12.680  37.048  14.085
38077W        W 6295   6.427   2.729   1.880
38078W        W 6296   2.523   5.146   4.163
38079W        W 6297  14.050  37.710  13.457
38080W        W 6298  28.223  13.655  10.738
38081W        W 6299  21.271  28.020  14.845
38082W        W 6300  24.087  40.584   4.066
38083W        W 6301  44.933  28.583  14.395
38084W        W 6302  35.880  32.450  14.611
38085W        W 6303   8.898  32.958   1.411
38086W        W 6304  26.102  21.377   2.801
38087W        W 6305  30.006  43.672   2.716
38088W        W 6306   2.831  41.267   2.310
38089W        W 6307  37.065  19.653   1.941
38090W        W 6308   3.999  18.531  11.012
38091W        W 6309   8.767  39.842   2.739
38092W        W 6310  38.177   2.927  11.211
38093W        W 6311   4.427  44.817   4.175
38094W        W 6312  26.030  22.010  12.045
38095W        W 6313  21.596  27.323  14.033
38096W        W 6314  35.814  20.222   3.233
38097W        W 6315   9.200   4.585  14.477
38098W        W 6316  21.696   2.860   4.757
38099W        W 6317  44.304  36.446   1.791
38100W        W 6318  27.909  37.819  11.057
38101W        W 6319   4.994  25.358   4.640
38102W        W 6320  17.335  16.256  12.920
38103W        W 6321  41.339  19.367   2.202
38104W        W 6322  37.918  39.611  11.989
38105W        W 6323  37.570  44.871   1.922
38106W        W 6324  16.203  24.990   1.780
38107W        W 6325  11.260  34.514   4.544
38108W        W 6326  32.286  18.831  12.861
38109W        W 6327   3.702  16.123   0.398
38110W        W 6328   1.291  18.302  12.995
38111W        W 6329  19.121  10.462  10.666
38112W        W 6330  40.416  11.297   3.715
38113W        W 6331  11.535  38.253   4.130
38114W        W 6332  17.337  22.173   2.415
38115W        W 6333   8.750  37.840   2.880
38116W        W 6334  35.377   2.340   3.561
38117W        W 6335  38.765   8.096  14.255
38118W        W 6336  20.257  41.973   0.349
38119W        W 6337  26.531   0.825  13.547
38120W        W 6338  16.563   0.259  10.572
38121W        W 6339  30.717  28.658  13.561
38122W        W 6340  36.446  11.412   1.665
38123W        W 6341  14.087  38.958   1.238
38124W        W 6342  38.414  28.803   2.701
38125W        W 6343  18.892  44.285   3.489
38126W        W 6344  26.484   3.695  11.144
38127W        W 6345   3.783   1.760  14.240
38128W        W 6346  36.349  43.464  13.405
38129W        W 6347  14.783  41.847  10.911
38130W        W 6348   7.394  38.458   0.948
38131W        W 6349  13.216   0.432   0.366
38132W        W 6350  27.520   6.921   4.049
38133W        W 6351  10.096  41.604  12.047
38134W        W 6352  21.948   5.730   0.857
38135W        W 6353  28.211  18.377   1.212
38136W        W 6354  44.412  40.507  12.104
38137W        W 6355  38.796  12.724   3.605
38138W        W 6356  38.615   6.976  12.497
38139W        W 6357  36.060   8.440  13.501
38140W        W 6358  13.209  24.654  13.469
38141W        W 6359  25.158  18.674  12.588
38142W        W 6360  34.333  33.997   0.772
38143W        W 6361   2.700  25.452  12.017
38144W        W 6362  38.971  27.216  10.037
38145W        W 6363   6.451  31.502  12.609
38146W        W 6364  10.180  44.703  12.594
38147W        W 6365  43.983  25.180   3.394
38148W        W 6366  44.479  43.377   4.102
38149W        W 6367  26.172  23.992  13.383
38150W        W 6368  39.103   8.417  11.745
38151W        W 6369  16.858   0.517  10.879
38152W        W 6370  29.545  35.000   3.219
38153W        W 6371  25.971  35.378  14.362
38154W        W 6372  32.829  13.688  12.420
38155W        W 6373  39.823   7.714   2.565
38156W        W 6374  42.161  13.129   3.801
38157W        W 6375  33.033  12.651   4.529
38158W        W 6376   6.675   3.935   0.918
38159W        W 6377  37.929  34.005   4.470
38160W        W 6378  19.178  39.744  13.819
38161W        W 6379  43.354  26.950   0.514
38162W        W 6380  29.650  19.170   2.930
38163W        W 6381   5.976  30.955   3.782
38164W        W 6382   2.007  14.102   0.358
38165W        W 6383  19.495  11.214  14.035
38166W        W 6384   6.935  37.412   4.733
38167W        W 6385  36.886  12.658   3.752
38168W        W 6386  29.953  40.581   3.634
38169W        W 6387  14.665  11.906   4.552
38170W        W 6388  15.810  31.754   1.375
38171W        W 6389  13.770  29.157  14.386
38172W        W 6390  20.041   0.398   4.828
38173W        W 6391  25.535  36.576   3.654
38174W        W 6392  16.657  24.062   4.622
38175W        W 6393  44.862   7.150   0.697
38176W        W 6394  38.288  13.803   0.348
38177W        W 6395   7.956  37.837  14.373
38178W        W 6396  17.434  26.680   0.533
38179W        W 6397  12.364  36.512   3.903
38180W        W 6398   7.759  41.172   0.917
38181W        W 6399   3.711  32.575  10.740
38182W        W 6400  39.375  16.565  14.256
38183W        W 6401  30.052   9.313   3.862
38184W        W 6402  13.762  15.662  13.448
38185W        W 6403  30.661  35.910   0.252
38186W        W 6404  30.378  13.372  11.569
38187W        W 6405  18.915   6.015   2.801
38188W        W 6406  11.280   6.308   0.937
38189W        W 6407  13.945  19.957   1.258
38190W        W 6408  13.300  28.383   3.194
38191W        W 6409  19.733   0.432  12.901
38192W        W 6410  12.816  27.270  13.843
38193W        W 6411  31.718   4.431   2.873
38194W        W 6412   2.996  16.097   2.203
38195W        W 6413  40.403  14.742   2.833
38196W        W 6414  25.981  22.637  14.750
38197W        W 6415  35.444  39.893  12.060
38198W        W 6416  22.563  10.725  13.334
38199W        W 6417  34.830  28.472   2.808
38200W        W 6418  44.247  11.289  14.713
38201W        W 6419   8.151  41.972  14.948
38202W        W 6420  33.051   2.768   3.294
38203W        W 6421   5.280  15.798  12.970
38204W        W 6422  42.997  16.774  10.669
38205W        W 6423  10.462  10.174  14.374
38206W        W 6424   3.336   3.912  11.555
38207W        W 6425  19.810  11.102   3.348
38208W        W 6426   2.064  24.785   1.866
38209W        W 6427  33.636  20.535   0.860
38210W        W 6428  36.883   2.172  12.378
38211W        W 6429   0.981  26.863  11.664
38212W        W 6430  40.378  14.963   0.232
38213W        W 6431  28.615  25.221   4.492
38214W        W 6432  39.723  34.857   1.022
38215W        W 6433   3.851   3.805  13.283
38216W        W 6434  41.426  38.009  14.056
38217W        W 6435  21.600  41.442  14.404
38218W        W 6436   6.261  35.390   0.853
38219W        W 6437  32.087  30.586  13.575
38220W        W 6438  17.489  10.128  13.285
38221W        W 6439   3.869   4.431   1.195
38222W        W 6440  16.372   9.879  13.398
38223W        W 6441   5.865  38.312  13.727
38224W        W 6442  15.322   6.262   1.630
38225W        W 6443  41.058   1.406  10.727
38226W        W 6444   4.816  36.892  10.817
38227W        W 6445  38.633  21.117   1.648
38228W        W 6446  33.068  30.442  11.446
38229W        W 6447  18.156   7.664   3.688
38230W        W 6448  36.322  11.836  11.916
38231W        W 6449   1.682  17.251  14.020
38232W        W 6450  11.417  20.785  14.456
38233W        W 6451  13.092   1.062  14.015
38234W        W 6452  21.060   8.036   3.752
38235W        W 6453  20.530  18.157   4.593
38236W        W 6454  32.200  35.304  10.683
38237W        W 6455  19.291  36.043   4.095
38238W        W 6456  24.889  43.250  12.436
38239W        W 6457   2.440  17.830  14.387
38240W        W 6458  43.577  19.808   2.174
38241W        W 6459   7.200  10.275   4.595
38242W        W 6460   2.264  39.632   4.477
38243W        W 6461  32.642   2.050  12.931
38244W        W 6462   5.651   6.728  11.725
38245W        W 6463  20.224  20.594   1.787
38246W        W 6464   5.655  44.611   0.076
38247W        W 6465  33.348   9.234   3.851
38248W        W 6466  35.411  23.152  10.716
38249W        W 6467   0.258   2.380   0.719
38250W        W 6468  22.262  28.129  12.975
38251W        W 6469   1.892  14.094  14.380
38252W        W 6470  12.554   8.950  13.769
38253W        W 6471  13.057  28.178   1.343
38254W        W 6472   7.502   6.917  11.178
38255W        W 6473  43.406  32.889   0.383
38256W        W 6474  14.258  19.092   0.512
38257W        W 6475   6.073   9.008  10.977
38258W        W 6476   1.844   9.187   3.085
38259W        W 6477   9.683   9.962  11.849
38260W        W 6478  15.176   9.370   0.285
38261W        W 6479  21.842  40.374  14.807
38262W        W 6480  10.439  43.786  13.857
38263W        W 6481  10.734  26.897   4.856
38264W        W 6482  39.210  16.734   1.609
38265W        W 6483  35.407  23.294   4.092
38266W        W 6484  39.619  20.089  13.230
38267W        W 6485  38.528   0.369  10.567
38268W        W 6486  35.986  19.733   3.285
38269W        W 6487  27.475  13.731   1.274
38270W        W 6488  30.186  29.576  13.445
38271W        W 6489   1.724  10.640   1.704
38272W        W 6490  40.459  11.759  12.030
38273W        W 6491  30.452   9.712   4.572
38274W        W 6492   4.927  30.116  12.095
38275W        W 6493  23.586  10.302  13.025
38276W        W 6494  32.537  35.596  11.405
38277W        W 6495  39.958  36.587   0.207
38278W        W 6496   2.917  31.417   0.338
38279W        W 6497   5.758  34.918   1.352
38280W        W 6498   5.259   7.405  14.353
38281W        W 6499  43.243   8.134  11.106
38282W        W 6500  19.988  34.461  13.823
38283W        W 6501  22.683   6.731   4.693
38284W        W 6502  13.430  30.453  11.876
38285W        W 6503  11.794  21.211   1.917
38286W        W 6504  32.881  42.646  10.930
38287W        W 6505  28.408  20.038  10.569
38288W        W 6506  22.307  21.761   0.037
38289W        W 6507  27.135  44.022   1.245
38290W        W 6508  43.088   3.508  11.551
38291W        W 6509  23.415   0.797   2.011
38292W        W 6510  44.405  19.798  13.349
38293W        W 6511  12.437  19.098  10.559
38294W        W 6512  37.048  12.791  12.950
38295W        W 6513  14.774   1.361   0.224
38296W        W 6514  39.225  27.017   0.302
38297W        W 6515  30.655  39.016   3.282
38298W        W 6516  19.495   0.043   2.643
38299W        W 6517  42.439  27.384  11.222
38300W        W 6518   3.495  19.751   0.945
38301W        W 6519  43.900  24.445  13.601
38302W        W 6520  37.090  28.173  12.336
38303W        W 6521  33.162  18.728  14.266
38304W        W 6522  24.470  16.752   2.297
38305W        W 6523  25.646  35.599  11.113
38306W        W 6524  13.285  34.613  11.083
38307W        W 6525  14.230  14.076   4.550
38308W        W 6526  16.295  21.044   2.254
38309W        W 6527  25.028  27.368   2.753
38310W        W 6528  10.869  29.751   1.550
38311W        W 6529  21.275  37.852   2.260
38312W        W 6530  19.656   4.817  12.723
38313W        W 6531  11.746   3.931  11.141
38314W        W 6532  23.134  25.562   3.181
38315W        W 6533  34.477   4.944  12.578
38316W        W 6534  42.575  24.088   1.319
38317W        W 6535  41.778  42.840  10.701
38318W        W 6536   6.352  20.818   1.843
38319W        W 6537  34.084   0.894  14.910
38320W        W 6538   6.730  19.676   0.233
38321W        W 6539  22.312  34.091  11.562
38322W        W 6540  27.534  39.085   4.128
38323W        W 6541  39.119  40.018   0.635
38324W        W 6542  29.569  33.734   0.372
38325W        W 6543  26.946   5.646  11.433
38326W        W 6544   5.353  41.779   3.142
38327W        W 6545  40.474  17.682   0.616
38328W        W 6546  25.891  16.298  11.581
38329W        W 6547  32.380  24.472   4.835
38330W        W 6548  14.363  11.843   4.133
38331W        W 6549   6.862  28.594   2.264
38332W        W 6550  31.678  16.211  12.434
38333W        W 6551  42.821  39.873  13.925
38334W        W 6552  20.402  14.239   4.055
38335W        W 6553  37.522  32.457  14.619
38336W        W 6554  17.807  27.422  11.281
38337W        W 6555  26.639  38.839   0.336
38338W        W 6556  13.911  33.531   2.496
38339W        W 6557  42.945  22.225   2.129
38340W        W 6558   3.635  37.129   2.284
38341W        W 6559  34.111  41.799   2.747
38342W        W 6560  13.775   4.775  14.879
38343W        W 6561   0.184  29.363   0.972
38344W        W 6562  10.236  20.139   4.328
38345W        W 6563  26.464   7.840   4.155
38346W        W 6564  32.194  20.895   2.374
38347W        W 6565   7.496  44.557  13.981
38348W        W 6566  44.668  26.656   2.221
38349W        W 6567   9.913   5.138  10.576
38350W        W 6568  40.190  38.616  14.720
38351W        W 6569  44.387  42.376  10.890
38352W        W 6570  22.714  15.311  14.413
38353W        W 6571  33.842  23.031   3.219
38354W        W 6572  24.485  30.910   3.917
38355W        W 6573  11.615  31.494  11.432
38356W        W 6574  37.654  37.350   0.772
38357W        W 6575   7.613   8.298  12.127
38358W        W 6576   7.194  26.300   1.377
38359W        W 6577  19.699  36.914  12.917
38360W        W 6578  22.565  22.816   4.572
38361W        W 6579  29.678  29.589   4.617
38362W        W 6580   5.290  33.528   0.742
38363W        W 6581  35.892  25.421   3.772
38364W        W 6582  28.282  18.555   2.658
38365W        W 6583  32.868   1.314   1.809
38366W        W 6584  13.766  28.478  12.591
38367W        W 6585  31.908  33.423  12.416
38368W        W 6586  12.649   3.749  11.899
38369W        W 6587   4.291  30.903  14.310
38370W        W 6588  11.790  31.386   0.526
38371W        W 6589  43.648  31.368   0.422
38372W        W 6590  10.671   1.819   0.711
38373W        W 6591  34.395  11.085   1.359
38374W        W 6592  10.281  36.292  10.533
38375W        W 6593  10.372  15.868  13.355
38376W        W 6594  30.957   9.906  10.509
38377W        W 6595   8.072  29.871  11.118
38378W        W 6596  40.265  11.104  11.506
38379W        W 6597  33.177  36.533   4.859
38380W        W 6598  39.957  44.121   3.947
38381W        W 6599   9.232  33.743   0.103
38382W        W 6600   9.139   8.706   2.313
38383W        W 6601  41.559  43.037  10.227
38384W        W 6602  29.039   6.488  14.343
38385W        W 6603  44.921  21.025   0.326
38386W        W 6604  12.240  37.910  11.036
38387W        W 6605  15.758  21.504  14.860
38388W        W 6606  17.051  18.725  13.407
38389W        W 6607  17.312  27.380  12.126
38390W        W 6608   2.802  16.635  14.640
38391W        W 6609  24.042   1.377  10.706
38392W        W 6610   5.806   4.730   2.912
38393W        W 6611  14.179   2.907   2.233
38394W        W 6612   6.282  32.641  11.892
38395W        W 6613  16.302  34.521   3.429
38396W        W 6614  43.040  39.473   1.793
38397W        W 6615  15.376  16.601   9.849
38398W        W 6616  41.432  35.601   1.879
38399W        W 6617  14.760   2.371  14.935
38400W        W 6618  32.372  11.362   2.326
38401W        W 6619  28.916  40.266   1.929
38402W        W 6620  23.512  21.533  14.064
38403W        W 6621  36.482  41.010   1.464
38404W        W 6622  43.221  21.600   4.210
38405W        W 6623  44.925  30.016  12.454
38406W        W 6624   7.406  12.644  12.033
38407W        W 6625   2.680  12.650  12.451
38408W        W 6626   2.883  10.615  13.943
38409W        W 6627  11.107  25.269   4.132
38410W        W 6628  12.800  28.378   2.911
38411W        W 6629  11.667  42.029  11.608
38412W        W 6630  31.626  28.893  12.108
38413W        W 6631  37.529  33.473  14.448
38414W        W 6632  11.349  19.669  11.677
38415W        W 6633  14.415  17.842   2.318
38416W        W 6634  26.465   4.590  14.948
38417W        W 6635  34.603  24.260   4.122
38418W        W 6636  39.016  23.624   4.539
38419W        W 6637   1.036  43.082  14.447
38420W        W 6638  26.189   6.219  14.316
38421W        W 6639  15.297  40.370   0.057
38422W        W 6640  21.819  11.396   2.152
38423W        W 6641  44.452  23.482   1.882
38424W        W 6642  19.954  22.112   0.253
38425W        W 6643  16.385  30.367   4.854
38426W        W 6644  29.937  14.326   4.960
38427W        W 6645  23.906   8.792   2.183
38428W        W 6646  15.362  20.086  12.998
38429W        W 6647  30.585  33.380  10.578
38430W        W 6648  25.670  38.980  10.127
38431W        W 6649   7.168  29.435  11.497
38432W        W 6650  43.072  26.623  13.017
38433W        W 6651  44.021  35.170   2.268
38434W        W 6652  37.519  12.630  12.856
38435W        W 6653  19.963  24.800   5.183
38436W        W 6654  24.553   7.645   3.745
38437W        W 6655  38.116  10.123  11.440
38438W        W 6656  40.474  29.772  13.534
38439W        W 6657  29.046  35.539   2.512
38440W        W 6658   2.957   3.265   1.582
38441W        W 6659  43.541   5.405   1.465
38442W        W 6660   5.875  27.507  13.941
38443W        W 6661  35.364  24.753  12.444
38444W        W 6662  24.615  17.983  12.161
38445W        W 6663   3.250  43.935   0.896
38446W        W 6664  30.680  28.655   1.980
38447W        W 6665  14.917  17.226  12.482
38448W        W 6666  32.915  37.810  10.792
38449W        W 6667  14.242  12.601  12.955
38450W        W 6668  23.390  24.153  11.575
38451W        W 6669  19.759  28.622   1.428
38452W        W 6670  26.927   5.224   0.429
38453W        W 6671  33.702  40.072  12.591
38454W        W 6672  14.567  20.082  11.590
38455W        W 6673  39.495  42.648  10.860
38456W        W 6674  25.543  19.627   5.109
38457W        W 6675  18.196   8.178   3.765
38458W        W 6676   8.209  22.857  12.713
38459W        W 6677  28.593  44.433   3.100
38460W        W 6678   6.470   4.905   1.791
38461W        W 6679   5.955  25.214  12.514
38462W        W 6680  21.151  40.749   0.360
38463W        W 6681  28.834  28.961  14.153
38464W        W 6682  24.214  14.327  14.807
38465W        W 6683  16.819   4.030   1.513
38466W        W 6684  27.573  41.694  14.667
38467W        W 6685  14.627  33.352   1.217
38468W        W 6686  38.357  23.035  10.533
38469W        W 6687  12.762  28.672   4.875
38470W        W 6688  26.531  34.115  14.398
38471W        W 6689   7.912  39.927  13.396
38472W        W 6690  33.187  20.616   1.287
38473W        W 6691  38.589   0.302  10.070
38474W        W 6692   3.987  26.738   2.533
38475W        W 6693  14.296   0.927  12.182
38476W        W 6694  28.639  36.764   1.438
38477W        W 6695   6.213  10.213  13.334
38478W        W 6696  41.533   3.507   3.207
38479W        W 6697  12.648   9.572  10.570
38480W        W 6698  18.056   0.671  12.047
38481W        W 6699  13.819  16.080   2.227
38482W        W 6700  37.467   0.269  14.963
38483W        W 6701  44.414  31.925  14.500
38484W        W 6702  40.809   0.320   0.947
38485W        W 6703  17.704   7.836   3.859
38486W        W 6704   6.282   2.670  12.331
38487W        W 6705  28.234  24.151   0.209
38488W        W 6706  17.745  16.112   0.390
38489W        W 6707  38.081  13.350   1.313
38490W        W 6708   2.292  10.852  12.912
38491W        W 6709  41.765  21.522   1.757
38492W        W 6710  15.953  35.696   2.319
38493W        W 6711  34.493  36.012   3.719
38494W        W 6712  30.720  41.037  14.511
38495W        W 6713  35.144  23.035  11.134
38496W        W 6714  36.883  31.871  14.763
38497W        W 6715  14.082  15.607   2.391
38498W        W 6716  39.315  31.179  10.368
38499W        W 6717  38.010  32.350  12.974
38500W        W 6718  29.583  23.662   4.679
38501W        W 6719  20.298  30.623  11.630
38502W        W 6720   9.764  10.961   4.787
38503W        W 6721  35.095  42.963   5.174
38504W        W 6722  26.115  21.258  12.543
38505W        W 6723  23.226  31.747  11.156
38506W        W 6724  34.156  18.720   3.672
38507W        W 6725   5.355   8.950   4.541
38508W        W 6726  44.066   4.278  12.341
38509W        W 6727  20.671  17.819   2.346
38510W        W 6728  33.180  37.442   1.877
38511W        W 6729  35.058  41.047   3.693
38512W        W 6730  38.041  30.051   2.686
38513W        W 6731  37.398  28.131  13.998
38514W        W 6732  13.768  38.909   4.696
38515W        W 6733  19.371   8.633  14.856
38516W        W 6734  32.968  34.859   2.360
38517W        W 6735  35.187  39.733   3.200
38518W        W 6736  19.561  18.700   3.687
38519W        W 6737  28.857   3.887  12.860
38520W        W 6738  44.950  40.719  11.219
38521W        W 6739  10.321  39.077  11.042
38522W        W 6740  44.886  25.562  13.297
38523W        W 6741   4.819  11.153  12.546
38524W        W 6742   0.557  33.291   0.938
38525W        W 6743   3.454  14.287   3.844
38526W        W 6744  22.645  37.865  12.864
38527W        W 6745  42.937  33.513  11.116
38528W        W 6746  10.677  18.406  12.876
38529W        W 6747  41.735   3.749  14.814
38530W        W 6748   1.158  29.908   1.466
38531W        W 6749  21.204  44.493  12.131
38532W        W 6750  14.881  12.116   2.928
38533W        W 6751  11.213   1.525  14.648
38534W        W 6752  14.241   5.486  14.058
38535W        W 6753  35.905  32.920  11.539
38536W        W 6754  20.775  42.797   4.742
38537W        W 6755   9.243   7.201  11.501
38538W        W 6756  29.467   8.407   0.935
38539W        W 6757  28.473   8.257  11.604
38540W        W 6758   8.384  16.462  12.131
38541W        W 6759   2.388  27.035   4.538
38542W        W 6760  17.720  10.922   4.221
38543W        W 6761  27.539  18.553   2.125
38544W        W 6762  15.648  24.991  14.501
38545W        W 6763  44.892  26.969  10.735
38546W        W 6764  30.707   1.136   4.615
38547W        W 6765  15.614  30.170   3.306
38548W        W 6766  12.809  14.563  10.836
38549W        W 6767  29.447  33.539  12.700
38550W        W 6768  37.310  10.879  12.070
38551W        W 6769   0.077  32.584  12.099
38552W        W 6770  40.159  42.388   1.833
38553W        W 6771  31.506  22.446   3.275
38554W        W 6772  30.671   0.289   4.840
38555W        W 6773  17.486  39.920  14.081
38556W        W 6774  42.832  31.775  12.485
38557W        W 6775  43.983   9.241   1.978
38558W        W 6776  44.254  22.949   3.619
38559W        W 6777  36.342   4.596  10.361
38560W        W 6778  29.462  25.010  12.988
38561W        W 6779  42.789   8.428   1.981
38562W        W 6780  37.891  18.072   1.618
38563W        W 6781   6.984  36.254  13.288
38564W        W 6782  37.354  11.402  10.649
38565W        W 6783  42.575  28.012   1.674
38566W        W 6784  22.976  39.588  14.975
38567W        W 6785   7.267   8.787  11.462
38568W        W 6786   1.569  24.735  11.586
38569W        W 6787  10.412  29.362  14.874
38570W        W 6788   6.816  39.568   3.766
38571W        W 6789  34.771  10.626  12.864
38572W        W 6790  31.083   5.420  11.359
38573W        W 6791   3.822  26.967   1.552
38574W        W 6792   4.965   7.411  12.014
38575W        W 6793  28.972  44.391  12.790
38576W        W 6794  29.594  31.339   3.666
38577W        W 6795  12.819  11.924  14.288
38578W        W 6796  37.116  12.802   3.041
38579W        W 6797  35.643  24.647   1.263
38580W        W 6798  25.096   3.263  12.077
38581W        W 6799  34.685  26.423  10.907
38582W        W 6800  34.864  19.026  13.087
38583W        W 6801   2.772  14.753  13.627
38584W        W 6802  14.617  41.630   4.991
38585W        W 6803   5.296   8.332  10.932
38586W        W 6804  13.264  27.177  11.558
38587W        W 6805  28.845  15.341  13.086
38588W        W 6806  44.936  10.924   3.619
38589W        W 6807  33.285  30.592  11.977
38590W        W 6808  42.004   7.387   4.074
38591W        W 6809  12.306  31.850   2.809
38592W        W 6810  17.245  17.190  12.623
38593W        W 6811  32.003  37.655  13.014
38594W        W 6812  34.086   7.289   0.633
38595W        W 6813  37.834  38.286   2.215
38596W        W 6814  39.230  37.029   0.140
38597W        W 6815  17.764  31.498  11.200
38598W        W 6816  27.232   9.689   4.702
38599W        W 6817   8.733  33.097  12.815
38600W        W 6818   9.176   2.129  13.620
38601W        W 6819  34.444  32.085  14.748
38602W        W 6820  14.518   2.462  12.549
38603W        W 6821   6.867  18.063   1.325
38604W        W 6822  36.377  34.856   0.409
38605W        W 6823  27.102  39.400  13.399
38606W        W 6824  27.949  15.399  14.371
38607W        W 6825  19.083  14.240   2.261
38608W        W 6826   0.775  33.322  11.057
38609W        W 6827   4.011  44.475  12.457
38610W        W 6828  27.627  43.721   2.582
38611W        W 6829   2.029  13.320  12.493
38612W        W 6830  11.525   7.674  14.975
38613W        W 6831  40.271  40.042   2.343
38614W        W 6832  39.390  25.146  13.405
38615W        W 6833  15.306   9.795  12.589
38616W        W 6834   4.855  29.698  11.524
38617W        W 6835   7.373  14.490  12.095
38618W        W 6836  28.716  38.366  10.816
38619W        W 6837  31.137  20.096   4.892
38620W        W 6838  16.126  35.801  12.511
38621W        W 6839  27.414  13.853  10.543
38622W        W 6840   5.889  17.056   3.719
38623W        W 6841   0.601  21.279  11.462
38624W        W 6842  39.443   7.667  12.384
38625W        W 6843   8.126  16.547   3.622
38626W        W 6844  10.156  33.972  11.632
38627W        W 6845  42.296  30.054  13.294
38628W        W 6846   3.585  32.197   3.762
38629W        W 6847   4.911  25.458   3.718
38630W        W 6848  11.567  36.373  12.476
38631W        W 6849  31.878  22.676   3.596
38632W        W 6850  39.088  13.205  12.893
38633W        W 6851  41.492  20.230   2.673
38634W        W 6852  43.897  38.661  12.885
38635W        W 6853  14.653  29.672   1.765
38636W        W 6854  34.638  42.059   1.857
38637W        W 6855  22.162  21.149   2.380
38638W        W 6856  34.627  23.043   3.709
38639W        W 6857  29.738  14.195   0.544
38640W        W 6858  17.744   6.675  11.088
38641W        W 6859   9.325  23.564  12.504
38642W        W 6860   8.625  38.081   3.339
38643W        W 6861  43.064   7.543   3.414
38644W        W 6862  31.654  35.379   2.866
38645W        W 6863  10.364   7.513   0.511
38646W        W 6864   9.252  39.634   2.713
38647W        W 6865   3.212   0.506   2.262
38648W        W 6866  29.087  29.217  13.219
38649W        W 6867   0.296  11.711   1.137
38650W        W 6868  30.308  17.514   3.297
38651W        W 6869  36.435  15.646  13.923
38652W        W 6870  42.855  11.777   4.643
38653W        W 6871  17.784  15.653  14.106
38654W        W 6872  37.347  38.032   2.358
38655W        W 6873  38.087  15.270  14.806
38656W        W 6874  35.775   7.001  13.484
38657W        W 6875  23.971   8.159  12.568
38658W        W 6876   6.340   5.796  11.070
38659W        W 6877   8.309  11.954  10.758
38660W        W 6878  16.317  41.826   5.136
38661W        W 6879  23.935  28.087  14.954
38662W        W 6880  44.296  34.623  10.714
38663W        W 6881  26.783  17.813   5.098
38664W        W 6882   0.075  42.539   3.647
38665W        W 6883  28.881   7.347  13.277
38666W        W 6884  20.568  40.902  14.684
38667W        W 6885  21.269  25.247  11.617
38668W        W 6886  28.021  36.143   4.216
38669W        W 6887  36.026  29.145   4.564
38670W        W 6888  40.576   3.144  13.496
38671W        W 6889  32.613  37.391  13.409
38672W        W 6890  33.094  39.337   2.734
38673W        W 6891   8.265  27.579   3.241
38674W        W 6892  40.028  33.831  12.908
38675W        W 6893  23.499  31.945   0.424
38676W        W 6894  40.493  10.950   1.834
38677W        W 6895  37.624  40.313   0.258
38678W        W 6896   2.825  31.067  13.377
38679W        W 6897   5.858   1.934  12.633
38680W        W 6898  42.531  23.055   4.914
38681W        W 6899   5.816  29.683  12.692
38682W        W 6900  18.089  36.151   3.137
38683W        W 6901  18.319   2.934  13.519
38684W        W 6902  21.076   8.340  10.946
38685W        W 6903  43.854  12.785  10.315
38686W        W 6904  22.330   3.643   1.642
38687W        W 6905   7.612  42.752   3.207
38688W        W 6906  15.547  15.193   2.281
38689W        W 6907  31.443  41.905   2.300
38690W        W 6908  43.457   5.334   0.116
38691W        W 6909  13.073   5.371   2.685
38692W        W 6910  28.869  43.914  13.467
38693W        W 6911  13.898  41.968  14.935
38694W        W 6912  24.569  33.870  11.691
38695W        W 6913  28.167  36.466   2.802
38696W        W 6914  23.627  10.834  13.053
38697W        W 6915   2.097   6.743  12.938
38698W        W 6916  22.641   1.547  14.032
38699W        W 6917  33.046  13.168  13.404
38700W        W 6918   7.200  21.599   3.249
38701W        W 6919  18.618  11.237   0.409
38702W        W 6920  19.520   1.418   0.782
38703W        W 6921  32.623   8.706   3.151
38704W        W 6922  21.426   6.413   4.887
38705W        W 6923  28.855  36.138   0.941
38706W        W 6924  22.135  14.220   2.980
38707W        W 6925   8.079  35.823   2.864
38708W        W 6926   9.120  19.218  12.953
38709W        W 6927   1.494  42.788  14.563
38710W        W 6928  26.230  26.024   3.941
38711W        W 6929  25.706  25.005   2.693
38712W        W 6930  10.430  42.905  14.043
38713W        W 6931  31.385  24.013   3.719
38714W        W 6932   1.533  34.007   4.260
38715W        W 6933  14.740  39.555   1.840
38716W        W 6934  12.914  41.793   1.739
38717W        W 6935  43.887  42.325   2.863
38718W        W 6936  35.913  23.149   1.272
38719W        W 6937  20.158  36.565   4.717
38720W        W 6938  40.573  43.052   1.296
38721W        W 6939   6.236  29.671   2.178
38722W        W 6940   7.178  14.200  11.122
38723W        W 6941  36.595  31.244  12.043
38724W        W 6942   7.266  41.418  12.363
38725W        W 6943  40.404  11.381   4.641
38726W        W 6944  20.648  41.322   3.677
38727W        W 6945  25.133  38.003   3.690
38728W        W 6946  42.469   6.363   4.561
38729W        W 6947   7.931  11.884  14.881
38730W        W 6948   4.624  23.543  11.152
38731W        W 6949  35.571  43.391   1.814
38732W        W 6950  30.618  19.888   2.107
38733W        W 6951  21.217  33.914   3.077
38734W        W 6952   6.633  30.922   0.754
38735W        W 6953  43.003   5.721  12.825
38736W        W 6954  36.881  17.731   0.857
38737W        W 6955  17.361  35.332   1.191
38738W        W 6956  11.829  38.338  11.666
38739W        W 6957  43.314  28.622  10.684
38740W        W 6958  11.380  28.944  14.794
38741W        W 6959  41.606   2.652  13.297
38742W        W 6960  33.482   6.274   2.794
38743W        W 6961  39.793   4.195   1.934
38744W        W 6962  39.468  20.026   1.704
38745W        W 6963  36.055  17.166   2.030
38746W        W 6964  12.413  34.532   1.953
38747W        W 6965  11.756  24.432  11.218
38748W        W 6966   2.929  31.906  13.091
38749W        W 6967  18.321   9.715   5.027
38750W        W 6968  36.909  36.133  14.411
38751W        W 6969  12.361  36.884   3.116
38752W        W 6970  25.458  14.888  14.807
38753W        W 6971  12.292  29.215  10.677
38754W        W 6972  24.541  37.405  10.920
38755W        W 6973  36.538  12.147   1.485
38756W        W 6974  33.135  25.022  13.009
38757W        W 6975  30.047  12.622  11.376
38758W        W 6976  34.855  16.414  12.625
38759W        W 6977  12.782  14.803   1.904
38760W        W 6978  13.875  41.892   2.852
38761W        W 6979  21.756   3.489  12.423
38762W        W 6980  43.556  17.330  14.974
38763W        W 6981   1.609  38.884   3.249
38764W        W 6982  37.395  37.794  12.311
38765W        W 6983  19.821  28.867   1.891
38766W        W 6984  23.874  27.665   9.916
38767W        W 6985  10.128   6.639  12.468
38768W        W 6986  37.798  20.520   0.762
38769W        W 6987   2.713   8.310  11.276
38770W        W 6988  38.500  41.699  14.341
38771W        W 6989  26.664  24.739   0.512
38772W        W 6990  26.052  11.340   3.876
38773W        W 6991  14.700  31.852  11.305
38774W        W 6992  25.934   5.362  11.595
38775W        W 6993  15.278  13.387  10.298
38776W        W 6994  28.547  33.250  12.898
38777W        W 6995  43.323  32.075   4.197
38778W        W 6996  26.728   2.686  11.255
38779W        W 6997  18.844   9.725   2.135
38780W        W 6998  17.672  31.902  12.329
38781W        W 6999  11.775  21.581   0.205
38782W        W 7000  15.202  36.977   4.601
38783W        W 7001  39.481  24.648  14.778
38784W        W 7002  36.454  31.423  10.619
38785W        W 7003  37.424  43.829  11.588
38786W        W 7004  29.572  41.057  12.499
38787W        W 7005  11.273  23.219   3.349
38788W        W 7006  35.495  37.856  13.385
38789W        W 7007   8.406  39.914   5.006
38790W        W 7008  43.974   0.475   3.843
38791W        W 7009  43.783  14.182   3.058
38792W        W 7010  31.613   3.658  13.883
38793W        W 7011  44.764  18.161   0.273
38794W        W 7012  16.433  33.097  12.897
38795W        W 7013  30.861  18.627  13.036
38796W        W 7014  25.402  32.465   2.305
38797W        W 7015  30.176   1.281   5.209
38798W        W 7016  10.793  22.467   0.440
38799W        W 7017  32.841  44.010   2.763
38800W        W 7018   8.286  16.851   4.007
38801W        W 7019  10.981  38.519  13.859
38802W        W 7020   4.736  17.638   1.746
38803W        W 7021   6.377  11.277   2.066
38804W        W 7022  36.928  24.037   1.270
38805W        W 7023  39.324  32.847  11.932
38806W        W 7024  33.616  11.947  13.036
38807W        W 7025  22.524  13.216  13.972
38808W        W 7026  22.245  22.769  12.804
38809W        W 7027  16.926  21.206  12.476
38810W        W 7028  38.989  39.530   0.772
38811W        W 7029  37.928   0.999  13.918
38812W        W 7030   3.906  16.071   2.260
38813W        W 7031  11.468  42.677   1.168
38814W        W 7032  44.314  37.647   4.552
38815W        W 7033  36.942  30.579   3.618
38816W        W 7034   2.711  28.424   0.895
38817W        W 7035  17.648   1.030  12.018
38818W        W 7036  39.861  22.237  12.304
38819W        W 7037  18.613  28.635   2.828
38820W        W 7038   8.496   3.925  12.998
38821W        W 7039  23.986   2.901   2.226
38822W        W 7040  19.531  41.407   0.280
38823W        W 7041  24.749  26.282  14.867
38824W        W 7042  28.752  16.806   0.249
38825W        W 7043  19.146  42.282   0.125
38826W        W 7044  15.393  24.742  10.726
38827W        W 7045  17.109  32.821   0.743
38828W        W 7046  36.964  14.668   2.281
38829W        W 7047  31.424  25.212   2.881
38830W        W 7048  20.777  34.024  11.421
38831W        W 7049  17.653  27.393  14.370
38832W        W 7050  27.144  30.025   4.265
38833W        W 7051  23.210  40.746  10.456
38834W        W 7052  22.488  32.408  13.989
38835W        W 7053  13.518   0.708  10.732
38836W        W 7054  39.880  23.820  13.673
38837W        W 7055  12.697  24.465  13.397
38838W        W 7056  35.562  32.951   2.734
38839W        W 7057  16.761   0.388  12.794
38840W        W 7058   7.400  30.905  13.408
38841W        W 7059  29.282  27.728  11.061
38842W        W 7060  15.675  12.305   4.364
38843W        W 7061  36.440  38.911  11.892
38844W        W 7062   0.762  34.071  14.207
38845W        W 7063  36.443  44.827   2.695
38846W        W 7064   4.816  42.073   2.373
38847W        W 7065  36.654   4.990  13.630
38848W        W 7066  25.147  19.770   2.707
38849W        W 7067  22.555  37.511   4.496
38850W        W 7068  35.071  41.566  12.763
38851W        W 7069  10.612   4.461   4.335
38852W        W 7070  16.819  16.531   2.796
38853W        W 7071  12.749  25.876  13.516
38854W        W 7072  38.440   5.983  12.446
38855W        W 7073  36.976  29.085   4.963
38856W        W 7074   6.708   2.723  14.408
38857W        W 7075  30.749   1.993   4.281
38858W        W 7076  18.599  32.526   4.113
38859W        W 7077  26.797  24.660   4.246
38860W        W 7078  29.272  29.484  12.390
38861W        W 7079  38.886  36.361  13.520
38862W        W 7080  36.711  37.658  13.822
38863W        W 7081  33.902  37.331  14.206
38864W        W 7082   7.698  11.139  13.090
38865W        W 7083  30.483  27.457   1.251
38866W        W 7084  26.038  19.577  10.442
38867W        W 7085  38.230  35.763   1.331
38868W        W 7086  24.962  42.532   2.267
38869W        W 7087  40.613  34.308   3.406
38870W        W 7088  36.889  12.709  13.466
38871W        W 7089  12.756  21.447  11.615
38872W        W 7090  16.727  25.554  14.719
38873W        W 7091  21.246   7.960  12.618
38874W        W 7092  36.220  27.298   4.773
38875W        W 7093   9.172   1.885   2.252
38876W        W 7094  31.570   1.218   4.986
38877W        W 7095  28.468   7.129   4.776
38878W        W 7096   1.380   4.982  14.019
38879W        W 7097   0.625  30.139  12.006
38880W        W 7098   8.344  14.295  14.723
38881W        W 7099  22.736  37.544  10.759
38882W        W 7100  32.128  26.450   4.408
38883W        W 7101  34.466   0.999  11.685
38884W        W 7102  22.132  35.511  13.775
38885W        W 7103  19.879  44.074  11.781
38886W        W 7104   5.304  42.370   2.315
38887W        W 7105  41.945  35.757   1.878
38888W        W 7106  44.027  28.052   0.125
38889W        W 7107  39.472  41.964  12.962
38890W        W 7108  33.893  26.500  13.923
38891W        W 7109  26.872  41.816   2.331
38892W        W 7110   1.254   3.316   3.353
38893W        W 7111  28.483   4.547   0.503
38894W        W 7112  42.017  30.661  11.597
38895W        W 7113  23.992  36.605  14.458
38896W        W 7114   5.508  30.068  12.582
38897W        W 7115  34.947   8.350  11.086
38898W        W 7116  14.039  26.632   4.129
38899W        W 7117  41.961   5.929   3.751
38900W        W 7118  16.867   4.870  12.455
38901W        W 7119  22.553  41.889   1.228
38902W        W 7120   9.131  15.090   2.939
38903W        W 7121   2.834  33.242  13.044
38904W        W 7122  10.995   2.089   0.406
38905W        W 7123  39.833  16.199   0.962
38906W        W 7124   6.030  21.502  14.862
38907W        W 7125  11.140  10.144  13.847
38908W        W 7126  32.696  19.097  12.502
38909W        W 7127   1.974   9.172  10.698
38910W        W 7128   0.582  24.811  14.896
38911W        W 7129   1.789  43.479   4.169
38912W        W 7130   2.143  12.853  14.807
38913W        W 7131  16.728  30.197  14.035
38914W        W 7132  43.278   9.801   4.608
38915W        W 7133  33.889   2.781  14.538
38916W        W 7134   5.703  10.761  12.124
38917W        W 7135  22.577   4.761   4.767
38918W        W 7136   5.878   3.396  10.391
38919W        W 7137   3.992  30.639   1.518
38920W        W 7138  25.507  44.229   2.941
38921W        W 7139  36.401  39.436  14.200
38922W        W 7140  35.317  19.754  10.718
38923W        W 7141  34.641  17.901  13.173
38924W        W 7142  42.702   4.245   1.523
38925W        W 7143  38.764  37.871   3.192
38926W        W 7144  22.052  26.815   1.471
38927W        W 7145  19.012  27.578  14.608
38928W        W 7146  18.283  40.705  12.427
38929W        W 7147  21.694  39.517  11.304
38930W        W 7148  10.234  22.009  10.650
38931W        W 7149  38.660   1.266   5.435
38932W        W 7150   1.426   4.555  13.686
38933W        W 7151  19.381  18.678  14.317
38934W        W 7152  39.044  43.819   3.082
38935W        W 7153  20.829  43.840   1.966
38936W        W 7154   4.662  11.044   2.707
38937W        W 7155  30.838  13.532   3.610
38938W        W 7156  32.591  19.558  14.136
38939W        W 7157  44.508  19.879  12.548
38940W        W 7158  13.527  41.487  11.805
38941W        W 7159  11.460  17.464  13.832
38942W        W 7160  17.586  27.712  13.499
38943W        W 7161   0.668  44.627   1.764
38944W        W 7162  44.977  34.657  11.977
38945W        W 7163  35.418  37.326  14.712
38946W        W 7164  24.524   2.349  11.388
38947W        W 7165  19.510  37.060   5.058
38948W        W 7166  37.185   3.842   4.907
38949W        W 7167  43.669   9.842  13.839
38950W        W 7168  40.056  30.854   1.256
38951W        W 7169  17.751   7.113  13.440
38952W        W 7170  41.747   5.780   4.198
38953W        W 7171  44.067  15.279   2.373
38954W        W 7172  12.327  23.482   0.064
38955W        W 7173  34.471   9.432   2.813
38956W        W 7174  20.191  44.556   3.629
38957W        W 7175  42.516  29.722   4.609
38958W        W 7176  24.115  23.064   0.544
38959W        W 7177  31.566  15.961   0.914
38960W        W 7178   7.836   3.440  12.034
38961W        W 7179  35.363  19.664  12.553
38962W        W 7180   5.120  13.376  10.737
38963W        W 7181  39.882  26.894   3.179
38964W        W 7182  40.412  17.563  14.145
38965W        W 7183  34.091  20.103  12.466
38966W        W 7184  20.261   0.893   0.232
38967W        W 7185   7.390  34.513  12.587
38968W        W 7186  43.477   0.858   3.140
38969W        W 7187  31.077  23.603   1.821
38970W        W 7188  33.280  32.131   1.954
38971W        W 7189  42.950  40.242  13.586
38972W        W 7190  32.195  19.110  12.427
38973W        W 7191   6.667  17.162  12.475
38974W        W 7192  31.871  42.011  12.850
38975W        W 7193  10.403  10.835  12.636
38976W        W 7194  12.645  42.090  14.554
38977W        W 7195  20.321   8.856  11.601
38978W        W 7196  23.679  29.925   3.357
38979W        W 7197  40.063  38.346   1.783
38980W        W 7198   6.356  16.125   0.776
38981W        W 7199  10.604   0.887  14.270
38982W        W 7200  26.505  10.878  13.569
38983W        W 7201   3.818  20.859  11.004
38984W        W 7202  34.062  16.959   3.265
38985W        W 7203   9.638   7.618   0.817
38986W        W 7204  18.290  35.418   3.517
38987W        W 7205  44.809  30.016   4.916
38988W        W 7206  27.048  31.235  11.155
38989W        W 7207  10.268   2.839  11.927
38990W        W 7208  28.343  44.634  11.966
38991W        W 7209  24.649  15.056   3.173
38992W        W 7210   9.355  10.301   1.428
38993W        W 7211  23.879   9.840  12.030
38994W        W 7212   1.265  14.792   0.312
38995W        W 7213  10.646  40.019   1.789
38996W        W 7214  14.244  40.345   3.223
38997W        W 7215  26.989  14.811  13.512
38998W        W 7216  39.586  28.601   2.179
38999W        W 7217   4.618  29.086  10.825
39000W        W 7218  22.592  32.587  11.666
39001W        W 7219  15.088  34.071  14.472
39002W        W 7220  32.000  15.267   2.438
39003W        W 7221  39.052   9.144   1.300
39004W        W 7222  41.456   5.323   3.296
39005W        W 7223   4.787  17.707   4.592
39006W        W 7224   7.963  38.488  13.124
39007W        W 7225  24.705  21.032   0.693
39008W        W 7226  41.007  16.284   3.434
39009W        W 7227  12.414  40.979  10.688
39010W        W 7228  44.235  19.582  12.881
39011W        W 7229   2.936  38.593  12.966
39012W        W 7230   4.454   8.678  14.972
39013W        W 7231  43.554  28.283  14.918
39014W        W 7232  35.586  18.171  14.367
39015W        W 7233  42.890  29.871  12.418
39016W        W 7234  10.017  40.307   1.568
39017W        W 7235  17.371   6.800  13.858
39018W        W 7236   3.687  24.033   4.874
39019W        W 7237  27.914   0.099   2.400
39020W        W 7238   5.389  33.250  10.464
39021W        W 7239  29.748  20.842  11.965
39022W        W 7240  19.473  26.344  12.571
39023W        W 7241  32.225   4.397   2.693
39024W        W 7242  18.008  26.783  13.331
39025W        W 7243  28.534   8.449  12.101
39026W        W 7244  27.987  14.534   4.104
39027W        W 7245  22.606   5.159  14.255
39028W        W 7246   7.196  18.982  14.412
39029W        W 7247  27.183  11.073  12.677
39030W        W 7248  32.967  26.757   3.796
39031W        W 7249   2.894   5.596  11.779
39032W        W 7250  32.843  25.137  11.996
39033W        W 7251  30.645  25.432   1.283
39034W        W 7252  11.324  12.127  11.184
39035W        W 7253  41.370  21.525   1.365
39036W        W 7254  28.071  38.548   0.297
39037W        W 7255   6.929   9.322  14.496
39038W        W 7256   0.437  11.637   0.018
39039W        W 7257   7.187  22.225   2.102
39040W        W 7258  23.029  32.895   5.375
39041W        W 7259  14.758   8.212  11.075
39042W        W 7260  35.103  21.572  13.350
39043W        W 7261   3.808  11.070   4.721
39044W        W 7262  29.871  36.231   4.274
39045W        W 7263  28.722  44.152  13.975
39046W        W 7264  16.379   5.747   1.714
39047W        W 7265  10.952  43.466  14.330
39048W        W 7266  10.086  33.341  14.540
39049W        W 7267  43.302  22.154   0.207
39050W        W 7268  40.022  28.422   1.991
39051W        W 7269  30.232  29.007  11.644
39052W        W 7270  20.258  29.277  13.032
39053W        W 7271  22.946  19.019   2.707
39054W        W 7272   7.460  39.350  12.393
39055W        W 7273  15.240  20.188   0.337
39056W        W 7274   1.458  41.405  10.448
39057W        W 7275   7.325  37.140  11.482
39058W        W 7276  10.624  20.984   4.026
39059W        W 7277  16.268   3.920   2.234
39060W        W 7278   1.768  26.008  14.210
39061W        W 7279  13.351  25.588  11.556
39062W        W 7280  35.588   7.337  11.828
39063W        W 7281   3.318   5.046   5.002
39064W        W 7282  24.777  27.973   0.225
39065W        W 7283   5.227   4.557   1.790
39066W        W 7284   5.961  10.884  11.292
39067W        W 7285  40.251  39.047  13.098
39068W        W 7286  24.589  42.244  14.923
39069W        W 7287  26.138  17.726  11.893
39070W        W 7288  21.843  28.343   2.825
39071W        W 7289  35.978  21.258   1.164
39072W        W 7290  23.532   2.269   1.856
39073W        W 7291   7.356  34.083  12.293
39074W        W 7292  42.362  23.464   2.181
39075W        W 7293  17.689  29.025   0.761
39076W        W 7294  27.995   3.732  10.553
39077W        W 7295  40.485  43.240   0.828
39078W        W 7296  14.232   8.801   1.175
39079W        W 7297  21.091  38.227  12.371
39080W        W 7298  29.391  26.517  13.740
39081W        W 7299   4.993   8.924   1.687
39082W        W 7300  40.442  11.817   4.935
39083W        W 7301  23.801   9.843  12.934
39084W        W 7302  18.345  44.782  13.814
39085W        W 7303  24.256  11.455  14.691
39086W        W 7304   3.743  30.994  12.915
39087W        W 7305  18.674  28.448  11.840
39088W        W 7306  23.388   3.671   0.812
39089W        W 7307   6.207  43.399  12.353
39090W        W 7308  26.734  25.511   3.210
39091W        W 7309  43.370  19.844   1.244
39092W        W 7310  19.212  42.509  13.624
39093W        W 7311   2.486  44.720   0.833
39094W        W 7312  10.463  39.131   1.256
39095W        W 7313  23.533   7.181  13.546
39096W        W 7314  14.455  40.476  10.797
39097W        W 7315  10.394  29.119   4.092
39098W        W 7316  43.958  14.048  14.961
39099W        W 7317  39.427  42.028   4.845
39100W        W 7318  42.227  23.572   0.695
39101W        W 7319  33.957   9.359   2.753
39102W        W 7320  29.146   6.436   2.414
39103W        W 7321  25.114  32.999   4.032
39104W        W 7322  19.786  43.956  12.296
39105W        W 7323  25.783   3.920   3.826
39106W        W 7324  19.111  42.398   2.276
39107W        W 7325   6.797  17.945  11.189
39108W        W 7326  21.196  27.449   2.278
39109W        W 7327  27.171  44.438   2.850
39110W        W 7328  41.541   1.957   4.118
39111W        W 7329  28.712   1.775   4.318
39112W        W 7330  20.047   2.762   3.361
39113W        W 7331   3.717  23.754  10.824
39114W        W 7332   7.582  28.031  13.265
39115W        W 7333  21.611  20.214   4.556
39116W        W 7334   0.203  27.791   1.823
39117W        W 7335   2.184  13.816   2.681
39118W        W 7336  22.272  15.215   1.231
39119W        W 7337  32.488  25.644   3.388
39120W        W 7338  22.369   3.358  14.258
39121W        W 7339   5.988  37.777  11.932
39122W        W 7340  14.645  29.697  12.132
39123W        W 7341  12.615  37.181  10.591
39124W        W 7342  21.081  10.052   4.671
39125W        W 7343  28.576  25.714  10.337
39126W        W 7344  37.588  13.421   2.783
39127W        W 7345  42.918  13.782   1.767
39128W        W 7346  20.353  34.349  12.466
39129W        W 7347  36.884  14.206  13.065
39130W        W 7348  14.235  23.046   1.714
39131W        W 7349  29.243  32.035  13.926
39132W        W 7350  26.394  36.961   1.690
39133W        W 7351   9.146  18.046  14.360
39134W        W 7352  32.770  20.752  12.543
39135W        W 7353  31.516  29.833  11.181
39136W        W 7354   9.067  21.945   0.055
39137W        W 7355   5.161  27.698  11.894
39138W        W 7356  13.382  18.658  14.403
39139W        W 7357   5.238  37.650   1.866
39140W        W 7358  20.470  31.414   4.950
39141W        W 7359  15.170  36.127   2.258
39142W        W 7360  36.639  13.792  14.882
39143W        W 7361  34.392  22.103  13.569
39144W        W 7362   7.092  12.429  12.969
39145W        W 7363  16.711   1.575   1.787
39146W        W 7364  36.187  28.407   0.453
39147W        W 7365  15.773  38.311   1.696
39148W        W 7366  26.378  24.440   1.986
39149W        W 7367  16.155  44.014  14.918
39150W        W 7368   5.341   4.401   3.811
39151W        W 7369  14.185  26.122   4.128
39152W        W 7370  38.850  29.135   1.789
39153W        W 7371  34.895  22.839   1.349
39154W        W 7372  32.702  43.746  12.403
39155W        W 7373  11.901  28.836  12.705
39156W        W 7374  32.207  30.673  11.733
39157W        W 7375  30.459   6.465  13.346
39158W        W 7376  26.280  22.115  11.591
39159W        W 7377   5.391  26.270   1.604
39160W        W 7378  44.371   0.483   1.813
39161W        W 7379  31.695  32.886   0.635
39162W        W 7380  33.360   7.798   0.524
39163W        W 7381  24.499  28.154   3.165
39164W        W 7382   5.243  12.812   0.876
39165W        W 7383  13.855  18.260   2.343
39166W        W 7384  17.732  20.827   2.671
39167W        W 7385  37.210  36.385   0.006
39168W        W 7386  10.200  13.566   2.132
39169W        W 7387   9.158  31.455  12.539
39170W        W 7388   9.246   3.929   3.571
39171W        W 7389  17.068  29.947  11.195
39172W        W 7390  15.621   6.214   3.611
39173W        W 7391   4.721  30.895  10.706
39174W        W 7392  25.712  30.723   5.256
39175W        W 7393  31.521  26.114   2.810
39176W        W 7394  17.746  33.932  12.653
39177W        W 7395  26.446  21.237   0.326
39178W        W 7396  22.435  23.016  13.335
39179W        W 7397  21.651  23.899  11.599
39180W        W 7398  17.266  25.260   5.093
39181W        W 7399   4.752  29.072   2.829
39182W        W 7400  11.340  24.095   4.604
39183W        W 7401  25.121  27.905   0.608
39184W        W 7402  43.908  27.473   3.962
39185W        W 7403  42.726   9.716   1.729
39186W        W 7404   7.891  18.053  11.069
39187W        W 7405  39.012   5.293   2.234
39188W        W 7406  38.520  18.348  11.216
39189W        W 7407  32.003   8.799  10.702
39190W        W 7408  16.082  16.065  13.073
39191W        W 7409   1.197  27.650   3.249
39192W        W 7410  24.660  29.416   1.306
39193W        W 7411  23.836  38.537  12.144
39194W        W 7412  25.062  18.754  14.076
39195W        W 7413  38.526  32.167   2.367
39196W        W 7414  30.582  38.333  14.395
39197W        W 7415  16.730   1.804   1.313
39198W        W 7416  11.304   2.238   3.198
39199W        W 7417  30.947   0.716   4.818
39200W        W 7418   3.214  12.878   3.745
39201W        W 7419  19.717  38.110   1.486
39202W        W 7420  29.406  15.389   2.089
39203W        W 7421  42.560  34.390   1.784
39204W        W 7422  13.156  37.363   3.182
39205W        W 7423  13.594  32.122  10.538
39206W        W 7424  20.066  14.457   0.386
39207W        W 7425  39.508  11.803  11.194
39208W        W 7426   2.784  37.588  10.354
39209W        W 7427  30.490   8.395  12.921
39210W        W 7428  41.972  19.855  12.629
39211W        W 7429   6.900  38.486  13.234
39212W        W 7430   3.479  18.632   3.601
39213W        W 7431  13.392   2.282   3.640
39214W        W 7432  17.081   6.758   4.557
39215W        W 7433  11.358  14.950   1.491
39216W        W 7434  38.160  10.270   4.965
39217W        W 7435   6.245  35.054   3.578
39218W        W 7436  21.678  36.094   2.660
39219W        W 7437  30.104  37.554  13.049
39220W        W 7438  30.867  43.353   3.200
39221W        W 7439  42.545  21.225   3.847
39222W        W 7440  11.645   3.444   3.171
39223W        W 7441  44.051   6.780   1.803
39224W        W 7442  41.567   3.023   0.862
39225W        W 7443  12.583  38.981  11.437
39226W        W 7444   2.512  28.051  10.504
39227W        W 7445   5.775   2.904   1.402
39228W        W 7446  11.337   3.655   0.814
39229W        W 7447  31.891  17.494   0.778
39230W        W 7448  40.928   2.118  14.137
39231W        W 7449  14.392  14.849   3.179
39232W        W 7450  26.361   0.427  10.523
39233W        W 7451  32.059  34.257   3.548
39234W        W 7452  26.222   0.321  12.915
39235W        W 7453  20.247   1.150  14.774
39236W        W 7454  36.010  24.042  14.578
39237W        W 7455   2.259  13.545  14.057
39238W        W 7456  25.922  11.095  12.076
39239W        W 7457   3.419  40.334  13.355
39240W        W 7458  20.225  23.147   2.273
39241W        W 7459  23.485  22.022   4.134
39242W        W 7460  31.867  34.233  13.019
39243W        W 7461  26.989  25.252   2.772
39244W        W 7462  35.413  26.672   1.735
39245W        W 7463  24.238  24.952   4.649
39246W        W 7464  41.092  21.051   4.666
39247W        W 7465  36.517  11.953  12.388
39248W        W 7466   1.817  37.542   0.941
39249W        W 7467  22.203  39.594  14.388
39250W        W 7468   4.460  20.319   1.758
39251W        W 7469  43.883  36.373  12.422
39252W        W 7470   6.115   3.724   2.311
39253W        W 7471  26.538   9.928   0.069
39254W        W 7472  13.989  30.944   3.321
39255W        W 7473  23.016  37.040   4.079
39256W        W 7474  30.599  23.593   2.365
39257W        W 7475  18.290  11.500   1.598
39258W        W 7476  42.940  17.324  13.681
39259W        W 7477  34.936  39.041  10.310
39260W        W 7478  17.807   8.842  13.582
39261W        W 7479  22.705  15.648  11.274
39262W        W 7480   6.413  38.549   2.789
39263W        W 7481   3.275  20.909   1.821
39264W        W 7482  40.503  19.128  10.623
39265W        W 7483  20.232  25.292   0.623
39266W        W 7484  40.506  16.327   1.792
39267W        W 7485  31.004  18.117   4.209
39268W        W 7486  29.392  21.231   2.249
39269W        W 7487   3.392  44.980   4.141
39270W        W 7488  23.297   2.830   4.058
39271W        W 7489  39.924  16.716  10.881
39272W        W 7490  13.878   4.307   0.358
39273W        W 7491   8.166  37.859   4.399
39274W        W 7492   7.950  42.275  11.120
39275W        W 7493  22.656   3.949  11.677
39276W        W 7494  41.280  23.254   4.190
39277W        W 7495   5.398  36.117  13.303
39278W        W 7496  37.440   7.742   2.999
39279W        W 7497   2.309  31.669  12.517
39280W        W 7498  24.657  41.199  12.134
39281W        W 7499  19.070  36.592  10.267
39282W        W 7500  28.912  37.671  12.075
39283W        W 7501  36.664   2.309   1.325
39284W        W 7502   9.839  27.156   2.877
39285W        W 7503  42.545  39.972  11.528
39286W        W 7504  22.465  44.774  14.332
39287W        W 7505  41.929   8.750   3.351
39288W        W 7506   5.320  32.621   1.847
39289W        W 7507  26.568  23.780   4.504
39290W        W 7508  21.085  33.456   3.766
39291W        W 7509  40.934  34.594   2.674
39292W        W 7510  32.876  43.979  13.032
39293W        W 7511  39.713  43.346  11.118
39294W        W 7512   7.903  38.986   0.230
39295W        W 7513  21.203  19.524   4.465
39296W        W 7514  12.338  29.451   3.728
39297W        W 7515  18.327  30.923   0.808
39298W        W 7516  12.464  39.875   0.485
39299W        W 7517   9.821  12.860  10.700
39300W        W 7518  34.469  21.544  11.204
39301W        W 7519   8.051  21.496  10.717
39302W        W 7520  33.863  22.091   3.194
39303W        W 7521  28.558   3.767  14.294
39304W        W 7522   9.475  25.462   0.991
39305W        W 7523  10.858  30.727   4.012
39306W        W 7524  11.632   5.128   3.807
39307W        W 7525  12.235   9.242  11.179
39308W        W 7526  39.577  33.573   3.175
39309W        W 7527  31.129  35.866  10.251
39310W        W 7528  12.672   9.606   2.301
39311W        W 7529  41.808  30.912   2.007
39312W        W 7530   6.030  19.069  12.006
39313W        W 7531   8.827  29.635   2.856
39314W        W 7532  44.989  23.160  14.437
39315W        W 7533  27.368   6.840   2.467
39316W        W 7534  18.148  37.599  12.005
39317W        W 7535  44.467  16.794  12.372
39318W        W 7536  26.390  27.028   2.060
39319W        W 7537   3.233   9.710  13.719
39320W        W 7538  16.779  43.293   1.855
39321W        W 7539  17.768  16.434  10.710
39322W        W 7540  14.551   1.761  13.033
39323W        W 7541  24.623   6.918   4.248
39324W        W 7542  35.934  30.658   0.580
39325W        W 7543  41.406  16.179   0.018
39326W        W 7544  21.289  12.533   4.257
39327W        W 7545  43.740   9.651   1.735
39328W        W 7546   7.827  11.432   2.156
39329W        W 7547   2.345  37.807  10.544
39330W        W 7548  12.883  20.723  10.767
39331W        W 7549  10.001  21.694   0.387
39332W        W 7550  25.719   8.387   1.321
39333W        W 7551   4.843  35.369   0.694
39334W        W 7552  25.166  27.318  12.532
39335W        W 7553  36.183   9.532  12.562
39336W        W 7554  15.726  42.767  10.412
39337W        W 7555  16.012  35.893   4.617
39338W        W 7556  37.390  44.407   0.591
39339W        W 7557  20.411   7.991   4.508
39340W        W 7558  18.978   4.725  12.786
39341W        W 7559  27.339   7.473  13.519
39342W        W 7560  38.506  34.690   4.138
39343W        W 7561   6.153  39.899  13.417
39344W        W 7562  35.970  16.728  13.494
39345W        W 7563  28.029   5.879   2.459
39346W        W 7564  13.727   7.123   2.412
39347W        W 7565  14.724  38.963   4.379
39348W        W 7566  44.527  21.981   3.635
39349W        W 7567  35.633   9.400   3.759
39350W        W 7568  41.850   9.263   4.640
39351W        W 7569  11.580  39.154   1.268
39352W        W 7570  25.119  39.423  11.799
39353W        W 7571  27.993  13.770   0.418
39354W        W 7572   3.831  14.803  14.509
39355W        W 7573   0.499  16.291  13.044
39356W        W 7574  22.372  41.498   2.447
39357W        W 7575  30.852  14.769   2.409
39358W        W 7576  12.481  18.286   3.589
39359W        W 7577  43.801  38.902   1.018
39360W        W 7578  22.287  17.502  14.940
39361W        W 7579  14.579  20.196  13.988
39362W        W 7580   6.722   1.946  12.736
39363W        W 7581  30.820  32.510  14.456
39364W        W 7582  18.131  10.099   1.183
39365W        W 7583  31.671  15.811  13.910
39366W        W 7584   3.771   7.544  14.736
39367W        W 7585  13.317  44.122   2.411
39368W        W 7586   6.129  40.320   9.488
39369W        W 7587  10.512  35.022   4.404
39370W        W 7588  35.131  41.438   4.775
39371W        W 7589  37.887  14.943  11.527
39372W        W 7590  40.380   0.545   3.748
39373W        W 7591   3.304  32.944  14.092
39374W        W 7592   1.145  41.909  11.501
39375W        W 7593  25.268  26.163   3.102
39376W        W 7594  12.416  20.317   3.615
39377W        W 7595  13.058  30.157  11.662
39378W        W 7596   2.979  21.149  13.085
39379W        W 7597  29.728  10.385   3.177
39380W        W 7598  23.067   7.406  11.567
39381W        W 7599  35.547  44.214  11.999
39382W        W 7600  44.081  44.339  12.145
39383W        W 7601  14.038  26.471  11.219
39384W        W 7602  15.737  17.242   0.252
39385W        W 7603  40.851  42.874   3.607
39386W        W 7604  21.048   8.741   0.961
39387W        W 7605  33.142  44.896  11.225
39388W        W 7606  28.062   0.565  13.578
39389W        W 7607  36.458  44.742  10.438
39390W        W 7608  43.953   8.447   2.857
39391W        W 7609  28.121  11.598   3.133
39392W        W 7610  36.767  18.743   1.141
39393W        W 7611   2.297  31.778  13.455
39394W        W 7612  17.381  16.762   0.017
39395W        W 7613   6.422  43.480   1.414
39396W        W 7614  10.647  14.030  11.492
39397W        W 7615  32.097  44.278  14.080
39398W        W 7616  38.313  18.039  12.673
39399W        W 7617  43.917   6.789   4.662
39400W        W 7618   5.048   5.679  13.525
39401W        W 7619   8.697  24.988   0.367
39402W        W 7620  15.009  16.178  11.054
39403W        W 7621  16.189  44.455   3.870
39404W        W 7622  26.136   7.170  11.890
39405W        W 7623  32.137  21.984   4.961
39406W        W 7624  41.928  43.029   2.818
39407W        W 7625  30.188  29.916  11.612
39408W        W 7626  34.718  36.206  10.480
39409W        W 7627  13.297   5.857  12.600
39410W        W 7628  31.636  14.596  13.330
39411W        W 7629   5.129  17.631   3.684
39412W        W 7630   7.475  25.685   4.630
39413W        W 7631   4.747  40.401  10.436
39414W        W 7632  25.539  15.776   3.895
39415W        W 7633  34.158   4.681   0.025
39416W        W 7634  42.995  11.014   3.874
39417W        W 7635  36.512   3.213  14.026
39418W        W 7636  15.184  28.687  11.611
39419W        W 7637  39.364  33.034  14.765
39420W        W 7638  17.172  41.938   3.956
39421W        W 7639  19.606  44.387  12.609
39422W        W 7640  22.508  30.973  14.255
39423W        W 7641  22.612  41.450   4.757
39424W        W 7642  37.596  30.556   2.375
39425W        W 7643  25.060  11.644   1.476
39426W        W 7644  42.010  35.584   1.030
39427W        W 7645   2.012  37.974   1.163
39428W        W 7646   4.766   1.698   0.259
39429W        W 7647  39.305  36.163   4.431
39430W        W 7648  34.135  16.022  10.931
39431W        W 7649  18.926  25.490  11.182
39432W        W 7650  34.416  19.224  14.473
39433W        W 7651   9.191  28.545   0.330
39434W        W 7652  29.974  24.154  11.369
39435W        W 7653  16.995  23.145  10.267
39436W        W 7654  17.128  14.361  14.751
39437W        W 7655  35.027  20.515   3.919
39438W        W 7656   2.715   3.368   4.136
39439W        W 7657   8.609  37.139  12.124
39440W        W 7658  34.204   2.291  11.929
39441W        W 7659  23.949  32.426   1.951
39442W        W 7660  40.873  36.303   3.633
39443W        W 7661  11.851  40.609   2.916
39444W        W 7662  39.855  30.020   0.867
39445W        W 7663  11.239  40.293   0.103
39446W        W 7664  32.950  38.886  14.597
39447W        W 7665  19.073   5.628   4.551
39448W        W 7666  23.965  37.813  13.943
39449W        W 7667  31.644  23.460   3.149
39450W        W 7668  12.348  19.922   4.417
39451W        W 7669  13.112   3.458  14.744
39452W        W 7670  19.414  33.571  10.721
39453W        W 7671  38.941  43.333   2.672
39454W        W 7672  43.910  17.335   3.133
39455W        W 7673   2.115  27.607  11.584
39456W        W 7674  27.110  16.431   1.283
39457W        W 7675  30.546   1.871  11.568
39458W        W 7676  25.647  38.026   0.903
39459W        W 7677  10.766   1.379  13.387
39460W        W 7678   5.794   8.906  13.653
39461W        W 7679  20.085  22.937   4.543
39462W        W 7680  39.397   6.318   2.598
39463W        W 7681  30.444   2.950   3.641
39464W        W 7682   3.641  34.488  13.594
39465W        W 7683  15.167  30.459  13.574
39466W        W 7684  35.862  30.118   4.897
39467W        W 7685  19.154  34.139   2.240
39468W        W 7686  20.062  38.511   2.352
39469W        W 7687  34.966  29.425  13.801
39470W        W 7688  43.342  39.177   0.288
39471W        W 7689  23.037  42.343   1.085
39472W        W 7690  22.222  23.982   2.212
39473W        W 7691  10.941  13.706  13.317
39474W        W 7692  35.785  42.263   2.249
39475W        W 7693  28.300  21.597  11.174
39476W        W 7694  13.162  21.312  13.752
39477W        W 7695   0.896  41.429   5.112
39478W        W 7696   8.544  10.660   0.318
39479W        W 7697  21.200  28.114  13.885
39480W        W 7698  11.673  21.744   3.797
39481W        W 7699  22.789  20.311   0.856
39482W        W 7700  38.566   7.138   1.305
39483W        W 7701  43.780  44.828   2.571
39484W        W 7702  34.284  11.262   4.052
39485W        W 7703   0.255  23.164   3.430
39486W        W 7704  19.330  25.411  12.942
39487W        W 7705  17.096  15.551   2.870
39488W        W 7706  12.627  21.251  14.028
39489W        W 7707   2.481  31.143   0.387
39490W        W 7708  18.318   4.464   4.503
39491W        W 7709   6.445  36.314   3.967
39492W        W 7710  15.538  32.526   3.627
39493W        W 7711  42.900   4.861  13.377
39494W        W 7712  21.166  13.817   4.295
39495W        W 7713  42.365  17.092   2.952
39496W        W 7714   9.801  14.280  13.320
39497W        W 7715   7.824  21.751   4.321
39498W        W 7716  18.012   4.241   1.648
39499W        W 7717  44.271  40.106  10.171
39500W        W 7718   1.134   1.936   0.133
39501W        W 7719  12.823   1.424  11.559
39502W        W 7720   0.702  41.858   3.500
39503W        W 7721   3.841  10.820  11.378
39504W        W 7722   3.887  17.655   3.051
39505W        W 7723  32.062  10.832   2.757
39506W        W 7724   5.658  32.034   4.059
39507W        W 7725  44.794  42.039  11.651
39508W        W 7726  31.620   9.375   2.630
39509W        W 7727  11.833  15.701   3.426
39510W        W 7728  41.311  32.798   0.701
39511W        W 7729   1.268  24.425   4.348
39512W        W 7730  39.432  42.008  11.549
39513W        W 7731  22.791   8.892   1.833
39514W        W 7732  24.853  24.501  12.455
39515W        W 7733  28.801  29.537  11.682
39516W        W 7734  21.083  37.501  11.890
39517W        W 7735  39.483  31.992   2.317
39518W        W 7736  23.690  17.582   4.540
39519W        W 7737  15.827  40.541   2.724
39520W        W 7738  19.151  41.399   4.523
39521W        W 7739  24.700  10.112   0.739
39522W        W 7740  26.023  30.474  14.243
39523W        W 7741  19.051  18.780  11.459
39524W        W 7742  30.838  27.671   9.845
39525W        W 7743  24.914  23.201   3.226
39526W        W 7744  24.602   8.859  13.657
39527W        W 7745  13.701   9.860  11.597
39528W        W 7746   6.203   4.306   4.193
39529W        W 7747   2.003   4.852   2.480
39530W        W 7748  23.221  18.805  14.685
39531W        W 7749  25.767  35.418  13.026
39532W        W 7750   9.688   0.204  11.185
39533W        W 7751   1.063   4.728   0.904
39534W        W 7752  22.556   1.234   1.773
39535W        W 7753   8.616  19.536  11.195
39536W        W 7754  12.229  13.718  10.717
39537W        W 7755  40.389  23.243   2.306
39538W        W 7756  14.859   2.208   1.283
39539W        W 7757  39.497   3.733  11.627
39540W        W 7758   2.103  24.563   2.722
39541W        W 7759  12.342  43.687  13.809
39542W        W 7760  19.983  14.897  14.089
39543W        W 7761  19.277   0.055   0.604
39544W        W 7762  12.204  41.301  13.067
39545W        W 7763   7.303  12.314  13.805
39546W        W 7764   6.957  12.154   3.196
39547W        W 7765   5.169   2.593  13.435
39548W        W 7766  22.664  43.774   4.089
39549W        W 7767  13.627  20.714   0.812
39550W        W 7768   8.731  15.142  10.737
39551W        W 7769  20.389  39.527  13.254
39552W        W 7770  34.752  18.303  11.125
39553W        W 7771  44.939  25.654   0.211
39554W        W 7772  33.993   5.830  14.062
39555W        W 7773  35.864  41.693  13.785
39556W        W 7774  42.058  28.414   4.568
39557W        W 7775  38.510  22.166   4.016
39558W        W 7776   4.965  26.530   2.906
39559W        W 7777  40.548  13.724  13.996
39560W        W 7778  39.386  21.700   3.711
39561W        W 7779   6.735   6.800   2.202
39562W        W 7780  32.594  21.785  10.899
39563W        W 7781  17.529  44.676  11.688
39564W        W 7782   5.437   4.348   2.799
39565W        W 7783  21.147  39.807   2.659
39566W        W 7784  11.149  37.887  12.605
39567W        W 7785  18.074  12.679  11.485
39568W        W 7786  12.825  26.618   3.234
39569W        W 7787  26.553  25.413  10.250
39570W        W 7788  18.293  31.356  14.035
39571W        W 7789  22.364   7.012   0.885
39572W        W 7790   7.961  40.881   5.350
39573W        W 7791  11.218  10.023  14.712
39574W        W 7792   9.290  33.912  11.099
39575W        W 7793  19.577  26.250  11.477
39576W        W 7794  40.770  44.518  10.786
39577W        W 7795  22.953  22.206  13.057
39578W        W 7796  23.158  12.606  10.699
39579W        W 7797  15.223   8.330   2.310
39580W        W 7798  23.495  30.434   2.077
39581W        W 7799  14.628  34.891   1.362
39582W        W 7800  24.919  16.141   0.460
39583W        W 7801   2.521  11.391   0.874
39584W        W 7802   2.545  12.652  10.202
39585W        W 7803  32.294  17.606   2.398
39586W        W 7804  20.836  37.915   1.915
39587W        W 7805  20.224  16.836  12.594
39588W        W 7806  24.343  40.101   4.049
39589W        W 7807  16.397  16.667  12.019
39590W        W 7808  13.262  32.322   4.559
39591W        W 7809   1.988  44.352   4.203
39592W        W 7810   3.957  43.697  13.311
39593W        W 7811   7.681  35.072  14.894
39594W        W 7812   5.349  42.047   1.628
39595W        W 7813  17.713  12.581   9.864
39596W        W 7814  35.769  21.571  12.107
39597W        W 7815  19.379   5.465  14.426
39598W        W 7816   3.396  18.818   1.420
39599W        W 7817   5.762   7.341  14.642
39600W        W 7818  23.007   7.881  14.268
39601W        W 7819  24.981   0.042   1.576
39602W        W 7820  29.713  30.430   4.561
39603W        W 7821  28.732  41.303   0.531
39604W        W 7822  39.833   2.534   3.078
39605W        W 7823  37.936  34.417   2.794
39606W        W 7824  21.549  32.996  10.128
39607W        W 7825  30.424   6.316  11.936
39608W        W 7826  26.626  14.593  10.286
39609W        W 7827  26.487  21.057   4.479
39610W        W 7828  23.813  41.137  11.503
39611W        W 7829   3.032  43.301   4.822
39612W        W 7830  17.033   0.762   9.916
39613W        W 7831  22.565  21.687  12.451
39614W        W 7832   0.470   0.874   0.278
39615W        W 7833  27.060  15.746   3.172
39616W        W 7834  15.553  28.569  11.947
39617W        W 7835   3.736  15.088   4.584
39618W        W 7836  43.737   8.149   1.321
39619W        W 7837   6.344  23.159   2.421
39620W        W 7838  17.894  13.031  10.265
39621W        W 7839  34.081   1.201   4.198
39622W        W 7840  42.765  41.833   4.699
39623W        W 7841  22.967  35.316  10.237
39624W        W 7842  29.456  17.283   2.677
39625W        W 7843  11.825  11.734   4.068
39626W        W 7844  11.638  13.132  10.499
39627W        W 7845  19.808  22.035  14.751
39628W        W 7846  17.696   6.833  11.634
39629W        W 7847   4.493  20.057  14.285
39630W        W 7848  24.231   2.806  14.971
39631W        W 7849   6.361  31.712   4.462
39632W        W 7850  25.479  24.906  13.527
39633W        W 7851  36.322   5.362  11.726
39634W        W 7852  21.014  26.101   2.353
39635W        W 7853  20.954  37.056  14.373
39636W        W 7854  24.435  44.020  14.337
39637W        W 7855  30.155  24.924  14.984
39638W        W 7856  40.486  18.496   4.093
39639W        W 7857  24.220  43.762  13.002
39640W        W 7858   1.700  38.251  12.441
39641W        W 7859   4.302  24.125  13.054
39642W        W 7860  33.925   3.015   1.921
39643W        W 7861  16.532  37.963   2.716
39644W        W 7862  27.994  18.706   3.104
39645W        W 7863  11.844   0.318   0.307
39646W        W 7864  12.050  38.944   1.192
39647W        W 7865  32.241  10.358  11.120
39648W        W 7866  43.907  11.537   3.688
39649W        W 7867  26.254   0.824  12.914
39650W        W 7868  34.069  13.890   1.333
39651W        W 7869  21.968   6.586   4.161
39652W        W 7870   3.652  37.983  11.187
39653W        W 7871  43.996  42.507   1.286
39654W        W 7872  34.418  10.088   0.327
39655W        W 7873  21.212  38.825   0.855
39656W        W 7874  44.727  25.096   1.785
39657W        W 7875  30.907  12.773  12.005
39658W        W 7876  17.488   7.318  14.828
39659W        W 7877  21.064  35.453   3.217
39660W        W 7878   3.918  29.448   4.693
39661W        W 7879  28.568   9.741   4.269
39662W        W 7880  18.708  43.865   3.720
39663W        W 7881  42.843  31.897   4.173
39664W        W 7882  42.959  10.231   1.833
39665W        W 7883   8.952   2.151   3.513
39666W        W 7884  18.561  13.340   1.935
39667W        W 7885  44.589  12.083   4.677
39668W        W 7886  22.102  26.037   0.860
39669W        W 7887  44.343  36.943   3.426
39670W        W 7888   8.129   6.508  14.654
39671W        W 7889  14.685  16.165   3.251
39672W        W 7890  18.721  28.597   4.675
39673W        W 7891  13.212   8.800   4.694
39674W        W 7892  12.276  36.968   4.143
39675W        W 7893  24.142  18.708   4.996
39676W        W 7894  41.313  41.107  14.287
39677W        W 7895  14.837  16.227  10.551
39678W        W 7896  43.306  13.975  10.726
39679W        W 7897  28.578  22.233   4.607
39680W        W 7898  12.621  42.789   4.168
39681W        W 7899  34.381  23.278  14.906
39682W        W 7900  36.521  10.888  13.369
39683W        W 7901  25.245  25.261   3.578
39684W        W 7902   9.967  15.450   2.671
39685W        W 7903  40.029  40.590  14.886
39686W        W 7904  30.935   0.246  13.381
39687W        W 7905   6.850   4.231   3.692
39688W        W 7906  39.998  31.372  12.869
39689W        W 7907  37.025  38.981  14.015
39690W        W 7908  42.644  13.189  11.017
39691W        W 7909  21.554  33.856  12.871
39692W        W 7910  36.408   2.264  11.161
39693W        W 7911  41.746  24.014  14.070
39694W        W 7912  27.060  36.325   0.702
39695W        W 7913   2.752  15.589   3.825
39696W        W 7914  40.400  13.920   0.196
39697W        W 7915  41.805  39.516   3.089
39698W        W 7916   3.806  44.676  10.733
39699W        W 7917   5.001  41.268  11.469
39700W        W 7918  27.502  13.737  12.511
39701W        W 7919  35.812  40.792  11.203
39702W        W 7920  23.476  26.296   1.790
39703W        W 7921   8.798  25.898   1.739
39704W        W 7922  22.076   3.523   4.532
39705W        W 7923  26.684  16.156   1.197
39706W        W 7924  26.694  39.244   4.194
39707W        W 7925   4.143  29.018  10.658
39708W        W 7926  13.981  28.251   4.250
39709W        W 7927  14.831  44.049  14.920
39710W        W 7928  22.953   4.267  13.802
39711W        W 7929   4.190  27.195  13.525
39712W        W 7930   2.016   4.245  12.045
39713W        W 7931  42.354  14.299  14.021
39714W        W 7932   1.119  42.817   4.618
39715W        W 7933  27.032  15.801  13.398
39716W        W 7934  37.503  28.645  12.099
39717W        W 7935  43.443  10.630  14.316
39718W        W 7936  13.694   7.378   4.287
39719W        W 7937   5.187  37.584   4.540
39720W        W 7938  24.309  22.001   2.804
39721W        W 7939  12.265  32.384  10.568
39722W        W 7940  42.017  41.465   1.213
39723W        W 7941  15.443  36.024   3.696
39724W        W 7942  31.363  36.382  11.839
39725W        W 7943  14.636   1.508  12.581
39726W        W 7944  22.654  24.622  11.636
39727W        W 7945   9.422  11.616   3.620
39728W        W 7946  29.912  17.853   3.252
39729W        W 7947  20.585  11.186   4.139
39730W        W 7948  24.023  10.482  13.751
39731W        W 7949  18.131  23.275   1.866
39732W        W 7950  15.228   2.175   5.063
39733W        W 7951   7.193  14.850  13.983
39734W        W 7952  30.117  28.150  14.583
39735W        W 7953  17.862  35.306  12.089
39736W        W 7954  23.699  42.077  10.667
39737W        W 7955  12.637  43.512   2.749
39738W        W 7956  15.383   7.976   4.124
39739W        W 7957  30.981  32.073   2.729
39740W        W 7958   5.212  21.402  10.117
39741W        W 7959  36.310   1.766   0.539
39742W        W 7960  21.520  25.476   0.224
39743W        W 7961  39.065  27.209  12.109
39744W        W 7962  34.609  20.152  12.447
39745W        W 7963  19.926   9.171  11.751
39746W        W 7964  27.704  30.215   0.162
39747W        W 7965   3.569   9.141   1.074
39748W        W 7966  13.842  34.413   0.930
39749W        W 7967  40.732  26.990  11.420
39750W        W 7968  18.109  28.347  12.034
39751W        W 7969  22.750  11.163  12.542
39752W        W 7970  35.798  33.136   0.414
39753W        W 7971  44.527  32.023   3.668
39754W        W 7972   3.645  39.453  14.939
39755W        W 7973  24.998  18.321  14.376
39756W        W 7974  30.332  13.344  12.470
39757W        W 7975  17.842  24.504   4.149
39758W        W 7976  21.685  10.214   3.191
39759W        W 7977  34.164  43.803   4.031
39760W        W 7978  24.557   2.219  10.410
39761W        W 7979   3.961  39.395  13.161
39762W        W 7980  40.314  18.032   1.545
39763W        W 7981  19.697  35.041   4.298
39764W        W 7982   2.782   8.911   0.891
39765W        W 7983  39.867  13.116  14.593
39766W        W 7984  18.713  17.109   2.209
39767W        W 7985   0.301   1.337  13.424
39768W        W 7986  26.221  13.248   0.793
39769W        W 7987   7.270   1.755   1.913
39770W        W 7988  40.478  33.598  13.013
39771W        W 7989  15.173  40.413   3.274
39772W        W 7990  42.053  24.065   0.021
39773W        W 7991  12.141   6.085  13.858
39774W        W 7992  37.054   8.887   0.753
39775W        W 7993  14.378   3.246   0.424
39776W        W 7994  34.814  17.823   0.729
39777W        W 7995  10.370  44.356  12.917
39778W        W 7996  39.056  38.461  12.558
39779W        W 7997  29.707   2.234  11.667
39780W        W 7998  37.254  32.410  12.502
39781W        W 7999   4.165  22.150  10.919
39782W        W 8000  40.550  18.699  10.930
39783W        W 8001   2.311  22.266   2.375
39784W        W 8002  19.476  29.907  11.800
39785W        W 8003  34.535  31.424  11.039
39786W        W 8004  33.845  44.457  11.038
39787W        W 8005  22.921   6.122  13.399
39788W        W 8006  19.235  11.917   4.366
39789W        W 8007  10.816   6.573  13.894
39790W        W 8008  36.575  19.780   5.012
39791W        W 8009  21.978  38.926  12.403
39792W        W 8010  31.940   2.920  12.021
39793W        W 8011  19.593  39.823  11.664
39794W        W 8012  24.980  21.463   0.271
39795W        W 8013  42.466  10.268  10.459
39796W        W 8014  34.501  18.943  11.980
39797W        W 8015  16.136  42.974   0.756
39798W        W 8016  17.529  12.216  10.651
39799W        W 8017  29.906  27.002  12.942
39800W        W 8018  28.118  40.372  10.312
39801W        W 8019  42.791   8.021   0.643
39802W        W 8020  13.205   6.587   1.637
39803W        W 8021   3.766  27.739  14.375
39804W        W 8022  39.117  41.391  11.472
39805W        W 8023  37.373  15.860   4.291
39806W        W 8024  19.669  22.200   4.784
39807W        W 8025  29.157  11.220  13.809
39808W        W 8026  44.712  32.176   2.202
39809W        W 8027  29.939  10.433   1.767
39810W        W 8028  15.124  20.187  13.476
39811W        W 8029  28.933  10.722   1.429
39812W        W 8030  39.445  19.200  10.757
39813W        W 8031  38.057  40.534   3.728
39814W        W 8032  11.651  22.526   2.777
39815W        W 8033   5.311  25.111  13.488
39816W        W 8034  27.959  31.159  13.389
39817W        W 8035  44.624  23.934   0.981
39818W        W 8036  19.790  25.466   0.849
39819W        W 8037  44.573  27.850  11.150
39820W        W 8038  15.123  19.703   3.209
39821W        W 8039  22.806  34.167   0.436
39822W        W 8040  16.581  35.626   4.234
39823W        W 8041  25.613  20.198   0.595
39824W        W 8042   6.763  40.431   2.804
39825W        W 8043  33.733  29.429   2.869
39826W        W 8044  32.130  13.268  12.586
39827W        W 8045  17.111   9.806   0.769
39828W        W 8046  22.004  36.878  11.137
39829W        W 8047  29.834  25.705  13.451
39830W        W 8048  44.075   3.887  14.299
39831W        W 8049  15.606  12.166  14.953
39832W        W 8050  34.556  36.110   4.634
39833W        W 8051   7.001  33.107  14.329
39834W        W 8052  18.589  10.616  10.780
39835W        W 8053  20.819  22.262  14.021
39836W        W 8054  43.034  11.338   1.643
39837W        W 8055  17.143  30.549   4.454
39838W        W 8056  28.927  33.365   3.272
39839W        W 8057  15.691  42.064   0.034
39840W        W 8058  30.467  28.625  10.576
39841W        W 8059  13.272  39.311  13.063
39842W        W 8060  41.248   1.945   1.850
39843W        W 8061   7.394  17.050   2.335
39844W        W 8062  35.103  20.657  12.901
39845W        W 8063  41.255  43.923  12.438
39846W        W 8064  14.309  23.305  14.387
39847W        W 8065  23.683  18.801  12.947
39848W        W 8066  36.851  28.021   4.022
39849W        W 8067  32.301  30.854   5.032
39850W        W 8068  41.991  14.796   4.535
39851W        W 8069  27.376   2.982  10.688
39852W        W 8070  37.604   2.049  11.582
39853W        W 8071   3.044  10.785  13.431
39854W        W 8072   0.875  31.644   1.496
39855W        W 8073   3.435   1.000  14.763
39856W        W 8074  43.052   9.137  11.136
39857W        W 8075  28.017  28.220  11.142
39858W        W 8076  42.007  40.213   4.148
39859W        W 8077   3.461  32.872   0.824
39860W        W 8078  28.329  15.295  13.139
39861W        W 8079  22.534  22.466  11.976
39862W        W 8080  33.881  11.139  12.691
39863W        W 8081   0.322  17.728   0.825
39864W        W 8082  32.135  18.038   0.167
39865W        W 8083  14.148  31.642  11.546
39866W        W 8084  41.271  15.623   4.117
39867W        W 8085  34.387  17.709  10.890
39868W        W 8086   1.315  41.493   0.329
39869W        W 8087  31.936  41.485  12.875
39870W        W 8088  12.343  39.809  12.500
39871W        W 8089  26.981  10.689   3.014
39872W        W 8090  29.088  20.351   1.801
39873W        W 8091  38.131  37.536   4.295
39874W        W 8092  33.023  33.438  13.929
39875W        W 8093  26.326  41.520   3.593
39876W        W 8094  13.780  22.186   4.207
39877W        W 8095  43.232  43.001  14.203
39878W        W 8096  23.741  26.377  12.409
39879W        W 8097  24.090  41.770  14.246
39880W        W 8098  15.664  38.853   4.527
39881W        W 8099  41.642   4.725   2.654
39882W        W 8100  13.995  29.879   1.874
39883W        W 8101  34.060   8.836   0.886
39884W        W 8102   1.454   6.410   3.119
39885W        W 8103  33.634  41.232  13.611
39886W        W 8104  40.763  36.459  13.408
39887W        W 8105  20.216  37.584   3.339
39888W        W 8106  16.174  30.689   4.498
39889W        W 8107  34.614  40.425   2.869
39890W        W 8108  11.425  28.772  14.284
39891W        W 8109  34.467  39.956  14.908
39892W        W 8110  14.609   8.771  11.731
39893W        W 8111  10.307  10.983  13.899
39894W        W 8112  33.674  27.149   0.893
39895W        W 8113   3.828  11.946   1.232
39896W        W 8114   6.366  43.746   3.125
39897W        W 8115  32.837  24.508   0.356
39898W        W 8116   9.370  12.128  12.621
39899W        W 8117   5.168   3.823  14.801
39900W        W 8118  35.413  38.608   1.882
39901W        W 8119  12.114   8.860  14.059
39902W        W 8120  23.247  37.512  10.808
39903W        W 8121  19.015  42.505  14.121
39904W        W 8122  31.515  39.632  12.633
39905W        W 8123  15.053  44.042  14.166
39906W        W 8124  21.522  44.910  13.090
39907W        W 8125  40.688   8.531  12.637
39908W        W 8126  23.718  16.598   0.373
39909W        W 8127  20.845   2.011   2.316
39910W        W 8128  11.626   8.767   5.071
39911W        W 8129   8.688  36.017  10.596
39912W        W 8130  27.184  16.744  13.236
39913W        W 8131   9.247  19.229   0.292
39914W        W 8132  10.471   3.343   2.329
39915W        W 8133  12.768  22.752  14.256
39916W        W 8134  10.901   1.365   3.756
39917W        W 8135  41.804  41.977   3.731
39918W        W 8136   9.063   9.763   0.333
39919W        W 8137  32.157  18.470   5.181
39920W        W 8138   5.822  25.657   2.930
39921W        W 8139  14.769  11.395  12.095
39922W        W 8140  30.510   5.485   1.810
39923W        W 8141  39.716  15.584  14.743
39924W        W 8142  24.608  12.099  11.351
39925W        W 8143   7.160  34.592   3.835
39926W        W 8144  26.678   6.787   4.642
39927W        W 8145  30.838  25.211   3.723
39928W        W 8146  37.019   5.551   9.637
39929W        W 8147   1.279  20.576   2.865
39930W        W 8148  20.515   3.893   3.240
39931W        W 8149  19.527  14.826  12.425
39932W        W 8150  20.847  37.534   2.328
39933W        W 8151  17.633   3.711   0.992
39934W        W 8152  20.277  40.872   2.360
39935W        W 8153   1.176   3.195  12.082
39936W        W 8154  21.976   4.397   1.687
39937W        W 8155  21.339  43.112  13.337
39938W        W 8156  15.048  16.707   2.725
39939W        W 8157  21.523  14.899  11.973
39940W        W 8158   7.875   7.220   0.350
39941W        W 8159   3.953  16.104   3.726
39942W        W 8160  15.643  19.054   1.892
39943W        W 8161  22.472  40.334   2.722
39944W        W 8162  40.970   2.862  10.725
39945W        W 8163  38.333  36.937  11.117
39946W        W 8164  30.056  36.288   2.274
39947W        W 8165  13.629  24.467   0.325
39948W        W 8166  16.237  30.161  14.310
39949W        W 8167  31.790   6.400   4.092
39950W        W 8168   9.777  28.601  13.560
39951W        W 8169  40.060  39.759  14.489
39952W        W 8170  35.860  14.161  11.642
39953W        W 8171  17.202   1.000   0.883
39954W        W 8172  14.218  16.088   3.810
39955W        W 8173  21.106   2.864  12.380
39956W        W 8174   9.200  11.182   0.465
39957W        W 8175  15.108  33.121  11.577
39958W        W 8176  20.115  26.067  10.970
39959W        W 8177  12.373   3.465   2.699
39960W        W 8178  36.902  21.798   2.405
39961W        W 8179  12.406  39.422   2.551
39962W        W 8180   8.130  12.903   3.206
39963W        W 8181  40.071  31.147   1.743
39964W        W 8182  43.537  35.657   0.274
39965W        W 8183  12.375  22.436  14.101
39966W        W 8184  34.426  31.912  10.512
39967W        W 8185  20.113   5.422  13.759
39968W        W 8186  33.508  39.307  11.924
39969W        W 8187  13.925  17.932  11.940
39970W        W 8188  36.583  17.883   0.450
39971W        W 8189  16.004  24.573   4.589
39972W        W 8190  28.316   2.157  11.278
39973W        W 8191  24.752   9.372  14.581
39974W        W 8192  36.050  28.422   5.057
39975W        W 8193  34.212  40.069  11.654
39976W        W 8194  28.163  28.283   5.054
39977W        W 8195   6.724  32.644  14.366
39978W        W 8196  14.877  39.306   0.446
39979W        W 8197  36.866  36.990   3.340
39980W        W 8198  12.149  30.141   0.527
39981W        W 8199  39.818  33.042  11.965
39982W        W 8200  14.211   2.209   4.982
39983W        W 8201  10.654  17.634  13.563
39984W        W 8202  41.563  43.974   4.615
39985W        W 8203  30.994  41.728   4.132
39986W        W 8204  44.312   8.309   1.814
39987W        W 8205  20.929  26.414  11.075
39988W        W 8206  10.118  38.456  12.766
39989W        W 8207  16.067  21.548  13.409
39990W        W 8208  36.681  20.581   3.347
39991W        W 8209  15.391  31.395  13.555
39992W        W 8210  40.862  42.075  12.584
39993W        W 8211   5.338  19.106   2.343
39994W        W 8212   1.328  16.092  12.024
39995W        W 8213   4.513  21.107  12.825
39996W        W 8214  40.773  17.145   1.926
39997W        W 8215  35.919  28.943  11.012
39998W        W 8216   4.146   0.939   2.628
39999W        W 8217  19.280  27.567   2.307
40000W        W 8218  15.794  20.829   2.248
40001W        W 8219   1.744  33.908  11.086
40002W        W 8220  16.760  15.673   1.774
40003W        W 8221  33.969   5.618  14.539
40004W        W 8222  23.042  35.520  13.866
40005W        W 8223   9.787  22.751  13.577
40006W        W 8224  32.101  11.781  12.028
40007W        W 8225  17.361  26.432   3.683
40008W        W 8226  38.717   1.836  13.893
40009W        W 8227  42.301  17.797   3.622
40010W        W 8228  29.440   5.899   1.360
40011W        W 8229  39.668  17.767  11.605
40012W        W 8230  41.735  28.056   2.958
40013W        W 8231  17.005  23.380   0.938
40014W        W 8232  22.525  35.821   3.678
40015W        W 8233  38.420  11.269  13.572
40016W        W 8234  31.369   4.148   3.144
40017W        W 8235  35.086  43.264   1.896
40018W        W 8236  23.744  15.345  14.095
40019W        W 8237  41.100  37.583  10.783
40020W        W 8238   2.238  17.847   2.275
40021W        W 8239  21.708  22.603   0.500
40022W        W 8240  30.714  15.805   4.129
40023W        W 8241  18.903  38.298  11.959
40024W        W 8242   8.385   4.396  14.986
40025W        W 8243  17.092  40.779  13.042
40026W        W 8244  21.011  16.122  12.747
40027W        W 8245   4.979   4.890  11.526
40028W        W 8246  43.765  26.491  14.301
40029W        W 8247  28.025  20.152   0.792
40030W        W 8248  20.702  16.447  12.150
40031W        W 8249  16.615  40.163   1.285
40032W        W 8250  19.242  15.811  14.618
40033W        W 8251   9.406  39.554   0.894
40034W        W 8252  44.298  31.185  10.743
40035W        W 8253  18.622   8.769  11.732
40036W        W 8254   2.462  19.145   0.307
40037W        W 8255  28.049  21.085   3.327
40038W        W 8256  18.164  29.261  12.156
40039W        W 8257  31.560  41.607   3.673
40040W        W 8258  37.236   8.923  11.081
40041W        W 8259  13.774  19.215  14.854
40042W        W 8260  21.139  43.542   1.098
40043W        W 8261  11.342   8.763   1.207
40044W        W 8262  42.239  22.868  13.390
40045W        W 8263  41.947  19.252  12.326
40046W        W 8264  43.962   6.444   0.406
40047W        W 8265  20.967  27.524  10.343
40048W        W 8266  41.388  13.303  13.250
40049W        W 8267  29.630  38.630  13.390
40050W        W 8268  31.650  26.621   2.725
40051W        W 8269   3.854  39.091   3.315
40052W        W 8270  27.010   8.675  14.100
40053W        W 8271  12.739  32.543   2.153
40054W        W 8272   2.147  37.388   2.830
40055W        W 8273  20.754  32.029  11.236
40056W        W 8274  25.646   1.966  11.685
40057W        W 8275  18.350   2.532   0.007
40058W        W 8276  24.684  37.709  11.698
40059W        W 8277  12.102   1.342  10.248
40060W        W 8278  26.372  12.735   4.164
40061W        W 8279  22.217   4.308   0.681
40062W        W 8280   1.881  30.841  11.959
40063W        W 8281  31.699  23.957   3.304
40064W        W 8282   1.410  38.852   4.576
40065W        W 8283   3.851  23.270  10.927
40066W        W 8284   7.766  11.567   3.016
40067W        W 8285  37.489  41.732  11.622
40068W        W 8286  41.869  11.333   2.269
40069W        W 8287   1.849  25.144   2.744
40070W        W 8288  30.322  18.459   0.257
40071W        W 8289  12.234  26.400  13.098
40072W        W 8290   2.518   4.187  11.999
40073W        W 8291  44.852  25.641   3.967
40074W        W 8292   1.428  14.762  10.491
40075W        W 8293  44.293  33.189   4.882
40076W        W 8294  44.736  27.038   4.607
40077W        W 8295  10.028  11.346   0.712
40078W        W 8296   6.892  23.013   0.403
40079W        W 8297  43.225  38.714   3.770
40080W        W 8298  20.844  15.093   4.935
40081W        W 8299   6.059  12.895  10.312
40082W        W 8300  24.770  41.723  12.113
40083W        W 8301  20.543  39.345   3.686
40084W        W 8302  21.822  23.207  13.892
40085W        W 8303   9.629   7.669   3.597
40086W        W 8304  43.894  19.371   1.872
40087W        W 8305  41.768   2.345   0.729
40088W        W 8306  22.633  37.059  10.521
40089W        W 8307  39.539  24.716  12.335
40090W        W 8308  42.693  28.565   0.408
40091W        W 8309   8.405   2.931   3.286
40092W        W 8310  42.504  36.507  10.806
40093W        W 8311  43.511   3.904   2.245
40094W        W 8312  34.429  30.902  14.333
40095W        W 8313  41.157  17.287  12.459
40096W        W 8314  22.442  27.826  14.424
40097W        W 8315  36.965   8.274   4.650
40098W        W 8316  20.940  23.671  13.897
40099W        W 8317   8.602  10.863  12.621
40100W        W 8318  29.591  12.673   3.732
40101W        W 8319   5.455  13.773  11.440
40102W        W 8320  26.679   5.017  12.794
40103W        W 8321  37.149  35.796  11.598
40104W        W 8322  16.869  16.077  14.817
40105W        W 8323  42.395  21.278  13.968
40106W        W 8324  13.544  29.989  11.691
40107W        W 8325  29.847   1.764  10.984
40108W        W 8326  28.594   9.076  10.867
40109W        W 8327  19.343  35.062   1.594
40110W        W 8328  27.146   7.856   1.410
40111W        W 8329  26.000  15.639  13.507
40112W        W 8330   0.368  30.657  13.299
40113W        W 8331  38.172   3.586   4.091
40114W        W 8332  22.759  23.985   4.988
40115W        W 8333  40.481   4.490   4.651
40116W        W 8334  34.369  41.316   0.487
40117W        W 8335  14.699  40.011  12.044
40118W        W 8336  17.678  26.140   2.799
40119W        W 8337  10.658  29.508  12.163
40120W        W 8338   2.539  42.787   3.597
40121W        W 8339   6.187  27.147   1.281
40122W        W 8340  33.066   4.293   3.210
40123W        W 8341  25.319  13.650  14.518
40124W        W 8342  23.175  42.424   2.615
40125W        W 8343   5.881  39.811  13.931
40126W        W 8344  32.806  14.891  13.012
40127W        W 8345  17.305  41.011  11.619
40128W        W 8346   7.046  22.207   4.342
40129W        W 8347  23.097  42.295  12.951
40130W        W 8348  28.882  37.846  13.994
40131W        W 8349  35.445  22.266  13.614
40132W        W 8350   5.327  20.240  12.036
40133W        W 8351  29.151  12.416  14.823
40134W        W 8352  36.556   1.851   4.050
40135W        W 8353   0.354   7.769   4.596
40136W        W 8354  32.449  14.680   1.934
40137W        W 8355  16.782  38.369   1.943
40138W        W 8356  41.715  22.138  12.046
40139W        W 8357  40.565   8.886  13.983
40140W        W 8358  19.581  16.726   4.443
40141W        W 8359  36.959  25.122   0.251
40142W        W 8360  20.744   9.277   3.207
40143W        W 8361  42.333  44.005  13.828
40144W        W 8362  34.879  23.653  12.170
40145W        W 8363  16.059  12.758   1.737
40146W        W 8364   9.360  42.499   5.500
40147W        W 8365  10.501  16.734   1.948
40148W        W 8366  15.734  37.625  12.502
40149W        W 8367  15.481  36.386  14.769
40150W        W 8368  17.024   4.438  13.881
40151W        W 8369  39.081  21.334  14.407
40152W        W 8370   8.192  27.594   4.580
40153W        W 8371  39.348  32.617  10.664
40154W        W 8372  15.354  22.021   3.729
40155W        W 8373  21.900  38.975   3.837
40156W        W 8374  38.955   0.762   0.953
40157W        W 8375  28.048  43.970  10.731
40158W        W 8376  24.908  19.835  14.958
40159W        W 8377  17.560  26.954   0.933
40160W        W 8378  25.932  24.458  13.494
40161W        W 8379  31.118   1.213  14.325
40162W        W 8380  21.155  13.777   3.758
40163W        W 8381  17.743  32.471  11.531
40164W        W 8382  24.781  17.870   2.811
40165W        W 8383  23.921  19.661  13.927
40166W        W 8384  20.270  33.624  12.297
40167W        W 8385  38.629  34.502   4.617
40168W        W 8386  30.913  17.676  10.404
40169W        W 8387  28.474   1.930  10.301
40170W        W 8388  26.188  36.033   0.322
40171W        W 8389   1.322  41.848   2.735
40172W        W 8390  25.420  14.420   1.314
40173W        W 8391  26.751  42.304  11.206
40174W        W 8392  39.356  37.354  10.303
40175W        W 8393   5.129  37.412  14.969
40176W        W 8394  20.515   0.003  12.067
40177W        W 8395  24.612  24.976  13.617
40178W        W 8396   9.483   2.462  13.991
40179W        W 8397  25.896  23.514   1.336
40180W        W 8398   3.216  38.137   2.991
40181W        W 8399  44.736  24.057   2.718
40182W        W 8400  28.650  23.942   2.273
40183W        W 8401  12.122  41.085   0.946
40184W        W 8402   2.162  29.534  12.033
40185W        W 8403  13.407  23.012   4.232
40186W        W 8404  10.365   0.469  12.974
40187W        W 8405  21.246  40.922   1.836
40188W        W 8406  10.935  33.970  13.803
40189W        W 8407   1.498  35.427   1.464
40190W        W 8408  42.464  21.225  13.451
40191W        W 8409  37.080  21.076  11.102
40192W        W 8410  10.708  30.494  12.463
40193W        W 8411   2.715   4.849   1.316
40194W        W 8412  22.423  17.077   3.712
40195W        W 8413  43.415  13.082  14.380
40196W        W 8414   7.772  23.190   1.706
40197W        W 8415  22.639   1.732  12.451
40198W        W 8416  20.772  42.998  11.422
40199W        W 8417  40.541  39.993   0.875
40200W        W 8418   7.901  35.012  12.119
40201W        W 8419  31.560  31.050   3.354
40202W        W 8420  39.029  26.591   5.014
40203W        W 8421  23.870  38.814  10.986
40204W        W 8422  26.081  12.576  13.320
40205W        W 8423   2.023  27.567  14.990
40206W        W 8424  16.143  13.187   2.659
40207W        W 8425  17.600  31.556  14.383
40208W        W 8426   4.772   2.681   3.797
40209W        W 8427  21.982  13.261  13.932
40210W        W 8428   1.351  37.570  13.863
40211W        W 8429   6.813   1.018   3.307
40212W        W 8430  16.797  16.273  12.897
40213W        W 8431  43.176  35.864  11.048
40214W        W 8432  33.965  18.341   0.292
40215W        W 8433   7.255  29.097  14.025
40216W        W 8434   4.018  18.213   0.228
40217W        W 8435  23.661  36.800   1.832
40218W        W 8436  29.305  32.153  14.757
40219W        W 8437  16.044  25.131   2.796
40220W        W 8438  24.635  35.960   2.815
40221W        W 8439  17.151  13.664   2.340
40222W        W 8440  37.908  23.985   3.711
40223W        W 8441  39.979  18.748  14.598
40224W        W 8442   1.466  26.448  14.243
40225W        W 8443  34.473  36.469  13.081
40226W        W 8444  41.537  14.576   3.283
40227W        W 8445  35.536  34.370   0.594
40228W        W 8446   6.455  16.013  10.704
40229W        W 8447  31.525  39.815   0.945
40230W        W 8448  39.076   2.271   2.684
40231W        W 8449  25.783  23.808  11.951
40232W        W 8450   3.286  35.444   0.481
40233W        W 8451  40.016   1.247   4.258
40234W        W 8452  12.284  12.285   2.584
40235W        W 8453  33.533  19.671   0.321
40236W        W 8454  13.620  18.642  12.660
40237W        W 8455  39.851  15.053   0.404
40238W        W 8456  42.025  11.229  12.925
40239W        W 8457  15.883  44.140   3.215
40240W        W 8458   6.720   7.620   2.668
40241W        W 8459   6.698  32.943  13.948
40242W        W 8460  44.268  17.257  14.113
40243W        W 8461  28.664  28.078  10.532
40244W        W 8462  43.943  23.697   2.389
40245W        W 8463  43.801  36.541   1.565
40246W        W 8464  38.323  21.760  12.864
40247W        W 8465  13.789  40.046  14.822
40248W        W 8466  11.946   7.514   4.473
40249W        W 8467  11.926  10.857  11.529
40250W        W 8468  42.421   9.400  13.954
40251W        W 8469  13.752  28.134   2.588
40252W        W 8470  14.289  28.699   4.233
40253W        W 8471  30.876  21.585  14.464
40254W        W 8472  24.615  13.217   3.795
40255W        W 8473  37.014  10.881   2.955
40256W        W 8474  22.556   8.295   0.324
40257W        W 8475  23.064  29.311   4.366
40258W        W 8476  14.253  38.869  10.412
40259W        W 8477  36.626   3.742  11.997
40260W        W 8478  35.599  28.578  12.084
40261W        W 8479  20.637   5.943  12.625
40262W        W 8480   6.845  19.282  14.690
40263W        W 8481  38.071  33.304  13.044
40264W        W 8482   0.971  38.976   0.423
40265W        W 8483  30.710   5.097  10.633
40266W        W 8484  31.732  44.065   2.254
40267W        W 8485  16.190  13.485  12.951
40268W        W 8486  36.563  19.576  13.376
40269W        W 8487  14.863  34.072   1.735
40270W        W 8488  28.671  12.927   3.316
40271W        W 8489  28.329  16.796  11.746
40272W        W 8490  21.555  30.859   4.165
40273W        W 8491  18.561  19.636   4.556
40274W        W 8492  40.672  26.144  11.862
40275W        W 8493   4.106  40.960   2.765
40276W        W 8494  31.459  26.187  10.471
40277W        W 8495   3.942  38.936   4.694
40278W        W 8496  23.622  22.623  14.085
40279W        W 8497  29.998  17.601   3.689
40280W        W 8498  23.010  33.638   2.897
40281W        W 8499  28.529  25.529  13.917
40282W        W 8500   6.880  29.365   1.723
40283W        W 8501  36.587  12.069   3.217
40284W        W 8502   4.514   4.898  14.515
40285W        W 8503  20.110  38.309   1.214
40286W        W 8504  11.372  32.923   1.127
40287W        W 8505  26.959   0.272  12.459
40288W        W 8506  36.703  28.669  10.058
40289W        W 8507   2.294  13.275  12.941
40290W        W 8508  33.489  38.464  10.817
40291W        W 8509  24.055  38.039  12.988
40292W        W 8510  32.113  35.795  11.562
40293W        W 8511  18.302  15.218  14.014
40294W        W 8512  23.663  39.392   1.705
40295W        W 8513  24.729  24.042   3.254
40296W        W 8514  43.395  44.798   4.968
40297W        W 8515   0.021   5.958   4.136
40298W        W 8516  36.392  16.297  14.221
40299W        W 8517  30.542  28.515  14.136
40300W        W 8518  34.089  37.144   2.970
40301W        W 8519   7.760  36.159  12.959
40302W        W 8520  37.965  15.197  13.844
40303W        W 8521  22.920  40.422   0.875
40304W        W 8522  18.098   1.283   0.446
40305W        W 8523  32.005  36.153  12.857
40306W        W 8524   5.806  41.864   4.111
40307W        W 8525  33.926  24.665   3.709
40308W        W 8526  37.310  17.059  13.338
40309W        W 8527  33.854  10.473   2.061
40310W        W 8528   9.879  40.760   1.384
40311W        W 8529  34.063  38.016   4.058
40312W        W 8530   7.647  44.245   4.183
40313W        W 8531  28.522  40.695  11.219
40314W        W 8532  25.233  39.330  10.605
40315W        W 8533  39.820  42.348   4.664
40316W        W 8534   6.809  40.252   1.234
40317W        W 8535  24.229   1.765   2.208
40318W        W 8536   6.554  39.447   2.611
40319W        W 8537  17.130  44.517  14.943
40320W        W 8538   5.861  18.245  14.461
40321W        W 8539   8.778  15.315   2.626
40322W        W 8540   4.895   3.920   3.216
40323W        W 8541  40.339  20.473  14.370
40324W        W 8542   0.492   6.925  11.002
40325W        W 8543  39.785  27.759  13.830
40326W        W 8544   1.545  18.128   1.943
40327W        W 8545  34.839  28.530  12.513
40328W        W 8546  14.087  36.382   3.544
40329W        W 8547  37.674  39.589  12.459
40330W        W 8548  12.747   8.091   2.311
40331W        W 8549  40.087  43.366  14.890
40332W        W 8550  13.304  40.269   4.239
40333W        W 8551  28.092   1.251   1.434
40334W        W 8552  40.765  11.016  14.490
40335W        W 8553  30.791  33.809   2.441
40336W        W 8554   7.383   6.407  13.361
40337W        W 8555  24.179  32.146   3.835
40338W        W 8556  10.742  41.771   2.074
40339W        W 8557   9.811  17.795   0.285
40340W        W 8558   4.143  19.019   1.868
40341W        W 8559  34.108  31.514  12.554
40342W        W 8560  30.872  19.567   1.181
40343W        W 8561   5.751  43.464   4.861
40344W        W 8562  10.188  37.608  11.035
40345W        W 8563  21.666  15.211   4.858
40346W        W 8564  24.753  15.346  13.095
40347W        W 8565  28.650  19.202   4.796
40348W        W 8566   8.024  24.608   4.084
40349W        W 8567  41.019   0.948   1.834
40350W        W 8568  34.147   3.022  12.579
40351W        W 8569  38.682  43.915  12.799
40352W        W 8570   5.920  14.771   2.877
40353W        W 8571  21.718  39.659   4.651
40354W        W 8572  44.841  25.698  11.951
40355W        W 8573  40.294  13.927  14.388
40356W        W 8574  44.001  24.752   2.794
40357W        W 8575   3.178  41.896  13.687
40358W        W 8576   7.423   1.861   2.379
40359W        W 8577  43.979   2.414   1.774
40360W        W 8578  30.583  41.881   1.771
40361W        W 8579  21.732  16.985  12.209
40362W        W 8580  24.595  41.963  10.564
40363W        W 8581  16.808  37.575   4.932
40364W        W 8582   8.491  20.281   3.929
40365W        W 8583  11.850  30.052  14.857
40366W        W 8584   0.216  27.926   3.286
40367W        W 8585  35.590  34.514   0.052
40368W        W 8586  42.817  31.516   3.823
40369W        W 8587   5.210   1.113   1.508
40370W        W 8588   8.490   4.961  12.015
40371W        W 8589   5.050   7.651   4.896
40372W        W 8590  31.667  26.161  14.361
40373W        W 8591  19.523  26.784   3.262
40374W        W 8592   1.501  29.644  11.423
40375W        W 8593  30.565   0.704  12.531
40376W        W 8594  33.580  15.075  11.601
40377W        W 8595  27.996  10.884   1.330
40378W        W 8596  12.946  40.400  12.369
40379W        W 8597  15.362  41.465  13.180
40380W        W 8598  29.950  20.351  14.862
40381W        W 8599  10.631  37.151   4.583
40382W        W 8600  39.390  23.148  13.331
40383W        W 8601  33.607  21.642   3.282
40384W        W 8602  24.403  21.587  13.945
40385W        W 8603  21.678  38.726   2.575
40386W        W 8604   4.032  26.584   0.800
40387W        W 8605  12.103  38.500   1.496
40388W        W 8606  14.338  39.956  12.529
40389W        W 8607  29.844   5.904  11.192
40390W        W 8608   3.007  37.342  10.757
40391W        W 8609  12.120  21.055  13.973
40392W        W 8610  28.205  24.229   2.300
40393W        W 8611  37.916  38.100  13.573
40394W        W 8612  33.410  11.731   3.192
40395W        W 8613  19.235   2.189  13.412
40396W        W 8614  32.286  24.105   4.028
40397W        W 8615  34.998   4.821  12.536
40398W        W 8616   3.387  10.764  13.901
40399W        W 8617  22.523  17.261  12.830
40400W        W 8618  38.540  44.410  10.696
40401W        W 8619  27.161   9.279   4.412
40402W        W 8620  30.391  38.898   0.256
40403W        W 8621  17.790  28.216  12.440
40404W        W 8622   1.887   0.538   2.652
40405W        W 8623   0.582  38.594  14.189
40406W        W 8624  15.852   8.984   2.252
40407W        W 8625  42.130  19.658   0.537
40408W        W 8626  39.326  34.099  12.979
40409W        W 8627  34.809   3.446   1.778
40410W        W 8628  36.910  40.927  11.632
40411W        W 8629  24.917  28.978   2.802
40412W        W 8630  42.567   7.864   4.640
40413W        W 8631  31.480  30.931   4.744
40414W        W 8632  34.196  12.209  14.288
40415W        W 8633  44.404  38.675  13.343
40416W        W 8634  44.413  11.755   5.063
40417W        W 8635   2.948  23.592   1.269
40418W        W 8636   3.563  37.402  13.420
40419W        W 8637   9.501  13.340   2.343
40420W        W 8638   9.354  30.404  12.025
40421W        W 8639  36.027  29.986  10.926
40422W        W 8640  38.412   6.702   0.944
40423W        W 8641   2.861  27.391   1.296
40424W        W 8642  22.202  29.146   3.832
40425W        W 8643  21.995  24.525  14.885
40426W        W 8644   4.706  19.384   0.864
40427W        W 8645  27.951  22.531  11.201
40428W        W 8646  30.527  33.456   0.775
40429W        W 8647  36.500  21.978   3.212
40430W        W 8648  24.251  19.076   3.160
40431W        W 8649  14.227  30.692   2.259
40432W        W 8650  36.051   6.201   0.375
40433W        W 8651   6.300  26.045  14.903
40434W        W 8652   8.895  15.653   1.435
40435W        W 8653  32.058   1.511  14.433
40436W        W 8654  18.361  14.920   1.999
40437W        W 8655   3.980  30.287   0.264
40438W        W 8656  28.884  26.123   4.206
40439W        W 8657  41.260  44.413  12.626
40440W        W 8658  25.074  29.042  14.404
40441W        W 8659  15.621  16.845   0.546
40442W        W 8660  23.696   1.752   0.518
40443W        W 8661  33.265  15.541   4.196
40444W        W 8662  28.635  28.820   2.029
40445W        W 8663   7.809  13.580  14.367
40446W        W 8664  42.782   4.783  10.697
40447W        W 8665   8.326   1.160  13.079
40448W        W 8666   8.924  43.946   2.850
40449W        W 8667  16.090  40.941  11.176
40450W        W 8668  26.222  40.541   3.126
40451W        W 8669  17.759  41.943   3.341
40452W        W 8670   7.754  21.295  11.954
40453W        W 8671  36.509  43.263   1.788
40454W        W 8672   6.970   0.476  14.759
40455W        W 8673   2.738  44.266  12.853
40456W        W 8674  22.964  37.798  11.177
40457W        W 8675  39.522   5.772   3.739
40458W        W 8676  35.354  40.813  14.357
40459W        W 8677  34.254   2.403   0.676
40460W        W 8678  29.148  11.688   0.657
40461W        W 8679  33.593  42.519  14.459
40462W        W 8680  28.572  18.576   0.853
40463W        W 8681  24.460  17.231   3.839
40464W        W 8682  25.956  12.750  12.525
40465W        W 8683  42.288   3.572  13.061
40466W        W 8684  31.603   8.782  14.245
40467W        W 8685  42.040  15.193   2.370
40468W        W 8686  11.875  19.494   2.278
40469W        W 8687  42.888  24.217   1.937
40470W        W 8688  13.132  34.357  11.501
40471W        W 8689  39.558  37.207   1.115
40472W        W 8690   9.616  40.567  14.746
40473W        W 8691  37.268  33.963   0.192
40474W        W 8692  30.639  21.117  14.454
40475W        W 8693   3.733  40.561  11.414
40476W        W 8694   9.897   2.771   4.088
40477W        W 8695  16.343  43.960   3.792
40478W        W 8696  31.215  30.746   0.868
40479W        W 8697  25.108  20.582   3.646
40480W        W 8698  10.099  43.289   4.181
40481W        W 8699  40.537  40.869  12.415
40482W        W 8700  13.983  20.823  11.947
40483W        W 8701   1.481  23.704  12.383
40484W        W 8702  20.721   8.445   2.462
40485W        W 8703  43.345  33.853  11.141
40486W        W 8704   3.772   3.651  11.474
40487W        W 8705  18.728   0.803   0.752
40488W        W 8706  25.041  34.147   2.736
40489W        W 8707  32.942  29.219  12.019
40490W        W 8708   3.852  33.079   4.500
40491W        W 8709  18.777  22.750  13.602
40492W        W 8710  31.644  36.532  10.485
40493W        W 8711  32.441  16.106   0.768
40494W        W 8712  28.492  39.154  11.989
40495W        W 8713  39.648  22.812  13.058
40496W        W 8714  23.884  20.975   2.305
40497W        W 8715  26.959  30.408  14.526
40498W        W 8716  38.996  22.057  13.239
40499W        W 8717   3.025  44.931   2.637
40500W        W 8718  15.046  31.811   3.183
40501W        W 8719   8.851  19.874  13.539
40502W        W 8720  43.940  10.216   3.871
40503W        W 8721   4.776  39.892  11.863
40504W        W 8722  18.546  25.097  14.823
40505W        W 8723  37.397  42.127   1.629
40506W        W 8724  41.518  15.534  13.471
40507W        W 8725   0.686   1.403  14.738
40508W        W 8726  35.423  12.327  12.422
40509W        W 8727  31.859  32.042   0.349
40510W        W 8728  38.074  42.900   4.620
40511W        W 8729  39.491   1.408   0.494
40512W        W 8730  41.386   7.193  12.213
40513W        W 8731   7.150  13.911  10.715
40514W        W 8732  12.452  35.648   4.424
40515W        W 8733  27.712   8.599  11.312
40516W        W 8734  34.455  39.681   4.838
40517W        W 8735  17.065  31.475   3.219
40518W        W 8736  33.610   7.819   3.285
40519W        W 8737  15.066   3.951   3.386
40520W        W 8738  30.914  13.366   1.959
40521W        W 8739  22.262  35.988   0.349
40522W        W 8740  26.712   9.727   2.821
40523W        W 8741   0.624  37.581   4.467
40524W        W 8742  12.992  27.453   2.674
40525W        W 8743  10.685  27.440  10.758
40526W        W 8744   7.446  19.095   4.574
40527W        W 8745  38.003  37.956   4.569
40528W        W 8746  35.198  29.631  12.842
40529W        W 8747  34.171  24.333  11.691
40530W        W 8748  28.811  19.805   2.348
40531W        W 8749   2.497  23.113   4.221
40532W        W 8750   9.776  44.541   1.228
40533W        W 8751  22.147   5.770   0.336
40534W        W 8752  29.411  33.850  14.894
40535W        W 8753  10.426  11.887  14.897
40536W        W 8754   2.363  22.101   1.896
40537W        W 8755  13.860  41.516  11.410
40538W        W 8756  15.594  23.214  12.183
40539W        W 8757  30.864  34.499   2.705
40540W        W 8758  41.017  24.246  12.474
40541W        W 8759   6.819  19.785   3.143
40542W        W 8760  16.244  34.958   3.702
40543W        W 8761  12.440  41.062   2.264
40544W        W 8762  36.730  33.363   0.612
40545W        W 8763  44.489  16.302   4.045
40546W        W 8764  25.555  22.385   2.258
40547W        W 8765  43.481   5.762   0.456
40548W        W 8766  43.016  22.030   0.838
40549W        W 8767  15.752  34.015  13.876
40550W        W 8768  18.568  10.369   0.238
40551W        W 8769  38.907  16.043   3.340
40552W        W 8770  42.589  35.192  10.734
40553W        W 8771  20.623  33.181  10.310
40554W        W 8772  20.048  18.635  12.000
40555W        W 8773  14.125  35.590  12.913
40556W        W 8774  43.329  12.983  11.558
40557W        W 8775  36.054   2.530   4.611
40558W        W 8776  15.604  27.355   2.899
40559W        W 8777  39.433  15.498   4.019
40560W        W 8778  27.434  29.450  12.956
40561W        W 8779  11.670  44.271   2.736
40562W        W 8780  26.201  21.694  13.449
40563W        W 8781   6.014   9.780  12.071
40564W        W 8782  28.686  14.908   3.473
40565W        W 8783  22.980  24.627  10.416
40566W        W 8784  14.043  19.477   0.212
40567W        W 8785  32.036   4.870   2.798
40568W        W 8786  24.140  16.166  13.821
40569W        W 8787  19.107  32.546   1.699
40570W        W 8788  37.057  36.329   2.272
40571W        W 8789  12.883   3.641   2.750
40572W        W 8790  12.671  40.205  14.808
40573W        W 8791  31.217  25.085   2.405
40574W        W 8792  41.436  40.187   3.252
40575W        W 8793  18.165  20.227   2.318
40576W        W 8794   2.352  14.257  12.539
40577W        W 8795  15.994  12.672  14.963
40578W        W 8796  33.303  11.822  14.699
40579W        W 8797  25.404  12.361   0.343
40580W        W 8798  15.606  44.113   2.357
40581W        W 8799  40.964  28.168   3.610
40582W        W 8800  30.017  37.640  10.335
40583W        W 8801  24.106   0.365  10.700
40584W        W 8802  36.997   2.540  14.272
40585W        W 8803  43.936   0.899  14.559
40586W        W 8804   6.729  21.489   2.349
40587W        W 8805  17.351   3.412  13.829
40588W        W 8806  24.632  10.231  13.023
40589W        W 8807  33.157  27.271   0.827
40590W        W 8808   8.119   4.383   1.804
40591W        W 8809  25.081  42.822   1.830
40592W        W 8810  26.041  31.639  11.314
40593W        W 8811   9.161  18.059   1.044
40594W        W 8812   1.813  19.831   0.385
40595W        W 8813  39.794  42.089   3.185
40596W        W 8814  41.911  26.501  10.749
40597W        W 8815  41.313  33.331  13.755
40598W        W 8816   0.892  32.505  11.526
40599W        W 8817  42.921  23.438   4.046
40600W        W 8818   9.023  38.352  11.644
40601W        W 8819  29.759  26.930  13.913
40602W        W 8820  23.107  19.483   4.218
40603W        W 8821  33.886  20.473  13.526
40604W        W 8822  21.435   8.346   0.645
40605W        W 8823  24.233  41.986  13.232
40606W        W 8824  14.755  42.825  13.566
40607W        W 8825  21.924   8.779  14.337
40608W        W 8826  37.366   9.962  12.420
40609W        W 8827  21.168  39.666   1.198
40610W        W 8828  36.439   4.478   0.802
40611W        W 8829  38.596   1.628  12.956
40612W        W 8830  24.752  24.115   2.353
40613W        W 8831  28.645  40.252   1.479
40614W        W 8832   8.253  30.023  14.261
40615W        W 8833   0.450  37.896   4.114
40616W        W 8834  41.274  15.824  13.850
40617W        W 8835  25.003   1.493   0.559
40618W        W 8836  13.088  11.283  13.387
40619W        W 8837   2.187  17.819   4.543
40620W        W 8838  42.334   0.329   1.432
40621W        W 8839  18.178  24.085   0.926
40622W        W 8840  44.877   5.431  11.410
40623W        W 8841   0.314  42.193  12.848
40624W        W 8842  26.768  22.586  13.439
40625W        W 8843  31.108  12.405   1.640
40626W        W 8844   7.913  43.608  12.176
40627W        W 8845  43.544   7.279   4.070
40628W        W 8846   4.477  28.605   4.088
40629W        W 8847  27.072  36.115   4.552
40630W        W 8848  12.097  19.353   1.266
40631W        W 8849   8.893   9.489   1.291
40632W        W 8850   7.799  41.102  14.997
40633W        W 8851  36.754  19.398  11.689
40634W        W 8852  13.636  22.988   2.340
40635W        W 8853  37.903   6.426  11.883
40636W        W 8854  35.638  42.427  10.922
40637W        W 8855  28.753   9.073   1.954
40638W        W 8856   7.779  25.920  10.766
40639W        W 8857  20.465  17.653  12.404
40640W        W 8858  17.362  27.581  13.961
40641W        W 8859  13.196  15.735  11.092
40642W        W 8860   9.722  31.382   2.321
40643W        W 8861  40.843  43.483   4.633
40644W        W 8862  23.615  27.151  14.114
40645W        W 8863  32.461  44.100  12.118
40646W        W 8864  35.150  37.033   1.402
40647W        W 8865  20.101  32.583   2.532
40648W        W 8866   0.571  30.822  12.504
40649W        W 8867   7.220  27.579   4.655
40650W        W 8868  33.079  13.415  12.029
40651W        W 8869   1.181  10.120   2.734
40652W        W 8870  42.976  38.798   0.389
40653W        W 8871  11.309  23.424   3.811
40654W        W 8872  40.786  30.070   4.958
40655W        W 8873   1.684  44.832  13.903
40656W        W 8874   8.029   7.839  12.565
40657W        W 8875  36.553  44.442   2.260
40658W        W 8876  43.388   2.924   2.191
40659W        W 8877  18.085  44.677  12.916
40660W        W 8878  10.269  15.664   1.346
40661W        W 8879  38.117  21.933  13.808
40662W        W 8880  24.995  14.032   3.167
40663W        W 8881  26.161  14.127   2.403
40664W        W 8882  24.753  27.084   0.424
40665W        W 8883  36.203  11.075   2.704
40666W        W 8884  10.445   6.925  11.975
40667W        W 8885  31.708   2.095   0.189
40668W        W 8886  12.185  44.159  14.886
40669W        W 8887  30.353  30.590  12.015
40670W        W 8888   8.185  28.529   3.032
40671W        W 8889  41.991  31.725   3.263
40672W        W 8890  37.468  25.956   1.287
40673W        W 8891  28.184  15.503  13.925
40674W        W 8892  26.374   2.481  12.198
40675W        W 8893  30.848  16.311   1.983
40676W        W 8894   8.628  21.682   1.319
40677W        W 8895  32.542  14.657  10.738
40678W        W 8896  14.131  19.368  11.236
40679W        W 8897   1.391   9.161   1.728
40680W        W 8898  23.084  18.527   3.729
40681W        W 8899  42.988  10.040   4.139
40682W        W 8900   2.386  42.385   0.882
40683W        W 8901  40.409   1.291  14.323
40684W        W 8902  34.969   2.824   1.074
40685W        W 8903   3.229   6.403  14.765
40686W        W 8904  11.067  16.305   0.812
40687W        W 8905   1.230  29.263  10.698
40688W        W 8906   3.889  33.732   0.862
40689W        W 8907  36.885  27.238   0.349
40690W        W 8908  22.488  29.548  11.544
40691W        W 8909  42.512  27.110  13.841
40692W        W 8910  19.430   9.770   4.182
40693W        W 8911  38.463  24.233  13.523
40694W        W 8912  29.867  44.995   3.285
40695W        W 8913   6.200  21.057   4.580
40696W        W 8914  29.056   3.333  10.196
40697W        W 8915   2.792  28.109  13.578
40698W        W 8916  39.249  18.106  13.996
40699W        W 8917  22.088  39.853  11.154
40700W        W 8918   1.841  44.424  11.321
40701W        W 8919  10.150  40.930   3.241
40702W        W 8920  20.827  27.211   0.185
40703W        W 8921  13.592   4.153  11.492
40704W        W 8922  25.246  34.450   4.230
40705W        W 8923  11.472   3.244  12.617
40706W        W 8924  35.897  15.416  13.961
40707W        W 8925  35.379  22.855   3.779
40708W        W 8926  24.500  27.587   3.196
40709W        W 8927  31.916   7.185   2.198
40710W        W 8928  27.264  34.526  10.760
40711W        W 8929  27.548  43.237  10.962
40712W        W 8930  18.158  43.021  13.983
40713W        W 8931  10.076  32.610  14.031
40714W        W 8932  27.629  15.126   0.280
40715W        W 8933   7.865  24.592  10.713
40716W        W 8934  20.789   0.186  11.154
40717W        W 8935   8.402  43.991   2.909
40718W        W 8936  17.526  40.342   2.419
40719W        W 8937  29.654   5.706  13.628
40720W        W 8938  41.781  42.975   0.024
40721W        W 8939  25.014   3.825   1.308
40722W        W 8940  23.429  33.032   3.184
40723W        W 8941  26.542  18.231   2.714
40724W        W 8942  43.313  41.335  12.564
40725W        W 8943   0.878  13.756   1.448
40726W        W 8944  15.633  22.835   4.106
40727W        W 8945  30.090  44.510   4.323
40728W        W 8946  39.954  36.466   3.250
40729W        W 8947  21.345  33.941  11.504
40730W        W 8948  30.227   8.301   4.193
40731W        W 8949  39.672  16.567  13.805
40732W        W 8950  32.995  13.553  14.985
40733W        W 8951  28.149  29.928  12.974
40734W        W 8952  26.127  35.360   3.786
40735W        W 8953   9.602  40.955   4.090
40736W        W 8954   6.339  10.337  14.762
40737W        W 8955  13.210   8.635  13.278
40738W        W 8956  40.321  32.064  12.428
40739W        W 8957  42.495  15.495   1.558
40740W        W 8958   2.434  19.608   0.034
40741W        W 8959  15.386  35.416   4.854
40742W        W 8960   3.894  21.233   0.484
40743W        W 8961  22.144  17.324  14.350
40744W        W 8962  26.120  10.644  13.870
40745W        W 8963   4.248  36.117   4.443
40746W        W 8964  33.052  13.713   1.415
40747W        W 8965   0.609   9.777  12.589
40748W        W 8966  41.837  34.632   1.163
40749W        W 8967   4.680   9.109   1.285
40750W        W 8968   9.758  24.691  11.122
40751W        W 8969  10.814  22.584  11.594
40752W        W 8970  30.127  10.153   1.350
40753W        W 8971  15.750  44.759  12.062
40754W        W 8972  33.035   5.670  14.401
40755W        W 8973  34.518   6.608  10.782
40756W        W 8974  10.706   0.309  10.807
40757W        W 8975   3.858  23.058   4.028
40758W        W 8976  14.541  19.926  12.499
40759W        W 8977   6.359   8.992  11.408
40760W        W 8978   3.700   1.969   1.837
40761W        W 8979  26.488  42.379   4.840
40762W        W 8980  25.137   4.062  14.422
40763W        W 8981  40.537  14.675  12.986
40764W        W 8982  38.912  34.902   4.402
40765W        W 8983  12.616   5.897   0.753
40766W        W 8984   3.519  10.163  11.033
40767W        W 8985  38.054   9.805   2.754
40768W        W 8986  31.399  31.441  14.990
40769W        W 8987  22.726   4.227  14.328
40770W        W 8988  16.959  33.684  12.215
40771W        W 8989   7.262  21.152   4.663
40772W        W 8990  32.353   6.912   4.644
40773W        W 8991  31.894  40.913  13.012
40774W        W 8992  10.182  21.268   0.674
40775W        W 8993   6.110  16.512   4.059
40776W        W 8994  26.751   3.334   3.161
40777W        W 8995  44.144  19.478   2.344
40778W        W 8996   0.407  39.268   0.897
40779W        W 8997   3.414  38.732   1.215
40780W        W 8998  15.265  34.000   4.807
40781W        W 8999   7.227  37.584  12.905
40782W        W 9000  15.548  35.400   0.134
40783W        W 9001  19.106  41.723   2.751
40784W        W 9002  16.513   9.400   3.223
40785W        W 9003  42.839  10.892   4.380
40786W        W 9004  12.230  15.532  13.021
40787W        W 9005  32.196  17.627  12.882
40788W        W 9006  27.570  34.894  12.829
40789W        W 9007   5.706   1.876   0.422
40790W        W 9008   9.774  24.152   1.399
40791W        W 9009  17.803  39.966   1.855
40792W        W 9010   0.411  44.605  14.098
40793W        W 9011   9.112  27.600   1.507
40794W        W 9012   9.363  39.978  13.435
40795W        W 9013  43.560   3.179   5.015
40796W        W 9014   4.436  16.743   2.220
40797W        W 9015  24.998  39.348   3.569
40798W        W 9016   4.899   8.269   4.196
40799W        W 9017  30.850  30.765   3.637
40800W        W 9018  44.942  38.863   0.395
40801W        W 9019   9.061  15.258  11.171
40802W        W 9020  44.645  13.832  10.647
40803W        W 9021  18.491  32.766  14.906
40804W        W 9022  44.616  43.382   3.616
40805W        W 9023  28.189  44.939  11.587
40806W        W 9024  14.654  26.415   0.818
40807W        W 9025   5.705   2.942   4.164
40808W        W 9026  23.651  37.358   4.788
40809W        W 9027  37.593  44.463  10.656
40810W        W 9028  37.834  39.631   4.968
40811W        W 9029  36.505  16.916  12.068
40812W        W 9030  36.878  27.506  13.618
40813W        W 9031  41.360  22.044   1.329
40814W        W 9032   4.919  20.749   3.244
40815W        W 9033   6.833  31.603  10.985
40816W        W 9034  14.043   0.706  14.075
40817W        W 9035  39.942  31.081   3.454
40818W        W 9036  14.668  38.456  11.126
40819W        W 9037  39.030  10.147  11.555
40820W        W 9038  17.269  38.920   2.223
40821W        W 9039  26.470  29.497   2.228
40822W        W 9040  33.948  26.937   3.660
40823W        W 9041  29.270  42.918   3.724
40824W        W 9042  13.610  34.823   3.760
40825W        W 9043  43.959  43.562   4.834
40826W        W 9044  26.102   1.625  12.442
40827W        W 9045  37.138   2.342  13.229
40828W        W 9046  23.251  33.073  13.029
40829W        W 9047  29.085  23.668   1.419
40830W        W 9048  20.702   2.523  13.915
40831W        W 9049  29.651  24.730  13.380
40832W        W 9050  38.003  38.879  12.516
40833W        W 9051  17.947  44.753  10.448
40834W        W 9052  27.402  27.434   4.791
40835W        W 9053   5.510  41.249  14.411
40836W        W 9054  28.460   3.857  14.806
40837W        W 9055   2.879  33.360   3.166
40838W        W 9056  20.124  39.966  13.391
40839W        W 9057  16.489   9.280   2.285
40840W        W 9058   9.326  16.208   2.757
40841W        W 9059  30.825  37.581   2.432
40842W        W 9060  19.154  27.082  13.896
40843W        W 9061  33.361   2.225   1.813
40844W        W 9062  17.319   6.070   4.995
40845W        W 9063  38.059  13.312  14.031
40846W        W 9064  33.100   2.319   4.798
40847W        W 9065   6.443   5.533  11.552
40848W        W 9066  24.269  39.171  14.469
40849W        W 9067   1.491  29.189   4.913
40850W        W 9068  13.287   6.932   0.321
40851W        W 9069  28.620  30.862   1.302
40852W        W 9070  30.895   9.655  13.608
40853W        W 9071  24.114   1.314   0.800
40854W        W 9072  17.359   7.162   2.770
40855W        W 9073  29.977  40.739  14.936
40856W        W 9074  40.612   4.681   5.110
40857W        W 9075   4.149  36.532   4.136
40858W        W 9076   1.211   2.681  12.023
40859W        W 9077   7.806  28.197   3.124
40860W        W 9078  33.637  31.402   3.233
40861W        W 9079  17.137   8.866   4.165
40862W        W 9080   8.608  42.083   0.745
40863W        W 9081  27.541  30.434   2.876
40864W        W 9082  35.059  32.174   2.649
40865W        W 9083   7.371  33.650   2.337
40866W        W 9084   3.990  30.013   4.088
40867W        W 9085  37.090  36.120   4.548
40868W        W 9086   4.332  10.724   3.398
40869W        W 9087  25.987  42.591   1.025
40870W        W 9088  15.708   8.862  10.997
40871W        W 9089  17.705  44.363   5.014
40872W        W 9090  17.102   3.368  11.946
40873W        W 9091  33.482  10.937   0.365
40874W        W 9092   9.344  29.114   3.913
40875W        W 9093   4.209   2.981   4.410
40876W        W 9094  44.379   8.371   3.217
40877W        W 9095   0.744  43.563  13.002
40878W        W 9096  28.105   2.908  11.632
40879W        W 9097   0.349  10.101   4.430
40880W        W 9098  14.289  44.596   0.753
40881W        W 9099   8.583  20.632   0.444
40882W        W 9100  18.812  38.627  10.696
40883W        W 9101  25.964  20.871   5.012
40884W        W 9102  29.767  21.659  11.005
40885W        W 9103  11.370  13.434   2.224
40886W        W 9104  42.144  35.475   2.309
40887W        W 9105  40.040   1.870   0.846
40888W        W 9106  23.739  25.686  13.084
40889W        W 9107   1.527  34.657  13.362
40890W        W 9108   0.403   8.563   4.938
40891W        W 9109   3.856  29.339  12.700
40892W        W 9110  18.439  30.146   1.705
40893W        W 9111   6.312  11.578  12.091
40894W        W 9112  37.110  14.400  11.131
40895W        W 9113  19.631   9.674   2.830
40896W        W 9114   3.686  20.053  12.377
40897W        W 9115   8.393   1.395   0.274
40898W        W 9116  24.775   2.017   2.679
40899W        W 9117   5.554  21.718   2.726
40900W        W 9118  41.433   5.288  13.550
40901W        W 9119  16.526   2.491   3.187
40902W        W 9120   8.241  32.264  12.046
40903W        W 9121  19.485   7.248  12.497
40904W        W 9122  27.123  42.849  12.814
40905W        W 9123  33.576  26.614  10.968
40906W        W 9124  22.713  10.231   2.877
40907W        W 9125   8.817  44.712   1.661
40908W        W 9126  31.188  12.177  14.337
40909W        W 9127  20.603  26.678   4.579
40910W        W 9128  35.405  20.253   2.264
40911W        W 9129  24.239  10.669   4.494
40912W        W 9130  40.833  16.294  12.475
40913W        W 9131  36.455  10.238   0.282
40914W        W 9132   5.903  19.624   0.103
40915W        W 9133  23.980   3.370  14.769
40916W        W 9134  21.188  12.248   4.689
40917W        W 9135  30.189  13.238   0.969
40918W        W 9136  43.993   8.856   3.942
40919W        W 9137  25.235  25.692  11.128
40920W        W 9138  16.839  36.116   4.278
40921W        W 9139  20.691  12.162  11.856
40922W        W 9140  34.398  42.266   3.161
40923W        W 9141  14.493  17.184  12.092
40924W        W 9142  40.732  10.493  10.985
40925W        W 9143  14.244   0.450  12.584
40926W        W 9144  30.621  18.979  13.402
40927W        W 9145   1.391  21.072   2.823
40928W        W 9146  14.363  22.284   0.374
40929W        W 9147  22.047  16.543  13.003
40930W        W 9148  40.058  43.413   2.125
40931W        W 9149  22.498   7.860  14.377
40932W        W 9150  17.701  37.864   4.598
40933W        W 9151  38.521   3.293   1.829
40934W        W 9152   9.103  10.674   2.662
40935W        W 9153   6.308  10.095  11.132
40936W        W 9154   9.807  12.402   3.745
40937W        W 9155   2.251  42.953   3.209
40938W        W 9156  39.438  40.332   1.920
40939W        W 9157  35.528  18.240   4.604
40940W        W 9158  13.403  18.170   3.242
40941W        W 9159  30.107  43.202  14.803
40942W        W 9160  33.251   7.237   3.183
40943W        W 9161  33.372   6.184  13.078
40944W        W 9162  28.092  13.533   9.682
40945W        W 9163   5.161  30.234  14.295
40946W        W 9164  12.779  17.540   3.368
40947W        W 9165   6.436  29.691  13.942
40948W        W 9166  41.292  26.128   1.722
40949W        W 9167  22.036  10.401  11.937
40950W        W 9168  13.335  42.729  10.950
40951W        W 9169  11.378  44.413  14.385
40952W        W 9170   6.245   0.912  10.659
40953W        W 9171  36.803   5.764   2.731
40954W        W 9172   1.983  27.096  11.617
40955W        W 9173  42.939  17.333  11.585
40956W        W 9174   6.910  22.738   2.988
40957W        W 9175   1.521  34.086   1.692
40958W        W 9176  33.236  15.834  10.873
40959W        W 9177   2.786  12.595   2.790
40960W        W 9178  23.778  42.447  14.950
40961W        W 9179  26.552  14.967  11.565
40962W        W 9180  35.949  23.539  11.941
40963W        W 9181  26.544  34.623   0.470
40964W        W 9182  40.256  29.906   1.671
40965W        W 9183  22.835   1.844   1.453
40966W        W 9184   9.365  26.921   2.326
40967W        W 9185  41.470   4.544   0.785
40968W        W 9186  24.354  35.008  14.007
40969W        W 9187  16.312   9.351  13.885
40970W        W 9188   8.024  26.238  11.092
40971W        W 9189  12.105  18.178   0.538
40972W        W 9190  17.111  24.657  13.028
40973W        W 9191  20.740  40.040   3.396
40974W        W 9192  29.446  38.514  12.427
40975W        W 9193   7.795  16.278   3.937
40976W        W 9194  41.045  10.245  14.002
40977W        W 9195  24.535  41.455  10.751
40978W        W 9196  17.521  20.578   0.271
40979W        W 9197  31.387   5.363   1.432
40980W        W 9198  22.820  12.536  13.300
40981W        W 9199  24.683  35.927   1.005
40982W        W 9200  31.049  26.218   3.967
40983W        W 9201  36.986  23.675  14.484
40984W        W 9202  23.359  41.975   3.499
40985W        W 9203  15.081  16.168   1.498
40986W        W 9204  15.645   4.767  12.985
40987W        W 9205  17.200  31.851  14.222
40988W        W 9206  14.206  32.022  11.177
40989W        W 9207  24.662  18.014  12.681
40990W        W 9208  15.567  22.443   0.868
40991W        W 9209  25.715  18.090  12.019
40992W        W 9210  24.508  37.737   0.318
40993W        W 9211  14.125   5.165   0.831
40994W        W 9212  27.010  39.014  13.051
40995W        W 9213  32.427   5.386  11.156
40996W        W 9214   6.416  21.746  11.452
40997W        W 9215  14.063  32.514  14.752
40998W        W 9216   4.934  12.094   4.102
40999W        W 9217  42.218   8.343  14.852
41000W        W 9218  23.998   6.238   1.463
41001W        W 9219  26.905   2.377   4.493
41002W        W 9220  16.103  10.041  11.223
41003W        W 9221  40.667   3.478  11.221
41004W        W 9222  18.090  24.451  13.006
41005W        W 9223  26.927  29.185   4.590
41006W        W 9224  13.582  20.155  11.214
41007W        W 9225  25.455  40.842  12.010
41008W        W 9226  37.505  16.620   0.442
41009W        W 9227  28.102  42.719  11.039
41010W        W 9228   3.119   1.171   5.102
41011W        W 9229  25.084  42.120   0.967
41012W        W 9230  22.149  20.982   1.897
41013W        W 9231  37.045  38.354  11.511
41014W        W 9232  26.752  12.277   1.465
41015W        W 9233  41.538  19.408   4.995
41016W        W 9234  17.646   1.078   0.649
41017W        W 9235  33.095  22.044  12.606
41018W        W 9236   0.751   1.581   0.204
41019W        W 9237  28.135  43.252  12.011
41020W        W 9238   4.397  32.282   3.153
41021W        W 9239   5.312  38.940  10.915
41022W        W 9240   0.990  23.242   0.354
41023W        W 9241   8.365  26.942   0.414
41024W        W 9242  44.197  25.105  14.910
41025W        W 9243   8.841  10.168  12.495
41026W        W 9244  43.101  22.400  13.945
41027W        W 9245   7.661   7.965  14.808
41028W        W 9246  35.133  31.774   4.241
41029W        W 9247  17.861  27.888  11.478
41030W        W 9248   1.034  15.227   2.374
41031W        W 9249  22.815  39.887   0.940
41032W        W 9250  23.412  29.828  13.237
41033W        W 9251   5.376  16.281   5.401
41034W        W 9252   1.994   8.196  12.165
41035W        W 9253  33.845  38.518  12.950
41036W        W 9254  19.154  36.778   1.384
41037W        W 9255  18.186  12.886  13.924
41038W        W 9256  41.221   1.532  11.602
41039W        W 9257  23.212   6.499  12.852
41040W        W 9258  20.572   1.716  14.284
41041W        W 9259  34.934  22.462  13.564
41042W        W 9260  27.576  23.712   3.680
41043W        W 9261  24.270  41.560  12.192
41044W        W 9262  32.253  36.097  14.877
41045W        W 9263  10.848  15.852   0.836
41046W        W 9264  41.283  23.115   1.352
41047W        W 9265  28.631   8.274   2.134
41048W        W 9266  40.751  37.275   2.165
41049W        W 9267   7.481   3.212  14.506
41050W        W 9268   5.682  44.244   4.416
41051W        W 9269  42.868   9.160   4.078
41052W        W 9270  24.173  40.961  13.444
41053W        W 9271  15.504  36.452   1.006
41054W        W 9272  26.961  14.555   2.747
41055W        W 9273  17.284  37.453   4.633
41056W        W 9274  40.330  10.637  12.414
41057W        W 9275  31.651  14.208   0.274
41058W        W 9276  31.767  43.794  11.434
41059W        W 9277  25.254  40.680   1.897
41060W        W 9278  26.990  29.096  14.308
41061W        W 9279  18.074   9.095  14.334
41062W        W 9280  25.699   3.324  13.708
41063W        W 9281  23.601   0.150  10.399
41064W        W 9282   2.695  27.431   4.287
41065W        W 9283  34.019  34.297  11.145
41066W        W 9284  43.817  17.929  11.510
41067W        W 9285   5.432  26.501  11.448
41068W        W 9286   9.585  36.351  12.992
41069W        W 9287  13.819  39.874   1.116
41070W        W 9288   9.115  35.453  14.020
41071W        W 9289   2.307   5.753  14.732
41072W        W 9290   5.743   5.223   4.599
41073W        W 9291  19.224  22.521  12.538
41074W        W 9292  36.045  32.575  14.136
41075W        W 9293   7.213  44.822  11.544
41076W        W 9294  36.114  12.298   3.192
41077W        W 9295   6.359  27.679  13.759
41078W        W 9296   9.560  40.752  13.831
41079W        W 9297   9.383   8.623  13.391
41080W        W 9298   3.311   9.664  11.046
41081W        W 9299   1.722   5.703  11.514
41082W        W 9300  31.354  10.709  13.686
41083W        W 9301  21.171   3.041  14.166
41084W        W 9302  26.635   7.511   2.685
41085W        W 9303  24.305   1.124   3.569
41086W        W 9304  21.495  15.895  12.048
41087W        W 9305  30.698   2.183  12.507
41088W        W 9306  35.252   9.639   4.390
41089W        W 9307  35.058  19.556   3.287
41090W        W 9308  43.305  10.060  12.426
41091W        W 9309   3.911  44.389   4.587
41092W        W 9310  44.438  30.733   1.373
41093W        W 9311  37.700  15.749   1.824
41094W        W 9312  24.454  35.281  13.580
41095W        W 9313  39.962  43.628   4.074
41096W        W 9314  30.408  34.865  12.446
41097W        W 9315  28.423  16.898   5.483
41098W        W 9316  27.527  44.685   1.662
41099W        W 9317  22.050  13.300   2.706
41100W        W 9318  44.925  44.729   0.252
41101W        W 9319  38.389  27.034   0.004
41102W        W 9320   0.282  16.682   4.631
41103W        W 9321   6.897  13.956   0.656
41104W        W 9322  37.165  24.004  10.381
41105W        W 9323  17.180  40.562   4.644
41106W        W 9324  19.196  27.154   0.087
41107W        W 9325   2.646  39.032  14.237
41108W        W 9326  17.052  41.377  14.770
41109W        W 9327  24.234  22.832  10.730
41110W        W 9328   1.242  40.897  13.497
41111W        W 9329  16.129   4.697  13.452
41112W        W 9330   4.908   5.321  14.843
41113W        W 9331  17.264  38.342   1.757
41114W        W 9332  36.490  25.196  11.375
41115W        W 9333  31.923  19.345  11.541
41116W        W 9334   4.749  19.467  11.515
41117W        W 9335  38.402  32.521   2.755
41118W        W 9336  38.091   6.647   4.167
41119W        W 9337  24.453   7.135  11.421
41120W        W 9338   4.759  38.917  12.233
41121W        W 9339  32.829  37.566   1.513
41122W        W 9340  38.812   3.338  11.616
41123W        W 9341  25.103  44.221  12.733
41124W        W 9342   1.482   6.873   3.335
41125W        W 9343  27.169  21.921  12.860
41126W        W 9344  40.938  35.953  11.110
41127W        W 9345  17.118  16.151   2.126
41128W        W 9346  30.572   5.831   3.641
41129W        W 9347  28.708  12.280  13.358
41130W        W 9348  24.782  40.879   1.769
41131W        W 9349   3.939  20.597  10.549
41132W        W 9350  34.964   4.165  10.545
41133W        W 9351  12.640   6.322   1.922
41134W        W 9352  17.203  34.264   2.867
41135W        W 9353  30.749   9.746   3.574
41136W        W 9354  24.006  13.854   3.575
41137W        W 9355   8.603  18.153  13.591
41138W        W 9356   2.543  17.777  11.247
41139W        W 9357  36.492  30.937  10.741
41140W        W 9358   9.782  36.428  12.145
41141W        W 9359   4.312   7.758  11.629
41142W        W 9360  19.761  31.607  14.161
41143W        W 9361  44.528  29.682  14.489
41144W        W 9362   7.008  14.576  13.479
41145W        W 9363  24.723  17.621   1.990
41146W        W 9364  25.781   2.268  10.958
41147W        W 9365  27.556  34.066  11.595
41148W        W 9366  32.070  15.885   4.995
41149W        W 9367   6.653  33.025   4.134
41150W        W 9368  12.499  38.404   4.347
41151W        W 9369   9.605  29.169  12.427
41152W        W 9370  43.751  13.997   2.115
41153W        W 9371  14.209  27.135   1.828
41154W        W 9372   0.414  40.518  12.116
41155W        W 9373  43.059   2.356  14.602
41156W        W 9374   6.277  42.924  12.580
41157W        W 9375  41.769   5.532   0.893
41158W        W 9376  32.368  38.703  11.132
41159W        W 9377  33.913  30.051  10.885
41160W        W 9378  18.646  38.902   0.517
41161W        W 9379  42.425   7.967  11.311
41162W        W 9380  29.464   1.171  11.571
41163W        W 9381  11.146   7.060   0.716
41164W        W 9382   4.944  30.966  14.881
41165W        W 9383  11.613  13.901   2.290
41166W        W 9384  21.487  36.056  12.932
41167W        W 9385  29.598  23.463  11.506
41168W        W 9386  18.642  30.592  10.676
41169W        W 9387  21.323  25.571   4.945
41170W        W 9388  10.270  36.076   1.964
41171W        W 9389  40.323  30.846   0.746
41172W        W 9390  25.532  13.565  10.335
41173W        W 9391   3.700  18.185   2.247
41174W        W 9392  10.117   6.264   1.836
41175W        W 9393   7.250   7.006   0.453
41176W        W 9394  23.068  31.552   3.324
41177W        W 9395  37.964  44.476   4.199
41178W        W 9396   1.431  19.011   4.004
41179W        W 9397  11.471  13.754   1.774
41180W        W 9398  32.947  17.061   2.931
41181W        W 9399  30.896   6.905  11.579
41182W        W 9400  16.618  41.613   2.181
41183W        W 9401  39.529  43.406  12.557
41184W        W 9402  28.190  14.359  12.050
41185W        W 9403  16.113   1.680  11.684
41186W        W 9404  11.541  39.382  12.526
41187W        W 9405   8.433  34.908   2.459
41188W        W 9406  10.811   0.974  11.923
41189W        W 9407  20.963   7.482  10.645
41190W        W 9408  24.906  42.524   3.151
41191W        W 9409  30.655  24.507   1.424
41192W        W 9410  32.157  31.697   4.759
41193W        W 9411   6.312  15.733   4.452
41194W        W 9412  26.639  27.085  11.485
41195W        W 9413   0.264  13.714   2.791
41196W        W 9414  19.190  18.035   4.187
41197W        W 9415  13.216   5.651   3.618
41198W        W 9416  28.444   9.774   3.182
41199W        W 9417  43.023  37.915   4.095
41200W        W 9418  37.992  17.604   0.345
41201W        W 9419   9.111  43.752  14.453
41202W        W 9420  11.807  43.012   1.394
41203W        W 9421  24.980  16.633   0.233
41204W        W 9422  35.244  39.729   2.282
41205W        W 9423  17.265  35.757   0.239
41206W        W 9424  15.629  30.508  12.362
41207W        W 9425  29.688   1.913   1.493
41208W        W 9426  35.327  34.941   4.954
41209W        W 9427   5.320  22.299  13.858
41210W        W 9428  36.864  41.947   1.385
41211W        W 9429   4.684  27.888   4.599
41212W        W 9430  10.651  14.738  14.448
41213W        W 9431   2.772  21.039   2.367
41214W        W 9432   3.695   2.915  13.336
41215W        W 9433  31.894   3.205   0.895
41216W        W 9434  22.528  18.346   4.581
41217W        W 9435  39.075  41.650   1.801
41218W        W 9436  20.622  27.662   4.079
41219W        W 9437  19.717  29.449   4.493
41220W        W 9438  18.507  44.870   2.003
41221W        W 9439  39.783   7.857  13.938
41222W        W 9440  33.986  24.587  10.386
41223W        W 9441  43.949  14.889   2.010
41224W        W 9442  43.049  23.336   4.528
41225W        W 9443   5.813  16.631   9.809
41226W        W 9444   1.298   7.188   0.893
41227W        W 9445  12.703  33.596  10.666
41228W        W 9446  44.388  39.497  11.971
41229W        W 9447  12.742  10.343   3.217
41230W        W 9448  19.820  20.669   2.133
41231W        W 9449  25.167   1.878  13.913
41232W        W 9450  23.981  21.281  11.179
41233W        W 9451  32.492  11.345   1.407
41234W        W 9452  26.004  42.561   0.521
41235W        W 9453  42.755   3.796   2.106
41236W        W 9454   4.659  44.025   1.858
41237W        W 9455  20.643  41.930  13.191
41238W        W 9456   9.842  17.986  11.190
41239W        W 9457  41.085  31.563   2.315
41240W        W 9458  12.617   0.309   1.007
41241W        W 9459   8.926   6.256   0.299
41242W        W 9460   5.294   3.031   2.395
41243W        W 9461  32.922  35.491   3.677
41244W        W 9462  40.341  44.444  11.080
41245W        W 9463  41.115  42.349   4.094
41246W        W 9464  29.135   1.753   0.669
41247W        W 9465  15.493  15.521  11.973
41248W        W 9466  44.810  12.614  11.476
41249W        W 9467  15.532  16.274  11.139
41250W        W 9468  35.967   9.660   4.176
41251W        W 9469  41.992  10.109  14.823
41252W        W 9470   0.708   0.729  10.612
41253W        W 9471  12.768  34.674   2.804
41254W        W 9472  39.007  19.824  14.341
41255W        W 9473  29.896  44.338  11.715
41256W        W 9474  29.415  24.085  12.099
41257W        W 9475  37.905   2.815   2.245
41258W        W 9476   4.005  27.102  12.312
41259W        W 9477  12.373   0.485   1.986
41260W        W 9478  44.304  26.707  13.392
41261W        W 9479   4.906  36.425  12.050
41262W        W 9480   3.453  38.593  12.946
41263W        W 9481  40.832   0.296   3.705
41264W        W 9482  41.630  43.948  12.073
41265W        W 9483  16.094  38.382   1.223
41266W        W 9484  33.663  14.321   0.500
41267W        W 9485  21.691  33.923   2.706
41268W        W 9486  30.564  12.510  13.873
41269W        W 9487  19.749   1.304  11.209
41270W        W 9488  32.312  12.349  13.283
41271W        W 9489  11.555  23.626  14.561
41272W        W 9490  16.998  26.386  13.450
41273W        W 9491  42.022   7.937  12.560
41274W        W 9492   0.671   6.958  13.329
41275W        W 9493  29.016  16.650   1.780
41276W        W 9494   4.898  39.820   4.776
41277W        W 9495   9.512  15.165  10.801
41278W        W 9496  35.883   1.936  10.718
41279W        W 9497  40.917   7.502   4.667
41280W        W 9498   6.775  26.159   1.670
41281W        W 9499  18.660  44.474   4.925
41282W        W 9500  26.992  28.723   0.203
41283W        W 9501  18.145   7.164   3.622
41284W        W 9502  21.671  41.079  13.654
41285W        W 9503  39.026  39.070  11.456
41286W        W 9504  22.140   2.417  14.099
41287W        W 9505  16.648  25.270   1.057
41288W        W 9506  17.640  26.434   4.102
41289W        W 9507   7.414  31.322   1.692
41290W        W 9508  25.557  29.641   3.594
41291W        W 9509  27.488  38.387  11.231
41292W        W 9510  10.203   6.196   4.075
41293W        W 9511  13.164  26.484  13.032
41294W        W 9512  14.527  37.482  13.672
41295W        W 9513  36.350  21.519  13.951
41296W        W 9514  36.885  34.159  14.875
41297W        W 9515   6.763  37.138  10.448
41298W        W 9516  31.180  28.394  14.828
41299W        W 9517  42.441  29.445  11.230
41300W        W 9518  16.017  13.811  11.193
41301W        W 9519  41.617  36.588   2.265
41302W        W 9520  14.049   6.958   2.795
41303W        W 9521  14.738  26.303  11.020
41304W        W 9522  36.235  26.688   1.002
41305W        W 9523  31.025  32.655  12.106
41306W        W 9524  29.636  27.080  10.540
41307W        W 9525  20.698   8.882  14.782
41308W        W 9526  41.463  26.134   1.222
41309W        W 9527  32.072   0.946   3.089
41310W        W 9528  21.273  31.986  12.084
41311W        W 9529  10.095  32.972  12.412
41312W        W 9530  12.133  20.207   4.012
41313W        W 9531  28.256  25.307  10.556
41314W        W 9532  19.161  25.068  13.730
41315W        W 9533  22.108  33.832   1.294
41316W        W 9534  44.008   8.740   3.325
41317W        W 9535  15.983  15.366   3.708
41318W        W 9536   9.466   3.361   2.369
41319W        W 9537  35.537  41.507  10.820
41320W        W 9538   2.807  31.563   4.674
41321W        W 9539  12.177   0.787  12.595
41322W        W 9540  19.307   7.665   4.155
41323W        W 9541  12.716  22.440   3.226
41324W        W 9542  32.474   9.169   3.875
41325W        W 9543  24.068  35.476  13.908
41326W        W 9544  35.927  13.311   4.274
41327W        W 9545  24.837  42.180  11.864
41328W        W 9546   2.274  25.496   3.748
41329W        W 9547  27.380   8.204   3.360
41330W        W 9548   8.295  17.745  14.273
41331W        W 9549   2.427  32.839   1.468
41332W        W 9550  27.743   3.994  12.032
41333W        W 9551  32.013  15.180   0.995
41334W        W 9552  29.835  42.794   2.909
41335W        W 9553  38.083  19.863   1.503
41336W        W 9554  10.294  42.835  13.136
41337W        W 9555   6.849  15.313   4.026
41338W        W 9556  25.180   5.527   0.876
41339W        W 9557  24.272   0.808   3.181
41340W        W 9558   1.810  41.315  10.830
41341W        W 9559  18.322  31.634  13.613
41342W        W 9560  33.648   0.178  12.947
41343W        W 9561   9.615  10.806  13.322
41344W        W 9562  25.465  33.693   3.726
41345W        W 9563  18.973  23.912  11.122
41346W        W 9564  37.021  36.504   3.392
41347W        W 9565  20.364  40.394   3.551
41348W        W 9566  18.984  41.386  11.920
41349W        W 9567  10.034  14.333  13.802
41350W        W 9568  42.822  36.271  11.975
41351W        W 9569  32.793  35.744   3.214
41352W        W 9570  37.748  18.315  10.918
41353W        W 9571  28.164   5.961   2.956
41354W        W 9572   4.217  13.239  13.574
41355W        W 9573   8.686  31.398  11.216
41356W        W 9574  28.677  42.030   3.647
41357W        W 9575  27.328  26.477   0.635
41358W        W 9576  41.952  37.388   4.146
41359W        W 9577  27.978  35.611  14.742
41360W        W 9578  38.301   9.666   0.876
41361W        W 9579   6.614  18.099   2.707
41362W        W 9580  14.768   7.702   0.015
41363W        W 9581  40.692  27.607  14.938
41364W        W 9582   4.911  42.712   4.615
41365W        W 9583   4.641  40.019   2.719
41366W        W 9584   8.786  15.367   4.163
41367W        W 9585   6.318  34.754   2.758
41368W        W 9586  32.803  31.988   0.474
41369W        W 9587  21.639  15.848  10.250
41370W        W 9588  21.776  39.143   4.649
41371W        W 9589   1.212  13.706   3.749
41372W        W 9590  15.995  12.625   3.251
41373W        W 9591   6.342  18.300  12.453
41374W        W 9592   2.975  12.556  13.263
41375W        W 9593   9.170   3.810  10.595
41376W        W 9594  34.655  25.536   0.914
41377W        W 9595  19.153  42.052  13.885
41378W        W 9596  40.568  16.195  14.147
41379W        W 9597   3.959  23.618   4.637
41380W        W 9598  40.087   7.017  14.537
41381W        W 9599  29.519  18.068  11.590
41382W        W 9600  18.131   1.127  11.808
41383W        W 9601  34.972   8.725  13.383
41384W        W 9602  33.741  37.517  13.684
41385W        W 9603  30.065  39.111  11.397
41386W        W 9604   2.623  42.715   2.301
41387W        W 9605  27.379   3.382  14.022
41388W        W 9606  23.102  40.815   4.362
41389W        W 9607   1.423  12.009   0.786
41390W        W 9608  26.578  28.976  14.037
41391W        W 9609   0.768  25.683  11.130
41392W        W 9610  13.227  12.348   0.511
41393W        W 9611  27.072  14.654   1.843
41394W        W 9612  31.040   9.116  10.959
41395W        W 9613   6.363   5.316   3.502
41396W        W 9614  29.514  27.696   2.720
41397W        W 9615  40.837  15.782   1.267
41398W        W 9616  32.397  36.147   2.691
41399W        W 9617  28.966   2.768   2.830
41400W        W 9618  29.458  10.748   4.520
41401W        W 9619  35.012  23.168  12.905
41402W        W 9620  37.484  33.557  13.500
41403W        W 9621  14.553  42.275  14.456
41404W        W 9622  18.503  22.455   3.705
41405W        W 9623  41.088  10.004  12.099
41406W        W 9624   3.848   7.599   2.115
41407W        W 9625  43.855  32.911  13.858
41408W        W 9626  36.297  14.835  14.283
41409W        W 9627  28.160  26.425   1.917
41410W        W 9628  38.610   1.354  10.716
41411W        W 9629   3.739   2.503  12.966
41412W        W 9630  14.756  36.130  10.013
41413W        W 9631  18.640  16.589   0.415
41414W        W 9632  26.630  40.089   1.776
41415W        W 9633  28.213  41.394  11.970
41416W        W 9634  32.036  41.230  12.040
41417W        W 9635  22.093  12.395   4.645
41418W        W 9636  16.254  22.495  13.567
41419W        W 9637  41.886  20.196  14.494
41420W        W 9638   1.446  36.874  13.503
41421W        W 9639  21.741  24.112  13.424
41422W        W 9640   0.262  38.968  12.958
41423W        W 9641   7.500  41.293  12.804
41424W        W 9642  13.279  38.454  13.441
41425W        W 9643  21.038  25.861   0.943
41426W        W 9644  21.501  12.796   1.317
41427W        W 9645  40.600  11.441   1.702
41428W        W 9646   5.778  26.109  10.627
41429W        W 9647   7.205  24.839   1.312
41430W        W 9648   7.807  26.441   3.683
41431W        W 9649  22.296  32.619  12.589
41432W        W 9650  38.300   0.396  13.480
41433W        W 9651  44.216  43.382  13.696
41434W        W 9652  18.949   8.472  14.577
41435W        W 9653  38.699  31.550  11.966
41436W        W 9654   7.870  11.251   2.624
41437W        W 9655   5.740   8.959   2.791
41438W        W 9656   4.819   3.002   0.998
41439W        W 9657  36.002  44.810  14.700
41440W        W 9658  42.255   4.267  11.065
41441W        W 9659  18.286  33.035  13.451
41442W        W 9660   9.668  14.007  12.867
41443W        W 9661  28.502  44.472   2.598
41444W        W 9662  38.341  15.835   0.981
41445W        W 9663  34.988   5.741  11.661
41446W        W 9664  23.248  12.611   1.710
41447W        W 9665   9.868  44.853  10.450
41448W        W 9666  29.491  37.142  14.394
41449W        W 9667  29.540   8.637   0.428
41450W        W 9668  26.043  36.525   4.421
41451W        W 9669  39.796   0.390  13.477
41452W        W 9670  17.597  32.902   2.435
41453W        W 9671   6.845  28.532  12.153
41454W        W 9672  42.840  23.147  11.976
41455W        W 9673  27.837  27.440  12.462
41456W        W 9674  21.425  20.756  11.491
41457W        W 9675  32.573  37.805   4.229
41458W        W 9676  22.316  18.214  11.718
41459W        W 9677  20.497  37.120   4.163
41460W        W 9678  33.341  24.660  12.624
41461W        W 9679  37.518   0.018   2.761
41462W        W 9680   7.967  14.761   4.173
41463W        W 9681  22.791  19.034   1.777
41464W        W 9682  28.137  35.004   1.023
41465W        W 9683  27.735   7.595  12.306
41466W        W 9684  39.037   0.184   3.698
41467W        W 9685  18.138   2.344  12.220
41468W        W 9686  34.996  29.750   1.692
41469W        W 9687  40.084  15.168  11.411
41470W        W 9688  44.693   9.839  14.019
41471W        W 9689  27.483  15.545   1.418
41472W        W 9690  22.115  12.102   0.323
41473W        W 9691  28.922  43.976  11.068
41474W        W 9692  44.506  10.166  12.780
41475W        W 9693  20.736  13.565   4.517
41476W        W 9694  37.501  34.647   4.156
41477W        W 9695  18.632   6.309   1.677
41478W        W 9696  33.180   8.803   4.506
41479W        W 9697   9.947  40.009   2.225
41480W        W 9698  43.724  28.480   1.322
41481W        W 9699  31.361  39.624  13.122
41482W        W 9700  17.601  34.538   1.574
41483W        W 9701  16.046  26.148   2.283
41484W        W 9702  17.897  18.997   2.187
41485W        W 9703  41.613  32.093   3.303
41486W        W 9704   8.884  30.058  10.784
41487W        W 9705  14.023  29.632   1.027
41488W        W 9706   7.900   7.234  11.351
41489W        W 9707  17.098  33.338  13.504
41490W        W 9708  38.952  26.121   3.717
41491W        W 9709  44.757  40.999   4.658
41492W        W 9710   7.708   5.644  13.568
41493W        W 9711   8.730  41.086  13.509
41494W        W 9712  15.319   2.945   3.785
41495W        W 9713  13.905  32.579  10.573
41496W        W 9714   1.734  37.036   2.684
41497W        W 9715  39.545  10.189  11.583
41498W        W 9716  28.010   1.897  13.476
41499W        W 9717   4.370   6.762   0.195
41500W        W 9718  12.276  29.552   2.815
41501W        W 9719  37.831  16.328   4.231
41502W        W 9720  38.441  11.504  14.534
41503W        W 9721  16.191  21.143  13.934
41504W        W 9722  31.000  17.364  10.832
41505W        W 9723   5.345   0.455  10.596
41506W        W 9724  33.759  10.119  13.368
41507W        W 9725  44.780   1.852  12.108
41508W        W 9726   9.076   2.465  12.089
41509W        W 9727  43.432  28.624   2.207
41510W        W 9728  18.792  30.171   1.291
41511W        W 9729   6.415   3.278   2.099
41512W        W 9730  19.968  38.497   3.665
41513W        W 9731  30.902  13.471  14.414
41514W        W 9732   4.856  14.915   2.783
41515W        W 9733  26.280  13.856  11.915
41516W        W 9734  44.800   4.483   2.655
41517W        W 9735  14.995  13.858  11.448
41518W        W 9736  41.540  35.068  10.404
41519W        W 9737   2.708  25.608  14.503
41520W        W 9738  36.365  35.942  10.795
41521W        W 9739   8.164  39.814   1.822
41522W        W 9740  36.585  19.763   4.149
41523W        W 9741   8.872  22.026  10.874
41524W        W 9742   4.341   1.442   2.325
41525W        W 9743  27.792  13.665  14.945
41526W        W 9744   0.527  20.610  12.575
41527W        W 9745  26.184  42.064  14.518
41528W        W 9746  37.776  16.674   4.964
41529W        W 9747   9.941  35.053  12.080
41530W        W 9748   6.661  38.104   2.291
41531W        W 9749  22.933   4.028  12.528
41532W        W 9750  24.218   2.354  12.624
41533W        W 9751   3.987   9.204  13.732
41534W        W 9752   0.712  19.065   1.505
41535W        W 9753  34.448  24.555   4.540
41536W        W 9754  39.739  28.200  12.572
41537W        W 9755  36.342  28.411   2.729
41538W        W 9756  27.571  28.221   2.130
41539W        W 9757  13.781  37.743   3.746
41540W        W 9758   7.733  15.217  10.791
41541W        W 9759  33.379  12.751   4.941
41542W        W 9760   9.989  34.027  14.909
41543W        W 9761  37.951  28.032  12.746
41544W        W 9762  11.803   1.731  10.482
41545W        W 9763  44.485   8.345  13.908
41546W        W 9764  23.670  17.577  13.545
41547W        W 9765  35.943  41.934  12.329
41548W        W 9766  20.089  33.832   3.630
41549W        W 9767  11.313   0.986   2.390
41550W        W 9768  39.104  44.904  12.426
41551W        W 9769   6.511  36.494   0.006
41552W        W 9770  29.793  32.187  14.981
41553W        W 9771  24.970   8.830   2.138
41554W        W 9772   3.726  21.657   0.754
41555W        W 9773   3.856   3.230   2.208
41556W        W 9774  30.491  38.382  10.575
41557W        W 9775  35.615  29.142  14.271
41558W        W 9776  33.454  14.886  10.715
41559W        W 9777  16.184  21.266   0.086
41560W        W 9778  15.935  18.589   3.684
41561W        W 9779  35.665  18.770  12.122
41562W        W 9780  42.951  27.354   2.352
41563W        W 9781  41.429  36.764  12.924
41564W        W 9782  44.862  15.810   1.766
41565W        W 9783  26.097  28.248   0.319
41566W        W 9784  32.394   6.281   0.078
41567W        W 9785  33.117  29.599   0.279
41568W        W 9786  43.354   3.350   3.665
41569W        W 9787  34.016  23.210   2.781
41570W        W 9788  26.680  22.033   3.208
41571W        W 9789  27.969  18.372  12.570
41572W        W 9790  27.074  12.277  11.061
41573W        W 9791   0.066  23.159  12.873
41574W        W 9792  44.599  41.204   3.057
41575W        W 9793   4.960  37.998   3.070
41576W        W 9794   2.337  14.756  13.355
41577W        W 9795  14.807   5.240   2.082
41578W        W 9796  10.255  33.578  13.000
41579W        W 9797  29.660   1.335   0.863
41580W        W 9798  21.733  21.936   3.921
41581W        W 9799  42.045  16.301   4.441
41582W        W 9800  28.838  21.958  13.085
41583W        W 9801   8.779   9.628   2.470
41584W        W 9802  15.844  14.798  11.186
41585W        W 9803  21.279  32.036   3.799
41586W        W 9804  28.415  18.221   5.026
41587W        W 9805  28.068  13.306   2.478
41588W        W 9806  33.108  31.393   3.188
41589W        W 9807   9.313  38.075  10.688
41590W        W 9808  12.193   1.249  13.989
41591W        W 9809  18.018  14.522  12.310
41592W        W 9810  16.805  26.651  12.980
41593W        W 9811  35.998  10.115   0.001
41594W        W 9812  40.271  37.877  12.586
41595W        W 9813  41.852  10.644  13.813
41596W        W 9814  21.057  15.624  11.089
41597W        W 9815   3.660  14.146   0.398
41598W        W 9816  12.437   5.998  14.721
41599W        W 9817   0.772  37.300   0.124
41600W        W 9818  25.840  11.406   3.293
41601W        W 9819  35.477   1.520   1.493
41602W        W 9820  24.987  19.070   3.729
41603W        W 9821   3.277  29.349   0.100
41604W        W 9822  28.600  14.443   4.761
41605W        W 9823  42.431   9.309   4.320
41606W        W 9824   6.315  31.885  10.301
41607W        W 9825  36.090  11.670   0.955
41608W        W 9826  37.136  28.622   2.437
41609W        W 9827   8.642  16.211   2.123
41610W        W 9828  19.080  26.886  11.282
41611W        W 9829   2.728  11.395   1.792
41612W        W 9830  16.221   8.543  14.452
41613W        W 9831  21.562  43.545  13.434
41614W        W 9832   5.861  28.056   2.577
41615W        W 9833  35.203  13.331  12.492
41616W        W 9834  14.638  26.509   4.942
41617W        W 9835  24.268  10.675   3.657
41618W        W 9836  40.379  39.308   2.708
41619W        W 9837  20.810  24.394   2.761
41620W        W 9838  40.697  22.199  14.067
41621W        W 9839  38.871  20.763   3.652
41622W        W 9840  20.498  14.572   4.571
41623W        W 9841  41.252  36.642   3.654
41624W        W 9842  39.334  30.148   1.323
41625W        W 9843  21.085  29.906   0.340
41626W        W 9844  11.598   5.691  11.176
41627W        W 9845   1.023  19.722   3.774
41628W        W 9846   0.816   8.488  13.426
41629W        W 9847  31.172   7.847  13.388
41630W        W 9848  25.526  12.047  13.348
41631W        W 9849  10.131  27.952   1.182
41632W        W 9850  12.676  12.414  11.075
41633W        W 9851  24.487  38.343  12.991
41634W        W 9852  24.138  14.826   0.250
41635W        W 9853  18.617  28.121  14.938
41636W        W 9854  22.194  41.239   0.211
41637W        W 9855  30.735  32.224  10.189
41638W        W 9856  43.906   2.970   0.913
41639W        W 9857  15.812  31.239   1.402
41640W        W 9858  19.663  29.977   4.453
41641W        W 9859   9.760   0.841  14.122
41642W        W 9860  37.382  38.345   1.745
41643W        W 9861  15.617   1.413  12.438
41644W        W 9862  38.938  36.308  11.017
41645W        W 9863  21.253  23.041   2.381
41646W        W 9864  19.206  28.412   0.120
41647W        W 9865  13.540  19.985  14.106
41648W        W 9866  26.003  11.883   0.962
41649W        W 9867  29.213   1.467  10.377
41650W        W 9868   1.293  33.196   4.547
41651W        W 9869  23.118  17.438  14.451
41652W        W 9870  22.347   4.317  14.672
41653W        W 9871  38.825   3.465   0.834
41654W        W 9872  19.287  21.873  14.715
41655W        W 9873   4.183  16.116  10.726
41656W        W 9874  11.280  37.094  13.827
41657W        W 9875   5.212  20.721  13.850
41658W        W 9876  18.100   6.940   2.303
41659W        W 9877  14.645  25.136  13.157
41660W        W 9878  17.659  14.423   0.398
41661W        W 9879  17.644   9.367  14.407
41662W        W 9880  28.889   0.371  11.487
41663W        W 9881  17.638  37.615  13.410
41664W        W 9882  41.286   9.376   3.243
41665W        W 9883  31.072  19.203   3.271
41666W        W 9884   1.804  32.507  10.456
41667W        W 9885  42.706  40.402  14.020
41668W        W 9886   0.439  24.543   1.393
41669W        W 9887  29.048  11.316   2.285
41670W        W 9888  36.929   6.694  11.443
41671W        W 9889  32.152   3.211   2.208
41672W        W 9890  30.418  18.091  12.267
41673W        W 9891  18.536  39.204   3.340
41674W        W 9892  29.378  30.386   2.188
41675W        W 9893  20.233  25.185  10.792
41676W        W 9894  13.712  20.242  14.995
41677W        W 9895  13.221  12.318  14.994
41678W        W 9896  27.108   3.834  14.104
41679W        W 9897  44.441  14.281  14.968
41680W        W 9898  13.199   0.348   4.610
41681W        W 9899  37.224  15.569  13.529
41682W        W 9900   7.284  18.520  12.484
41683W        W 9901  26.900  40.000   1.303
41684W        W 9902  13.577  29.434   2.354
41685W        W 9903  39.186   2.879   1.917
41686W        W 9904  18.613  23.524  14.527
41687W        W 9905  23.523  23.375   1.331
41688W        W 9906  13.353  31.808   3.649
41689W        W 9907  21.921   0.959   1.090
41690W        W 9908  34.627  19.666   2.871
41691W        W 9909  27.203  31.612  13.802
41692W        W 9910  21.730  16.603  12.571
41693W        W 9911  17.658  13.931   0.295
41694W        W 9912  35.808  36.224   1.476
41695W        W 9913   2.228  13.742   1.211
41696W        W 9914  38.795   5.182  12.626
41697W        W 9915  34.495  22.112   1.967
41698W        W 9916   2.876  30.418  14.067
41699W        W 9917  23.102  41.960   2.359
41700W        W 9918  13.725  22.708  12.953
41701W        W 9919  40.757   7.188  10.341
41702W        W 9920  38.804  21.034  12.950
41703W        W 9921  36.405  14.579   0.972
41704W        W 9922  26.213  25.694  13.971
41705W        W 9923  14.366  22.521  14.052
41706W        W 9924   4.719  24.585  10.736
41707W        W 9925  15.687  22.242  12.984
41708W        W 9926  11.815  37.360   0.927
41709W        W 9927  30.650   0.305  11.620
41710W        W 9928  30.501  39.841  13.324
41711W        W 9929  11.828  14.578   2.768
41712W        W 9930  11.851  35.944  12.575
41713W        W 9931  23.133  31.681  13.465
41714W        W 9932  43.249  41.880  13.263
41715W        W 9933   6.750   0.414   1.911
41716W        W 9934   3.217  15.656  14.493
41717W        W 9935  17.202  34.440  11.160
41718W        W 9936  16.169  22.078  10.699
41719W        W 9937  42.114   0.940   3.557
41720W        W 9938  34.390   1.722   4.684
41721W        W 9939  13.711   7.384   2.868
41722W        W 9940  13.242  28.390   1.778
41723W        W 9941   3.351   2.921  14.183
41724W        W 9942  10.528  25.488  12.990
41725W        W 9943  44.915  28.467  13.464
41726W        W 9944  22.128  26.581  11.397
41727W        W 9945   8.814  16.186   4.073
41728W        W 9946  30.200  18.735  11.600
41729W        W 9947   4.513  11.094  11.064
41730W        W 9948  29.460  23.390  13.784
41731W        W 9949  17.252   2.329  10.239
41732W        W 9950  27.410  35.029   2.293
41733W        W 9951  44.331   4.325   1.341
41734W        W 9952  23.011  36.414  13.275
41735W        W 9953  11.073  12.324   3.402
41736W        W 9954   1.242  30.106  11.248
41737W        W 9955  34.923  16.677  11.139
41738W        W 9956   3.367  36.620  12.348
41739W        W 9957  30.051  12.378  13.978
41740W        W 9958   2.712  41.590   3.989
41741W        W 9959  41.771   4.447   3.693
41742W        W 9960  24.654  26.180   3.741
41743W        W 9961  16.589  41.907   0.663
41744W        W 9962  44.396   8.303   0.344
41745W        W 9963  43.452   4.749   1.001
41746W        W 9964  18.260  20.140  14.854
41747W        W 9965  25.009   2.834  13.387
41748W        W 9966  10.772  11.675  13.111
41749W        W 9967  41.381  18.808  11.862
41750W        W 9968  24.953  24.806   4.363
41751W        W 9969  37.968  24.308  10.721
41752W        W 9970  27.266  34.403   3.214
41753W        W 9971  15.001   8.102   1.476
41754W        W 9972  10.877  40.624   2.947
41755W        W 9973  38.849  10.782  12.918
41756W        W 9974  22.083  20.613   2.307
41757W        W 9975  30.376   7.827   4.693
41758W        W 9976  28.087   7.157  10.853
41759W        W 9977  12.875  10.629   1.255
41760W        W 9978  42.990  27.451  10.491
41761W        W 9979  10.084   3.857   3.986
41762W        W 9980  16.187  11.540  10.828
41763W        W 9981  31.194  27.609  12.034
41764W        W 9982  30.922  22.029  10.704
41765W        W 9983  36.985  30.197  10.751
41766W        W 9984  27.446  36.318  14.777
41767W        W 9985   2.377  26.365   2.813
41768W        W 9986  13.404  38.670  14.436
41769W        W 9987  24.234  17.658  12.856
41770W        W 9988  36.069  25.607   4.794
41771W        W 9989  22.830  15.329  12.057
41772W        W 9990  39.025  13.836   0.969
41773W        W 9991   5.120  16.201   0.293
41774W        W 9992  28.407   9.813   1.287
41775W        W 9993  44.229   4.957  14.445
41776W        W 9994  44.225  39.770   1.248
41777W        W 9995  26.041  31.623   1.177
41778W        W 9996  44.826   5.176   4.324
41779W        W 9997  31.574  41.534   4.514
41780W        W 9998  39.950  10.885  11.156
41781W        W 9999  23.816  36.442   0.977
41782W        W10000  37.837  33.573  11.216
41783W        W10001  40.684  14.172   1.134
41784W        W10002  40.335  24.286  14.316
41785W        W10003  18.897  16.866  11.224
41786W        W10004  34.841  27.873  13.024
41787W        W10005  12.680  10.390   1.704
41788W        W10006   7.343   0.683   3.953
41789W        W10007  42.006  17.377  13.467
41790W        W10008   2.947  34.932   0.247
41791W        W10009  34.368  30.024   2.395
41792W        W10010  10.158  14.844  10.237
41793W        W10011  16.339  19.140   4.241
41794W        W10012  14.318  16.857   2.236
41795W        W10013  13.261  32.921   0.092
41796W        W10014  23.992  20.227  14.810
41797W        W10015  41.588  38.252  14.499
41798W        W10016  24.911  29.652  12.435
41799W        W10017  37.340  35.976   1.225
41800W        W10018  34.891  23.745   4.720
41801W        W10019  35.587  39.943   4.060
41802W        W10020   5.198  38.786   0.001
41803W        W10021  11.110  43.280  11.124
41804W        W10022   0.176  15.965  12.032
41805W        W10023  33.348   1.062   5.231
41806W        W10024  19.565  41.304  11.397
41807W        W10025   2.761  43.830  11.950
41808W        W10026  41.276  11.667   1.004
41809W        W10027  18.342  31.570  12.056
41810W        W10028   4.087   5.707   4.860
41811W        W10029  31.270   6.187  11.024
41812W        W10030  23.122  36.381   4.847
41813W        W10031  30.156  12.288  10.590
41814W        W10032  41.260  43.015  10.670
41815W        W10033  19.750  44.270   2.278
41816W        W10034   6.599  16.251  14.385
41817W        W10035  31.070  26.617   3.647
41818W        W10036  21.061  31.803   4.190
41819W        W10037  14.794  17.561   3.224
41820W        W10038  18.325  26.306   0.347
41821W        W10039  16.275  36.082   0.355
41822W        W10040  15.244  15.699   9.892
41823W        W10041   3.733  26.988   1.048
41824W        W10042  12.307   1.855  12.593
41825W        W10043   2.700   8.950  12.143
41826W        W10044   3.852  44.424   2.763
41827W        W10045  31.624  24.215   2.851
41828W        W10046  42.422  34.531   4.084
41829W        W10047  16.208  38.695   3.212
41830W        W10048  30.583  42.686   2.330
41831W        W10049  36.500  20.319  10.723
41832W        W10050  42.579  29.503  13.940
41833W        W10051  20.599  10.651   0.391
41834W        W10052  23.921   3.088  11.536
41835W        W10053  23.310   3.736  12.371
41836W        W10054  28.690  12.088   3.643
41837W        W10055   0.874  27.942  10.712
41838W        W10056   2.310  44.420  11.576
41839W        W10057  30.352  25.078  12.203
41840W        W10058  19.509   3.418   2.199
41841W        W10059  35.876  15.139   4.498
41842W        W10060   3.739  19.122   2.360
41843W        W10061  24.198  17.473   4.492
41844W        W10062  37.005   8.843  11.545
41845W        W10063   4.838  12.706   2.320
41846W        W10064   5.471  38.473  12.931
41847W        W10065  29.002  40.856   0.548
41848W        W10066  30.157  10.661   1.319
41849W        W10067  41.834  28.548   1.748
41850W        W10068  34.797  29.716  11.108
41851W        W10069   4.921   1.759  13.312
41852W        W10070  23.011  42.769   3.216
41853W        W10071  27.912  29.464  10.593
41854W        W10072  14.685  30.797  12.189
41855W        W10073  33.141  22.920  11.135
41856W        W10074  26.715  16.123  14.078
41857W        W10075   3.147  20.740   3.260
41858W        W10076  26.539  11.561  12.961
41859W        W10077  12.926  31.380  13.332
41860W        W10078  14.656  40.376   2.355
41861W        W10079   7.276  44.674   0.853
41862W        W10080  33.951  19.192   3.737
41863W        W10081  39.309   9.233  14.923
41864W        W10082  19.982  32.115  11.491
41865W        W10083  10.423  22.318   2.013
41866W        W10084  36.920   8.819   3.824
41867W        W10085  43.420   7.704   3.792
41868W        W10086  24.714  16.134   4.689
41869W        W10087  17.022  14.246  12.275
41870W        W10088  20.843  24.567  11.272
41871W        W10089  13.250  32.562  11.075
41872W        W10090  18.507  24.031  13.892
41873W        W10091  25.625  41.102   0.049
41874W        W10092   2.148  22.273   3.864
41875W        W10093   0.973   5.640  11.117
41876W        W10094  13.210  40.333   2.646
41877W        W10095  44.014   4.472   1.712
41878W        W10096  44.787  28.295   2.576
41879W        W10097   7.920  14.587  12.021
41880W        W10098  10.740   7.595   1.280
41881W        W10099   9.137  40.520  14.094
41882W        W10100  39.546  12.665  13.744
41883W        W10101  14.489   0.761  12.945
41884W        W10102   0.317  31.347  14.665
41885W        W10103   0.131  16.145  14.514
41886W        W10104   3.847  41.183  12.209
41887W        W10105  22.530  11.648  14.230
41888W        W10106  32.013  35.492   3.713
41889W        W10107  34.110  36.309  13.840
41890W        W10108  25.847  12.090  12.899
41891W        W10109  22.697  31.487  12.609
41892W        W10110  41.021  32.856   1.161
41893W        W10111   0.743  39.422   1.288
41894W        W10112  34.269  24.690   4.091
41895W        W10113  14.595   6.550   3.236
41896W        W10114  32.153  13.227  13.118
41897W        W10115  16.725  43.380   2.354
41898W        W10116  26.847  30.786  14.222
41899W        W10117  23.035   0.685   2.360
41900W        W10118  40.850   4.960  12.415
41901W        W10119   0.650  16.466   5.006
41902W        W10120   6.198  25.061   4.857
41903W        W10121  17.188  22.590  13.857
41904W        W10122   8.260  43.129   2.583
41905W        W10123  13.004   1.984   4.569
41906W        W10124  24.491  17.992   1.105
41907W        W10125   2.729   9.814  13.776
41908W        W10126  29.554   6.228   3.635
41909W        W10127  40.376  38.624   4.584
41910W        W10128   8.216  25.938  14.499
41911W        W10129  35.484  40.795  14.874
41912W        W10130  20.432  32.687  10.161
41913W        W10131  30.670  24.627   4.448
41914W        W10132  43.918   7.316   1.526
41915W        W10133  27.469   8.626  14.374
41916W        W10134  24.490   9.853  10.686
41917W        W10135  44.008  19.542  14.517
41918W        W10136  23.122  43.739   0.777
41919W        W10137   6.692   5.266  12.946
41920W        W10138   4.847  23.654   0.953
41921W        W10139  35.481   8.991   4.704
41922W        W10140  36.049  40.419   1.209
41923W        W10141   1.322  30.128  12.635
41924W        W10142  31.338   5.445   4.228
41925W        W10143  18.605  17.543  10.635
41926W        W10144  10.908  13.475  12.152
41927W        W10145  32.480   7.755   4.708
41928W        W10146   4.649  16.493  12.392
41929W        W10147  43.783  33.120   0.682
41930W        W10148   6.157  33.532  12.015
41931W        W10149   0.532   4.813   2.124
41932W        W10150   8.010  33.067  14.331
41933W        W10151  31.023  30.703   4.491
41934W        W10152  16.084  30.022   1.028
41935W        W10153  16.879  36.859  12.974
41936W        W10154  20.604  43.309  14.539
41937W        W10155   2.642  15.509   2.648
41938W        W10156  16.596  29.276   3.289
41939W        W10157  40.266   8.855   3.736
41940W        W10158   8.649  23.515  13.855
41941W        W10159  11.065  28.366   1.831
41942W        W10160  25.395  16.777   4.320
41943W        W10161   2.566  12.791   1.801
41944W        W10162   1.424  36.693   1.904
41945W        W10163   9.777   0.383   4.662
41946W        W10164  33.485  41.305   1.885
41947W        W10165  15.093  25.027   0.849
41948W        W10166  26.306   1.384  11.556
41949W        W10167  24.233  21.421   2.347
41950W        W10168   4.420  10.151   0.093
41951W        W10169  24.415  19.350  11.099
41952W        W10170   3.303  37.275   5.036
41953W        W10171  37.024  19.279  12.595
41954W        W10172  36.381   5.622   2.357
41955W        W10173   3.002  39.532   2.102
41956W        W10174  23.067   0.068   3.231
41957W        W10175  13.359  31.459  13.082
41958W        W10176  24.120  39.283   3.623
41959W        W10177  17.575  13.314   1.430
41960W        W10178  38.102  17.170   2.209
41961W        W10179   6.787  37.522  11.270
41962W        W10180  16.098   0.925   3.503
41963W        W10181  38.737  22.406   4.990
41964W        W10182  21.080  27.723   2.738
41965W        W10183  25.013  11.137  10.791
41966W        W10184  12.184   7.940  12.493
41967W        W10185  34.513  18.471  12.560
41968W        W10186  30.627  18.145   2.799
41969W        W10187  17.378   4.436   4.681
41970W        W10188  17.561   4.784  14.015
41971W        W10189  36.304  40.435  10.051
41972W        W10190  39.769  23.920   3.586
41973W        W10191   4.466  27.602   4.153
41974W        W10192  18.072  41.442  14.951
41975W        W10193   1.399  22.004   0.801
41976W        W10194  23.955  12.640   0.358
41977W        W10195  26.099  11.242   4.742
41978W        W10196   3.243  33.948  13.689
41979W        W10197  27.677  24.321  12.526
41980W        W10198   2.946  18.441   3.354
41981W        W10199   2.993  31.924   0.330
41982W        W10200  36.967  42.012  10.601
41983W        W10201  22.098  21.962   3.559
41984W        W10202  35.161  28.519  10.775
41985W        W10203  29.697   0.853  12.942
41986W        W10204   7.778  27.692   3.126
41987W        W10205  29.913  23.190   1.871
41988W        W10206   4.489  16.823   1.411
41989W        W10207  16.308   8.178   1.789
41990W        W10208  44.029  25.934  11.623
41991W        W10209  19.212  20.337  14.913
41992W        W10210  26.481  38.612   4.779
41993W        W10211  35.525  24.252  11.549
41994W        W10212  23.200   5.293  13.836
41995W        W10213  29.818  44.862   0.876
41996W        W10214  41.474  20.873   3.486
41997W        W10215  43.491  43.864   3.627
41998W        W10216   7.578  34.086   0.980
41999W        W10217  43.269  22.120   3.125
42000W        W10218  30.822  36.746  14.308
42001W        W10219   6.362   5.173  14.898
42002W        W10220  24.950  27.595  13.502
42003W        W10221  30.651   4.732  14.435
42004W        W10222  16.219  42.532  11.631
42005W        W10223  31.375   2.789   2.103
42006W        W10224  42.771  26.873  12.664
42007W        W10225  10.963  37.602   1.886
42008W        W10226  35.846  37.384  13.824
42009W        W10227  33.852   2.953  10.622
42010W        W10228  29.129  39.229  12.362
42011W        W10229  19.224  44.599  14.524
42012W        W10230  12.468  14.229  14.303
42013W        W10231  25.238  17.532   3.927
42014W        W10232  38.271  41.010   0.169
42015W        W10233  22.592  11.687   2.122
42016W        W10234  14.560  21.924  11.463
42017W        W10235  13.339  19.801  13.648
42018W        W10236  27.174  24.305   4.222
42019W        W10237  44.875   9.880   4.621
42020W        W10238  26.681  26.810   2.803
42021W        W10239   7.612   9.592   0.172
42022W        W10240  34.918  35.664   2.800
42023W        W10241   5.630  40.633   1.774
42024W        W10242  17.599  34.324  11.952
42025W        W10243  29.689  32.915   1.365
42026W        W10244   5.434  31.652   1.940
42027W        W10245  24.123  40.835   0.308
42028W        W10246  36.575  10.639   3.617
42029W        W10247   2.912   0.249  12.765
42030W        W10248  26.850  34.818   0.829
42031W        W10249  25.938   7.322  11.460
42032W        W10250  44.484  42.764  12.607
42033W        W10251   5.509  12.533   0.480
42034W        W10252  36.848  14.202   0.315
42035W        W10253  41.441  14.141  11.532
42036W        W10254  24.530  17.429   0.310
42037W        W10255  43.851  10.595   1.260
42038W        W10256   7.710  44.393  14.863
42039W        W10257  29.133  34.657   3.228
42040W        W10258  40.977  44.328   0.270
42041W        W10259  26.533   5.316  10.591
42042W        W10260   6.366  39.471   1.281
42043W        W10261   5.250  42.390  13.010
42044W        W10262   9.471  42.571  12.980
42045W        W10263   4.738  38.436   4.258
42046W        W10264   7.577  21.884   2.163
42047W        W10265  36.717  42.727   0.889
42048W        W10266  38.259  40.002  13.430
42049W        W10267  18.675  39.856  11.659
42050W        W10268  17.327  26.289   1.518
42051W        W10269  42.909  26.371  12.613
42052W        W10270  35.287  43.473   3.679
42053W        W10271  19.471  23.674   2.429
42054W        W10272  43.279   5.208   1.870
42055W        W10273   2.330  23.557  12.882
42056W        W10274  14.639   2.336  13.480
42057W        W10275  40.756  29.428   2.710
42058W        W10276  38.073  38.343   3.240
42059W        W10277  23.513  27.934   4.486
42060W        W10278  14.645  30.875  11.687
42061W        W10279  17.559   2.344  11.558
42062W        W10280  20.873   3.292   0.779
42063W        W10281  20.452   5.787  13.580
42064W        W10282  27.664  20.598  13.156
42065W        W10283  38.454  24.456  10.783
42066W        W10284  19.617  19.414  11.748
42067W        W10285  27.984  31.628   2.689
42068W        W10286  28.395   0.346   1.020
42069W        W10287  40.977   8.970  10.788
42070W        W10288  31.020  11.819  13.050
42071W        W10289   3.917   7.285   3.607
42072W        W10290  28.549   1.822  12.056
42073W        W10291  30.535  32.896  10.872
42074W        W10292  20.532  31.052  13.086
42075W        W10293  26.343  23.529  13.222
42076W        W10294  19.238  36.874   2.732
42077W        W10295   1.364  31.573   4.638
42078W        W10296  19.495  18.522  11.613
42079W        W10297  34.998  42.424   1.166
42080W        W10298  32.190   3.765   2.185
42081W        W10299  26.975  20.163  13.334
42082W        W10300   1.337  43.730  11.723
42083W        W10301  15.024  38.507  11.494
42084W        W10302   7.345  22.066   3.044
42085W        W10303   6.417  26.536   0.060
42086W        W10304  11.717  31.650   3.472
42087W        W10305  18.441  39.132   4.959
42088W        W10306  44.712   9.881  11.829
42089W        W10307  39.486   4.485  13.538
42090W        W10308  15.406  24.253  10.559
42091W        W10309   0.967  21.841   2.690
42092W        W10310  41.753  19.763   2.704
42093W        W10311  22.158  36.426  14.481
42094W        W10312  15.263  42.393   2.691
42095W        W10313  26.537   3.356  13.800
42096W        W10314   0.032   8.274  10.762
42097W        W10315  21.868  29.867   1.370
42098W        W10316  44.071  14.093   1.337
42099W        W10317   1.715  32.168   2.499
42100W        W10318   2.642  34.910   3.274
42101W        W10319  29.602  24.486   1.404
42102W        W10320  18.123  30.955  13.771
42103W        W10321  10.847  44.855   0.973
42104W        W10322   3.755   2.070  10.632
42105W        W10323  32.884  16.074   1.748
42106W        W10324  41.525   7.403  11.261
42107W        W10325  22.714   6.117   3.133
42108W        W10326   4.342  43.421  14.551
42109W        W10327  31.462  27.469  11.624
42110W        W10328   5.486  26.901   0.861
42111W        W10329  31.106  28.624   4.105
42112W        W10330  38.744  12.223   1.909
42113W        W10331  30.248  40.413  11.678
42114W        W10332  36.823   4.284   4.215
42115W        W10333  34.812  19.469  11.546
42116W        W10334  22.746  11.208  14.058
42117W        W10335  36.948  22.201   3.391
42118W        W10336  21.514  16.360   1.353
42119W        W10337  38.200  22.676  13.438
42120W        W10338  25.482   1.456  14.537
42121W        W10339  40.876  40.316   3.870
42122W        W10340  28.079   6.088  10.726
42123W        W10341   2.410  32.148   4.212
42124W        W10342  32.047  40.264   3.208
42125W        W10343   2.045  24.493  14.337
42126W        W10344  16.608   6.413   1.257
42127W        W10345  24.133  27.480  11.076
42128W        W10346  38.253  36.471  13.009
42129W        W10347  34.632  31.429  10.540
42130W        W10348  40.992  23.559   3.285
42131W        W10349  27.990  34.537   0.221
42132W        W10350  30.135  24.952  10.749
42133W        W10351  26.978  19.684   1.622
42134W        W10352   3.209  21.408   4.556
42135W        W10353  21.665  18.305  12.844
42136W        W10354   1.569  27.667  14.751
42137W        W10355   2.095  14.073  12.967
42138W        W10356  44.640  24.602  14.076
42139W        W10357  26.435  39.460   3.267
42140W        W10358  13.262   2.342   3.144
42141W        W10359  16.768  43.805  10.203
42142W        W10360   3.761  40.241   3.689
42143W        W10361  41.840  38.259  11.760
42144W        W10362  40.168   1.056   3.748
42145W        W10363  22.019  40.825  11.973
42146W        W10364  12.025   5.841  14.443
42147W        W10365  30.645   8.222   4.479
42148W        W10366  38.984  19.486  13.829
42149W        W10367  29.598  41.955   2.742
42150W        W10368   0.021   3.346   1.979
42151W        W10369   4.813   2.772   2.419
42152W        W10370  27.000  38.424  13.975
42153W        W10371  25.962  28.933   4.585
42154W        W10372  39.970  41.219   4.149
42155W        W10373  29.051  26.895  13.289
42156W        W10374  36.964  12.849   1.694
42157W        W10375  33.767   8.358  12.554
42158W        W10376  42.856   3.912  10.663
42159W        W10377  23.460  22.374  12.386
42160W        W10378  39.851  37.442   4.548
42161W        W10379  37.094  32.993   3.580
42162W        W10380  12.218  21.206  14.850
42163W        W10381  39.402  20.165  14.200
42164W        W10382  31.932  17.406  12.012
42165W        W10383  15.553  33.775   3.984
42166W        W10384  23.109  10.383   1.511
42167W        W10385  44.460   3.506  12.129
42168W        W10386  25.542  32.648  13.488
42169W        W10387  23.834  41.235  14.363
42170W        W10388  22.666  27.523   4.134
42171W        W10389  22.177  43.873   0.442
42172W        W10390  23.108  10.873  13.844
42173W        W10391  13.102   5.276  12.353
42174W        W10392  31.554   6.512  10.092
42175W        W10393  16.011  11.169  11.637
42176W        W10394   3.198  26.255   1.044
42177W        W10395  32.143  26.080   0.696
42178W        W10396  26.623   6.345   2.074
42179W        W10397   2.509  36.078  10.889
42180W        W10398  43.536   9.885  11.173
42181W        W10399   9.461  44.891  10.832
42182W        W10400  35.107  10.392  10.874
42183W        W10401  23.950  37.920  14.712
42184W        W10402  15.741  18.953  10.711
42185W        W10403  23.690   2.837  13.899
42186W        W10404  29.328  37.587   2.127
42187W        W10405  36.886  22.140  12.094
42188W        W10406   1.328  13.206   3.732
42189W        W10407  14.540  36.063   4.732
42190W        W10408  28.581  33.966  12.635
42191W        W10409  11.227  41.921   4.084
42192W        W10410   0.500   4.280   3.037
42193W        W10411   0.414   3.835   3.332
42194W        W10412   2.027  44.269   3.689
42195W        W10413  40.569  11.806  13.787
42196W        W10414   3.599  28.955   0.746
42197W        W10415  11.333  40.605  14.316
42198W        W10416  29.671  17.483   1.771
42199W        W10417  12.643  42.390   1.853
42200W        W10418  17.248  12.952  11.523
42201W        W10419   8.448  10.212  12.853
42202W        W10420  35.897   3.329   5.084
42203W        W10421  23.441  33.659   2.602
42204W        W10422  30.891  10.727   1.924
42205W        W10423   8.057  11.999   1.759
42206W        W10424  10.133  39.996  12.974
42207W        W10425  25.037  23.190  13.398
42208W        W10426  18.820   3.443   0.749
42209W        W10427  29.006  16.814  11.212
42210W        W10428   3.911   0.752  14.831
42211W        W10429  19.926  25.478  11.529
42212W        W10430  28.445  36.236   2.291
42213W        W10431  37.280  24.761   0.503
42214W        W10432  20.600  44.474  13.524
42215W        W10433  17.841  10.465   1.782
42216W        W10434  12.623  32.201  13.064
42217W        W10435  43.427  39.319   3.745
42218W        W10436  30.959  31.364   1.754
42219W        W10437  23.507  14.815  13.941
42220W        W10438  40.589   0.019   0.460
42221W        W10439   5.138  20.668   2.344
42222W        W10440  27.681  41.949   3.955
42223W        W10441  28.520   7.242  11.591
42224W        W10442  19.258  18.038  13.891
42225W        W10443   7.338   1.839   2.880
42226W        W10444  14.808   9.722  12.336
42227W        W10445  43.976  34.567  12.028
42228W        W10446  37.812  11.692  12.735
42229W        W10447  39.350  13.091  13.946
42230W        W10448   2.712  28.673   1.820
42231W        W10449   3.786   2.460   2.759
42232W        W10450  35.607  24.704  13.619
42233W        W10451   3.368  39.064  13.771
42234W        W10452  21.179   7.200   4.035
42235W        W10453  36.438   1.378   1.220
42236W        W10454  19.166  23.929   1.467
42237W        W10455  36.630  35.941  11.490
42238W        W10456  36.867  20.820  14.452
42239W        W10457  11.086  23.111  14.846
42240W        W10458   7.622  24.064   1.138
42241W        W10459   4.204  39.416   4.126
42242W        W10460  31.707  26.618  13.013
42243W        W10461  17.246  29.853  12.985
42244W        W10462  40.815  13.346   0.895
42245W        W10463  22.015  39.192  10.638
42246W        W10464   6.251  38.214   4.622
42247W        W10465  40.777   0.549   3.276
42248W        W10466  36.818  21.498   4.077
42249W        W10467  28.038   6.361   0.397
42250W        W10468   5.901  20.606   0.280
42251W        W10469  24.195   8.814   2.637
42252W        W10470  31.959  17.185  12.968
42253W        W10471  22.914  44.489   4.497
42254W        W10472  11.591  21.285  11.319
42255W        W10473  36.650  19.922  14.276
42256W        W10474   2.609  18.815  12.032
42257W        W10475   5.819  18.336   4.088
42258W        W10476  14.048  35.962   3.859
42259W        W10477  25.429   9.759  14.777
42260W        W10478  33.410  39.730   4.109
42261W        W10479  19.027  37.810  12.002
42262W        W10480  23.978  27.758   3.355
42263W        W10481  38.917  16.531  10.007
42264W        W10482  15.813  14.174   0.875
42265W        W10483  41.836  11.119  10.283
42266W        W10484   6.888   4.475  12.436
42267W        W10485  22.128  18.455   1.860
42268W        W10486  10.221   9.439   2.733
42269W        W10487  23.289  31.626   0.797
42270W        W10488  11.684  41.852  13.523
42271W        W10489   5.991  42.066  14.421
42272W        W10490   2.337  35.117   3.691
42273W        W10491  39.412  31.085  13.410
42274W        W10492  40.601  22.789  10.855
42275W        W10493   1.285  10.859   3.587
42276W        W10494  28.796  36.325   3.370
42277W        W10495  14.224  37.209   5.100
42278W        W10496  17.152  44.411  10.003
42279W        W10497  41.091  22.501  11.617
42280W        W10498   3.851  38.467   2.692
42281W        W10499  18.642  29.413  12.374
42282W        W10500  11.132  19.091  13.080
42283W        W10501  27.545   2.350  12.927
42284W        W10502  15.664   7.934  13.511
42285W        W10503  13.788  25.384   2.867
42286W        W10504  18.288  34.272  13.518
42287W        W10505  44.443  38.326   1.398
42288W        W10506  21.248  24.248  11.553
42289W        W10507  42.035   4.999   2.406
42290W        W10508   1.731  28.616  10.738
42291W        W10509   4.782   0.176   4.083
42292W        W10510  35.098  30.153   0.237
42293W        W10511  16.534  26.857   5.054
42294W        W10512  20.343  12.759   4.555
42295W        W10513  44.475  23.289   4.131
42296W        W10514   2.855  38.481  11.656
42297W        W10515  33.498  36.394  11.497
42298W        W10516  38.519  12.829  12.811
42299W        W10517  30.457  14.108   4.623
42300W        W10518  19.732  17.639   4.807
42301W        W10519  29.385  38.544   2.273
42302W        W10520  32.641   5.383  10.694
42303W        W10521  30.156  43.303   1.742
42304W        W10522  29.872  30.077  12.562
42305W        W10523   3.260  16.970   1.602
42306W        W10524   2.855   7.979   0.349
42307W        W10525  19.600  40.511  12.472
42308W        W10526  23.807  15.230   3.799
42309W        W10527  28.902  40.293  13.369
42310W        W10528   4.346   0.345   4.934
42311W        W10529   1.409  28.414   4.638
42312W        W10530   3.156  23.145   2.830
42313W        W10531   8.844  31.377   1.231
42314W        W10532   7.904   0.220  11.264
42315W        W10533  24.565  36.838   3.865
42316W        W10534  21.725  23.530  11.235
42317W        W10535   5.718  31.491  14.799
42318W        W10536   2.786  34.162   1.178
42319W        W10537  39.945  26.571   3.619
42320W        W10538  10.101  11.642   2.243
42321W        W10539  30.651  19.356   2.294
42322W        W10540  27.734  34.633   2.336
42323W        W10541  42.283  10.909  13.876
42324W        W10542  22.015  29.913   2.192
42325W        W10543  41.610  43.314   4.547
42326W        W10544   5.917   3.635   0.422
42327W        W10545  35.882  20.991   3.808
42328W        W10546  20.943  27.218  13.875
42329W        W10547   9.087  39.504  11.278
42330W        W10548  21.482  35.696   3.431
42331W        W10549  18.762  15.630  14.488
42332W        W10550  35.857  22.314  12.579
42333W        W10551  44.510   9.314   2.887
42334W        W10552   6.342  23.614  12.002
42335W        W10553  28.930  43.339  13.493
42336W        W10554   6.842   9.157   3.451
42337W        W10555  20.917  32.640   5.427
42338W        W10556  10.297  40.023  12.060
42339W        W10557  42.392  36.305  12.531
42340W        W10558  39.446  27.955   3.594
42341W        W10559  23.267  23.892   0.847
42342W        W10560  19.110  17.897   2.075
42343W        W10561  21.169  18.548  13.685
42344W        W10562   5.740  10.589   1.231
42345W        W10563  17.765  14.255  12.649
42346W        W10564  38.376  19.562   3.759
42347W        W10565  36.813  33.171  11.410
42348W        W10566  42.002  35.470  12.552
42349W        W10567  33.179  26.473   1.444
42350W        W10568  16.709  39.356   3.572
42351W        W10569  14.252  39.249  12.012
42352W        W10570  26.442  18.306   0.339
42353W        W10571  11.265  18.754   4.171
42354W        W10572  40.578   5.259   3.929
42355W        W10573  42.884  24.493   4.100
42356W        W10574  15.615   3.652   1.494
42357W        W10575  15.276  40.099  10.627
42358W        W10576  43.493  40.558   3.169
42359W        W10577  20.780  27.309  12.948
42360W        W10578  42.843   4.967   1.768
42361W        W10579  34.489  26.459   2.262
42362W        W10580  26.878  25.449   1.436
42363W        W10581  35.878  23.954  11.098
42364W        W10582  25.378  40.026   0.314
42365W        W10583   1.831   4.304   1.355
42366W        W10584  20.959   3.978   2.943
42367W        W10585  15.336   0.344  14.313
42368W        W10586   8.931  43.374   2.204
42369W        W10587   9.276  31.280   2.930
42370W        W10588  40.886   7.465   2.318
42371W        W10589  25.123  10.896   2.344
42372W        W10590  42.658  12.489   2.693
42373W        W10591   1.527  37.118   3.893
42374W        W10592  21.731  27.346   4.485
42375W        W10593   4.902   8.813  13.453
42376W        W10594   6.348  10.886   0.468
42377W        W10595  30.850   8.548  12.094
42378W        W10596  10.302  21.736  11.505
42379W        W10597  29.362  33.916  11.072
42380W        W10598  41.953  26.150  11.695
42381W        W10599  43.019  43.127   1.013
42382W        W10600  24.418  21.904  13.534
42383W        W10601  35.542  34.844   0.799
42384W        W10602  32.271  12.751  10.687
42385W        W10603  33.883   9.657   3.686
42386W        W10604  15.527  44.490  11.454
42387W        W10605  10.620  22.726  11.113
42388W        W10606   5.797  34.507   4.611
42389W        W10607  26.953  28.545   2.175
42390W        W10608  28.918  32.893   0.931
42391W        W10609  37.960  16.649  10.884
42392W        W10610  26.497  12.082  13.049
42393W        W10611   9.208  27.079   3.720
42394W        W10612  22.021  36.419   0.026
42395W        W10613  24.536  31.898   0.467
42396W        W10614  23.212  42.449   3.575
42397W        W10615  32.560  13.404   2.343
42398W        W10616  32.462  37.658  13.822
42399W        W10617  23.260  14.743   1.828
42400W        W10618  30.471  43.889  11.171
42401W        W10619  26.079  38.087  14.284
42402W        W10620  18.698  19.596   1.793
42403W        W10621  44.272  22.551  13.482
42404W        W10622  44.556  25.792  14.166
42405W        W10623  35.877  12.771   1.456
42406W        W10624  36.687  39.863  14.454
42407W        W10625  12.162  33.574   4.205
42408W        W10626  33.315   4.484  14.937
42409W        W10627  25.797  43.019   2.408
42410W        W10628  19.476  20.520  11.290
42411W        W10629  16.135   4.179   4.845
42412W        W10630  30.547  27.473   0.376
42413W        W10631  33.634   0.383   1.923
42414W        W10632  21.518   2.210  12.820
42415W        W10633  41.839  29.128  14.030
42416W        W10634  30.631  38.607  14.869
42417W        W10635  12.353   6.232   4.458
42418W        W10636  39.116  40.783  13.473
42419W        W10637  34.786  29.701   0.846
42420W        W10638   0.402   2.346  13.310
42421W        W10639  35.067  41.628   0.018
42422W        W10640   5.756  38.460  11.130
42423W        W10641  35.963  35.807  12.548
42424W        W10642   3.436  28.955  11.101
42425W        W10643  34.130  36.586  14.821
42426W        W10644   5.736  38.545   0.900
42427W        W10645  32.559  15.914   3.305
42428W        W10646  32.193  39.737  11.188
42429W        W10647  11.589  29.502   4.223
42430W        W10648   4.240  41.546  14.956
42431W        W10649  35.546  13.092  13.864
42432W        W10650  29.019  18.178  10.293
42433W        W10651  12.932  38.473   0.824
42434W        W10652  44.653  11.801  13.387
42435W        W10653   0.257  27.927  14.754
42436W        W10654   7.359  44.692   1.739
42437W        W10655   8.469  17.857  12.764
42438W        W10656  26.498  40.412  13.348
42439W        W10657  24.065  17.063   4.219
42440W        W10658  14.771  20.242   2.675
42441W        W10659  12.554   1.964  13.331
42442W        W10660   9.228  37.863  11.615
42443W        W10661  11.206  20.051   3.327
42444W        W10662   8.330   7.531   1.820
42445W        W10663  26.561  35.284   2.095
42446W        W10664  37.036   6.826  12.882
42447W        W10665  21.189  22.212  11.505
42448W        W10666   5.441  20.292   0.699
42449W        W10667  10.106  38.003   1.239
42450W        W10668  21.051  34.468   4.031
42451W        W10669  30.399  18.605   1.143
42452W        W10670  36.434   9.410   4.197
42453W        W10671  23.776  35.949   0.702
42454W        W10672  44.599  44.922   2.304
42455W        W10673   6.695   2.824   1.259
42456W        W10674   4.085  26.013  11.208
42457W        W10675  14.180  17.118  13.543
42458W        W10676  32.194  13.565  11.800
42459W        W10677  13.258   3.293  13.383
42460W        W10678  14.656  27.012  13.783
42461W        W10679  10.909  42.371   3.181
42462W        W10680  22.366  31.529  13.018
42463W        W10681  27.676  22.494   2.771
42464W        W10682  43.964  37.059   1.441
42465W        W10683  27.955  37.469  13.859
42466W        W10684  40.852  31.945  14.850
42467W        W10685  31.036  43.400  14.225
42468W        W10686   6.338  33.419  14.856
42469W        W10687  23.669  39.867   1.518
42470W        W10688  23.819  43.364  11.464
42471W        W10689   4.591  27.612   3.162
42472W        W10690   9.180  38.599   4.130
42473W        W10691  39.232  28.035  12.502
42474W        W10692  14.240   9.733  10.814
42475W        W10693   9.442  43.401  14.299
42476W        W10694   3.362  43.965   3.994
42477W        W10695  23.456  39.518   1.200
42478W        W10696  26.618  44.539  11.111
42479W        W10697  37.527  37.392   0.259
42480W        W10698  38.212  25.917  14.778
42481W        W10699  27.991   7.468   1.162
42482W        W10700  33.078  23.542   0.385
42483W        W10701  40.887  38.382   0.735
42484W        W10702   3.943  24.133  11.122
42485W        W10703  13.530  13.150  11.667
42486W        W10704  33.578  27.583  11.630
42487W        W10705   5.253   9.828  11.461
42488W        W10706   7.927  28.954   4.657
42489W        W10707   2.765   9.439   4.389
42490W        W10708  17.261  34.320   3.733
42491W        W10709  40.487  39.472   0.965
42492W        W10710  25.247  14.342  13.971
42493W        W10711  37.494  29.637   2.234
42494W        W10712  23.959  10.044   1.342
42495W        W10713  43.255   0.338  10.921
42496W        W10714  19.361  20.428   4.535
42497W        W10715  28.670  40.769   1.399
42498W        W10716   0.102  30.199  13.996
42499W        W10717  32.395  18.753  12.068
42500W        W10718  42.896  36.598   4.907
42501W        W10719  19.314  41.493   3.669
42502W        W10720  44.894  33.876  12.798
42503W        W10721  30.692  14.905   1.036
42504W        W10722  23.965   4.829  14.873
42505W        W10723  15.259   4.164  12.430
42506W        W10724  22.972  25.495  12.412
42507W        W10725   5.867  40.677  10.237
42508W        W10726   9.781  13.126   0.354
42509W        W10727  17.567  42.952  12.540
42510W        W10728   4.096  37.862  13.655
42511W        W10729  34.806  35.340   4.157
42512W        W10730  32.233  25.944  11.999
42513W        W10731  35.488  44.862   4.081
42514W        W10732  40.844  44.960  14.970
42515W        W10733  25.534  19.724  12.914
42516W        W10734  34.383  42.589  13.560
42517W        W10735  28.375  17.318   2.656
42518W        W10736  36.903   9.660   3.712
42519W        W10737  38.913  20.450   1.341
42520W        W10738  20.686  35.577  10.969
42521W        W10739  10.369  33.803  12.541
42522W        W10740  27.974  28.935   0.256
42523W        W10741   5.326  13.779  11.958
42524W        W10742  23.655  33.031  11.051
42525W        W10743   0.679  20.794  13.031
42526W        W10744  36.454   4.198   1.259
42527W        W10745  33.836  41.304   3.591
42528W        W10746  23.026   2.856  12.379
42529W        W10747   7.861   1.540   2.183
42530W        W10748  34.507  42.244   1.226
42531W        W10749  22.543  26.354   3.693
42532W        W10750  25.952  15.564  10.237
42533W        W10751  18.649  20.789  11.124
42534W        W10752   0.966  42.914   2.796
42535W        W10753  18.543  28.246   3.752
42536W        W10754  11.963   2.257  11.545
42537W        W10755  41.296  11.730  12.478
42538W        W10756  20.014  33.613   2.244
42539W        W10757   4.166  25.957   1.270
42540W        W10758   0.835  13.645   0.432
42541W        W10759  19.326  32.605   0.484
42542W        W10760  41.346   1.567  12.498
42543W        W10761  32.411   7.281   0.672
42544W        W10762   0.499  42.225   4.130
42545W        W10763  27.750   3.321  10.778
42546W        W10764  29.146  43.202  13.951
42547W        W10765  37.632   0.565  11.641
42548W        W10766  24.190  43.708  11.479
42549W        W10767   0.445  33.108  13.062
42550W        W10768  39.271  19.166  12.474
42551W        W10769   6.818  16.088  13.902
42552W        W10770  38.331  35.905  12.687
42553W        W10771  22.986  30.579   0.887
42554W        W10772  28.527  25.327   3.666
42555W        W10773  13.159  35.673  12.450
42556W        W10774  25.628  33.964   3.330
42557W        W10775  11.835  15.173  14.322
42558W        W10776   5.763  42.886   2.916
42559W        W10777  32.074  13.375   2.629
42560W        W10778  26.466  18.627  11.973
42561W        W10779  14.792   9.390   1.023
42562W        W10780  18.650   9.164  10.967
42563W        W10781  24.000  13.818   0.847
42564W        W10782  10.220   2.419   5.061
42565W        W10783  32.217  29.917  14.419
42566W        W10784  20.511  17.018   4.572
42567W        W10785  20.473  32.161  11.629
42568W        W10786   4.060  39.527   9.789
42569W        W10787   8.455  29.232  10.716
42570W        W10788  41.813  34.899   1.615
42571W        W10789  23.364   1.281   4.515
42572W        W10790  22.638  20.212  11.597
42573W        W10791   1.981  28.093   2.197
42574W        W10792  27.534   7.822   3.015
42575W        W10793  29.535   5.996   2.668
42576W        W10794  34.734  34.796   1.245
42577W        W10795  12.142  20.621   2.785
42578W        W10796  35.330  19.597   4.727
42579W        W10797  27.849  32.027  13.515
42580W        W10798  43.794   7.807  13.121
42581W        W10799   6.349  20.661   3.282
42582W        W10800  13.850   4.982  14.364
42583W        W10801   8.762   2.512  14.944
42584W        W10802   3.162   3.922  13.892
42585W        W10803  28.548  27.638  12.977
42586W        W10804  11.862  29.018  12.106
42587W        W10805   0.033  42.848  14.035
42588W        W10806  18.743  19.680  13.494
42589W        W10807  23.123  12.059   2.649
42590W        W10808  17.296  15.186  12.078
42591W        W10809   0.891  22.661  14.467
42592W        W10810  14.031  27.432  11.815
42593W        W10811  39.882  16.966  12.000
42594W        W10812  42.280   1.927  14.718
42595W        W10813   0.938  39.279  10.721
42596W        W10814  24.144  30.150  12.576
42597W        W10815  15.259  23.744   1.467
42598W        W10816  14.672   8.898   0.925
42599W        W10817   5.655  18.362   3.205
42600W        W10818  12.295  29.515   4.624
42601W        W10819  10.848  29.729   4.643
42602W        W10820  20.236  27.488   1.362
42603W        W10821  20.924  17.182   4.920
42604W        W10822  20.705  34.378  12.096
42605W        W10823  37.426  29.082   3.096
42606W        W10824  26.219  20.266  12.973
42607W        W10825  44.972  26.199   1.620
42608W        W10826  12.684  40.287  11.169
42609W        W10827  21.199  43.138  12.094
42610W        W10828   1.536  29.298  12.870
42611W        W10829  31.525  32.360   0.032
42612W        W10830  39.351  21.566   2.825
42613W        W10831  41.787  16.427  12.087
42614W        W10832  12.171   7.496   3.819
42615W        W10833   3.362  12.422   1.883
42616W        W10834  17.144  29.707   4.633
42617W        W10835  42.976  14.804   0.980
42618W        W10836  41.627  28.348   4.885
42619W        W10837  23.132  16.618  14.741
42620W        W10838  40.382   8.914   2.405
42621W        W10839  17.567  32.867   2.946
42622W        W10840   7.310  39.737  14.972
42623W        W10841  33.257   1.210  13.970
42624W        W10842  28.903  28.647  13.356
42625W        W10843  38.115   5.426   3.676
42626W        W10844  38.415   1.480   2.479
42627W        W10845   2.181  39.221   4.170
42628W        W10846  25.961   7.657  13.616
42629W        W10847  29.879  36.986   1.782
42630W        W10848  24.934   7.206   3.122
42631W        W10849   8.648  36.715  13.055
42632W        W10850  25.024  18.079   0.374
42633W        W10851  11.692  33.878  13.355
42634W        W10852  21.944  19.660   3.111
42635W        W10853   2.009  21.854  14.114
42636W        W10854  25.912  35.368  11.988
42637W        W10855  24.431  23.165  11.226
42638W        W10856  13.203  31.963   2.607
42639W        W10857  12.271  15.371   0.382
42640W        W10858  38.325  41.429   2.775
42641W        W10859  21.307  14.659  12.878
42642W        W10860  10.469  27.933  12.108
42643W        W10861   3.820   9.571   0.892
42644W        W10862  17.109  16.633   2.319
42645W        W10863  42.969  13.293  14.517
42646W        W10864  19.762   9.927  13.332
42647W        W10865  12.629  23.524  11.526
42648W        W10866  22.373  27.247   3.232
42649W        W10867  29.469  26.393   1.251
42650W        W10868  31.482   9.203   1.005
42651W        W10869  20.305  31.862  14.962
42652W        W10870  10.928  42.708  12.528
42653W        W10871  22.980  18.859  12.462
42654W        W10872  43.068  43.333  12.415
42655W        W10873  34.070  11.643  14.473
42656W        W10874   3.665  20.053   2.778
42657W        W10875   5.871  34.010   4.343
42658W        W10876  38.138  23.008  11.002
42659W        W10877   7.430   2.200   0.772
42660W        W10878  11.190   9.778  11.711
42661W        W10879   4.587  24.947  11.476
42662W        W10880  35.738  29.479  12.044
42663W        W10881  11.107  27.741  11.642
42664W        W10882  13.229  12.729  14.681
42665W        W10883  26.025  30.107  13.362
42666W        W10884  32.361  20.289   0.967
42667W        W10885  38.723  34.181  13.296
42668W        W10886  28.609  33.956  13.503
42669W        W10887  41.015  12.798   2.420
42670W        W10888  32.266   8.130   1.858
42671W        W10889  39.476  42.405  14.779
42672W        W10890  24.313  20.872   1.644
42673W        W10891   4.192  30.116  11.630
42674W        W10892  31.013   9.422   3.892
42675W        W10893  21.959  15.176  11.878
42676W        W10894   3.670  30.875  14.469
42677W        W10895  20.796  34.388   3.586
42678W        W10896  10.273  36.015   0.552
42679W        W10897  33.305  22.399   4.463
42680W        W10898   8.384  32.451  12.528
42681W        W10899  30.161   7.670   0.729
42682W        W10900  21.528  10.320   4.778
42683W        W10901  31.189   8.443   0.423
42684W        W10902  27.188  38.041   1.372
42685W        W10903  12.852   7.216   3.339
42686W        W10904   2.242  13.612   2.203
42687W        W10905  21.156  10.791  12.609
42688W        W10906  37.830  22.682  11.393
42689W        W10907  29.418  23.574  11.986
42690W        W10908  41.525  29.859   3.334
42691W        W10909  11.311  32.901   1.635
42692W        W10910  30.449  41.013   3.297
42693W        W10911   2.293  32.512   4.581
42694W        W10912  22.780  32.477  13.547
42695W        W10913  24.964  43.421  13.304
42696W        W10914  36.826  38.013  14.564
42697W        W10915   1.399   5.494  13.921
42698W        W10916  32.699  38.324   4.190
42699W        W10917  28.430  20.099   0.388
42700W        W10918  16.806  18.591   1.735
42701W        W10919  18.113  15.216   3.158
42702W        W10920  44.744  39.064  13.878
42703W        W10921   0.843  19.840  12.822
42704W        W10922  42.355  38.942  10.563
42705W        W10923  26.532  12.859   2.463
42706W        W10924  32.307  16.649   2.244
42707W        W10925   3.245  38.278  13.286
42708W        W10926  30.612  10.407   1.267
42709W        W10927   4.467  14.600   3.687
42710W        W10928  26.088  14.565  10.356
42711W        W10929  41.718  31.057  12.546
42712W        W10930  19.300  23.730   1.930
42713W        W10931  36.510  10.402   0.758
42714W        W10932  37.963  33.828   3.990
42715W        W10933  15.166   8.119  13.640
42716W        W10934   6.285  35.821   4.629
42717W        W10935  11.177  30.398   4.927
42718W        W10936  36.066   5.452  14.737
42719W        W10937  33.381  37.486  10.746
42720W        W10938   1.145  24.757  11.327
42721W        W10939  40.145  44.508  11.581
42722W        W10940  36.951  23.619  14.999
42723W        W10941  29.416  16.808   0.823
42724W        W10942  12.051  27.709  11.496
42725W        W10943  13.377  17.895  12.005
42726W        W10944  27.701  27.998  14.219
42727W        W10945  18.773  39.413  11.888
42728W        W10946  11.866  43.460  14.559
42729W        W10947   2.524  18.085   1.913
42730W        W10948  35.303  43.083   0.352
42731W        W10949  14.354  17.625   1.722
42732W        W10950  13.902  24.983  12.470
42733W        W10951   6.649   8.087  14.054
42734W        W10952  20.982  37.077   4.034
42735W        W10953  24.019  40.336  10.679
42736W        W10954  13.112  36.059   3.677
42737W        W10955  27.580  32.536   4.249
42738W        W10956  10.597   3.634  12.377
42739W        W10957  23.246  22.783   3.567
42740W        W10958  18.527  14.015   9.931
42741W        W10959  20.922   2.855   3.267
42742W        W10960  15.979   0.985  10.548
42743W        W10961  19.699   4.486   3.390
42744W        W10962  15.898  26.379   2.728
42745W        W10963  37.466  17.297  13.975
42746W        W10964  38.605  23.195  12.333
42747W        W10965  20.516  16.519   2.615
42748W        W10966  27.693  19.789   1.004
42749W        W10967  40.778  42.648  10.029
42750W        W10968  27.155  38.728  12.425
42751W        W10969  33.490  36.956   3.687
42752W        W10970   2.048  40.588   1.668
42753W        W10971   7.746   9.333   4.493
42754W        W10972   3.224  16.450  12.596
42755W        W10973  38.309   2.912  10.280
42756W        W10974  10.899  41.863   4.496
42757W        W10975  20.977   8.213  12.986
42758W        W10976  31.108  16.561   0.945
42759W        W10977   6.344  18.763   2.272
42760W        W10978  14.258  17.690  14.258
42761W        W10979   8.665   1.416  14.395
42762W        W10980   0.481   5.024  14.463
42763W        W10981  16.128  42.729   0.234
42764W        W10982   3.481  11.987  11.121
42765W        W10983  32.160   8.826   2.794
42766W        W10984  33.993  40.425  11.307
42767W        W10985  27.121   5.901  14.776
42768W        W10986  36.228  10.787  13.998
42769W        W10987  44.974  14.784  11.555
42770W        W10988  16.317  28.968   1.820
42771W        W10989  17.817  13.228   0.057
42772W        W10990  37.601  17.029   3.246
42773W        W10991  37.519   1.008   4.619
42774W        W10992  23.553  43.720   2.199
42775W        W10993  26.803  27.185  14.170
42776W        W10994  24.969  25.182   0.958
42777W        W10995  43.738  40.499   0.947
42778W        W10996  23.489  26.500   4.052
42779W        W10997  31.992  40.767   0.909
42780W        W10998  20.056  13.626  10.674
42781W        W10999  27.087  23.028  13.472
42782W        W11000   4.776  36.401   0.792
42783W        W11001   2.507  32.555  13.600
42784W        W11002  16.561  28.598   1.489
42785W        W11003   8.384   1.347  10.718
42786W        W11004   8.764  17.065   1.902
42787W        W11005  18.014  21.965  14.082
42788W        W11006   5.993  36.161   2.880
42789W        W11007  44.870   7.573  11.200
42790W        W11008  14.109  17.868  12.446
42791W        W11009  30.789  28.186   9.811
42792W        W11010  23.778  19.760   2.376
42793W        W11011  29.140  41.704   2.761
42794W        W11012  24.531   6.344   3.392
42795W        W11013  37.039  23.236   3.689
42796W        W11014   5.149  13.167  13.058
42797W        W11015   6.132  13.284  11.124
42798W        W11016  37.891  29.721  10.473
42799W        W11017   6.281  10.204  14.241
42800W        W11018  16.307   5.803   4.126
42801W        W11019  19.682  44.733   1.378
42802W        W11020  13.884   6.475  12.565
42803W        W11021  44.572  35.047   1.349
42804W        W11022  41.393  14.328   2.862
42805W        W11023   4.662   0.820   3.716
42806W        W11024  30.424  13.679   0.218
42807W        W11025  41.395  25.588   3.572
42808W        W11026  25.322  11.646   2.811
42809W        W11027  39.757   6.411   2.219
42810W        W11028  39.537   3.263   1.853
42811W        W11029  41.503  18.570  12.855
42812W        W11030  35.356  24.507  14.059
42813W        W11031  17.732  33.803   0.137
42814W        W11032   7.626  43.937  13.364
42815W        W11033  21.741  27.605  12.050
42816W        W11034   8.159  38.049  13.798
42817W        W11035  10.049  28.767   4.869
42818W        W11036  17.551   0.483   5.238
42819W        W11037  39.858  15.639  13.865
42820W        W11038  24.232   3.159  11.134
42821W        W11039  44.252  38.985   3.750
42822W        W11040  11.408  38.683  10.354
42823W        W11041  18.131  18.058   4.671
42824W        W11042   1.261   1.522   0.924
42825W        W11043  33.355   4.986  10.420
42826W        W11044  16.287  13.744  14.875
42827W        W11045   3.782   8.949   0.127
42828W        W11046  36.530   3.405  12.476
42829W        W11047  16.222  34.517   4.893
42830W        W11048  11.246  21.777  10.610
42831W        W11049   3.824   9.462  12.773
42832W        W11050  28.598  34.477  12.492
42833W        W11051  34.723  42.709  11.903
42834W        W11052   6.973  19.353   2.867
42835W        W11053  15.499  30.819  10.130
42836W        W11054  18.705  28.364  10.428
42837W        W11055  24.133  40.257  13.956
42838W        W11056  41.808  41.217  11.498
42839W        W11057   0.933   1.097   0.102
42840W        W11058  14.986  12.084  11.192
42841W        W11059  11.811  13.551   1.424
42842W        W11060   8.396  32.946   4.558
42843W        W11061  40.133  22.501  14.100
42844W        W11062  38.080  19.015  11.513
42845W        W11063   6.872   9.777   1.273
42846W        W11064  13.194   9.435  13.768
42847W        W11065  15.702  26.512  14.905
42848W        W11066  27.795  17.213  11.197
42849W        W11067  34.910  33.505  14.636
42850W        W11068   3.526  43.988   1.332
42851W        W11069  24.628  28.127   2.406
42852W        W11070  14.097  18.810   4.113
42853W        W11071  19.185  16.154   3.099
42854W        W11072   4.691   9.569  12.335
42855W        W11073  30.603  44.482   2.717
42856W        W11074  21.305  40.732  11.521
42857W        W11075  21.652  20.684   4.293
42858W        W11076  24.321   4.271  12.387
42859W        W11077  43.795  41.786   3.699
42860W        W11078  28.113   1.511  12.211
42861W        W11079  12.459  43.203  11.437
42862W        W11080  24.906  33.609   0.014
42863W        W11081   0.694  13.404   2.793
42864W        W11082   5.284  27.700  13.072
42865W        W11083  37.489  17.954   2.216
42866W        W11084   2.743  24.263  13.079
42867W        W11085  36.259   1.812  10.389
42868W        W11086   2.463  11.547  14.573
42869W        W11087  17.839   4.872  11.350
42870W        W11088  18.337  29.060  12.592
42871W        W11089  23.567  12.186   1.693
42872W        W11090  33.583  20.150  12.556
42873W        W11091  13.189  14.042   2.849
42874W        W11092  22.407  25.115  11.768
42875W        W11093  30.442  21.126   1.231
42876W        W11094  24.250  12.293  14.009
42877W        W11095  25.118  32.003   3.776
42878W        W11096  15.098   8.597  12.893
42879W        W11097  23.503  25.195  13.111
42880W        W11098   4.713  27.402   1.278
42881W        W11099   4.701  21.740   0.790
42882W        W11100  43.789  27.959   2.767
42883W        W11101  12.785  33.084   1.709
42884W        W11102   3.321  15.209  13.596
42885W        W11103  38.319   6.162   4.184
42886W        W11104   1.901  14.900  14.879
42887W        W11105  30.709  23.652  13.870
42888W        W11106  31.356  33.309  10.993
42889W        W11107  11.388   6.422  14.995
42890W        W11108  23.792   1.560  13.960
42891W        W11109  41.389  11.240  12.528
42892W        W11110  29.463  18.627   0.505
42893W        W11111  21.037  30.696  13.408
42894W        W11112  11.703  42.253   0.354
42895W        W11113  18.494   6.070   0.711
42896W        W11114  32.219  15.756  10.701
42897W        W11115  36.902  13.780  12.291
42898W        W11116  43.235   6.253   2.263
42899W        W11117  26.481  21.121   5.008
42900W        W11118  11.716  35.573  13.357
42901W        W11119  32.891  24.729  12.342
42902W        W11120  31.591  37.583   0.836
42903W        W11121  38.844  32.628   0.216
42904W        W11122  32.580  19.237  10.869
42905W        W11123   0.248   9.767   1.759
42906W        W11124  18.307  27.582  12.144
42907W        W11125   6.403  14.036   4.486
42908W        W11126   5.674  12.263  11.008
42909W        W11127  10.613   6.427  10.745
42910W        W11128  36.834  21.705  13.022
42911W        W11129  17.672  28.193  13.372
42912W        W11130  22.722  31.540   4.581
42913W        W11131  31.345  10.889   4.227
42914W        W11132  44.198   2.649   1.194
42915W        W11133  19.474  37.094   4.141
42916W        W11134  14.522  17.850   4.536
42917W        W11135   3.364   2.073  13.557
42918W        W11136  15.086  37.433   0.409
42919W        W11137  26.585  12.574   4.633
42920W        W11138  42.151  16.377  13.644
42921W        W11139  24.750   8.922  13.167
42922W        W11140   5.354  10.274  14.357
42923W        W11141  29.630   5.772  14.612
42924W        W11142  19.368  32.138  12.412
42925W        W11143  10.113  28.980   2.616
42926W        W11144  10.779  10.224   2.889
42927W        W11145  41.646  21.065  12.017
42928W        W11146  12.580  15.515   1.202
42929W        W11147  18.166   2.827   3.960
42930W        W11148  13.964   1.223  14.128
42931W        W11149  16.416  23.631  12.325
42932W        W11150  40.223  40.990  11.995
42933W        W11151  15.883   1.048  14.060
42934W        W11152  21.328   2.566  11.087
42935W        W11153  12.115  21.202  12.129
42936W        W11154  22.478  28.682   4.191
42937W        W11155  36.864   7.796  13.053
42938W        W11156  27.445   7.640   0.549
42939W        W11157  32.299  40.098  14.471
42940W        W11158  19.590  29.603  13.862
42941W        W11159   3.213  35.444   2.897
42942W        W11160   8.673  35.007   1.992
42943W        W11161  41.827  25.336  10.118
42944W        W11162  32.021   9.723  13.429
42945W        W11163  19.587  14.619   0.104
42946W        W11164  28.116  40.751   2.786
42947W        W11165  40.295   2.002   2.502
42948W        W11166   6.250   7.690   0.846
42949W        W11167  21.542  15.641  14.878
42950W        W11168  38.991   5.909   2.019
42951W        W11169  18.626  25.058  12.407
42952W        W11170  32.396   1.597  14.817
42953W        W11171   6.561   8.901  12.412
42954W        W11172   0.848  29.468   1.398
42955W        W11173   9.931   9.718   1.903
42956W        W11174   3.177  37.367  10.104
42957W        W11175  24.091   2.113   3.566
42958W        W11176  38.020  38.277  10.611
42959W        W11177   0.422   8.307  14.792
42960W        W11178  44.414   4.464   2.253
42961W        W11179  15.804  14.754  13.476
42962W        W11180  16.711  38.369  13.932
42963W        W11181  23.571  31.029   3.893
42964W        W11182  26.262   5.215   2.082
42965W        W11183  33.982  36.370   4.230
42966W        W11184  13.346   4.733   1.894
42967W        W11185  32.627  25.702  13.437
42968W        W11186  14.175   2.534   1.198
42969W        W11187  40.289  36.435   1.761
42970W        W11188  15.333   0.759   2.364
42971W        W11189  38.521  29.997   4.199
42972W        W11190   0.410  18.249   0.919
42973W        W11191  40.617   1.336  13.852
42974W        W11192  33.463  40.627   5.048
42975W        W11193  26.689   5.612  14.917
42976W        W11194  21.059  20.056   1.434
42977W        W11195  43.616  23.544  13.596
42978W        W11196  12.680  28.174  12.093
42979W        W11197  24.799  39.970  11.585
42980W        W11198  20.891  15.070   1.047
42981W        W11199  14.438  35.431  12.010
42982W        W11200   0.359  27.399  12.048
42983W        W11201   9.638  11.615  11.126
42984W        W11202  34.116  30.461   4.536
42985W        W11203  14.607  36.111  10.532
42986W        W11204  15.866   0.334  14.348
42987W        W11205  24.081   2.931  13.544
42988W        W11206  42.891  10.999   1.278
42989W        W11207  20.735  37.585   3.217
42990W        W11208  32.650  30.669  10.506
42991W        W11209  34.065   4.420  11.091
42992W        W11210   3.268  31.403  11.548
42993W        W11211  22.765   0.418   4.553
42994W        W11212  26.083  40.809   2.141
42995W        W11213  25.171  39.568   1.324
42996W        W11214  37.851  21.118   0.043
42997W        W11215  20.830  32.535   9.825
42998W        W11216  22.305  17.092   1.861
42999W        W11217  17.052  29.567   1.178
43000W        W11218  31.593   9.335  12.961
43001W        W11219  37.337  10.855   1.720
43002W        W11220  37.509  15.404  13.927
43003W        W11221   5.140  11.283   0.346
43004W        W11222  12.738  42.287   4.197
43005W        W11223  13.365  29.391   3.650
43006W        W11224  18.852  16.533  14.501
43007W        W11225  29.090  19.068  13.592
43008W        W11226  33.020   5.706   2.346
43009W        W11227  11.046   6.372  13.466
43010W        W11228   0.763   8.333   4.603
43011W        W11229  40.454  25.766  14.345
43012W        W11230  30.944  26.951  10.325
43013W        W11231  43.360  25.701   1.019
43014W        W11232  25.612   3.216  11.256
43015W        W11233  17.766   9.055  14.779
43016W        W11234  30.992  27.457  10.305
43017W        W11235  34.212  39.613   4.140
43018W        W11236  40.059  41.941   1.514
43019W        W11237  34.991   0.773  12.436
43020W        W11238   4.453  22.022   3.158
43021W        W11239  10.422   8.964   2.661
43022W        W11240  42.710  22.534   4.129
43023W        W11241   9.136  13.823  14.814
43024W        W11242  15.672  25.434   2.573
43025W        W11243   2.430  15.670   0.500
43026W        W11244  29.195  12.784   2.027
43027W        W11245  40.070  29.043  13.579
43028W        W11246  38.131  34.508   4.458
43029W        W11247  14.126  36.933  13.134
43030W        W11248  10.300  21.615  10.996
43031W        W11249  23.195  26.123   4.814
43032W        W11250  23.688  15.087  11.070
43033W        W11251  38.332  43.285  10.897
43034W        W11252  33.451  37.165  11.165
43035W        W11253  25.693  26.130  10.558
43036W        W11254  12.136   5.888  11.994
43037W        W11255  31.979   7.470  11.477
43038W        W11256  36.088  18.612   3.208
43039W        W11257  32.492  30.438   0.778
43040W        W11258   0.805  27.130  12.073
43041W        W11259  27.744   0.878   1.296
43042W        W11260   9.546  10.612  14.437
43043W        W11261  20.996  44.672  11.122
43044W        W11262  32.354  42.150  14.720
43045W        W11263  15.154  20.133   4.580
43046W        W11264   0.424  34.023   2.587
43047W        W11265  21.785  39.301  14.369
43048W        W11266  16.758  13.124  10.015
43049W        W11267  17.765  24.238  10.717
43050W        W11268  39.608  35.631   2.143
43051W        W11269  18.282  14.745   4.180
43052W        W11270  10.786  19.266   0.131
43053W        W11271  21.955  13.866   0.195
43054W        W11272  27.287   9.438  11.922
43055W        W11273  39.984  40.265   0.289
43056W        W11274  33.156  30.680  13.922
43057W        W11275  35.594  17.561   0.420
43058W        W11276   1.842  17.200  11.619
43059W        W11277   9.008   5.308   2.576
43060W        W11278  21.697  34.967   2.162
43061W        W11279   2.844  36.937   4.474
43062W        W11280   5.792  27.621  12.993
43063W        W11281  37.076  32.712  10.722
43064W        W11282   9.318  29.644   3.833
43065W        W11283  32.736  38.306   0.918
43066W        W11284   3.238  27.060   0.903
43067W        W11285  32.343  29.651  10.991
43068W        W11286  43.558  42.921   2.690
43069W        W11287   9.508  33.481   0.434
43070W        W11288  33.699   2.763  12.669
43071W        W11289   4.683   2.986   4.204
43072W        W11290  14.531  42.493   2.460
43073W        W11291  10.342  29.922   2.603
43074W        W11292  18.271   1.835   3.212
43075W        W11293  29.162  13.688  10.455
43076W        W11294  23.937  39.482   3.186
43077W        W11295  22.131   2.940   2.138
43078W        W11296  35.385  20.179   0.713
43079W        W11297  32.836  23.824  12.164
43080W        W11298  34.891  21.186   0.634
43081W        W11299  31.403  32.014   3.034
43082W        W11300  24.153   0.977   4.043
43083W        W11301  24.206  11.223   2.602
43084W        W11302   5.130   5.674   4.103
43085W        W11303  38.243   8.178  11.534
43086W        W11304  23.323  11.274   3.178
43087W        W11305   5.845  12.620   3.879
43088W        W11306  31.543  16.440   0.659
43089W        W11307  36.842  30.472  13.808
43090W        W11308  35.982  29.392  10.089
43091W        W11309  23.475  19.077   2.637
43092W        W11310   9.173  23.205   5.005
43093W        W11311  24.567  40.255   1.370
43094W        W11312   9.442   1.869  12.846
43095W        W11313   2.356  34.329  10.663
43096W        W11314  42.905  25.520   0.780
43097W        W11315  43.479  30.032  13.157
43098W        W11316  38.366   2.457  13.458
43099W        W11317  19.216  32.662  11.500
43100W        W11318   8.673   0.065  10.945
43101W        W11319  28.430  32.938  14.131
43102W        W11320  16.390  28.798   3.220
43103W        W11321  43.024  22.945   4.141
43104W        W11322  22.969  30.120   3.124
43105W        W11323  13.321   4.719   0.945
43106W        W11324  13.684  10.892   4.111
43107W        W11325  29.447  28.449  10.660
43108W        W11326  15.356   9.981  13.368
43109W        W11327  32.796  40.306  14.501
43110W        W11328  39.272  29.058   4.744
43111W        W11329   8.087   0.047   4.224
43112W        W11330   2.770   1.540   0.094
43113W        W11331  33.264   0.250  13.971
43114W        W11332  15.554  43.249  10.284
43115W        W11333  26.984   9.821  14.197
43116W        W11334   1.053  42.973  10.339
43117W        W11335  33.451  44.348  11.927
43118W        W11336  43.342  32.110  12.092
43119W        W11337  23.783  40.792  12.396
43120W        W11338  13.208  22.126   0.365
43121W        W11339  41.446  31.193   3.646
43122W        W11340  24.577  20.533   1.369
43123W        W11341  41.813  41.141  14.392
43124W        W11342   4.213   8.658   1.535
43125W        W11343  34.684   5.598   3.059
43126W        W11344  17.229   8.275  13.752
43127W        W11345  21.655  34.759  14.716
43128W        W11346  35.496  20.824   4.629
43129W        W11347  16.495  12.762  13.546
43130W        W11348   3.913  13.646   3.352
43131W        W11349   9.112  40.541   2.130
43132W        W11350  38.045  43.574   3.317
43133W        W11351   5.432  21.207   2.774
43134W        W11352  14.524  31.117  14.524
43135W        W11353  34.850  25.263  13.681
43136W        W11354  44.744  21.614  14.483
43137W        W11355  20.282  15.760   4.122
43138W        W11356  10.212   2.360   2.260
43139W        W11357  32.499  30.071   2.388
43140W        W11358  28.667  26.203   3.756
43141W        W11359  20.604  44.977  13.654
43142W        W11360   7.984   1.251   2.624
43143W        W11361  16.304  16.839   3.336
43144W        W11362  21.208   3.795   1.931
43145W        W11363   4.323  21.132  13.293
43146W        W11364   6.499  31.065   3.306
43147W        W11365  18.017  33.005  13.019
43148W        W11366  20.272  21.679   3.815
43149W        W11367   2.943   0.776  12.819
43150W        W11368  15.566  40.579  13.517
43151W        W11369  18.361  33.760   2.526
43152W        W11370  40.554   2.260  12.455
43153W        W11371   5.300  15.335  12.758
43154W        W11372  19.066  39.320  14.822
43155W        W11373  22.515  20.129   4.396
43156W        W11374  38.022   2.987  13.829
43157W        W11375  39.909  38.442   3.676
43158W        W11376  30.451   8.755   0.256
43159W        W11377  19.619  17.161   1.605
43160W        W11378   5.915  27.175   3.199
43161W        W11379  14.181  21.300   2.302
43162W        W11380  13.786   2.401   0.276
43163W        W11381  15.613   3.605   2.036
43164W        W11382  22.105   0.375   2.743
43165W        W11383  10.833  25.458  12.550
43166W        W11384   5.953  21.895  13.489
43167W        W11385  35.345  17.229  11.611
43168W        W11386  29.469  40.277   2.761
43169W        W11387  11.883  37.959   2.381
43170W        W11388  31.688  40.876  13.482
43171W        W11389  22.018  34.995   3.316
43172W        W11390  15.543  35.789   2.022
43173W        W11391  28.579  29.993  11.672
43174W        W11392   8.303  38.939  12.788
43175W        W11393   5.921   6.588  13.767
43176W        W11394  17.289  18.929  11.806
43177W        W11395   3.239  20.870   4.579
43178W        W11396  25.437  15.677  10.267
43179W        W11397   9.910   4.512  11.567
43180W        W11398  38.404  13.312  14.873
43181W        W11399  29.977  20.234   0.795
43182W        W11400   1.948  24.426  10.649
43183W        W11401  22.273   5.163  11.100
43184W        W11402  20.253   0.069   3.624
43185W        W11403  23.119  11.383  11.033
43186W        W11404  44.410  17.165   3.987
43187W        W11405   0.741  15.382  11.607
43188W        W11406  11.091  29.670   4.206
43189W        W11407   7.931   6.135   4.150
43190W        W11408  24.690  18.306  13.124
43191W        W11409  33.971  20.789  14.960
43192W        W11410  33.487  36.410  14.405
43193W        W11411   5.981  41.447  13.892
43194W        W11412  12.736  34.408   3.251
43195W        W11413   7.320  25.497   2.688
43196W        W11414  31.879  23.091  10.717
43197W        W11415  34.610  41.306   0.014
43198W        W11416  44.335  39.493   3.216
43199W        W11417  29.815   7.168   4.603
43200W        W11418  41.815   3.287   4.639
43201W        W11419   7.736  16.139  10.992
43202W        W11420  30.357   9.701   0.515
43203W        W11421   5.241  32.616   2.811
43204W        W11422  18.008   1.338  12.281
43205W        W11423   5.206  15.752  13.510
43206W        W11424  18.035  19.354   1.512
43207W        W11425  31.233  17.003  14.475
43208W        W11426   9.309  22.679  13.788
43209W        W11427  32.588  31.576  11.382
43210W        W11428  44.902   8.422   3.899
43211W        W11429   0.722  35.483   0.076
43212W        W11430  10.382  37.517   0.919
43213W        W11431  44.292   9.712  10.693
43214W        W11432   6.316  12.386  12.421
43215W        W11433  30.129   1.529  14.422
43216W        W11434  39.477   5.985   1.750
43217W        W11435  32.402  19.778   1.005
43218W        W11436  19.234  27.627  10.775
43219W        W11437  24.224   2.319   3.121
43220W        W11438   2.208  11.707  13.629
43221W        W11439  43.030  17.320  13.202
43222W        W11440  33.205  42.835  10.127
43223W        W11441   2.310   9.385   2.360
43224W        W11442  25.485  16.592  12.863
43225W        W11443  38.966  29.709  11.947
43226W        W11444  27.092   0.799   3.780
43227W        W11445  43.957  26.928   3.132
43228W        W11446  27.386  22.092   1.249
43229W        W11447  41.078  23.990   2.462
43230W        W11448  31.407  13.683   2.783
43231W        W11449   5.389   5.780   1.018
43232W        W11450  29.015  38.034   4.142
43233W        W11451   5.010   9.604   2.867
43234W        W11452  17.801  12.186  12.575
43235W        W11453  37.294  24.243   0.501
43236W        W11454  21.497  31.316   5.042
43237W        W11455   2.945   2.719  10.769
43238W        W11456  42.035  24.089  14.503
43239W        W11457  16.116  32.486  11.900
43240W        W11458  42.933  44.907   1.662
43241W        W11459   8.235  14.538  10.336
43242W        W11460  43.984  33.626   3.908
43243W        W11461  13.326   3.800  14.417
43244W        W11462  17.107  22.935  10.752
43245W        W11463  29.307   2.896  11.147
43246W        W11464   9.187  13.850  12.012
43247W        W11465  23.584  10.864  14.976
43248W        W11466  27.947  39.793   1.869
43249W        W11467  32.505  44.786  13.447
43250W        W11468  16.202   3.981  14.296
43251W        W11469  22.412  40.563  10.788
43252W        W11470   6.921  29.031  14.968
43253W        W11471  20.779  33.586   0.906
43254W        W11472  36.598  15.157   3.600
43255W        W11473  16.618  32.484   3.713
43256W        W11474  30.483  39.330   0.532
43257W        W11475  29.590  20.555  10.793
43258W        W11476  24.211  28.744   0.985
43259W        W11477  42.885   9.877  12.212
43260W        W11478  14.566   9.629  13.659
43261W        W11479  23.522  26.161   0.951
43262W        W11480  16.797  42.517   2.851
43263W        W11481  39.118  28.946  14.498
43264W        W11482  21.686   7.516   3.437
43265W        W11483   4.957   5.861  10.279
43266W        W11484   5.131  30.533  14.713
43267W        W11485  38.472  33.382  12.155
43268W        W11486  34.589  39.842  12.676
43269W        W11487  30.506   5.306  12.016
43270W        W11488  15.549   5.351  13.692
43271W        W11489  42.418  28.948   3.621
43272W        W11490  23.199  11.372  13.310
43273W        W11491  11.609  41.416  10.403
43274W        W11492  21.745  18.391   3.886
43275W        W11493  35.025  40.485  13.015
43276W        W11494  22.712  25.058   3.736
43277W        W11495   0.823  25.508   4.593
43278W        W11496   6.897   0.186   0.498
43279W        W11497  42.694  24.845  11.120
43280W        W11498  42.260  38.450   4.167
43281W        W11499   5.892  25.467  11.210
43282W        W11500  37.851   0.642  13.524
43283W        W11501  15.834   6.698   3.676
43284W        W11502  31.576  39.172  12.880
43285W        W11503  39.614  34.614  13.436
43286W        W11504   6.899   6.821  12.021
43287W        W11505   0.868  40.454  14.910
43288W        W11506  36.989   6.998  14.966
43289W        W11507   0.743  29.838  11.192
43290W        W11508  18.052  24.725   3.157
43291W        W11509  37.655  12.190  13.082
43292W        W11510  14.091  16.971   3.627
43293W        W11511  19.982  22.676   2.212
43294W        W11512  22.742  42.434  12.523
43295W        W11513  37.542  18.994  14.975
43296W        W11514  17.161  31.684  10.620
43297W        W11515   3.899  24.644  13.966
43298W        W11516  18.777  18.259  11.144
43299W        W11517  25.400  32.362  12.878
43300W        W11518  12.131  29.587   1.724
43301W        W11519  38.293  10.835  12.917
43302W        W11520  24.872  16.625  14.355
43303W        W11521  16.162  26.180  10.678
43304W        W11522  38.755  27.977   1.495
43305W        W11523  15.846  24.453   0.909
43306W        W11524   8.916  36.390   2.742
43307W        W11525  10.281  24.781  12.208
43308W        W11526  41.794  36.006   2.710
43309W        W11527  39.865  43.848  13.897
43310W        W11528  25.100  44.676   2.342
43311W        W11529  31.464   5.830  12.953
43312W        W11530  32.953  20.312   4.725
43313W        W11531  27.188  42.223   4.199
43314W        W11532   2.863  13.359   1.827
43315W        W11533   8.648  12.892   3.247
43316W        W11534  38.668  37.873   0.219
43317W        W11535  22.254  37.643   0.416
43318W        W11536   2.842  33.442  10.737
43319W        W11537  35.941  32.151   4.883
43320W        W11538  37.128   4.861  11.608
43321W        W11539  30.327  37.576   2.316
43322W        W11540  40.809  41.819  14.333
43323W        W11541  20.023  11.213   2.860
43324W        W11542  24.421  35.497   0.812
43325W        W11543  21.917  44.964  14.403
43326W        W11544  34.354  37.568  14.284
43327W        W11545  24.258   4.272  14.358
43328W        W11546  26.976  11.176  11.585
43329W        W11547  42.903  12.225  10.470
43330W        W11548  26.285   4.306   2.268
43331W        W11549  43.299  42.017  14.693
43332W        W11550  21.196  36.855   2.259
43333W        W11551  42.082  42.103  14.491
43334W        W11552   5.751  21.517   2.283
43335W        W11553  20.885  40.456  10.632
43336W        W11554  31.562   0.350   4.910
43337W        W11555  43.994  41.218  10.971
43338W        W11556  18.456  11.369  12.047
43339W        W11557  20.787   3.261   3.803
43340W        W11558  39.913  17.151   0.420
43341W        W11559  13.328  36.382   1.358
43342W        W11560  35.378  35.819   2.639
43343W        W11561  30.947   2.668  11.965
43344W        W11562  25.560  33.847   1.996
43345W        W11563  17.071  39.326  11.549
43346W        W11564  19.206  20.874  13.991
43347W        W11565   3.130   8.181  14.756
43348W        W11566  12.237  39.019   2.244
43349W        W11567  17.781  38.364   2.743
43350W        W11568  23.679  18.342   1.327
43351W        W11569   1.229  14.581  10.937
43352W        W11570  16.340   3.196   1.794
43353W        W11571  39.376  21.471  13.944
43354W        W11572  30.343  28.909   0.482
43355W        W11573  19.527  16.088   0.563
43356W        W11574  44.416  16.710   3.715
43357W        W11575  40.948  10.428   0.441
43358W        W11576   5.625  34.468  13.108
43359W        W11577  24.012  22.162   3.232
43360W        W11578  23.098  13.148   1.705
43361W        W11579  22.009   6.331   2.135
43362W        W11580  37.465   1.946  14.807
43363W        W11581  21.086   7.056  12.426
43364W        W11582  44.285  35.909  11.599
43365W        W11583  23.037  21.879   3.943
43366W        W11584  40.512  16.613   3.707
43367W        W11585  24.538  38.763   1.283
43368W        W11586  33.005  41.329  12.301
43369W        W11587   0.108   1.697  12.482
43370W        W11588  13.321   0.667   1.306
43371W        W11589  41.049  36.502   4.543
43372W        W11590  26.842  34.986   4.476
43373W        W11591  15.795  43.268   3.854
43374W        W11592  35.000   1.020  11.944
43375W        W11593  44.386  16.117   4.505
43376W        W11594   7.180  29.898   2.255
43377W        W11595  17.817  35.210  14.066
43378W        W11596  10.252  38.552   3.623
43379W        W11597  41.355  43.896  10.750
43380W        W11598  13.204  34.186   3.264
43381W        W11599   6.206   8.789  12.855
43382W        W11600  28.429  41.774   1.398
43383W        W11601  16.781   4.275  11.478
43384W        W11602   3.204   9.144  11.137
43385W        W11603  30.373   7.430  11.030
43386W        W11604  22.578   5.198  11.527
43387W        W11605   1.979  37.579  14.536
43388W        W11606  17.338  42.790  11.694
43389W        W11607  28.589  30.591  13.483
43390W        W11608   4.664  40.603   3.651
43391W        W11609  42.494   8.521  13.028
43392W        W11610  17.490  22.120  12.519
43393W        W11611  43.764  22.536  13.311
43394W        W11612   0.482   0.147   4.314
43395W        W11613  33.412  16.166  12.438
43396W        W11614  39.015   6.419   3.309
43397W        W11615  31.402  28.695   3.683
43398W        W11616  35.529  13.539  10.973
43399W        W11617  19.832  10.425   1.857
43400W        W11618   2.484  19.672  13.505
43401W        W11619   4.578   4.050   2.831
43402W        W11620  12.692  28.980  13.366
43403W        W11621  22.023  35.158  14.744
43404W        W11622  12.542  27.148   4.671
43405W        W11623  10.888  35.677  11.487
43406W        W11624  40.588  23.778  12.087
43407W        W11625  23.909  16.120  11.439
43408W        W11626   6.080  26.225  11.495
43409W        W11627  15.474  19.291  13.558
43410W        W11628  20.987  33.091  11.622
43411W        W11629   6.924  44.862  11.008
43412W        W11630  32.355  20.948  13.884
43413W        W11631  30.194  38.372  11.991
43414W        W11632  26.268  44.362   4.273
43415W        W11633  13.149  18.585  10.400
43416W        W11634   7.284  29.424   2.028
43417W        W11635  17.379  10.617   3.950
43418W        W11636   8.150   3.170  10.689
43419W        W11637  27.707  22.903  14.001
43420W        W11638  33.367   9.311   1.172
43421W        W11639  43.062   4.904  11.945
43422W        W11640  38.149  37.632  14.891
43423W        W11641  18.205  18.651   2.474
43424W        W11642   8.921   0.905  13.098
43425W        W11643  33.330  25.023   1.269
43426W        W11644  30.482   6.880  11.120
43427W        W11645  17.768  35.549  10.763
43428W        W11646   2.705  32.666  11.437
43429W        W11647  40.120  27.970  14.471
43430W        W11648  39.365   5.044   4.210
43431W        W11649  17.666  25.223  13.964
43432W        W11650  17.250  26.820  11.410
43433W        W11651   5.256   1.313   4.226
43434W        W11652  21.501  15.387  12.047
43435W        W11653  34.904  13.139   3.970
43436W        W11654  22.089  41.570  14.279
43437W        W11655  28.153   8.301   0.447
43438W        W11656  23.289  36.028   3.385
43439W        W11657  14.114   6.871   1.281
43440W        W11658  18.667  26.844  14.360
43441W        W11659   0.888  27.581   0.400
43442W        W11660  17.881  11.733   1.777
43443W        W11661  13.632  20.117  12.412
43444W        W11662  20.571  43.394   1.842
43445W        W11663   1.750   1.009  13.393
43446W        W11664  14.739  20.983   0.306
43447W        W11665  35.317  37.588   4.870
43448W        W11666  34.096  35.447  14.632
43449W        W11667   5.446  44.231   3.182
43450W        W11668  42.532  27.665  11.632
43451W        W11669  24.109  28.321  11.698
43452W        W11670  25.715  31.350  12.914
43453W        W11671  18.218  37.393  10.141
43454W        W11672  31.038  11.792   3.646
43455W        W11673  25.591  39.325  12.014
43456W        W11674   9.433  28.928  10.767
43457W        W11675  10.850  28.016  14.010
43458W        W11676  29.079  20.544  10.647
43459W        W11677  29.065  32.538  13.890
43460W        W11678  15.547   6.407  13.048
43461W        W11679  29.130   7.736  13.525
43462W        W11680  32.630  18.132  14.824
43463W        W11681  43.314  44.599   1.849
43464W        W11682  26.913  42.905  11.906
43465W        W11683  23.077  41.231   4.658
43466W        W11684  12.681   9.687  11.583
43467W        W11685  22.616  27.460  10.776
43468W        W11686   2.550  22.641   1.186
43469W        W11687  35.022  26.953  13.070
43470W        W11688   7.944  36.192   4.287
43471W        W11689  18.633  33.600  10.251
43472W        W11690  10.178   5.723   0.968
43473W        W11691  41.037  29.483   3.143
43474W        W11692  35.411  44.116   3.137
43475W        W11693  13.684   0.944   2.207
43476W        W11694  13.106  29.396  14.837
43477W        W11695   4.125  27.387  14.398
43478W        W11696  34.600  23.904   0.321
43479W        W11697  42.820  22.388   3.153
43480W        W11698   9.191  18.708   0.444
43481W        W11699  32.066   6.426  11.320
43482W        W11700  22.315   0.731  12.405
43483W        W11701  21.284  28.950   4.625
43484W        W11702  43.755  42.287   0.443
43485W        W11703  43.439  31.277  14.937
43486W        W11704  28.413  26.550  11.483
43487W        W11705   4.699  23.766  13.582
43488W        W11706  28.985  39.341  14.299
43489W        W11707  43.997  41.455   1.058
43490W        W11708  39.947   3.200   0.425
43491W        W11709  43.761  35.019  11.897
43492W        W11710  36.376  30.522   0.852
43493W        W11711  37.506  28.149  11.997
43494W        W11712   6.723  44.118  12.867
43495W        W11713  28.215  38.466  10.615
43496W        W11714  31.164  37.116   3.921
43497W        W11715   1.984  24.844  13.013
43498W        W11716  33.938  26.608   4.083
43499W        W11717  23.652  12.799   1.432
43500W        W11718  25.549   7.644  14.365
43501W        W11719   0.662   5.676  13.153
43502W        W11720  18.567  38.759  13.661
43503W        W11721   3.734  19.381  11.127
43504W        W11722  20.023  10.333   2.383
43505W        W11723   7.201  34.534  13.092
43506W        W11724  40.456   4.150  14.405
43507W        W11725   5.433  14.908  13.592
43508W        W11726  40.229   7.412  12.865
43509W        W11727  44.929  44.117  13.579
43510W        W11728  43.783  34.052  13.326
43511W        W11729   4.985  23.647   4.625
43512W        W11730  24.503  36.412   0.210
43513W        W11731   3.607  40.431   3.230
43514W        W11732  41.833   0.997   0.411
43515W        W11733   4.415  24.472  14.356
43516W        W11734  35.495  30.048   9.913
43517W        W11735   2.442  44.922  11.602
43518W        W11736  38.875   9.942   2.336
43519W        W11737  31.934  29.611   4.846
43520W        W11738  41.242   8.219  11.200
43521W        W11739  15.177  13.900   3.284
43522W        W11740  14.258  33.304  11.376
43523W        W11741  25.940  29.051   2.814
43524W        W11742  30.818  30.089   0.438
43525W        W11743  25.686  37.226  12.763
43526W        W11744  33.038   5.362   4.790
43527W        W11745  40.996  25.005  10.539
43528W        W11746  10.139  39.869   5.044
43529W        W11747  26.575   1.934   2.121
43530W        W11748  25.179  16.461   2.916
43531W        W11749  39.989   7.796   4.037
43532W        W11750  39.948   1.050   2.520
43533W        W11751  20.267  27.818  14.307
43534W        W11752  30.950  27.139  11.166
43535W        W11753  14.872  16.402  14.030
43536W        W11754   7.635  22.930  13.700
43537W        W11755   4.832   6.394  12.152
43538W        W11756  15.804  10.175  14.045
43539W        W11757  40.557  10.141  11.534
43540W        W11758  27.146   0.023   1.465
43541W        W11759  23.421  11.805  13.124
43542W        W11760  29.216   0.955  12.265
43543W        W11761  36.796  41.061  12.890
43544W        W11762   1.428   3.996  10.661
43545W        W11763   1.767  35.057  12.173
43546W        W11764  16.689  32.913  11.621
43547W        W11765   4.453   0.524   1.736
43548W        W11766   0.269  35.903  13.870
43549W        W11767   1.334   8.884   2.251
43550W        W11768  34.587  17.634  11.908
43551W        W11769  25.574  17.180   3.317
43552W        W11770  39.047  33.957  13.802
43553W        W11771  38.459  32.484  10.816
43554W        W11772  44.501  32.258  12.924
43555W        W11773  43.847  43.307   2.418
43556W        W11774  19.043  35.553   2.358
43557W        W11775  31.885   0.756   4.920
43558W        W11776  17.014  16.525   0.508
43559W        W11777   5.090  38.852   1.342
43560W        W11778   6.466   0.341   3.550
43561W        W11779   2.015  41.557  12.131
43562W        W11780  18.794  30.028  14.877
43563W        W11781  18.367  19.634  12.173
43564W        W11782  12.322  32.786   3.963
43565W        W11783   7.499  22.230   0.873
43566W        W11784  31.557  15.278  14.172
43567W        W11785  42.771   6.386  11.216
43568W        W11786  42.499  34.261  10.906
43569W        W11787  41.528  39.751   1.893
43570W        W11788  27.077  38.058   3.152
43571W        W11789  35.076  22.330   1.242
43572W        W11790  22.023  12.336  13.018
43573W        W11791  42.682  40.489   2.874
43574W        W11792  24.985  38.479   1.905
43575W        W11793  28.144  11.129   3.330
43576W        W11794  38.474  38.283  12.959
43577W        W11795  19.085  13.132  11.431
43578W        W11796  41.114   7.342   2.789
43579W        W11797   5.152   0.105  14.485
43580W        W11798  44.401  42.778   1.464
43581W        W11799  21.399  38.257   0.524
43582W        W11800   6.375  19.962   1.384
43583W        W11801  26.720   9.345   3.187
43584W        W11802  24.088  19.146  13.031
43585W        W11803   2.300  41.478  13.380
43586W        W11804  28.052  24.410  14.303
43587W        W11805  24.714   3.441   3.280
43588W        W11806   4.659   6.249  10.923
43589W        W11807  20.251  15.669  14.939
43590W        W11808  21.738   6.970  11.464
43591W        W11809  19.081  43.787  13.391
43592W        W11810   9.282   6.918  12.928
43593W        W11811  27.109  17.070   2.255
43594W        W11812  41.135  26.673  12.172
43595W        W11813  36.597   5.273  10.745
43596W        W11814  33.143  25.482   0.221
43597W        W11815   5.881  30.897  13.485
43598W        W11816   1.284  23.294   2.290
43599W        W11817  13.618  23.215  12.115
43600W        W11818  41.846  43.854   4.179
43601W        W11819  18.527  32.020   4.063
43602W        W11820   9.906  33.189  11.914
43603W        W11821   0.652  44.351   4.597
43604W        W11822  22.695  32.442   2.697
43605W        W11823   9.877  31.594  13.991
43606W        W11824  41.878   6.199   3.230
43607W        W11825  33.060  19.218   3.043
43608W        W11826  30.064   1.964  11.403
43609W        W11827  30.723   1.315  13.428
43610W        W11828  21.602  10.713   2.895
43611W        W11829   4.127  17.205  11.891
43612W        W11830  36.337  43.389   2.309
43613W        W11831  16.267   7.114   3.352
43614W        W11832  22.589   9.326  13.486
43615W        W11833  30.488   0.187  12.553
43616W        W11834  14.832  12.677   2.253
43617W        W11835  34.909  36.351  10.950
43618W        W11836  12.545  26.034   0.079
43619W        W11837  30.923  11.623  14.086
43620W        W11838  43.888   0.549   1.391
43621W        W11839  38.120  27.789   0.279
43622W        W11840  21.201  18.468  11.155
43623W        W11841  15.235  13.124  14.410
43624W        W11842  24.148  26.578   4.569
43625W        W11843  42.603  26.104  12.945
43626W        W11844  20.708  33.456   1.746
43627W        W11845  35.554  40.244   1.032
43628W        W11846   3.030  28.546  14.919
43629W        W11847  24.367  39.596   1.002
43630W        W11848   1.028  42.845  13.985
43631W        W11849  24.183  24.218   0.468
43632W        W11850  32.122  14.212   2.311
43633W        W11851  30.480   0.862   1.593
43634W        W11852  28.689  29.771   3.572
43635W        W11853  34.334  10.766  10.557
43636W        W11854  27.026   3.393  13.640
43637W        W11855  14.178  12.564   4.653
43638W        W11856  33.577   7.776   3.801
43639W        W11857  41.743   0.789   3.176
43640W        W11858  24.686  27.395   4.425
43641W        W11859  10.223   6.392  12.930
43642W        W11860  19.942   0.351   3.308
43643W        W11861   1.424  14.539  13.436
43644W        W11862  33.981   4.192  12.062
43645W        W11863  21.754  33.261  10.589
43646W        W11864  12.568  11.348   4.416
43647W        W11865  18.770  15.803   5.153
43648W        W11866   7.628  41.862   4.270
43649W        W11867  32.392   5.953   4.615
43650W        W11868  19.639   9.980  11.121
43651W        W11869  12.296  31.490   4.048
43652W        W11870   2.929  42.948  12.958
43653W        W11871  10.234  15.550   2.213
43654W        W11872  42.581  12.152  12.919
43655W        W11873  16.711   5.500   4.017
43656W        W11874  23.548  30.360  13.495
43657W        W11875   8.449  38.338   0.855
43658W        W11876  13.103  34.735   0.782
43659W        W11877   0.024  28.726   1.322
43660W        W11878  38.399  15.344   3.326
43661W        W11879  13.693  12.713  14.910
43662W        W11880  42.902  27.849  12.466
43663W        W11881  34.676   7.114   3.131
43664W        W11882   2.929  34.969   2.125
43665W        W11883  25.531  18.825   0.177
43666W        W11884  15.881  39.560   2.658
43667W        W11885  27.040  11.399  10.698
43668W        W11886   0.931  21.699  11.415
43669W        W11887  13.875  34.090  13.986
43670W        W11888  34.387  13.934  11.556
43671W        W11889  20.989  38.473   2.135
43672W        W11890  25.664   8.186  12.438
43673W        W11891  30.862  38.628   0.436
43674W        W11892  11.384  27.625   0.812
43675W        W11893   1.038  13.563   3.253
43676W        W11894   9.321  37.960   2.308
43677W        W11895  20.655  21.267  13.965
43678W        W11896  43.062  24.255   4.505
43679W        W11897  27.709  29.228   1.274
43680W        W11898  24.422  20.369  11.141
43681W        W11899  10.513  13.198  14.552
43682W        W11900   5.221  29.672   4.384
43683W        W11901  28.709  32.101  13.965
43684W        W11902  42.489  32.033   2.716
43685W        W11903  33.879  30.016   4.587
43686W        W11904  36.875  43.904   2.852
43687W        W11905  35.483  42.896  10.709
43688W        W11906  26.133  20.548  14.787
43689W        W11907  32.498  42.316  10.780
43690W        W11908  12.390  31.015  13.880
43691W        W11909  36.281  23.125  12.080
43692W        W11910  36.589  12.580  13.043
43693W        W11911  39.066  13.221   0.177
43694W        W11912  33.527   5.464   0.170
43695W        W11913  42.662  25.477   4.201
43696W        W11914  24.718  12.445  13.826
43697W        W11915  30.011  39.417   0.304
43698W        W11916  14.993  17.353  14.858
43699W        W11917   6.942  29.691   2.690
43700W        W11918  44.462  33.941  12.496
43701W        W11919   9.099  29.149  12.496
43702W        W11920  17.793  36.932   3.082
43703W        W11921  40.513  27.534  12.548
43704W        W11922  30.080   7.926  11.148
43705W        W11923   4.702  44.263  10.604
43706W        W11924  38.146  16.646  13.899
43707W        W11925  42.893  34.996  11.376
43708W        W11926   9.362  10.310   3.359
43709W        W11927   7.833  23.609  10.758
43710W        W11928  38.460   9.453   2.760
43711W        W11929  22.633  23.710  11.612
43712W        W11930   8.872  27.390  10.928
43713W        W11931  22.390  19.187  12.903
43714W        W11932  26.634  21.789   4.911
43715W        W11933  28.954  25.069   0.111
43716W        W11934  34.789  11.344   4.107
43717W        W11935   8.142   4.912   4.969
43718W        W11936  26.059   6.152  11.975
43719W        W11937   7.788  16.531  12.069
43720W        W11938  17.045  12.593  11.207
43721W        W11939  21.641  26.314   4.607
43722W        W11940  34.968  31.367   2.238
43723W        W11941  11.794  44.265   1.785
43724W        W11942  25.606  37.043  14.164
43725W        W11943  40.414   5.403  11.212
43726W        W11944   3.233   0.197   4.619
43727W        W11945   9.641  40.234  13.816
43728W        W11946  34.658  22.234  11.150
43729W        W11947   3.600  15.110  12.545
43730W        W11948  20.506  21.076  10.980
43731W        W11949  41.122  18.183   5.136
43732W        W11950  10.040   0.301  13.352
43733W        W11951  28.971  10.563  14.397
43734W        W11952  25.042  29.033  14.958
43735W        W11953  15.587  14.994  12.074
43736W        W11954  27.809   7.104  12.133
43737W        W11955  26.906  31.970   4.286
43738W        W11956  10.863  20.123   0.259
43739W        W11957  28.141   5.950   1.281
43740W        W11958  32.627   8.977   2.690
43741W        W11959  19.602  44.225   1.341
43742W        W11960  38.348  14.893   2.273
43743W        W11961  43.413  11.553  12.751
43744W        W11962  43.708  21.048   2.693
43745W        W11963  29.517   2.729  14.750
43746W        W11964  20.341  32.323   0.278
43747W        W11965  22.064  35.536   0.148
43748W        W11966   0.388   4.803   3.781
43749W        W11967  28.962  37.012   0.999
43750W        W11968  37.343  36.543   3.831
43751W        W11969  18.282  36.057   4.074
43752W        W11970  33.062   8.723  11.643
43753W        W11971  12.274  33.314   1.796
43754W        W11972  37.557  21.413   1.847
43755W        W11973  40.411  19.545   2.280
43756W        W11974  17.549  38.005   2.266
43757W        W11975  29.131  35.835  12.477
43758W        W11976  44.937   2.752  13.280
43759W        W11977   8.647  20.842  11.510
43760W        W11978  21.817  33.575   0.922
43761W        W11979   1.553  21.665   3.649
43762W        W11980  27.460  36.888  12.965
43763W        W11981   0.817  19.493   3.350
43764W        W11982   1.172  38.447  14.274
43765W        W11983  32.410  44.618  11.117
43766W        W11984  38.620   8.250   0.629
43767W        W11985  11.428  40.042   4.567
43768W        W11986  41.861  18.781  12.001
43769W        W11987  27.573   1.561  13.524
43770W        W11988  42.967   4.713  12.867
43771W        W11989  16.920  33.127  13.943
43772W        W11990  16.971  26.893  13.424
43773W        W11991  43.411  13.342   3.996
43774W        W11992  11.887  20.326   0.357
43775W        W11993  30.967  20.236  14.362
43776W        W11994  39.260  17.847   4.225
43777W        W11995  21.598  38.211   3.417
43778W        W11996  26.825  20.494   3.908
43779W        W11997  26.945  19.793  11.497
43780W        W11998  13.775  18.831   1.439
43781W        W11999  18.500   2.054   0.282
43782W        W12000  20.478   7.297  12.955
43783W        W12001   3.165   8.602  14.377
43784W        W12002  29.427  11.618  12.581
43785W        W12003  41.773   8.359  13.424
43786W        W12004  32.296  27.642  11.234
43787W        W12005  12.678  40.521  10.612
43788W        W12006  22.239  17.060  13.887
43789W        W12007  44.880  36.811   1.209
43790W        W12008  36.364  11.882   1.892
43791W        W12009  13.096  25.034   3.297
43792W        W12010   9.925   0.451   0.742
43793W        W12011  32.515  35.788  14.122
43794W        W12012  16.116  19.047   3.801
43795W        W12013  22.726   5.473   0.097
43796W        W12014  35.984  24.060   4.070
43797W        W12015  29.472  42.295  13.557
43798W        W12016  30.469  18.272   2.009
43799W        W12017  11.333   1.925  10.685
43800W        W12018  10.651   7.893  14.897
43801W        W12019  44.957  31.538   4.118
43802W        W12020  40.566  14.222  12.416
43803W        W12021  24.073  11.755  13.156
43804W        W12022  34.643  18.550  11.626
43805W        W12023  33.387  33.397  12.857
43806W        W12024  13.874  13.326  14.541
43807W        W12025  21.583  19.178   4.560
43808W        W12026   7.821  43.326  11.210
43809W        W12027  25.730  16.741  14.731
43810W        W12028  41.486  38.489   1.933
43811W        W12029  12.325   4.668  11.561
43812W        W12030  34.256  39.982   4.482
43813W        W12031  23.973  43.782  14.423
43814W        W12032  16.577  27.108  13.068
43815W        W12033  15.759  15.794   3.275
43816W        W12034   5.397  11.910  11.501
43817W        W12035  39.899   8.202   4.316
43818W        W12036  31.234  22.446  10.705
43819W        W12037   1.776  32.612  10.996
43820W        W12038  22.382  26.667  13.042
43821W        W12039  13.235  35.245   0.863
43822W        W12040  11.087  27.559  13.274
43823W        W12041  10.802  25.718  12.115
43824W        W12042   3.337  23.384   0.001
43825W        W12043  25.930  24.271  12.136
43826W        W12044  31.503  15.274   0.241
43827W        W12045  10.392  29.090   1.268
43828W        W12046   8.375   2.016   2.882
43829W        W12047  10.295  13.054   0.518
43830W        W12048   8.711   0.820   3.406
43831W        W12049  20.023   5.844   3.596
43832W        W12050  35.978   5.421   2.019
43833W        W12051  42.853  31.571  10.760
43834W        W12052  37.064   5.211  14.352
43835W        W12053  32.028  41.420  11.535
43836W        W12054  35.901  33.414   3.981
43837W        W12055  28.502  36.286  11.919
43838W        W12056  30.179   1.876  13.011
43839W        W12057   8.162  18.157  14.584
43840W        W12058  18.685  17.647   2.256
43841W        W12059  16.285  23.438  12.817
43842W        W12060  13.054  18.484  14.015
43843W        W12061   0.355  36.890   4.753
43844W        W12062   5.718  17.878   2.315
43845W        W12063   1.788  13.689   1.981
43846W        W12064  36.601   0.307  13.752
43847W        W12065  32.255  43.857   4.204
43848W        W12066  25.023  13.675  12.416
43849W        W12067  13.808  25.157   4.802
43850W        W12068  33.203   7.691  10.799
43851W        W12069   9.719  38.146  12.756
43852W        W12070  41.313  12.381   2.298
43853W        W12071  31.424  36.520  14.970
43854W        W12072  39.440  11.981   0.845
43855W        W12073  26.423  17.859  10.567
43856W        W12074  22.054  38.315  14.349
43857W        W12075  16.875  43.416  11.866
43858W        W12076   2.226  33.730  14.485
43859W        W12077  22.680  34.033   2.817
43860W        W12078  21.360  10.481  11.180
43861W        W12079   8.781  19.104   3.074
43862W        W12080   0.843  11.226   4.626
43863W        W12081  14.241  33.680   0.997
43864W        W12082  32.028  40.908   1.777
43865W        W12083   8.954  14.912   2.332
43866W        W12084   8.703  27.741  11.741
43867W        W12085  20.724  24.782   1.795
43868W        W12086   3.407  38.267   2.487
43869W        W12087  32.362  25.350  10.323
43870W        W12088  18.863  31.386   2.760
43871W        W12089  13.933   9.813   2.803
43872W        W12090  33.867   8.695  12.164
43873W        W12091   6.914  11.078  11.570
43874W        W12092   5.385  10.413  12.873
43875W        W12093  25.201  27.896   2.697
43876W        W12094  10.707   0.405   1.181
43877W        W12095   0.725  16.267  11.206
43878W        W12096  25.976  26.669  14.361
43879W        W12097  29.527  31.187  14.940
43880W        W12098  37.036  11.110   4.274
43881W        W12099  22.663  40.448  12.952
43882W        W12100  22.017  40.718  11.141
43883W        W12101  17.530   5.481  11.962
43884W        W12102  25.088   7.661  11.609
43885W        W12103  25.459  26.211  12.486
43886W        W12104  14.110  15.083   4.740
43887W        W12105   5.881   0.022   3.156
43888W        W12106  27.840  10.209   0.897
43889W        W12107  30.142  19.902  12.034
43890W        W12108  39.105  15.564   3.577
43891W        W12109  25.033   9.924  14.471
43892W        W12110  22.051  11.411  11.213
43893W        W12111  17.173  31.207   2.341
43894W        W12112  44.423  35.424  10.737
43895W        W12113   5.391   7.107   1.823
43896W        W12114   6.697  40.587  14.385
43897W        W12115  31.383  21.008   1.257
43898W        W12116  30.141  12.186  14.466
43899W        W12117  34.077  17.582  11.962
43900W        W12118  43.017  42.828   0.595
43901W        W12119   4.475   3.662   1.435
43902W        W12120  14.789   0.451  12.588
43903W        W12121  30.663  21.286  10.206
43904W        W12122  21.975  31.559   3.287
43905W        W12123  43.514  43.907  14.366
43906W        W12124  19.276   6.378  11.164
43907W        W12125   0.922  10.692  14.318
43908W        W12126   7.735  23.074   4.615
43909W        W12127  40.403   2.677  11.109
43910W        W12128  40.315   4.558   1.159
43911W        W12129  12.637   1.218  13.052
43912W        W12130   0.465  19.676   2.676
43913W        W12131   4.377  33.998  11.953
43914W        W12132  28.597  24.656  10.258
43915W        W12133  35.982  14.255  10.730
43916W        W12134  14.876  26.627   1.246
43917W        W12135  35.359   3.809  13.312
43918W        W12136  10.212  10.645   4.397
43919W        W12137   0.501  37.438   3.885
43920W        W12138  31.239   5.875  14.279
43921W        W12139  10.724  41.288  14.292
43922W        W12140  34.338   5.430  12.410
43923W        W12141  37.494  38.435   2.626
43924W        W12142  15.103  41.824   1.418
43925W        W12143   4.241  11.596   0.812
43926W        W12144  20.716   1.026  14.998
43927W        W12145  39.940  29.491   4.543
43928W        W12146  37.317   0.512   2.533
43929W        W12147  21.724   8.761   0.766
43930W        W12148  40.616  23.065   2.763
43931W        W12149  24.649  11.986   4.940
43932W        W12150  24.588  10.718  14.454
43933W        W12151  34.734  18.099  14.936
43934W        W12152  15.145   1.318   5.225
43935W        W12153  10.622  14.370  11.058
43936W        W12154   5.773  18.165   4.594
43937W        W12155   0.903  40.948  14.981
43938W        W12156  31.654  33.886  12.479
43939W        W12157  37.712  30.615  11.694
43940W        W12158  23.143  27.920  13.061
43941W        W12159   4.656  33.461   3.184
43942W        W12160  32.551   5.524   4.857
43943W        W12161  14.376  36.589   2.633
43944W        W12162  30.982  43.826  12.098
43945W        W12163  28.468  28.208   0.277
43946W        W12164  25.443  32.957  10.854
43947W        W12165  31.685  27.649  14.679
43948W        W12166  25.749  12.072   5.212
43949W        W12167  42.873  38.412   4.471
43950W        W12168  18.279  19.108  14.048
43951W        W12169  33.579  38.750  13.405
43952W        W12170   9.719  36.033  14.969
43953W        W12171  25.686  42.823  12.538
43954W        W12172  26.282  32.485  11.203
43955W        W12173  27.939  14.706  13.306
43956W        W12174   3.651  33.536  12.137
43957W        W12175  40.483   0.316   2.389
43958W        W12176  12.727  12.620  13.367
43959W        W12177  15.658  42.030   3.239
43960W        W12178  11.791  32.458  11.649
43961W        W12179  23.687   0.377   1.266
43962W        W12180  35.637   4.365  12.548
43963W        W12181   0.665   7.787   4.196
43964W        W12182  31.669  36.803   4.128
43965W        W12183  19.577  26.214   1.625
43966W        W12184  21.205  29.663  11.123
43967W        W12185  15.256  33.636   4.424
43968W        W12186  12.100  10.110   0.380
43969W        W12187  16.153   4.505   3.558
43970W        W12188  26.988  26.104   9.955
43971W        W12189   9.989  28.449   0.801
43972W        W12190  27.202  15.877  12.050
43973W        W12191   5.884   3.418  13.276
43974W        W12192  18.991   0.699  11.594
43975W        W12193  20.572  37.229   3.609
43976W        W12194  43.316  29.821   0.317
43977W        W12195  33.717   5.778   2.855
43978W        W12196  40.474  30.427  10.946
43979W        W12197  17.576  38.966  14.064
43980W        W12198  14.235  29.224  10.605
43981W        W12199  41.504   3.977  14.390
43982W        W12200  17.235  10.124  14.249
43983W        W12201   2.242   7.906  12.568
43984W        W12202  17.610  44.676   4.190
43985W        W12203  44.741   4.061   3.688
43986W        W12204  42.615   0.471  14.258
43987W        W12205  24.568  23.209   1.966
43988W        W12206  15.968  11.341   2.381
43989W        W12207  28.530  26.224  14.395
43990W        W12208   1.825  28.549   0.049
43991W        W12209   1.894   2.311   1.549
43992W        W12210  35.662   5.533   2.417
43993W        W12211  28.476  35.733   2.299
43994W        W12212  23.944   2.790   3.131
43995W        W12213   4.998  30.132   3.284
43996W        W12214   0.579   6.376   3.720
43997W        W12215  20.638  44.004   3.117
43998W        W12216  15.139  27.898  13.443
43999W        W12217   1.577   8.804  10.928
44000W        W12218  15.677  18.128   2.888
44001W        W12219  20.144  14.994   3.771
44002W        W12220  37.435  12.397   1.295
44003W        W12221  17.877   3.764   1.447
44004W        W12222  27.522  14.838   0.682
44005W        W12223  12.681   0.213  13.105
44006W        W12224   0.221  13.767   4.223
44007W        W12225   3.597   5.246   2.780
44008W        W12226  23.848   1.573  12.920
44009W        W12227  20.437  41.181  12.873
44010W        W12228  26.537  40.275  14.258
44011W        W12229  27.041  12.608  12.422
44012W        W12230   9.712  32.173   3.664
44013W        W12231   7.261  39.153   1.982
44014W        W12232   4.765  18.235   4.458
44015W        W12233   3.524   6.921   0.928
44016W        W12234  12.671  23.496  10.613
44017W        W12235  15.291   3.760  11.381
44018W        W12236  25.199  20.455   2.241
44019W        W12237   5.925  31.157   3.299
44020W        W12238  38.846  29.066   0.939
44021W        W12239  13.475  30.979   3.255
44022W        W12240  10.828   5.629   1.697
44023W        W12241  33.058  42.048  11.928
44024W        W12242  12.807  42.736   1.443
44025W        W12243  43.095  28.971   2.539
44026W        W12244  17.601  43.366   3.893
44027W        W12245  23.695  23.500  13.394
44028W        W12246  35.356   9.037  11.496
44029W        W12247  36.320   6.792   4.672
44030W        W12248  26.168  32.987   0.624
44031W        W12249  15.331  41.076  12.247
44032W        W12250  19.410  19.907   4.509
44033W        W12251  27.545  44.999   3.968
44034W        W12252   9.717   2.619   3.523
44035W        W12253  38.495  21.518  11.406
44036W        W12254  31.927   1.415  12.516
44037W        W12255   9.620  39.569  12.687
44038W        W12256  34.576  40.026   1.811
44039W        W12257  30.899   0.695   1.330
44040W        W12258  29.479  36.995  12.099
44041W        W12259  19.369  32.729   4.246
44042W        W12260  28.139   5.267   4.088
44043W        W12261  24.435   5.798  14.811
44044W        W12262  32.082  43.566   0.581
44045W        W12263   2.703   8.322  14.445
44046W        W12264  41.281   7.636   4.179
44047W        W12265  16.172   2.475   3.572
44048W        W12266  28.621   8.878   0.943
44049W        W12267   1.144  41.927  13.986
44050W        W12268  26.161  43.816  11.403
44051W        W12269  22.705  43.939  11.210
44052W        W12270  33.653  26.085  12.100
44053W        W12271  15.337   3.613  14.405
44054W        W12272  13.291  16.805   1.433
44055W        W12273   2.466  35.945   1.411
44056W        W12274  14.592   0.596   5.400
44057W        W12275   0.828  22.283   3.065
44058W        W12276  36.074  44.638  11.230
44059W        W12277  19.267   7.407  14.341
44060W        W12278  33.643  18.122  10.716
44061W        W12279   3.875  38.871   1.426
44062W        W12280  31.259  37.431   4.768
44063W        W12281  40.732   6.374   0.036
44064W        W12282  15.043   1.678  13.039
44065W        W12283  18.114  30.395  12.796
44066W        W12284  11.864  21.131   1.000
44067W        W12285  26.272   2.736  11.542
44068W        W12286  27.798   4.271   4.913
44069W        W12287  41.028  20.483  14.999
44070W        W12288  27.026   0.213   4.228
44071W        W12289  36.681   5.401   0.699
44072W        W12290   2.805  28.074   0.141
44073W        W12291  26.946  19.555  11.949
44074W        W12292  44.952   7.606   0.936
44075W        W12293   6.616  36.917  11.719
44076W        W12294  42.502  40.249   0.652
44077W        W12295  24.609  16.288   3.630
44078W        W12296  28.339  28.473   3.768
44079W        W12297  15.646  13.084  14.055
44080W        W12298  43.900  43.928  13.062
44081W        W12299  44.103  22.706   0.396
44082W        W12300  35.043  17.642   4.346
44083W        W12301  14.277  28.290  12.625
44084W        W12302   9.272  43.278  12.450
44085W        W12303   6.834  34.008  13.380
44086W        W12304  15.688   2.870   5.086
44087W        W12305  26.431   3.070  10.330
44088W        W12306  19.160  25.164  12.476
44089W        W12307   4.641  43.592  11.468
44090W        W12308  23.062   2.249  10.717
44091W        W12309   6.176  10.097   1.637
44092W        W12310  10.806  25.579  11.192
44093W        W12311  21.551  43.297   4.111
44094W        W12312  17.085  20.451   3.267
44095W        W12313  30.769   1.509  13.922
44096W        W12314  18.274   0.442  10.803
44097W        W12315  13.752  33.133  11.768
44098W        W12316   3.287  14.749   3.214
44099W        W12317  43.330  41.811  10.541
44100W        W12318  15.066  28.734  12.097
44101W        W12319  23.597  43.075   1.789
44102W        W12320  23.796   2.639  12.740
44103W        W12321  10.255   8.328   2.399
44104W        W12322   5.235  38.154  11.585
44105W        W12323  41.599  15.764   2.827
44106W        W12324   0.722  18.027   4.196
44107W        W12325  12.239  17.280   0.410
44108W        W12326   9.779  38.842  11.662
44109W        W12327  11.815   1.398   3.704
44110W        W12328  19.764  11.334  13.602
44111W        W12329  43.204  17.054   2.384
44112W        W12330  11.781  13.213  12.605
44113W        W12331  37.152   3.800   1.398
44114W        W12332  26.505  35.101   4.046
44115W        W12333  41.630   6.801   4.309
44116W        W12334  31.366   2.163  13.719
44117W        W12335  28.630  43.370   3.310
44118W        W12336  34.562   4.473  13.492
44119W        W12337  28.478  37.607   4.291
44120W        W12338  30.381   5.854  11.202
44121W        W12339  17.128  15.647  12.305
44122W        W12340  17.510   5.808   2.720
44123W        W12341  35.094  36.868  10.665
44124W        W12342  25.749   8.821  13.018
44125W        W12343  16.954   0.822   3.131
44126W        W12344   4.844  27.246  12.794
44127W        W12345  20.786  15.523   2.764
44128W        W12346  32.692  23.250   4.661
44129W        W12347  39.010  14.692  13.058
44130W        W12348  15.412  30.928   1.884
44131W        W12349  22.191  16.877  12.526
44132W        W12350  33.603  39.625  12.342
44133W        W12351  40.494   0.792  10.359
44134W        W12352  14.091  34.100   4.180
44135W        W12353  39.918   8.653   2.434
44136W        W12354   4.619  30.618  14.634
44137W        W12355   4.694  27.366   4.554
44138W        W12356  17.016  22.232  11.208
44139W        W12357  36.318   8.583  11.030
44140W        W12358  28.513  26.164   3.226
44141W        W12359  39.643  21.497  13.396
44142W        W12360  27.036   4.851   2.253
44143W        W12361   9.933   9.388   3.197
44144W        W12362  11.503  16.050   0.720
44145W        W12363  27.467  33.373   3.177
44146W        W12364  10.875  16.134   3.742
44147W        W12365   7.820  11.838   3.872
44148W        W12366  42.988  11.623   2.438
44149W        W12367  40.546  17.041  11.164
44150W        W12368  43.037   4.354  12.438
44151W        W12369   3.988  16.684  13.127
44152W        W12370   8.403  35.572   4.141
44153W        W12371   8.618   4.310  14.483
44154W        W12372  35.103  17.389   0.599
44155W        W12373  30.610  42.951  14.835
44156W        W12374  33.586  22.477   1.745
44157W        W12375  43.353  19.588   1.726
44158W        W12376  40.450  32.028  11.914
44159W        W12377  39.572   3.543   2.303
44160W        W12378  40.976  34.113  10.582
44161W        W12379  34.959   9.337   4.100
44162W        W12380  43.624  26.699   1.794
44163W        W12381  24.367  14.728   1.674
44164W        W12382   8.395  21.131  10.575
44165W        W12383  23.746   9.767   0.925
44166W        W12384  22.558  41.078  13.778
44167W        W12385  15.284  17.794  14.912
44168W        W12386   0.379   0.413  11.385
44169W        W12387  14.565  32.569   1.713
44170W        W12388  31.138  14.358   2.280
44171W        W12389  26.356  22.541  10.665
44172W        W12390  21.307  30.567   3.809
44173W        W12391  12.203  29.645  11.572
44174W        W12392   5.778   9.535  10.686
44175W        W12393  40.754  10.939   3.292
44176W        W12394  34.823  44.814   0.439
44177W        W12395  14.138  18.064   1.950
44178W        W12396   5.660  26.011  14.267
44179W        W12397  25.023  19.073  11.831
44180W        W12398  17.894   5.674  11.120
44181W        W12399  30.084  37.544   0.778
44182W        W12400  38.323  37.196   1.399
44183W        W12401   8.105   9.573  11.079
44184W        W12402  27.447  41.982  13.772
44185W        W12403   8.367  18.564  13.338
44186W        W12404  14.791   4.489  10.359
44187W        W12405   2.408  40.207   3.855
44188W        W12406  25.674  28.105  12.912
44189W        W12407  26.754  13.748  11.062
44190W        W12408  24.108  21.880  10.352
44191W        W12409  39.868  12.312  11.230
44192W        W12410  38.028  41.497  10.783
44193W        W12411  31.415  13.666  11.156
44194W        W12412  20.794  39.477  13.555
44195W        W12413  24.886  22.177   4.775
44196W        W12414  34.355   7.224  12.752
44197W        W12415  27.217  24.669  13.492
44198W        W12416  32.694  23.636  13.874
44199W        W12417   4.457  29.007  13.403
44200W        W12418  19.658  29.941   2.377
44201W        W12419  28.390   8.307  13.004
44202W        W12420  10.415  13.290   0.073
44203W        W12421  13.177  13.216  12.050
44204W        W12422   9.251  13.116   0.429
44205W        W12423  22.325  34.641   3.551
44206W        W12424  42.509  30.634   3.684
44207W        W12425   3.722  25.301  12.053
44208W        W12426  22.248   8.642   4.142
44209W        W12427  10.127   6.181  13.442
44210W        W12428   4.995  34.586  14.376
44211W        W12429  34.870  25.323   1.875
44212W        W12430  16.154  38.445  12.698
44213W        W12431  38.976   9.778   1.824
44214W        W12432  20.268  41.573   1.919
44215W        W12433  34.651  35.735   4.988
44216W        W12434  21.096   5.353   2.894
44217W        W12435   3.885   6.468   3.344
44218W        W12436   0.254   5.151  11.595
44219W        W12437  29.243  39.665   3.685
44220W        W12438  41.183  10.765   1.299
44221W        W12439  43.006  44.178   0.233
44222W        W12440  41.500  15.079   2.377
44223W        W12441  30.887  41.927   3.273
44224W        W12442  15.188   4.474  13.020
44225W        W12443  19.238   2.305  14.688
44226W        W12444   0.299   3.349   3.564
44227W        W12445  38.422  29.626   1.182
44228W        W12446  24.738   1.811  14.234
44229W        W12447  44.577   7.833   1.200
44230W        W12448   2.796  34.504   4.214
44231W        W12449  19.026  40.349   2.484
44232W        W12450  31.532  10.967   1.569
44233W        W12451  14.299  28.790   0.767
44234W        W12452  17.223  18.047   0.087
44235W        W12453  34.951   7.152   2.711
44236W        W12454  38.799   9.495   0.787
44237W        W12455  24.028  26.147   0.771
44238W        W12456  22.184  18.566  12.068
44239W        W12457  34.250  19.904  14.875
44240W        W12458  30.929  13.642   0.206
44241W        W12459   9.876  43.345  10.612
44242W        W12460   6.767  19.675   0.813
44243W        W12461   5.266  27.454   2.582
44244W        W12462  10.869   8.363   3.630
44245W        W12463  17.641   7.132   4.395
44246W        W12464  16.259  31.549   3.622
44247W        W12465  31.860   2.894   0.432
44248W        W12466   5.743  40.047   4.651
44249W        W12467   9.117  20.726   0.464
44250W        W12468  27.970  23.923  13.063
44251W        W12469  21.872   8.273   0.935
44252W        W12470  42.998  41.016   4.154
44253W        W12471   2.028   1.413   0.359
44254W        W12472  10.322  18.330  12.453
44255W        W12473  38.087   5.913  11.134
44256W        W12474   0.960  11.132  13.573
44257W        W12475  14.744  26.738   1.750
44258W        W12476  20.699  21.599  10.811
44259W        W12477  30.731  37.550  10.808
44260W        W12478  15.077  33.105  14.050
44261W        W12479  18.232  32.073   2.369
44262W        W12480   5.360  35.120   3.721
44263W        W12481  10.721  38.411  11.376
44264W        W12482  32.651  27.084   0.776
44265W        W12483  29.479  14.918  11.947
44266W        W12484  16.870   3.018   0.995
44267W        W12485  15.173   6.830  12.996
44268W        W12486  12.502  20.531   0.302
44269W        W12487  11.576  34.989   1.871
44270W        W12488  31.522  13.826  13.819
44271W        W12489   4.306  29.129  12.900
44272W        W12490  29.961  40.770   1.619
44273W        W12491   5.260  26.560   0.524
44274W        W12492  32.256  24.645  13.969
44275W        W12493   7.702  11.745   0.324
44276W        W12494  31.872  23.763   3.767
44277W        W12495  36.974   5.460  14.801
44278W        W12496  23.632  39.875  11.855
44279W        W12497   7.670  10.227   0.454
44280W        W12498  17.615  36.057   3.783
44281W        W12499  37.440  18.076  10.557
44282W        W12500  24.167   4.908  10.853
44283W        W12501   2.235  39.514  10.623
44284W        W12502  29.637  16.203  11.471
44285W        W12503  40.241  39.020   3.145
44286W        W12504  25.630   9.327  14.040
44287W        W12505  12.663  20.124   3.212
44288W        W12506  42.502  35.280  11.741
44289W        W12507  42.393  12.560   1.874
44290W        W12508  16.363  22.078  14.508
44291W        W12509   1.477  17.648  13.742
44292W        W12510  38.509  16.530  10.872
44293W        W12511  16.558  27.462  10.708
44294W        W12512   2.511  24.171  11.203
44295W        W12513   5.452  38.588   3.764
44296W        W12514  26.487  39.933  12.948
44297W        W12515  21.083  38.657   1.320
44298W        W12516  22.063   4.745   0.403
44299W        W12517  15.158  33.482   3.689
44300W        W12518  27.156  28.619   2.983
44301W        W12519  22.170   3.088   4.775
44302W        W12520   3.284  15.116   1.271
44303W        W12521  23.066   5.625  13.354
44304W        W12522  12.854   4.077  14.475
44305W        W12523  41.775   1.191   2.203
44306W        W12524  12.805  25.611  14.863
44307W        W12525   8.758   7.140   3.276
44308W        W12526   6.209  31.905  14.078
44309W        W12527   2.829  33.863   3.356
44310W        W12528  33.919  26.653  14.821
44311W        W12529  32.151  37.127  11.544
44312W        W12530  30.262  37.223  14.974
44313W        W12531  42.867  30.947   2.618
44314W        W12532  26.105   7.637   0.851
44315W        W12533   1.779   7.930  14.589
44316W        W12534  30.869   1.449   4.236
44317W        W12535   3.530  15.249  14.502
44318W        W12536  14.438  42.195  13.257
44319W        W12537  10.959  31.149   2.029
44320W        W12538  12.721  33.052   0.755
44321W        W12539   8.166  42.501   3.148
44322W        W12540  23.344  12.271  11.937
44323W        W12541  37.925   2.930   0.708
44324W        W12542  38.120  13.484   2.895
44325W        W12543  17.622  28.405   4.497
44326W        W12544  35.608  33.579  14.787
44327W        W12545  16.141  16.418   4.521
44328W        W12546  27.519  34.450   1.370
44329W        W12547   8.988  25.959  10.965
44330W        W12548  21.371   5.240   3.311
44331W        W12549  12.233  19.328  14.804
44332W        W12550  24.459  14.777  14.833
44333W        W12551   7.186  15.733  10.289
44334W        W12552  13.392  28.902   3.170
44335W        W12553  17.672  21.587   1.328
44336W        W12554  33.293  26.184  11.173
44337W        W12555  25.191  34.533  12.347
44338W        W12556  43.114  13.515  12.898
44339W        W12557   7.820  19.007  10.111
44340W        W12558  14.098  33.575  14.624
44341W        W12559  32.425   7.307   2.667
44342W        W12560   4.571   6.703  10.718
44343W        W12561  15.913   3.428  12.911
44344W        W12562  20.601  38.476   1.201
44345W        W12563  41.416  23.855   4.709
44346W        W12564   9.121  25.097   0.023
44347W        W12565  15.200  44.371  13.741
44348W        W12566  22.254  11.015   0.279
44349W        W12567   9.240   8.969  13.037
44350W        W12568  29.651   2.218  10.677
44351W        W12569  20.526   5.187  13.000
44352W        W12570  31.784   9.796  13.918
44353W        W12571  24.471  33.556   4.547
44354W        W12572   8.112  23.586   5.090
44355W        W12573  16.077  33.956  11.502
44356W        W12574  31.531  23.693   4.150
44357W        W12575  33.162  44.637   1.704
44358W        W12576  35.786  36.422  11.174
44359W        W12577  40.201   8.573   4.169
44360W        W12578  30.500   4.781   0.738
44361W        W12579  20.822  40.026  12.414
44362W        W12580  27.405  41.832   2.962
44363W        W12581  16.711   7.805   2.343
44364W        W12582  25.516  26.413  14.397
44365W        W12583  14.915   3.231   0.517
44366W        W12584  40.833  39.901  12.174
44367W        W12585  13.584  28.722   1.583
44368W        W12586  39.159  32.516   1.463
44369W        W12587  34.559  27.191  12.983
44370W        W12588  39.542  38.965  11.380
44371W        W12589  36.842   8.429   2.035
44372W        W12590  16.855  12.699  10.726
44373W        W12591  38.782   7.845  11.158
44374W        W12592  11.813  15.506  12.710
44375W        W12593  30.096  31.029   2.905
44376W        W12594   2.422  35.628  13.004
44377W        W12595   5.220  17.734  14.371
44378W        W12596  13.692  32.081  13.805
44379W        W12597  14.862  21.263  13.507
44380W        W12598  33.146  31.012  12.613
44381W        W12599  29.053  31.534  13.823
44382W        W12600  10.827  10.327  11.643
44383W        W12601  30.593  19.531   3.330
44384W        W12602  21.650  39.974   1.825
44385W        W12603   1.968  40.544   2.602
44386W        W12604  42.898  13.165   1.209
44387W        W12605   5.874  41.959   0.879
44388W        W12606  33.678  20.189   2.252
44389W        W12607  29.675  43.760  14.400
44390W        W12608  11.857  42.555  12.872
44391W        W12609  21.656  24.032   1.400
44392W        W12610  40.082   9.832  11.171
44393W        W12611  18.570  24.599   1.631
44394W        W12612  21.630   8.397   2.475
44395W        W12613  28.430  30.985   4.751
44396W        W12614  40.458  11.294   0.802
44397W        W12615  42.335  31.180   0.772
44398W        W12616  14.784  12.096   3.963
44399W        W12617  40.684   9.279   2.118
44400W        W12618   1.934  20.075   3.200
44401W        W12619  10.479   6.827  11.140
44402W        W12620  37.840  33.049  11.942
44403W        W12621   4.212   5.806   0.535
44404W        W12622  41.218   7.763  14.858
44405W        W12623   8.331  43.203   4.810
44406W        W12624  18.305  39.489  10.629
44407W        W12625  13.208  38.135   1.810
44408W        W12626  34.302   2.572  11.103
44409W        W12627  39.022  40.609   1.816
44410W        W12628  31.598  36.959   3.648
44411W        W12629   3.495  29.961  13.472
44412W        W12630  39.325  35.604  10.696
44413W        W12631   8.668  41.544   0.758
44414W        W12632  44.401  37.898   3.186
44415W        W12633  43.631   4.418  10.660
44416W        W12634   2.653  10.638   2.906
44417W        W12635   8.132  43.817  13.155
44418W        W12636  19.355  24.157   2.604
44419W        W12637  43.843  44.306  11.688
44420W        W12638  42.430  13.637  13.436
44421W        W12639  13.709  14.266  12.569
44422W        W12640  40.433   4.420  12.100
44423W        W12641  38.586  41.857   0.308
44424W        W12642   3.929  36.180   1.362
44425W        W12643  14.183   1.403   3.280
44426W        W12644  14.661  12.850   2.725
44427W        W12645   2.257   1.089   3.747
44428W        W12646  11.646  35.727   4.517
44429W        W12647  33.908  33.568  12.955
44430W        W12648  29.948   0.970  11.570
44431W        W12649  20.967  10.433   5.027
44432W        W12650  18.481  31.979  10.698
44433W        W12651   0.176  26.955   4.941
44434W        W12652  33.641  42.001  14.337
44435W        W12653   7.700  28.159  11.050
44436W        W12654  34.505  23.948   3.680
44437W        W12655  30.420  29.088   1.805
44438W        W12656   6.860  42.540   0.371
44439W        W12657  37.067   7.211  13.515
44440W        W12658  28.887  17.539  11.530
44441W        W12659   9.260  15.845   3.666
44442W        W12660   8.558  36.089  14.342
44443W        W12661  20.562  30.147  12.491
44444W        W12662  39.981  25.216  14.116
44445W        W12663  35.986   8.772   2.653
44446W        W12664  19.569  37.777  14.156
44447W        W12665  21.240  14.184   1.353
44448W        W12666  43.177   2.702  11.316
44449W        W12667  42.746  42.038  13.254
44450W        W12668  30.887  43.249  13.393
44451W        W12669  43.249  31.418   3.538
44452W        W12670   8.705  26.020   3.808
44453W        W12671   7.385   3.439  11.203
44454W        W12672   6.415  34.359  14.722
44455W        W12673  20.659  24.162   4.194
44456W        W12674  13.322  30.862   4.479
44457W        W12675  24.797  30.912   0.965
44458W        W12676  32.811  13.327  13.886
44459W        W12677  43.167  17.965  12.984
44460W        W12678   6.964  36.613  10.812
44461W        W12679  20.822  38.406   1.672
44462W        W12680  42.755  36.669   3.653
44463W        W12681  24.499  30.683   2.247
44464W        W12682  12.463  21.248   3.703
44465W        W12683  41.030   6.908  12.458
44466W        W12684  36.344  11.476  12.296
44467W        W12685  18.247  21.619   0.194
44468W        W12686   5.500  18.606  13.299
44469W        W12687  37.420  31.913  13.961
44470W        W12688  19.770  10.295  11.523
44471W        W12689  22.713  29.690   4.173
44472W        W12690  38.944  35.919   0.300
44473W        W12691   4.021  41.102  13.071
44474W        W12692   9.832  19.238   0.075
44475W        W12693  24.639  16.124  11.942
44476W        W12694  17.595  15.812  13.650
44477W        W12695   9.876  31.927  12.400
44478W        W12696  33.523   1.161  12.958
44479W        W12697  34.617  42.844  13.977
44480W        W12698  20.560   3.486  13.150
44481W        W12699   3.403  28.748   1.376
44482W        W12700  14.366  39.740   3.825
44483W        W12701  18.865  44.954   2.380
44484W        W12702  37.469  11.052   2.200
44485W        W12703   9.426  27.639   0.526
44486W        W12704  34.611   0.922  13.958
44487W        W12705  38.224  41.447   4.553
44488W        W12706  11.561  24.254  12.422
44489W        W12707  38.167   2.005  14.421
44490W        W12708  11.565  17.616  14.883
44491W        W12709  26.320  42.410   1.775
44492W        W12710  17.171   0.761   0.260
44493W        W12711  23.975  24.825  10.604
44494W        W12712  17.654   2.865   0.398
44495W        W12713  35.658  39.602  10.966
44496W        W12714  23.550  25.947  11.484
44497W        W12715  11.628  11.771   2.791
44498W        W12716  25.059   0.037   4.551
44499W        W12717  34.601  19.588   1.023
44500W        W12718  36.781  35.208  12.461
44501W        W12719   7.145   7.865   0.764
44502W        W12720  43.222  14.665   3.888
44503W        W12721  36.776  13.658  13.820
44504W        W12722  35.139   6.174  12.368
44505W        W12723   9.397  18.768  12.897
44506W        W12724  32.369  30.970   0.339
44507W        W12725  33.201  24.520   1.436
44508W        W12726   2.705  35.223  11.283
44509W        W12727  25.956  39.899   4.160
44510W        W12728   6.167  39.857   1.824
44511W        W12729  32.475  37.096  10.422
44512W        W12730  41.008   8.020   4.785
44513W        W12731  37.782  22.508   4.586
44514W        W12732   4.008  15.666  14.751
44515W        W12733  21.106  20.255  12.798
44516W        W12734  23.822  13.896   1.914
44517W        W12735  38.972  42.135  14.446
44518W        W12736  41.517  14.114  14.319
44519W        W12737   7.863  21.523  11.506
44520W        W12738   5.874  41.280   1.377
44521W        W12739  28.938  16.262  12.085
44522W        W12740  38.469   4.026   2.274
44523W        W12741  18.941  42.347  10.799
44524W        W12742  29.405   6.212  10.727
44525W        W12743  39.355  33.070   1.333
44526W        W12744   5.972   2.009   4.346
44527W        W12745  41.899  16.781  13.852
44528W        W12746  27.804  32.899  12.430
44529W        W12747  26.247  34.017  10.548
44530W        W12748  42.001   7.166  11.105
44531W        W12749  12.639   0.881  13.902
44532W        W12750  17.210  36.447   1.299
44533W        W12751  33.518  18.024   0.437
44534W        W12752  35.153  29.671  10.657
44535W        W12753   4.271  42.306   2.836
44536W        W12754  31.150  24.480  12.303
44537W        W12755   0.820  32.249   1.935
44538W        W12756   7.197  40.310   4.944
44539W        W12757  41.037  42.870   4.097
44540W        W12758  13.826  33.959   2.741
44541W        W12759  21.439  10.811   4.050
44542W        W12760  36.886  23.108  10.586
44543W        W12761   4.197  34.839   3.351
44544W        W12762  19.054   0.462   3.877
44545W        W12763   2.708  24.248  11.738
44546W        W12764  23.507  11.235   1.852
44547W        W12765  26.055  25.783  13.037
44548W        W12766  10.009  42.299  14.809
44549W        W12767  13.401   7.835   2.815
44550W        W12768  33.899   5.777   4.590
44551W        W12769  34.003  34.962  13.832
44552W        W12770  11.974  42.007   3.653
44553W        W12771  17.752   0.220   4.294
44554W        W12772  25.258  19.076  12.279
44555W        W12773   5.829   0.809  14.069
44556W        W12774  20.511   2.708  13.459
44557W        W12775  36.160   5.137  14.329
44558W        W12776  23.632  25.924   0.507
44559W        W12777   4.304   9.823   3.549
44560W        W12778  14.800  16.351   4.252
44561W        W12779  44.168  31.787  10.184
44562W        W12780  14.064  32.979   3.744
44563W        W12781  12.794  23.761   0.857
44564W        W12782  17.834  34.004   0.726
44565W        W12783  11.168  30.917  11.067
44566W        W12784  23.016  32.518   3.649
44567W        W12785  31.594  40.088  11.889
44568W        W12786  43.861  34.086   0.265
44569W        W12787  24.519  27.330   2.666
44570W        W12788  41.137  31.925   0.905
44571W        W12789  13.788  38.162  11.442
44572W        W12790  13.856  16.962  14.306
44573W        W12791  27.577  11.827  12.420
44574W        W12792   2.447  18.323  10.705
44575W        W12793  36.970  18.229   0.246
44576W        W12794  10.207  42.020   4.662
44577W        W12795   4.714   5.467  13.855
44578W        W12796   6.755  37.971   1.335
44579W        W12797  14.271  37.473  12.632
44580W        W12798   1.321   5.508   1.252
44581W        W12799  39.260   0.029  11.502
44582W        W12800   9.675  41.102   1.753
44583W        W12801  29.132   5.597  14.466
44584W        W12802  20.884  36.098   4.945
44585W        W12803  44.386  32.455   2.492
44586W        W12804  25.221  35.109   2.809
44587W        W12805  11.594  40.544  13.857
44588W        W12806  15.127  10.699  12.415
44589W        W12807   3.776  23.362   1.108
44590W        W12808  38.998  38.517   1.530
44591W        W12809  24.816  31.556  12.691
44592W        W12810  11.250  17.897  11.709
44593W        W12811  19.319  19.111  14.046
44594W        W12812  33.371   9.670   9.750
44595W        W12813  38.366  32.442   0.367
44596W        W12814  36.146  42.435   0.990
44597W        W12815   9.604  30.155  14.454
44598W        W12816  41.324  26.249   4.138
44599W        W12817  31.656  32.577  12.422
44600W        W12818   0.334  44.762   4.634
44601W        W12819  20.303   4.705   0.969
44602W        W12820   9.206  35.465   0.521
44603W        W12821  20.464  44.789  11.128
44604W        W12822   0.559  33.961  11.587
44605W        W12823  44.664  19.356   2.381
44606W        W12824  29.643  23.500  12.914
44607W        W12825  36.539   3.481  13.008
44608W        W12826  15.559  38.421  14.458
44609W        W12827  38.561  14.294   4.024
44610W        W12828  24.990  38.048  12.548
44611W        W12829  26.155   7.346   1.309
44612W        W12830  39.793   2.364   0.682
44613W        W12831  40.544  25.470   4.249
44614W        W12832  14.656  43.343   3.761
44615W        W12833  27.287  11.597   0.452
44616W        W12834  26.600  35.974  14.012
44617W        W12835  21.209  11.719   0.890
44618W        W12836  32.903  39.050  12.295
44619W        W12837  17.396   8.212   1.633
44620W        W12838  26.520   6.292  13.133
44621W        W12839  24.684   1.749   4.227
44622W        W12840   1.824  41.104   3.282
44623W        W12841  15.601  16.122   3.679
44624W        W12842  25.033  30.493   3.759
44625W        W12843  25.462  32.503   1.204
44626W        W12844   5.904  15.260  14.815
44627W        W12845  11.974  40.385   9.874
44628W        W12846   0.231   3.434   4.085
44629W        W12847  31.729  28.177   0.390
44630W        W12848  32.845   3.736   0.622
44631W        W12849   4.829  42.407   0.498
44632W        W12850  41.406   8.575   0.250
44633W        W12851  20.849  36.085   4.138
44634W        W12852  42.752  18.182  10.684
44635W        W12853  16.083  24.587  12.165
44636W        W12854  22.480   2.947   3.338
44637W        W12855  29.833  11.780  14.397
44638W        W12856   2.867  34.967  12.700
44639W        W12857  32.633  12.329  12.377
44640W        W12858  10.948  44.405  14.099
44641W        W12859  35.335  25.739   2.866
44642W        W12860  20.172  41.535   3.653
44643W        W12861  22.961  17.318  12.467
44644W        W12862   6.147  34.091  12.481
44645W        W12863  40.753  40.752  12.870
44646W        W12864   3.306  29.436  12.548
44647W        W12865  38.675  12.820   4.087
44648W        W12866  31.039   0.246   4.019
44649W        W12867  37.471   7.929   2.463
44650W        W12868  26.001  40.863  11.974
44651W        W12869  25.106  23.022   1.446
44652W        W12870   8.944  38.150  12.935
44653W        W12871  24.958   9.270   3.813
44654W        W12872  43.584  12.722   1.646
44655W        W12873  31.065  21.674   1.464
44656W        W12874  34.353  40.665   2.440
44657W        W12875  19.087   3.214  14.858
44658W        W12876  37.976  14.254   3.165
44659W        W12877  32.421  23.071  11.653
44660W        W12878   4.683  20.973   2.250
44661W        W12879  40.095  32.718   2.395
44662W        W12880  42.362   4.210   0.715
44663W        W12881  33.332  12.240   3.233
44664W        W12882  33.896  23.500  14.999
44665W        W12883  37.048  13.733   1.929
44666W        W12884   5.375  26.055   3.132
44667W        W12885  14.364  42.458   0.626
44668W        W12886   0.284  33.410  14.295
44669W        W12887  14.661  10.898  11.557
44670W        W12888  16.661  43.458   3.359
44671W        W12889  26.135   1.281  14.699
44672W        W12890  14.273  16.812  11.016
44673W        W12891  28.935  36.149   0.384
44674W        W12892  40.978  32.343   3.309
44675W        W12893  40.921  26.184  12.315
44676W        W12894  32.213  38.299   1.020
44677W        W12895  44.903   3.742  14.764
44678W        W12896  42.762  10.395   4.455
44679W        W12897  36.540  41.763  13.205
44680W        W12898  18.506  25.085  11.909
44681W        W12899  17.994  24.987   3.961
44682W        W12900   0.212  44.658   1.027
44683W        W12901  19.248   0.881   3.648
44684W        W12902  17.075  35.668   4.072
44685W        W12903   2.670  19.367   1.702
44686W        W12904   2.750   7.422  11.536
44687W        W12905  36.758  21.969   0.777
44688W        W12906  13.387   9.233   0.804
44689W        W12907   0.877  34.434  13.136
44690W        W12908  25.905  39.422  14.074
44691W        W12909  14.083   2.436  13.371
44692W        W12910  27.885  17.326   3.962
44693W        W12911  11.849  12.432  13.341
44694W        W12912   6.462  35.100   1.364
44695W        W12913  23.978  17.032   0.329
44696W        W12914  18.025  11.951  13.852
44697W        W12915  16.165  40.629  10.765
44698W        W12916  41.050  38.246  12.467
44699W        W12917  28.656  40.069   4.094
44700W        W12918  10.777  16.209  12.207
44701W        W12919   3.178   0.787  11.515
44702W        W12920   7.899   1.234  12.826
44703W        W12921  35.063   8.196  13.409
44704W        W12922   5.696  24.848   1.232
44705W        W12923  39.280  41.011   3.620
44706W        W12924  19.315  21.989   3.715
44707W        W12925   0.996  30.137   0.994
44708W        W12926  17.861  38.595  14.339
44709W        W12927  23.471  18.664  12.455
44710W        W12928   5.431  43.940   0.063
44711W        W12929  17.239  26.507   0.995
44712W        W12930  19.770  24.918  10.740
44713W        W12931  21.257   1.197  11.922
44714W        W12932   9.143   3.252   0.697
44715W        W12933   8.503   4.720   1.833
44716W        W12934   4.336   9.964  14.348
44717W        W12935  34.025  19.802   0.331
44718W        W12936  33.020  35.656   1.842
44719W        W12937  16.420  30.585   2.259
44720W        W12938  43.999  21.119  11.051
44721W        W12939   4.708  11.748   0.989
44722W        W12940   8.190  14.770   0.076
44723W        W12941   9.687  17.823  14.528
44724W        W12942  30.564  31.056  12.897
44725W        W12943  24.187  31.361   4.309
44726W        W12944  10.107  36.431   3.206
44727W        W12945  11.076  40.556  13.857
44728W        W12946  23.774   1.821   3.872
44729W        W12947  38.981  44.893   2.392
44730W        W12948  42.751  33.994  11.320
44731W        W12949  17.706  24.000   4.133
44732W        W12950  35.056   5.144   3.979
44733W        W12951  24.283  16.835  12.488
44734W        W12952   4.216  27.275  11.898
44735W        W12953   2.446   7.413   3.371
44736W        W12954   4.983   2.282  10.026
44737W        W12955   6.695  26.256   3.222
44738W        W12956  39.391  44.121  11.491
44739W        W12957  20.207  28.011   3.611
44740W        W12958  27.136  17.260   1.439
44741W        W12959  27.889  39.906  13.189
44742W        W12960  32.276  37.443  10.779
44743W        W12961  28.436   8.384   0.861
44744W        W12962  22.030  22.973   4.539
44745W        W12963   9.355  13.520  14.449
44746W        W12964  24.549   2.212   4.349
44747W        W12965  31.624  16.721   1.649
44748W        W12966   1.506   2.389  12.415
44749W        W12967  43.539   6.321   2.734
44750W        W12968  14.855  12.370  12.394
44751W        W12969  24.561  36.367   4.650
44752W        W12970  43.757  44.852   0.863
44753W        W12971  16.635  15.102   1.421
44754W        W12972  36.609  33.088   3.676
44755W        W12973  21.837  31.996  11.148
44756W        W12974   2.679  38.003   3.896
44757W        W12975   9.706  12.873   1.759
44758W        W12976  12.251   1.452   2.443
44759W        W12977  34.919  18.986  11.680
44760W        W12978  13.135  23.542   4.541
44761W        W12979   9.683   5.269  12.059
44762W        W12980  22.144  41.039  10.714
44763W        W12981   0.359  16.579  14.377
44764W        W12982  11.880  43.850  12.131
44765W        W12983  16.494  38.461  11.396
44766W        W12984  36.418   1.758  13.967
44767W        W12985  26.655  31.150   3.283
44768W        W12986  19.679   3.676  11.540
44769W        W12987  35.594  17.203  12.085
44770W        W12988  10.585   2.729   3.094
44771W        W12989  19.104  28.387  11.029
44772W        W12990   7.426  19.670  12.080
44773W        W12991  32.669  44.785   3.409
44774W        W12992  11.692  18.001   0.807
44775W        W12993  16.983  22.581  14.765
44776W        W12994  39.542  35.751  11.474
44777W        W12995   4.124  28.472   2.191
44778W        W12996   6.782  13.409   1.907
44779W        W12997  22.626   0.764  12.819
44780W        W12998   2.455  15.198  11.096
44781W        W12999   1.657   3.715  11.193
44782W        W13000   4.141  14.867  12.450
44783W        W13001  13.386   5.299  11.943
44784W        W13002  23.769  11.296  14.758
44785W        W13003  14.795  32.825   1.277
44786W        W13004  26.928  30.963   4.244
44787W        W13005  25.947  31.643   2.051
44788W        W13006  25.750   4.888   1.868
44789W        W13007  28.177  31.169   2.486
44790W        W13008   8.264   7.831  13.022
44791W        W13009  40.303  18.521   2.314
44792W        W13010   5.788  33.471   0.893
44793W        W13011   1.823   0.854  10.367
44794W        W13012  12.075   5.676  14.956
44795W        W13013   0.722  36.396   1.371
44796W        W13014   6.299   0.429   5.020
44797W        W13015  34.539  31.731  13.378
44798W        W13016   6.465   0.889   0.155
44799W        W13017   8.858  12.322   2.740
44800W        W13018  35.584   6.946   1.329
44801W        W13019   4.518  21.627  10.473
44802W        W13020  41.086  34.788   0.631
44803W        W13021  17.828   5.363  11.542
44804W        W13022  27.624  22.947   2.549
44805W        W13023   5.795  21.625  11.360
44806W        W13024  35.333  20.580   1.854
44807W        W13025  41.456  39.592   1.392
44808W        W13026   4.204  21.131  10.019
44809W        W13027   5.110   9.815   1.731
44810W        W13028  13.748  14.846   5.019
44811W        W13029  10.652  18.727  14.951
44812W        W13030  25.407  10.459  12.637
44813W        W13031  32.844  36.833   3.095
44814W        W13032  38.614   2.474  10.300
44815W        W13033   2.658  35.432  12.514
44816W        W13034  24.829  26.305   1.837
44817W        W13035  20.225   0.259   2.465
44818W        W13036  20.525  10.876  13.437
44819W        W13037  42.506  15.293   1.047
44820W        W13038  33.927  14.371  13.374
44821W        W13039   7.975  20.015   3.298
44822W        W13040  22.082  30.025  14.779
44823W        W13041  33.506   6.341   0.805
44824W        W13042   0.445  28.513  14.301
44825W        W13043  14.295  15.191   2.746
44826W        W13044  22.509  39.965  12.219
44827W        W13045  24.699  41.409   1.796
44828W        W13046  12.389  14.093  12.488
44829W        W13047  35.749   5.470  13.884
44830W        W13048  28.875  26.688   2.955
44831W        W13049  21.510  36.356   1.542
44832W        W13050   3.775   2.646  14.125
44833W        W13051  11.170  14.860  12.880
44834W        W13052  16.571   5.458  11.112
44835W        W13053  33.965  44.400   0.406
44836W        W13054   7.270  24.058  12.711
44837W        W13055  20.522  30.434  14.972
44838W        W13056  35.941  13.517  12.192
44839W        W13057  11.888  21.609  14.707
44840W        W13058  21.289   9.458  10.387
44841W        W13059  38.549  24.256   0.789
44842W        W13060   7.865  18.648  12.837
44843W        W13061  44.447  15.829   5.068
44844W        W13062  40.495  30.879   1.582
44845W        W13063  31.206  28.685   5.038
44846W        W13064  12.563   2.694   0.921
44847W        W13065   1.324  24.610   0.488
44848W        W13066  13.448  22.643  13.543
44849W        W13067  44.330  29.141  10.779
44850W        W13068  18.811  32.088   1.188
44851W        W13069  20.714   1.750   3.926
44852W        W13070  31.941  25.212   2.881
44853W        W13071   0.002  32.943  12.842
44854W        W13072  32.649   4.460  12.915
44855W        W13073  14.111  43.341  14.083
44856W        W13074  33.875  30.962   3.192
44857W        W13075  43.459   1.545  13.034
44858W        W13076   5.195  13.344   2.153
44859W        W13077  10.326  13.416  14.114
44860W        W13078  29.640  42.624  13.912
44861W        W13079  23.415   8.197   0.907
44862W        W13080  40.444  39.574  11.462
44863W        W13081  24.109  33.403   1.020
44864W        W13082  41.547  30.974  10.744
44865W        W13083  10.922  26.719  12.406
44866W        W13084  29.346  18.614  13.536
44867W        W13085   4.661  44.921  11.845
44868W        W13086  38.485  34.589  13.075
44869W        W13087  24.244  12.304   3.391
44870W        W13088  37.202  17.184   5.099
44871W        W13089  26.197  42.424   4.272
44872W        W13090  28.945  28.504  10.588
44873W        W13091  28.452   1.169  14.750
44874W        W13092   3.660  16.249  11.439
44875W        W13093   6.850  33.959   4.302
44876W        W13094  36.001  30.634  14.124
44877W        W13095  25.917  44.597   0.677
44878W        W13096  13.237  37.036   2.744
44879W        W13097  10.721  24.677  14.306
44880W        W13098  13.591  15.294  12.223
44881W        W13099  33.442   2.552  11.626
44882W        W13100  37.652  19.743  12.078
44883W        W13101  31.368  36.413  13.520
44884W        W13102  22.522  10.747  12.340
44885W        W13103  21.706   2.340  13.807
44886W        W13104  17.539  22.748  12.898
44887W        W13105  40.788  16.799   0.280
44888W        W13106  29.048   3.403  13.027
44889W        W13107  35.484  40.049   1.976
44890W        W13108  34.228  40.109   3.182
44891W        W13109  42.010   1.891   2.871
44892W        W13110  38.705  34.864   0.136
44893W        W13111  21.512  36.317  10.260
44894W        W13112  11.220  29.864   2.567
44895W        W13113   5.619  14.971  10.700
44896W        W13114  28.576   3.317   3.981
44897W        W13115  15.376   1.826   2.408
44898W        W13116  17.322  43.727  11.157
44899W        W13117  33.894  25.891  11.656
44900W        W13118  18.808  10.717   1.675
44901W        W13119  15.765  44.945  11.586
44902W        W13120  14.550  37.053  10.728
44903W        W13121  34.706  13.894  11.114
44904W        W13122  44.746  37.476  13.793
44905W        W13123  27.876  44.897  12.981
44906W        W13124  31.099  20.654   0.296
44907W        W13125  16.523  34.629  12.785
44908W        W13126  11.789  36.956  13.078
44909W        W13127  44.245   5.381  12.132
44910W        W13128  17.156  33.035   4.339
44911W        W13129  42.848  19.956   1.034
44912W        W13130  22.121  42.961   0.502
44913W        W13131  21.758  13.326  11.091
44914W        W13132  37.971  44.083   0.299
44915W        W13133  25.405  12.315  11.077
44916W        W13134  30.646   7.671  12.319
44917W        W13135  11.704  16.198   1.225
44918W        W13136  21.328  32.582   0.689
44919W        W13137   1.224  12.702   2.092
44920W        W13138  44.559  35.447   0.264
44921W        W13139  31.123   3.353  14.796
44922W        W13140  35.835  10.018  14.071
44923W        W13141  18.905  14.551   3.214
44924W        W13142  27.669  10.107   2.769
44925W        W13143  30.016  24.556  13.978
44926W        W13144  11.144   6.401   1.915
44927W        W13145  37.902   6.692   1.686
44928W        W13146  24.407  29.644  12.475
44929W        W13147  23.767  19.582  12.072
44930W        W13148   8.825  26.058  10.493
44931W        W13149  10.413  42.433  13.426
44932W        W13150  21.319  19.097   1.689
44933W        W13151   0.021   4.378   0.317
44934W        W13152  42.808  43.311   0.565
44935W        W13153  37.882   6.072   4.983
44936W        W13154  20.525   6.640   2.388
44937W        W13155  42.231  16.300   1.277
44938W        W13156  20.224  15.530  11.083
44939W        W13157   9.817  33.780  13.343
44940W        W13158  21.049   4.696   0.282
44941W        W13159  14.829  18.807  14.292
44942W        W13160  19.336  11.730  14.513
44943W        W13161  15.398  20.119  14.408
44944W        W13162  16.654  10.109  12.996
44945W        W13163  17.287  28.955   2.842
44946W        W13164  24.075  17.104  11.644
44947W        W13165  44.491  28.529  13.992
44948W        W13166  44.554  18.463   1.241
44949W        W13167   9.166  33.441  12.294
44950W        W13168   5.915  15.222   3.255
44951W        W13169  34.084  43.422   1.229
44952W        W13170   3.816  19.024   0.859
44953W        W13171  13.060  37.344  10.353
44954W        W13172  43.718  36.523  13.897
44955W        W13173  21.559  39.546   2.885
44956W        W13174  37.902  30.306   1.045
44957W        W13175   1.898  16.763   1.777
44958W        W13176  22.201   5.660  11.195
44959W        W13177  30.566  35.945   0.805
44960W        W13178  23.437   3.036   1.357
44961W        W13179  33.579  26.238   0.449
44962W        W13180   2.442  35.870  10.427
44963W        W13181  42.216   3.371  14.381
44964W        W13182  36.634  25.228   3.606
44965W        W13183   8.417   7.129  13.096
44966W        W13184  42.853  14.800   3.430
44967W        W13185  13.843  29.883  12.596
44968W        W13186  26.986   8.362  14.944
44969W        W13187   8.695   3.414   0.995
44970W        W13188  24.206  36.111   0.985
44971W        W13189  13.670  11.347  12.946
44972W        W13190  35.831  16.813   0.836
44973W        W13191  23.767  10.948   0.449
44974W        W13192  25.065  16.274  12.907
44975W        W13193  27.200  33.766   4.860
44976W        W13194  33.659   1.220   2.803
44977W        W13195  38.766  43.080  11.051
44978W        W13196  37.636  24.632   0.936
44979W        W13197  40.475  18.346  10.005
44980W        W13198   4.270  18.019   3.181
44981W        W13199  16.408  35.425  13.878
44982W        W13200   4.800   3.438  13.853
44983W        W13201   8.318   6.706   2.344
44984W        W13202  11.594  18.560  13.852
44985W        W13203  15.240  17.993   1.426
44986W        W13204  29.198  39.519   0.715
44987W        W13205  13.333  42.559   1.292
44988W        W13206  38.276  27.890  14.750
44989W        W13207  12.134  17.640  10.678
44990W        W13208  31.385   5.775  10.294
44991W        W13209  15.643  16.026  12.164
44992W        W13210  14.540  40.918   4.006
44993W        W13211  18.569   3.728   2.076
44994W        W13212  29.141  20.745   0.468
44995W        W13213  33.852   4.858   4.676
44996W        W13214  18.556   7.210  10.540
44997W        W13215   4.398  35.002   2.842
44998W        W13216  32.027  40.512   4.529
44999W        W13217  30.166   0.270   4.559
45000W        W13218  39.324  32.549   3.209
45001W        W13219  16.402  20.773   1.805
45002W        W13220  28.595  30.839  11.586
45003W        W13221  30.843  14.381   1.850
45004W        W13222  31.652  41.058  11.443
45005W        W13223   8.434  17.967  11.094
45006W        W13224  24.272  43.077   5.137
45007W        W13225   3.413  33.910   0.803
45008W        W13226  38.469  10.842   1.298
45009W        W13227  35.545   9.648   2.884
45010W        W13228  18.684   4.296  13.499
45011W        W13229  28.096  29.564  12.494
45012W        W13230  40.588  36.977  13.056
45013W        W13231  40.928   8.993   3.285
45014W        W13232  44.929   1.254   1.937
45015W        W13233  40.324  19.577  13.629
45016W        W13234  31.872  38.489   0.574
45017W        W13235   1.640  41.351   4.298
45018W        W13236  24.022   9.356  12.904
45019W        W13237   2.302   1.374  14.910
45020W        W13238  34.048  15.293   1.482
45021W        W13239  28.388  25.578   1.277
45022W        W13240  32.007  29.464  14.260
45023W        W13241  15.084  24.153   0.240
45024W        W13242   2.774  13.057   1.419
45025W        W13243  25.955  37.389   0.887
45026W        W13244   1.334   1.372   2.635
45027W        W13245  44.469  31.426  14.353
45028W        W13246  27.240  34.871   1.168
45029W        W13247  37.905  42.422   4.670
45030W        W13248   5.900  40.744   1.339
45031W        W13249  21.440  40.887   4.136
45032W        W13250  16.685  42.711  13.824
45033W        W13251  38.022  23.215  14.867
45034W        W13252  33.995  15.206   0.010
45035W        W13253   8.373  11.655  12.930
45036W        W13254   2.774  33.342   4.762
45037W        W13255   0.195   8.779  12.622
45038W        W13256  28.556  16.623   1.533
45039W        W13257  37.913  40.330   3.289
45040W        W13258  12.377  34.078   3.123
45041W        W13259  25.716  41.609  14.951
45042W        W13260  15.551  23.463   0.773
45043W        W13261  20.426  44.035  11.665
45044W        W13262  13.684  17.774  13.687
45045W        W13263  14.159  10.113  11.742
45046W        W13264  43.556   3.217   1.759
45047W        W13265  16.726   0.514   0.372
45048W        W13266   0.171  43.380   1.516
45049W        W13267  12.029   3.459   1.740
45050W        W13268  14.674  13.523   0.199
45051W        W13269  38.923   2.309   3.512
45052W        W13270   4.830  39.786   3.172
45053W        W13271  22.839  17.073  14.730
45054W        W13272  25.479   1.158  11.724
45055W        W13273  15.498  14.178   1.353
45056W        W13274  44.357  22.822  12.050
45057W        W13275  42.590   2.734   1.942
45058W        W13276  37.138  40.371  13.453
45059W        W13277  33.226  18.022  13.053
45060W        W13278   3.421  11.925   0.270
45061W        W13279  40.912  16.183   0.169
45062W        W13280  23.779  10.950   4.518
45063W        W13281  13.592  30.443   3.270
45064W        W13282   9.387  41.306  12.580
45065W        W13283  31.339   8.654   4.305
45066W        W13284  32.143  32.198  14.950
45067W        W13285   0.985   2.506   3.155
45068W        W13286  10.977  32.516  11.757
45069W        W13287  14.718  24.005  10.529
45070W        W13288  18.162   3.009   4.452
45071W        W13289   1.037   7.320   4.569
45072W        W13290  35.360  22.950  11.590
45073W        W13291  29.654  27.971  10.780
45074W        W13292  15.798   2.368  12.935
45075W        W13293  15.135  19.872   2.724
45076W        W13294  37.556  27.653  11.071
45077W        W13295   0.762  28.974   4.563
45078W        W13296  13.781  43.770   3.642
45079W        W13297  24.597  22.476   4.461
45080W        W13298  40.047   2.993  14.871
45081W        W13299  44.474  40.570   3.183
45082W        W13300  32.412  17.415   3.772
45083W        W13301  20.513  42.255  14.949
45084W        W13302  12.345  30.851   4.617
45085W        W13303   0.235  25.029  11.531
45086W        W13304   5.389  34.093   4.094
45087W        W13305  28.097  37.599   0.325
45088W        W13306  33.428  15.055   2.281
45089W        W13307  38.899  16.513   0.726
45090W        W13308  24.496  27.116  10.527
45091W        W13309  36.063  11.291   4.601
45092W        W13310  12.302  27.852  11.924
45093W        W13311  15.562   0.412   3.113
45094W        W13312  34.027   6.971   4.247
45095W        W13313  23.675  44.036  13.987
45096W        W13314  13.161  18.572  14.871
45097W        W13315   2.469  25.014   1.625
45098W        W13316  22.913  37.129  12.570
45099W        W13317  22.611  25.750   1.696
45100W        W13318   7.325  18.531   2.710
45101W        W13319   8.295  20.433   1.694
45102W        W13320  40.871  36.304  14.935
45103W        W13321  41.021  44.204  11.087
45104W        W13322   8.747  15.188   1.642
45105W        W13323   5.857   9.268   3.319
45106W        W13324  22.184  11.931  14.850
45107W        W13325  23.268  11.516   0.985
45108W        W13326   0.760  41.556  11.593
45109W        W13327  23.637  40.495   2.672
45110W        W13328  29.622   4.971  12.519
45111W        W13329   3.699  15.307  11.555
45112W        W13330  18.815  13.706  14.853
45113W        W13331  42.222  13.223  11.911
45114W        W13332  29.688   8.677   1.354
45115W        W13333  22.742  39.708   4.449
45116W        W13334  12.244  25.988   4.078
45117W        W13335  17.844  13.754  12.713
45118W        W13336   6.906   5.961   0.724
45119W        W13337  20.470  24.251  11.153
45120W        W13338  22.208  36.524  12.574
45121W        W13339  25.726  31.580   2.896
45122W        W13340  28.637  13.367   0.286
45123W        W13341  19.618  30.195  12.177
45124W        W13342  21.696  33.524  13.252
45125W        W13343  22.236  41.749  12.893
45126W        W13344  25.731  43.085  10.754
45127W        W13345   2.751   9.196   2.169
45128W        W13346  17.759   7.894   1.401
45129W        W13347   5.515  34.632  14.313
45130W        W13348   0.685  44.416  14.513
45131W        W13349  13.560  28.862  13.579
45132W        W13350  19.710   4.495   4.420
45133W        W13351  11.641  31.479  13.530
45134W        W13352  17.098   2.550  13.828
45135W        W13353   8.812  32.238  11.058
45136W        W13354  28.172  33.095   0.385
45137W        W13355  26.044  33.767   2.363
45138W        W13356  43.395  42.179   1.843
45139W        W13357  18.088  40.575   4.377
45140W        W13358  41.888   7.280  13.233
45141W        W13359  36.375  16.344  10.345
45142W        W13360  30.392   2.309   1.344
45143W        W13361   8.405  22.005  13.499
45144W        W13362   1.047  37.382   4.673
45145W        W13363  30.149  24.591  13.455
45146W        W13364   0.868   5.919  10.675
45147W        W13365  39.317  20.233   2.709
45148W        W13366  41.277  38.891  12.951
45149W        W13367  42.275  37.462   3.110
45150W        W13368  20.511   1.466  13.826
45151W        W13369   9.664  33.153  11.451
45152W        W13370  25.292   2.758  12.940
45153W        W13371  13.625   7.669   4.739
45154W        W13372  10.836  30.433   2.411
45155W        W13373  17.699  42.007  12.954
45156W        W13374  27.908  42.787  11.947
45157W        W13375  21.212  18.064  13.522
45158W        W13376  35.023  39.553  12.557
45159W        W13377   2.387  38.341   3.638
45160W        W13378  19.677  13.646   0.921
45161W        W13379  26.512  23.837  10.266
45162W        W13380  32.745   8.606  13.322
45163W        W13381  10.330  11.112   4.582
45164W        W13382  30.061   0.983  14.450
45165W        W13383  32.050  25.693   2.650
45166W        W13384  15.032  15.296   2.255
45167W        W13385  24.236  23.079  14.044
45168W        W13386  30.710  37.900   1.234
45169W        W13387  28.086  31.477  12.431
45170W        W13388  26.520   6.516   2.926
45171W        W13389  16.117   8.948   5.100
45172W        W13390  17.146  35.558  11.221
45173W        W13391  21.726  32.854   2.608
45174W        W13392  12.626  38.442   2.470
45175W        W13393  38.012  42.724   0.426
45176W        W13394  44.019  26.143  13.023
45177W        W13395  22.407  38.606  14.091
45178W        W13396  20.022  26.628   3.265
45179W        W13397  31.051  14.511   4.527
45180W        W13398  17.335   5.914  11.161
45181W        W13399  25.676  19.100   0.913
45182W        W13400  44.692   2.748   4.274
45183W        W13401  44.360  26.225   2.253
45184W        W13402  35.319  44.614   3.095
45185W        W13403   6.161   0.326   4.510
45186W        W13404  44.855   6.910  12.681
45187W        W13405   6.430  28.544  10.763
45188W        W13406  42.594  33.853   3.871
45189W        W13407  38.394  41.271  13.928
45190W        W13408  39.503  17.212   3.384
45191W        W13409  39.084  11.457   1.621
45192W        W13410  44.569  20.049   0.281
45193W        W13411  23.132   4.260  10.922
45194W        W13412  25.217  10.119   4.044
45195W        W13413  16.125   8.148   2.273
45196W        W13414   1.296  32.977  13.874
45197W        W13415  39.126  11.222   2.594
45198W        W13416  10.192  13.587  11.931
45199W        W13417  14.260  32.165   1.929
45200W        W13418  18.333  20.362   1.835
45201W        W13419  31.568   7.184  13.324
45202W        W13420  34.329  10.616   2.225
45203W        W13421  25.193  28.682  12.623
45204W        W13422  15.804  34.453  10.344
45205W        W13423  23.197  11.554   2.741
45206W        W13424  16.305   5.216  11.483
45207W        W13425  29.167  42.842  12.989
45208W        W13426  23.304  21.007  14.755
45209W        W13427  25.405  44.929  12.586
45210W        W13428   6.673  27.387   2.538
45211W        W13429   1.179  23.601   2.947
45212W        W13430   6.166  21.710  13.930
45213W        W13431  17.311  33.940  10.856
45214W        W13432  36.051  28.725   1.778
45215W        W13433  34.909  34.950  12.622
45216W        W13434  22.489  24.921   5.015
45217W        W13435   9.618   4.927  12.466
45218W        W13436  35.418  21.249  14.958
45219W        W13437   7.299  40.962   0.783
45220W        W13438  10.894  15.685  13.366
45221W        W13439   5.314  18.012  12.456
45222W        W13440   6.779  16.561   3.678
45223W        W13441  18.587  15.129   4.628
45224W        W13442   4.262  29.913   3.654
45225W        W13443  24.401  14.640   0.752
45226W        W13444  30.984   8.198   2.074
45227W        W13445  41.165   8.821   4.102
45228W        W13446  43.409  11.341   2.446
45229W        W13447  14.167  12.699   2.885
45230W        W13448  37.607  25.057   3.321
45231W        W13449  16.654  33.831  11.756
45232W        W13450  26.652  15.574  11.835
45233W        W13451  16.783   5.865  12.586
45234W        W13452  16.582  23.649  10.703
45235W        W13453  39.879  26.011  10.632
45236W        W13454  16.228  11.275  13.149
45237W        W13455  31.999  33.493  13.973
45238W        W13456  32.573  28.227   1.728
45239W        W13457  40.959  22.002   0.981
45240W        W13458  12.566  24.030  11.649
45241W        W13459  32.605   7.723   2.031
45242W        W13460  18.121  17.043   3.722
45243W        W13461  26.551  20.728  14.520
45244W        W13462   5.152   1.949  14.987
45245W        W13463  17.389   4.004  14.761
45246W        W13464  14.385  43.595   0.546
45247W        W13465  15.771  38.431   2.590
45248W        W13466  32.455  42.021   4.724
45249W        W13467  13.592  21.215  13.452
45250W        W13468   2.333  38.360  14.274
45251W        W13469   1.872   0.432   4.670
45252W        W13470  35.310  18.619   2.869
45253W        W13471  44.843   7.865   4.536
45254W        W13472   3.993  19.522   0.787
45255W        W13473  28.542  10.724  13.739
45256W        W13474  22.373  37.185   0.592
45257W        W13475  42.407   8.112   2.878
45258W        W13476   4.760  21.098   0.014
45259W        W13477  13.368  32.830   4.531
45260W        W13478  26.611  28.993  13.013
45261W        W13479   9.053  40.253   9.804
45262W        W13480  11.545   9.253   4.843
45263W        W13481  30.608  43.372  11.117
45264W        W13482  33.638  14.298   5.226
45265W        W13483  28.224  22.782   4.998
45266W        W13484  17.743  43.456   0.434
45267W        W13485  39.421  14.677  11.603
45268W        W13486   8.398   1.865  11.593
45269W        W13487   5.345  42.544   3.623
45270W        W13488  21.928  19.240  14.425
45271W        W13489   6.980  17.950   3.606
45272W        W13490  34.145  32.529  12.154
45273W        W13491  10.305  44.460   3.826
45274W        W13492  14.622  36.659   3.821
45275W        W13493  14.279  34.600  14.122
45276W        W13494  24.436  28.145  12.984
45277W        W13495   0.475  30.818  11.212
45278W        W13496  15.202  36.138   0.712
45279W        W13497  19.274  18.512   4.998
45280W        W13498  13.775  11.210   3.688
45281W        W13499  27.711   1.311  14.567
45282W        W13500   6.458  30.038   4.241
45283W        W13501  27.443  34.150   3.641
45284W        W13502   3.650  34.532   2.293
45285W        W13503  18.644   3.929   0.699
45286W        W13504  17.332   3.456  11.500
45287W        W13505   3.629  11.149   1.870
45288W        W13506  10.379   4.388   0.420
45289W        W13507  31.063  19.681   4.613
45290W        W13508   2.393  42.883   1.870
45291W        W13509  30.661  26.701  10.666
45292W        W13510  15.625  26.655   1.760
45293W        W13511  12.247  10.173  11.568
45294W        W13512  11.078  21.092   3.197
45295W        W13513  27.189   7.948  13.402
45296W        W13514  12.739  44.458   1.778
45297W        W13515  40.514  23.463  14.026
45298W        W13516  29.139  31.721  10.734
45299W        W13517  24.881   0.923   1.840
45300W        W13518  42.246  19.283  11.196
45301W        W13519   1.423   7.467  13.799
45302W        W13520   3.688  14.739  12.147
45303W        W13521  25.707  34.672   2.251
45304W        W13522  36.804  38.649  11.086
45305W        W13523  44.504   6.247  12.799
45306W        W13524  42.583  18.383  11.116
45307W        W13525  23.775  24.503  13.269
45308W        W13526  17.562  39.471   4.173
45309W        W13527  39.278  20.630  12.611
45310W        W13528   2.550  16.422   3.776
45311W        W13529  19.107  29.587  11.610
45312W        W13530  14.898   7.275   4.363
45313W        W13531  21.877  12.711   1.644
45314W        W13532  36.156   5.454   0.656
45315W        W13533  41.307  15.608   1.413
45316W        W13534   0.878  41.321   3.301
45317W        W13535   0.716  16.476   3.416
45318W        W13536   9.795  40.457   2.018
45319W        W13537  24.807  36.823   0.400
45320W        W13538   3.726  33.978  13.431
45321W        W13539  42.333  28.906  14.502
45322W        W13540  20.632  34.737  12.643
45323W        W13541  24.298  27.479   3.649
45324W        W13542  29.724  22.580  11.451
45325W        W13543  40.782  18.287   2.341
45326W        W13544   8.326  38.125  11.324
45327W        W13545  27.776  39.703   3.634
45328W        W13546  22.053   0.490  14.908
45329W        W13547   0.532  20.460   4.271
45330W        W13548   4.663   3.256  11.836
45331W        W13549  34.696  16.606  13.931
45332W        W13550  25.246  31.865  10.733
45333W        W13551  21.643  39.002  11.130
45334W        W13552  29.245  18.013  10.725
45335W        W13553  14.149  43.550   3.120
45336W        W13554   2.275  12.645  13.877
45337W        W13555  21.900  21.589   1.883
45338W        W13556  19.595   4.482  10.972
45339W        W13557  34.611  30.543  10.491
45340W        W13558  27.423  30.947   4.369
45341W        W13559   6.824  31.299  12.292
45342W        W13560  20.557  37.507   1.348
45343W        W13561  28.446  32.675   0.897
45344W        W13562  36.359  17.778  14.971
45345W        W13563  33.418  16.579   0.630
45346W        W13564  22.080   0.250  11.742
45347W        W13565   7.919  19.306   5.030
45348W        W13566  23.139   3.460   1.287
45349W        W13567   4.198  34.243  14.093
45350W        W13568   3.893  23.670   2.820
45351W        W13569  19.476  29.895  11.291
45352W        W13570  14.683  11.519  14.904
45353W        W13571  33.720  15.276   1.905
45354W        W13572  10.409  18.629   4.072
45355W        W13573  36.997   9.697  12.092
45356W        W13574  25.194   6.167  12.181
45357W        W13575  38.922  37.609  10.432
45358W        W13576  42.820  39.638  12.565
45359W        W13577   4.946  15.770   4.979
45360W        W13578   5.847  14.706  12.989
45361W        W13579  44.271  32.420  12.486
45362W        W13580  24.185  29.229   1.221
45363W        W13581  11.251  22.310  14.281
45364W        W13582  22.506  31.544   3.605
45365W        W13583  25.082  42.931  13.215
45366W        W13584   6.261  17.605   1.635
45367W        W13585   4.376  32.811   3.129
45368W        W13586  32.745  38.628  11.470
45369W        W13587  34.058  20.703   0.463
45370W        W13588   7.320   3.245  14.005
45371W        W13589  33.109  26.912  12.967
45372W        W13590  20.808  39.219  14.526
45373W        W13591  21.147  26.879  11.906
45374W        W13592  36.021   1.250  12.893
45375W        W13593  35.855  38.763  10.780
45376W        W13594  12.797  44.438  14.120
45377W        W13595  18.214  28.741   0.877
45378W        W13596  34.863  25.071   1.007
45379W        W13597  33.580  35.064  10.111
45380W        W13598  32.805  21.787  14.791
45381W        W13599   9.800  44.326   3.828
45382W        W13600  28.322   7.288   2.046
45383W        W13601   2.199  19.096  13.801
45384W        W13602  13.675  21.942  11.758
45385W        W13603  25.172  44.687  12.106
45386W        W13604   9.880  26.426  11.205
45387W        W13605  38.741  21.253   0.255
45388W        W13606  40.816  41.221   1.369
45389W        W13607  19.015   1.443   1.006
45390W        W13608  13.622  17.363  14.512
45391W        W13609  13.635  36.026  13.914
45392W        W13610   1.408  12.761  13.711
45393W        W13611  24.257   4.253   2.216
45394W        W13612  43.244  13.100  12.044
45395W        W13613  22.015  22.743   1.901
45396W        W13614  15.110  37.272   1.269
45397W        W13615   0.676  40.713  13.392
45398W        W13616  28.254  20.142   4.126
45399W        W13617  34.562  27.994  14.870
45400W        W13618  43.429  35.304  13.972
45401W        W13619  13.734  13.775  13.358
45402W        W13620  39.524  30.256   2.712
45403W        W13621  12.629  43.811   9.895
45404W        W13622  18.588  14.107  11.629
45405W        W13623  18.030  10.684  12.501
45406W        W13624   2.244  29.392  14.721
45407W        W13625  25.179  30.083  12.547
45408W        W13626  22.171   1.542   1.895
45409W        W13627  22.383  10.034  12.121
45410W        W13628  24.668  28.214  11.111
45411W        W13629  22.135  41.411   3.218
45412W        W13630   8.234   4.756   0.839
45413W        W13631  27.906  39.040  12.468
45414W        W13632  15.777  18.276  12.376
45415W        W13633  17.901  33.270   4.389
45416W        W13634  37.575   6.744   4.120
45417W        W13635  35.438  37.116  12.824
45418W        W13636  37.832  13.949  12.435
45419W        W13637  11.113   4.423  11.706
45420W        W13638  23.242  18.766  12.002
45421W        W13639  26.845  21.995   1.351
45422W        W13640  29.664   2.245  12.919
45423W        W13641   7.054  43.648   4.275
45424W        W13642  27.510  21.614   3.381
45425W        W13643  20.100  26.976   2.112
45426W        W13644  27.697  11.179   1.776
45427W        W13645  13.711  36.621  10.680
45428W        W13646  16.319  22.707  10.718
45429W        W13647  42.361  39.331  12.215
45430W        W13648  26.231   8.330  13.978
45431W        W13649  35.322  37.905  10.754
45432W        W13650  15.662  30.002  10.847
45433W        W13651  38.058  15.681  11.901
45434W        W13652  39.778   2.544  14.806
45435W        W13653  20.498  17.223  14.321
45436W        W13654  44.330  14.809  13.701
45437W        W13655  35.697  37.274   0.292
45438W        W13656  14.267  26.500  12.093
45439W        W13657   0.973  20.213  14.271
45440W        W13658  28.461  37.101   0.913
45441W        W13659  25.752  42.231  13.072
45442W        W13660  11.370  14.275   4.147
45443W        W13661  28.366  32.898  11.534
45444W        W13662  39.607  28.777  13.625
45445W        W13663  24.107  22.581  14.298
45446W        W13664  20.697  30.272   0.459
45447W        W13665  16.571  30.158  11.202
45448W        W13666  31.637   3.788   1.081
45449W        W13667  13.192  11.724  10.622
45450W        W13668   6.733   6.741   3.580
45451W        W13669   2.992  19.772  13.536
45452W        W13670   3.992  17.392   1.054
45453W        W13671  13.852  22.985   0.322
45454W        W13672  30.906  33.668  12.139
45455W        W13673   3.120  38.595   0.810
45456W        W13674  31.611  11.162   2.824
45457W        W13675  40.032  16.839   3.792
45458W        W13676  34.010  24.148   0.789
45459W        W13677  25.494  15.586   2.310
45460W        W13678   7.406  14.999  13.497
45461W        W13679  21.618   6.801  13.300
45462W        W13680  11.297   0.763  11.967
45463W        W13681  18.220   3.117   0.936
45464W        W13682  17.188   8.775  11.636
45465W        W13683   9.494  16.699   2.605
45466W        W13684  38.789   0.312   0.296
45467W        W13685  12.092  15.579  14.124
45468W        W13686  28.539  36.985  12.674
45469W        W13687   2.327   5.619  11.137
45470W        W13688   5.470  21.355   0.717
45471W        W13689  20.443  27.118  13.699
45472W        W13690  35.632  34.945  13.057
45473W        W13691  43.865  27.764  11.610
45474W        W13692  17.595   1.245   1.157
45475W        W13693   8.765  20.077   2.611
45476W        W13694  22.510  17.777  11.523
45477W        W13695  29.729  11.482   2.737
45478W        W13696  27.649  33.810  11.149
45479W        W13697  21.245  17.369   0.769
45480W        W13698   7.259  40.514  10.698
45481W        W13699  10.178   0.325   0.289
45482W        W13700  30.028  22.780  13.411
45483W        W13701  40.465   1.727  11.251
45484W        W13702  20.550  42.052   0.808
45485W        W13703   3.878   4.907  11.591
45486W        W13704  19.168  10.782   0.804
45487W        W13705  35.882  24.457  11.222
45488W        W13706   7.311  26.984   1.927
45489W        W13707  40.486  40.521   2.392
45490W        W13708  22.665  40.015   1.745
45491W        W13709  44.448  17.223   3.464
45492W        W13710  41.511  30.584  12.525
45493W        W13711  18.345  37.991  12.702
45494W        W13712  17.056  26.969   0.787
45495W        W13713   3.007   9.916  14.554
45496W        W13714  28.495  34.485   2.712
45497W        W13715   0.269  28.457  14.786
45498W        W13716  44.862  39.542  14.060
45499W        W13717  29.226   6.005  10.295
45500W        W13718   8.696  25.291   4.038
45501W        W13719  13.391  38.970  14.876
45502W        W13720  26.183  18.577   0.695
45503W        W13721  25.261   3.318  10.493
45504W        W13722  19.614  30.404   0.784
45505W        W13723  38.812   6.408  14.417
45506W        W13724  24.536   1.474  13.590
45507W        W13725  35.395  34.257  13.663
45508W        W13726  18.710  16.143  10.620
45509W        W13727  27.983   1.002   2.913
45510W        W13728  31.627  13.206   2.856
45511W        W13729   6.061  27.525  10.695
45512W        W13730  34.909  20.139   3.579
45513W        W13731  32.855   7.781   3.439
45514W        W13732  22.120  33.518   2.404
45515W        W13733  35.017  44.727  11.501
45516W        W13734  13.581  37.254   3.622
45517W        W13735  30.354  11.696  14.299
45518W        W13736   7.319   2.209   1.671
45519W        W13737   0.443  13.639   4.934
45520W        W13738   7.202  13.259  12.726
45521W        W13739  15.783   5.786  12.948
45522W        W13740  19.951   0.742   1.275
45523W        W13741  31.693   5.197   4.524
45524W        W13742  29.833  19.680   1.252
45525W        W13743  29.713  18.589   1.810
45526W        W13744   8.796  37.996   1.445
45527W        W13745   2.277   8.730  13.515
45528W        W13746  38.327   4.469   4.588
45529W        W13747  44.377  17.619   4.288
45530W        W13748   9.396  23.010  11.457
45531W        W13749  32.434  15.756  11.972
45532W        W13750  32.654  15.180   1.850
45533W        W13751  12.652  16.829   0.837
45534W        W13752   8.253  30.784  13.050
45535W        W13753   2.475  12.583  11.991
45536W        W13754  36.139  24.682   1.408
45537W        W13755   8.767  41.366   1.890
45538W        W13756   0.923   0.848   4.588
45539W        W13757  29.099  42.992   1.136
45540W        W13758  14.303  28.037   1.786
45541W        W13759  31.355  31.051   0.373
45542W        W13760  32.456  15.752   4.586
45543W        W13761  43.975   2.909   2.517
45544W        W13762  38.512   5.689   0.758
45545W        W13763  17.198  21.307   2.277
45546W        W13764  40.718  12.585  10.300
45547W        W13765  27.996  15.497   0.344
45548W        W13766  35.643   2.723   0.481
45549W        W13767  13.017  25.701  13.923
45550W        W13768  20.769  37.610  11.490
45551W        W13769  17.809  43.536  13.569
45552W        W13770  18.702  25.089   1.406
45553W        W13771  12.556  31.012  12.791
45554W        W13772  31.506   7.141   1.462
45555W        W13773  40.899  13.679   0.324
45556W        W13774  26.477  11.275  11.669
45557W        W13775   2.643   3.812   2.481
45558W        W13776  18.202  35.048  12.964
45559W        W13777  26.496  43.789  12.369
45560W        W13778  32.806  14.890   2.754
45561W        W13779  13.357  44.865   1.422
45562W        W13780   0.769  36.161  10.605
45563W        W13781  21.384  14.668   1.782
45564W        W13782  41.296   1.724   0.045
45565W        W13783  42.414   0.500   2.295
45566W        W13784  41.741  24.584   2.284
45567W        W13785  16.865  11.548   3.826
45568W        W13786  36.540  18.753  13.222
45569W        W13787  44.514  12.191  14.038
45570W        W13788  37.453   3.389  11.767
45571W        W13789  30.206   0.313  12.990
45572W        W13790   2.759  12.533  10.657
45573W        W13791  33.421  28.853   4.871
45574W        W13792  10.690  33.873  12.932
45575W        W13793  38.286  39.387  11.051
45576W        W13794   0.521  34.486   1.182
45577W        W13795   6.404  38.326  14.353
45578W        W13796   7.893   8.682  14.716
45579W        W13797  36.113  28.135  10.575
45580W        W13798  14.965  29.452  12.537
45581W        W13799   2.685  20.253   2.734
45582W        W13800  15.160  41.725   4.123
45583W        W13801   6.874  15.215  11.878
45584W        W13802  41.838   6.168  12.566
45585W        W13803  38.643  23.464   0.368
45586W        W13804   8.262   0.967   0.727
45587W        W13805  30.462  20.253  11.108
45588W        W13806  35.649  11.196   1.590
45589W        W13807  28.599  37.896   3.869
45590W        W13808   4.009   6.607   1.929
45591W        W13809  27.358  34.856  11.819
45592W        W13810   4.771  40.635  10.898
45593W        W13811   2.903  38.847  10.709
45594W        W13812  28.994  23.442  11.677
45595W        W13813   1.911  14.535  13.128
45596W        W13814  41.548  42.973  11.135
45597W        W13815  38.873   4.005   2.893
45598W        W13816  39.543  34.154  10.758
45599W        W13817  32.010  20.126   3.310
45600W        W13818   1.519  38.318  11.224
45601W        W13819  18.299   2.615   0.917
45602W        W13820  14.729  11.608  10.264
45603W        W13821  35.962  10.193   4.089
45604W        W13822  34.347  34.112  14.450
45605W        W13823  44.912  30.543   5.019
45606W        W13824  42.725  25.557   3.238
45607W        W13825  32.962   7.856   1.331
45608W        W13826  17.263  37.154  13.838
45609W        W13827   7.290  34.895   1.999
45610W        W13828  10.373  27.421  12.182
45611W        W13829   4.168   7.738   3.869
45612W        W13830   3.046  14.317  13.175
45613W        W13831   9.679  36.922  10.635
45614W        W13832  21.351  14.364  14.029
45615W        W13833   8.722  19.093   2.491
45616W        W13834  23.019   5.500  11.480
45617W        W13835  14.669  27.771   1.485
45618W        W13836  25.440  18.738   3.754
45619W        W13837  19.968   7.283  14.999
45620W        W13838  27.384   8.749   1.743
45621W        W13839   5.443  16.272  10.613
45622W        W13840   1.408  19.480   0.330
45623W        W13841  14.279  16.500   3.502
45624W        W13842  14.343   9.078  12.990
45625W        W13843   8.865  37.901  14.421
45626W        W13844  33.455  17.139  14.977
45627W        W13845   4.745  39.781   1.441
45628W        W13846  26.485  38.588  12.129
45629W        W13847  28.037  32.652  10.446
45630W        W13848  44.435  34.052  13.950
45631W        W13849  23.505  43.880   3.531
45632W        W13850  26.718  23.548   9.820
45633W        W13851  19.053  12.638  11.604
45634W        W13852   8.920  18.235   3.198
45635W        W13853  43.361  43.528  11.061
45636W        W13854  25.491  14.743  11.114
45637W        W13855  19.211  40.227   4.970
45638W        W13856  40.749   8.226   3.542
45639W        W13857  23.287   9.874  12.915
45640W        W13858  25.077   8.430  11.568
45641W        W13859  25.573  37.361  13.760
45642W        W13860  37.974  15.069  12.033
45643W        W13861  18.257  23.088  14.930
45644W        W13862  22.610  31.076   1.164
45645W        W13863  36.166  38.924  14.099
45646W        W13864  17.053  35.128   1.918
45647W        W13865  28.229  34.095   3.318
45648W        W13866  21.917   5.720   2.799
45649W        W13867  39.604  22.267  11.588
45650W        W13868  34.470  18.250   3.383
45651W        W13869  38.803  39.429   3.870
45652W        W13870  44.984  13.407  14.802
45653W        W13871  27.366   8.690   4.591
45654W        W13872  43.442  14.603   0.867
45655W        W13873   3.985  24.512  11.559
45656W        W13874   3.770  12.110  12.139
45657W        W13875   4.822  14.129  13.030
45658W        W13876  14.433  21.164  13.199
45659W        W13877  30.146  11.242  10.741
45660W        W13878  12.218  14.569   3.116
45661W        W13879  24.470   4.929  11.758
45662W        W13880  42.312  42.500   3.657
45663W        W13881  16.606   7.814  13.802
45664W        W13882   8.238  23.626   4.184
45665W        W13883  11.718  39.616  10.678
45666W        W13884  34.863  14.859   3.614
45667W        W13885  24.426  15.885  10.194
45668W        W13886  37.378  27.516   1.375
45669W        W13887  11.988   3.230   4.144
45670W        W13888   7.364  38.536  14.377
45671W        W13889  27.468  29.214   1.823
45672W        W13890  28.905  31.894   0.669
45673W        W13891   8.141  21.421   3.353
45674W        W13892  44.351  15.740   2.378
45675W        W13893  35.433  11.530   2.568
45676W        W13894  33.146  14.194   4.749
45677W        W13895  30.206  12.169   4.499
45678W        W13896  33.352  37.481   3.620
45679W        W13897  11.336   3.037  11.257
45680W        W13898  41.223  35.249   0.421
45681W        W13899  25.164  21.274   0.726
45682W        W13900  26.177  19.567   2.820
45683W        W13901  26.831   2.334  12.413
45684W        W13902  24.179  29.767   3.264
45685W        W13903   7.144  14.037   4.984
45686W        W13904  28.201  43.057   1.311
45687W        W13905  23.662  24.977   4.108
45688W        W13906  35.970  25.719  12.831
45689W        W13907  39.384  27.003   0.812
45690W        W13908  40.826  30.668   4.147
45691W        W13909  28.725   8.507   1.260
45692W        W13910  40.333   4.999   0.354
45693W        W13911  40.856  43.996  10.642
45694W        W13912  18.577   0.495   4.550
45695W        W13913   1.841  11.296   2.978
45696W        W13914  23.718  19.071   4.072
45697W        W13915  28.306  36.134   3.246
45698W        W13916  10.119  25.182  11.186
45699W        W13917  38.939  13.348  13.826
45700W        W13918  19.828  25.889   1.226
45701W        W13919   2.345  12.417  12.884
45702W        W13920   3.512  31.913  12.075
45703W        W13921  41.293  40.400   4.157
45704W        W13922   1.832  13.123   3.346
45705W        W13923  36.483  10.532   4.556
45706W        W13924  38.550   8.632   2.264
45707W        W13925  38.017  19.160   0.200
45708W        W13926   6.758  14.660   0.240
45709W        W13927   6.712  38.949   2.653
45710W        W13928  41.955  22.747  14.570
45711W        W13929  31.206   4.060  12.496
45712W        W13930   0.523  30.042  13.326
45713W        W13931  32.496  27.646  14.382
45714W        W13932  42.863   3.668  14.811
45715W        W13933  11.968  11.580  11.698
45716W        W13934   7.731  29.590   0.930
45717W        W13935  41.915  12.170  14.007
45718W        W13936  19.666  16.847  12.852
45719W        W13937  40.991  29.182  14.007
45720W        W13938  20.811  17.210  13.903
45721W        W13939  37.984  35.731  13.879
45722W        W13940  17.691  32.166   3.657
45723W        W13941  33.395  35.894  12.407
45724W        W13942  11.065   6.274  11.529
45725W        W13943  12.235   6.351   0.109
45726W        W13944  35.926  33.336   0.919
45727W        W13945  29.184  39.336   4.534
45728W        W13946   0.937  16.606  12.149
45729W        W13947  42.516  31.941   4.598
45730W        W13948   2.914  17.222   0.792
45731W        W13949  28.758   4.619  12.113
45732W        W13950  35.652  32.488   1.845
45733W        W13951  39.975  27.226  12.954
45734W        W13952  35.897   5.657   3.726
45735W        W13953  42.171   4.601  13.472
45736W        W13954   0.291  25.869   1.913
45737W        W13955  36.948  39.308   1.692
45738W        W13956  29.130  28.987  12.458
45739W        W13957  16.309  38.082   4.406
45740W        W13958  16.080  32.441  13.720
45741W        W13959   2.996  11.172   0.826
45742W        W13960  13.835  28.168   0.795
45743W        W13961  33.631  40.461   0.867
45744W        W13962  13.281  22.707  14.477
45745W        W13963  24.632  29.955   1.269
45746W        W13964  32.996  43.295  11.226
45747W        W13965  17.086  30.680   0.471
45748W        W13966  19.321  27.460   4.188
45749W        W13967  19.198  42.489  13.077
45750W        W13968  29.084   7.493  14.843
45751W        W13969  22.656   7.411  11.239
45752W        W13970  32.992   2.362  12.588
45753W        W13971  35.408  25.958  11.705
45754W        W13972  38.060   9.201  12.531
45755W        W13973  18.166  43.466   2.149
45756W        W13974  39.696  42.880  14.933
45757W        W13975  34.001  10.791   3.362
45758W        W13976  16.230  24.729   4.154
45759W        W13977   5.327  26.636   4.784
45760W        W13978  19.207  36.598  12.917
45761W        W13979   3.226  16.319   0.372
45762W        W13980  12.626  38.924  11.943
45763W        W13981  30.107   5.217  12.492
45764W        W13982  34.000  32.148  11.855
45765W        W13983   8.728  16.361  12.951
45766W        W13984  26.992  26.368  12.962
45767W        W13985   3.947  27.571   2.299
45768W        W13986  11.433  32.399  12.019
45769W        W13987   1.663  15.126   0.359
45770W        W13988  31.935   4.174  14.418
45771W        W13989   7.305  15.096   4.091
45772W        W13990   4.979   6.203  11.327
45773W        W13991  27.135  27.697   2.799
45774W        W13992  28.567  39.275   1.133
45775W        W13993  28.059  33.955  13.425
45776W        W13994  12.058  23.825   2.376
45777W        W13995  21.298  22.815  10.079
45778W        W13996   2.388  24.169  14.083
45779W        W13997  25.866  15.479   5.301
45780W        W13998  16.705  21.297   3.467
45781W        W13999  35.473   5.884  11.448
45782W        W14000  17.514  44.759   1.679
45783W        W14001  29.416  22.156   4.306
45784W        W14002   2.694  31.068   4.499
45785W        W14003  19.936  38.106  11.849
45786W        W14004  18.294  13.714  10.943
45787W        W14005  21.544  33.323   3.567
45788W        W14006   8.048  11.453  10.305
45789W        W14007   6.734   9.820   1.775
45790W        W14008  44.309   4.100  11.139
45791W        W14009  26.054  29.635  13.046
45792W        W14010  35.067  38.351  10.810
45793W        W14011  42.354  20.319   3.852
45794W        W14012  43.313  20.708   2.724
45795W        W14013  10.494  39.287  12.445
45796W        W14014  44.486  24.260   3.183
45797W        W14015  33.086  12.350   2.803
45798W        W14016  37.821  34.804   3.767
45799W        W14017  18.029  40.566   2.477
45800W        W14018   6.608  44.285  14.769
45801W        W14019  35.154  30.477   3.238
45802W        W14020  11.652  17.110   1.852
45803W        W14021  35.013  29.798   2.616
45804W        W14022  31.428   0.990   3.743
45805W        W14023  17.772   4.937   1.411
45806W        W14024  35.236  44.245  11.066
45807W        W14025  31.136  44.211  10.999
45808W        W14026  21.925  41.461   5.177
45809W        W14027  15.288  32.340  14.265
45810W        W14028   8.639  31.819   0.884
45811W        W14029  35.235  36.105  13.917
45812W        W14030  20.290  36.863  13.426
45813W        W14031  31.853  30.909   0.345
45814W        W14032   7.658  41.930   0.107
45815W        W14033  13.784  15.921   0.855
45816W        W14034  37.736  13.377   5.001
45817W        W14035   7.239   9.481  12.593
45818W        W14036   5.613  36.060   3.852
45819W        W14037  23.745  39.295   0.281
45820W        W14038  35.124  32.483  10.638
45821W        W14039  41.873  33.839   4.201
45822W        W14040  19.649  32.566  12.511
45823W        W14041  44.257  26.717  14.341
45824W        W14042  17.826  34.023  13.689
45825W        W14043  40.104   5.281  11.976
45826W        W14044  35.099  37.080  13.531
45827W        W14045   8.889  30.602   2.472
45828W        W14046  14.531  27.418  11.914
45829W        W14047  37.317  13.275   1.725
45830W        W14048  39.628  30.430  14.551
45831W        W14049  32.526  35.508   1.788
45832W        W14050  26.713  24.787  13.382
45833W        W14051   5.751  14.190  13.108
45834W        W14052  19.553  12.233   3.985
45835W        W14053  27.623  36.238   1.905
45836W        W14054  37.703   2.977   1.783
45837W        W14055   4.467  31.809  12.138
45838W        W14056  12.226  33.754   3.509
45839W        W14057  36.101  25.429  13.798
45840W        W14058   2.426  16.602   0.124
45841W        W14059  12.126   4.428  13.403
45842W        W14060  44.500  41.421   1.265
45843W        W14061  35.517   0.272   3.797
45844W        W14062   5.457  15.028  11.218
45845W        W14063  42.913  13.808  14.470
45846W        W14064  42.808  42.853  11.133
45847W        W14065  39.555  32.540  11.567
45848W        W14066   1.762  10.670   3.754
45849W        W14067  15.210  18.718  13.940
45850W        W14068   4.310  11.135   4.632
45851W        W14069  11.140  27.060  10.892
45852W        W14070   5.265   2.657   1.449
45853W        W14071   1.289  39.366   1.267
45854W        W14072  39.367   0.376  11.118
45855W        W14073  34.391  12.611   0.398
45856W        W14074  44.849  16.580  14.583
45857W        W14075  15.365  34.521  11.642
45858W        W14076  17.549  19.609   0.344
45859W        W14077  32.238  10.144   3.400
45860W        W14078   5.336  30.492   1.992
45861W        W14079  17.116  22.055  13.960
45862W        W14080  13.249  29.021   2.336
45863W        W14081   9.645  27.361   3.721
45864W        W14082  36.355  36.516  13.439
45865W        W14083  18.234  17.821  11.920
45866W        W14084  27.132   3.543   4.193
45867W        W14085  42.494  33.485   4.224
45868W        W14086  20.628  14.599  10.264
45869W        W14087  21.694  30.434  11.170
45870W        W14088  13.323  41.845  10.818
45871W        W14089   8.679   9.390  13.270
45872W        W14090   0.724  32.164  14.827
45873W        W14091  41.214  35.531  13.425
45874W        W14092  41.724   3.262   2.790
45875W        W14093  29.085  39.497   1.219
45876W        W14094  10.264  44.677   2.184
45877W        W14095  31.598  22.497   1.387
45878W        W14096  40.607  22.639  11.490
45879W        W14097  24.797  23.075  11.591
45880W        W14098  23.605  10.343   2.971
45881W        W14099   6.119  10.414  11.487
45882W        W14100  26.520  14.245   2.004
45883W        W14101  36.372  20.139   4.416
45884W        W14102  10.101  38.488   2.317
45885W        W14103  14.354  42.459   3.356
45886W        W14104  14.178  31.137  11.470
45887W        W14105   1.259  39.535   2.171
45888W        W14106  15.614   9.908   2.177
45889W        W14107  29.925  28.999   0.184
45890W        W14108   0.745  17.184   0.364
45891W        W14109  12.336  13.710   2.323
45892W        W14110   8.651  29.960  13.932
45893W        W14111  42.061   4.439   3.264
45894W        W14112  20.516  18.797  12.923
45895W        W14113  42.242  39.595  11.185
45896W        W14114  37.604  27.959  11.525
45897W        W14115  38.067  25.469   0.016
45898W        W14116  40.788  26.327   4.228
45899W        W14117  44.677  11.727   0.510
45900W        W14118  33.591  28.463  13.908
45901W        W14119  39.778   2.905  12.532
45902W        W14120   3.425  42.351   0.007
45903W        W14121  14.030  34.521  13.667
45904W        W14122  38.578   8.215   4.137
45905W        W14123  37.805  22.169   0.360
45906W        W14124  20.987  23.484   4.122
45907W        W14125  21.474   4.802  12.412
45908W        W14126  42.444  35.636   0.701
45909W        W14127  23.486   5.034  14.989
45910W        W14128  27.600  25.713   0.982
45911W        W14129   1.307  33.888   0.291
45912W        W14130  12.528  23.577   2.244
45913W        W14131  43.087  25.973   1.424
45914W        W14132  20.830  26.143   1.338
45915W        W14133  41.791  22.840   2.576
45916W        W14134  33.672  10.651  14.405
45917W        W14135  15.371   6.691  13.456
45918W        W14136  12.157  27.995   1.228
45919W        W14137   6.637  42.956   3.015
45920W        W14138  29.263  28.863   1.386
45921W        W14139  21.240  17.340   4.545
45922W        W14140  22.475  26.339  13.547
45923W        W14141   0.206   9.390  11.018
45924W        W14142  14.675  31.711  13.275
45925W        W14143  13.744  29.947   2.375
45926W        W14144  44.353  27.491  12.797
45927W        W14145  28.850  26.628  14.464
45928W        W14146  18.730   6.316  11.099
45929W        W14147  30.595  25.178  10.813
45930W        W14148  24.229  30.685  12.538
45931W        W14149  19.792   5.784  11.608
45932W        W14150   9.521  18.340  14.572
45933W        W14151  14.978  31.356  14.459
45934W        W14152  40.411  29.998   0.663
45935W        W14153  13.256  25.383   2.922
45936W        W14154   0.782  33.563  14.185
45937W        W14155  10.313  19.045   2.103
45938W        W14156   0.881  44.491  13.208
45939W        W14157  31.094  24.954   4.126
45940W        W14158  14.784   6.189   2.640
45941W        W14159  23.111  22.701   4.599
45942W        W14160   3.229  24.586   1.662
45943W        W14161  11.734  15.225   1.716
45944W        W14162  41.553   4.062  10.721
45945W        W14163  13.545   9.931   2.444
45946W        W14164   4.679   8.815   2.851
45947W        W14165   0.770  33.152   2.309
45948W        W14166  17.563  30.540  12.526
45949W        W14167  37.445  25.674   4.544
45950W        W14168  27.806  14.704  13.829
45951W        W14169   5.197  21.705   0.457
45952W        W14170   8.810   5.011  10.193
45953W        W14171  16.992   5.630   2.355
45954W        W14172  35.027  31.149   2.720
45955W        W14173  34.896  38.788   3.225
45956W        W14174  23.686  15.677  11.619
45957W        W14175   4.752  38.986   2.865
45958W        W14176  28.289  29.580  11.574
45959W        W14177  34.041  37.127   0.907
45960W        W14178  27.811  13.879   5.042
45961W        W14179  33.409  18.508  12.943
45962W        W14180  29.831   5.219   3.649
45963W        W14181  30.481  38.288   0.468
45964W        W14182  41.337  34.186  10.941
45965W        W14183  17.787  39.056   2.287
45966W        W14184  10.123  13.822  13.867
45967W        W14185  12.542   1.653  14.430
45968W        W14186  15.848  40.498  11.179
45969W        W14187  11.092  25.774   2.197
45970W        W14188   0.927  31.140   2.760
45971W        W14189  18.090  37.352  13.437
45972W        W14190  36.538  38.551  11.507
45973W        W14191   3.538   9.720  13.265
45974W        W14192  21.226   6.779  12.022
45975W        W14193   2.807  19.691  14.432
45976W        W14194  18.743  35.817  13.860
45977W        W14195  28.483  21.992  11.820
45978W        W14196  37.039  36.945   2.292
45979W        W14197  16.458   0.708   3.191
45980W        W14198   2.891  29.746  12.491
45981W        W14199  43.409  26.199   1.820
45982W        W14200  34.422  34.803  10.634
45983W        W14201  24.437   6.921  13.405
45984W        W14202   0.057  35.819   4.206
45985W        W14203  19.290   0.690  13.365
45986W        W14204  17.331  22.716   1.669
45987W        W14205   9.693  27.475  11.617
45988W        W14206  27.230  28.209   4.251
45989W        W14207   4.794  21.654   3.227
45990W        W14208  12.728  22.343   1.063
45991W        W14209  27.069   3.074   3.965
45992W        W14210  22.830   2.002   3.283
45993W        W14211  33.718  26.266   3.109
45994W        W14212  17.498  31.031  11.007
45995W        W14213  16.273  29.674   0.713
45996W        W14214  11.489   9.626   4.021
45997W        W14215   6.427  38.370  12.439
45998W        W14216  44.515  18.729  11.659
45999W        W14217  20.164  21.202   3.252
46000W        W14218  10.754  33.305   4.212
46001W        W14219  35.182  42.018   3.182
46002W        W14220  32.950  40.376   3.394
46003W        W14221   1.345  43.884   1.331
46004W        W14222  33.162  43.031  12.946
46005W        W14223  12.231  28.474   4.164
46006W        W14224  43.836   7.435   3.433
46007W        W14225  36.939   7.675  14.103
46008W        W14226  33.424  26.945   3.574
46009W        W14227   8.512   5.583  13.110
46010W        W14228   9.307  24.573  12.522
46011W        W14229   0.909  32.370  13.584
46012W        W14230  10.805  23.495  12.421
46013W        W14231  27.039  40.795  12.074
46014W        W14232   7.457   6.850   3.801
46015W        W14233  42.936  39.339  11.094
46016W        W14234  16.544   4.281  10.709
46017W        W14235   5.676  12.221   1.770
46018W        W14236  12.019  33.010  12.513
46019W        W14237   0.596   8.728   2.514
46020W        W14238  16.708  36.972  14.692
46021W        W14239  13.751   6.328  11.095
46022W        W14240  25.224   1.057   1.471
46023W        W14241  31.158  41.245  11.568
46024W        W14242  15.803  20.671  12.158
46025W        W14243   8.896   0.800  12.280
46026W        W14244  35.203   2.364   3.069
46027W        W14245  20.836  21.279  12.317
46028W        W14246  12.622  29.199  11.088
46029W        W14247  40.510  31.090  10.661
46030W        W14248  18.255  18.413  11.535
46031W        W14249  16.853  18.445  12.994
46032W        W14250  40.791  44.399  10.291
46033W        W14251  26.452  19.578  13.964
46034W        W14252  10.265   7.726   4.099
46035W        W14253  44.384  25.451  11.615
46036W        W14254  21.194  27.582   0.219
46037W        W14255   6.748  21.226   1.726
46038W        W14256   1.941  20.700   0.940
46039W        W14257   3.062  22.458  14.831
46040W        W14258   8.001  17.282   0.688
46041W        W14259  31.633  13.440   2.404
46042W        W14260  26.669   3.407  12.070
46043W        W14261   6.360  17.291  10.273
46044W        W14262  19.596   2.866   4.172
46045W        W14263  32.899  31.395  11.746
46046W        W14264  42.205  28.139  13.963
46047W        W14265   9.355  18.943   1.954
46048W        W14266  18.264  42.587   4.806
46049W        W14267  33.108   1.340   0.929
46050W        W14268   9.825  23.891  11.621
46051W        W14269   2.206  26.375  11.076
46052W        W14270  42.211   9.279   0.893
46053W        W14271  31.102  23.515  13.093
46054W        W14272  37.840  13.137  11.962
46055W        W14273  13.661  23.127   0.801
46056W        W14274  25.983  11.561   1.845
46057W        W14275   3.274   5.667   3.131
46058W        W14276  30.443  18.597  10.693
46059W        W14277   0.997  44.381  12.711
46060W        W14278  43.952  15.834  11.564
46061W        W14279  44.779  13.059   0.754
46062W        W14280  25.495  33.592  12.046
46063W        W14281   2.869  30.094   1.980
46064W        W14282  20.212  44.362  11.028
46065W        W14283  32.797   1.411   3.649
46066W        W14284  15.545   3.011  10.779
46067W        W14285  35.912   2.167  10.234
46068W        W14286  12.226   5.119  12.875
46069W        W14287  34.098  28.167   3.224
46070W        W14288  43.877  20.568  14.896
46071W        W14289  32.490  11.842   0.367
46072W        W14290  33.805  30.085   0.653
46073W        W14291   0.482   8.620  13.028
46074W        W14292  31.650  18.376   0.804
46075W        W14293  42.746  36.536   0.796
46076W        W14294   9.717  23.562  10.490
46077W        W14295  28.823  11.380  13.271
46078W        W14296   2.647  18.320  11.966
46079W        W14297  17.865   8.737  12.553
46080W        W14298  29.443  33.379   2.338
46081W        W14299  25.196  37.445   4.116
46082W        W14300   3.342  21.793   4.218
46083W        W14301  25.446  24.663   2.397
46084W        W14302  13.240   3.291  14.257
46085W        W14303  26.250  11.773   3.226
46086W        W14304  14.655   5.750   2.385
46087W        W14305  36.527  41.403  14.974
46088W        W14306   1.357   9.903  12.208
46089W        W14307   2.523  14.583   4.549
46090W        W14308  10.771  34.151  12.444
46091W        W14309   1.413  16.091   0.705
46092W        W14310  38.494   3.511  11.186
46093W        W14311  12.152  35.863   2.695
46094W        W14312  36.001   4.477   1.396
46095W        W14313  38.380   6.700   1.476
46096W        W14314  40.332   6.850  11.227
46097W        W14315  12.223   2.741   3.250
46098W        W14316  20.217  42.739   4.472
46099W        W14317  23.070  20.487  13.121
46100W        W14318  12.341  38.856   4.619
46101W        W14319  32.932  15.670  14.319
46102W        W14320  44.780  34.954  13.455
46103W        W14321  32.578  16.794  13.391
46104W        W14322  35.890  31.367   2.721
46105W        W14323  35.509   7.776   0.979
46106W        W14324  37.586  38.112  14.033
46107W        W14325  43.084   1.974  13.486
46108W        W14326  18.947  25.506   4.728
46109W        W14327   2.359  33.220  14.518
46110W        W14328  33.082   5.427   1.708
46111W        W14329  28.764   0.593   1.307
46112W        W14330   6.855  16.854   3.251
46113W        W14331  20.898  35.376   4.572
46114W        W14332  41.037  23.516   4.600
46115W        W14333   9.303  33.931  12.155
46116W        W14334  42.731  18.634  14.979
46117W        W14335  15.251  44.927  13.901
46118W        W14336   0.306  43.406   2.380
46119W        W14337   5.195  34.981  10.491
46120W        W14338  15.871  15.586   0.470
46121W        W14339  21.122  26.359   0.903
46122W        W14340  29.180  28.112   3.585
46123W        W14341  43.818  22.547   1.795
46124W        W14342  21.059  36.145  13.467
46125W        W14343  30.465  12.270   4.051
46126W        W14344  23.282   1.970  11.935
46127W        W14345  15.825  28.129  11.969
46128W        W14346  43.942  31.424  13.543
46129W        W14347  36.465  41.646   4.884
46130W        W14348  10.089  32.710  11.987
46131W        W14349  38.920   6.197   4.992
46132W        W14350  25.534  18.799  13.294
46133W        W14351  28.247  35.040  13.810
46134W        W14352   8.329  10.366  10.722
46135W        W14353  11.649  33.478  13.024
46136W        W14354  38.141  13.289   0.383
46137W        W14355  31.025   9.449  12.779
46138W        W14356   1.786  22.328   0.797
46139W        W14357  27.059   5.276  12.392
46140W        W14358  28.184  15.566   4.067
46141W        W14359   8.950   1.973   4.015
46142W        W14360   0.691  19.510  11.259
46143W        W14361  42.843  42.933  13.337
46144W        W14362   8.337  14.514   1.008
46145W        W14363  43.158  25.092   5.009
46146W        W14364   5.899  19.562  12.080
46147W        W14365  40.516  15.195  10.081
46148W        W14366  23.023  39.418  11.953
46149W        W14367  14.349  19.098   0.002
46150W        W14368   0.421  20.568   2.406
46151W        W14369   5.165  38.390   3.340
46152W        W14370  13.382   5.185  14.702
46153W        W14371  40.086  13.837   0.931
46154W        W14372  31.642  13.358   3.737
46155W        W14373  24.769  34.990   2.600
46156W        W14374  34.561  26.295   2.799
46157W        W14375  31.642  21.061  11.964
46158W        W14376  32.415  37.779   2.245
46159W        W14377  39.905  38.994  10.528
46160W        W14378  31.158  13.007  12.423
46161W        W14379  26.536   7.830   3.117
46162W        W14380  30.168  22.206  14.928
46163W        W14381   0.837  38.411   2.116
46164W        W14382  15.189  34.447   0.263
46165W        W14383  29.672  42.082   1.789
46166W        W14384  23.193  36.358  12.800
46167W        W14385  43.342  36.938  11.123
46168W        W14386  27.402   8.662  11.705
46169W        W14387  16.207   2.986  14.768
46170W        W14388  43.600  14.098   1.614
46171W        W14389  41.655  28.198   1.398
46172W        W14390  32.957  44.109   1.071
46173W        W14391  28.656  14.899   2.951
46174W        W14392  35.584  32.936   4.575
46175W        W14393   6.926  26.731  13.744
46176W        W14394  39.344  12.360  12.419
46177W        W14395  13.054   9.364  12.226
46178W        W14396  11.388  24.207   3.204
46179W        W14397   5.517  21.657   4.113
46180W        W14398  23.465  16.682   4.682
46181W        W14399  38.120  37.247   2.793
46182W        W14400  18.249  34.941   3.315
46183W        W14401  42.866  35.906   2.744
46184W        W14402  33.309  21.927  14.769
46185W        W14403  35.990  22.624   1.144
46186W        W14404   1.175  25.147  13.424
46187W        W14405  29.883  24.039   1.452
46188W        W14406  16.553  14.579   3.853
46189W        W14407  18.821  33.164  14.832
46190W        W14408   6.951   9.851   2.869
46191W        W14409  24.174  34.138  11.457
46192W        W14410  29.437   6.764   4.640
46193W        W14411  41.930  24.614  13.725
46194W        W14412  27.261  13.695  11.999
46195W        W14413  41.462  39.271  13.280
46196W        W14414   1.754  34.732   3.231
46197W        W14415  12.675  33.713   0.086
46198W        W14416  14.148   8.311  14.901
46199W        W14417   2.235  25.892   4.666
46200W        W14418  18.708  17.077  10.801
46201W        W14419   2.787  43.248  11.867
46202W        W14420   8.316   5.336   2.579
46203W        W14421  30.419  39.320   4.596
46204W        W14422  12.785  12.420  14.378
46205W        W14423  32.102  23.206  14.354
46206W        W14424  39.496  36.394  12.817
46207W        W14425  38.362  14.040   4.512
46208W        W14426  43.431   1.731   1.799
46209W        W14427   7.563  19.029   4.075
46210W        W14428  24.995   0.517   2.737
46211W        W14429  32.688  38.558   2.042
46212W        W14430  18.810  28.161  12.453
46213W        W14431  15.581  40.581  12.352
46214W        W14432  41.296  23.543   3.737
46215W        W14433  23.318   3.181   0.876
46216W        W14434  41.407  38.045   2.203
46217W        W14435  33.090  40.105  10.944
46218W        W14436  25.507  11.311  14.315
46219W        W14437  12.346  33.444  11.868
46220W        W14438   5.221  25.081   3.166
46221W        W14439   4.205  37.529  11.469
46222W        W14440  42.018   6.380  10.498
46223W        W14441  44.966  30.579   0.368
46224W        W14442  10.185   2.011   3.606
46225W        W14443   8.806  19.736   1.889
46226W        W14444  33.629   8.073  13.338
46227W        W14445  28.506  24.200  14.674
46228W        W14446  31.941   0.558   1.270
46229W        W14447  38.374  35.460   3.711
46230W        W14448  32.370  20.617   0.176
46231W        W14449  42.983  37.449  11.687
46232W        W14450  35.678  22.968  11.147
46233W        W14451  27.874  41.858   4.413
46234W        W14452  13.810  42.342   1.741
46235W        W14453  34.901  27.034   3.277
46236W        W14454  38.299  25.024  14.869
46237W        W14455  40.555  10.019  10.989
46238W        W14456  43.984  15.274  10.742
46239W        W14457  24.336   3.408   4.516
46240W        W14458   4.815  32.605  11.031
46241W        W14459  20.818  13.173  10.718
46242W        W14460  28.102  32.097   4.034
46243W        W14461  42.574  15.852  10.644
46244W        W14462  26.729   8.694   0.503
46245W        W14463   9.660  24.578   2.452
46246W        W14464   0.186  28.684   2.279
46247W        W14465  36.116   5.638  12.997
46248W        W14466   2.647   8.055  13.967
46249W        W14467  11.255   1.215  11.164
46250W        W14468  13.782  15.324   2.689
46251W        W14469  19.825  11.190  12.163
46252W        W14470   6.331  34.645  12.522
46253W        W14471  13.731  34.413   1.860
46254W        W14472   3.038  35.231   5.145
46255W        W14473   1.487   8.808   3.099
46256W        W14474  34.997  33.462  14.083
46257W        W14475  29.538  28.729   1.916
46258W        W14476  44.270  41.882   1.107
46259W        W14477  40.662  35.037   0.508
46260W        W14478  34.088  38.754  12.561
46261W        W14479   2.896   3.457   2.178
46262W        W14480  21.023   9.107   4.544
46263W        W14481   7.691  16.063  13.477
46264W        W14482  39.026   6.209   1.590
46265W        W14483  13.134  27.851  14.418
46266W        W14484  28.045   5.412   0.078
46267W        W14485   1.469  14.605  14.873
46268W        W14486  11.675  36.046   2.832
46269W        W14487   9.725   2.711   1.555
46270W        W14488  24.070   3.788   4.269
46271W        W14489  42.790  28.578  14.471
46272W        W14490  16.984  31.076  11.101
46273W        W14491  40.489   6.411   4.689
46274W        W14492  41.448  19.659  10.599
46275W        W14493  12.354  19.623  11.475
46276W        W14494   8.220  17.623   4.439
46277W        W14495  30.466   3.571  12.599
46278W        W14496  41.817  27.953   4.547
46279W        W14497  13.478   2.023   4.826
46280W        W14498  30.888  22.960  10.443
46281W        W14499  36.639   1.948  11.966
46282W        W14500  11.407  41.049  12.074
46283W        W14501  44.846  22.611   4.889
46284W        W14502   6.667   7.627   3.524
46285W        W14503   7.688  12.699  14.271
46286W        W14504  39.397  41.407  14.025
46287W        W14505   5.133  33.088  13.431
46288W        W14506   3.807  40.228   1.855
46289W        W14507  10.213  29.755  13.918
46290W        W14508   8.095  18.719   1.391
46291W        W14509  31.345   7.633  10.400
46292W        W14510  20.127  42.346  13.959
46293W        W14511  33.870  30.550  10.092
46294W        W14512  38.507  23.569   3.607
46295W        W14513  28.496  36.267   1.382
46296W        W14514  37.989  23.036   3.291
46297W        W14515  34.104  36.171   0.115
46298W        W14516  18.690  13.792   1.705
46299W        W14517  13.233  38.093   2.717
46300W        W14518  14.128  21.304   3.514
46301W        W14519   2.514  16.371  14.305
46302W        W14520  19.235  20.246   1.717
46303W        W14521  24.010  13.791  10.716
46304W        W14522  43.986   3.703   2.051
46305W        W14523  22.004  43.474  12.219
46306W        W14524   4.765  41.272  13.604
46307W        W14525   5.951   5.408  11.573
46308W        W14526  29.387  36.974   4.987
46309W        W14527   0.496   4.273  12.568
46310W        W14528  10.592   9.704   0.456
46311W        W14529  37.785  41.434   1.767
46312W        W14530  20.749  29.116   3.776
46313W        W14531  21.161  37.979   3.193
46314W        W14532  28.427  32.441  14.391
46315W        W14533   3.523  32.820  14.953
46316W        W14534  38.129   4.715   0.250
46317W        W14535  11.132  30.281   0.898
46318W        W14536  34.639  30.476   4.636
46319W        W14537  26.461  25.186   0.641
46320W        W14538  28.183  24.584  12.478
46321W        W14539   4.187   5.303   4.154
46322W        W14540  14.619  31.419  10.992
46323W        W14541  36.416  42.897  11.161
46324W        W14542   8.903   5.297  13.778
46325W        W14543  38.399   3.798   2.728
46326W        W14544  36.856  44.049   2.342
46327W        W14545  28.573   8.342   2.657
46328W        W14546  13.291   1.674  11.000
46329W        W14547  14.761  43.372   2.277
46330W        W14548   7.694  31.728   0.294
46331W        W14549  13.195  42.655   4.192
46332W        W14550  43.294  36.743   1.672
46333W        W14551  39.484   6.318   3.107
46334W        W14552  26.992  41.390   1.756
46335W        W14553  19.568  33.846   2.178
46336W        W14554  43.686  36.936  12.640
46337W        W14555  36.042  35.689  10.490
46338W        W14556  35.161  24.578  10.565
46339W        W14557  21.747  31.946   2.370
46340W        W14558  21.155  33.571  13.517
46341W        W14559   6.871  32.950   1.686
46342W        W14560   7.612   6.207   0.374
46343W        W14561  35.588  24.250   4.356
46344W        W14562   3.285  24.454  10.628
46345W        W14563  15.302  37.474  10.649
46346W        W14564  18.935  26.485  14.609
46347W        W14565  38.019  11.279   3.963
46348W        W14566  11.207  44.437  10.592
46349W        W14567  36.185  34.014  12.636
46350W        W14568  42.976  16.321  13.363
46351W        W14569  27.342  10.253   0.779
46352W        W14570   7.992  41.536   0.210
46353W        W14571  23.665  35.419  13.008
46354W        W14572   3.085  10.854  12.018
46355W        W14573   0.316  41.060   4.537
46356W        W14574  16.735  29.862  10.809
46357W        W14575  41.346  19.167  10.473
46358W        W14576  16.626  40.821   9.857
46359W        W14577   2.281  35.273   4.365
46360W        W14578  19.194   3.203  13.408
46361W        W14579   6.802  22.503   0.422
46362W        W14580  10.260  26.121  12.548
46363W        W14581  26.498  12.230   3.294
46364W        W14582  19.989  28.140   2.243
46365W        W14583  11.849  15.399  11.799
46366W        W14584  36.650  24.024  13.906
46367W        W14585  26.936  18.217   0.436
46368W        W14586  41.385  13.273   1.766
46369W        W14587   2.405   7.195  12.067
46370W        W14588  21.705  31.079   3.275
46371W        W14589   3.329  27.471  13.120
46372W        W14590  32.061  23.779  13.884
46373W        W14591  14.109  18.563  10.705
46374W        W14592  36.101  26.566  11.442
46375W        W14593  19.736  29.100  11.903
46376W        W14594  13.378   2.484   4.576
46377W        W14595  14.277  43.493  10.001
46378W        W14596  39.941  40.030  13.471
46379W        W14597  37.335   7.702  12.861
46380W        W14598  33.617  24.422   3.385
46381W        W14599   8.255  34.540   0.537
46382W        W14600  22.072   3.311  10.580
46383W        W14601   4.665  28.935  14.498
46384W        W14602  22.370  21.110   4.089
46385W        W14603  15.937  26.890   3.949
46386W        W14604   7.725   2.376  11.993
46387W        W14605  27.864  31.607  14.335
46388W        W14606  15.254  39.113   2.114
46389W        W14607  25.625  29.513  12.768
46390W        W14608  43.707  27.568  11.023
46391W        W14609  32.862  24.465  12.802
46392W        W14610  12.287  44.696  14.873
46393W        W14611  29.384  40.288  14.923
46394W        W14612  13.001  25.193   2.154
46395W        W14613  26.446  25.357  11.553
46396W        W14614  32.227   9.739   4.308
46397W        W14615  12.802  28.428  11.456
46398W        W14616  15.189  18.513   1.464
46399W        W14617   5.271  23.037  12.689
46400W        W14618   9.276  10.583  13.976
46401W        W14619  38.418  13.407   2.029
46402W        W14620  34.342  32.735   0.905
46403W        W14621  30.518  18.675   4.371
46404W        W14622  40.293  15.381  13.924
46405W        W14623  11.321   4.716   4.070
46406W        W14624  31.361  15.598  13.488
46407W        W14625  44.003  40.342   0.257
46408W        W14626   4.186   3.835  11.761
46409W        W14627   2.691  17.423   3.648
46410W        W14628  40.521  32.076  14.022
46411W        W14629  44.168  36.306  10.203
46412W        W14630  14.692  19.626   3.487
46413W        W14631  15.751  34.814  13.919
46414W        W14632  35.320  26.470  11.643
46415W        W14633   0.026  31.198   2.623
46416W        W14634  20.498  14.673  14.605
46417W        W14635   8.360  40.604   4.238
46418W        W14636  36.118  21.703   1.921
46419W        W14637  17.272  38.393   2.843
46420W        W14638  41.362   1.645   5.057
46421W        W14639  12.263  22.923  11.163
46422W        W14640   1.959  25.204   0.951
46423W        W14641  26.546  25.611  14.940
46424W        W14642  44.937   0.374  13.630
46425W        W14643  14.708  40.803  14.064
46426W        W14644  16.379  15.036   0.984
46427W        W14645  37.383  17.669  11.536
46428W        W14646  27.555  17.677  14.055
46429W        W14647   6.464  40.153   3.134
46430W        W14648  44.939  16.765   1.711
46431W        W14649   9.633  27.600   4.204
46432W        W14650   0.079  35.664  12.780
46433W        W14651  27.190  23.991   2.307
46434W        W14652  43.830  37.068   3.427
46435W        W14653  29.726  37.523   1.168
46436W        W14654   7.407  10.876  14.006
46437W        W14655  44.479  16.959   2.600
46438W        W14656  36.977  31.415   4.053
46439W        W14657   7.014  24.871  13.445
46440W        W14658  22.389   4.682  12.130
46441W        W14659  44.887  36.913   2.142
46442W        W14660   7.085   5.230   0.717
46443W        W14661  32.960  15.131   1.373
46444W        W14662  20.617  38.716  11.093
46445W        W14663  13.793   4.466  14.442
46446W        W14664   4.264  11.837  10.433
46447W        W14665  40.626  15.619  13.377
46448W        W14666  16.574   7.348   3.699
46449W        W14667   0.185   2.890   1.611
46450W        W14668  35.442  44.411  10.640
46451W        W14669  22.161  15.764   3.822
46452W        W14670  29.194  44.918  10.714
46453W        W14671  16.506   9.881   0.736
46454W        W14672  38.540  25.455  11.899
46455W        W14673  10.757  11.297   4.325
46456W        W14674  42.956   3.512  12.088
46457W        W14675  23.468  30.967  11.139
46458W        W14676  27.076   9.736   3.227
46459W        W14677  42.564  27.629   1.353
46460W        W14678   4.940  39.030  11.253
46461W        W14679  29.426  15.393  14.734
46462W        W14680  26.993  44.439  14.933
46463W        W14681  15.680  27.000   0.253
46464W        W14682  19.585   9.679  12.413
46465W        W14683  25.589   2.457   3.234
46466W        W14684  31.925  29.209   0.960
46467W        W14685  37.499  42.791  11.583
46468W        W14686  27.601  10.594  13.014
46469W        W14687   3.016  16.606  13.084
46470W        W14688   2.780  43.975  14.925
46471W        W14689  24.725  20.699   2.863
46472W        W14690  14.726  21.162  13.987
46473W        W14691  19.750  36.106   2.824
46474W        W14692  38.289  13.888   3.762
46475W        W14693  12.613  39.035   0.189
46476W        W14694  18.976  35.834   4.584
46477W        W14695  30.144  15.343  12.617
46478W        W14696  11.252  43.231  13.856
46479W        W14697   4.719  27.380   0.370
46480W        W14698  24.789  31.980   2.823
46481W        W14699   3.462   0.818   1.184
46482W        W14700  31.990  24.702   4.413
46483W        W14701  24.520  22.850  14.456
46484W        W14702  27.463   5.470   1.864
46485W        W14703  17.983  42.960   2.205
46486W        W14704  22.173  21.013   0.716
46487W        W14705  28.924  21.501   2.934
46488W        W14706  37.530  25.782   0.551
46489W        W14707  27.204   7.679  11.619
46490W        W14708   1.249   5.335  14.405
46491W        W14709   0.914  17.719  12.431
46492W        W14710  32.556  43.729  13.415
46493W        W14711  14.617   8.609  12.201
46494W        W14712   6.148  40.805  11.988
46495W        W14713  28.670  34.953   4.139
46496W        W14714   5.231  16.775  10.626
46497W        W14715  43.803   5.257  13.353
46498W        W14716   5.930  29.874  13.504
46499W        W14717  44.004  19.992  12.536
46500W        W14718  29.537   7.711  10.755
46501W        W14719  13.184  20.322  13.791
46502W        W14720  35.172  27.420  11.561
46503W        W14721  18.299  22.973   4.929
46504W        W14722  38.019  18.722   4.261
46505W        W14723  13.733  36.846   1.911
46506W        W14724  34.822  25.960  11.111
46507W        W14725  34.531  23.010  14.463
46508W        W14726  17.296   6.070  10.381
46509W        W14727  23.172  21.046   3.567
46510W        W14728   9.630  23.177   4.253
46511W        W14729  25.828   6.926   3.322
46512W        W14730  22.111  23.283   0.370
46513W        W14731   9.627  35.895  11.128
46514W        W14732  37.311  41.766  12.526
46515W        W14733   5.885  12.655  10.740
46516W        W14734  13.885  40.123  11.547
46517W        W14735  16.585   5.920   2.183
46518W        W14736   5.254  37.032  13.809
46519W        W14737  25.177  21.550  10.707
46520W        W14738  42.429  43.018   3.999
46521W        W14739  12.213  22.043   4.471
46522W        W14740  43.819  29.128   4.513
46523W        W14741  29.494  21.714  10.564
46524W        W14742  36.304  13.325   1.652
46525W        W14743  16.408  21.255  12.483
46526W        W14744  28.120  34.790   5.013
46527W        W14745  31.971  27.075  11.166
46528W        W14746  43.122  20.466   4.094
46529W        W14747  30.502  31.339  13.875
46530W        W14748   7.805  11.234  13.969
46531W        W14749   6.002  25.507   4.654
46532W        W14750  15.832  10.683  13.929
46533W        W14751  30.029   9.944  13.474
46534W        W14752  26.609  38.782   2.246
46535W        W14753  23.011  17.097  11.599
46536W        W14754  21.501  23.105   2.825
46537W        W14755  36.974   8.230  14.356
46538W        W14756  44.773  18.373  11.357
46539W        W14757  38.483   7.654  14.410
46540W        W14758  27.139  44.017   3.293
46541W        W14759   2.423  20.966   0.850
46542W        W14760  38.878  11.161   1.276
46543W        W14761   8.250  38.643  10.511
46544W        W14762  39.591  26.314  11.544
46545W        W14763  40.846  26.531   3.735
46546W        W14764  30.457  26.664   1.882
46547W        W14765  11.337  28.962  13.787
46548W        W14766   5.482  25.755   0.333
46549W        W14767  17.252  33.946  11.360
46550W        W14768  19.405   5.502   3.338
46551W        W14769  43.283  35.871  11.560
46552W        W14770  26.631  41.943   0.944
46553W        W14771  30.978  28.795   0.566
46554W        W14772  31.076  10.221   0.338
46555W        W14773  18.001  23.625   0.729
46556W        W14774   1.768  35.756  13.899
46557W        W14775  28.201  34.859  10.712
46558W        W14776   2.323  34.255  14.513
46559W        W14777  39.699  28.030   4.536
46560W        W14778  19.813  14.017  13.230
46561W        W14779  34.158  15.489  11.026
46562W        W14780   7.592   8.228  14.009
46563W        W14781  19.329   6.603  10.718
46564W        W14782  28.920  32.183   2.804
46565W        W14783  41.981  37.293  14.368
46566W        W14784  36.479  41.356  12.452
46567W        W14785  24.541  29.349   2.618
46568W        W14786   7.685  25.132  10.605
46569W        W14787   7.343  26.575  11.482
46570W        W14788   4.210  30.986   1.839
46571W        W14789   6.447  14.776   2.819
46572W        W14790  24.065  23.669   2.310
46573W        W14791  34.186  16.083  12.849
46574W        W14792   7.070  17.119   2.809
46575W        W14793  12.814  36.660  13.763
46576W        W14794   3.739  21.827  11.086
46577W        W14795  33.029  37.477   4.957
46578W        W14796  42.978  32.085   2.837
46579W        W14797  40.813  31.846  13.355
46580W        W14798  35.027  41.702  12.157
46581W        W14799  12.238  11.750  13.066
46582W        W14800  35.982  10.798   1.475
46583W        W14801  20.198   9.905  13.004
46584W        W14802  22.512   0.408   0.954
46585W        W14803   3.491  42.787  12.811
46586W        W14804  41.132  11.191  12.097
46587W        W14805  14.433  32.465  11.370
46588W        W14806   7.305  19.110  14.892
46589W        W14807  27.921  29.695   1.252
46590W        W14808  31.495  34.418   0.321
46591W        W14809  41.966   1.222   4.520
46592W        W14810  14.125  21.269  14.541
46593W        W14811  37.785   4.779   1.911
46594W        W14812  11.721  38.472   4.761
46595W        W14813  19.472   9.237   0.320
46596W        W14814  34.833  40.000  13.365
46597W        W14815  41.209  36.765   0.390
46598W        W14816  36.649  11.133  12.872
46599W        W14817  17.166  30.143   3.410
46600W        W14818   5.771  27.251   3.705
46601W        W14819  28.153  24.057  12.563
46602W        W14820  37.664  26.009   1.798
46603W        W14821  13.798   8.429  11.992
46604W        W14822  25.744  41.852   3.301
46605W        W14823  20.341  36.794  11.645
46606W        W14824  19.078  24.125  12.382
46607W        W14825  18.489   2.294   3.197
46608W        W14826   4.721  38.701   2.437
46609W        W14827   5.250   0.756   0.759
46610W        W14828  13.196  16.312   3.300
46611W        W14829   4.374  18.733  10.676
46612W        W14830  14.401   1.705   2.284
46613W        W14831  24.595  22.099  10.352
46614W        W14832  41.474  11.982   0.245
46615W        W14833   4.674  22.569  13.174
46616W        W14834  44.291  25.939   0.901
46617W        W14835   9.705  21.519  13.921
46618W        W14836  29.641  35.339  12.396
46619W        W14837   4.867   1.866   1.221
46620W        W14838  13.786  18.689   1.937
46621W        W14839  40.970   0.262  12.067
46622W        W14840  12.194  20.816  12.457
46623W        W14841  18.090  15.361  11.603
46624W        W14842   5.721  25.070   4.577
46625W        W14843  12.753  44.090  14.510
46626W        W14844   3.253   7.727   5.222
46627W        W14845  40.363  31.219   4.512
46628W        W14846  38.012   7.454  14.525
46629W        W14847  30.761  36.807  12.781
46630W        W14848  36.002   9.476  12.098
46631W        W14849  40.854  38.010  13.285
46632W        W14850  14.294  19.320  14.032
46633W        W14851  32.471  20.959  10.934
46634W        W14852   1.981  18.304   2.770
46635W        W14853  10.280   6.966   3.564
46636W        W14854  23.968  38.818  13.862
46637W        W14855   1.736  43.938   3.951
46638W        W14856  30.194  28.929   3.688
46639W        W14857  41.913  33.218   2.231
46640W        W14858  15.019  40.994  13.092
46641W        W14859   9.693  22.176   3.774
46642W        W14860   4.317  14.978  14.967
46643W        W14861   1.288  20.111   3.135
46644W        W14862  18.740   7.648   1.825
46645W        W14863  32.017  17.059   3.536
46646W        W14864  33.383  43.808   1.341
46647W        W14865  20.273  12.149  10.655
46648W        W14866   6.811   7.674  11.560
46649W        W14867  28.458  34.440   4.812
46650W        W14868   8.730  13.263  11.190
46651W        W14869   4.607  11.605  13.470
46652W        W14870  20.676   6.701   4.553
46653W        W14871   3.409  34.384   3.984
46654W        W14872   4.353  10.431   0.895
46655W        W14873   5.453  37.627  11.937
46656W        W14874  20.999  17.897   1.611
46657W        W14875  35.301  18.290   9.876
46658W        W14876   4.349  15.092   1.444
46659W        W14877  39.447  14.780   4.603
46660W        W14878  37.759  24.221   4.139
46661W        W14879  25.147   7.180  14.935
46662W        W14880  31.885  39.374   0.883
46663W        W14881  44.747   2.365   0.547
46664W        W14882  42.782  33.019   1.762
46665W        W14883  19.733  24.597   0.311
46666W        W14884  18.729  20.741  10.611
46667W        W14885  44.900  33.191   0.395
46668W        W14886  29.492   6.255   4.696
46669W        W14887   1.430  19.611  13.452
46670W        W14888  23.040  18.981   1.326
46671W        W14889  25.978   8.813   4.451
46672W        W14890   3.501  32.366   0.860
46673W        W14891  27.262  12.117  13.727
46674W        W14892   3.330  29.717  12.971
46675W        W14893  21.943  17.492  12.117
46676W        W14894  40.939  19.329  14.300
46677W        W14895  27.729  17.292  13.016
46678W        W14896  24.048  20.597   1.244
46679W        W14897  39.992  10.635  11.597
46680W        W14898  15.229   0.441   0.940
46681W        W14899   6.647  15.253   2.668
46682W        W14900  40.601  33.563   2.826
46683W        W14901  28.408  18.063   3.768
46684W        W14902  20.307  29.042  14.856
46685W        W14903   8.602  36.542   1.430
46686W        W14904  43.272  23.486  13.245
46687W        W14905   8.306  10.777  13.888
46688W        W14906  26.009  21.245   4.521
46689W        W14907  11.354   1.919  13.866
46690W        W14908  13.816  34.953   2.339
46691W        W14909  25.996   4.296   3.522
46692W        W14910  18.540  26.032  12.857
46693W        W14911  34.336   2.858  10.676
46694W        W14912  34.774  14.394  10.395
46695W        W14913  24.040  38.916   0.027
46696W        W14914  22.071  34.433   3.145
46697W        W14915  12.827  24.494   4.120
46698W        W14916   5.312  11.886  12.941
46699W        W14917  44.691  11.382  13.679
46700W        W14918  37.867  17.247  12.024
46701W        W14919  23.599   8.416  11.871
46702W        W14920   7.289  33.229  12.495
46703W        W14921  22.608  39.050  12.857
46704W        W14922  25.460  43.952   4.607
46705W        W14923  10.779  41.896  14.946
46706W        W14924  41.555   9.552  12.026
46707W        W14925   4.866  17.336  12.079
46708W        W14926  44.868  12.626   1.987
46709W        W14927  38.439  39.482   4.591
46710W        W14928  11.093   4.604  12.978
46711W        W14929  35.351   3.839   2.987
46712W        W14930  44.928   7.526  12.011
46713W        W14931   3.827  10.676   3.599
46714W        W14932  36.237  44.161  11.362
46715W        W14933  36.536   4.706  14.907
46716W        W14934  18.089  25.172   1.248
46717W        W14935  13.215  35.933  12.920
46718W        W14936  18.211  33.775  13.454
46719W        W14937  22.320  41.720   3.601
46720W        W14938  19.196  13.029  11.922
46721W        W14939  25.243  27.238  14.427
46722W        W14940  37.856   1.369  11.353
46723W        W14941  27.603   3.317   2.770
46724W        W14942  42.680  17.667   5.252
46725W        W14943  15.369  25.116   3.551
46726W        W14944  27.239  28.304   0.349
46727W        W14945  34.681  16.813   4.578
46728W        W14946  15.505  23.007  14.905
46729W        W14947  18.400   6.715   1.899
46730W        W14948  24.982   3.353   1.830
46731W        W14949  21.163  36.502   1.892
46732W        W14950  36.924  19.053  14.426
46733W        W14951  12.692  41.932  13.463
46734W        W14952  35.518  23.100   0.927
46735W        W14953   0.836  27.030  13.866
46736W        W14954  34.873  24.023  14.866
46737W        W14955  11.669  26.235  14.895
46738W        W14956  35.673  10.183  14.532
46739W        W14957  23.505   3.058   2.241
46740W        W14958   7.460  30.042  14.924
46741W        W14959  19.308  19.673   3.404
46742W        W14960  13.269  36.483   4.781
46743W        W14961  17.892  11.703   9.996
46744W        W14962  36.105  37.656   1.677
46745W        W14963   1.036   8.070   0.277
46746W        W14964   0.618  22.966  12.533
46747W        W14965  36.598  43.767  13.755
46748W        W14966  31.512  26.302  14.870
46749W        W14967  42.084  26.078  13.041
46750W        W14968   9.762   3.102   3.713
46751W        W14969   0.452  31.974   1.503
46752W        W14970  17.740  43.822   3.708
46753W        W14971  39.542  34.562  14.315
46754W        W14972  11.096  17.208   2.815
46755W        W14973  33.612  21.207  12.537
46756W        W14974  38.594  41.920  13.876
46757W        W14975   4.260  42.853   1.676
46758W        W14976   6.981   1.151  13.799
46759W        W14977  30.100  29.545   1.250
46760W        W14978  18.102  34.105   2.821
46761W        W14979   6.057  13.850   3.690
46762W        W14980  36.812  24.621   1.565
46763W        W14981  17.226  20.993   1.822
46764W        W14982  27.992  16.857   3.739
46765W        W14983  32.503  32.590   1.906
46766W        W14984  38.006  27.965  10.286
46767W        W14985  41.419   1.451   3.142
46768W        W14986  24.514  28.463   4.598
46769W        W14987  38.573  13.759   0.769
46770W        W14988  10.774  27.084  12.063
46771W        W14989  26.582  32.101  10.208
46772W        W14990  33.567   8.679  13.544
46773W        W14991  32.486  43.507  14.371
46774W        W14992  14.779  42.916   5.089
46775W        W14993  15.592   4.705   2.171
46776W        W14994  22.768  28.125  11.583
46777W        W14995  17.269   1.047  14.844
46778W        W14996  14.816   0.169   1.196
46779W        W14997   1.792   2.620   2.846
46780W        W14998  26.753  26.773   4.299
46781W        W14999  40.908  40.871   3.593
46782W        W15000  22.515  37.869   3.589
46783W        W15001  12.080  34.476   5.094
46784W        W15002   3.002  28.420  12.603
46785W        W15003  10.818  39.067   4.605
46786W        W15004  29.133  18.506   4.669
46787W        W15005  13.024  12.918   4.103
46788W        W15006  13.674  34.363   2.426
46789W        W15007  38.962  15.387  10.942
46790W        W15008  31.859  37.081   1.808
46791W        W15009  19.036  36.894   0.488
46792W        W15010  17.059  22.031   0.928
46793W        W15011   6.004   4.823  13.162
46794W        W15012   3.560  22.090   1.000
46795W        W15013  16.586  29.670  12.073
46796W        W15014  21.011  39.431  14.950
46797W        W15015  38.342   6.190  14.858
46798W        W15016  21.631  41.141   2.424
46799W        W15017  12.323  34.665  11.911
46800W        W15018  37.447  33.648   4.281
46801W        W15019   9.733   8.370   0.401
46802W        W15020  25.118  26.127  11.354
46803W        W15021  22.415   6.472  11.181
46804W        W15022  44.985  37.568   3.956
46805W        W15023  15.109   3.332   4.617
46806W        W15024   2.490  32.249   2.423
46807W        W15025  40.050  36.878  14.766
46808W        W15026  44.769  11.170  11.579
46809W        W15027   0.349  13.590  10.847
46810W        W15028  35.412  35.731   0.664
46811W        W15029   5.736   9.615  13.141
46812W        W15030  44.020  42.178   2.388
46813W        W15031   2.381  36.670   4.422
46814W        W15032   2.397  22.065  14.385
46815W        W15033  26.091  34.223   4.668
46816W        W15034  16.598  18.032  13.130
46817W        W15035  16.351  35.010  11.343
46818W        W15036  17.753  11.572   0.458
46819W        W15037  30.741   1.763   1.152
46820W        W15038  15.174   4.281  11.250
46821W        W15039  37.934   5.230  12.455
46822W        W15040  20.046  27.113   4.080
46823W        W15041  29.435  44.699   3.226
46824W        W15042  15.623  26.821   2.677
46825W        W15043   6.268  30.477   0.373
46826W        W15044  16.278  41.126   0.426
46827W        W15045  44.579  11.281  12.054
46828W        W15046  18.243  14.107  12.571
46829W        W15047  17.306   9.852   4.947
46830W        W15048   0.729  18.326  11.280
46831W        W15049   4.242  38.382   4.089
46832W        W15050  21.644  42.307   4.371
46833W        W15051  11.381  43.848   2.655
46834W        W15052   0.920  21.265   0.870
46835W        W15053   6.406  26.004   2.831
46836W        W15054  22.929  10.877  11.912
46837W        W15055   2.624  39.304  14.693
46838W        W15056  39.273  14.586  11.121
46839W        W15057  23.301  43.765  12.094
46840W        W15058   5.831  23.684  12.213
46841W        W15059  17.471  42.249   4.277
46842W        W15060  44.176  44.704   9.880
46843W        W15061  44.313   8.326  11.103
46844W        W15062  24.286  32.363  10.866
46845W        W15063  32.008  26.172  14.763
46846W        W15064  19.678   7.597  13.907
46847W        W15065   0.002  42.295   2.262
46848W        W15066  15.305  44.658  12.388
46849W        W15067  11.273  29.366   1.698
46850W        W15068  23.582  28.449  14.056
46851W        W15069  25.925  14.941   4.669
46852W        W15070  35.396  20.161   4.075
46853W        W15071  22.452   6.040   3.586
46854W        W15072  39.450   1.442   4.097
46855W        W15073  17.208   3.687  12.504
46856W        W15074  33.995  20.061   3.913
46857W        W15075   7.591   3.995  12.896
46858W        W15076  37.371  34.824  14.428
46859W        W15077   6.610  28.620  14.205
46860W        W15078  14.567  20.725   4.153
46861W        W15079  11.240  34.307   0.351
46862W        W15080  32.352  14.115   1.873
46863W        W15081  33.323  43.186   2.468
46864W        W15082  32.336  11.705   1.754
46865W        W15083   9.602   1.199  10.712
46866W        W15084   4.455  30.635   0.523
46867W        W15085  36.991  28.135   2.596
46868W        W15086  39.086  16.024  13.953
46869W        W15087  35.546   8.341  12.312
46870W        W15088   9.137  23.423   2.363
46871W        W15089  21.608  18.208   4.904
46872W        W15090  43.507  31.022   3.321
46873W        W15091  19.756   2.792  14.514
46874W        W15092  31.436  20.671   2.878
46875W        W15093  24.482  31.089   0.597
46876W        W15094  31.653  13.024  14.624
46877W        W15095  19.685  18.273  14.390
46878W        W15096   9.457  35.529  10.763
46879W        W15097  25.552  33.372   0.286
46880W        W15098  39.979  43.536  11.573
46881W        W15099   8.843   0.028   2.621
46882W        W15100  24.087  21.128   2.758
46883W        W15101  33.878  16.385   0.782
46884W        W15102  12.860  31.132   2.585
46885W        W15103  30.249  38.421  12.539
46886W        W15104  26.077  28.563   0.766
46887W        W15105  14.696  18.748   1.380
46888W        W15106  37.260  21.042   1.671
46889W        W15107   9.058  12.288   1.840
46890W        W15108  39.925  38.322   0.754
46891W        W15109  32.989   9.552  13.529
46892W        W15110  30.425   4.944  11.077
46893W        W15111  34.743   9.420  10.996
46894W        W15112  43.713  11.165  11.669
46895W        W15113  18.203   7.508  11.998
46896W        W15114  39.962   2.335  11.629
46897W        W15115   8.395  19.230  12.540
46898W        W15116  38.437  24.682   3.751
46899W        W15117   0.715  42.010  11.814
46900W        W15118  25.661  39.058   4.775
46901W        W15119  43.353  30.157  14.895
46902W        W15120  37.016  22.665  12.023
46903W        W15121   5.235   7.384  11.575
46904W        W15122  29.979   2.038  12.540
46905W        W15123  31.090  14.341  11.685
46906W        W15124  24.055   0.335   2.598
46907W        W15125  23.190   6.898  14.477
46908W        W15126  24.872  37.874   4.117
46909W        W15127  14.399  43.364  14.521
46910W        W15128  33.593  26.732   0.262
46911W        W15129   4.801  32.499  12.426
46912W        W15130   2.847  27.867  10.878
46913W        W15131  35.353  41.807  14.603
46914W        W15132  16.261  27.004  12.660
46915W        W15133  41.891  26.080  12.192
46916W        W15134   2.872  21.698   1.299
46917W        W15135  32.155  22.539   4.279
46918W        W15136   3.471  25.452  14.895
46919W        W15137  11.089  28.030  13.510
46920W        W15138  12.651  12.272  12.320
46921W        W15139  41.415  20.215  12.144
46922W        W15140  40.627   4.739   2.371
46923W        W15141  24.751  33.107   1.835
46924W        W15142  25.671  44.093  10.571
46925W        W15143  17.946  37.132   2.462
46926W        W15144  34.034  13.053  13.040
46927W        W15145  38.736  32.350   0.730
46928W        W15146   8.827  22.775  10.648
46929W        W15147  35.464  14.954  14.300
46930W        W15148  13.589  17.156   3.285
46931W        W15149   2.534  37.472   3.277
46932W        W15150  26.360  14.277  13.904
46933W        W15151  34.008  25.887  10.799
46934W        W15152   5.894  42.320   1.303
46935W        W15153  25.970  28.805  10.758
46936W        W15154  38.487  44.566   4.243
46937W        W15155  12.233  32.320  11.451
46938W        W15156  29.115  26.395   0.340
46939W        W15157  35.943  13.276  13.106
46940W        W15158  17.521  24.147   1.450
46941W        W15159  40.799  15.554   2.789
46942W        W15160  12.761  24.151  13.949
46943W        W15161  35.089  43.020   1.286
46944W        W15162   5.367  43.330  12.032
46945W        W15163  19.287  40.744  11.532
46946W        W15164  14.616  18.772  13.409
46947W        W15165  30.217  43.973  10.614
46948W        W15166  21.009   0.711  14.239
46949W        W15167  14.441  10.683   1.441
46950W        W15168  36.327  32.166  12.120
46951W        W15169  20.335  32.117   2.393
46952W        W15170  17.897  26.000   2.335
46953W        W15171  16.674  41.347   3.309
46954W        W15172  32.974  41.491  14.708
46955W        W15173  34.844  37.965   1.915
46956W        W15174  14.537  38.310   0.526
46957W        W15175  22.698  10.663   1.296
46958W        W15176  31.099  25.384  10.743
46959W        W15177  14.384  43.908  11.947
46960W        W15178   7.644   9.652   1.654
46961W        W15179  34.386   6.258  11.720
46962W        W15180  41.261  43.362   1.765
46963W        W15181  21.299  36.837  11.732
46964W        W15182   2.123   6.614  14.334
46965W        W15183  11.729  40.782  12.501
46966W        W15184  31.912  15.593  11.978
46967W        W15185   0.599   3.923   4.758
46968W        W15186  35.299  11.032   0.256
46969W        W15187   4.953  21.291   0.751
46970W        W15188  23.698  44.766   0.396
46971W        W15189  10.575  23.837  14.261
46972W        W15190  15.253  24.727   2.173
46973W        W15191  42.174  10.425   3.640
46974W        W15192  35.954   8.956  13.392
46975W        W15193  37.667  39.804   0.911
46976W        W15194  40.261   7.287   0.934
46977W        W15195  17.563   7.431   2.373
46978W        W15196   4.277  22.882  14.268
46979W        W15197   5.416   1.111  14.806
46980W        W15198  41.604  38.843  11.220
46981W        W15199  40.285  44.848   2.273
46982W        W15200  25.336  13.294  11.942
46983W        W15201   7.886   3.329   1.287
46984W        W15202  24.165  25.097   2.366
46985W        W15203  38.366  34.508  12.584
46986W        W15204  15.241   9.051  11.150
46987W        W15205  43.764  10.912   0.360
46988W        W15206  38.326  36.423   4.639
46989W        W15207  44.905  17.571  11.117
46990W        W15208  24.174  42.292   3.841
46991W        W15209  18.115  35.929   1.905
46992W        W15210  15.567   6.343   0.345
46993W        W15211  21.177  40.063   1.618
46994W        W15212  17.292  15.121   3.372
46995W        W15213  25.422   3.954   3.455
46996W        W15214  44.011  28.495  14.246
46997W        W15215  41.097  37.002   3.355
46998W        W15216  18.964  19.127   0.851
46999W        W15217   8.283  41.374  12.436
47000W        W15218   6.825  44.408  13.321
47001W        W15219  10.611  31.585   3.072
47002W        W15220  14.190  34.621  11.066
47003W        W15221  13.158  22.807   2.225
47004W        W15222   5.264  38.423   4.244
47005W        W15223   7.367  36.325  14.101
47006W        W15224   8.752   0.884  14.078
47007W        W15225  27.680  31.037   2.378
47008W        W15226  39.763  21.714   1.753
47009W        W15227  23.039  35.511   0.198
47010W        W15228   3.414  16.127  14.382
47011W        W15229  11.284  39.786  14.973
47012W        W15230  33.677   9.650  12.037
47013W        W15231  12.718  43.760  10.762
47014W        W15232  36.107  22.595  12.055
47015W        W15233  10.447  39.880   2.253
47016W        W15234   8.773  39.477  12.340
47017W        W15235  11.175   8.634   3.271
47018W        W15236  21.042  41.051  11.198
47019W        W15237  21.163  34.426   3.150
47020W        W15238  14.739   8.313  13.880
47021W        W15239  40.080  32.346  11.723
47022W        W15240  19.840  18.778  13.451
47023W        W15241   2.075   2.895   2.282
47024W        W15242  23.692  26.973   0.473
47025W        W15243  36.731  20.140  11.143
47026W        W15244   7.977   6.832   3.747
47027W        W15245  23.308  13.173  11.987
47028W        W15246  32.135  18.595  13.523
47029W        W15247  32.553   7.476  12.116
47030W        W15248  26.706  25.534  11.142
47031W        W15249  31.142   2.966  11.155
47032W        W15250  25.986  37.344  12.086
47033W        W15251  10.160   7.635  12.463
47034W        W15252   7.356  23.260  12.396
47035W        W15253   5.147   5.839  11.641
47036W        W15254  17.631  36.935  14.100
47037W        W15255  21.484  12.229  14.008
47038W        W15256  21.027  13.126   0.853
47039W        W15257  42.126  43.823  12.026
47040W        W15258  29.625   5.462   2.676
47041W        W15259  32.977  28.460  11.229
47042W        W15260  14.616  37.277  12.161
47043W        W15261  27.841   5.183   0.924
47044W        W15262  21.052  34.078  13.441
47045W        W15263  14.746  13.454   1.067
47046W        W15264  27.935  19.808  10.761
47047W        W15265  28.911  26.261  14.857
47048W        W15266  25.015  29.399   0.906
47049W        W15267  35.858  16.059   1.268
47050W        W15268  42.153  42.687   1.843
47051W        W15269  10.355  44.393  11.554
47052W        W15270  28.926   9.762   1.306
47053W        W15271  33.154   7.156  10.814
47054W        W15272   5.656  24.796  14.550
47055W        W15273   2.448   2.936  12.461
47056W        W15274  34.053   5.032  12.292
47057W        W15275  11.124   5.641   4.093
47058W        W15276  42.343  25.715  10.706
47059W        W15277   2.871  32.154  14.887
47060W        W15278  40.387   4.480   0.281
47061W        W15279  44.396  37.388   5.006
47062W        W15280  26.191  26.692   2.868
47063W        W15281  26.852  37.996  13.691
47064W        W15282  36.025  33.104  13.386
47065W        W15283  36.616  28.002  10.619
47066W        W15284  31.440  24.241  14.999
47067W        W15285  34.252  11.988  13.327
47068W        W15286  34.982   1.307   2.402
47069W        W15287  11.347  22.646  11.513
47070W        W15288  17.321   9.293   3.673
47071W        W15289  11.335  39.806   2.208
47072W        W15290  15.169  37.351  13.588
47073W        W15291   4.780   5.289  14.334
47074W        W15292  22.915  34.110  11.215
47075W        W15293   5.706  15.844  11.129
47076W        W15294  17.538  31.675  11.673
47077W        W15295  32.636  12.554   3.686
47078W        W15296  29.151  44.866   1.841
47079W        W15297  31.207  17.349   3.356
47080W        W15298  10.292  17.018   3.181
47081W        W15299  43.638  18.634  14.038
47082W        W15300  12.266  34.699  13.166
47083W        W15301  32.410  19.979  10.383
47084W        W15302  20.081  33.901  11.511
47085W        W15303  16.535   6.709  14.441
47086W        W15304  10.179  34.930  11.629
47087W        W15305  32.066  42.245  11.994
47088W        W15306  36.345  13.022  13.895
47089W        W15307  28.015  29.108   2.725
47090W        W15308  27.669  11.890   2.840
47091W        W15309  36.286  43.673  11.513
47092W        W15310  26.223  10.833   0.395
47093W        W15311  19.785  26.985  10.549
47094W        W15312  30.937  24.149  13.843
47095W        W15313  40.901  29.682  10.363
47096W        W15314  13.446  41.840   2.596
47097W        W15315  42.459   7.624  12.476
47098W        W15316  26.279  11.830   0.442
47099W        W15317  42.068  12.627  14.748
47100W        W15318  19.099  35.840  14.283
47101W        W15319  37.642  11.747  14.854
47102W        W15320   7.797  22.268   3.224
47103W        W15321  12.073  35.402   0.374
47104W        W15322   1.951  43.050  10.923
47105W        W15323  36.871  36.552  14.093
47106W        W15324  27.119  30.707  11.203
47107W        W15325  13.280  11.416  12.559
47108W        W15326  37.917  20.160  11.514
47109W        W15327  36.482   8.162   2.312
47110W        W15328  32.843  18.793   2.852
47111W        W15329   1.923  31.370  11.963
47112W        W15330  22.444  12.126  11.634
47113W        W15331  19.751  38.570  14.889
47114W        W15332  29.576  13.968  13.302
47115W        W15333  34.170  34.455  12.077
47116W        W15334   6.359  30.244  10.927
47117W        W15335  15.927  29.488   4.070
47118W        W15336  34.786   7.640   2.731
47119W        W15337  40.074  42.252  11.222
47120W        W15338  37.025  34.853   2.562
47121W        W15339  20.628   8.325  11.174
47122W        W15340  39.002  42.402   3.059
47123W        W15341  35.595  32.039  11.476
47124W        W15342  14.116   3.019  14.537
47125W        W15343  34.144  16.186  11.952
47126W        W15344   1.796  43.873  11.518
47127W        W15345  43.276  31.809   5.019
47128W        W15346  26.441  14.916  13.331
47129W        W15347  15.869  41.243   1.644
47130W        W15348   8.660  39.838  10.641
47131W        W15349  19.054  11.382   3.097
47132W        W15350  44.513   8.134  10.665
47133W        W15351  42.638   5.165   0.489
47134W        W15352  32.634  39.216   4.276
47135W        W15353  16.764  11.114   4.555
47136W        W15354  10.353  21.342  11.850
47137W        W15355   9.889  14.237  14.353
47138W        W15356   4.982  13.458   1.674
47139W        W15357  27.127  20.622  10.202
47140W        W15358  40.381  18.188  13.614
47141W        W15359  30.970  33.582   4.679
47142W        W15360  16.705   7.145   4.579
47143W        W15361  30.393  27.604   2.807
47144W        W15362  24.624   2.699   4.288
47145W        W15363   0.125  39.853  12.415
47146W        W15364  28.051  39.043   0.486
47147W        W15365  40.494  41.523  14.980
47148W        W15366  40.551   2.377  11.950
47149W        W15367  12.363  12.311  14.966
47150W        W15368  29.573   2.675   1.679
47151W        W15369  30.249  18.689  13.750
47152W        W15370  37.101   9.184   1.625
47153W        W15371   0.895  38.933   1.916
47154W        W15372   2.306   5.547   4.466
47155W        W15373  19.885  30.955  13.520
47156W        W15374  20.509  22.713   1.893
47157W        W15375  18.154   2.891   1.384
47158W        W15376  11.418  15.650  13.445
47159W        W15377  19.788  19.341   0.439
47160W        W15378  36.518  11.286  10.697
47161W        W15379  16.091   5.910  13.358
47162W        W15380  34.402  27.041  11.448
47163W        W15381   3.267  12.752   4.251
47164W        W15382  23.317   2.045   1.399
47165W        W15383  17.178  18.914   5.036
47166W        W15384  36.094  44.242   2.341
47167W        W15385   6.216  18.301   4.925
47168W        W15386  26.964  13.271  14.802
47169W        W15387  27.962  14.602  14.330
47170W        W15388  14.153  11.872  14.779
47171W        W15389   6.818  37.088  10.961
47172W        W15390  38.898  16.517   2.415
47173W        W15391   5.336  34.512   4.956
47174W        W15392  10.462  13.197  12.086
47175W        W15393  42.850  10.409  11.581
47176W        W15394  20.571  18.771   1.477
47177W        W15395  42.451  18.034   2.912
47178W        W15396  14.054  38.494   4.111
47179W        W15397   4.376  44.496   3.681
47180W        W15398  28.265  25.954   2.819
47181W        W15399  24.651  33.102   3.768
47182W        W15400  13.161  28.924   0.024
47183W        W15401  25.601   2.680   3.713
47184W        W15402  25.115   1.190  12.115
47185W        W15403  21.254   6.310   0.732
47186W        W15404   7.959  42.490   2.249
47187W        W15405  36.043  21.674   4.717
47188W        W15406  36.887  37.842   2.124
47189W        W15407   3.723  11.721  14.876
47190W        W15408  16.183  24.250   2.959
47191W        W15409  19.639  22.717  11.946
47192W        W15410  25.364  22.208   1.797
47193W        W15411  18.276  24.230  13.466
47194W        W15412   0.305   4.765  13.748
47195W        W15413  34.216  12.000   0.932
47196W        W15414  22.633  10.065  14.486
47197W        W15415  14.523  28.842   1.230
47198W        W15416  15.287  31.657   4.529
47199W        W15417  39.402  20.807  11.417
47200W        W15418  13.695  14.373  10.764
47201W        W15419   6.504  42.480   2.941
47202W        W15420  36.243  37.439   3.868
47203W        W15421  30.075   8.459   0.486
47204W        W15422  32.614  35.897   0.924
47205W        W15423  29.427  39.243   1.505
47206W        W15424  32.507  19.953  13.789
47207W        W15425  30.006  24.171   4.215
47208W        W15426  44.321  10.139  14.276
47209W        W15427   0.759  40.799   0.476
47210W        W15428  15.828  29.172  12.553
47211W        W15429  23.267  34.178   5.040
47212W        W15430  43.833  39.930  14.982
47213W        W15431  40.889   0.245   2.878
47214W        W15432  37.107  33.456   0.277
47215W        W15433  31.407  22.776  14.961
47216W        W15434  33.154  25.153  12.481
47217W        W15435  34.477  14.129  10.740
47218W        W15436  17.275  15.728   0.269
47219W        W15437  20.150  28.730  12.064
47220W        W15438  34.146  22.092   4.587
47221W        W15439  12.171   1.696  11.255
47222W        W15440   2.138   8.673   1.323
47223W        W15441   6.408  37.994   4.165
47224W        W15442  44.899  40.595  11.931
47225W        W15443  20.702  31.363   2.075
47226W        W15444   3.252   8.873   1.857
47227W        W15445   8.344  39.668   5.471
47228W        W15446  32.436   2.828  12.147
47229W        W15447  32.648  32.476   0.849
47230W        W15448  11.814  12.916  13.561
47231W        W15449  22.459   6.776  10.755
47232W        W15450  43.687  18.735  10.232
47233W        W15451  39.226  41.869  14.805
47234W        W15452  27.410  43.989  12.061
47235W        W15453   6.453  33.056  13.523
47236W        W15454  16.816  36.502   1.763
47237W        W15455   0.668  38.574   3.311
47238W        W15456  36.934  19.665  10.895
47239W        W15457  38.978  42.606  14.664
47240W        W15458   0.428  25.566  10.766
47241W        W15459  15.176  26.710  13.905
47242W        W15460  41.294   8.841  14.812
47243W        W15461  21.723  39.039   0.976
47244W        W15462  31.158  13.651  13.404
47245W        W15463  29.923  17.836  10.001
47246W        W15464  38.447  39.307   1.857
47247W        W15465  16.562  41.513   1.329
47248W        W15466   0.372  17.080  14.423
47249W        W15467  24.738  12.577  10.614
47250W        W15468  23.829  40.408   2.213
47251W        W15469  14.209  25.926   2.653
47252W        W15470  20.639   6.138   1.897
47253W        W15471  15.397  42.826  10.021
47254W        W15472  21.111  33.145   0.870
47255W        W15473   9.085  44.700  12.576
47256W        W15474  22.703  42.850  13.256
47257W        W15475  18.470  27.381   0.825
47258W        W15476  11.083  26.707  11.869
47259W        W15477  33.404  28.024   4.462
47260W        W15478  41.040   6.779   0.281
47261W        W15479  12.583   0.892   1.772
47262W        W15480  37.311  19.185   3.255
47263W        W15481  24.714  13.583   3.182
47264W        W15482   3.228   1.212   4.071
47265W        W15483  43.872  30.575  11.912
47266W        W15484  22.136  31.664  13.469
47267W        W15485  28.772  35.590  14.429
47268W        W15486  26.181  36.032  12.850
47269W        W15487  38.254  10.573   0.330
47270W        W15488   2.885   2.904  12.038
47271W        W15489  42.750  22.010  11.153
47272W        W15490  16.303  34.376  14.908
47273W        W15491  10.382  40.621   3.799
47274W        W15492  39.319  44.453   3.233
47275W        W15493  15.788  11.657  13.833
47276W        W15494  21.067  33.424   0.083
47277W        W15495  30.597  28.471   5.305
47278W        W15496  11.656  30.118  14.000
47279W        W15497  44.092   0.099   0.452
47280W        W15498  11.291  42.394   0.759
47281W        W15499   9.725  32.275   4.554
47282W        W15500  12.095  19.003  11.345
47283W        W15501  14.344  40.224  10.361
47284W        W15502  34.462   8.553   4.007
47285W        W15503  43.570   2.961  14.462
47286W        W15504  44.600  35.028   4.665
47287W        W15505  27.572  16.618   1.428
47288W        W15506  22.699  34.013  13.868
47289W        W15507  34.516  39.244   0.625
47290W        W15508  15.257  17.952  13.061
47291W        W15509   7.314  25.180  11.117
47292W        W15510  44.744  21.277  14.901
47293W        W15511  21.462  13.184  11.492
47294W        W15512  30.081  41.738   2.660
47295W        W15513   0.660  23.602   3.909
47296W        W15514   0.952  12.592  13.534
47297W        W15515  25.517   7.597   4.447
47298W        W15516  39.304  15.270   0.922
47299W        W15517  19.755  17.725   0.840
47300W        W15518   7.718  38.807   1.141
47301W        W15519   4.254  31.905  10.914
47302W        W15520  23.314  38.515   0.753
47303W        W15521   8.712   8.719   0.582
47304W        W15522  29.633  24.782  10.741
47305W        W15523  11.724  18.159  11.182
47306W        W15524  39.134   6.180   3.751
47307W        W15525  32.875   8.407   4.652
47308W        W15526  14.364  34.179  13.872
47309W        W15527  28.847  22.569   9.761
47310W        W15528  16.956   6.882  13.532
47311W        W15529  28.716  16.147   0.759
47312W        W15530  26.348  18.525  12.858
47313W        W15531  16.201  17.822   3.283
47314W        W15532  43.604  18.548   2.169
47315W        W15533  33.033  11.340  13.754
47316W        W15534   0.478   0.735  13.033
47317W        W15535  18.267  14.577   0.026
47318W        W15536  17.278  16.372  14.662
47319W        W15537  26.105   4.829   1.294
47320W        W15538  21.696  24.749   1.705
47321W        W15539  33.686  23.488  11.708
47322W        W15540  36.395  31.799   4.528
47323W        W15541  42.005   9.650   4.960
47324W        W15542  41.064  18.500   1.939
47325W        W15543   8.242  26.179   3.575
47326W        W15544  35.699  40.039  14.351
47327W        W15545  19.640  21.499  10.727
47328W        W15546  38.416  40.965   1.247
47329W        W15547  44.231  30.454  13.118
47330W        W15548  41.234  32.570  14.399
47331W        W15549  23.053  31.365   1.309
47332W        W15550  20.577  38.945   4.234
47333W        W15551   1.829  34.486   1.800
47334W        W15552   0.827  19.235  14.058
47335W        W15553   0.874  31.670   2.813
47336W        W15554  28.580  31.605  12.430
47337W        W15555  36.154  20.654  11.966
47338W        W15556  39.367  34.029   3.336
47339W        W15557  37.140  21.089   4.040
47340W        W15558  12.186   5.443   1.776
47341W        W15559  36.974  17.584   2.740
47342W        W15560  37.376  15.280   1.730
47343W        W15561  34.869  29.144   3.252
47344W        W15562  17.342  37.122  12.982
47345W        W15563   5.480   8.437  11.778
47346W        W15564   0.434   9.822  14.432
47347W        W15565   8.967   5.731  14.038
47348W        W15566  13.166  17.039   1.945
47349W        W15567  34.608  13.774  12.892
47350W        W15568  36.625  20.450  14.772
47351W        W15569   6.621  34.962   3.253
47352W        W15570  25.213  14.401  10.212
47353W        W15571  34.053   5.830   1.337
47354W        W15572  10.305   4.290   4.740
47355W        W15573  25.733  17.469  13.095
47356W        W15574   1.777  44.750   0.331
47357W        W15575  37.531   8.198  10.729
47358W        W15576   9.186  40.445  13.586
47359W        W15577   1.715   2.332   2.042
47360W        W15578   8.700  17.763   3.125
47361W        W15579   6.740   7.530  14.762
47362W        W15580  39.712   8.688   2.900
47363W        W15581  26.733  19.078  14.920
47364W        W15582  35.568  11.271  14.384
47365W        W15583   1.437  25.303  10.746
47366W        W15584  18.267  35.352  10.688
47367W        W15585  42.818  18.685   1.847
47368W        W15586  39.919  17.486  12.052
47369W        W15587  10.500  21.090   9.988
47370W        W15588  22.103  21.493  14.058
47371W        W15589  33.010  37.707  11.651
47372W        W15590  11.154  20.497  13.500
47373W        W15591  18.086   8.786  11.672
47374W        W15592  36.026  22.697   3.088
47375W        W15593  18.719  29.875  12.560
47376W        W15594  37.560  43.709   1.138
47377W        W15595  21.581   2.961   3.777
47378W        W15596  19.553   9.218   4.376
47379W        W15597  42.676  35.755  11.112
47380W        W15598  42.244  22.994   2.352
47381W        W15599   9.913  15.105  12.992
47382W        W15600  24.025   9.917  11.148
47383W        W15601  18.075  32.976   2.296
47384W        W15602   5.205   1.804   0.497
47385W        W15603  26.768  13.233  12.782
47386W        W15604  11.628   1.652  13.313
47387W        W15605  29.800  27.449   3.703
47388W        W15606  35.365  12.156   1.771
47389W        W15607  44.694  43.973  14.925
47390W        W15608   2.584  31.981   2.879
47391W        W15609  30.034  30.535   3.143
47392W        W15610   3.511  13.564  11.084
47393W        W15611  36.589   7.334  13.292
47394W        W15612  40.711   6.900   3.702
47395W        W15613  41.603   7.496   2.838
47396W        W15614  36.313  22.200  14.355
47397W        W15615  37.063  11.886   3.268
47398W        W15616  20.526   3.426   2.246
47399W        W15617   0.232  20.632   0.495
47400W        W15618  19.013   8.384   2.890
47401W        W15619  16.342  11.189  15.000
47402W        W15620  23.752  34.138   9.920
47403W        W15621  15.854  12.469  11.492
47404W        W15622   9.886   9.778  11.419
47405W        W15623   8.554  30.623   1.492
47406W        W15624  44.007  22.990   2.682
47407W        W15625   8.064   8.805   2.271
47408W        W15626  32.861   1.988  10.627
47409W        W15627   9.146  44.557  11.117
47410W        W15628  44.840  20.589   4.555
47411W        W15629  26.532   8.757  13.893
47412W        W15630  36.075   1.909   1.929
47413W        W15631  20.779  12.388  14.931
47414W        W15632  15.073  18.199  11.594
47415W        W15633  38.405  33.913   2.711
47416W        W15634  30.881   9.849  13.098
47417W        W15635  22.093  41.114  13.985
47418W        W15636   2.227  12.604  11.558
47419W        W15637  18.527  24.563   3.308
47420W        W15638  22.646  33.311   4.489
47421W        W15639   8.704  26.998   3.659
47422W        W15640  24.536  24.913  11.281
47423W        W15641  20.460  41.738  14.920
47424W        W15642  27.055  37.048   2.263
47425W        W15643  43.257  39.780   4.100
47426W        W15644  40.643  17.731  13.726
47427W        W15645  38.487  27.073   0.847
47428W        W15646  27.460   3.553   4.597
47429W        W15647  23.274   4.493   2.203
47430W        W15648  27.206   5.696   1.427
47431W        W15649  41.364   6.338  12.635
47432W        W15650  33.424  21.489  12.955
47433W        W15651   5.740  34.480  11.057
47434W        W15652  44.511  35.051   2.773
47435W        W15653  14.266   6.160   2.874
47436W        W15654  14.416  43.487  12.545
47437W        W15655  43.869  28.024   1.114
47438W        W15656  33.716  12.035  14.422
47439W        W15657   0.441  35.974   1.486
47440W        W15658  18.506   5.843  13.346
47441W        W15659  28.021  37.391  14.348
47442W        W15660  40.839  17.316   0.382
47443W        W15661   9.016   3.214   4.183
47444W        W15662  40.062  38.532   3.114
47445W        W15663  42.212  13.217   0.631
47446W        W15664  16.944  39.987  14.044
47447W        W15665  15.641  33.464   2.008
47448W        W15666   6.171  43.042   1.330
47449W        W15667  30.926  42.825  10.912
47450W        W15668  28.508  38.113  14.302
47451W        W15669  39.211  26.282  14.923
47452W        W15670  14.010  23.919  12.552
47453W        W15671  22.637  25.671  14.135
47454W        W15672   4.215  23.091  14.781
47455W        W15673  41.975  35.494   3.769
47456W        W15674  17.006  33.419   3.597
47457W        W15675  40.036  29.489  13.301
47458W        W15676   8.327  25.433  14.392
47459W        W15677  28.141  42.031   3.665
47460W        W15678  35.277   7.319  13.542
47461W        W15679  42.363  19.478  11.934
47462W        W15680  22.730  38.416  10.539
47463W        W15681  21.955  25.199   1.692
47464W        W15682  14.383  21.790   2.207
47465W        W15683  38.909   5.865  10.155
47466W        W15684  35.338  17.318  12.518
47467W        W15685  22.495   1.807   0.534
47468W        W15686  12.105  44.721  11.006
47469W        W15687  39.891  26.569   0.325
47470W        W15688  24.636  26.712   1.470
47471W        W15689  28.786  19.640   1.077
47472W        W15690  35.805  31.700  12.259
47473W        W15691  44.591  23.980  13.349
47474W        W15692  41.282   5.057   0.310
47475W        W15693  22.945  37.898  12.010
47476W        W15694   4.756  23.508  13.149
47477W        W15695  24.636  38.408  14.253
47478W        W15696   7.480   1.272  10.657
47479W        W15697   4.788  44.507   0.979
47480W        W15698   2.761  17.660   2.701
47481W        W15699  18.504  24.546  13.820
47482W        W15700  44.459  43.912   3.234
47483W        W15701   4.326  44.377   0.230
47484W        W15702  40.554  29.551   0.899
47485W        W15703  15.703  44.301   3.680
47486W        W15704  12.626  28.386   2.442
47487W        W15705  23.691  24.939  13.541
47488W        W15706   2.423   6.589   0.866
47489W        W15707  10.778  23.912   1.232
47490W        W15708  27.585   0.741   0.401
47491W        W15709   9.849  23.369   0.443
47492W        W15710   2.618  35.908   3.073
47493W        W15711  35.378  44.416  14.894
47494W        W15712  25.083  41.866   4.532
47495W        W15713   4.186   5.653  14.109
47496W        W15714   1.243  18.721   3.204
47497W        W15715  29.637   1.972   2.982
47498W        W15716  32.119  39.388  13.487
47499W        W15717  20.535  16.411   3.776
47500W        W15718   1.816  21.678   0.855
47501W        W15719  25.211  33.496   2.761
47502W        W15720  30.683  30.830  13.885
47503W        W15721  22.208   3.237  14.739
47504W        W15722  30.032   8.216   2.289
47505W        W15723   9.695  42.381  10.601
47506W        W15724   1.121  21.076   3.850
47507W        W15725  23.583  42.743  12.352
47508W        W15726  28.975  29.412   2.358
47509W        W15727  44.262  16.638  14.747
47510W        W15728  25.491  35.242  12.601
47511W        W15729  21.092   6.806   4.848
47512W        W15730  21.804  38.045  12.898
47513W        W15731  10.365  10.866  13.152
47514W        W15732  23.627  27.149  10.601
47515W        W15733   2.650  42.532   0.465
47516W        W15734  33.366  13.131   2.135
47517W        W15735  38.890  20.755   2.222
47518W        W15736   5.869   6.818   1.872
47519W        W15737  28.201  31.429   1.749
47520W        W15738  30.123  19.238   4.898
47521W        W15739  14.544  40.249   4.569
47522W        W15740   9.398  36.869   4.587
47523W        W15741  10.673   6.790   3.308
47524W        W15742  22.205  31.491   0.361
47525W        W15743  27.019  33.406   0.762
47526W        W15744  39.814   6.957  12.031
47527W        W15745  29.822  43.134   4.249
47528W        W15746   4.689  38.405   0.042
47529W        W15747  22.747   7.570  10.356
47530W        W15748  32.925  37.863   2.977
47531W        W15749  43.977  22.289   2.254
47532W        W15750   0.470  25.109   2.693
47533W        W15751  37.029   1.204  11.285
47534W        W15752  14.199  38.112   0.849
47535W        W15753  25.635  28.394   0.498
47536W        W15754   9.385  20.111   3.339
47537W        W15755  20.180  42.242  12.370
47538W        W15756  20.802  21.167   4.208
47539W        W15757  19.259  15.248  11.143
47540W        W15758  21.189  20.540   0.891
47541W        W15759  22.115   8.413   3.208
47542W        W15760  26.003   2.675   4.517
47543W        W15761  18.608   6.901   3.885
47544W        W15762   4.115  16.432  12.178
47545W        W15763  21.112  24.110   0.255
47546W        W15764  36.808  21.999  13.454
47547W        W15765   0.447   3.227  12.993
47548W        W15766   1.344  42.404  13.871
47549W        W15767  42.933  10.664   2.699
47550W        W15768  16.849  42.013   0.228
47551W        W15769  11.741  30.708   3.070
47552W        W15770  16.695  27.595   1.160
47553W        W15771   3.747  22.128   4.250
47554W        W15772  26.024  32.585  11.628
47555W        W15773   1.401  10.358   0.988
47556W        W15774  23.490   9.676  10.508
47557W        W15775  36.394  22.494  12.732
47558W        W15776  10.241  42.948   9.900
47559W        W15777   8.219  13.223  11.138
47560W        W15778   3.105   2.969  11.210
47561W        W15779  20.424   5.980   1.094
47562W        W15780  37.762  12.535   4.424
47563W        W15781  26.422  24.277   0.488
47564W        W15782   4.324   7.036  13.439
47565W        W15783   1.156  10.730   4.739
47566W        W15784  41.093  35.830   0.060
47567W        W15785  21.209  39.938   2.133
47568W        W15786  30.584  28.892  14.538
47569W        W15787  31.572   5.483  12.525
47570W        W15788  42.017  12.733   2.208
47571W        W15789  14.092  17.703   2.739
47572W        W15790  29.275   8.612   3.322
47573W        W15791  41.539  31.222  13.379
47574W        W15792  43.887  10.115   0.917
47575W        W15793  39.850   6.001  12.378
47576W        W15794  32.602  14.634  14.975
47577W        W15795  31.583  32.456   3.269
47578W        W15796  13.621  14.819   2.694
47579W        W15797   0.472  21.605   3.604
47580W        W15798  23.936  40.891   1.772
47581W        W15799  27.968  10.951   2.883
47582W        W15800  17.044  24.212  11.981
47583W        W15801  21.171  24.652   2.450
47584W        W15802  38.428  41.148   2.338
47585W        W15803  44.246  34.473   4.954
47586W        W15804  15.560  26.715   3.637
47587W        W15805  36.395  14.039   1.342
47588W        W15806  34.035  11.416  14.925
47589W        W15807   9.204   1.776   0.733
47590W        W15808  21.102  36.689   2.721
47591W        W15809  41.042  13.555  11.208
47592W        W15810  26.749  24.090  11.155
47593W        W15811  24.295   4.705   1.943
47594W        W15812  32.160  36.387  14.000
47595W        W15813  11.203  36.447   3.361
47596W        W15814  24.574  37.813   4.539
47597W        W15815  43.070  36.156   0.920
47598W        W15816  10.527  30.069   1.224
47599W        W15817  29.433   0.536  13.380
47600W        W15818  25.959  28.895   3.678
47601W        W15819  14.639  14.699   1.865
47602W        W15820  39.798  24.500   1.892
47603W        W15821  10.599  35.609   0.352
47604W        W15822  35.072  44.372  14.464
47605W        W15823  35.135   1.494   2.852
47606W        W15824   5.259  16.816  14.024
47607W        W15825   7.393  18.145  14.979
47608W        W15826  10.355  16.853   4.137
47609W        W15827   0.099  38.170  12.940
47610W        W15828  33.480   9.933  12.866
47611W        W15829   1.012   2.220   2.704
47612W        W15830  14.206  13.225   0.438
47613W        W15831  37.772  13.423  13.270
47614W        W15832  31.709  34.380  11.097
47615W        W15833  30.610  12.737   3.366
47616W        W15834  22.988   9.238   0.390
47617W        W15835  24.457  42.483  13.147
47618W        W15836  10.831  32.921   2.236
47619W        W15837   0.921   8.618   2.106
47620W        W15838  39.869  10.280   3.414
47621W        W15839   5.777   2.820   4.739
47622W        W15840  24.707  12.579   3.331
47623W        W15841  35.672  32.962  12.000
47624W        W15842  34.970   1.262  13.369
47625W        W15843  41.601  42.555  12.582
47626W        W15844   0.761  36.671  12.230
47627W        W15845  26.646  28.898   0.574
47628W        W15846  33.526   9.719  10.360
47629W        W15847  41.862   8.499   5.085
47630W        W15848  10.813  22.032  14.244
47631W        W15849  40.710   3.607   5.147
47632W        W15850  22.473  18.721   3.274
47633W        W15851  25.950  25.552  11.524
47634W        W15852   1.468   4.887   4.604
47635W        W15853  14.658  30.331   3.295
47636W        W15854  27.609  35.365  13.052
47637W        W15855  22.209  20.288   0.018
47638W        W15856  31.844   4.217  13.109
47639W        W15857   2.765  10.764  10.584
47640W        W15858  29.397  22.780   0.184
47641W        W15859  38.958  19.619  13.294
47642W        W15860   1.788  11.784  12.867
47643W        W15861   5.167  33.618   4.201
47644W        W15862  16.855  43.445  12.390
47645W        W15863  14.790  36.584  10.605
47646W        W15864  21.399   3.224   0.791
47647W        W15865  28.390  41.992  13.564
47648W        W15866  25.451  42.356  12.497
47649W        W15867  12.895  17.673  12.900
47650W        W15868   8.366   4.890   3.183
47651W        W15869   4.793  43.548  12.541
47652W        W15870  41.963  23.219   1.688
47653W        W15871  42.152  31.534  13.335
47654W        W15872  10.868  42.899   0.360
47655W        W15873  10.319  14.013   2.853
47656W        W15874  27.489  13.282  12.764
47657W        W15875  24.451  13.573   0.831
47658W        W15876  12.138  10.123   4.515
47659W        W15877  24.531  10.854   4.068
47660W        W15878  27.043   7.250   2.426
47661W        W15879   4.346  28.349   0.470
47662W        W15880  29.905   9.957  12.009
47663W        W15881  29.496  34.191   2.806
47664W        W15882  13.790  40.738   0.336
47665W        W15883  23.702   3.323   0.524
47666W        W15884  44.427  28.994   2.922
47667W        W15885  15.138  38.534   4.895
47668W        W15886  32.352  15.881   0.286
47669W        W15887  16.232  16.793  12.490
47670W        W15888   8.406   0.620  12.136
47671W        W15889   4.277  37.463   4.358
47672W        W15890   6.365  13.922   0.402
47673W        W15891   5.528   6.796   0.983
47674W        W15892  24.913  25.652  11.515
47675W        W15893  27.877  44.217  11.187
47676W        W15894  40.832  19.629  13.859
47677W        W15895  28.368  41.794   4.283
47678W        W15896  32.557  17.779   3.425
47679W        W15897   6.319  25.488  11.632
47680W        W15898  22.773  35.948  11.580
47681W        W15899  43.877  12.285   0.599
47682W        W15900   1.767   8.856  12.618
47683W        W15901  41.755  15.026  11.923
47684W        W15902  14.406  27.587   1.981
47685W        W15903  22.182  11.311   4.157
47686W        W15904   1.973  15.532   2.302
47687W        W15905  20.062  16.542  11.088
47688W        W15906  12.584  13.692  11.667
47689W        W15907  29.508  16.338  11.974
47690W        W15908  34.894  22.020  14.684
47691W        W15909  12.564   1.275   2.836
47692W        W15910  43.490  32.893  10.708
47693W        W15911  25.681  34.519  13.992
47694W        W15912  26.203  27.217   0.277
47695W        W15913  10.276  21.042  14.742
47696W        W15914  37.371   0.711  11.165
47697W        W15915  36.504   1.251  13.983
47698W        W15916  41.379  19.644  11.113
47699W        W15917  27.058  43.418  10.698
47700W        W15918   7.447   8.306   0.928
47701W        W15919  38.947   6.012   0.854
47702W        W15920  24.797   9.838   2.781
47703W        W15921  39.552   0.496  11.588
47704W        W15922   2.739  20.777   1.873
47705W        W15923  12.517  23.148   2.763
47706W        W15924  43.380  38.188  10.434
47707W        W15925  16.969  34.433  12.590
47708W        W15926   5.773  34.529  13.879
47709W        W15927  44.282  11.176   3.578
47710W        W15928   2.875  20.483   3.635
47711W        W15929  25.255  43.014   3.736
47712W        W15930  34.931  23.425   4.249
47713W        W15931  33.218  14.019   0.396
47714W        W15932  10.400  34.068  14.099
47715W        W15933  29.085  43.388   1.701
47716W        W15934  36.394  40.799  11.613
47717W        W15935  18.256  27.450   2.042
47718W        W15936  32.667   0.501  12.874
47719W        W15937   0.475  29.434  11.971
47720W        W15938   2.460  15.549  12.353
47721W        W15939  25.188  29.985   1.800
47722W        W15940  10.554   3.051   0.620
47723W        W15941   6.516   1.503   3.101
47724W        W15942  19.817  44.789   2.295
47725W        W15943  33.539  34.117  11.191
47726W        W15944  28.442   0.287  11.898
47727W        W15945  16.062  21.983  11.218
47728W        W15946  18.809  42.511   1.850
47729W        W15947  29.189  35.265   2.930
47730W        W15948  26.979  24.488   0.200
47731W        W15949  42.034   6.657  14.236
47732W        W15950  31.971  37.871  12.544
47733W        W15951  15.839   1.833   4.620
47734W        W15952  33.508  30.798   1.865
47735W        W15953  17.631   8.144  14.491
47736W        W15954   6.810  13.599   3.262
47737W        W15955  16.273  42.533   2.787
47738W        W15956  12.760  35.911   0.386
47739W        W15957  30.801  39.019   4.859
47740W        W15958  41.772  17.113  14.344
47741W        W15959  28.989  10.152  12.156
47742W        W15960   5.963   1.408   2.591
47743W        W15961  24.974  10.171  12.601
47744W        W15962  42.265  37.978  11.177
47745W        W15963   3.547  17.299   2.317
47746W        W15964  29.435  20.361   0.709
47747W        W15965  42.537   4.347  11.511
47748W        W15966  38.803  18.645   4.604
47749W        W15967  24.156  22.300  14.827
47750W        W15968  44.330   7.794   1.693
47751W        W15969   5.457  14.708   2.611
47752W        W15970  36.421  17.235  13.839
47753W        W15971  12.868  42.375  13.245
47754W        W15972  35.830  35.789   0.354
47755W        W15973  14.783  24.056   0.853
47756W        W15974  30.033  44.488  14.026
47757W        W15975  27.352  18.706  14.788
47758W        W15976  37.264  29.583  12.153
47759W        W15977  22.112  39.337  11.114
47760W        W15978  13.770  24.954  13.321
47761W        W15979  33.879  17.590  14.864
47762W        W15980   6.415  10.409   0.675
47763W        W15981  23.506   7.673  11.596
47764W        W15982   6.761  32.148   0.167
47765W        W15983  22.011  13.863   1.516
47766W        W15984  22.256   8.796   4.657
47767W        W15985  43.101  29.969  11.581
47768W        W15986   0.449  37.604   0.421
47769W        W15987  20.754  26.754   1.655
47770W        W15988  20.016  34.110   3.183
47771W        W15989  18.287  23.434  13.970
47772W        W15990  26.490   9.875   5.074
47773W        W15991  35.378   2.900   1.457
47774W        W15992  27.663  28.437   2.918
47775W        W15993  10.975  34.937  12.107
47776W        W15994   0.717   4.666   4.186
47777W        W15995   9.150  15.397  13.974
47778W        W15996  23.094  30.119  12.546
47779W        W15997  29.811  31.524   0.930
47780W        W15998   1.572  12.087   4.521
47781W        W15999  10.217  19.677  10.370
47782W        W16000  16.737   3.985  12.544
47783W        W16001  33.179  20.539   3.919
47784W        W16002  42.341  20.805   3.606
47785W        W16003   0.760  33.063   0.132
47786W        W16004  19.724   2.145  11.449
47787W        W16005  16.163   0.998   4.040
47788W        W16006  19.324  30.921   3.293
47789W        W16007  21.544   8.253  11.693
47790W        W16008  14.502  14.188  13.499
47791W        W16009  41.548  39.190   3.609
47792W        W16010  43.102  18.807  12.221
47793W        W16011   6.851  14.020   1.174
47794W        W16012   8.881  35.806   4.269
47795W        W16013   0.088  31.268   2.085
47796W        W16014  44.139  23.171   4.530
47797W        W16015   9.564   9.742  10.605
47798W        W16016  44.173   2.663   4.299
47799W        W16017   5.911  39.383  13.599
47800W        W16018   7.301  31.434  12.123
47801W        W16019   8.248  40.243   4.617
47802W        W16020   6.857  23.789   1.789
47803W        W16021   1.365  42.401  14.874
47804W        W16022  25.129   7.739  14.969
47805W        W16023  42.490   9.122   2.807
47806W        W16024  23.636  23.966   3.258
47807W        W16025  23.541   0.749  12.864
47808W        W16026  39.500   1.792  11.205
47809W        W16027  19.982  24.170   4.563
47810W        W16028  22.013  12.184   0.827
47811W        W16029  24.071  19.914   0.375
47812W        W16030  28.580  29.979   4.066
47813W        W16031   9.384  25.893  14.877
47814W        W16032  15.227  39.348  12.502
47815W        W16033  11.146  42.832   4.019
47816W        W16034  11.429  18.259  10.757
47817W        W16035  25.126  36.133   2.852
47818W        W16036  17.776  19.636  13.350
47819W        W16037  19.862  19.292  12.192
47820W        W16038  35.556  39.308   2.359
47821W        W16039  16.111  10.201   4.921
47822W        W16040  36.517  22.493   3.240
47823W        W16041   3.298   8.260   0.274
47824W        W16042  26.936  32.791   2.572
47825W        W16043  23.295  12.745  13.116
47826W        W16044   2.839  40.742  13.633
47827W        W16045  16.288  24.364   3.812
47828W        W16046  21.688  39.465   3.765
47829W        W16047  41.883  37.888   2.101
47830W        W16048  29.425   7.752  13.953
47831W        W16049  21.551  29.419  13.767
47832W        W16050  40.542   2.891  10.466
47833W        W16051  41.251  31.634  10.875
47834W        W16052  44.336  38.280  13.684
47835W        W16053   3.929  20.684  14.723
47836W        W16054  17.805   2.812  13.495
47837W        W16055  34.551  37.852  11.145
47838W        W16056  32.849  33.029  14.873
47839W        W16057  33.436  38.392   0.407
47840W        W16058  39.040  36.474   3.249
47841W        W16059  40.801  14.123  13.791
47842W        W16060  11.802  26.207   2.423
47843W        W16061   5.468  24.929  11.617
47844W        W16062  42.236  25.849   2.552
47845W        W16063   2.852   7.386   3.037
47846W        W16064  16.251   6.776  12.967
47847W        W16065  23.593  41.073  12.798
47848W        W16066  38.335  25.647   4.226
47849W        W16067  34.703   9.600  12.423
47850W        W16068   4.834  35.080   4.576
47851W        W16069  10.641  34.010   3.684
47852W        W16070   6.070  36.886   2.805
47853W        W16071  38.578  44.908   2.104
47854W        W16072  44.863  10.611  14.452
47855W        W16073  16.642  33.341  11.328
47856W        W16074  12.289  27.726   0.801
47857W        W16075  27.421  10.140   4.486
47858W        W16076  15.507  26.615  13.496
47859W        W16077  23.739  30.092   0.868
47860W        W16078  11.058  31.527   1.172
47861W        W16079   4.747  13.216   2.357
47862W        W16080  24.846  41.451  14.289
47863W        W16081  28.202   7.933   1.005
47864W        W16082  18.234  43.940   4.444
47865W        W16083  30.071  34.630  12.846
47866W        W16084  14.232  30.028  14.451
47867W        W16085  23.291  38.848  12.055
47868W        W16086  38.883  29.385   1.329
47869W        W16087  26.791  20.776  12.465
47870W        W16088  22.617  30.787  11.515
47871W        W16089   9.412  28.980   4.395
47872W        W16090  38.144  37.457   0.972
47873W        W16091   2.374   6.387  10.800
47874W        W16092  16.744  10.326   1.359
47875W        W16093  43.953  38.012   3.420
47876W        W16094  40.618  10.150   4.219
47877W        W16095  15.567  19.399  10.899
47878W        W16096  14.527   7.345   4.744
47879W        W16097  32.309  33.539  12.015
47880W        W16098  10.337  12.811  12.412
47881W        W16099  22.472  10.514  11.044
47882W        W16100  29.322  38.115   0.845
47883W        W16101  22.823   9.292  12.514
47884W        W16102  16.823  38.896   3.890
47885W        W16103  33.344  12.944   2.704
47886W        W16104  10.169  24.707   2.423
47887W        W16105  39.549  20.592  13.050
47888W        W16106  18.118   8.925  13.004
47889W        W16107  12.108  26.767  14.359
47890W        W16108  41.383  13.532   0.444
47891W        W16109   1.815  12.608   0.485
47892W        W16110  23.586  22.529   0.514
47893W        W16111  42.219  36.138  12.000
47894W        W16112  36.809  13.222  13.537
47895W        W16113  34.407   1.957   0.387
47896W        W16114  24.023  37.300  10.976
47897W        W16115  10.315   8.875  14.817
47898W        W16116  17.838  34.561   2.927
47899W        W16117  44.865  15.839  10.743
47900W        W16118  31.104  21.441  12.535
47901W        W16119  44.192  36.772  13.879
47902W        W16120  24.540   8.596  14.912
47903W        W16121   5.412  18.238  12.912
47904W        W16122  25.860  14.542   2.450
47905W        W16123   8.182  34.934   2.931
47906W        W16124  36.790  24.262  12.867
47907W        W16125  34.414   5.717  12.845
47908W        W16126   8.708  13.587  12.044
47909W        W16127  30.018  26.151  11.172
47910W        W16128  41.506   2.497   0.257
47911W        W16129  11.384  37.334  11.059
47912W        W16130   2.023  19.681  12.540
47913W        W16131  20.613  33.553   3.523
47914W        W16132  31.501  13.343   0.613
47915W        W16133  44.970  14.349   4.789
47916W        W16134  20.623  28.546   2.951
47917W        W16135  39.113  12.933   4.315
47918W        W16136   8.794  12.411  10.941
47919W        W16137  32.677  26.033  14.225
47920W        W16138  20.171  19.681   3.078
47921W        W16139   3.923   4.334  10.885
47922W        W16140   1.019  44.450  10.172
47923W        W16141  24.645  16.547  12.701
47924W        W16142   5.272  44.065  13.797
47925W        W16143  37.142  17.800  11.974
47926W        W16144  33.039  22.302   0.961
47927W        W16145  16.378  15.226   1.850
47928W        W16146  13.201  33.727  12.407
47929W        W16147  41.030  15.864   3.121
47930W        W16148  39.872   7.922  12.613
47931W        W16149  26.158  10.402  14.412
47932W        W16150  11.842  23.558   2.763
47933W        W16151  25.909  40.476   1.379
47934W        W16152   0.387   8.881   0.997
47935W        W16153  29.441  14.147  12.361
47936W        W16154  22.470  38.305   1.123
47937W        W16155  23.077  19.090  12.932
47938W        W16156  40.358  26.971  14.000
47939W        W16157   5.953  44.470   4.037
47940W        W16158  12.254   2.763  13.814
47941W        W16159  31.975  30.982   2.548
47942W        W16160  35.842  30.769   2.423
47943W        W16161  29.666  22.560   1.655
47944W        W16162   9.438  13.033  14.269
47945W        W16163  44.279  35.339  12.488
47946W        W16164  25.704  37.461   4.060
47947W        W16165  12.691   1.884  10.436
47948W        W16166  28.751  27.020  14.111
47949W        W16167  13.516  16.286  12.335
47950W        W16168  11.421  23.684  12.140
47951W        W16169  35.786  44.836  14.233
47952W        W16170  41.902  15.228  10.575
47953W        W16171  25.451  39.858  10.610
47954W        W16172  33.070  36.698  11.596
47955W        W16173  42.053  19.204  13.383
47956W        W16174  10.854  31.921   0.451
47957W        W16175  19.099  39.507   1.500
47958W        W16176  40.390   9.840   2.841
47959W        W16177  33.075  41.847   1.185
47960W        W16178  34.239  10.988  11.322
47961W        W16179  41.769  24.206  13.438
47962W        W16180  37.034  26.532  12.782
47963W        W16181   3.985  12.768  12.010
47964W        W16182   6.280  24.595  12.027
47965W        W16183  17.337  35.326  12.062
47966W        W16184  33.737  10.184  11.055
47967W        W16185  21.319  34.492   4.461
47968W        W16186  42.539   4.328  10.612
47969W        W16187   0.436  13.694  13.829
47970W        W16188  12.594  25.139   3.308
47971W        W16189  23.737  24.030   4.090
47972W        W16190  25.042  33.164  13.072
47973W        W16191  22.925  43.218  12.044
47974W        W16192  20.764  29.020   2.684
47975W        W16193  35.008  22.501   3.830
47976W        W16194  30.538  21.152   3.610
47977W        W16195  34.879  20.037   4.158
47978W        W16196  37.948  14.852   0.113
47979W        W16197  28.152  18.366   4.091
47980W        W16198  11.922  15.664  13.606
47981W        W16199  27.448  29.138  14.537
47982W        W16200   2.522   6.807  14.877
47983W        W16201   9.708  41.231   3.657
47984W        W16202  43.532  27.576   0.669
47985W        W16203  11.252  35.563  12.036
47986W        W16204  28.735  16.273  11.011
47987W        W16205  15.643   4.480  11.138
47988W        W16206   0.369  25.856   4.241
47989W        W16207  18.571  26.455   2.344
47990W        W16208  41.953  42.673  11.176
47991W        W16209  34.602   8.121  10.765
47992W        W16210   5.712  41.236   2.376
47993W        W16211  14.094   3.680   0.452
47994W        W16212  31.676   5.098   0.362
47995W        W16213  31.475  35.932   3.695
47996W        W16214  13.729  18.090   2.820
47997W        W16215   9.091   1.280   0.920
47998W        W16216  28.538  43.541   0.786
47999W        W16217  20.724  10.328   4.225
48000W        W16218   7.771  33.773   0.590
48001W        W16219  25.785  13.720  11.132
48002W        W16220  41.017  38.915   3.220
48003W        W16221  29.710  35.738   4.223
48004W        W16222   3.985   9.325  13.239
48005W        W16223  41.240  15.755  14.772
48006W        W16224  41.396  17.684  12.691
48007W        W16225  29.852  12.641  12.378
48008W        W16226   7.804  33.382   3.012
48009W        W16227  38.918   1.377   4.119
48010W        W16228   2.515   1.942   4.107
48011W        W16229  23.724  25.249  10.687
48012W        W16230  17.100  28.576   2.550
48013W        W16231  38.628   7.715   4.235
48014W        W16232  43.461   3.885   3.240
48015W        W16233   5.812  16.211   1.863
48016W        W16234  26.335  17.160   0.459
48017W        W16235   4.435  40.957   0.207
48018W        W16236  26.656  36.551  11.967
48019W        W16237  18.155   0.948  10.658
48020W        W16238  12.275  27.243   1.774
48021W        W16239  37.495  28.575   4.830
48022W        W16240  13.824  26.660   0.753
48023W        W16241  19.977  44.750  12.510
48024W        W16242  21.133  21.044  13.890
48025W        W16243   6.286   1.658   3.560
48026W        W16244  38.849  19.121  12.011
48027W        W16245  44.848  30.575  14.213
48028W        W16246   7.006   9.457   3.833
48029W        W16247  24.006   3.789   0.101
48030W        W16248  11.483  38.574  13.911
48031W        W16249  42.197  35.951   0.236
48032W        W16250  14.290  19.317   2.299
48033W        W16251  31.584  25.508   2.497
48034W        W16252  32.651  26.661   0.384
48035W        W16253  43.506  11.896  12.369
48036W        W16254  27.084  30.092  12.498
48037W        W16255  25.812  16.053  10.330
48038W        W16256  21.777  20.575   2.779
48039W        W16257  39.460   0.317  12.050
48040W        W16258  30.029  41.210  10.683
48041W        W16259  27.765  18.199  12.111
48042W        W16260  36.545   6.967  12.943
48043W        W16261  32.542   8.714  11.656
48044W        W16262  41.911  13.463  11.168
48045W        W16263  40.830  15.102  12.977
48046W        W16264  17.036  34.183   0.283
48047W        W16265  30.493  10.658   4.480
48048W        W16266  38.159  43.858  12.935
48049W        W16267  36.001   9.788   4.758
48050W        W16268  15.293   3.124   0.190
48051W        W16269  39.313  16.276   0.900
48052W        W16270  11.799   8.861   1.454
48053W        W16271  35.825   6.670   3.554
48054W        W16272  15.766   1.302   3.558
48055W        W16273  20.113  21.317   1.432
48056W        W16274  24.222  20.236  10.688
48057W        W16275  44.337  42.273  11.650
48058W        W16276  20.903   9.798  12.480
48059W        W16277  17.806   9.961   2.813
48060W        W16278  36.398  24.480  13.954
48061W        W16279  31.389   6.244  11.921
48062W        W16280   6.889   9.795  12.354
48063W        W16281  28.592  39.024   3.202
48064W        W16282  28.076  38.417   2.895
48065W        W16283   3.888   7.215   0.580
48066W        W16284  20.157  33.001  10.523
48067W        W16285  44.432   6.792   3.320
48068W        W16286   7.886  41.418  11.638
48069W        W16287  33.635   8.506   0.999
48070W        W16288  14.720   1.090   5.454
48071W        W16289  25.139  20.695   4.752
48072W        W16290  14.508  40.896  13.099
48073W        W16291  13.938  16.269  13.811
48074W        W16292  37.582  11.274  11.090
48075W        W16293  41.934  37.135   2.838
48076W        W16294  32.593  13.943   2.326
48077W        W16295   0.767  20.452  13.397
48078W        W16296  13.857   1.992  10.647
48079W        W16297  27.974  11.867  12.794
48080W        W16298  28.975  28.542  13.872
48081W        W16299  37.893  35.372   2.905
48082W        W16300  42.093  28.088   4.989
48083W        W16301  25.730   3.341   0.353
48084W        W16302  44.965  13.515   1.945
48085W        W16303  14.843  43.395   4.226
48086W        W16304   2.431  37.704  11.511
48087W        W16305   2.285  37.115   0.279
48088W        W16306  32.607  34.979  10.723
48089W        W16307   1.642  16.322   3.997
48090W        W16308   1.487  43.282   2.748
48091W        W16309   6.195   9.044  14.778
48092W        W16310  21.302  39.457  13.578
48093W        W16311  26.095   8.177   2.960
48094W        W16312  39.128  42.339  11.061
48095W        W16313  36.518   5.959  12.898
48096W        W16314  40.822  10.222  14.905
48097W        W16315  43.265  34.003  13.492
48098W        W16316  24.083  12.160  11.266
48099W        W16317  35.455   6.160  10.540
48100W        W16318   3.236   3.743   2.854
48101W        W16319  35.319  25.948  14.261
48102W        W16320  38.814  14.264  14.104
48103W        W16321   9.507   6.547   0.496
48104W        W16322   9.590  39.631   2.260
48105W        W16323  29.583  18.193  13.365
48106W        W16324  42.905  37.835   1.465
48107W        W16325  33.326  22.980   3.190
48108W        W16326  34.486  17.427  13.002
48109W        W16327  28.792   8.788  14.365
48110W        W16328  41.753   4.240   4.574
48111W        W16329  13.067   2.953  12.094
48112W        W16330  19.582  13.157  10.720
48113W        W16331  15.131  43.189   1.250
48114W        W16332  24.183   9.148  14.172
48115W        W16333   7.205  43.316  13.888
48116W        W16334   8.545  27.627   4.171
48117W        W16335  34.447   4.713  13.031
48118W        W16336  27.421  30.564   2.383
48119W        W16337  37.956  33.163   2.401
48120W        W16338  16.660  38.867   3.403
48121W        W16339  10.414  42.031  12.119
48122W        W16340  11.790  15.014  11.470
48123W        W16341  27.903  12.748   4.116
48124W        W16342  17.691  44.195  11.597
48125W        W16343  28.036   3.062   4.953
48126W        W16344   0.870   9.937   3.905
48127W        W16345   3.228   4.569  13.022
48128W        W16346  22.983  18.786  13.827
48129W        W16347  35.857   7.708  14.727
48130W        W16348  33.848  27.891   3.655
48131W        W16349   1.630  26.317   2.219
48132W        W16350  36.369  35.392  11.568
48133W        W16351  21.390  42.238   1.721
48134W        W16352  23.135   1.996  13.298
48135W        W16353  22.567  24.603   0.551
48136W        W16354  32.323  33.599  12.668
48137W        W16355  38.961  44.459   1.906
48138W        W16356  33.055  41.390   4.332
48139W        W16357  40.907  26.541  11.205
48140W        W16358   2.500  43.975   4.488
48141W        W16359  19.809  25.732  14.909
48142W        W16360  40.326  26.588  14.439
48143W        W16361  13.751  34.882  12.918
48144W        W16362  32.523  40.794   1.652
48145W        W16363   4.241  33.404  12.034
48146W        W16364  39.769   7.380   0.792
48147W        W16365  22.481  40.839  14.261
48148W        W16366   3.658  36.177  13.870
48149W        W16367   1.190   5.380  12.336
48150W        W16368  11.574  18.346  14.462
48151W        W16369   3.127  23.720  14.354
48152W        W16370  25.461   4.500  11.762
48153W        W16371  42.765  44.137   1.088
48154W        W16372  24.565  38.254   1.145
48155W        W16373  11.506  14.844  11.019
48156W        W16374  37.541   3.953  14.390
48157W        W16375   7.371  22.132   3.570
48158W        W16376  37.102  13.359  12.544
48159W        W16377  27.771   0.865  12.967
48160W        W16378  21.725  13.443  14.340
48161W        W16379  44.986  12.040   0.879
48162W        W16380   8.836  38.253  10.765
48163W        W16381   5.563   3.545   2.289
48164W        W16382  23.202   6.118  10.876
48165W        W16383  39.168   9.711  12.979
48166W        W16384  14.922  29.546   2.611
48167W        W16385  33.830   9.698  14.216
48168W        W16386   5.537  41.965  12.770
48169W        W16387  33.995   6.926  14.788
48170W        W16388  36.781  43.680   3.349
48171W        W16389  32.706   3.292   0.326
48172W        W16390  40.146  39.118   3.688
48173W        W16391  40.581  15.130  13.597
48174W        W16392   0.315  28.823   1.783
48175W        W16393  39.633  29.131  11.613
48176W        W16394  42.483  36.002  10.703
48177W        W16395  43.230  14.043  11.665
48178W        W16396  17.646   4.597   1.798
48179W        W16397   9.822  22.271   4.828
48180W        W16398  28.164  20.709   2.272
48181W        W16399  16.323  33.623   4.380
48182W        W16400  16.518  38.957   1.770
48183W        W16401   9.267  20.059  10.583
48184W        W16402   7.783  36.168   2.578
48185W        W16403  36.765  26.516  10.061
48186W        W16404  43.720  19.676   4.932
48187W        W16405   4.704  35.571   0.186
48188W        W16406  22.434   6.758  12.606
48189W        W16407  18.544   9.903   1.743
48190W        W16408  41.935  37.534   5.058
48191W        W16409   1.242   3.401   0.905
48192W        W16410  22.509  44.433  11.229
48193W        W16411  20.358  14.551   1.815
48194W        W16412   5.823  44.027  10.585
48195W        W16413   1.889  40.538  12.100
48196W        W16414  37.709  38.245   3.598
48197W        W16415  35.735   7.195  11.301
48198W        W16416  36.374  30.710  11.186
48199W        W16417  26.457  20.841   4.003
48200W        W16418  21.556  30.186  10.711
48201W        W16419  32.410  36.859  12.805
48202W        W16420   3.230  11.589   0.619
48203W        W16421  40.043  44.153   2.574
48204W        W16422   2.949   6.907   3.179
48205W        W16423   9.204   0.976  14.323
48206W        W16424  43.395  41.187  14.048
48207W        W16425   9.745  15.555  11.690
48208W        W16426  28.173   4.105   0.781
48209W        W16427  20.563   2.199  12.504
48210W        W16428  35.950  43.734   2.351
48211W        W16429  20.265   0.881   3.657
48212W        W16430  11.014  29.076   3.066
48213W        W16431  41.079  42.570  12.548
48214W        W16432   1.977   8.653  10.634
48215W        W16433   2.989  36.090   1.292
48216W        W16434  13.316  32.331  13.430
48217W        W16435  24.437  42.898   3.360
48218W        W16436  17.618  25.195   4.697
48219W        W16437  36.500  29.004   1.253
48220W        W16438  24.516  13.385  14.948
48221W        W16439  21.671   9.112  12.014
48222W        W16440  24.693  34.845  11.488
48223W        W16441  13.151  32.700   1.868
48224W        W16442  37.512  21.175  13.502
48225W        W16443   9.628  32.191   1.851
48226W        W16444   4.312  27.955  13.895
48227W        W16445  30.235  14.222   3.754
48228W        W16446  28.860  15.981   4.307
48229W        W16447  14.012  44.097   3.239
48230W        W16448  27.547  15.219  11.151
48231W        W16449   0.782  35.692  10.812
48232W        W16450  22.110  29.477  14.897
48233W        W16451   8.627  13.260  13.448
48234W        W16452  15.222  41.654  13.928
48235W        W16453  16.558  23.856   3.232
48236W        W16454   7.404  19.515   1.481
48237W        W16455  36.498  10.836   3.132
48238W        W16456  15.783   2.950  11.230
48239W        W16457  40.918  33.965  14.931
48240W        W16458  34.700  18.051  10.674
48241W        W16459  29.353   0.690   0.141
48242W        W16460   8.289  27.792   3.748
48243W        W16461  30.862  10.876  10.644
48244W        W16462  20.660  31.542  13.824
48245W        W16463  31.797  19.095  14.360
48246W        W16464  36.475  12.358   1.027
48247W        W16465   3.755  33.101   0.349
48248W        W16466   1.296  28.111   0.982
48249W        W16467  43.513  24.526   3.694
48250W        W16468  29.470  44.415   5.148
48251W        W16469  23.457   8.771  10.567
48252W        W16470  16.715  33.569  14.133
48253W        W16471  35.836   3.382   4.058
48254W        W16472  23.068   0.359   3.650
48255W        W16473  27.546  17.041  11.996
48256W        W16474  35.505   8.687  10.544
48257W        W16475   6.537  35.426   1.778
48258W        W16476  26.592  33.083   5.046
48259W        W16477   5.914  10.753   4.573
48260W        W16478  40.389  31.087  13.761
48261W        W16479  38.447  12.272  14.978
48262W        W16480   8.177  36.026  10.754
48263W        W16481  14.643  34.608  10.804
48264W        W16482   2.540  29.110  14.355
48265W        W16483  30.387  14.888  11.571
48266W        W16484   8.354   5.915   2.790
48267W        W16485  16.930  28.257  10.178
48268W        W16486  10.398  24.453  13.947
48269W        W16487  19.191  28.477  14.448
48270W        W16488  10.340  12.275   4.468
48271W        W16489  34.060   1.537   0.922
48272W        W16490  38.481   2.447   1.431
48273W        W16491  40.358  31.343   5.016
48274W        W16492   4.408  38.560  12.962
48275W        W16493  11.124  30.727   0.631
48276W        W16494  37.395  35.810  13.785
48277W        W16495  22.830  35.048  14.011
48278W        W16496  29.774  33.955   3.176
48279W        W16497   4.963  23.157   1.011
48280W        W16498  41.391  21.105  14.162
48281W        W16499  17.129  23.872   4.515
48282W        W16500   3.005  40.302   2.186
48283W        W16501  23.185  31.882   1.272
48284W        W16502  15.474  17.064  11.089
48285W        W16503  15.573  14.150   0.302
48286W        W16504  14.219  41.271  11.153
48287W        W16505  12.611  43.498  10.313
48288W        W16506  15.816  22.229   0.347
48289W        W16507   7.420  38.149  11.529
48290W        W16508  44.988  36.464  13.007
48291W        W16509   2.170  26.532  11.942
48292W        W16510  20.623  24.885  12.800
48293W        W16511  24.698  21.635  13.063
48294W        W16512  23.723  23.750  11.571
48295W        W16513  16.595  16.797   0.339
48296W        W16514  43.319  33.294  13.976
48297W        W16515  10.400  44.886  10.644
48298W        W16516  15.499  15.592   3.681
48299W        W16517  24.200  24.208  13.466
48300W        W16518   6.024   1.340   4.870
48301W        W16519  39.545   8.406   0.471
48302W        W16520  33.251  29.487   4.192
48303W        W16521   3.415  24.747   4.320
48304W        W16522  20.134  44.991  10.767
48305W        W16523  20.954   8.252   4.587
48306W        W16524  36.422  26.169   0.406
48307W        W16525   6.229   4.414  14.349
48308W        W16526   4.410   7.578  11.151
48309W        W16527  20.075  26.123   1.752
48310W        W16528  43.744  16.087  11.981
48311W        W16529  44.880   5.357  11.907
48312W        W16530   8.222  43.969  10.562
48313W        W16531  16.699  12.351   4.278
48314W        W16532  36.587  25.165  13.890
48315W        W16533  41.017  10.434  11.401
48316W        W16534  12.797  28.600   3.357
48317W        W16535  29.003  30.126   1.880
48318W        W16536  24.589  33.672  12.537
48319W        W16537   5.787   4.353   0.953
48320W        W16538   1.991  27.710   3.766
48321W        W16539   0.063  43.744  10.998
48322W        W16540  16.000   4.229   4.322
48323W        W16541  24.195  13.610   0.336
48324W        W16542  40.578  20.819  12.998
48325W        W16543  28.252  30.104   3.240
48326W        W16544  10.284  23.057   0.259
48327W        W16545  24.850  12.203   1.230
48328W        W16546  10.814  25.204   1.352
48329W        W16547  10.215   7.723  10.641
48330W        W16548  24.244  26.954  12.787
48331W        W16549   1.990  40.032   2.689
48332W        W16550  42.415  15.677  14.343
48333W        W16551   5.567   0.789   3.586
48334W        W16552   8.372  17.643   5.357
48335W        W16553  22.076  19.150   4.277
48336W        W16554  18.310  43.219  14.444
48337W        W16555   9.067  11.847  14.103
48338W        W16556   0.550   3.023   4.809
48339W        W16557  13.411  43.501   0.310
48340W        W16558  31.070  10.757   1.428
48341W        W16559  30.951  34.131  13.055
48342W        W16560   8.230  27.981   2.903
48343W        W16561  42.321  30.832  12.934
48344W        W16562  40.304   6.995  13.758
48345W        W16563  22.268  15.772  11.523
48346W        W16564   5.291  16.907   1.767
48347W        W16565  15.047  26.154   2.544
48348W        W16566  20.361  23.777  11.996
48349W        W16567  41.919  31.525   0.808
48350W        W16568  15.363  18.710   5.007
48351W        W16569  40.370  42.112  12.718
48352W        W16570  35.610  31.728   3.290
48353W        W16571   6.455  42.640  11.661
48354W        W16572   2.611  20.118  10.925
48355W        W16573  26.490  30.253  14.093
48356W        W16574  27.436  30.749   1.890
48357W        W16575   3.528  17.252  12.719
48358W        W16576  16.203  39.258   0.972
48359W        W16577   5.325  24.525  14.225
48360W        W16578  43.900  44.554  13.060
48361W        W16579   0.286  37.114   1.869
48362W        W16580  34.069   3.226   4.198
48363W        W16581  29.385  17.067  14.620
48364W        W16582   1.294  12.272  11.876
48365W        W16583  32.557  22.286  10.078
48366W        W16584  37.277  44.035   5.134
48367W        W16585   6.800   4.644  14.516
48368W        W16586   3.186  18.914  12.742
48369W        W16587   1.401  41.805  13.055
48370W        W16588  10.401  15.123  14.225
48371W        W16589  38.284   9.780   0.363
48372W        W16590   6.778   9.793  14.741
48373W        W16591  24.220   4.349   3.187
48374W        W16592   6.941  36.191   0.098
48375W        W16593  32.978   2.315  14.971
48376W        W16594   7.407  17.609  14.892
48377W        W16595  18.070  23.302   2.821
48378W        W16596  13.156  28.474   3.687
48379W        W16597  15.978  26.651  14.491
48380W        W16598  40.004   5.830   0.047
48381W        W16599  12.586  36.555   2.354
48382W        W16600  32.062  18.180   3.821
48383W        W16601  39.658  36.935  12.925
48384W        W16602  38.181   5.615   4.894
48385W        W16603  22.648  22.486   4.173
48386W        W16604  34.231  39.262   1.771
48387W        W16605  21.161  29.264   1.907
48388W        W16606  15.509  12.823   1.688
48389W        W16607   9.632  14.538  12.856
48390W        W16608  18.505  19.125  14.552
48391W        W16609  12.827   6.791  13.519
48392W        W16610  25.967  17.385   5.115
48393W        W16611   7.096  43.273  12.463
48394W        W16612  22.718  22.744   0.901
48395W        W16613   2.605   6.740  10.457
48396W        W16614  16.668  39.248   2.194
48397W        W16615  38.932  17.741   4.618
48398W        W16616  36.295  19.324   3.375
48399W        W16617  32.612   0.943  13.136
48400W        W16618  11.466   8.713  12.092
48401W        W16619  20.786  40.845   2.314
48402W        W16620  23.652  31.428   4.236
48403W        W16621  14.019  11.444   1.872
48404W        W16622   4.800  36.901   0.924
48405W        W16623   8.246  24.719  11.106
48406W        W16624  43.339  23.226  12.116
48407W        W16625  38.361  28.933   1.894
48408W        W16626  17.668  41.329   4.218
48409W        W16627  22.712  36.927   0.273
48410W        W16628  34.117  15.331   3.808
48411W        W16629  42.718   9.286  13.339
48412W        W16630   5.437  29.099   0.059
48413W        W16631  11.258  31.533   4.373
48414W        W16632  15.077  41.955   2.968
48415W        W16633  26.820  33.282   2.631
48416W        W16634   3.445   7.652  11.488
48417W        W16635   5.000  27.557  14.402
48418W        W16636  21.241   9.554   4.403
48419W        W16637  21.377  41.531  10.384
48420W        W16638  19.489  36.370  14.699
48421W        W16639  37.877  33.171   1.852
48422W        W16640  31.908  40.077   4.086
48423W        W16641  27.996  15.082   0.672
48424W        W16642   0.281  38.358   4.234
48425W        W16643  36.470  13.552  13.070
48426W        W16644  33.428  23.327  13.614
48427W        W16645  14.170  28.589  13.043
48428W        W16646  43.429  29.475  10.745
48429W        W16647  17.580  35.939   1.834
48430W        W16648   7.327  31.572   4.104
48431W        W16649  35.519  16.305  11.906
48432W        W16650  11.768   3.907   1.720
48433W        W16651  38.235  15.626  13.823
48434W        W16652  33.613  17.241   3.224
48435W        W16653  42.058  20.977  11.284
48436W        W16654  14.147  35.557   1.043
48437W        W16655  37.117  25.594   4.997
48438W        W16656  20.618  26.476  14.061
48439W        W16657  38.902   3.231  13.742
48440W        W16658  43.418  28.974   4.812
48441W        W16659  39.878  11.157  14.530
48442W        W16660  28.372  30.895   2.855
48443W        W16661  16.445  37.676  14.545
48444W        W16662  26.349  12.740  14.431
48445W        W16663  40.431   6.704  14.750
48446W        W16664   8.315  14.935   5.404
48447W        W16665  32.750  31.276  12.437
48448W        W16666  29.242   2.988   2.406
48449W        W16667  28.611  12.092   1.309
48450W        W16668   1.783  22.649  10.991
48451W        W16669  38.344   6.702   1.988
48452W        W16670   9.346  39.852   9.986
48453W        W16671  37.645  21.056   3.596
48454W        W16672  22.252  37.218  11.939
48455W        W16673  22.258  15.235  14.956
48456W        W16674  41.866  44.804   3.298
48457W        W16675  10.724  34.552   4.525
48458W        W16676  32.589  32.425   1.380
48459W        W16677  35.583  14.316  13.502
48460W        W16678   1.292   8.393  13.276
48461W        W16679  20.303  37.103   3.105
48462W        W16680  38.322   4.556   1.414
48463W        W16681  17.720  34.834  13.104
48464W        W16682  37.277  20.012  11.100
48465W        W16683  43.925   7.810  10.721
48466W        W16684   7.059  40.188   5.428
48467W        W16685  39.087  32.631  12.377
48468W        W16686  26.707  25.638   4.629
48469W        W16687  31.056  34.888  12.597
48470W        W16688  19.623  20.230  13.392
48471W        W16689  29.406  41.866  14.413
48472W        W16690   9.293   8.237   2.161
48473W        W16691  36.436  23.174  11.578
48474W        W16692  31.124  36.956   1.336
48475W        W16693  13.386  41.951  14.866
48476W        W16694  38.846  16.794  14.388
48477W        W16695   9.292  10.608   1.858
48478W        W16696  12.709  21.073   3.245
48479W        W16697  12.195  21.548  11.397
48480W        W16698  11.299  40.451  13.386
48481W        W16699  11.302  14.824  13.782
48482W        W16700  35.860   1.158  13.545
48483W        W16701  24.131  43.904  10.637
48484W        W16702  36.458  43.209  13.833
48485W        W16703  18.515  27.895  10.259
48486W        W16704  27.098  25.601  10.239
48487W        W16705  18.511  34.463   0.281
48488W        W16706  42.755  31.270  12.534
48489W        W16707  28.592  14.308  14.956
48490W        W16708   8.579  21.700   3.156
48491W        W16709  25.679  20.302  10.682
48492W        W16710  29.152  11.272  12.870
48493W        W16711  38.152   0.452  11.672
48494W        W16712  13.587  19.603  14.544
48495W        W16713   5.188  41.333   2.175
48496W        W16714  25.201  40.197   4.727
48497W        W16715  18.016  30.646   2.297
48498W        W16716   4.415  31.227   2.270
48499W        W16717  26.714  26.202  13.360
48500W        W16718  29.656  34.554   0.945
48501W        W16719  28.448  23.926  12.112
48502W        W16720  39.478  37.470   0.261
48503W        W16721  20.625   5.947   3.314
48504W        W16722   0.099  29.554  14.738
48505W        W16723  38.499  36.987  10.625
48506W        W16724   5.979   2.955  13.573
48507W        W16725  19.123  26.378  11.237
48508W        W16726  22.009  33.312   1.344
48509W        W16727  44.739  39.037   0.832
48510W        W16728   2.081  15.753  13.316
48511W        W16729  32.658  19.305   3.945
48512W        W16730  30.209  29.040  10.783
48513W        W16731   5.822   2.331  12.972
48514W        W16732  14.895  32.203  11.655
48515W        W16733  26.729  16.401   4.188
48516W        W16734  35.981  28.480  13.085
48517W        W16735  20.045  26.236   0.894
48518W        W16736  20.305  12.682   2.294
48519W        W16737  10.226  15.599  10.612
48520W        W16738  23.089  38.392   3.266
48521W        W16739  38.517   9.127   3.191
48522W        W16740   5.724  22.705  12.143
48523W        W16741  14.810   8.179   1.978
48524W        W16742  44.362  43.515  12.366
48525W        W16743  24.950  31.867   3.305
48526W        W16744  19.156  23.734  10.662
48527W        W16745  41.240  24.200  11.157
48528W        W16746  28.489   4.422   2.777
48529W        W16747  27.321  36.120  11.457
48530W        W16748  42.278  13.888  12.570
48531W        W16749  11.073  39.288   1.312
48532W        W16750  43.344  28.457   1.686
48533W        W16751  15.116  20.281  13.991
48534W        W16752  17.478  26.473  11.060
48535W        W16753  39.281  40.571  13.018
48536W        W16754  14.806  23.636   1.244
48537W        W16755  28.582   4.263  14.493
48538W        W16756   3.919  32.047   0.865
48539W        W16757   1.863  31.585   4.520
48540W        W16758  27.000   1.291  12.682
48541W        W16759  28.000  36.328   0.750
48542W        W16760  30.335  22.481  12.261
48543W        W16761   0.281  31.603   2.446
48544W        W16762  37.068   3.780  14.268
48545W        W16763  33.627  36.085  13.078
48546W        W16764  18.226  41.965  12.973
48547W        W16765  41.056  42.121   1.513
48548W        W16766  24.438  44.364  11.171
48549W        W16767  25.967  20.984  12.077
48550W        W16768   7.083  26.470  10.539
48551W        W16769   7.357   2.362   2.673
48552W        W16770  18.444  39.020   2.818
48553W        W16771  31.694  12.275  14.369
48554W        W16772  33.469  42.239  12.927
48555W        W16773  22.678  21.688   0.851
48556W        W16774  37.075  25.040   3.294
48557W        W16775  40.915  37.398  12.445
48558W        W16776  43.288  43.346   3.301
48559W        W16777  39.830  36.467  11.168
48560W        W16778  42.437  11.837  11.846
48561W        W16779  21.626  33.652   1.460
48562W        W16780  19.581  43.857  11.410
48563W        W16781  28.023  16.527   4.550
48564W        W16782   6.725  23.184   2.784
48565W        W16783  36.796  38.388   4.594
48566W        W16784   6.257  17.951   4.534
48567W        W16785  24.483   8.161   3.745
48568W        W16786  23.093  25.555   1.720
48569W        W16787  34.377  37.584   4.525
48570W        W16788  35.481   1.297   0.526
48571W        W16789   3.569   5.768   2.667
48572W        W16790  35.741   9.326  11.688
48573W        W16791   1.812  44.907   3.401
48574W        W16792  39.066  14.935  11.869
48575W        W16793  14.293  32.649  13.383
48576W        W16794  27.936   4.678  10.122
48577W        W16795  15.010  11.088   0.960
48578W        W16796   0.744  26.202   4.446
48579W        W16797  13.283  26.526  14.859
48580W        W16798  24.216  16.124   4.814
48581W        W16799  28.801   1.887   1.882
48582W        W16800  15.319  41.256   0.055
48583W        W16801  26.900  24.208   1.885
48584W        W16802  40.454  33.085   2.272
48585W        W16803  18.298  12.833  12.994
48586W        W16804   8.144  24.467   0.289
48587W        W16805  40.519  14.275  13.367
48588W        W16806  31.669   4.256  11.324
48589W        W16807  37.535   8.663   0.759
48590W        W16808   8.090  10.511   0.540
48591W        W16809  28.137  41.444   3.213
48592W        W16810  43.349  37.645   1.836
48593W        W16811  23.574   3.845  11.457
48594W        W16812   3.834  13.246  12.652
48595W        W16813   0.961   3.558   0.159
48596W        W16814  41.699  22.481   4.360
48597W        W16815  44.422  23.659  12.502
48598W        W16816  24.243  33.940   0.097
48599W        W16817  11.150   4.419   1.748
48600W        W16818  25.660   4.328  10.767
48601W        W16819  43.460   3.275   0.831
48602W        W16820  32.946  43.738  14.061
48603W        W16821  18.701  36.103  10.544
48604W        W16822  37.977   9.221   3.922
48605W        W16823   3.858  34.952   4.996
48606W        W16824   1.526  31.005  12.634
48607W        W16825  31.553  34.178  14.288
48608W        W16826  36.259   9.154  11.126
48609W        W16827  29.104  36.970   1.487
48610W        W16828   6.804  18.830   0.016
48611W        W16829  37.065   2.386   3.110
48612W        W16830  16.016  24.101   0.385
48613W        W16831  28.946  39.192  11.380
48614W        W16832  12.609  14.749  13.314
48615W        W16833  40.972  31.018   1.342
48616W        W16834  42.011  12.700  11.619
48617W        W16835   1.265  20.237   1.307
48618W        W16836  36.534  32.146   1.623
48619W        W16837  29.832   5.424   1.385
48620W        W16838  17.894  26.032  11.078
48621W        W16839  25.312   2.182   3.653
48622W        W16840  14.755   7.363   1.281
48623W        W16841  29.865   9.746   0.124
48624W        W16842  24.988  25.824   1.797
48625W        W16843  31.516  12.498   3.379
48626W        W16844  20.609  41.358  12.400
48627W        W16845  13.774  24.456  13.982
48628W        W16846   7.717  20.405   0.995
48629W        W16847   0.434  12.211  13.776
48630W        W16848  35.967  11.715  12.548
48631W        W16849  12.531  14.797  12.803
48632W        W16850  41.892  40.363   1.303
48633W        W16851  27.687   2.648  12.494
48634W        W16852   0.401  12.896   0.159
48635W        W16853  42.648  41.561   3.382
48636W        W16854  16.350   9.371  11.643
48637W        W16855  29.257  42.535  12.081
48638W        W16856   5.370  40.391  14.869
48639W        W16857  18.131  24.922  12.229
48640W        W16858  22.957   5.156   3.983
48641W        W16859   0.811   3.149  10.391
48642W        W16860  21.878  27.318   1.346
48643W        W16861  20.509  11.671  10.449
48644W        W16862  42.930  37.809  12.030
48645W        W16863  29.732  34.473  10.689
48646W        W16864  12.054  31.913   3.820
48647W        W16865  19.619   7.682  14.974
48648W        W16866  41.840  39.275   1.277
48649W        W16867  17.033  39.002   0.885
48650W        W16868  15.003  30.055   0.729
48651W        W16869  32.531  34.908  14.077
48652W        W16870  36.606  16.803  10.323
48653W        W16871  25.947   8.596   2.682
48654W        W16872  20.833  10.294  10.604
48655W        W16873   5.698  35.878   3.204
48656W        W16874  15.773  11.205   0.382
48657W        W16875  31.863  20.264   4.268
48658W        W16876  37.066  10.122  13.091
48659W        W16877  37.248  40.941   3.939
48660W        W16878   9.991  16.565  14.690
48661W        W16879   2.041  18.267   2.030
48662W        W16880  21.801  23.613  13.563
48663W        W16881  42.736   2.849  12.679
48664W        W16882   1.877  26.518  10.153
48665W        W16883  42.740  26.290   0.041
48666W        W16884  43.237  25.056   2.724
48667W        W16885  34.254  24.964   3.447
48668W        W16886  17.744  17.701   2.112
48669W        W16887  10.146  34.369   1.343
48670W        W16888   4.952   0.796   1.185
48671W        W16889  13.820  27.992   3.611
48672W        W16890   0.960  18.580  13.899
48673W        W16891  35.001  28.400   1.337
48674W        W16892   8.173   9.452  12.471
48675W        W16893  41.559  29.042  13.250
48676W        W16894  36.363  43.457   0.905
48677W        W16895  44.333  43.524   2.333
48678W        W16896   6.892  21.940  10.689
48679W        W16897  18.019  20.090   3.792
48680W        W16898  11.758  36.584   2.636
48681W        W16899   7.248   6.180  13.859
48682W        W16900  17.551  39.488  11.108
48683W        W16901   9.203  15.370   3.846
48684W        W16902  18.771  22.094   0.834
48685W        W16903  42.761  29.074  11.405
48686W        W16904  32.880   5.497   3.943
48687W        W16905  16.883  42.237  13.772
48688W        W16906   7.246  37.049  10.607
48689W        W16907  23.573   2.310  11.671
48690W        W16908   5.026  18.401   1.800
48691W        W16909  34.559  40.435   4.421
48692W        W16910  23.066  25.086   2.941
48693W        W16911  36.430  35.423  10.702
48694W        W16912  31.025  15.339   4.900
48695W        W16913  25.545  32.842   4.599
48696W        W16914  33.560  16.752  10.834
48697W        W16915   3.693  29.496  12.223
48698W        W16916   9.214  19.779   2.659
48699W        W16917   6.771   3.266  13.347
48700W        W16918  32.434  30.506   4.211
48701W        W16919  16.210  29.940  10.724
48702W        W16920   5.993   9.200  14.074
48703W        W16921  42.837  44.768   4.252
48704W        W16922  36.605   0.844   5.289
48705W        W16923  26.955   2.644  10.758
48706W        W16924  15.089  13.961   4.172
48707W        W16925  11.311  34.602  14.906
48708W        W16926  37.474   5.315   1.325
48709W        W16927  26.804   1.198   1.523
48710W        W16928  32.768  25.981   2.345
48711W        W16929   0.998   0.924  11.524
48712W        W16930  26.638  35.580  14.518
48713W        W16931  14.832  42.345   1.421
48714W        W16932  36.893  35.118  13.439
48715W        W16933  16.761   6.913   3.927
48716W        W16934  32.092  19.166   1.325
48717W        W16935  43.792  19.829  12.987
48718W        W16936  35.525  29.037   4.567
48719W        W16937   1.873  33.727   3.273
48720W        W16938  42.367  33.453   1.283
48721W        W16939  42.551  22.595   2.229
48722W        W16940  14.081  35.733  11.114
48723W        W16941  24.039   6.459   3.235
48724W        W16942  36.097  20.599  14.968
48725W        W16943  44.076  26.451   3.281
48726W        W16944  24.743  12.096  11.851
48727W        W16945  40.895  27.155  12.422
48728W        W16946  11.946  40.037   4.610
48729W        W16947   9.707   6.311  13.146
48730W        W16948   9.356  27.150  13.947
48731W        W16949  42.920  32.248   0.383
48732W        W16950  44.547  10.509  12.405
48733W        W16951   2.879   7.516   1.719
48734W        W16952  41.718  12.432  11.968
48735W        W16953  19.021   0.259   3.406
48736W        W16954  36.028  28.132   4.600
48737W        W16955   5.639  15.213   1.930
48738W        W16956   9.149  19.948  11.912
48739W        W16957   5.854  32.947   2.614
48740W        W16958  44.780  39.148  12.939
48741W        W16959  12.995  36.271  11.176
48742W        W16960  29.550  27.879   3.835
48743W        W16961  41.960  35.587   4.656
48744W        W16962   8.866   8.488  13.488
48745W        W16963   5.063  21.010  10.449
48746W        W16964  28.121  27.585   9.864
48747W        W16965   2.186   1.858  10.789
48748W        W16966   0.896   9.998  10.721
48749W        W16967   2.415  28.906   2.673
48750W        W16968   7.143  24.361  13.568
48751W        W16969   9.720   9.652   2.784
48752W        W16970  31.414  41.275  13.287
48753W        W16971  30.742  18.468  12.325
48754W        W16972   3.488  44.832  13.273
48755W        W16973   1.540  38.480   3.597
48756W        W16974  34.947  17.651  12.824
48757W        W16975  25.456   8.950   1.194
48758W        W16976  36.359  33.541   3.770
48759W        W16977  20.148  27.121   3.051
48760W        W16978  18.129   8.926   4.117
48761W        W16979   5.356  44.385   0.458
48762W        W16980  18.740  21.977  11.530
48763W        W16981   0.652  26.702  14.461
48764W        W16982  23.719  24.052   0.244
48765W        W16983   4.892  29.236  14.158
48766W        W16984   4.403  38.350  10.198
48767W        W16985   4.958   7.019  14.858
48768W        W16986  29.817  12.935   1.226
48769W        W16987  18.291  17.248  14.922
48770W        W16988  36.900  36.278   3.840
48771W        W16989   7.908  43.281   0.488
48772W        W16990  20.636  25.032  13.288
48773W        W16991  23.564  18.604   3.879
48774W        W16992   8.676  21.674  12.726
48775W        W16993   2.335  14.710  12.824
48776W        W16994  27.221   9.716  13.240
48777W        W16995  21.232  20.524  11.043
48778W        W16996  39.539  17.204   2.338
48779W        W16997  27.204  43.097   1.286
48780W        W16998  18.513  12.472  10.196
48781W        W16999  16.292  12.169  14.291
48782W        W17000  19.562  39.533   1.229
48783W        W17001   2.249  32.819   2.801
48784W        W17002   3.909  42.287   3.715
48785W        W17003  32.661  28.596   2.140
48786W        W17004   9.178   8.794  10.764
48787W        W17005  16.745  24.572   2.832
48788W        W17006  18.542  11.660  12.496
48789W        W17007   7.729  12.404   1.851
48790W        W17008  14.001  24.034   1.349
48791W        W17009   0.405  32.227   3.833
48792W        W17010   0.269  41.459  13.037
48793W        W17011  28.863  42.268   0.458
48794W        W17012  44.574   4.549  14.469
48795W        W17013  28.576   6.301  14.534
48796W        W17014  38.415   5.447  12.401
48797W        W17015  19.555  32.299  10.700
48798W        W17016  19.148  12.388   1.314
48799W        W17017   3.733   4.734   4.836
48800W        W17018  38.901  11.193  11.215
48801W        W17019   3.395  40.227  11.606
48802W        W17020  39.546  40.981  14.281
48803W        W17021   7.314   0.232   1.885
48804W        W17022  40.060  26.754  14.876
48805W        W17023   1.153  16.281   4.990
48806W        W17024   9.426  37.368  10.774
48807W        W17025   2.369  26.190  12.899
48808W        W17026  21.851   3.827   4.141
48809W        W17027  36.391   0.821  10.353
48810W        W17028  28.935   0.068   4.490
48811W        W17029  35.922  16.934  11.518
48812W        W17030  32.189   1.862   1.413
48813W        W17031  32.532   8.572   1.876
48814W        W17032  43.201  24.590   1.204
48815W        W17033   3.987  37.499  14.061
48816W        W17034  17.773  42.226  13.941
48817W        W17035  42.804  27.477  10.000
48818W        W17036  36.421   1.163   3.271
48819W        W17037  16.139  18.982   1.302
48820W        W17038   6.404   1.374   0.408
48821W        W17039  29.195  25.067  10.634
48822W        W17040  22.164   6.829   4.594
48823W        W17041  28.414  24.417  12.011
48824W        W17042  34.848  12.977  12.630
48825W        W17043  40.405  44.377  12.532
48826W        W17044  35.020  23.230   1.010
48827W        W17045  31.503   9.336   3.123
48828W        W17046   7.017   5.778  12.954
48829W        W17047  14.301   9.872   1.637
48830W        W17048  30.088  32.360   3.175
48831W        W17049  17.188  36.849  13.400
48832W        W17050   8.129  31.815   1.640
48833W        W17051  29.417  25.014  11.156
48834W        W17052  14.810  22.117   2.259
48835W        W17053   6.897  20.516  13.806
48836W        W17054  25.264   5.411  14.801
48837W        W17055  13.031  21.615   4.148
48838W        W17056  15.343   3.168   1.884
48839W        W17057  37.009   4.486  10.634
48840W        W17058  23.777  10.581  10.729
48841W        W17059  26.816  34.738  10.552
48842W        W17060  36.236   8.057  14.898
48843W        W17061  35.771  14.768  12.638
48844W        W17062  18.638  22.074  13.300
48845W        W17063  36.128  34.000  14.364
48846W        W17064  25.688  29.958  12.497
48847W        W17065   4.437   9.123  11.426
48848W        W17066   5.332  17.608  13.408
48849W        W17067  22.924  31.139  11.945
48850W        W17068  30.374  16.111   1.866
48851W        W17069  19.295  28.914   1.880
48852W        W17070  13.247   0.701  14.923
48853W        W17071  39.343  38.387  11.212
48854W        W17072   5.290   5.105  10.912
48855W        W17073  22.454  29.054  12.142
48856W        W17074  19.363  29.902  12.938
48857W        W17075  13.441  40.320   5.100
48858W        W17076  11.759  15.375   3.037
48859W        W17077   8.570  37.321  10.684
48860W        W17078   7.657  32.475   1.499
48861W        W17079   1.003  37.400  14.247
48862W        W17080  18.785  17.316   0.028
48863W        W17081  34.395   4.074   4.254
48864W        W17082  13.066  33.212  12.428
48865W        W17083  30.997  28.380   3.650
48866W        W17084   2.237   2.909   3.655
48867W        W17085  35.824  26.970   1.207
48868W        W17086  15.088  10.153   0.795
48869W        W17087  31.356  35.063  12.188
48870W        W17088  23.972  30.052   4.134
48871W        W17089  25.288  23.685  11.110
48872W        W17090   7.246  25.136   0.884
48873W        W17091   9.312  30.146  14.890
48874W        W17092  12.775  10.865  12.989
48875W        W17093  37.847  44.398   0.816
48876W        W17094   6.254   4.142  13.891
48877W        W17095  20.243   6.791  13.664
48878W        W17096  20.923   8.078   1.428
48879W        W17097  24.796  34.973  10.762
48880W        W17098  10.259  31.196   0.273
48881W        W17099  26.804   2.840  14.417
48882W        W17100  26.810  16.871   1.353
48883W        W17101  36.869   1.131  10.369
48884W        W17102   6.361  28.569   0.252
48885W        W17103  26.276  37.870   4.539
48886W        W17104  19.626  17.133   2.127
48887W        W17105  36.755  44.685  12.564
48888W        W17106  23.158  40.033  10.523
48889W        W17107  26.775  22.702  12.030
48890W        W17108   0.256  23.954   3.893
48891W        W17109  24.117  42.056  14.764
48892W        W17110   2.799  29.610  11.243
48893W        W17111  24.177  41.318   2.018
48894W        W17112   0.295   0.500  10.379
48895W        W17113  24.827  20.065  11.276
48896W        W17114  19.526  29.410   0.799
48897W        W17115  14.921  15.351  14.184
48898W        W17116  12.057  27.021   0.752
48899W        W17117  39.438  39.380   3.171
48900W        W17118  31.601  23.936   4.777
48901W        W17119  23.912   9.901   4.153
48902W        W17120  40.059   7.605  11.573
48903W        W17121  14.380   0.882   4.989
48904W        W17122  42.815  44.343  12.478
48905W        W17123  12.778   7.117  13.908
48906W        W17124  34.620  43.929   2.316
48907W        W17125  15.128  19.554   4.656
48908W        W17126  27.386  43.289  12.697
48909W        W17127  13.478  26.844  10.755
48910W        W17128  21.064   8.836   3.271
48911W        W17129  27.668  34.225   0.928
48912W        W17130  17.214  25.085  13.800
48913W        W17131  21.683   4.669  14.943
48914W        W17132  27.346  42.398  11.999
48915W        W17133  43.488  18.766  10.712
48916W        W17134  37.481   8.159   4.740
48917W        W17135  35.449  34.868   2.671
48918W        W17136  32.690  14.390   4.966
48919W        W17137   9.258  32.634   3.204
48920W        W17138  31.459  15.275   2.622
48921W        W17139  18.658  19.174  11.055
48922W        W17140  27.654  38.458   4.878
48923W        W17141  22.462   7.793  12.937
48924W        W17142  20.062  39.767  10.625
48925W        W17143  30.632  44.495   4.411
48926W        W17144  16.730  34.647  14.771
48927W        W17145  31.594  23.553   1.677
48928W        W17146   7.161  10.994  12.006
48929W        W17147  33.266  38.916  10.702
48930W        W17148   5.880  24.213   3.477
48931W        W17149  42.224  36.883   0.190
48932W        W17150  38.909  30.861  14.710
48933W        W17151  21.045  34.444   4.888
48934W        W17152  20.510  25.081  12.055
48935W        W17153   6.385   0.380  13.982
48936W        W17154  34.109  13.640   4.108
48937W        W17155  28.340   7.124  12.108
48938W        W17156  37.911   4.339   2.669
48939W        W17157   5.684  43.442  14.751
48940W        W17158  21.296  42.577   1.277
48941W        W17159  25.139  19.153  13.774
48942W        W17160  19.927  40.464  11.179
48943W        W17161  32.863  27.676   0.942
48944W        W17162   9.591  28.600   3.181
48945W        W17163  17.613  36.839   0.789
48946W        W17164  32.825  11.715  14.515
48947W        W17165  19.330  35.814  11.593
48948W        W17166  39.075  12.153   2.837
48949W        W17167  28.159  34.198  13.879
48950W        W17168   9.187   4.224   4.001
48951W        W17169  27.877  44.468  14.905
48952W        W17170  27.231   9.412  11.227
48953W        W17171  36.807  28.886  11.130
48954W        W17172  35.303   7.425  11.147
48955W        W17173   8.911  33.895   2.735
48956W        W17174  31.406   2.893   1.581
48957W        W17175   9.472   6.849  11.219
48958W        W17176   3.699  28.701  13.349
48959W        W17177  11.336  26.490   1.216
48960W        W17178   2.988  36.332   0.231
48961W        W17179  37.392  44.971   4.649
48962W        W17180  28.420  44.366   2.090
48963W        W17181  30.993   8.196  14.531
48964W        W17182  28.391  44.634   1.659
48965W        W17183   0.320  43.768   4.185
48966W        W17184  42.899  19.003  12.659
48967W        W17185  31.355  10.810  10.731
48968W        W17186  22.567  21.777  13.888
48969W        W17187  30.414  35.516  12.828
48970W        W17188   7.512   9.830   4.517
48971W        W17189  22.929  37.636  12.501
48972W        W17190  28.485   0.845  11.148
48973W        W17191  31.577  33.915   0.181
48974W        W17192  26.964  11.847  14.893
48975W        W17193  34.151  18.209   2.843
48976W        W17194  33.028  23.438  11.071
48977W        W17195  35.246  43.896  10.676
48978W        W17196  12.814  17.705  11.400
48979W        W17197  30.399   9.879  12.895
48980W        W17198  36.375   5.481   2.858
48981W        W17199  23.505  44.766  12.688
48982W        W17200   4.299  44.074   5.476
48983W        W17201  10.006   0.774   3.891
48984W        W17202  36.077   0.981  14.013
48985W        W17203  17.988  38.459   4.566
48986W        W17204  39.635  10.133  13.735
48987W        W17205  29.725  44.731   0.374
48988W        W17206   7.826  27.223   0.458
48989W        W17207  40.999  10.840  10.722
48990W        W17208   9.788  38.342   2.876
48991W        W17209  40.485  22.557  12.793
48992W        W17210  13.835  24.715   0.718
48993W        W17211   0.304  25.513  11.834
48994W        W17212  40.731  36.566   0.401
48995W        W17213  34.869   9.765  12.880
48996W        W17214  41.680  27.139   3.259
48997W        W17215  39.868  20.282   1.329
48998W        W17216  31.527  21.582  13.768
48999W        W17217  43.432   8.830   4.652
49000W        W17218  15.354  41.342   2.334
49001W        W17219  44.796   2.551  13.734
49002W        W17220   4.415  14.810   1.886
49003W        W17221  12.388  32.895   0.382
49004W        W17222  42.492  40.367  10.595
49005W        W17223  34.145  41.983  12.250
49006W        W17224  27.184  26.197  11.448
49007W        W17225  23.366   6.265   1.710
49008W        W17226   9.440  30.121   3.102
49009W        W17227  43.601  34.881   2.386
49010W        W17228  42.672  19.412   2.828
49011W        W17229  22.562  38.390   2.726
49012W        W17230  19.324  33.255  14.027
49013W        W17231  28.700  28.003  13.878
49014W        W17232   4.707  13.872   3.947
49015W        W17233  26.495  12.523  10.058
49016W        W17234   6.007  37.957   1.711
49017W        W17235  11.637  34.481  12.642
49018W        W17236  17.145   5.558  10.258
49019W        W17237   9.277  11.298   3.226
49020W        W17238   9.701  21.228   0.384
49021W        W17239  26.414  18.430   3.832
49022W        W17240  31.591  38.852   0.856
49023W        W17241   6.684  17.869   3.197
49024W        W17242  38.663  33.363   3.381
49025W        W17243  32.242  15.684   4.117
49026W        W17244  34.319  31.411   0.865
49027W        W17245  44.560  18.120  10.331
49028W        W17246  35.566   4.709  14.793
49029W        W17247   4.703  22.777  12.649
49030W        W17248   7.812   9.906   3.664
49031W        W17249  13.229   7.673   0.831
49032W        W17250  34.662   9.141   1.613
49033W        W17251  32.069  17.746  11.596
49034W        W17252   5.424   2.419  14.889
49035W        W17253  33.842   9.310  13.421
49036W        W17254   9.096  20.957   4.803
49037W        W17255  15.240  27.895  10.561
49038W        W17256  15.048   4.466   3.282
49039W        W17257   2.345   2.952   1.841
49040W        W17258  31.215  17.718  13.983
49041W        W17259  12.969   6.582  10.708
49042W        W17260  15.740   8.072  10.207
49043W        W17261  11.567  40.556  12.076
49044W        W17262  36.499  13.019   3.589
49045W        W17263  26.949  40.279  11.793
49046W        W17264   4.436  23.464  10.675
49047W        W17265  23.746  25.164  14.003
49048W        W17266  12.185   9.619  10.337
49049W        W17267  20.363  32.103  10.558
49050W        W17268  32.048  30.533  14.099
49051W        W17269  31.683  23.031   2.261
49052W        W17270  32.098  34.517   0.658
49053W        W17271  24.600   5.352   1.620
49054W        W17272  15.769  35.059  14.787
49055W        W17273  11.176  17.093  11.335
49056W        W17274  29.037   6.294  13.800
49057W        W17275   4.068  16.491   1.356
49058W        W17276  24.624  18.746   0.467
49059W        W17277  13.176  12.566   4.929
49060W        W17278  44.260  40.811  13.440
49061W        W17279  26.520   2.321   0.527
49062W        W17280   7.385   9.119  10.622
49063W        W17281   9.178  18.665  11.071
49064W        W17282  24.247   8.574  12.579
49065W        W17283  35.519  43.640   1.037
49066W        W17284  20.191  14.516  10.988
49067W        W17285  33.159  11.052  11.066
49068W        W17286  31.131   4.399  11.159
49069W        W17287   9.315  42.355   1.491
49070W        W17288   3.891  34.802   2.667
49071W        W17289   9.812  41.457   0.306
49072W        W17290  41.010  26.107  14.628
49073W        W17291  41.979   5.858   0.471
49074W        W17292  33.598  29.315   5.008
49075W        W17293  32.676  38.527  13.448
49076W        W17294  12.743   7.087   2.836
49077W        W17295  13.355  18.085  14.901
49078W        W17296  35.706  32.577  12.681
49079W        W17297  29.381   8.204  12.146
49080W        W17298  35.098  34.485  14.904
49081W        W17299   1.455   9.548   0.661
49082W        W17300  33.581   9.055   2.547
49083W        W17301  44.605  24.277   2.264
49084W        W17302   0.024   3.260  10.462
49085W        W17303  44.359  30.651  12.674
49086W        W17304  41.951  12.227  12.942
49087W        W17305   0.195  16.584  13.342
49088W        W17306  43.069  22.692   2.273
49089W        W17307  35.581  32.865  13.477
49090W        W17308  41.297  18.960  14.778
49091W        W17309  41.875  14.589  12.175
49092W        W17310  17.351   6.865   1.261
49093W        W17311  30.230  34.097  14.419
49094W        W17312  20.941  22.908  11.078
49095W        W17313  36.028  12.165   0.847
49096W        W17314  24.086  43.314   0.379
49097W        W17315   2.697  29.482   0.785
49098W        W17316  42.048  30.659  12.503
49099W        W17317  43.666  44.980  10.953
49100W        W17318  34.060  34.965  10.990
49101W        W17319  10.618   4.512  11.785
49102W        W17320  20.280  11.293  13.619
49103W        W17321  36.593  42.233   1.767
49104W        W17322  15.173  33.145   4.512
49105W        W17323  11.402  31.684  12.402
49106W        W17324   4.490  27.480  12.356
49107W        W17325   2.504  34.675   0.272
49108W        W17326  41.134  30.863  13.377
49109W        W17327   4.389   5.945  12.325
49110W        W17328  42.498  21.137  10.449
49111W        W17329  34.047   7.621   3.634
49112W        W17330   6.967   0.750  11.113
49113W        W17331  40.468  41.427  13.376
49114W        W17332   1.448   5.734   4.373
49115W        W17333  35.298  13.377   3.629
49116W        W17334  20.330  26.156  13.287
49117W        W17335  30.630  31.981  13.287
49118W        W17336  25.538  19.500  10.234
49119W        W17337   3.554  18.369  11.986
49120W        W17338  38.848  28.710  12.063
49121W        W17339  29.115  23.067   4.898
49122W        W17340   2.355  31.154  13.563
49123W        W17341  12.231  26.792  11.168
49124W        W17342  31.652  29.097  11.650
49125W        W17343  29.606  16.837  13.825
49126W        W17344   6.409   2.648  14.825
49127W        W17345  31.050   7.374  12.524
49128W        W17346  43.015  42.344   1.509
49129W        W17347  37.461  29.138   4.126
49130W        W17348  13.155   5.085  11.515
49131W        W17349  34.591  12.599   2.212
49132W        W17350   2.329  27.525   3.298
49133W        W17351  26.576  30.099   1.762
49134W        W17352  41.936  40.098  14.448
49135W        W17353  31.616  26.087   0.742
49136W        W17354  13.799  30.876  13.551
49137W        W17355  18.484   4.848  14.438
49138W        W17356   8.817  44.440   4.633
49139W        W17357  12.295  18.176   4.063
49140W        W17358  41.776  10.080   3.599
49141W        W17359  31.805  17.772   2.286
49142W        W17360  16.856  29.725   3.354
49143W        W17361   6.916  38.965   0.346
49144W        W17362  21.948  15.570   3.191
49145W        W17363  10.579  19.937  14.379
49146W        W17364  26.462  37.766  14.506
49147W        W17365  16.481  17.466  14.769
49148W        W17366   1.971  35.725   1.382
49149W        W17367  41.471  12.510  11.540
49150W        W17368  10.554  21.708  13.058
49151W        W17369   1.841  13.011   3.868
49152W        W17370  17.822  35.836   4.185
49153W        W17371  23.406   6.844  13.178
49154W        W17372   8.105  31.825   3.366
49155W        W17373  27.140  27.705   1.200
49156W        W17374   9.937  24.948  12.525
49157W        W17375  24.969   5.416  13.437
49158W        W17376   3.674  22.321  11.074
49159W        W17377  12.794  14.676   2.388
49160W        W17378  30.037  23.233  14.406
49161W        W17379  21.169  35.548  11.138
49162W        W17380  31.166   0.737  11.959
49163W        W17381  25.146   7.486   2.177
49164W        W17382  24.759  21.503   2.329
49165W        W17383  33.637  26.664   1.679
49166W        W17384  38.831  34.579  14.689
49167W        W17385  39.786  30.706  11.932
49168W        W17386  32.379   5.101  12.359
49169W        W17387  10.184   7.842   4.596
49170W        W17388  38.101  42.612   2.612
49171W        W17389   1.505  30.521  14.790
49172W        W17390  42.478  25.421   0.512
49173W        W17391  15.027  17.606  13.444
49174W        W17392  31.182  20.872   0.771
49175W        W17393  12.326  20.667  11.503
49176W        W17394  10.768  32.993   3.170
49177W        W17395  24.979  14.260  12.169
49178W        W17396   7.308   7.917  13.375
49179W        W17397   8.904  11.765   0.096
49180W        W17398  30.248  18.211   1.448
49181W        W17399   8.947   6.462   2.793
49182W        W17400  26.839  30.915   2.658
49183W        W17401   7.276  10.607   3.144
49184W        W17402   8.779  29.560  11.168
49185W        W17403  34.462   8.514  11.263
49186W        W17404  22.719  38.725  14.500
49187W        W17405  34.173   4.410  10.042
49188W        W17406  23.677  39.587   2.714
49189W        W17407  34.096  43.802  11.163
49190W        W17408  12.000  41.569   1.823
49191W        W17409  14.311   9.971   3.542
49192W        W17410  16.155  44.541   0.790
49193W        W17411  20.137  42.104  11.044
49194W        W17412  10.270   4.919  12.046
49195W        W17413  42.665   9.727  13.611
49196W        W17414  43.752  34.132  11.344
49197W        W17415  31.189  18.611   2.552
49198W        W17416  22.646  16.530  12.067
49199W        W17417  18.976  18.031  14.889
49200W        W17418  28.160  22.060  14.949
49201W        W17419   4.837  20.766  14.574
49202W        W17420  12.310  17.098  14.504
49203W        W17421  42.615  11.353  14.379
49204W        W17422  31.505  29.912  14.405
49205W        W17423  40.317  18.212  11.656
49206W        W17424  19.689  20.633   4.891
49207W        W17425  17.060  15.892   3.764
49208W        W17426   4.377  20.964   4.409
49209W        W17427  37.514  38.291  10.678
49210W        W17428  27.623  38.952   2.246
49211W        W17429  19.615  37.722  10.553
49212W        W17430  15.516  14.809  13.017
49213W        W17431   0.320  15.680  13.867
49214W        W17432  32.096  26.459  14.314
49215W        W17433  13.064  36.975  10.708
49216W        W17434   9.314  32.040  10.745
49217W        W17435   6.341   5.047  11.450
49218W        W17436  27.637  23.098  13.525
49219W        W17437  17.135   9.916   0.274
49220W        W17438  32.030  44.088   1.825
49221W        W17439   1.326  12.502   0.731
49222W        W17440  14.729  19.801   4.444
49223W        W17441   8.171   9.623   3.230
49224W        W17442   2.933  33.780   2.329
49225W        W17443  17.028  42.546   2.298
49226W        W17444  36.680  22.789   5.007
49227W        W17445  28.901  41.259  12.480
49228W        W17446  11.188   2.264   0.923
49229W        W17447  16.041  35.296   2.014
49230W        W17448  29.757   9.696   3.704
49231W        W17449  24.277   2.882  12.794
49232W        W17450  34.848  10.696  11.974
49233W        W17451  13.764  43.923   2.221
49234W        W17452  26.026  35.424  13.841
49235W        W17453  39.374   8.269  10.702
49236W        W17454  39.321  34.798  11.727
49237W        W17455  15.784  37.192   4.272
49238W        W17456   7.618  19.209   0.930
49239W        W17457   7.447  24.652  12.479
49240W        W17458   7.795  25.047   2.164
49241W        W17459  40.113  39.934   3.301
49242W        W17460  26.575   8.247   1.662
49243W        W17461  41.777  26.910  12.448
49244W        W17462  37.486  14.724  11.328
49245W        W17463   6.475  39.618  11.681
49246W        W17464  23.163  35.394  12.859
49247W        W17465  40.380  27.385   2.874
49248W        W17466  24.744   4.387  14.275
49249W        W17467  38.543  14.361   9.960
49250W        W17468   2.994  37.974  11.709
49251W        W17469  33.108  24.868  10.656
49252W        W17470  43.953   3.572  12.067
49253W        W17471  27.404  24.224   3.751
49254W        W17472  23.651  25.913  12.608
49255W        W17473   5.964  40.840   3.105
49256W        W17474   5.709  24.391  13.342
49257W        W17475  31.946  32.591   0.271
49258W        W17476   5.708  30.034   1.158
49259W        W17477  27.698  23.814  12.642
49260W        W17478  38.858  11.610  14.251
49261W        W17479   5.285  43.020   1.164
49262W        W17480   0.809  13.918  14.789
49263W        W17481  33.118  31.175   1.846
49264W        W17482  17.013  26.267   5.043
49265W        W17483  11.253  10.143   3.062
49266W        W17484  27.472  11.417  14.449
49267W        W17485  36.985  32.650   1.682
49268W        W17486  40.787  41.017  14.811
49269W        W17487  41.602   4.186   0.055
49270W        W17488  31.935  11.057   2.314
49271W        W17489  24.125  31.036   2.184
49272W        W17490  39.624   5.188  14.475
49273W        W17491   1.350  32.522   1.341
49274W        W17492  18.918   0.877   1.239
49275W        W17493  41.549  20.696   1.670
49276W        W17494   4.751  41.639  11.138
49277W        W17495  35.105  15.725  13.739
49278W        W17496   8.859  24.744  14.716
49279W        W17497   1.687  40.929  10.505
49280W        W17498  34.051   8.758   0.047
49281W        W17499  21.840  23.479   2.802
49282W        W17500  19.821  31.097   3.297
49283W        W17501  37.624  40.289  10.766
49284W        W17502  19.157   9.890  12.619
49285W        W17503  32.581  32.991   3.340
49286W        W17504   9.881  39.390   1.840
49287W        W17505  32.334   5.442  11.954
49288W        W17506  23.278   1.188   3.633
49289W        W17507  30.330  20.733  14.870
49290W        W17508  35.940  30.757   3.406
49291W        W17509  13.709  23.507   2.423
49292W        W17510  37.537   2.053   1.437
49293W        W17511  32.476   7.636   4.215
49294W        W17512  32.434  36.919   0.386
49295W        W17513  12.676  32.115  11.671
49296W        W17514  29.892  22.097  13.971
49297W        W17515  41.838  23.436   2.157
49298W        W17516  31.488  23.723   2.705
49299W        W17517  13.066  26.704   2.658
49300W        W17518   5.229  44.487   3.603
49301W        W17519   4.540  30.981  11.175
49302W        W17520  41.831  23.550   3.066
49303W        W17521  32.637   5.855  14.784
49304W        W17522   4.007  41.537   1.335
49305W        W17523   3.033   9.964  13.317
49306W        W17524  41.568  42.518  13.437
49307W        W17525  43.858  17.530  13.775
49308W        W17526  25.983  40.899   4.982
49309W        W17527   2.548   2.673   2.320
49310W        W17528  43.396   8.687  13.092
49311W        W17529   2.967  18.635  14.265
49312W        W17530  14.821  36.465   1.479
49313W        W17531  43.319  41.316   0.859
49314W        W17532  19.433  42.267   0.601
49315W        W17533  17.524  38.790   1.796
49316W        W17534  20.315  18.739   0.530
49317W        W17535   3.393  21.413   1.725
49318W        W17536  44.964  29.725  13.856
49319W        W17537  12.162   2.762  10.640
49320W        W17538   6.778  24.242   3.244
49321W        W17539  39.602   2.677  13.927
49322W        W17540   8.161   3.347  13.235
49323W        W17541  39.920  12.059   1.281
49324W        W17542  30.763  41.035  12.571
49325W        W17543  33.155  17.861  14.172
49326W        W17544  32.641  34.166   1.711
49327W        W17545   5.024  34.027  13.831
49328W        W17546   6.230  18.620  14.392
49329W        W17547  22.680  26.450   0.218
49330W        W17548   5.434   4.402  12.590
49331W        W17549  38.259  24.708  11.595
49332W        W17550  24.396  26.435   4.125
49333W        W17551  27.024  26.906   0.851
49334W        W17552  23.460  15.545  12.856
49335W        W17553  37.342  43.548  11.166
49336W        W17554  29.914  39.445   2.369
49337W        W17555   4.822  22.964  14.968
49338W        W17556  12.119   1.104   4.045
49339W        W17557  31.157  39.397  11.089
49340W        W17558  35.510  38.373   4.311
49341W        W17559  37.132  40.871   4.459
49342W        W17560  25.578  33.505  13.890
49343W        W17561  29.517  31.680  11.536
49344W        W17562  10.170   5.485  14.438
49345W        W17563  21.021  35.662  14.250
49346W        W17564  44.233   9.098  14.300
49347W        W17565  35.930  42.922  10.440
49348W        W17566  10.709  10.201   0.321
49349W        W17567  10.064   1.474  14.773
49350W        W17568   4.905  25.914  12.957
49351W        W17569  37.073  24.521   3.347
49352W        W17570  10.384   9.647   4.306
49353W        W17571  35.636  30.518   3.022
49354W        W17572  28.609   2.674   3.230
49355W        W17573  22.016  11.210   0.731
49356W        W17574  13.885  28.558  10.799
49357W        W17575   5.734   1.831  12.110
49358W        W17576  19.020  11.822  13.635
49359W        W17577  20.711  24.601   4.536
49360W        W17578   6.674  36.541   2.271
49361W        W17579  42.500   5.484  12.876
49362W        W17580  32.550  18.026   2.539
49363W        W17581  33.824  43.790   2.706
49364W        W17582  27.965  12.042   0.070
49365W        W17583  10.906   0.475  11.744
49366W        W17584  38.910  23.020  14.605
49367W        W17585  10.390  33.762   0.562
49368W        W17586  27.554  11.141   1.284
49369W        W17587  15.191  43.484   4.604
49370W        W17588  33.065  36.582  12.930
49371W        W17589  29.793  36.685  11.846
49372W        W17590   1.284  27.364   3.671
49373W        W17591  33.381  20.724  12.620
49374W        W17592  14.637  31.765  14.307
49375W        W17593  44.419  31.346  13.367
49376W        W17594  21.267  32.884  12.020
49377W        W17595  15.663  27.962   1.335
49378W        W17596  19.171   5.014  14.578
49379W        W17597  23.671   1.471   2.227
49380W        W17598  30.579  11.209  14.283
49381W        W17599  19.283  36.353   4.496
49382W        W17600  12.519  39.862  14.152
49383W        W17601  35.947  41.065  11.650
49384W        W17602  26.451   6.417   3.417
49385W        W17603  36.864  21.249  14.816
49386W        W17604  26.469   7.064   9.878
49387W        W17605  32.512  16.908   3.726
49388W        W17606  11.655  17.567  12.506
49389W        W17607   9.839  19.342   4.180
49390W        W17608  24.025  37.293  13.917
49391W        W17609   7.914  22.251   0.531
49392W        W17610  19.718   9.285   3.747
49393W        W17611  19.013  20.783   3.199
49394W        W17612  43.033  25.144   3.301
49395W        W17613  43.487  43.245   3.754
49396W        W17614  39.338   9.220  13.048
49397W        W17615  27.689  28.146  12.825
49398W        W17616  33.852  42.077   0.556
49399W        W17617  33.933  35.114   0.997
49400W        W17618  41.339   0.460   4.585
49401W        W17619   0.152  17.609   1.342
49402W        W17620   5.603  20.723   3.917
49403W        W17621  36.464  11.687   0.301
49404W        W17622   1.549   1.364   1.680
49405W        W17623   1.868  13.880  13.764
49406W        W17624   5.357  13.861   3.257
49407W        W17625  19.734  12.172  13.902
49408W        W17626  35.955  32.133   2.828
49409W        W17627   0.175  41.334   4.097
49410W        W17628  15.669  18.769   2.321
49411W        W17629  15.128   4.960   3.187
49412W        W17630  30.086   4.700  12.497
49413W        W17631  32.554   1.959  11.591
49414W        W17632   1.812   6.804  10.646
49415W        W17633  23.962  18.310   3.705
49416W        W17634  22.283  21.519   0.543
49417W        W17635  26.642  29.201  11.490
49418W        W17636  25.839  43.325  13.857
49419W        W17637  33.118  16.314  11.074
49420W        W17638   0.852  11.109   2.222
49421W        W17639   1.449  32.968  12.492
49422W        W17640  44.794  41.486  14.529
49423W        W17641  29.226   1.974  12.881
49424W        W17642  39.770   2.327   2.192
49425W        W17643  28.954  13.176   1.642
49426W        W17644  14.748   9.716  14.167
49427W        W17645  21.515  23.262   3.687
49428W        W17646  17.000  16.283  11.095
49429W        W17647   4.809  37.643   2.155
49430W        W17648  11.654  42.749  13.306
49431W        W17649  14.227  13.344  11.113
49432W        W17650  21.409   7.930   4.617
49433W        W17651  29.640  43.573  10.736
49434W        W17652  20.458   4.652   0.252
49435W        W17653  35.539   6.639   4.129
49436W        W17654  12.729  21.738   0.444
49437W        W17655  25.514  16.738   1.412
49438W        W17656  34.832  35.806  13.638
49439W        W17657  25.458  26.299   4.079
49440W        W17658  27.071  24.970   3.959
49441W        W17659  39.216   6.296  10.708
49442W        W17660  26.513   5.218  13.434
49443W        W17661  18.833  23.356  11.082
49444W        W17662  29.084  26.122  13.607
49445W        W17663  26.243  43.967   0.461
49446W        W17664  26.707   9.685  13.349
49447W        W17665  10.695   2.320   0.770
49448W        W17666  16.349  13.078   0.155
49449W        W17667  25.511  11.688  12.937
49450W        W17668  29.215  21.513  12.426
49451W        W17669   1.223  40.267  11.130
49452W        W17670  29.609  39.863  10.409
49453W        W17671  39.952  41.272  14.392
49454W        W17672  18.620  17.093   0.446
49455W        W17673  11.740  31.890  13.256
49456W        W17674  28.227  22.526  12.134
49457W        W17675  18.264   4.020   2.403
49458W        W17676  26.435  27.962   1.916
49459W        W17677  19.515  19.258  13.593
49460W        W17678  32.591  33.154   0.609
49461W        W17679  26.777  26.851  10.645
49462W        W17680   2.903  21.496   3.654
49463W        W17681   2.999  20.577  11.115
49464W        W17682  37.803  33.265  13.899
49465W        W17683  25.633  19.127  14.059
49466W        W17684  37.348   7.690  10.812
49467W        W17685  29.121  33.078   1.429
49468W        W17686  40.540  17.837  12.081
49469W        W17687  42.234  18.284  14.126
49470W        W17688  15.742  15.381  14.969
49471W        W17689  21.360   3.259   1.664
49472W        W17690   1.518  20.448  13.835
49473W        W17691  34.663  12.852  10.204
49474W        W17692   7.547   8.759   2.156
49475W        W17693  39.268  35.377   2.790
49476W        W17694  10.305   4.449   3.322
49477W        W17695  38.552  19.285   0.250
49478W        W17696  23.316   9.570   2.683
49479W        W17697  25.890  19.535   4.105
49480W        W17698  22.747  43.723  10.734
49481W        W17699  10.630  44.222  13.363
49482W        W17700  40.414  35.435   4.633
49483W        W17701  31.865   8.182  13.299
49484W        W17702  35.361  24.540  11.057
49485W        W17703  22.052  16.035  12.989
49486W        W17704  36.116  44.924  13.829
49487W        W17705   0.232  22.133   1.829
49488W        W17706   2.762  14.765  12.086
49489W        W17707  14.062  32.628   1.736
49490W        W17708  17.689  16.265   9.749
49491W        W17709  23.140   6.266  14.767
49492W        W17710   1.022  13.426  12.483
49493W        W17711  40.857  18.262  13.417
49494W        W17712  31.983  33.185   4.693
49495W        W17713  17.638  31.604   1.871
49496W        W17714  23.736  26.704  12.813
49497W        W17715   9.482  39.060   1.649
49498W        W17716  44.664  37.207   3.729
49499W        W17717   6.038  25.625  14.517
49500W        W17718  11.360  14.310  13.797
49501W        W17719  32.102  11.449   4.480
49502W        W17720  20.143  30.363  10.692
49503W        W17721  29.641  20.793  13.356
49504W        W17722  29.683  43.979   2.462
49505W        W17723   7.992  14.221   3.078
49506W        W17724  42.456  35.320   3.639
49507W        W17725  25.148  32.846   2.630
49508W        W17726  11.629  41.093  14.659
49509W        W17727  32.097  21.358   2.144
49510W        W17728  36.417   2.910  12.358
49511W        W17729  22.537   6.054   1.820
49512W        W17730  13.158  28.043  11.328
49513W        W17731  10.363  27.030   3.654
49514W        W17732  31.614  31.519   3.120
49515W        W17733  32.079   8.850   3.776
49516W        W17734  20.110  37.989   1.815
49517W        W17735   1.275  18.971  14.022
49518W        W17736  11.115  28.601   3.699
49519W        W17737  38.852  42.294   1.391
49520W        W17738   3.283  16.117  11.133
49521W        W17739  10.263  31.614   4.089
49522W        W17740  34.075   4.384   4.538
49523W        W17741  27.077  38.530  12.907
49524W        W17742  38.815  36.914   0.467
49525W        W17743  28.498   9.574  11.693
49526W        W17744   2.318  40.979   3.324
49527W        W17745  12.405  15.288  10.729
49528W        W17746  27.548  41.972   0.653
49529W        W17747  25.856  33.598   2.821
49530W        W17748   8.381  29.327  12.082
49531W        W17749  23.717   9.611   4.600
49532W        W17750  22.236  23.657  11.257
49533W        W17751   4.402  22.182  14.738
49534W        W17752   6.609  43.279  13.856
49535W        W17753  14.228  41.780   5.441
49536W        W17754  18.234  28.971   1.365
49537W        W17755   9.291  21.230  14.273
49538W        W17756  34.650  20.291  10.635
49539W        W17757   5.813  39.305  14.099
49540W        W17758   2.748   9.364   0.171
49541W        W17759  20.727  21.190   0.781
49542W        W17760  15.595  25.173  11.611
49543W        W17761  32.497  10.368   2.339
49544W        W17762  31.341  37.573   2.392
49545W        W17763   2.789  35.987   1.844
49546W        W17764   3.232  44.015   1.794
49547W        W17765   4.899  19.412   3.090
49548W        W17766  32.949   1.010  12.719
49549W        W17767  18.730  24.030  10.681
49550W        W17768  23.039   6.190  10.402
49551W        W17769  21.563  17.532   4.180
49552W        W17770   5.462  27.691  14.218
49553W        W17771   9.928   0.213   2.845
49554W        W17772  31.141   0.440  11.500
49555W        W17773  14.862  31.302   1.238
49556W        W17774  29.120  14.238  12.856
49557W        W17775  20.709  12.640  12.484
49558W        W17776  42.831  25.982   0.974
49559W        W17777   8.945  18.288  13.951
49560W        W17778  10.207  40.924  13.090
49561W        W17779  40.938  40.402  14.764
49562W        W17780  33.911  34.892   3.270
49563W        W17781  44.834  34.344   3.667
49564W        W17782  16.571  12.684   0.877
49565W        W17783   5.214   8.301   3.238
49566W        W17784  36.138  34.867   1.862
49567W        W17785  10.547  40.512  14.746
49568W        W17786  17.574  16.262   3.309
49569W        W17787  18.118  15.626  13.720
49570W        W17788  32.057   3.889  11.918
49571W        W17789  33.038   5.219   0.229
49572W        W17790  20.323  40.764   1.279
49573W        W17791  40.584  27.750  11.657
49574W        W17792  24.214  17.954  11.172
49575W        W17793  18.610  29.621   4.818
49576W        W17794  33.981   7.964   1.344
49577W        W17795  28.416  17.787   3.278
49578W        W17796   9.141  34.405  11.110
49579W        W17797  31.442  34.474  12.800
49580W        W17798  25.671  39.096   5.311
49581W        W17799  26.996  29.720   3.331
49582W        W17800  27.663  39.616  12.412
49583W        W17801   8.752  39.458   3.851
49584W        W17802  17.347  20.043   9.977
49585W        W17803  29.090  11.178  12.026
49586W        W17804   6.962  25.737  13.762
49587W        W17805  21.976   4.784   1.316
49588W        W17806  34.168  10.643   0.912
49589W        W17807  26.891   4.793   4.747
49590W        W17808  41.403  30.948  13.801
49591W        W17809  13.859  13.058  12.063
49592W        W17810  15.880   4.684   0.795
49593W        W17811  27.137  10.369  12.909
49594W        W17812  24.030  10.122  11.624
49595W        W17813  30.891  41.560  10.246
49596W        W17814   0.262   8.911  11.214
49597W        W17815   0.603  42.714  12.772
49598W        W17816  26.223  24.403  12.568
49599W        W17817  15.085  43.888  11.402
49600W        W17818   0.841  11.971   2.742
49601W        W17819  10.045  28.061   5.001
49602W        W17820  25.767   9.421  14.563
49603W        W17821  42.005  39.021  12.068
49604W        W17822  15.359  33.232  14.513
49605W        W17823  14.142  24.966  11.204
49606W        W17824  44.130  13.596  11.478
49607W        W17825  28.840  30.623   4.676
49608W        W17826  12.703   7.934   0.958
49609W        W17827  41.021  39.079   4.769
49610W        W17828   2.175   7.704   3.066
49611W        W17829  42.919   5.809  14.983
49612W        W17830  39.376  39.383   1.559
49613W        W17831  25.414  10.354   2.250
49614W        W17832  41.772  33.344  11.214
49615W        W17833  23.025  22.208  12.156
49616W        W17834   1.326  15.746   4.471
49617W        W17835   1.078   6.717   2.905
49618W        W17836  12.224  42.367   0.461
49619W        W17837  37.279  30.730   3.241
49620W        W17838   3.973  10.576   4.899
49621W        W17839  25.967  15.930  14.505
49622W        W17840   5.741   4.453   1.939
49623W        W17841  35.559  36.863   4.183
49624W        W17842  18.116  16.179   5.417
49625W        W17843  29.177  20.548   4.871
49626W        W17844  14.532  33.362  14.837
49627W        W17845  33.971  23.088  14.664
49628W        W17846  42.308   5.693  13.346
49629W        W17847  23.559  14.666  12.931
49630W        W17848  41.291  29.962   2.051
49631W        W17849  37.811  16.189   0.264
49632W        W17850  20.568  14.297  12.983
49633W        W17851  10.660  30.931   2.413
49634W        W17852   8.770   1.502  14.924
49635W        W17853  22.649  40.092   4.132
49636W        W17854  19.146   9.479   2.707
49637W        W17855   3.808  35.228   4.552
49638W        W17856   4.322  27.227  13.028
49639W        W17857  18.714  36.612  10.634
49640W        W17858  13.783  26.009   2.940
49641W        W17859  23.633   5.297   1.880
49642W        W17860  39.340  19.205  13.374
49643W        W17861   4.933  29.212   2.375
49644W        W17862   8.474   2.222   3.662
49645W        W17863  22.225  31.811  12.599
49646W        W17864  24.779   0.530  12.963
49647W        W17865  18.058  36.939   3.679
49648W        W17866   0.428   2.904  13.427
49649W        W17867  38.653   6.309   1.208
49650W        W17868  26.955  18.151   4.741
49651W        W17869  23.990  33.381   9.907
49652W        W17870  25.994   6.384   1.348
49653W        W17871  15.034   6.380  13.168
49654W        W17872  39.449  34.997  13.131
49655W        W17873  13.656  24.774  12.869
49656W        W17874  33.967  16.851  13.482
49657W        W17875  22.575  28.729   1.990
49658W        W17876  16.122  16.704  11.510
49659W        W17877  15.786  31.104  14.062
49660W        W17878   9.874  35.937  11.621
49661W        W17879  11.763   8.292  11.032
49662W        W17880  40.230   4.388  10.289
49663W        W17881  14.848  24.829   1.861
49664W        W17882  14.092  31.600   1.141
49665W        W17883  19.179  14.354  13.784
49666W        W17884  33.114  24.800  13.660
49667W        W17885  31.082  19.678   2.149
49668W        W17886   5.206  31.416  12.294
49669W        W17887  25.159   7.216  13.339
49670W        W17888  35.922  37.517   0.704
49671W        W17889   6.875  12.133  11.610
49672W        W17890  39.903  25.306   2.152
49673W        W17891   3.435  40.459  10.469
49674W        W17892  18.771  26.248   4.213
49675W        W17893  20.274  22.682  13.094
49676W        W17894  41.054  44.492  11.512
49677W        W17895  17.540  25.095   2.551
49678W        W17896  41.385  39.815  10.932
49679W        W17897  18.519   1.004   0.327
49680W        W17898  38.093  21.262   4.366
49681W        W17899   0.032  13.672   3.263
49682W        W17900  18.582   9.828   0.197
49683W        W17901   2.386  30.166   1.816
49684W        W17902  31.000   8.785  10.581
49685W        W17903  33.023  23.525   1.182
49686W        W17904  15.692  13.263   1.897
49687W        W17905  15.770   6.329  13.492
49688W        W17906  32.560   4.810   2.655
49689W        W17907  28.004   9.315   4.652
49690W        W17908  23.167  36.307  14.290
49691W        W17909   9.211   9.201  12.416
49692W        W17910  25.463  39.464   2.254
49693W        W17911  21.255  10.277  14.861
49694W        W17912  28.955  38.459  12.868
49695W        W17913  39.194  22.831   2.886
49696W        W17914  26.657  43.730  10.500
49697W        W17915  39.812   5.612   0.481
49698W        W17916   4.477   2.380  12.242
49699W        W17917  27.733  18.168   5.497
49700W        W17918  40.822  39.482  14.645
49701W        W17919   4.916   3.796   0.338
49702W        W17920  17.582  26.150  12.339
49703W        W17921  21.233  10.966  11.107
49704W        W17922  24.104   2.792  12.321
49705W        W17923  39.021  11.979  12.521
49706W        W17924  42.898  19.858  12.915
49707W        W17925  17.634   1.748  10.662
49708W        W17926   7.165   8.809  13.846
49709W        W17927  32.733  26.432   2.847
49710W        W17928  32.907  28.074   3.581
49711W        W17929   1.020  11.894  12.054
49712W        W17930  33.678  34.466   1.740
49713W        W17931   1.262  44.862   2.714
49714W        W17932  35.635  13.786  11.893
49715W        W17933  31.265   2.025   4.110
49716W        W17934  23.451  37.124  11.114
49717W        W17935  10.430  36.532   1.723
49718W        W17936   4.876  29.190  11.250
49719W        W17937  38.126  30.149  13.465
49720W        W17938  19.575  41.050   3.183
49721W        W17939   9.485  15.036   4.138
49722W        W17940  12.602  31.964   0.833
49723W        W17941  39.358  38.804  14.190
49724W        W17942  38.794   3.750   1.900
49725W        W17943  20.455   1.232  10.472
49726W        W17944  24.155  15.617   1.176
49727W        W17945   6.515  30.414  10.123
49728W        W17946  17.522  19.801   2.668
49729W        W17947  20.601  30.534   1.447
49730W        W17948   3.423  21.204   0.748
49731W        W17949  15.092  15.096  11.996
49732W        W17950   5.844   8.159  12.525
49733W        W17951  11.788   1.902  10.981
49734W        W17952  15.178  35.319   0.487
49735W        W17953  15.794  31.793  10.465
49736W        W17954  27.754  37.329  11.098
49737W        W17955  36.813  18.672   3.656
49738W        W17956  29.082  22.051  13.536
49739W        W17957  43.376  30.632   5.083
49740W        W17958  23.108  19.144   0.058
49741W        W17959  32.565  29.899  14.865
49742W        W17960  15.918  29.147   1.450
49743W        W17961  22.009  26.199   2.075
49744W        W17962  21.313  20.470  11.927
49745W        W17963  28.048   0.987   4.678
49746W        W17964  33.675  15.215   2.931
49747W        W17965  16.566  41.281  14.570
49748W        W17966  13.032  26.072  14.922
49749W        W17967  13.738  16.984  11.013
49750W        W17968  30.987  16.188  11.779
49751W        W17969  41.983  32.026  13.487
49752W        W17970  30.189  28.186   3.256
49753W        W17971  26.080   7.530  12.244
49754W        W17972  35.722  17.886   4.967
49755W        W17973   1.826   2.523  13.407
49756W        W17974   6.390   0.718   3.217
49757W        W17975  23.590  16.587  14.460
49758W        W17976  39.132  17.072  13.107
49759W        W17977   2.658  11.712  13.407
49760W        W17978  37.018  14.286   3.591
49761W        W17979  44.808   6.438  13.506
49762W        W17980   0.696  40.847   1.833
49763W        W17981   1.486   5.708  11.034
49764W        W17982  15.969  20.542   0.888
49765W        W17983  31.627  25.682  11.394
49766W        W17984  26.932  27.534   3.719
49767W        W17985   5.198  31.989   4.298
49768W        W17986   9.373  10.373   2.333
49769W        W17987  31.930  40.045  10.884
49770W        W17988  13.180  22.916  14.955
49771W        W17989  30.650   5.211   0.969
49772W        W17990  25.038  32.369  14.392
49773W        W17991  15.767   5.704  14.045
49774W        W17992  29.655  13.402  11.040
49775W        W17993  24.640  40.535  10.728
49776W        W17994  11.359  28.658  12.881
49777W        W17995  23.424  25.070  11.104
49778W        W17996  28.173  28.188   1.695
49779W        W17997  36.149   3.495   0.380
49780W        W17998  17.670   3.736   0.460
49781W        W17999  33.852  36.929  12.101
49782W        W18000  18.046   2.502  10.746
49783W        W18001   1.259   4.710  11.109
49784W        W18002  30.845   2.712  14.394
49785W        W18003   1.166  31.045  12.998
49786W        W18004  31.859  19.001  13.308
49787W        W18005  32.577  44.256  13.455
49788W        W18006  44.831  29.676   1.334
49789W        W18007  26.176  31.534  12.226
49790W        W18008  35.904  23.263  10.757
49791W        W18009  39.671  38.120  12.015
49792W        W18010  37.420  22.807   3.312
49793W        W18011   3.166  29.569   4.997
49794W        W18012   3.325  43.824  14.969
49795W        W18013  20.186  36.937  10.736
49796W        W18014  15.129   4.473  10.775
49797W        W18015   6.302   1.642  13.979
49798W        W18016  20.687  38.283   3.767
49799W        W18017  29.947  29.155  10.353
49800W        W18018  15.469  31.860   2.386
49801W        W18019  33.105   1.848   0.172
49802W        W18020   7.213  44.144  12.613
49803W        W18021  30.636  15.307  11.409
49804W        W18022  22.964  33.037   4.162
49805W        W18023  43.451  22.724  14.844
49806W        W18024  13.139  30.186   0.739
49807W        W18025  14.773  43.967   2.565
49808W        W18026   9.640  32.509  10.710
49809W        W18027  30.894  42.414   1.229
49810W        W18028  29.009  25.160   1.078
49811W        W18029  27.390   9.520  13.967
49812W        W18030   0.373  33.572  10.812
49813W        W18031   9.646  43.086   3.182
49814W        W18032  29.183  41.389   2.351
49815W        W18033  20.733  39.995   1.901
49816W        W18034  26.838  27.375   4.207
49817W        W18035  30.334  17.148   5.204
49818W        W18036  18.766   0.272  10.798
49819W        W18037  36.926  31.282  11.633
49820W        W18038  24.251  17.462  11.071
49821W        W18039  30.077  31.960   4.140
49822W        W18040  28.720  34.903   4.785
49823W        W18041   0.066  18.555   1.179
49824W        W18042  24.061  22.664  13.790
49825W        W18043   7.449  19.570  13.178
49826W        W18044  33.102   3.316  11.195
49827W        W18045  27.980  16.642  11.410
49828W        W18046  29.599  10.227   0.228
49829W        W18047  33.876   5.888  10.681
49830W        W18048  17.254  18.166  12.799
49831W        W18049  25.291  20.538   0.364
49832W        W18050  26.978  31.220   0.527
49833W        W18051  23.434  19.418   2.226
49834W        W18052  24.371  38.892  11.071
49835W        W18053  19.961  17.696  11.090
49836W        W18054  10.287  14.822   5.011
49837W        W18055  39.842  11.023   1.546
49838W        W18056  35.553  31.414  14.434
49839W        W18057  29.440   4.665  14.588
49840W        W18058   6.393  42.945  13.513
49841W        W18059   3.721   2.948   0.630
49842W        W18060  11.579  30.098  12.993
49843W        W18061  19.299  44.213  13.032
49844W        W18062  24.616  35.814  11.875
49845W        W18063  34.057  26.446   2.777
49846W        W18064  18.020  44.792  10.971
49847W        W18065  25.179  22.507   4.494
49848W        W18066  11.341  18.801  14.306
49849W        W18067  31.239  17.793  13.216
49850W        W18068   1.421   3.467   4.644
49851W        W18069  40.050  17.108  11.175
49852W        W18070  16.129  31.033   2.404
49853W        W18071  10.102   6.190  11.510
49854W        W18072  17.502  26.705   0.025
49855W        W18073  16.593   6.405  12.653
49856W        W18074  15.877   8.267   3.684
49857W        W18075  16.552  35.261   1.929
49858W        W18076  36.273  27.416  14.791
49859W        W18077  38.238  24.133  12.586
49860W        W18078  26.557  36.098  14.517
49861W        W18079  36.894  39.460   3.666
49862W        W18080  29.171  40.974  11.108
49863W        W18081  44.073  29.887   2.289
49864W        W18082  29.467  10.617  11.658
49865W        W18083  16.316  17.057  10.580
49866W        W18084   8.226   3.449   0.548
49867W        W18085   4.318  12.064   3.650
49868W        W18086   4.312   6.749   2.389
49869W        W18087  24.992  32.879  10.612
49870W        W18088  12.708  17.525   0.319
49871W        W18089  27.264  29.429   0.045
49872W        W18090  22.753   8.304  14.493
49873W        W18091  33.664  21.538  11.605
49874W        W18092  29.926   2.192   4.305
49875W        W18093  22.235  20.994  12.768
49876W        W18094  35.389  35.376   2.901
49877W        W18095  44.906  19.050   3.773
49878W        W18096   8.747  35.698  13.085
49879W        W18097   5.324  13.848  14.958
49880W        W18098  38.379   0.305   4.548
49881W        W18099   1.238  36.928   2.942
49882W        W18100   1.488  16.378   2.430
49883W        W18101   5.449  23.737   3.373
49884W        W18102  30.690   1.986   2.896
49885W        W18103  12.848   9.851  13.761
49886W        W18104  14.731   8.131   0.334
49887W        W18105   9.741  17.022  14.052
49888W        W18106  31.819   4.393  11.792
49889W        W18107  40.974  11.620   2.099
49890W        W18108  36.373  16.458   3.333
49891W        W18109  22.010  12.805   2.979
49892W        W18110  25.988  31.935  13.537
49893W        W18111  25.228  28.668   0.312
49894W        W18112  18.127  10.381   3.113
49895W        W18113  27.731  23.426  13.955
49896W        W18114  14.728  29.549   0.178
49897W        W18115  32.903  29.787   2.622
49898W        W18116  39.757  29.531  11.314
49899W        W18117  28.531  17.156   1.220
49900W        W18118  17.191  40.081  14.488
49901W        W18119   7.287  32.622   1.165
49902W        W18120  25.187  24.255   3.206
49903W        W18121  38.022  44.842   2.849
49904W        W18122   1.269   5.957  11.441
49905W        W18123  14.725  41.260  14.330
49906W        W18124   8.244  19.609   0.670
49907W        W18125  26.913  43.495  12.585
49908W        W18126  30.806  17.669   3.255
49909W        W18127  35.439   5.985   2.313
49910W        W18128   1.336  11.342   3.340
49911W        W18129  16.166  13.992   3.183
49912W        W18130  41.720  30.563   4.133
49913W        W18131   0.707  43.674   4.984
49914W        W18132   1.822   0.787  14.369
49915W        W18133  11.385  40.665   1.409
49916W        W18134  34.921  20.754   2.855
49917W        W18135   5.730   7.215  11.616
49918W        W18136  14.689  28.051   3.239
49919W        W18137  39.407  35.655   3.239
49920W        W18138  10.284  22.250  12.632
49921W        W18139   6.651  33.535  13.445
49922W        W18140  10.912   3.956   0.801
49923W        W18141  29.551   2.688  12.497
49924W        W18142   4.245   2.320  10.734
49925W        W18143  26.918  40.635   2.861
49926W        W18144  43.961  27.681   3.490
49927W        W18145  13.497  23.606  13.807
49928W        W18146  39.863   5.105   0.607
49929W        W18147  18.284  29.696  13.553
49930W        W18148  10.078  20.280   2.731
49931W        W18149  20.608  14.295   1.434
49932W        W18150  39.883   2.566  12.947
49933W        W18151   3.501  27.065  12.375
49934W        W18152   9.236  19.183   3.359
49935W        W18153  43.352  24.197   4.086
49936W        W18154  22.515  34.558  11.649
49937W        W18155  40.011  24.072  12.455
49938W        W18156  19.651  28.686  12.198
49939W        W18157  39.645  31.969   3.103
49940W        W18158   9.527  30.682  11.151
49941W        W18159   3.257  30.123  11.419
49942W        W18160  25.366  27.622  11.583
49943W        W18161  36.273  27.922  14.701
49944W        W18162  32.865  11.682  13.392
49945W        W18163  25.475  37.920  10.823
49946W        W18164  11.278   9.326  10.931
49947W        W18165  27.952   7.434  11.266
49948W        W18166  28.601  15.567  12.658
49949W        W18167  12.215  33.818  14.325
49950W        W18168  15.534  36.800   1.865
49951W        W18169  35.126  10.211  12.816
49952W        W18170   4.740  36.664  13.417
49953W        W18171   7.391  11.242   0.953
49954W        W18172  22.588  10.076   0.404
49955W        W18173  23.922  30.032   2.908
49956W        W18174  17.305  20.001   1.829
49957W        W18175  32.865  20.014  14.575
49958W        W18176  21.220   7.845   3.252
49959W        W18177  32.501  12.350   0.281
49960W        W18178  24.753  15.534  12.466
49961W        W18179  33.223  29.138  14.518
49962W        W18180  43.373  20.356  14.774
49963W        W18181  42.996  12.851   2.857
49964W        W18182  32.622  25.647   0.190
49965W        W18183   6.297  30.642  13.622
49966W        W18184   0.957  29.226   2.275
49967W        W18185  20.743  12.660   0.839
49968W        W18186  33.416  43.314   0.575
49969W        W18187  23.782  30.634   0.715
49970W        W18188  13.744  29.885   3.306
49971W        W18189   5.087  28.990   3.793
49972W        W18190  12.771   0.971  14.902
49973W        W18191   9.331  34.794   0.853
49974W        W18192  28.897   6.845  14.012
49975W        W18193   7.143  31.108  13.003
49976W        W18194  19.891   5.171  14.361
49977W        W18195  19.087   0.291   0.074
49978W        W18196  37.520   8.870  11.522
49979W        W18197  30.144  24.412  14.903
49980W        W18198  20.841  40.869  11.642
49981W        W18199  25.463  26.878  14.128
49982W        W18200  27.961  21.297   4.716
49983W        W18201  15.832   3.888   0.097
49984W        W18202  32.362   7.405  14.707
49985W        W18203  13.688   1.630  12.142
49986W        W18204  21.464  24.683  14.073
49987W        W18205  23.094   3.170   3.638
49988W        W18206  10.912  44.314  14.600
49989W        W18207  27.434  25.700  10.644
49990W        W18208  40.343  18.697   4.546
49991W        W18209  14.194  42.062   4.173
49992W        W18210  38.475   4.254  12.019
49993W        W18211  36.018  11.778   4.394
49994W        W18212  25.276  33.996   0.922
49995W        W18213  44.461  41.518   0.771
49996W        W18214  41.379  11.727   4.980
49997W        W18215   2.831  24.608   3.861
49998W        W18216   7.174  24.318   1.222
49999W        W18217  14.303   6.798  11.708
50000W        W18218   6.633  17.564   3.651
50001W        W18219  20.737  35.855   0.395
50002W        W18220   5.449  43.682  13.395
50003W        W18221   3.355  13.335   1.989
50004W        W18222  42.785   0.735   0.531
50005W        W18223   9.799  30.045  13.988
50006W        W18224  44.931  38.502   2.595
50007W        W18225  42.259   3.233   2.716
50008W        W18226  37.290  13.420  13.505
50009W        W18227   7.996  15.649   2.737
50010W        W18228  24.980   5.841  14.903
50011W        W18229  27.972   8.287  10.723
50012W        W18230  24.613  15.358   4.134
50013W        W18231  29.678   7.111  11.629
50014W        W18232  13.132  12.212   1.003
50015W        W18233   1.599  13.133  14.466
50016W        W18234  20.742  31.076  12.550
50017W        W18235   2.998   8.705   3.387
50018W        W18236  39.515  41.433  12.977
50019W        W18237  19.299  13.606  11.199
50020W        W18238   3.190  35.936  12.949
50021W        W18239  23.566   1.044   3.233
50022W        W18240  15.272   7.558  14.899
50023W        W18241  16.228  10.339  13.144
50024W        W18242   8.451  38.807   1.715
50025W        W18243  24.487  23.098  13.005
50026W        W18244  44.285  19.363   1.499
50027W        W18245   6.561  27.077   3.975
50028W        W18246  12.880  25.207   0.436
50029W        W18247  19.864  33.269  10.844
50030W        W18248  15.097  17.855  14.439
50031W        W18249   7.147   8.479  12.232
50032W        W18250  37.096  37.942   4.680
50033W        W18251  30.894   4.314   2.352
50034W        W18252  32.950  19.678  13.780
50035W        W18253  23.541  36.690  10.786
50036W        W18254  44.084   5.790  11.257
50037W        W18255  20.528  32.468  12.904
50038W        W18256  21.645   3.468   2.838
50039W        W18257  23.396  34.555  11.186
50040W        W18258  36.681   5.634   3.253
50041W        W18259  14.502   9.832   0.250
50042W        W18260  24.533  20.164   4.128
50043W        W18261  35.264  44.511   2.211
50044W        W18262  11.341  44.232  14.894
50045W        W18263  40.306   7.877  13.946
50046W        W18264  34.443  15.061   4.804
50047W        W18265  11.403   4.424  14.097
50048W        W18266  25.161  26.040   2.238
50049W        W18267   5.236  16.105   3.904
50050W        W18268  27.733  40.143  13.920
50051W        W18269  36.422   9.959  10.896
50052W        W18270   0.070  36.171  11.180
50053W        W18271  37.918  32.588  11.667
50054W        W18272  42.408   6.199   3.699
50055W        W18273  19.048  10.986   4.680
50056W        W18274  11.276  10.610  12.615
50057W        W18275   7.286  18.764   0.283
50058W        W18276  30.743  11.184  12.898
50059W        W18277  34.470  38.802   0.901
50060W        W18278  40.818  43.301   3.884
50061W        W18279   1.786   4.204  12.500
50062W        W18280  42.315   3.549   2.209
50063W        W18281  25.131  33.961   4.064
50064W        W18282  14.568  25.053  14.608
50065W        W18283   5.186  26.150   0.167
50066W        W18284  26.714  44.836   1.243
50067W        W18285   4.832  18.158  14.402
50068W        W18286  24.390  26.925   4.261
50069W        W18287   8.904  40.945  14.398
50070W        W18288  32.878   7.447  11.155
50071W        W18289  41.201   6.359  10.704
50072W        W18290  31.149   7.897  11.659
50073W        W18291  33.673   2.208   1.372
50074W        W18292  24.659  12.833  13.482
50075W        W18293  11.552   4.253  14.548
50076W        W18294  23.125   5.410   4.491
50077W        W18295  14.564  22.243   1.803
50078W        W18296  38.137  36.937   4.596
50079W        W18297   4.819   3.233   3.757
50080W        W18298  10.359  44.220   1.934
50081W        W18299  39.880   7.008   4.720
50082W        W18300  40.339  38.136   3.719
50083W        W18301  20.279  38.401  10.342
50084W        W18302  40.989  41.690   1.164
50085W        W18303   5.628  39.969   3.639
50086W        W18304  28.677  15.339  11.307
50087W        W18305  22.794   7.432  14.389
50088W        W18306  11.128  27.830  12.470
50089W        W18307   5.409  36.865   3.110
50090W        W18308  32.694  17.244   1.365
50091W        W18309   0.301  36.842   0.926
50092W        W18310  12.332  39.337  14.801
50093W        W18311  11.925   7.525  13.921
50094W        W18312  10.548   2.715  14.799
50095W        W18313  42.492   0.774  13.339
50096W        W18314  40.148  10.493   4.239
50097W        W18315  29.632  15.021   3.640
50098W        W18316  35.342  19.096  11.150
50099W        W18317  24.630   3.659  12.536
50100W        W18318  22.719  26.189   2.236
50101W        W18319  38.471  27.896  12.078
50102W        W18320   1.306   4.462  11.548
50103W        W18321   8.242  22.320  13.074
50104W        W18322  22.366  29.944  11.851
50105W        W18323  18.796   2.446   4.552
50106W        W18324  29.850  13.555   3.666
50107W        W18325  44.114  17.997   4.547
50108W        W18326  23.708  22.987   3.242
50109W        W18327  15.813  12.720   1.263
50110W        W18328  30.047  10.227  14.987
50111W        W18329  38.852  18.003  14.846
50112W        W18330  25.600  42.126  11.675
50113W        W18331  28.072  38.417  14.272
50114W        W18332  17.207  16.585  10.743
50115W        W18333  32.385   3.471   1.796
50116W        W18334  34.124  23.209  14.188
50117W        W18335  42.532  29.663   3.781
50118W        W18336  13.777  14.694   4.218
50119W        W18337  17.982   2.828  13.978
50120W        W18338   1.125   9.918   0.843
50121W        W18339  11.124   5.837   0.742
50122W        W18340  43.700   6.280   3.221
50123W        W18341  26.204  32.031   2.260
50124W        W18342  41.257   9.909   1.451
50125W        W18343  24.074  19.707  14.884
50126W        W18344  12.193  17.086   0.909
50127W        W18345   0.961  10.657  13.810
50128W        W18346  10.093  23.806   2.330
50129W        W18347  21.062  35.328  12.133
50130W        W18348  39.914  38.825   4.022
50131W        W18349  18.298  30.164   4.295
50132W        W18350  19.846  38.655  14.245
50133W        W18351  22.675  44.027  14.729
50134W        W18352  18.455  17.318   5.041
50135W        W18353  30.709  31.558   1.223
50136W        W18354  12.578  16.112  12.064
50137W        W18355   3.940  16.115   0.947
50138W        W18356  39.761   6.315  13.108
50139W        W18357  14.665  37.756  12.837
50140W        W18358  29.959   3.456   0.960
50141W        W18359   0.958  44.940   3.519
50142W        W18360  40.116  24.262   3.775
50143W        W18361  22.137   9.645  12.381
50144W        W18362  26.504  41.901   5.061
50145W        W18363  10.442  26.063  12.060
50146W        W18364  35.359   6.959   4.556
50147W        W18365  40.220  34.098   2.613
50148W        W18366  24.118  34.988  10.323
50149W        W18367   5.126  13.656   3.735
50150W        W18368  31.480  29.476   4.599
50151W        W18369   5.248   9.005  13.022
50152W        W18370  29.476   9.927  12.977
50153W        W18371  35.574   8.195  11.822
50154W        W18372  31.946  31.686  12.121
50155W        W18373  41.701  11.209  11.575
50156W        W18374  44.109  10.270  11.956
50157W        W18375  44.220   8.148  11.973
50158W        W18376  23.728  24.648   0.756
50159W        W18377   3.224   8.159   0.798
50160W        W18378   5.497  23.736   4.598
50161W        W18379  22.491   0.064   3.156
50162W        W18380  29.429  13.231   1.890
50163W        W18381   6.275   8.598  13.412
50164W        W18382  44.465  24.977   2.727
50165W        W18383  20.088  29.040   1.482
50166W        W18384   4.405  37.944   1.630
50167W        W18385   7.756  17.810  13.552
50168W        W18386  30.491  34.676   4.082
50169W        W18387  42.280  29.620   5.050
50170W        W18388  38.898  40.035  14.723
50171W        W18389  41.487  28.585  11.051
50172W        W18390  31.638  39.043   1.371
50173W        W18391  13.903  11.289  10.817
50174W        W18392  38.444  25.209   3.893
50175W        W18393  40.109   7.679  10.882
50176W        W18394   5.418  30.117  14.841
50177W        W18395   9.798  24.918   3.686
50178W        W18396  20.689  16.610  12.626
50179W        W18397  11.856  34.943  12.505
50180W        W18398   1.745  10.680   2.208
50181W        W18399  31.022  22.116   1.754
50182W        W18400  12.790   9.116  14.984
50183W        W18401  23.102  43.502  11.201
50184W        W18402   0.931  25.721  13.131
50185W        W18403   4.738  23.352  12.655
50186W        W18404  22.320  26.388  14.808
50187W        W18405  15.681   1.950  14.848
50188W        W18406  13.122  36.455   3.267
50189W        W18407  43.983  25.977   0.441
50190W        W18408  12.574  22.199   3.674
50191W        W18409  24.661   9.367   3.321
50192W        W18410  16.617  22.602  12.830
50193W        W18411  35.483  12.537   0.195
50194W        W18412  22.459  13.905   4.922
50195W        W18413  23.331  11.206  10.603
50196W        W18414   1.534  17.645   0.338
50197W        W18415  25.607  32.662   2.749
50198W        W18416  14.104  44.773   2.411
50199W        W18417  44.083  17.608  11.871
50200W        W18418  36.715  39.804  11.640
50201W        W18419   9.232  30.270   2.667
50202W        W18420  19.056  42.957   1.301
50203W        W18421  26.279  10.187  10.697
50204W        W18422   2.448  34.848   2.190
50205W        W18423  16.373   0.925   2.282
50206W        W18424  21.121  28.939  10.841
50207W        W18425  38.490   3.999  14.303
50208W        W18426  10.901  26.678   2.156
50209W        W18427   9.104  28.438   3.068
50210W        W18428  14.789  41.061  12.617
50211W        W18429   3.332  18.306  12.460
50212W        W18430   2.481  16.867  14.208
50213W        W18431  20.583  13.880   3.279
50214W        W18432  42.449  17.240  13.144
50215W        W18433  14.166  43.875  10.936
50216W        W18434  38.489   6.007  13.360
50217W        W18435  30.457  31.646  11.420
50218W        W18436  42.307  44.218  14.748
50219W        W18437   8.596  43.872  11.491
50220W        W18438  11.115   8.228   2.442
50221W        W18439  33.506  11.083  14.627
50222W        W18440  31.964  24.545  14.724
50223W        W18441  44.686  33.438  12.553
50224W        W18442  36.592  16.365  13.754
50225W        W18443  18.271   5.079   3.310
50226W        W18444  44.276  31.990  12.161
50227W        W18445   4.732   1.907  10.666
50228W        W18446  11.266  23.637  11.657
50229W        W18447  36.593  37.927  12.103
50230W        W18448  13.889  29.983   4.512
50231W        W18449   0.893  29.216   0.928
50232W        W18450  26.326  41.776   0.507
50233W        W18451  22.589  29.192   4.174
50234W        W18452  25.131  32.816   1.445
50235W        W18453  37.853   2.862   2.758
50236W        W18454  39.634  37.984  11.487
50237W        W18455   7.712  19.403  14.708
50238W        W18456  43.854  35.796  13.407
50239W        W18457  38.110  17.279   0.743
50240W        W18458  26.416   2.015  12.408
50241W        W18459  41.745  34.539  13.090
50242W        W18460  27.670  22.061  11.016
50243W        W18461  20.194  23.398   4.354
50244W        W18462  16.172  28.770   0.459
50245W        W18463  28.388  30.955  13.080
50246W        W18464  16.859  34.380  14.355
50247W        W18465  24.489   0.901  11.539
50248W        W18466  23.631  28.896  14.273
50249W        W18467  23.739  23.487   3.144
50250W        W18468  26.160  11.546  13.559
50251W        W18469   4.990  44.435   1.932
50252W        W18470   1.825  39.469   3.383
50253W        W18471   6.562  24.093   4.162
50254W        W18472  31.349  38.051   0.782
50255W        W18473  31.590  14.956   0.771
50256W        W18474  32.909  20.104  11.282
50257W        W18475  29.333  18.794  14.069
50258W        W18476  13.651   7.374   0.749
50259W        W18477  17.700  30.340  10.686
50260W        W18478   8.283  41.810   1.530
50261W        W18479   8.738  41.595  13.322
50262W        W18480  16.691  34.272   1.624
50263W        W18481  17.350  31.005   3.209
50264W        W18482  20.717  20.271  13.978
50265W        W18483  14.463   6.047   1.721
50266W        W18484  29.103   2.233   0.453
50267W        W18485  17.206  29.649  11.635
50268W        W18486  24.509  36.910   4.390
50269W        W18487   0.725  35.392  11.232
50270W        W18488  11.184  41.922   3.177
50271W        W18489  44.982  39.401  13.559
50272W        W18490  37.477   1.721   2.342
50273W        W18491  38.670  20.785  13.895
50274W        W18492  40.042   7.428  13.831
50275W        W18493  40.436  34.928   4.633
50276W        W18494   2.227  39.514  12.035
50277W        W18495  15.742  29.433   2.689
50278W        W18496  37.703  15.986   2.323
50279W        W18497  20.556  22.012  11.132
50280W        W18498  25.150  35.114   1.901
50281W        W18499  28.097  23.050   0.774
50282W        W18500  27.062  35.976   2.339
50283W        W18501   2.290  18.768  14.843
50284W        W18502  17.392   4.577   4.170
50285W        W18503  31.138  18.202   1.376
50286W        W18504  24.028  44.725   4.574
50287W        W18505  33.163   0.004   4.257
50288W        W18506  11.798  36.820   0.881
50289W        W18507  30.533  21.065   2.370
50290W        W18508   8.807   5.098   4.570
50291W        W18509  34.816  11.449   1.442
50292W        W18510  29.509  36.500  11.464
50293W        W18511  28.765  26.646  10.619
50294W        W18512  18.733   4.661  10.613
50295W        W18513  19.829   6.948  12.259
50296W        W18514  28.046  27.983   4.625
50297W        W18515  33.719  37.468   2.772
50298W        W18516  21.488  44.758   1.775
50299W        W18517   0.623  12.118   0.421
50300W        W18518  40.831  20.597   4.694
50301W        W18519  40.219  21.077  11.025
50302W        W18520   6.915  17.698  12.941
50303W        W18521  41.768  39.392   0.042
50304W        W18522  18.670   4.459  12.418
50305W        W18523  14.913  44.719  12.015
50306W        W18524  10.806   8.198  12.824
50307W        W18525  38.934  21.044  11.451
50308W        W18526  44.048  30.160  11.615
50309W        W18527  30.505  31.928  10.632
50310W        W18528  10.144  28.712   0.353
50311W        W18529   7.333  37.065  12.875
50312W        W18530  31.811  39.892   3.629
50313W        W18531  44.977  12.378  14.751
50314W        W18532   6.179  35.033   4.099
50315W        W18533   7.280  39.736   2.825
50316W        W18534  12.823  36.319   4.063
50317W        W18535  23.198  31.546   0.281
50318W        W18536  37.565   9.395   2.734
50319W        W18537  15.343   6.826   3.645
50320W        W18538  19.027  13.596   3.074
50321W        W18539  17.834  26.175   3.700
50322W        W18540  16.249  24.672   2.639
50323W        W18541   0.804   7.228  12.916
50324W        W18542   0.670  19.560   1.380
50325W        W18543  17.081   7.247   3.650
50326W        W18544   2.962   4.463  14.885
50327W        W18545  27.065  12.799  11.078
50328W        W18546  33.399   5.345   2.089
50329W        W18547   6.737  34.141  12.894
50330W        W18548  28.607  25.216  11.486
50331W        W18549  34.998  21.238   2.375
50332W        W18550  21.336  43.487   0.326
50333W        W18551  34.834  15.311  12.369
50334W        W18552  27.703  41.317  11.184
50335W        W18553  33.013  39.932   1.926
50336W        W18554  11.274   4.421   2.711
50337W        W18555  20.561  26.160   0.898
50338W        W18556  15.614  12.796  11.127
50339W        W18557  23.189   1.050   4.924
50340W        W18558  17.083   3.948  11.067
50341W        W18559  43.567   3.191  13.988
50342W        W18560  29.514  23.858   5.166
50343W        W18561  32.868  20.060  10.776
50344W        W18562   5.008  21.489   2.761
50345W        W18563  13.128   0.341  13.362
50346W        W18564  37.586   2.750   3.305
50347W        W18565  14.231   2.652   3.724
50348W        W18566  25.992  16.018   3.556
50349W        W18567  13.679  11.799  10.817
50350W        W18568   5.182  28.056  14.448
50351W        W18569  14.970  42.514  12.240
50352W        W18570   4.732  43.245   0.010
50353W        W18571  28.368  27.657  10.616
50354W        W18572   5.512   2.864   1.873
50355W        W18573  20.438   3.840   0.413
50356W        W18574  30.321  12.437   3.067
50357W        W18575  30.721   1.813   3.370
50358W        W18576  44.716  30.931  12.945
50359W        W18577   0.020   0.338   4.160
50360W        W18578  39.740  38.951   3.244
50361W        W18579   3.994  41.862   1.725
50362W        W18580   6.107  44.903   0.019
50363W        W18581  20.986  19.483  11.027
50364W        W18582  14.242  12.392  13.831
50365W        W18583  19.344   9.628   2.248
50366W        W18584  14.795  15.847  14.897
50367W        W18585  30.905  30.638  12.895
50368W        W18586  11.638   6.932  12.848
50369W        W18587  28.554   1.444  11.050
50370W        W18588  42.857  16.003  11.101
50371W        W18589  29.429  39.095  14.281
50372W        W18590   9.070   2.883  11.621
50373W        W18591  24.229  34.005  14.124
50374W        W18592   0.405  27.614   2.899
50375W        W18593   2.891  24.461   3.317
50376W        W18594  10.710  44.978   1.457
50377W        W18595  38.606  15.225  11.261
50378W        W18596  10.699  17.591   0.982
50379W        W18597  36.857  24.524   0.293
50380W        W18598  28.031  12.666   0.960
50381W        W18599  19.832   4.507   0.817
50382W        W18600  14.801   4.634  11.226
50383W        W18601  43.830  37.671   4.696
50384W        W18602   8.855   8.214  12.606
50385W        W18603  40.078  19.205   3.682
50386W        W18604   3.774  14.790   4.118
50387W        W18605   8.948  17.097   1.319
50388W        W18606  32.603  11.313   4.900
50389W        W18607  26.023   9.184  12.755
50390W        W18608   4.860  31.090  11.579
50391W        W18609  10.900   7.335   4.492
50392W        W18610   4.770  30.577   3.116
50393W        W18611  18.770  40.140   2.076
50394W        W18612   7.406  28.126  14.944
50395W        W18613  29.095  23.188  12.144
50396W        W18614  14.654  37.829   4.254
50397W        W18615   7.951  36.565  11.551
50398W        W18616   4.024   9.814  14.831
50399W        W18617  21.771  36.540   9.869
50400W        W18618  19.131  29.350  14.079
50401W        W18619  42.976  32.791  12.434
50402W        W18620  20.446   6.835  13.169
50403W        W18621  19.647  10.568  14.986
50404W        W18622  40.233   5.636  11.623
50405W        W18623  36.799  19.875   2.304
50406W        W18624  13.237  29.704  13.516
50407W        W18625  25.587  35.927   1.734
50408W        W18626  22.493  24.703  12.916
50409W        W18627  36.070  21.207   2.657
50410W        W18628  15.864  32.402   2.304
50411W        W18629   0.249  13.251   3.070
50412W        W18630  43.373  22.600  14.338
50413W        W18631  12.815  22.429   2.362
50414W        W18632  23.582   3.686   4.092
50415W        W18633   5.124  32.276   0.347
50416W        W18634  20.826  11.404   2.305
50417W        W18635  11.518  31.471  11.927
50418W        W18636  28.009  28.446   3.355
50419W        W18637  43.918   7.683  11.243
50420W        W18638  15.351  24.329  13.886
50421W        W18639  26.955  22.722  12.539
50422W        W18640  24.835  18.887   0.909
50423W        W18641  10.709   6.706   0.318
50424W        W18642  20.111   2.320   4.106
50425W        W18643  10.139  25.741   2.313
50426W        W18644  26.330   2.911   4.140
50427W        W18645   3.656  37.435  12.723
50428W        W18646  17.707  23.512   3.385
50429W        W18647   8.643  42.851  12.842
50430W        W18648  19.666  14.400   1.125
50431W        W18649   9.322  27.454   2.387
50432W        W18650   8.365  12.764   1.059
50433W        W18651  16.237   6.740   2.136
50434W        W18652  11.534  19.039  14.751
50435W        W18653  44.714  15.195  14.368
50436W        W18654   6.111  41.810   3.707
50437W        W18655   0.848   0.254  11.231
50438W        W18656   7.469  15.589   1.168
50439W        W18657  43.877  35.847   2.824
50440W        W18658   5.012  25.454  11.230
50441W        W18659  23.638  11.326  11.009
50442W        W18660   8.902  21.258  12.478
50443W        W18661   5.444  21.554  12.484
50444W        W18662  41.448  40.071  14.253
50445W        W18663  15.074  35.925   2.716
50446W        W18664  21.127   9.867  12.016
50447W        W18665  14.424  23.670  14.933
50448W        W18666  27.018  29.725   3.851
50449W        W18667  35.412  29.384  13.275
50450W        W18668  38.178  20.136  11.085
50451W        W18669   4.746  14.929  11.480
50452W        W18670  16.963  42.505  13.333
50453W        W18671  32.516   1.681  14.285
50454W        W18672  34.460  22.636  13.365
50455W        W18673  37.405  34.635   0.398
50456W        W18674  38.564   7.079   5.004
50457W        W18675  41.525  35.945  13.333
50458W        W18676  18.856   9.894  11.455
50459W        W18677  24.503  25.114   0.289
50460W        W18678  10.721  10.006   1.460
50461W        W18679   7.608  34.903   2.634
50462W        W18680  42.544  23.993  11.194
50463W        W18681  11.254  27.928  11.181
50464W        W18682   9.807  13.916  11.471
50465W        W18683  13.618   6.778  12.904
50466W        W18684  17.417  22.473   4.580
50467W        W18685  25.466  19.569  11.116
50468W        W18686  17.813  23.097   0.841
50469W        W18687  43.485  24.086  14.451
50470W        W18688  33.852  20.587  12.485
50471W        W18689  18.890  25.307  13.257
50472W        W18690  12.903  30.971  13.773
50473W        W18691  25.251  44.241   3.412
50474W        W18692  28.197   3.458  10.142
50475W        W18693  10.753  18.121  13.306
50476W        W18694  42.763  42.032   5.184
50477W        W18695  26.645   3.291   1.650
50478W        W18696  29.527  18.388   0.985
50479W        W18697  25.559  14.576  12.829
50480W        W18698   5.940  37.360  13.311
50481W        W18699  23.323  16.279   1.801
50482W        W18700  34.503  18.220   0.874
50483W        W18701   5.267  34.413   0.271
50484W        W18702  26.459  11.695  13.972
50485W        W18703   4.492  37.960  12.398
50486W        W18704   0.841  13.076  12.816
50487W        W18705  35.984  25.160  11.523
50488W        W18706  42.228   7.365   1.727
50489W        W18707  22.514   3.360  10.305
50490W        W18708  41.280   0.898   4.054
50491W        W18709  10.273  36.640  10.937
50492W        W18710  13.094  16.431   2.736
50493W        W18711   5.812  18.153  12.507
50494W        W18712  43.626  38.994  12.008
50495W        W18713  21.831  14.626  12.732
50496W        W18714  21.199   9.103   5.065
50497W        W18715  13.394  39.606  11.225
50498W        W18716   6.790   0.374  12.274
50499W        W18717  33.798  27.442  10.889
50500W        W18718  10.648  43.932  12.932
50501W        W18719  12.343  22.212   2.268
50502W        W18720  10.213  44.524  13.374
50503W        W18721  10.768   1.070  11.109
50504W        W18722  24.556  20.572   0.869
50505W        W18723  17.147  12.888   1.755
50506W        W18724  18.324   7.960  12.172
50507W        W18725   4.916   5.876  12.175
50508W        W18726  40.919  19.093   4.276
50509W        W18727  32.982  20.472   3.437
50510W        W18728  24.303  35.822  13.541
50511W        W18729  37.494  31.353   4.761
50512W        W18730   7.930  43.401   1.269
50513W        W18731   8.633  17.010  14.380
50514W        W18732  12.528   9.886  13.354
50515W        W18733  13.326  11.917  12.488
50516W        W18734  19.601  24.993   0.990
50517W        W18735  13.860  19.644   2.157
50518W        W18736   9.634   4.004   4.260
50519W        W18737  19.641  16.180  14.606
50520W        W18738  37.255  40.753   0.365
50521W        W18739  38.899  35.609  13.994
50522W        W18740  10.305   1.298   0.203
50523W        W18741  43.230  35.207   0.290
50524W        W18742  38.990  31.037  11.208
50525W        W18743  28.311   4.219   5.032
50526W        W18744  42.238  20.133   3.372
50527W        W18745  16.588  21.150  10.626
50528W        W18746  28.653  42.230  14.949
50529W        W18747  32.924  15.649  13.077
50530W        W18748  33.337  15.639  13.372
50531W        W18749  13.023  27.742  13.504
50532W        W18750  36.962   0.261   4.648
50533W        W18751  28.967  23.110   0.396
50534W        W18752  21.033  25.572  13.798
50535W        W18753  33.449  23.561   3.598
50536W        W18754  43.925   9.365  10.751
50537W        W18755  22.999  34.883   9.921
50538W        W18756  35.877  41.637   3.669
50539W        W18757  19.245  39.022   1.335
50540W        W18758  30.426   0.225  14.270
50541W        W18759   4.795  35.979  14.879
50542W        W18760  16.341   6.727   3.701
50543W        W18761  37.971  22.770   1.786
50544W        W18762  32.784  15.638  10.627
50545W        W18763  36.111   3.018   3.259
50546W        W18764   6.836  42.298  12.084
50547W        W18765  20.450  43.502  13.361
50548W        W18766  34.170  16.295  14.313
50549W        W18767  26.082   1.852  10.955
50550W        W18768  17.117  37.042   3.844
50551W        W18769  10.141  20.601   4.545
50552W        W18770  31.715  13.297   1.119
50553W        W18771  41.922  16.225  11.455
50554W        W18772  14.316  35.979   4.290
50555W        W18773   1.455  12.263   2.240
50556W        W18774  18.938   8.304   0.966
50557W        W18775   4.764  39.851  13.510
50558W        W18776  31.205   7.614   2.224
50559W        W18777  42.441  42.077  13.778
50560W        W18778   6.794  37.546  12.611
50561W        W18779   3.153  33.100   3.530
50562W        W18780  44.823  26.637  12.065
50563W        W18781  28.994  12.105   3.219
50564W        W18782  27.520   0.954  14.910
50565W        W18783  27.007  23.951  12.925
50566W        W18784  26.505   3.129   1.181
50567W        W18785  10.836  36.143  14.281
50568W        W18786  30.706   6.935   2.754
50569W        W18787   0.234  26.396   2.248
50570W        W18788  41.085  38.872  11.253
50571W        W18789  27.642  14.676  14.753
50572W        W18790  13.611  19.216   0.339
50573W        W18791  16.256   0.347  11.551
50574W        W18792  11.178  18.615  12.905
50575W        W18793   9.449  39.514  14.861
50576W        W18794  44.936   2.440   1.660
50577W        W18795  24.077  38.981  12.681
50578W        W18796  16.847  27.150   1.385
50579W        W18797  32.060  36.834  10.643
50580W        W18798   7.931  16.662   0.382
50581W        W18799  31.922   5.515  13.857
50582W        W18800  25.411  20.205  13.329
50583W        W18801  40.945  29.196  10.666
50584W        W18802  28.609  20.887  10.156
50585W        W18803  11.893  25.568   0.685
50586W        W18804   1.897  25.544   2.376
50587W        W18805  41.799  44.968  14.047
50588W        W18806   9.874  23.167  13.889
50589W        W18807   8.271  12.347  13.892
50590W        W18808  26.910  24.962   0.932
50591W        W18809   5.779  30.069  13.961
50592W        W18810  21.224  23.629  10.992
50593W        W18811  24.746   5.373  14.765
50594W        W18812  16.053  35.796   1.816
50595W        W18813  17.839  12.295  11.207
50596W        W18814   9.938  43.723  11.122
50597W        W18815   0.523  16.591  11.833
50598W        W18816  32.660   5.929  11.983
50599W        W18817   4.808  13.756   0.752
50600W        W18818  28.247  41.301   1.865
50601W        W18819   0.267  19.645   4.575
50602W        W18820  25.207   1.815   0.941
50603W        W18821   6.848  35.827   3.388
50604W        W18822   1.207  19.571  11.219
50605W        W18823  18.307  26.642  10.757
50606W        W18824  25.143  20.595   3.129
50607W        W18825   0.490  25.971  13.023
50608W        W18826   4.445   7.698   1.369
50609W        W18827  43.975  32.960   3.342
50610W        W18828  25.741  41.687  13.144
50611W        W18829  37.457   2.083   1.955
50612W        W18830  16.134   2.931   2.213
50613W        W18831  44.573  13.846   3.343
50614W        W18832  24.456  32.964  14.952
50615W        W18833  22.491  11.154  13.006
50616W        W18834  37.616  18.552  14.345
50617W        W18835   3.773  42.047  11.507
50618W        W18836   0.413  11.883  14.526
50619W        W18837  27.324   5.854  11.738
50620W        W18838  34.576  43.970   0.950
50621W        W18839  25.542   5.868  14.925
50622W        W18840   7.353  26.478   0.496
50623W        W18841  32.870   5.229  10.268
50624W        W18842  19.956  20.271  12.974
50625W        W18843  34.503  15.039  14.942
50626W        W18844  17.783  40.504   2.001
50627W        W18845  15.390   5.095   4.432
50628W        W18846  12.203  11.068   4.659
50629W        W18847  32.197  36.469   3.737
50630W        W18848  34.690  32.520  14.949
50631W        W18849  19.981  24.111  14.006
50632W        W18850  22.028  17.122  11.531
50633W        W18851  19.948   1.886   4.316
50634W        W18852  29.620  13.210  14.972
50635W        W18853  10.622  29.889  14.226
50636W        W18854  11.573  32.290   4.134
50637W        W18855  25.370  33.493   4.184
50638W        W18856  21.072   5.305   2.384
50639W        W18857  21.795  27.962  10.770
50640W        W18858  14.550  29.464  13.839
50641W        W18859  36.923  27.932  13.937
50642W        W18860   5.235  27.629   3.731
50643W        W18861  32.635  26.254   4.176
50644W        W18862  24.950  15.117   4.438
50645W        W18863  43.480  26.131  12.084
50646W        W18864   6.908  31.997   1.134
50647W        W18865  12.817  22.584  13.755
50648W        W18866  40.291  27.573   0.901
50649W        W18867  11.031  21.013   3.720
50650W        W18868   7.884   8.758   1.223
50651W        W18869  28.899  11.821   1.657
50652W        W18870  10.093  37.333   4.518
50653W        W18871  10.627  40.456   3.374
50654W        W18872  43.314   0.950   1.320
50655W        W18873  11.638   1.117  13.305
50656W        W18874  26.146   9.088  11.737
50657W        W18875   8.000  25.211  12.584
50658W        W18876  26.218   8.349   3.592
50659W        W18877  26.926   2.225  11.538
50660W        W18878  43.399   1.998   2.312
50661W        W18879  21.690  39.474  11.799
50662W        W18880  34.294  33.108   0.253
50663W        W18881  42.012  30.416  10.115
50664W        W18882   2.987  11.786  12.424
50665W        W18883  35.502  11.804   4.234
50666W        W18884  19.099   8.120   1.547
50667W        W18885  43.528  20.338  13.467
50668W        W18886  22.917  44.576   1.040
50669W        W18887  32.127   5.741   1.246
50670W        W18888   3.262  23.933  13.091
50671W        W18889  19.038   6.558   3.167
50672W        W18890  28.716  22.988   3.066
50673W        W18891  30.330  32.410   4.215
50674W        W18892  43.978  10.100  12.975
50675W        W18893  39.623  44.868   1.772
50676W        W18894  21.736  37.808   0.448
50677W        W18895  11.340  12.992   1.882
50678W        W18896  23.594  26.268   3.588
50679W        W18897  17.032  32.285   1.013
50680W        W18898  16.569  19.029   1.920
50681W        W18899  29.087  37.060   0.484
50682W        W18900  26.593  33.999   4.649
50683W        W18901  32.355  41.891   5.224
50684W        W18902  26.988   2.921   0.916
50685W        W18903  40.250  35.901   4.801
50686W        W18904   6.106  25.344  13.469
50687W        W18905   5.237  10.645  14.764
50688W        W18906   8.079  39.085   2.630
50689W        W18907  28.899   4.022   2.912
50690W        W18908  17.192  23.638   2.636
50691W        W18909  35.309   0.082   1.319
50692W        W18910  19.932  29.002   4.333
50693W        W18911  13.406  37.320   1.439
50694W        W18912  12.544  44.492  11.158
50695W        W18913   6.708  17.132  11.617
50696W        W18914  42.219  42.930  10.448
50697W        W18915  12.115  16.607  14.582
50698W        W18916  29.603  38.851  13.867
50699W        W18917  11.378   0.867  14.696
50700W        W18918  25.743   9.739   4.584
50701W        W18919  41.381  41.711   2.319
50702W        W18920  19.707  22.444  11.509
50703W        W18921   3.476  27.784   0.782
50704W        W18922  21.972   5.318   1.860
50705W        W18923  12.359  13.791  11.222
50706W        W18924  22.147  37.999   0.088
50707W        W18925  13.380  35.535   1.695
50708W        W18926  34.313  44.792   0.421
50709W        W18927   5.985  42.653   3.655
50710W        W18928   2.477  13.619  11.607
50711W        W18929  31.913  23.151  13.032
50712W        W18930  18.087  19.844   0.693
50713W        W18931  15.618   0.361   3.616
50714W        W18932  37.997   2.492   3.133
50715W        W18933  27.545  36.219  12.376
50716W        W18934  43.808  11.185   4.116
50717W        W18935  38.450  41.285  10.493
50718W        W18936  38.987  35.366  12.535
50719W        W18937  31.154   8.596   2.871
50720W        W18938  37.920  39.477   4.460
50721W        W18939  13.373  34.014   3.699
50722W        W18940   4.953  12.205   2.303
50723W        W18941  15.646  42.276   4.632
50724W        W18942  15.150  30.677  10.502
50725W        W18943  31.096   8.437   3.776
50726W        W18944  22.514  28.464   0.119
50727W        W18945  44.996  24.260  11.129
50728W        W18946  42.955  26.620  14.713
50729W        W18947  25.252  37.787  13.885
50730W        W18948  15.935   5.163  14.972
50731W        W18949  35.986  21.127  14.877
50732W        W18950  24.042  44.569  13.492
50733W        W18951  18.707  12.434  14.284
50734W        W18952  44.601   5.398  10.443
50735W        W18953  37.949   6.776   1.176
50736W        W18954  40.853  33.982   4.140
50737W        W18955  31.162  41.809  13.828
50738W        W18956  38.805  24.561   2.833
50739W        W18957   9.757  35.505   4.280
50740W        W18958  27.700   0.942  11.673
50741W        W18959   2.501  43.397  14.544
50742W        W18960  31.139  24.086   2.812
50743W        W18961   5.832  22.011   4.299
50744W        W18962  33.143  26.934  11.613
50745W        W18963  21.467  43.889  12.941
50746W        W18964  19.762  17.539  14.854
50747W        W18965  12.282  44.955   2.720
50748W        W18966  17.158  38.880  11.820
50749W        W18967  36.477  15.317  14.351
50750W        W18968   8.862  40.999   3.648
50751W        W18969  33.564   4.091   4.243
50752W        W18970  11.611   9.856   2.807
50753W        W18971  31.370  25.539  14.057
50754W        W18972  21.305  44.857  11.560
50755W        W18973  16.205   1.630  12.391
50756W        W18974  35.092  16.174  11.022
50757W        W18975  32.561  21.271   4.665
50758W        W18976  33.059  40.041   1.164
50759W        W18977   8.079  27.477   2.745
50760W        W18978  22.634  18.196   0.972
50761W        W18979  35.373  44.073   1.360
50762W        W18980   1.700  18.705   3.455
50763W        W18981  24.729  34.949  12.962
50764W        W18982  20.064  14.586   1.402
50765W        W18983  30.953  31.611   4.204
50766W        W18984   0.189  40.769   0.599
50767W        W18985  22.194  21.684  13.554
50768W        W18986  39.861  34.289  13.798
50769W        W18987  17.773  17.086   4.905
50770W        W18988  24.685  43.987  12.935
50771W        W18989  30.615   6.216   4.750
50772W        W18990   5.730  42.874   4.032
50773W        W18991  14.421  20.838   2.319
50774W        W18992  16.698  10.167   3.692
50775W        W18993  19.349  27.948   4.862
50776W        W18994  39.248  37.913   2.770
50777W        W18995  32.145  10.149  13.113
50778W        W18996  26.863  39.653   2.416
50779W        W18997  11.838  24.591  14.847
50780W        W18998  42.086  29.096   2.893
50781W        W18999   3.902  14.124  12.624
50782W        W19000  22.022  43.013   4.129
50783W        W19001   7.196  10.389  14.024
50784W        W19002  11.297  35.526  10.691
50785W        W19003   4.207  35.566  10.851
50786W        W19004  26.929  28.109  11.175
50787W        W19005  17.674  39.081  13.079
50788W        W19006  18.567  35.348  11.109
50789W        W19007   8.404  40.943  14.524
50790W        W19008  41.076   2.489  11.529
50791W        W19009  12.221  43.305   1.349
50792W        W19010  41.258  11.155   0.423
50793W        W19011   7.748  18.496  10.827
50794W        W19012  14.327  20.261   1.409
50795W        W19013  18.500   6.798  11.082
50796W        W19014  26.453  29.169  11.955
50797W        W19015  39.919  28.721   4.432
50798W        W19016  28.607  36.341   0.004
50799W        W19017   1.413  37.853   2.553
50800W        W19018  31.357  17.138   4.436
50801W        W19019  30.687  13.370   4.082
50802W        W19020   2.853  38.379  14.031
50803W        W19021  10.729   3.090  13.594
50804W        W19022  22.623   1.783   1.906
50805W        W19023  28.365  12.819  14.623
50806W        W19024  30.971   7.749  14.978
50807W        W19025  12.107   6.947  12.519
50808W        W19026   3.172  19.778   4.585
50809W        W19027  14.749  38.331  10.635
50810W        W19028  33.413  35.994   2.679
50811W        W19029  37.108  33.863   2.528
50812W        W19030  29.928  24.971  11.212
50813W        W19031   8.458   0.653  13.063
50814W        W19032   1.984  37.128   1.233
50815W        W19033  32.147  22.774   2.082
50816W        W19034   9.938  36.338   1.705
50817W        W19035  42.779  28.122   2.829
50818W        W19036   1.501  23.987   3.085
50819W        W19037  30.859  27.732   4.971
50820W        W19038  41.097  41.027   3.139
50821W        W19039  38.012  27.657   4.172
50822W        W19040   1.322   5.262   1.733
50823W        W19041  28.474  15.513   2.337
50824W        W19042  19.966  43.214   4.499
50825W        W19043  32.476  41.657  14.540
50826W        W19044  19.696  12.091   2.707
50827W        W19045  39.983   3.270   1.367
50828W        W19046   8.533  25.208  11.752
50829W        W19047  10.703  19.752  12.500
50830W        W19048  32.785  10.106   4.169
50831W        W19049   1.392   9.825  10.679
50832W        W19050   6.774   8.154   2.758
50833W        W19051  44.413  36.358  12.459
50834W        W19052  31.784   8.894   4.294
50835W        W19053  36.969  38.998  13.084
50836W        W19054  14.377  32.554  12.426
50837W        W19055  40.412  15.696   4.502
50838W        W19056  11.805  17.853  14.471
50839W        W19057  36.080   9.273  12.989
50840W        W19058   5.407  25.649  12.938
50841W        W19059  27.177  43.518   0.305
50842W        W19060  22.529  33.097  12.521
50843W        W19061  15.648  16.219  14.443
50844W        W19062  44.959  44.239  11.088
50845W        W19063  20.921   5.917   0.935
50846W        W19064  34.538   0.779   4.536
50847W        W19065  25.713  36.602  13.912
50848W        W19066  42.362  39.956   2.074
50849W        W19067   7.905  36.633   4.558
50850W        W19068  16.601   7.454   2.706
50851W        W19069  40.714   0.474  13.339
50852W        W19070  19.543  20.867  11.671
50853W        W19071   9.078   6.742   0.216
50854W        W19072  33.738  16.067   2.844
50855W        W19073  40.484  42.380  10.666
50856W        W19074   1.950  36.612   1.270
50857W        W19075  37.864  35.595  11.492
50858W        W19076  17.049  21.704  12.076
50859W        W19077   5.248  15.711  12.409
50860W        W19078  30.040   3.222   0.486
50861W        W19079  16.614  21.508   2.972
50862W        W19080   6.858  41.339  11.103
50863W        W19081  29.936  17.132   3.928
50864W        W19082  32.879  10.923  11.608
50865W        W19083  35.042  34.214   2.648
50866W        W19084   5.967  25.929   3.844
50867W        W19085  19.018  29.150  11.335
50868W        W19086  26.194  30.022  14.479
50869W        W19087  31.349  32.915   4.643
50870W        W19088  26.678  31.067   3.798
50871W        W19089   3.522  38.075   2.006
50872W        W19090  18.162   3.167  12.931
50873W        W19091  38.370  34.422  14.891
50874W        W19092  38.942  32.194   3.589
50875W        W19093  31.033   8.184  11.238
50876W        W19094  25.610  26.407  10.105
50877W        W19095  31.563  29.002   4.784
50878W        W19096  36.279  26.038   9.766
50879W        W19097  29.382  14.534   2.315
50880W        W19098   9.150   8.329  11.998
50881W        W19099  37.377  19.137  13.544
50882W        W19100  43.821  33.592   0.471
50883W        W19101  23.436  13.232  12.855
50884W        W19102  34.336  30.986  10.657
50885W        W19103  42.788  42.758  14.745
50886W        W19104  37.548  25.518   0.034
50887W        W19105  19.077  30.030   3.697
50888W        W19106  35.418  25.268   0.339
50889W        W19107  33.065  12.640  12.496
50890W        W19108  33.031  11.845   2.769
50891W        W19109  35.802  10.674  12.895
50892W        W19110  17.702   6.495   1.198
50893W        W19111   5.324  43.004  14.855
50894W        W19112  28.901  39.226  10.869
50895W        W19113  44.046  15.326  13.591
50896W        W19114  14.958  27.576   0.000
50897W        W19115  32.607   1.850  12.453
50898W        W19116  42.425  41.752   2.958
50899W        W19117  21.579  12.206  10.904
50900W        W19118  30.188  28.992   2.263
50901W        W19119  27.603  37.785   0.241
50902W        W19120  44.518  14.251   4.578
50903W        W19121  18.825  32.620   1.253
50904W        W19122  24.211  29.384   0.318
50905W        W19123  24.162  25.237  13.516
50906W        W19124  32.557  12.877   4.495
50907W        W19125  17.049  16.034  13.313
50908W        W19126  21.066   8.994  10.353
50909W        W19127  35.810  40.911  12.522
50910W        W19128  17.711  30.942  13.469
50911W        W19129  18.302  23.933  11.512
50912W        W19130  21.657  27.140  14.547
50913W        W19131   5.958  15.277   1.528
50914W        W19132  42.813  30.881   0.114
50915W        W19133  37.913  38.988   3.590
50916W        W19134  44.057  38.629  14.236
50917W        W19135  27.191  29.076   3.208
50918W        W19136  40.780  22.135  12.868
50919W        W19137  37.637  19.250  10.683
50920W        W19138  40.371  14.945  14.197
50921W        W19139  19.029   0.920  12.980
50922W        W19140  26.522  17.330  11.594
50923W        W19141  37.602  15.403  11.931
50924W        W19142  43.256  26.507  10.805
50925W        W19143  41.375  25.655   1.443
50926W        W19144  17.800   6.963   1.480
50927W        W19145   6.790  13.636   0.251
50928W        W19146   3.904   0.215  14.897
50929W        W19147  39.737  17.578  13.405
50930W        W19148  32.972  10.103  11.465
50931W        W19149  28.575   6.687  12.330
50932W        W19150  12.005   6.591  13.819
50933W        W19151  19.592  40.886   1.048
50934W        W19152  26.501  31.602   2.262
50935W        W19153  39.451  39.797  10.936
50936W        W19154   3.733  30.320  12.544
50937W        W19155  21.656  32.157   0.224
50938W        W19156   1.296  32.665   3.638
50939W        W19157  15.012   6.903  14.336
50940W        W19158  16.660  28.885   4.631
50941W        W19159  34.465  20.282   2.660
50942W        W19160  20.645  25.762   1.701
50943W        W19161  17.844  12.522  13.796
50944W        W19162  13.936  13.610   2.824
50945W        W19163  37.709  11.748  10.883
50946W        W19164  24.576  17.501   0.988
50947W        W19165  18.167  23.118  13.294
50948W        W19166   4.638  29.567   0.201
50949W        W19167  33.336  14.328   3.038
50950W        W19168   6.288   2.758  12.825
50951W        W19169  32.977  16.521  14.628
50952W        W19170  20.320   9.389  13.040
50953W        W19171  33.485  31.920  11.191
50954W        W19172  13.749  31.978   1.840
50955W        W19173  22.071   1.435  12.857
50956W        W19174   2.518  22.162  10.784
50957W        W19175  44.306  42.459   0.388
50958W        W19176  34.236  20.371  12.861
50959W        W19177  39.453  36.206   0.956
50960W        W19178  25.229   0.190  13.071
50961W        W19179   4.600  22.210   3.639
50962W        W19180  25.469  10.194   3.620
50963W        W19181  15.603   0.961  12.662
50964W        W19182  10.405  12.691  14.416
50965W        W19183  44.906   5.947  12.609
50966W        W19184  18.919  44.966  11.184
50967W        W19185  39.028  31.100  14.273
50968W        W19186  13.451   9.880   3.774
50969W        W19187   7.430  41.089   2.310
50970W        W19188  24.187  34.168   2.371
50971W        W19189  25.617  22.566  11.309
50972W        W19190  31.727  22.130  12.374
50973W        W19191   3.901  36.132   0.718
50974W        W19192   1.832  41.799   4.470
50975W        W19193  26.926  15.741   2.240
50976W        W19194  22.607  21.283   1.211
50977W        W19195  15.556  26.120   2.449
50978W        W19196   3.713  35.013   3.196
50979W        W19197  12.771  41.937  10.513
50980W        W19198  43.787  11.666   0.755
50981W        W19199   7.216  22.757  12.408
50982W        W19200  43.201  44.303  10.754
50983W        W19201  37.217  15.355   4.166
50984W        W19202  27.050  35.908  14.441
50985W        W19203   1.731  43.942  13.918
50986W        W19204  34.684  29.125  10.479
50987W        W19205  12.787  31.358  14.151
50988W        W19206  37.401  43.046  12.019
50989W        W19207   0.375  31.858  14.602
50990W        W19208  27.472  28.579  13.292
50991W        W19209  44.561   7.108  13.059
50992W        W19210  25.131  15.589  13.519
50993W        W19211  33.610  31.063  11.846
50994W        W19212  39.642  43.849  11.144
50995W        W19213  25.688  44.614  10.620
50996W        W19214  40.856  15.350  10.677
50997W        W19215  15.335  14.251   0.736
50998W        W19216  44.997  12.985   3.795
50999W        W19217   7.864  12.285   0.475
51000W        W19218   3.267  30.087  12.609
51001W        W19219  18.533  39.497   1.749
51002W        W19220   3.827   6.324   1.016
51003W        W19221  23.754  42.963  10.718
51004W        W19222  28.246  33.525   4.069
51005W        W19223   6.380  24.611   4.633
51006W        W19224   7.111  29.514  10.961
51007W        W19225  38.241  35.445  13.474
51008W        W19226  17.647  44.410  10.194
51009W        W19227  34.052  13.667   1.818
51010W        W19228  40.949  27.770   0.376
51011W        W19229  12.343  31.047  11.151
51012W        W19230  32.289  25.674  13.066
51013W        W19231  10.298  25.662  11.301
51014W        W19232   5.178  43.289   0.277
51015W        W19233   8.644  38.566   1.280
51016W        W19234  19.989  19.046  11.703
51017W        W19235  11.343  15.371  12.926
51018W        W19236  41.323  33.429  12.880
51019W        W19237   0.729  29.552   4.131
51020W        W19238  41.387  42.979   0.788
51021W        W19239   1.762  37.979   3.261
51022W        W19240  30.242   9.294   1.882
51023W        W19241  32.075   5.227   2.300
51024W        W19242  33.298  39.247  11.096
51025W        W19243  24.259  23.868  11.577
51026W        W19244  42.062  28.942  11.894
51027W        W19245  41.001  22.978   0.073
51028W        W19246  25.609  44.418   2.454
51029W        W19247   5.472  10.650  11.110
51030W        W19248  18.316  17.090   0.861
51031W        W19249  15.315  35.865  14.825
51032W        W19250  31.282  16.078   3.282
51033W        W19251   0.291  35.965  11.602
51034W        W19252  44.313  34.102  13.422
51035W        W19253  22.690  19.213   4.089
51036W        W19254   3.031  10.886   3.167
51037W        W19255  15.734  36.457  14.269
51038W        W19256  24.268  11.558   1.574
51039W        W19257   4.923   6.578  11.685
51040W        W19258  24.603  32.794   1.449
51041W        W19259  11.144  31.951   0.883
51042W        W19260   9.278  16.091  12.116
51043W        W19261   7.759  16.842   3.336
51044W        W19262   6.646   3.713   3.638
51045W        W19263  32.087  15.661   0.742
51046W        W19264   9.394  41.468   1.397
51047W        W19265   1.480   2.414   1.198
51048W        W19266  40.228   1.991   5.125
51049W        W19267  27.867  12.664  11.581
51050W        W19268  25.810  31.682  10.817
51051W        W19269  22.983  14.632  14.966
51052W        W19270  38.024  15.171   3.621
51053W        W19271  43.006  23.019   1.771
51054W        W19272  18.521  43.031   3.130
51055W        W19273  21.790  37.410   3.845
51056W        W19274  22.573   4.299   3.573
51057W        W19275  42.286   8.743   0.241
51058W        W19276  17.865  39.125   0.256
51059W        W19277  42.717  42.014  12.334
51060W        W19278  22.605   7.214   4.496
51061W        W19279   0.496  20.514   0.978
51062W        W19280  41.375   7.317  14.065
51063W        W19281  35.534  15.169   3.321
51064W        W19282  40.308  31.164  12.330
51065W        W19283   3.900  40.060   2.768
51066W        W19284  26.759  10.811  10.404
51067W        W19285   5.758  12.144  13.781
51068W        W19286  20.936  16.119   0.386
51069W        W19287  26.502  21.014  12.101
51070W        W19288  43.014  23.264   0.838
51071W        W19289  41.558   9.351   4.112
51072W        W19290   3.020  22.583  12.442
51073W        W19291   6.374  38.804   3.708
51074W        W19292   0.392  33.653  13.835
51075W        W19293  35.251  34.889   1.245
51076W        W19294  23.698  10.839  13.943
51077W        W19295  24.104  33.865   2.779
51078W        W19296   2.181  24.988  14.375
51079W        W19297  29.969  37.600   0.237
51080W        W19298  30.874  30.878  11.567
51081W        W19299  27.358  11.599   1.825
51082W        W19300  14.238  28.202   3.395
51083W        W19301  29.389  33.095   0.969
51084W        W19302  15.867  42.835  11.995
51085W        W19303  18.391  28.176   0.411
51086W        W19304   0.679  41.924  13.764
51087W        W19305  24.661   2.266  14.475
51088W        W19306  22.397  13.837  10.871
51089W        W19307  33.587  33.655  11.392
51090W        W19308  12.701  37.816  13.178
51091W        W19309  10.984  37.213   5.012
51092W        W19310  29.384  37.521  11.968
51093W        W19311  26.231  18.577   4.280
51094W        W19312   7.948   2.699   4.865
51095W        W19313  41.038  29.566   0.782
51096W        W19314   8.911  25.739   4.193
51097W        W19315  27.996   5.085   3.033
51098W        W19316  29.622  36.110  14.748
51099W        W19317  39.925  17.315   3.996
51100W        W19318  25.459  14.165  11.609
51101W        W19319  30.857  30.986  12.451
51102W        W19320  33.676  40.911  14.998
51103W        W19321  19.168  39.571   0.284
51104W        W19322   3.733  11.088  10.573
51105W        W19323   1.082  39.832   1.199
51106W        W19324  43.548  14.736  12.593
51107W        W19325  34.531  36.964  12.899
51108W        W19326  20.974  28.403  12.443
51109W        W19327  18.567  40.750  10.786
51110W        W19328   1.227  37.076   3.455
51111W        W19329  27.167  18.880   2.262
51112W        W19330  17.468  29.076   2.375
51113W        W19331  31.389  27.575  14.259
51114W        W19332  41.579  19.717  11.599
51115W        W19333  31.745   0.290  13.020
51116W        W19334  13.415   2.958   4.325
51117W        W19335   4.061   4.255  13.471
51118W        W19336   9.781   2.440   0.800
51119W        W19337  15.231  18.009  10.696
51120W        W19338   3.759   6.978   4.810
51121W        W19339  20.348  36.575  12.151
51122W        W19340  24.220  34.650  11.461
51123W        W19341  30.927  34.939   0.875
51124W        W19342  29.292   1.029  13.262
51125W        W19343  28.438  19.537   1.858
51126W        W19344   1.049  38.045  11.390
51127W        W19345  12.946  37.555   0.727
51128W        W19346  44.791   4.896  11.633
51129W        W19347  35.585  16.503  12.768
51130W        W19348  17.681   4.572   0.432
51131W        W19349   8.730  34.850   1.259
51132W        W19350  14.021   9.287  12.621
51133W        W19351  39.413   3.150  14.066
51134W        W19352  29.628  28.703   0.954
51135W        W19353  41.545  22.752   3.039
51136W        W19354  25.888   1.162   4.699
51137W        W19355  27.546  26.539   3.656
51138W        W19356  16.283   7.642   0.970
51139W        W19357  16.809  26.544   1.763
51140W        W19358  15.157  30.495   0.464
51141W        W19359   6.408  37.782   3.686
51142W        W19360  35.390  35.050  14.977
51143W        W19361  30.830  15.736   0.543
51144W        W19362  42.055  25.424  11.024
51145W        W19363  41.020   1.236   4.389
51146W        W19364  10.780   9.411   1.881
51147W        W19365  14.209  43.939   3.858
51148W        W19366  15.190  12.333   3.714
51149W        W19367  28.079  24.228   5.204
51150W        W19368   7.107  38.094  12.932
51151W        W19369  33.720  36.010   4.968
51152W        W19370  24.936  20.739  13.029
51153W        W19371  25.541   3.323  12.304
51154W        W19372  24.249   1.016  13.393
51155W        W19373  30.095  34.828  11.502
51156W        W19374   5.391  21.445   1.923
51157W        W19375  39.515  12.263   4.142
51158W        W19376  24.727  21.754  10.957
51159W        W19377   8.899  27.989  13.076
51160W        W19378   0.800  16.159   4.613
51161W        W19379   1.178  19.013  10.041
51162W        W19380  33.075  29.486   2.214
51163W        W19381  35.117  22.435   0.388
51164W        W19382   6.694   4.101  11.536
51165W        W19383  43.823  19.090  14.760
51166W        W19384  17.569  24.168  11.945
51167W        W19385  29.009  15.634   1.837
51168W        W19386  12.805  21.052  13.483
51169W        W19387  33.220  23.691   4.071
51170W        W19388   6.112  15.164   1.053
51171W        W19389  23.714  24.212  12.828
51172W        W19390  24.530  14.862  13.976
51173W        W19391   6.349  42.786  10.665
51174W        W19392  41.779   2.452   4.158
51175W        W19393   6.368  39.448   5.087
51176W        W19394   2.742  29.913  12.942
51177W        W19395  15.791   5.866   0.420
51178W        W19396  36.590   2.522   1.853
51179W        W19397  43.311   7.150   3.634
51180W        W19398  41.839  24.924   0.062
51181W        W19399  34.991  43.367  14.082
51182W        W19400  18.477  13.494   0.183
51183W        W19401  29.074  44.205   0.343
51184W        W19402  11.270  18.788  12.425
51185W        W19403  25.951  40.407  11.064
51186W        W19404  43.804  26.181  11.229
51187W        W19405   7.380  43.970   4.535
51188W        W19406  29.483  37.018   4.464
51189W        W19407  15.187  28.914  14.263
51190W        W19408  11.417  31.744   5.013
51191W        W19409  15.641   1.646  10.627
51192W        W19410  17.805  15.683   4.798
51193W        W19411  11.232   9.239  11.944
51194W        W19412  18.648  37.479  11.960
51195W        W19413  21.164  15.668   0.253
51196W        W19414  27.286  22.056  14.796
51197W        W19415  42.266   8.846  14.733
51198W        W19416   9.271  25.529  14.281
51199W        W19417  13.647   7.244   3.699
51200W        W19418  43.058  31.398   2.449
51201W        W19419   0.183  30.427  11.058
51202W        W19420  36.071   2.275   5.062
51203W        W19421  12.842   9.626   3.204
51204W        W19422   1.840  28.976   4.144
51205W        W19423  28.830  39.888  11.612
51206W        W19424  27.982   9.838  14.891
51207W        W19425  44.337  16.607  12.832
51208W        W19426  21.540  39.373  14.903
51209W        W19427   9.411  40.404  10.744
51210W        W19428   1.557  16.383  10.865
51211W        W19429  17.846  17.997  14.428
51212W        W19430  16.819  15.608  11.475
51213W        W19431  23.471   4.267   2.820
51214W        W19432  35.044   5.338  13.358
51215W        W19433  39.846  28.488  14.328
51216W        W19434  29.999   3.365  12.459
51217W        W19435  23.541  13.073  11.523
51218W        W19436  41.173  11.304  10.573
51219W        W19437  21.500  34.409  14.352
51220W        W19438   2.476  41.310   2.692
51221W        W19439   6.901  40.059   3.656
51222W        W19440  23.286  34.401  14.265
51223W        W19441  13.178  25.605  13.419
51224W        W19442  28.092  33.068  13.102
51225W        W19443  32.816   9.257   0.442
51226W        W19444  11.546  20.176   1.197
51227W        W19445  22.663   1.032  10.623
51228W        W19446  18.195   6.389  11.118
51229W        W19447  19.577  17.272   2.629
51230W        W19448   4.935  11.139  13.569
51231W        W19449  32.406  43.835   3.712
51232W        W19450  34.090  38.846   2.532
51233W        W19451   2.710  34.192  12.880
51234W        W19452  15.097   4.745   4.684
51235W        W19453  35.620  19.100   0.380
51236W        W19454   3.986  32.003   3.459
51237W        W19455  43.847   4.183  12.789
51238W        W19456  17.341  34.489   1.132
51239W        W19457   5.385  27.390   0.734
51240W        W19458  32.063   3.387  13.950
51241W        W19459  41.964  14.331  10.887
51242W        W19460  16.265  31.195  11.539
51243W        W19461  34.521  39.404   2.617
51244W        W19462  18.015  35.413   2.685
51245W        W19463  27.208  10.748   4.098
51246W        W19464  40.365  15.278   2.825
51247W        W19465  16.774  38.093  12.325
51248W        W19466   6.375  22.185  13.359
51249W        W19467  28.490  10.359  11.079
51250W        W19468  26.224  38.611  12.604
51251W        W19469   5.362   6.488  12.098
51252W        W19470  29.208  18.293   1.428
51253W        W19471  42.351   2.277  13.432
51254W        W19472   1.746  29.486   4.141
51255W        W19473  36.574  19.658  11.277
51256W        W19474   1.774  13.530   2.495
51257W        W19475  33.536  28.485  12.051
51258W        W19476   3.526  22.948  11.625
51259W        W19477  24.244  30.244   2.313
51260W        W19478  21.454  31.517   3.124
51261W        W19479  26.457  12.600   0.324
51262W        W19480  29.051  40.579  13.794
51263W        W19481  27.551  44.993   1.151
51264W        W19482   0.803  38.514   1.613
51265W        W19483   9.463  44.751   0.810
51266W        W19484  11.875  24.653  10.736
51267W        W19485  32.324  40.928   4.611
51268W        W19486  18.578   5.395   1.458
51269W        W19487  40.530  37.447  12.800
51270W        W19488  11.689   3.529  14.911
51271W        W19489   8.746   6.180   1.663
51272W        W19490  34.382  26.753  12.310
51273W        W19491   9.025  19.299   2.077
51274W        W19492  25.071  30.448   0.851
51275W        W19493   5.429  37.455  13.439
51276W        W19494   0.728  17.319   1.251
51277W        W19495  36.128  13.419  12.656
51278W        W19496  13.838  12.068   3.623
51279W        W19497   7.761  14.303   4.006
51280W        W19498  30.104  18.651  12.838
51281W        W19499  18.436  19.149   1.114
51282W        W19500   4.198  24.188  13.962
51283W        W19501   4.355  36.394  11.955
51284W        W19502  35.426  26.908   0.760
51285W        W19503  26.931   8.295   0.765
51286W        W19504  28.074  34.601  14.699
51287W        W19505  36.932   7.662   1.334
51288W        W19506   0.444  36.275   0.875
51289W        W19507  39.484  28.623   1.673
51290W        W19508   5.560  33.093   2.039
51291W        W19509  42.888  33.664   2.152
51292W        W19510  18.508  27.125  10.653
51293W        W19511   8.203   2.467  13.587
51294W        W19512  35.986  33.743   5.010
51295W        W19513  37.892  33.396   4.260
51296W        W19514  21.565   7.979   3.819
51297W        W19515   9.258  38.034   2.818
51298W        W19516  31.002  23.238  11.315
51299W        W19517   2.395  40.299  14.624
51300W        W19518   1.260   4.464  10.673
51301W        W19519  17.545  17.688   3.678
51302W        W19520  37.882  16.770   1.927
51303W        W19521  11.131  33.234  14.456
51304W        W19522   0.232  37.907  10.795
51305W        W19523   2.496  41.606   0.376
51306W        W19524  24.162  39.898  10.404
51307W        W19525  28.658   8.172   0.401
51308W        W19526   0.340  18.263  13.957
51309W        W19527   8.696  22.940   3.560
51310W        W19528  34.283   1.319  10.791
51311W        W19529  41.309   2.763  11.087
51312W        W19530  32.732  10.191   2.765
51313W        W19531  25.326   3.064   5.031
51314W        W19532  31.213  39.314  14.387
51315W        W19533  13.370   9.329  14.754
51316W        W19534  25.997  18.963   0.385
51317W        W19535  24.867  12.305   0.312
51318W        W19536  34.335   0.895  14.411
51319W        W19537   7.495   3.920   4.425
51320W        W19538  30.169  27.017  12.436
51321W        W19539   7.742  23.021  11.566
51322W        W19540  10.304  35.872   4.412
51323W        W19541  19.643  15.920  12.805
51324W        W19542  14.797  10.037   1.839
51325W        W19543   5.473  32.768  13.643
51326W        W19544  14.699   1.273  12.105
51327W        W19545   3.003  22.770   1.441
51328W        W19546  21.805   0.354   0.356
51329W        W19547   5.319  26.977   3.606
51330W        W19548  18.199   8.388  10.869
51331W        W19549  22.218  25.173   3.645
51332W        W19550  38.379  39.096   1.337
51333W        W19551  31.094  25.001  11.547
51334W        W19552  11.301  11.871  11.785
51335W        W19553  44.643  20.359  12.430
51336W        W19554  25.137  11.307   1.988
51337W        W19555  33.442  23.748  14.424
51338W        W19556   7.505  19.175  11.030
51339W        W19557  18.130  14.704   3.335
51340W        W19558  44.466  42.067   2.948
51341W        W19559  41.239  34.415  12.181
51342W        W19560   2.928  38.239  14.905
51343W        W19561  12.671  42.497   2.888
51344W        W19562  36.871  13.843  11.068
51345W        W19563   9.591   5.808  12.171
51346W        W19564  38.844  32.801   2.754
51347W        W19565   9.790   9.128   2.753
51348W        W19566  42.059  44.948  11.363
51349W        W19567  18.743  31.199   4.367
51350W        W19568  21.048   3.190  11.960
51351W        W19569   2.198  39.680  11.546
51352W        W19570  31.671  22.650  12.971
51353W        W19571  26.553   8.862   3.337
51354W        W19572  42.324   3.863  10.547
51355W        W19573  35.486   8.395  12.850
51356W        W19574  31.562  43.375   2.838
51357W        W19575  25.440  32.356   0.268
51358W        W19576  26.035  18.279   2.627
51359W        W19577  25.058  11.764   4.709
51360W        W19578  31.519   8.215   4.571
51361W        W19579  11.631  20.608  12.034
51362W        W19580  35.819  26.000  14.975
51363W        W19581   3.510   4.434   3.070
51364W        W19582  13.568  21.448   3.210
51365W        W19583   7.607  20.680   0.211
51366W        W19584  39.983  17.080  14.905
51367W        W19585  41.001   9.816   2.250
51368W        W19586  25.757  28.239   4.072
51369W        W19587   0.338   7.389   1.230
51370W        W19588  39.249  39.851  13.323
51371W        W19589   5.155   2.974   4.793
51372W        W19590  12.306  13.855   4.333
51373W        W19591  27.406  26.631  11.653
51374W        W19592  33.446   2.895   2.081
51375W        W19593   8.388  28.441  13.844
51376W        W19594  32.494   9.421   0.817
51377W        W19595  36.706  34.255  13.274
51378W        W19596  34.948  43.517   2.356
51379W        W19597  32.046  14.436  14.998
51380W        W19598  42.287   3.628  12.528
51381W        W19599   4.806  43.729  10.633
51382W        W19600  42.363  29.248   2.221
51383W        W19601  27.472  22.660  12.649
51384W        W19602  35.866  11.958   3.912
51385W        W19603  16.185  24.052  14.305
51386W        W19604   0.710  12.592   3.247
51387W        W19605   1.817   6.765   1.147
51388W        W19606  12.305   7.641  12.926
51389W        W19607  11.660  30.147   4.935
51390W        W19608  41.141  20.097  11.186
51391W        W19609  33.597  43.812   3.163
51392W        W19610   2.437  16.085  13.007
51393W        W19611  42.055  39.765  14.830
51394W        W19612   4.551  23.042  13.420
51395W        W19613   3.520  39.691   2.724
51396W        W19614  17.778  18.548  11.514
51397W        W19615  40.782  11.291  14.015
51398W        W19616  28.022  39.019  14.987
51399W        W19617  24.757  25.884  13.559
51400W        W19618  22.475  34.394  11.161
51401W        W19619   1.824  29.039   0.515
51402W        W19620  37.408  20.363   0.319
51403W        W19621  29.719  10.738   2.777
51404W        W19622  29.772  29.662  12.087
51405W        W19623   0.441  28.676   3.728
51406W        W19624  32.040  25.419   2.239
51407W        W19625   3.224  34.177  12.677
51408W        W19626  12.279  21.802   2.590
51409W        W19627   7.757   0.686   0.351
51410W        W19628  39.824  37.363   1.691
51411W        W19629  37.067  17.264   4.598
51412W        W19630   4.772  36.824  11.481
51413W        W19631  28.456  41.047  11.608
51414W        W19632  30.124  10.678  14.750
51415W        W19633  21.646  42.877  13.680
51416W        W19634  33.082   8.752  12.511
51417W        W19635  38.213  29.721  11.742
51418W        W19636  39.621  16.276  13.057
51419W        W19637  42.023  32.601  10.455
51420W        W19638  20.625  25.070  13.891
51421W        W19639  27.228  20.180   4.353
51422W        W19640   4.706  27.028  12.147
51423W        W19641   7.329  34.205  10.969
51424W        W19642  37.860  31.895  10.300
51425W        W19643  24.095   4.803   0.966
51426W        W19644   7.374   3.855  13.489
51427W        W19645   8.151  41.667   2.408
51428W        W19646   6.772  14.134   3.301
51429W        W19647  17.804  26.598  10.673
51430W        W19648  14.619  32.040   3.384
51431W        W19649   9.401  30.132   1.238
51432W        W19650  35.566  43.678  12.939
51433W        W19651  16.697   0.996   0.254
51434W        W19652  33.189  17.284   1.266
51435W        W19653  13.088  22.117   4.398
51436W        W19654  43.792  29.615  11.951
51437W        W19655   3.690  43.600  11.554
51438W        W19656  31.507  30.341   5.214
51439W        W19657  42.977  11.388  10.375
51440W        W19658   8.651  44.564  10.936
51441W        W19659  18.087  28.226   3.480
51442W        W19660  43.814  43.601   3.945
51443W        W19661  16.975  24.214   3.216
51444W        W19662  18.908  12.190  13.277
51445W        W19663  22.422  28.147  11.956
51446W        W19664  27.993  42.061   1.422
51447W        W19665  29.944  24.322   4.946
51448W        W19666  42.175   2.706  10.651
51449W        W19667  33.918  22.029   1.370
51450W        W19668  36.335  39.483  11.464
51451W        W19669  40.105  36.539   2.265
51452W        W19670  14.890  41.295   4.084
51453W        W19671  11.705   1.928   4.003
51454W        W19672  31.354  33.016   2.025
51455W        W19673  16.120  32.078   4.009
51456W        W19674  22.004  35.307   0.651
51457W        W19675  17.153   2.759   4.964
51458W        W19676  44.257   9.576   1.695
51459W        W19677  19.115   8.156   4.185
51460W        W19678   4.549  26.279  13.176
51461W        W19679  40.256  25.490  11.514
51462W        W19680   3.268  17.372   4.210
51463W        W19681  39.537   4.462  11.133
51464W        W19682  22.016  24.570  12.794
51465W        W19683   4.942  31.807   0.222
51466W        W19684  30.382  36.966   4.580
51467W        W19685   9.883   5.816   3.804
51468W        W19686  28.530  32.183   3.161
51469W        W19687  30.694  38.660  12.632
51470W        W19688  23.229   9.208   3.225
51471W        W19689  23.245  15.822  13.375
51472W        W19690   9.429  41.677  11.440
51473W        W19691  35.680  30.676  13.194
51474W        W19692  31.869  14.361  14.511
51475W        W19693  32.347  17.703  14.827
51476W        W19694  36.381   6.149   2.423
51477W        W19695  11.950  37.362   4.157
51478W        W19696  31.589  19.247   3.209
51479W        W19697  28.527  22.920  11.948
51480W        W19698  41.690  32.106   4.728
51481W        W19699  26.615  41.276   4.258
51482W        W19700  17.779  10.318  14.782
51483W        W19701  26.320   3.624   1.887
51484W        W19702  12.046  25.009  12.021
51485W        W19703  35.535  13.705   1.695
51486W        W19704  38.798  16.216  12.108
51487W        W19705  12.960  24.556  10.606
51488W        W19706  33.195  20.092  12.217
51489W        W19707  16.691   5.277   2.654
51490W        W19708  20.791  35.860   2.623
51491W        W19709  41.306  22.881   0.882
51492W        W19710  13.848  12.801   2.499
51493W        W19711  34.313  42.880   2.027
51494W        W19712   1.842  41.735  10.545
51495W        W19713  17.580  17.565   4.993
51496W        W19714  41.369  12.680   0.798
51497W        W19715  37.007  30.972  14.704
51498W        W19716  40.150   3.762  10.351
51499W        W19717  20.034  23.026  13.384
51500W        W19718   9.145   1.763   4.457
51501W        W19719  36.510  35.225  13.045
51502W        W19720  33.872   6.400  11.590
51503W        W19721   5.955   4.930  14.116
51504W        W19722   6.304  39.557   3.071
51505W        W19723  29.787  35.848  13.907
51506W        W19724  35.395   3.340   3.791
51507W        W19725  33.345  42.416  14.921
51508W        W19726  11.300  28.060   3.705
51509W        W19727  34.134   1.456   2.735
51510W        W19728  42.232   4.724  10.707
51511W        W19729  10.185   4.747  12.548
51512W        W19730   3.638  31.362  13.312
51513W        W19731  44.833  11.314   4.368
51514W        W19732   0.704  25.448   1.804
51515W        W19733  26.167  11.025   4.271
51516W        W19734  14.994  12.681   1.759
51517W        W19735  35.516  25.463  10.558
51518W        W19736  24.502  22.119  13.083
51519W        W19737  43.004  24.723  10.714
51520W        W19738  27.176  13.109  12.367
51521W        W19739  26.625  22.394   1.014
51522W        W19740   3.801  28.151  13.414
51523W        W19741  39.568  30.622   2.323
51524W        W19742   9.190  25.273   4.274
51525W        W19743  23.645  16.555  10.575
51526W        W19744   5.712  25.717  13.823
51527W        W19745  24.546  20.064  14.132
51528W        W19746   7.159  30.993   1.998
51529W        W19747  43.105  34.093   4.780
51530W        W19748  36.885  35.771   3.753
51531W        W19749  19.183  37.328  11.872
51532W        W19750   0.676  20.897   4.042
51533W        W19751   7.507  44.877   2.200
51534W        W19752  26.098  34.623   2.754
51535W        W19753  44.846  18.104  13.766
51536W        W19754  37.216   8.703   1.801
51537W        W19755  38.988   9.647   2.758
51538W        W19756  41.311   8.378   0.955
51539W        W19757  17.318   0.415  10.658
51540W        W19758  34.997  24.164   3.087
51541W        W19759  24.425  15.689  11.129
51542W        W19760  34.212   1.180  12.142
51543W        W19761   4.909  10.924   1.724
51544W        W19762  20.332  11.399  11.240
51545W        W19763   3.985   4.790   0.812
51546W        W19764  30.025  20.687  12.375
51547W        W19765   4.320  25.442  13.379
51548W        W19766  37.407  38.844  13.331
51549W        W19767   6.120  12.174  10.773
51550W        W19768   2.568  23.205  10.684
51551W        W19769  14.272  24.827  13.359
51552W        W19770  42.778  14.818  10.554
51553W        W19771  32.826  27.283  11.978
51554W        W19772  43.092   4.019   1.783
51555W        W19773  35.044  37.064   2.884
51556W        W19774  19.258   8.108  14.895
51557W        W19775  40.823  38.337   3.692
51558W        W19776  44.747  26.885  14.369
51559W        W19777  18.830  25.483   3.102
51560W        W19778  40.518   4.257   3.156
51561W        W19779  25.239  24.876  12.484
51562W        W19780  38.243  11.700  13.404
51563W        W19781  19.025  29.409   4.336
51564W        W19782  23.587  35.323   2.406
51565W        W19783   6.226   1.868   0.454
51566W        W19784  10.306   8.131  12.581
51567W        W19785  39.428  28.155   0.383
51568W        W19786   3.211  37.399  12.983
51569W        W19787  20.275  21.692   3.292
51570W        W19788   6.008  35.341   1.574
51571W        W19789  37.787  12.827   0.514
51572W        W19790  30.526  34.099  11.591
51573W        W19791  33.398  25.581  13.877
51574W        W19792  43.508  13.207   4.504
51575W        W19793   8.546   4.918  10.666
51576W        W19794   8.684  35.240   5.180
51577W        W19795  31.045  28.698  10.669
51578W        W19796  28.605   9.470   1.635
51579W        W19797  13.856  37.893  12.497
51580W        W19798  29.592  41.493  10.803
51581W        W19799   3.867  25.974   2.531
51582W        W19800  36.123  42.406  11.178
51583W        W19801  22.490  14.778   0.745
51584W        W19802  38.076   4.808   0.926
51585W        W19803  25.104  31.349  11.606
51586W        W19804  12.340  36.497   0.050
51587W        W19805   6.754  35.557  14.447
51588W        W19806  10.728  37.078  11.565
51589W        W19807  25.772  38.906   3.901
51590W        W19808  35.873  38.311  11.100
51591W        W19809  16.327   8.955  12.519
51592W        W19810   4.253  39.700   2.640
51593W        W19811  28.936  22.590   1.012
51594W        W19812  13.301  15.538   5.042
51595W        W19813   2.367  33.621  12.674
51596W        W19814   1.495  13.231   4.218
51597W        W19815  25.824  38.946   1.010
51598W        W19816  37.758  43.961   3.548
51599W        W19817  25.804  13.015  13.419
51600W        W19818  25.256  34.979   4.880
51601W        W19819   3.948  14.476   3.740
51602W        W19820  25.922  24.003   2.865
51603W        W19821  23.936  43.696   3.725
51604W        W19822  41.465  16.306   0.874
51605W        W19823  30.030  27.510  12.768
51606W        W19824  26.246  38.415  10.613
51607W        W19825   4.584  26.165  11.188
51608W        W19826  30.525  39.979  11.689
51609W        W19827  16.720  39.153   1.301
51610W        W19828   8.053   2.773   2.942
51611W        W19829  16.098  25.973  12.496
51612W        W19830  21.112  19.775  11.458
51613W        W19831  11.734   5.419   2.446
51614W        W19832  13.109  38.358   2.267
51615W        W19833  12.341   1.051  12.168
51616W        W19834  40.251   0.768   3.304
51617W        W19835   4.757   4.258   4.647
51618W        W19836  22.155   1.293  10.515
51619W        W19837   6.956   8.907  12.002
51620W        W19838  38.658  26.233   4.965
51621W        W19839  17.474  12.112   4.874
51622W        W19840  38.281  15.176  14.300
51623W        W19841  26.704   4.784  14.021
51624W        W19842  43.952  21.002  13.747
51625W        W19843  14.054  43.982  13.381
51626W        W19844  29.438  18.753   1.399
51627W        W19845   5.866  17.287  14.935
51628W        W19846  39.470  33.199   2.273
51629W        W19847  44.453  33.789  13.006
51630W        W19848   4.694  34.026   0.779
51631W        W19849  36.562   1.016   4.606
51632W        W19850  39.420   7.479   0.025
51633W        W19851   4.890  33.783  12.844
51634W        W19852  35.381  25.440   1.941
51635W        W19853   5.482   7.286  11.153
51636W        W19854  37.546  14.631  14.142
51637W        W19855  34.121  16.560  13.077
51638W        W19856  33.920  18.004  11.538
51639W        W19857   4.274  40.852  12.057
51640W        W19858   9.831  37.822   0.382
51641W        W19859  22.972  23.073  10.740
51642W        W19860  22.441  16.673   4.572
51643W        W19861   3.404  35.855   3.696
51644W        W19862   7.210  41.013   3.894
51645W        W19863  27.983  37.292  10.554
51646W        W19864  33.523  12.505   4.521
51647W        W19865  38.456  25.121  11.123
51648W        W19866  23.589  28.114  12.839
51649W        W19867   5.092  18.715   1.000
51650W        W19868  16.718   3.774  10.707
51651W        W19869  22.761  34.558   2.464
51652W        W19870  31.042   3.114  10.680
51653W        W19871   2.320  21.516   4.314
51654W        W19872  15.212  38.010   4.784
51655W        W19873  40.510   9.886   3.769
51656W        W19874  26.626  38.094  12.034
51657W        W19875  28.438   7.420   2.587
51658W        W19876  33.978  14.904   1.147
51659W        W19877  32.485  30.024   1.872
51660W        W19878  42.377  13.694   0.867
51661W        W19879  35.040  36.300   0.369
51662W        W19880  16.256   0.106  14.054
51663W        W19881  25.971  13.251  10.389
51664W        W19882  12.537  27.046   3.341
51665W        W19883  29.522  22.719   9.617
51666W        W19884   1.443   1.005  14.853
51667W        W19885  23.689   0.398  11.379
51668W        W19886  39.060  25.566  14.852
51669W        W19887  38.492   5.801  11.959
51670W        W19888   4.191  15.212  11.571
51671W        W19889   6.948  35.303   2.071
51672W        W19890  19.484  37.316   4.607
51673W        W19891  14.648  40.352  13.783
51674W        W19892   7.702  17.223   1.812
51675W        W19893  33.993  26.638  12.637
51676W        W19894  44.561  22.102  10.722
51677W        W19895   2.156   3.643  11.190
51678W        W19896  11.564  41.258   1.812
51679W        W19897  10.662  35.496   4.548
51680W        W19898  28.663  24.251   4.466
51681W        W19899  26.680  22.312   4.933
51682W        W19900   0.137   8.874  13.533
51683W        W19901   9.242  20.959   1.408
51684W        W19902  10.552  13.825   3.884
51685W        W19903  31.719   8.933   3.395
51686W        W19904  18.046  36.973  11.601
51687W        W19905  11.037  44.413  13.597
51688W        W19906  24.057  12.355   2.295
51689W        W19907  10.097  40.421   3.405
51690W        W19908  13.243   4.861   4.570
51691W        W19909  20.511  16.120  12.535
51692W        W19910  11.614  11.521   1.291
51693W        W19911  29.595   5.115   4.962
51694W        W19912  43.051   8.409  10.661
51695W        W19913  38.597   2.692  12.107
51696W        W19914   5.605   8.570   4.797
51697W        W19915  40.213  42.342   0.416
51698W        W19916   9.283   5.043   0.395
51699W        W19917  12.655  27.009  10.956
51700W        W19918   1.527  20.552  12.500
51701W        W19919  18.101  43.290  13.186
51702W        W19920   6.310  26.494   2.976
51703W        W19921   5.273  15.921  11.373
51704W        W19922  23.418  22.696  13.594
51705W        W19923  18.014  38.164  13.987
51706W        W19924  14.049   7.320   2.038
51707W        W19925  34.008   0.890  10.419
51708W        W19926  36.863  38.863  14.928
51709W        W19927  39.974  23.762   1.384
51710W        W19928  22.073  28.497  14.814
51711W        W19929  26.895  43.538   1.216
51712W        W19930   1.847  19.789   2.769
51713W        W19931  15.146  28.705   2.606
51714W        W19932  30.022  21.132   3.562
51715W        W19933  38.085  10.623  14.747
51716W        W19934   2.380  13.102  11.629
51717W        W19935  13.593  33.423  12.559
51718W        W19936  39.098  32.870   2.318
51719W        W19937  28.446  18.310   0.431
51720W        W19938  25.689  29.006  13.522
51721W        W19939  15.980  38.510   2.118
51722W        W19940  14.169  15.051   3.594
51723W        W19941   3.824   4.613   1.690
51724W        W19942  38.445   5.766  11.434
51725W        W19943  33.566  26.089  13.856
51726W        W19944   0.013  32.049   3.222
51727W        W19945  12.698  29.901   0.641
51728W        W19946  19.090  39.033  10.455
51729W        W19947  24.864  38.767  11.016
51730W        W19948   0.364  32.379  14.458
51731W        W19949   2.202  25.661   0.845
51732W        W19950  21.976  17.226   4.032
51733W        W19951  37.821  11.451   3.053
51734W        W19952  18.845  35.908  11.595
51735W        W19953  42.523  14.228   2.848
51736W        W19954  13.527  38.946   1.700
51737W        W19955  11.400  29.977   1.225
51738W        W19956  15.829  30.910  11.603
51739W        W19957   5.301  26.072   4.621
51740W        W19958  24.059  14.023   4.067
51741W        W19959  30.965  11.940   9.916
51742W        W19960  29.153  28.099  14.121
51743W        W19961  19.028  30.515  13.495
51744W        W19962   7.179  23.299   1.303
51745W        W19963  38.290  35.646   2.738
51746W        W19964   1.534   4.837  14.499
51747W        W19965  11.598   3.181   1.748
51748W        W19966   9.779  34.556  14.778
51749W        W19967  18.628  37.660  10.445
51750W        W19968  24.144  16.745  12.006
51751W        W19969  30.088  17.249  13.246
51752W        W19970   9.185  38.666  10.957
51753W        W19971  13.580  13.782  12.457
51754W        W19972  33.410   1.380  11.543
51755W        W19973  12.738  35.676   3.681
51756W        W19974  18.766  30.666   3.366
51757W        W19975   1.241  18.028  14.076
51758W        W19976   6.868  34.531   2.056
51759W        W19977  21.606  17.279  11.793
51760W        W19978  44.936  32.632  14.896
51761W        W19979  43.341   0.311   4.866
51762W        W19980  43.123  12.606   3.711
51763W        W19981  15.657  12.713   3.644
51764W        W19982  12.509   5.908  14.184
51765W        W19983  18.047  33.361  10.649
51766W        W19984  15.477  18.926  12.827
51767W        W19985  42.524  29.955  12.802
51768W        W19986  17.087   4.953  13.938
51769W        W19987  19.028  10.618   2.181
51770W        W19988  38.013  28.718  13.516
51771W        W19989   3.873   3.402   4.228
51772W        W19990  10.721  34.982   2.493
51773W        W19991  25.266  21.514   3.173
51774W        W19992  35.133  25.060   3.724
51775W        W19993   4.675  30.244   3.660
51776W        W19994  32.821  21.522   4.301
51777W        W19995   3.853   2.900   4.057
51778W        W19996   3.307  12.790   4.794
51779W        W19997  27.339  30.427  12.989
51780W        W19998   7.158  41.486  14.539
51781W        W19999  17.650  30.704   1.257
51782W        W20000  40.013  31.415  14.448
51783W        W20001  18.030  18.291  11.976
51784W        W20002  35.606   3.347  12.402
51785W        W20003  26.532  16.282  12.502
51786W        W20004  44.911  26.674  14.853
51787W        W20005  15.640  31.924  14.357
51788W        W20006  26.141  27.185  11.487
51789W        W20007  22.036  10.655   0.864
51790W        W20008  31.612  44.224  11.201
51791W        W20009  22.046  32.008   1.059
51792W        W20010  30.222  22.954  14.804
51793W        W20011  14.978   1.002   2.661
51794W        W20012  19.555  37.885   0.524
51795W        W20013  16.774  18.092  12.599
51796W        W20014  21.867  43.948   1.447
51797W        W20015  41.463   8.076   0.204
51798W        W20016  41.692  12.409  14.439
51799W        W20017  43.114  43.885  12.069
51800W        W20018  44.702   5.530  12.892
51801W        W20019  14.083   7.331  13.428
51802W        W20020   7.282  10.275  14.512
51803W        W20021  25.262   4.300   2.283
51804W        W20022  23.022  38.297  12.810
51805W        W20023  33.179  36.058   3.118
51806W        W20024  17.715  38.690  13.475
51807W        W20025   4.721  19.061  12.848
51808W        W20026   2.449   1.850  11.239
51809W        W20027  14.061   8.887   3.563
51810W        W20028  37.298  22.608   4.864
51811W        W20029  24.122  42.623  12.430
51812W        W20030  14.293  11.606   0.234
51813W        W20031  39.580  32.658   3.652
51814W        W20032  20.744   5.780   2.292
51815W        W20033  13.758  34.347  11.077
51816W        W20034  19.158   3.748  13.437
51817W        W20035   3.743  43.505  12.882
51818W        W20036  31.118  36.105  13.034
51819W        W20037  29.687  39.744  10.895
51820W        W20038  44.995  26.679   1.348
51821W        W20039  19.604  18.871   4.174
51822W        W20040  37.963  36.609  11.234
51823W        W20041  26.641  17.593   4.064
51824W        W20042  29.166   2.794   0.942
51825W        W20043  17.297  40.141   3.648
51826W        W20044   9.332   0.167   3.632
51827W        W20045  33.450  25.161   5.058
51828W        W20046  15.285  25.976   1.520
51829W        W20047   3.776  36.490  12.619
51830W        W20048  26.408  21.698   9.531
51831W        W20049  14.426  36.324   1.174
51832W        W20050  26.399  28.211   1.352
51833W        W20051  40.744  35.107   4.244
51834W        W20052  36.502   7.362   1.262
51835W        W20053  24.475  44.424   0.895
51836W        W20054   8.853   2.727  11.067
51837W        W20055  24.974  15.809   2.197
51838W        W20056  22.958  13.043  12.888
51839W        W20057  44.959  40.359   0.361
51840W        W20058  11.818  23.985  12.028
51841W        W20059  34.043  38.446  14.738
51842W        W20060  32.520  34.892   4.557
51843W        W20061  33.256  42.129  12.443
51844W        W20062   6.105  35.969   3.626
51845W        W20063  31.387  27.937   2.679
51846W        W20064   6.693  30.355   4.597
51847W        W20065  25.384  23.535   2.385
51848W        W20066  19.864   4.304  13.898
51849W        W20067  41.436  34.643   4.637
51850W        W20068   5.119   9.948   2.381
51851W        W20069   7.388  19.531  12.638
51852W        W20070   3.495  35.930   1.229
51853W        W20071   7.851  28.496   0.913
51854W        W20072   3.521  33.971   4.470
51855W        W20073  39.532  13.586   1.323
51856W        W20074   5.908  33.079   3.215
51857W        W20075  10.287  27.284   2.217
51858W        W20076  19.785   6.652   2.769
51859W        W20077  29.673  16.770   1.286
51860W        W20078  27.994  10.352   0.194
51861W        W20079  33.181  18.928   1.594
51862W        W20080  36.639  12.154  11.656
51863W        W20081  37.362  28.536  14.678
51864W        W20082  29.519  11.578   2.252
51865W        W20083  28.044  26.272   2.456
51866W        W20084  13.936   7.695  11.444
51867W        W20085  19.041   9.745  14.006
51868W        W20086   1.531   0.034   0.696
51869W        W20087  13.742  14.625  14.810
51870W        W20088  35.230  27.869   0.864
51871W        W20089  10.838  11.820   4.395
51872W        W20090  15.720  26.558  11.493
51873W        W20091   0.768  35.941  14.811
51874W        W20092   3.826  15.106   1.325
51875W        W20093  34.451   6.897   2.719
51876W        W20094   0.697   5.317   4.465
51877W        W20095  38.280  18.936  12.630
51878W        W20096  19.071   7.875  10.921
51879W        W20097  44.539  40.528  13.869
51880W        W20098  35.099  14.480   0.515
51881W        W20099   7.416  39.416   0.829
51882W        W20100  10.135  26.584   3.735
51883W        W20101   8.730  32.490   3.812
51884W        W20102  43.817  41.155   2.422
51885W        W20103  26.699  33.968  11.184
51886W        W20104  12.861   0.947  10.762
51887W        W20105  36.041  25.902   3.930
51888W        W20106   6.826  25.094  11.328
51889W        W20107   5.842   3.300  14.776
51890W        W20108  17.098  29.978   1.482
51891W        W20109  37.600  29.449   3.671
51892W        W20110  15.533   5.799   2.844
51893W        W20111   3.042  44.731   4.436
51894W        W20112  36.066  19.618  13.086
51895W        W20113   9.951  15.578   4.514
51896W        W20114  17.263  28.690   0.814
51897W        W20115  39.575  17.774  10.785
51898W        W20116  41.001  21.501   3.745
51899W        W20117   0.594  36.877  13.848
51900W        W20118  12.746   4.883   3.720
51901W        W20119  13.152  17.091   4.028
51902W        W20120  31.013  22.088  14.317
51903W        W20121  32.842   4.386   1.837
51904W        W20122  34.858  29.209   4.128
51905W        W20123   4.678  24.445   4.981
51906W        W20124  37.980  20.642   4.132
51907W        W20125  15.567  17.636  14.444
51908W        W20126  19.527  24.251  13.180
51909W        W20127  26.652  21.301  12.512
51910W        W20128   7.809  21.131   1.677
51911W        W20129   3.313   6.075   4.440
51912W        W20130  22.272  35.428  12.781
51913W        W20131   2.330  41.436  10.768
51914W        W20132  10.674  35.163  14.587
51915W        W20133  29.619  12.140   3.723
51916W        W20134  37.127  30.500   2.056
51917W        W20135  13.082   2.295   4.191
51918W        W20136   7.425  14.639  11.119
51919W        W20137  30.058  21.685   2.355
51920W        W20138  20.495   9.743  13.839
51921W        W20139  17.747  25.565   1.095
51922W        W20140   0.948   1.412   3.849
51923W        W20141  42.995  22.465  10.798
51924W        W20142  38.047   3.293   2.475
51925W        W20143  29.362   1.827  10.775
51926W        W20144  13.664  34.357   3.982
51927W        W20145  18.150  11.146  10.004
51928W        W20146  22.453   1.736  13.087
51929W        W20147  20.673   8.738   2.948
51930W        W20148  26.557  25.081   1.612
51931W        W20149  13.784  14.759  10.431
51932W        W20150   3.430  18.663   2.360
51933W        W20151   6.441  16.631   4.436
51934W        W20152  19.120  33.859   4.604
51935W        W20153  22.240   2.022  12.040
51936W        W20154  26.510  10.253   1.244
51937W        W20155  43.977  33.848  13.757
51938W        W20156  14.352  42.971  14.876
51939W        W20157   1.543   0.018   4.679
51940W        W20158  28.965  14.786   0.452
51941W        W20159  33.037  11.586  12.446
51942W        W20160  27.966  27.692  11.046
51943W        W20161   7.785   4.665  14.575
51944W        W20162  42.482  29.014  10.941
51945W        W20163  43.885  22.532  11.886
51946W        W20164   9.597   8.959  12.667
51947W        W20165   8.129  18.833  12.364
51948W        W20166  43.497  32.986  14.360
51949W        W20167  22.564  34.568   1.194
51950W        W20168  41.332  44.767   2.247
51951W        W20169  43.893  19.213   4.168
51952W        W20170  22.543  19.785   0.597
51953W        W20171  19.558   7.222   1.827
51954W        W20172  13.416  22.701   0.368
51955W        W20173   3.709  19.909  11.027
51956W        W20174   4.062  30.892   3.278
51957W        W20175   2.726  29.350  12.116
51958W        W20176  33.963  18.158   2.390
51959W        W20177  36.564  34.047   3.822
51960W        W20178  33.860  14.547   4.396
51961W        W20179  14.235  10.586  11.576
51962W        W20180  36.571  25.138   4.501
51963W        W20181  23.527  18.323  11.494
51964W        W20182  14.537  39.457   4.244
51965W        W20183   5.164  11.361  10.676
51966W        W20184  38.065  16.766  12.091
51967W        W20185  39.671  16.560   1.791
51968W        W20186  28.706  32.134  11.182
51969W        W20187   7.143  19.545   4.567
51970W        W20188  29.353  43.719  13.968
51971W        W20189  27.418  39.171  12.343
51972W        W20190  39.917  35.859   0.705
51973W        W20191  25.859  12.296   2.379
51974W        W20192  19.376  13.009   1.812
51975W        W20193  23.621  14.131  11.743
51976W        W20194  34.905   6.637   2.714
51977W        W20195  41.379  37.144  10.656
51978W        W20196   6.115  21.829   0.304
51979W        W20197  11.772  43.335   3.220
51980W        W20198   7.076  11.529  14.920
51981W        W20199  24.040  20.759  11.056
51982W        W20200  31.529   8.676  10.517
51983W        W20201  11.634  30.126  11.008
51984W        W20202   4.110  32.135  10.121
51985W        W20203  41.784   4.351  11.981
51986W        W20204  11.426  13.638   0.622
51987W        W20205  34.943  35.223   0.347
51988W        W20206   8.653   6.681  12.343
51989W        W20207  24.729  27.230  14.465
51990W        W20208  30.746  27.318  13.791
51991W        W20209   9.456   5.959   3.533
51992W        W20210   1.747  10.207  13.521
51993W        W20211  33.234  39.436   1.858
51994W        W20212  41.911  41.877   1.558
51995W        W20213  35.330  29.398  14.625
51996W        W20214  14.802   7.842  13.395
51997W        W20215  35.916  39.426   2.735
51998W        W20216   8.753  27.359   3.230
51999W        W20217  23.963  37.737  11.236
52000W        W20218  42.823  10.755  12.998
52001W        W20219   3.717   8.028   3.759
52002W        W20220  31.995  35.122  13.034
52003W        W20221  11.738  16.169  12.031
52004W        W20222  40.740   8.271  11.220
52005W        W20223  22.977   4.403  10.446
52006W        W20224  34.681   6.635  11.939
52007W        W20225  38.859   8.597   2.703
52008W        W20226   2.856  43.511   2.785
52009W        W20227  10.785  26.206  12.416
52010W        W20228  32.150  20.326  13.860
52011W        W20229  16.483  26.256  11.613
52012W        W20230   0.199  14.814   2.575
52013W        W20231  33.444  37.563  12.772
52014W        W20232  29.874  31.476   4.132
52015W        W20233  27.032  43.865  13.016
52016W        W20234  19.471   0.236   3.122
52017W        W20235  31.653   5.427   4.994
52018W        W20236  22.608  15.567  12.454
52019W        W20237  43.942  43.530   1.153
52020W        W20238   6.643  34.471  12.097
52021W        W20239  10.319  19.122   4.180
52022W        W20240  18.166  12.328   1.197
52023W        W20241   5.157  27.953   1.913
52024W        W20242  30.882  10.654   4.099
52025W        W20243  13.339  17.478  14.056
52026W        W20244   5.478  22.690   3.588
52027W        W20245  18.746  36.968  14.692
52028W        W20246  13.153  33.356   3.666
52029W        W20247  37.879  16.673   2.961
52030W        W20248  30.661  37.533   1.915
52031W        W20249  31.373   0.702  13.465
52032W        W20250  43.972   9.696   1.266
52033W        W20251  19.156  36.812   3.609
52034W        W20252  35.684  27.094  14.795
52035W        W20253  28.498  33.534   4.543
52036W        W20254  15.633  28.496   1.247
52037W        W20255  29.362   9.327  11.513
52038W        W20256  35.494  17.876  14.976
52039W        W20257  36.912   0.274  11.522
52040W        W20258  44.829  20.214  14.870
52041W        W20259  27.673  27.656  12.992
52042W        W20260   7.705   7.582  13.418
52043W        W20261  20.621   3.339   0.347
52044W        W20262   7.174  34.980  12.586
52045W        W20263  35.428  20.679   0.816
52046W        W20264   3.315  33.517   0.276
52047W        W20265  29.875  23.128   3.810
52048W        W20266  21.175  33.124   9.779
52049W        W20267  27.242   1.460   2.755
52050W        W20268  39.828   4.963  10.644
52051W        W20269  28.710  23.021   0.858
52052W        W20270  25.260  25.225   4.482
52053W        W20271  43.014  30.021  12.934
52054W        W20272  21.198  12.745  11.527
52055W        W20273  12.587   6.776   3.241
52056W        W20274   4.140  41.542   2.238
52057W        W20275  17.375  17.437   1.811
52058W        W20276  29.399  37.784   4.361
52059W        W20277  22.279  42.239  13.436
52060W        W20278  18.585  36.873  13.782
52061W        W20279   7.312  34.079  10.474
52062W        W20280  25.787  37.979  12.107
52063W        W20281   6.409  37.479   4.607
52064W        W20282  17.647  30.550   3.210
52065W        W20283   2.932   8.524   4.822
52066W        W20284  33.527  11.353  12.377
52067W        W20285  12.276  12.313  11.374
52068W        W20286  40.317  23.934  13.939
52069W        W20287  22.741  20.115  12.903
52070W        W20288   1.853  37.546   3.813
52071W        W20289  34.596  42.836  12.372
52072W        W20290  13.008   8.168  13.438
52073W        W20291  11.956  20.364  12.433
52074W        W20292   1.002  24.537  14.663
52075W        W20293  17.079  19.018   1.872
52076W        W20294   3.345  37.701   4.657
52077W        W20295   6.641  31.156  12.978
52078W        W20296   6.371  30.540  14.465
52079W        W20297  42.886  33.398   4.541
52080W        W20298   3.690  23.135   4.539
52081W        W20299   5.127  23.180  10.550
52082W        W20300  42.310  34.316  11.369
52083W        W20301   6.245   5.287  11.022
52084W        W20302  24.572  28.164  10.596
52085W        W20303  11.978   3.341  12.592
52086W        W20304   7.342  33.151   1.223
52087W        W20305  18.598  41.085   4.138
52088W        W20306  43.050  13.385   0.319
52089W        W20307  36.539  29.653   4.574
52090W        W20308  36.849  25.453   1.957
52091W        W20309  10.344  17.108  11.920
52092W        W20310  19.222   8.294   2.003
52093W        W20311  17.468  36.928  14.575
52094W        W20312  39.866  20.229  10.570
52095W        W20313  10.688  42.266  11.529
52096W        W20314  43.835   5.732  13.132
52097W        W20315  39.650  32.653   1.475
52098W        W20316  35.618  22.465   0.311
52099W        W20317   6.350  36.909   3.269
52100W        W20318  29.727  40.414   2.336
52101W        W20319   1.360   6.040  13.973
52102W        W20320   2.436   4.276   3.107
52103W        W20321  40.040  31.855  11.606
52104W        W20322  34.799  29.973   2.119
52105W        W20323   0.744  20.677  14.311
52106W        W20324  38.562  22.471   1.214
52107W        W20325   0.932  33.339  13.758
52108W        W20326  17.775  20.208   0.943
52109W        W20327  33.914   4.988   0.376
52110W        W20328  15.900  30.600   3.208
52111W        W20329  12.184  22.739  13.118
52112W        W20330  35.727   5.973   3.215
52113W        W20331  16.812  36.089   2.738
52114W        W20332  31.376  38.044  14.866
52115W        W20333  14.293  28.223  14.962
52116W        W20334  12.114  16.018   4.507
52117W        W20335  32.430  15.141   4.101
52118W        W20336   1.056  25.632  14.873
52119W        W20337  43.697  40.645  11.070
52120W        W20338   9.159  19.002  10.459
52121W        W20339  21.595  38.434  14.556
52122W        W20340  32.619   3.675   1.374
52123W        W20341  43.876  31.350  11.495
52124W        W20342   9.781  44.695   2.955
52125W        W20343   8.650  18.846  14.771
52126W        W20344  37.276  44.213  13.018
52127W        W20345  14.570  39.832   4.883
52128W        W20346   3.043   7.870   2.838
52129W        W20347  28.237   0.483  10.866
52130W        W20348   4.382  10.392  12.040
52131W        W20349  33.791  27.985  14.541
52132W        W20350  26.623  44.905   2.233
52133W        W20351  38.835   0.525   4.687
52134W        W20352  16.020  39.739   1.836
52135W        W20353   0.929  30.932  13.464
52136W        W20354  12.931  11.389   3.268
52137W        W20355   8.485  15.643   2.864
52138W        W20356   2.486   5.948  12.491
52139W        W20357   0.046  29.204   0.147
52140W        W20358  39.430  31.625   1.310
52141W        W20359  10.658  37.397   2.368
52142W        W20360  23.179  14.584   2.327
52143W        W20361  18.039  27.534   1.053
52144W        W20362  13.870   2.866   0.909
52145W        W20363  13.410   1.564   0.843
52146W        W20364   0.650  19.953  13.284
52147W        W20365  28.626  22.742   4.666
52148W        W20366  29.292   5.514  10.494
52149W        W20367  17.534  16.585   0.510
52150W        W20368  18.638   9.692  11.887
52151W        W20369  11.216   2.716   4.696
52152W        W20370  33.572  33.213   2.570
52153W        W20371   7.877   8.080   4.118
52154W        W20372  39.081  43.573   0.807
52155W        W20373  37.642  34.064  12.836
52156W        W20374   7.940   1.401   4.917
52157W        W20375  26.064  16.030  12.551
52158W        W20376   8.782  15.144  10.218
52159W        W20377  18.041  21.684  12.862
52160W        W20378  27.706  35.953  13.086
52161W        W20379  10.236   5.206   4.286
52162W        W20380  33.536  22.727  12.085
52163W        W20381  29.044  22.203  11.053
52164W        W20382  28.904   9.666  12.016
52165W        W20383  18.233  16.236  10.463
52166W        W20384   2.383  23.727  11.420
52167W        W20385  43.266  30.741  14.883
52168W        W20386  28.406  15.994  12.471
52169W        W20387   9.096  36.559   3.195
52170W        W20388  44.495  23.601   1.365
52171W        W20389  10.352   8.469   1.286
52172W        W20390  31.219  30.206  12.936
52173W        W20391  12.205  42.878   3.808
52174W        W20392   1.747  26.784   2.032
52175W        W20393  19.303  38.414   1.993
52176W        W20394  16.342  23.017   0.625
52177W        W20395  23.057  11.122  11.457
52178W        W20396   8.645   6.647   3.178
52179W        W20397  12.105  32.873   3.491
52180W        W20398  18.537  23.802   2.192
52181W        W20399  33.189  25.017   2.334
52182W        W20400  15.642  30.533  13.790
52183W        W20401   0.522  16.233   2.691
52184W        W20402   6.246  20.148  12.634
52185W        W20403  18.540  43.262  10.632
52186W        W20404   9.652   2.339  12.918
52187W        W20405   6.862  18.765   1.027
52188W        W20406  11.572   6.934   4.053
52189W        W20407   7.194  29.928  14.479
52190W        W20408  37.824  23.057  11.958
52191W        W20409  39.787  36.439   1.852
52192W        W20410   0.810  28.113   0.429
52193W        W20411   5.890  20.103  11.394
52194W        W20412  32.147  25.920  14.325
52195W        W20413   6.797  20.130   0.536
52196W        W20414  43.791  32.623   1.805
52197W        W20415  30.428   9.719   3.083
52198W        W20416   1.188  31.166  13.868
52199W        W20417  30.554  23.891  12.419
52200W        W20418  23.593  33.628  13.853
52201W        W20419  29.209  22.100   2.820
52202W        W20420  30.196  40.581   2.425
52203W        W20421  20.776   7.769  12.785
52204W        W20422   2.413  36.886  14.813
52205W        W20423  15.904  27.511   1.410
52206W        W20424  22.332  22.971  11.966
52207W        W20425  10.565  38.916  10.124
52208W        W20426  34.624   1.497   2.896
52209W        W20427  21.668   2.901  11.235
52210W        W20428  37.986  28.513   4.614
52211W        W20429  22.304  13.626   1.885
52212W        W20430  28.974   4.743  14.840
52213W        W20431  34.141  30.497   0.477
52214W        W20432   2.408  14.723  11.734
52215W        W20433  37.074  10.946   1.162
52216W        W20434   7.426  16.043   3.640
52217W        W20435  30.369  28.510   4.307
52218W        W20436  33.558   7.655  12.112
52219W        W20437   5.299   7.769  11.227
52220W        W20438  23.999   5.533  13.527
52221W        W20439  40.729  19.703   0.601
52222W        W20440  41.641  25.137   4.249
52223W        W20441  39.912  24.009   0.937
52224W        W20442  37.087  36.459  10.639
52225W        W20443  23.213   1.082  12.136
52226W        W20444  17.101   7.292   1.765
52227W        W20445   2.834  36.872  14.024
52228W        W20446  12.414   6.013  12.399
52229W        W20447   7.772  32.029  13.829
52230W        W20448  14.567   4.284  12.874
52231W        W20449  38.577  18.054  14.392
52232W        W20450  14.777  18.547   5.062
52233W        W20451  28.919  38.271   0.333
52234W        W20452   2.496  30.419   1.314
52235W        W20453  20.273  24.572   2.599
52236W        W20454   2.783  30.127  11.208
52237W        W20455  42.252  26.506   2.197
52238W        W20456  30.542   9.228   0.497
52239W        W20457   5.512  37.069  14.283
52240W        W20458   2.514  39.889  11.183
52241W        W20459  17.634  36.626  12.473
52242W        W20460   9.963  16.103   4.661
52243W        W20461  26.983  29.780   4.706
52244W        W20462  23.585   1.247  12.557
52245W        W20463   6.781  33.333  12.607
52246W        W20464  24.060  26.575  11.118
52247W        W20465  30.020  22.144  11.957
52248W        W20466  11.663   2.161  13.233
52249W        W20467   0.262  36.659  12.073
52250W        W20468  13.621  29.661  13.949
52251W        W20469   1.402   3.453  11.674
52252W        W20470  12.804  32.889  13.837
52253W        W20471  22.463  32.533  10.732
52254W        W20472   1.212   0.369   2.846
52255W        W20473   8.172  19.259  10.459
52256W        W20474  28.269   6.271  12.359
52257W        W20475   0.452  39.104   4.501
52258W        W20476   0.111  43.012   4.533
52259W        W20477   4.797  41.893   0.460
52260W        W20478  18.130  33.737  10.285
52261W        W20479  34.328  26.626  11.795
52262W        W20480  34.833  30.703   1.857
52263W        W20481  19.564   2.157   1.318
52264W        W20482  20.326   4.120  14.981
52265W        W20483  37.362  26.055  11.589
52266W        W20484  11.290  17.371  10.388
52267W        W20485   0.981  18.275   3.848
52268W        W20486  28.088  23.692  14.840
52269W        W20487  24.125   9.469   0.737
52270W        W20488  27.364   1.468   2.247
52271W        W20489  37.976  43.043  11.560
52272W        W20490  28.135  25.121   4.684
52273W        W20491  15.791   5.345   2.733
52274W        W20492  20.305   7.256  13.470
52275W        W20493  21.613   7.388   1.172
52276W        W20494  17.315  44.989  13.846
52277W        W20495  29.404  29.905  11.123
52278W        W20496   5.870  18.446  12.976
52279W        W20497  38.992  13.412  13.333
52280W        W20498  26.270  23.892   4.096
52281W        W20499  38.144  40.338  12.545
52282W        W20500  24.075  29.521   3.739
52283W        W20501  39.002  40.277   4.778
52284W        W20502   9.919   0.737   5.002
52285W        W20503  14.691   6.525   4.080
52286W        W20504  29.875  10.907  10.426
52287W        W20505  39.403  41.257   3.169
52288W        W20506  27.906   2.861  13.636
52289W        W20507  20.655  29.467   2.374
52290W        W20508   2.330  44.233  14.842
52291W        W20509   4.345  31.099   0.332
52292W        W20510  17.124  40.928   1.688
52293W        W20511   3.758  40.900   2.364
52294W        W20512  32.625  13.807  14.500
52295W        W20513  25.474  37.440   0.660
52296W        W20514  28.129  10.326  11.546
52297W        W20515   2.117  23.129  13.109
52298W        W20516   6.832  31.796  10.512
52299W        W20517  42.824   1.077  12.125
52300W        W20518  40.790   5.894   3.138
52301W        W20519  19.286  44.721  12.405
52302W        W20520  24.034  11.435  12.743
52303W        W20521  34.400  43.016  13.238
52304W        W20522  20.631  26.320   4.178
52305W        W20523  13.489  18.679   3.724
52306W        W20524   6.158  11.873  13.481
52307W        W20525  18.117  44.352  13.619
52308W        W20526  33.893   5.997   0.853
52309W        W20527  19.031  44.784  14.979
52310W        W20528  43.226  18.123   1.367
52311W        W20529  21.531  11.934  14.513
52312W        W20530   6.062  41.459   0.376
52313W        W20531   3.611  11.741   3.177
52314W        W20532  37.884  13.494  12.726
52315W        W20533  39.354   5.640   5.054
52316W        W20534  12.424  18.612  14.293
52317W        W20535  39.949  21.227   1.768
52318W        W20536  44.288   8.678  12.000
52319W        W20537   7.271   5.326   4.133
52320W        W20538  25.002  40.581   1.329
52321W        W20539   6.485  30.379  11.928
52322W        W20540  18.524  11.209   1.932
52323W        W20541  22.784  21.139  14.845
52324W        W20542  10.729  21.810   4.353
52325W        W20543  25.917  27.893  13.874
52326W        W20544  41.377  33.390  14.810
52327W        W20545  28.824  33.864   3.270
52328W        W20546  11.000  25.325  10.785
52329W        W20547  33.108  15.250  12.111
52330W        W20548  31.027  42.067   0.848
52331W        W20549  23.778   2.417  11.217
52332W        W20550   8.896  23.739  13.442
52333W        W20551  24.779  36.866  14.329
52334W        W20552  10.241  11.335  11.990
52335W        W20553  23.510  14.104   3.252
52336W        W20554  44.838  13.535   3.731
52337W        W20555   8.418  27.414  12.581
52338W        W20556  10.798  15.666   1.341
52339W        W20557   8.244  26.731   3.628
52340W        W20558  25.186  36.090  14.712
52341W        W20559  18.690  40.039  12.148
52342W        W20560  41.858  36.047   1.176
52343W        W20561   4.687   5.180  11.197
52344W        W20562  13.114   4.244   0.790
52345W        W20563   1.931  31.199   2.825
52346W        W20564  27.642  24.357   5.504
52347W        W20565  30.415  44.440  11.780
52348W        W20566  42.347  14.018   3.296
52349W        W20567  21.462  37.106  14.409
52350W        W20568  37.979   2.527   0.217
52351W        W20569  33.437  38.085   2.969
52352W        W20570  13.809  31.688   2.878
52353W        W20571   9.116  38.327  13.852
52354W        W20572   7.792  44.149  14.387
52355W        W20573  16.898   5.740   1.834
52356W        W20574  16.942  28.990  12.756
52357W        W20575  20.545  31.711   3.326
52358W        W20576  12.814  26.295   2.823
52359W        W20577  19.243  39.942  12.390
52360W        W20578   8.544  39.637  11.911
52361W        W20579  22.495  25.353  10.901
52362W        W20580  36.275  35.354  12.582
52363W        W20581  37.125  25.148  13.869
52364W        W20582  40.984  29.545  14.920
52365W        W20583  23.032  26.519   1.644
52366W        W20584  28.140  40.495   2.310
52367W        W20585  29.350  26.310   4.199
52368W        W20586  32.370  18.762  10.713
52369W        W20587  34.851  18.061  14.072
52370W        W20588  43.365  33.187  14.913
52371W        W20589  35.833  35.417   1.911
52372W        W20590  34.816  32.191   1.888
52373W        W20591  10.699  43.977   3.750
52374W        W20592   1.335  24.735  12.454
52375W        W20593   7.827  43.521   2.154
52376W        W20594   2.688  24.014   2.740
52377W        W20595  40.464  10.372   2.781
52378W        W20596  42.787   8.402   3.984
52379W        W20597  17.364  11.507  11.923
52380W        W20598  21.420  29.221   0.827
52381W        W20599  27.233  38.576   1.382
52382W        W20600  11.719   0.971   3.138
52383W        W20601  15.578   4.059   1.797
52384W        W20602   8.666  39.401  13.421
52385W        W20603  19.421  31.522  11.936
52386W        W20604  36.036   3.394  14.138
52387W        W20605   0.816  18.978  11.707
52388W        W20606  12.402  11.491  11.052
52389W        W20607   7.866  37.479   3.680
52390W        W20608  26.231  11.612   1.383
52391W        W20609  10.668  37.772  13.405
52392W        W20610  32.866   0.104   0.164
52393W        W20611   6.396  43.243   0.919
52394W        W20612  34.171  19.200  12.646
52395W        W20613  17.332  29.558  10.640
52396W        W20614  14.314  44.198  13.778
52397W        W20615  37.957  14.821   1.465
52398W        W20616  25.956  43.523   2.387
52399W        W20617  14.660  27.589   0.977
52400W        W20618  14.852  10.885   4.750
52401W        W20619  17.556  39.962   1.303
52402W        W20620  12.017  34.066  11.948
52403W        W20621   8.175  14.739  12.455
52404W        W20622  40.752  42.352  14.417
52405W        W20623  31.677   5.910  11.650
52406W        W20624  36.571   6.748  13.872
52407W        W20625   6.947  29.072   4.171
52408W        W20626  11.653  39.401   2.262
52409W        W20627  26.488  34.809  14.979
52410W        W20628  27.533  39.297   2.811
52411W        W20629  25.971  13.644   2.343
52412W        W20630  31.924  35.619   4.838
52413W        W20631  40.984  24.030   1.970
52414W        W20632  24.554  28.171   1.908
52415W        W20633  43.872  25.453  11.500
52416W        W20634  10.437  28.955   5.138
52417W        W20635  14.857  27.370  11.498
52418W        W20636  44.437  27.554   2.798
52419W        W20637  21.608   0.421   1.853
52420W        W20638  44.105  34.562   0.235
52421W        W20639  34.190  40.822   0.085
52422W        W20640  38.529  26.805  14.355
52423W        W20641  36.662   4.976   3.702
52424W        W20642  41.380   6.313   1.032
52425W        W20643  39.330  12.748  10.648
52426W        W20644  32.918  11.417  11.896
52427W        W20645  42.369  38.408  11.965
52428W        W20646  37.270  43.835   3.367
52429W        W20647  40.886  32.037   0.443
52430W        W20648  15.071  41.162  13.960
52431W        W20649  37.565  23.616   2.349
52432W        W20650  24.469  22.087   0.868
52433W        W20651   3.777  43.109  11.472
52434W        W20652  38.352  31.535  13.847
52435W        W20653  41.250   4.860  14.382
52436W        W20654   5.158   0.112  10.139
52437W        W20655  14.127  40.846   3.167
52438W        W20656   9.035   4.230   3.154
52439W        W20657  29.282  14.845   0.893
52440W        W20658  12.662   4.800  11.183
52441W        W20659   0.093  32.113  10.788
52442W        W20660  39.025  13.612   1.443
52443W        W20661   6.936  15.070   4.883
52444W        W20662   5.595  37.832   4.923
52445W        W20663  16.335  44.747   0.338
52446W        W20664   1.361  21.920  12.022
52447W        W20665  25.021  24.701  11.175
52448W        W20666  25.172  17.158  12.560
52449W        W20667   4.662   3.697   1.950
52450W        W20668  21.838  14.133  11.504
52451W        W20669  19.743  30.870   5.002
52452W        W20670  13.077   4.374  14.849
52453W        W20671  29.280  17.610   0.423
52454W        W20672  13.168  10.568   3.376
52455W        W20673   8.735  40.872  10.760
52456W        W20674   6.662  31.378  14.776
52457W        W20675   2.122  30.353  12.449
52458W        W20676  14.725  35.637  11.612
52459W        W20677  36.061  19.539  13.584
52460W        W20678  41.884  11.369  12.433
52461W        W20679   9.568   9.910   4.023
52462W        W20680  44.234  34.397  12.442
52463W        W20681   2.006   1.235  14.052
52464W        W20682  41.498   8.106   5.000
52465W        W20683  28.673  28.933  10.664
52466W        W20684  32.517   1.379   2.200
52467W        W20685  31.658  25.278  12.228
52468W        W20686  14.407   7.767  11.670
52469W        W20687  33.411   8.229  10.804
52470W        W20688  28.356  20.177  14.319
52471W        W20689   4.082  25.562  11.645
52472W        W20690  35.015  37.370  14.365
52473W        W20691   8.398   1.947  14.317
52474W        W20692  11.598  37.300  13.457
52475W        W20693   9.356  42.530   3.711
52476W        W20694  21.743  26.508  10.629
52477W        W20695  11.149  14.762   4.848
52478W        W20696  18.122  44.752   3.464
52479W        W20697  34.038  17.137  13.003
52480W        W20698  40.482  25.247  14.424
52481W        W20699   3.669   4.482  12.726
52482W        W20700   1.122  39.041   4.163
52483W        W20701   5.746  28.670  14.517
52484W        W20702  22.826  37.320  14.300
52485W        W20703  13.130   6.760  12.681
52486W        W20704   1.306  12.784  14.218
52487W        W20705  20.524  14.123  10.636
52488W        W20706   5.824   8.337   1.825
52489W        W20707  25.963  10.423   0.567
52490W        W20708  39.877  21.501   0.754
52491W        W20709  33.931  11.789  14.011
52492W        W20710   9.775   6.883   2.286
52493W        W20711  29.737  24.963   2.312
52494W        W20712  37.972   0.833   0.819
52495W        W20713  20.781  12.079  11.330
52496W        W20714  30.993  18.185  14.005
52497W        W20715   9.635  19.235  12.986
52498W        W20716   8.184  12.592  14.445
52499W        W20717  41.962  29.433   3.817
52500W        W20718   1.812  24.994   2.257
52501W        W20719  15.335  12.197  12.455
52502W        W20720  25.581  35.974   3.117
52503W        W20721  11.757  40.020  13.986
52504W        W20722  39.065   0.526   1.640
52505W        W20723  38.412   1.016  12.120
52506W        W20724   7.451  28.152  10.570
52507W        W20725  16.091  25.671   1.218
52508W        W20726  34.900  38.516  14.377
52509W        W20727  40.284  44.281   3.004
52510W        W20728   7.250  30.314   0.417
52511W        W20729  15.282  12.657  13.273
52512W        W20730  15.666   4.683   3.541
52513W        W20731  14.880  36.894  11.966
52514W        W20732  28.856  34.683   3.664
52515W        W20733  28.497  23.070  11.016
52516W        W20734   8.423  42.890   1.621
52517W        W20735   3.073  13.138  14.414
52518W        W20736  35.798  42.784  13.169
52519W        W20737  40.364  15.159  10.786
52520W        W20738  43.958  44.036   1.173
52521W        W20739   9.957  26.752   9.808
52522W        W20740  18.450   1.031  12.179
52523W        W20741   4.667   5.998   0.297
52524W        W20742  18.950  27.542   0.993
52525W        W20743  31.966  44.879  11.141
52526W        W20744  24.007   8.153   4.387
52527W        W20745   4.183   0.038  11.610
52528W        W20746  10.114  26.989  12.410
52529W        W20747  16.865  25.466  12.437
52530W        W20748  29.206   4.406  12.915
52531W        W20749   4.253  39.805   4.987
52532W        W20750  13.095  29.668  14.000
52533W        W20751  39.373  28.504  12.313
52534W        W20752  38.046  37.385   0.373
52535W        W20753  35.323  26.251   2.092
52536W        W20754  32.527  41.543  14.051
52537W        W20755  17.158  36.390  12.461
52538W        W20756   5.301   9.418   4.732
52539W        W20757  28.743   6.814   3.861
52540W        W20758   5.827  26.939  13.415
52541W        W20759  21.353  34.985  12.963
52542W        W20760  17.117  44.849   2.066
52543W        W20761  42.283  21.126   0.312
52544W        W20762  10.349  25.601  11.840
52545W        W20763   9.174  33.571  13.980
52546W        W20764   7.349  22.537   3.245
52547W        W20765   1.660  29.914   1.265
52548W        W20766  14.818  26.098   1.298
52549W        W20767  37.103   5.710   4.180
52550W        W20768  23.161   3.338   4.149
52551W        W20769  41.949   5.315   4.128
52552W        W20770  16.482   3.321  10.816
52553W        W20771  13.433   1.969   2.177
52554W        W20772   4.772   8.614  10.438
52555W        W20773  42.077  22.445   0.499
52556W        W20774  12.241  37.032  13.796
52557W        W20775  42.805   2.310  13.181
52558W        W20776  18.129  29.568  12.577
52559W        W20777   4.869   2.086   0.757
52560W        W20778  27.479  27.481  11.410
52561W        W20779  31.585  26.149  13.397
52562W        W20780  43.792  17.321  12.863
52563W        W20781  22.543  21.924   3.309
52564W        W20782  19.951  42.717  14.351
52565W        W20783  15.737   5.885  11.191
52566W        W20784  36.135   2.520   2.693
52567W        W20785  43.392  41.892  13.732
52568W        W20786  43.364  31.077   4.381
52569W        W20787  14.181   8.796  12.039
52570W        W20788  11.419  43.504  11.516
52571W        W20789  30.685  43.902  12.539
52572W        W20790  33.550  36.522   1.577
52573W        W20791  16.498  14.697   2.670
52574W        W20792   8.332  19.352   9.974
52575W        W20793  14.908  43.344  12.528
52576W        W20794  17.510  19.421   2.232
52577W        W20795   9.080   9.797   4.122
52578W        W20796  32.136  11.316   3.621
52579W        W20797   3.759  34.445  11.662
52580W        W20798  26.977  11.686  13.841
52581W        W20799  25.826  18.720   2.806
52582W        W20800   0.892  27.440   2.886
52583W        W20801  25.425  35.447   5.004
52584W        W20802  19.240  39.410   2.333
52585W        W20803   8.881   0.528   2.436
52586W        W20804   5.206  22.627   2.229
52587W        W20805  20.852  38.858   2.883
52588W        W20806  20.027  14.790  11.493
52589W        W20807  33.967  25.056   1.304
52590W        W20808  16.254  40.714   4.473
52591W        W20809  44.518  26.381   3.031
52592W        W20810  23.062   1.698  14.832
52593W        W20811  33.858  42.309  14.847
52594W        W20812  28.071  39.880  14.229
52595W        W20813   1.690   9.697  14.902
52596W        W20814  44.782   4.389   4.836
52597W        W20815   3.187   0.746   1.780
52598W        W20816  10.383  23.096   3.089
52599W        W20817  24.173  16.273  11.841
52600W        W20818  14.815  38.012  11.470
52601W        W20819  29.668  39.353   3.642
52602W        W20820   3.429  25.372  12.906
52603W        W20821  28.524  12.272   4.388
52604W        W20822  26.499  17.509   0.080
52605W        W20823   3.448   4.758  14.824
52606W        W20824  27.214  22.026   3.169
52607W        W20825  23.440  14.588   0.756
52608W        W20826   5.751  13.031  12.145
52609W        W20827  28.481  35.655   4.065
52610W        W20828  20.148  40.480   4.069
52611W        W20829  26.278  11.191  13.922
52612W        W20830   3.500  25.160   0.774
52613W        W20831  42.542   0.021  14.509
52614W        W20832  11.688  42.772  10.580
52615W        W20833  22.450  39.529  10.776
52616W        W20834  21.727  24.664   4.652
52617W        W20835   7.442  18.123   4.217
52618W        W20836   1.406   2.907   1.039
52619W        W20837  10.251  13.050   3.997
52620W        W20838   2.219  44.303  13.472
52621W        W20839   5.717  38.848  14.911
52622W        W20840   8.461  16.617   1.859
52623W        W20841  24.068  43.606   2.337
52624W        W20842   7.341   3.231   0.907
52625W        W20843  25.555  32.973   2.292
52626W        W20844  10.899  28.962   4.750
52627W        W20845  28.604  20.188   4.531
52628W        W20846   2.812  20.012   2.274
52629W        W20847  25.008  31.357   2.252
52630W        W20848   3.443  27.652   2.209
52631W        W20849   1.502  39.831  11.086
52632W        W20850  22.694  32.505   4.059
52633W        W20851  40.835  32.412   1.362
52634W        W20852   0.342  21.817   3.138
52635W        W20853   7.195  32.342   1.723
52636W        W20854   1.578  41.251   3.804
52637W        W20855  44.956  30.256   2.252
52638W        W20856  43.273  21.193   2.466
52639W        W20857  33.716  27.572   1.504
52640W        W20858  29.717   5.983   1.826
52641W        W20859  25.099   6.530  11.169
52642W        W20860  36.377  25.099  14.371
52643W        W20861  33.527  41.422   0.012
52644W        W20862  10.352   1.964   4.169
52645W        W20863  21.574  33.109   3.081
52646W        W20864  26.540   8.478  14.390
52647W        W20865  37.242  34.452  11.026
52648W        W20866   9.290   8.493   4.972
52649W        W20867  33.629  21.875  12.004
52650W        W20868  40.009  21.649  12.922
52651W        W20869  30.986  33.881   1.432
52652W        W20870   6.271   8.531   1.656
52653W        W20871  16.622   7.178  10.382
52654W        W20872  36.350  29.657  12.018
52655W        W20873   3.308  39.187   2.625
52656W        W20874  35.345  24.014   4.754
52657W        W20875   8.398  10.095   3.405
52658W        W20876  37.042  12.059   1.507
52659W        W20877   7.381   4.808  13.350
52660W        W20878   9.125  26.143  12.442
52661W        W20879   4.839  16.030  14.013
52662W        W20880  33.918   2.389  13.841
52663W        W20881  11.849  44.932  13.952
52664W        W20882  28.634  17.532   0.787
52665W        W20883   5.932  38.790   4.047
52666W        W20884  40.303   9.354  14.893
52667W        W20885  10.777   7.258  11.152
52668W        W20886  44.514   1.473  11.055
52669W        W20887   2.952   8.463   1.114
52670W        W20888  25.589  21.744  11.418
52671W        W20889   4.404  28.515  14.378
52672W        W20890  30.003   4.480   1.974
52673W        W20891  17.389   1.773  10.211
52674W        W20892  26.767  35.104   1.247
52675W        W20893  25.894  44.199  11.563
52676W        W20894  25.801   4.467  13.043
52677W        W20895   1.855   0.831  10.893
52678W        W20896  16.113  43.012  13.838
52679W        W20897  19.783  25.117   0.450
52680W        W20898  28.221   3.244  10.603
52681W        W20899  39.533  35.905  13.099
52682W        W20900  31.858   6.230   3.157
52683W        W20901   2.737  31.205  10.927
52684W        W20902   9.383  23.114  10.599
52685W        W20903  15.370   2.295  11.491
52686W        W20904  14.735  19.576   1.812
52687W        W20905  14.813  42.840   2.179
52688W        W20906  19.538  27.096  11.453
52689W        W20907   4.304  38.611  13.503
52690W        W20908  33.599  21.330  13.424
52691W        W20909  28.383  19.841  11.046
52692W        W20910  39.751   0.829   4.147
52693W        W20911  37.872  43.268  12.002
52694W        W20912  14.749  39.039  14.522
52695W        W20913  31.031  40.492   4.775
52696W        W20914  20.262  23.932   0.550
52697W        W20915  30.349   2.090   4.587
52698W        W20916  18.457  43.891  12.829
52699W        W20917  17.645  10.171  13.767
52700W        W20918  34.643  29.510   4.871
52701W        W20919  40.901  44.536   4.666
52702W        W20920  42.301  11.410  13.909
52703W        W20921   6.093   2.464  11.037
52704W        W20922  30.972  17.309   3.821
52705W        W20923  11.968   6.653   0.472
52706W        W20924  10.814  33.603  13.379
52707W        W20925   2.010  30.874  12.463
52708W        W20926  27.425  22.502  11.230
52709W        W20927  12.141  13.308  11.213
52710W        W20928   7.976  21.718  13.474
52711W        W20929  25.177  28.143  14.281
52712W        W20930  10.122  30.124  13.526
52713W        W20931  29.596   0.802   4.101
52714W        W20932  24.575  43.481   3.081
52715W        W20933   8.750   5.313   3.777
52716W        W20934  42.001   9.066   4.191
52717W        W20935  43.327  12.556  10.410
52718W        W20936   9.581   0.715  11.610
52719W        W20937  32.424   0.063   1.368
52720W        W20938  40.803  17.963  12.980
52721W        W20939  22.689  12.740  13.759
52722W        W20940  40.841  25.206   0.759
52723W        W20941   4.312   6.196   3.252
52724W        W20942  37.173   2.357   3.604
52725W        W20943   2.365  24.505   3.705
52726W        W20944  40.001  21.987  11.405
52727W        W20945  12.838  27.004  12.327
52728W        W20946  11.067  12.581   1.990
52729W        W20947  15.093  38.498  13.851
52730W        W20948  44.406  36.742  10.577
52731W        W20949  16.842  37.328  11.278
52732W        W20950  34.888  21.357  10.409
52733W        W20951  11.397  41.212   0.494
52734W        W20952  23.012  41.113   2.994
52735W        W20953  40.007  20.473   0.835
52736W        W20954  28.000  14.113  14.534
52737W        W20955  12.839  35.936   2.299
52738W        W20956  30.962  43.755  11.132
52739W        W20957  15.906  40.407  12.014
52740W        W20958  25.434  18.779   4.984
52741W        W20959  30.380  43.054   0.282
52742W        W20960  18.597  25.215  11.443
52743W        W20961  35.547   5.412  11.284
52744W        W20962  36.952  23.422  11.650
52745W        W20963   4.790  16.520   3.716
52746W        W20964  14.284   3.113   2.730
52747W        W20965  39.307   0.656   4.484
52748W        W20966  40.370  10.150  13.372
52749W        W20967   6.164   8.120  11.173
52750W        W20968   7.896   1.232  11.388
52751W        W20969  10.858  22.966  12.376
52752W        W20970  22.565   5.970   0.060
52753W        W20971  12.386  31.887   0.356
52754W        W20972  22.088  30.630  14.031
52755W        W20973  15.607  42.872   2.886
52756W        W20974  18.293  30.408  11.013
52757W        W20975  29.873  44.387   2.156
52758W        W20976  35.940  21.465  13.582
52759W        W20977   8.681  40.535  13.485
52760W        W20978  18.664  28.699   1.376
52761W        W20979  21.715   6.426   0.265
52762W        W20980   5.362  38.433  10.745
52763W        W20981   3.327  21.872  10.763
52764W        W20982  38.622  18.562  14.436
52765W        W20983  21.013  21.103  13.398
52766W        W20984  22.526   0.421   1.502
52767W        W20985  43.332   4.267   3.639
52768W        W20986  34.649  19.179   1.325
52769W        W20987  43.219  38.131   1.726
52770W        W20988  31.461   0.197  13.439
52771W        W20989  44.436   2.307   3.631
52772W        W20990  37.396   1.729  13.996
52773W        W20991   6.898  33.128   3.272
52774W        W20992  31.570  37.774  14.471
52775W        W20993  18.678  10.886  12.040
52776W        W20994  34.221  27.103   4.077
52777W        W20995  40.993  16.214  14.643
52778W        W20996   5.167   2.752   4.161
52779W        W20997  15.214  24.126  12.481
52780W        W20998  14.918  20.782  11.066
52781W        W20999  33.549   2.871  13.723
52782W        W21000  17.178  20.771   2.304
52783W        W21001  12.409   9.768   3.813
52784W        W21002  26.112   1.333  13.764
52785W        W21003  20.092  30.007   2.115
52786W        W21004   6.686   2.472  11.542
52787W        W21005  38.940  21.717  14.068
52788W        W21006  11.055   3.940  10.531
52789W        W21007  24.586  34.310  13.183
52790W        W21008  11.491  35.999  10.689
52791W        W21009  43.724  33.422  14.607
52792W        W21010   7.312  43.966  10.676
52793W        W21011  26.322  40.735   1.192
52794W        W21012  37.479  21.984   0.728
52795W        W21013  24.088  44.410   0.283
52796W        W21014  33.555  16.747   3.715
52797W        W21015  10.813  30.097   2.802
52798W        W21016  19.562  38.240   4.239
52799W        W21017  32.996  44.329  11.521
52800W        W21018  30.601   2.866  10.590
52801W        W21019  11.110   3.820   3.111
52802W        W21020  38.973  32.940  12.779
52803W        W21021   1.587  27.486  12.435
52804W        W21022  36.334  12.418   1.876
52805W        W21023  39.133  41.076  13.037
52806W        W21024  32.979  19.992  11.766
52807W        W21025  19.201   2.694  13.402
52808W        W21026  26.065  42.354  11.722
52809W        W21027   3.844   6.746   4.343
52810W        W21028  32.415  33.876   3.751
52811W        W21029  28.633  19.741  14.415
52812W        W21030  21.759  23.067   0.742
52813W        W21031   6.437   0.251   0.959
52814W        W21032  10.198  18.395  11.193
52815W        W21033  19.819  33.220   2.006
52816W        W21034   3.683   1.623   1.004
52817W        W21035  19.516  20.360  10.798
52818W        W21036   8.253   1.857   2.021
52819W        W21037  25.630  17.743   1.033
52820W        W21038  35.687   3.309   3.336
52821W        W21039  44.716  39.857   0.381
52822W        W21040  39.951   4.555  12.855
52823W        W21041  20.709  31.001   3.519
52824W        W21042  31.977  18.703   2.727
52825W        W21043  42.448  33.247   3.251
52826W        W21044  35.001  44.044   0.239
52827W        W21045  29.529  19.238  11.059
52828W        W21046  27.552  20.504   1.966
52829W        W21047   6.621  15.438  13.093
52830W        W21048  10.537  36.069   0.986
52831W        W21049   8.465   0.746   4.560
52832W        W21050  30.628  30.199   3.654
52833W        W21051  28.070  42.930  12.425
52834W        W21052  35.710  43.446  14.547
52835W        W21053  13.078  31.004   4.043
52836W        W21054  23.849  34.954   2.775
52837W        W21055  33.125   6.202  12.651
52838W        W21056   4.338  43.330  12.623
52839W        W21057  22.561   0.604   2.023
52840W        W21058  44.924   1.397   3.818
52841W        W21059  26.763  30.466   0.939
52842W        W21060  19.048  28.621  12.531
52843W        W21061  42.399  10.366   0.033
52844W        W21062   7.766  31.700  14.370
52845W        W21063  10.790  23.145   0.757
52846W        W21064  28.028  41.377  13.840
52847W        W21065  29.667  29.746  11.542
52848W        W21066  34.085   6.370  13.068
52849W        W21067  41.100  20.186   4.535
52850W        W21068  31.447   8.781  13.758
52851W        W21069  42.367  38.799  12.370
52852W        W21070  20.054  19.550  11.512
52853W        W21071  19.109  16.843   0.459
52854W        W21072  41.488   8.638  12.925
52855W        W21073  10.579  25.231  12.118
52856W        W21074  16.051  44.576   3.404
52857W        W21075  35.924  27.153  10.562
52858W        W21076  15.444  25.486  13.484
52859W        W21077  17.227  17.952   1.894
52860W        W21078  13.099  20.059  11.599
52861W        W21079   5.945  39.569   4.593
52862W        W21080  17.599  14.416  14.399
52863W        W21081  10.443  37.606   2.819
52864W        W21082  19.113  23.220  10.668
52865W        W21083  37.324   5.822  13.441
52866W        W21084  18.634  32.204   4.536
52867W        W21085   6.912  28.150  11.417
52868W        W21086   8.737  14.190  12.863
52869W        W21087  37.133  14.580   3.158
52870W        W21088  20.000  28.934  13.404
52871W        W21089   3.328  42.801  14.751
52872W        W21090  24.429  37.156  14.592
52873W        W21091  43.964   8.345   0.912
52874W        W21092  10.890   5.407   2.177
52875W        W21093   7.229  29.055   2.818
52876W        W21094   9.423  27.273   0.147
52877W        W21095  14.335  43.048   2.223
52878W        W21096  41.880  35.614  10.219
52879W        W21097   9.982   8.829   0.484
52880W        W21098  38.872   5.678  12.442
52881W        W21099  16.746  37.324  12.114
52882W        W21100  16.952   4.968  13.435
52883W        W21101   5.668  38.225   4.567
52884W        W21102  12.470  18.380  12.091
52885W        W21103  21.804  17.039   2.070
52886W        W21104   6.411  41.023  14.300
52887W        W21105  24.576  12.174   3.032
52888W        W21106   4.364   8.326   4.654
52889W        W21107   1.687   1.356   1.171
52890W        W21108  23.613  13.603  13.978
52891W        W21109  31.192  22.195   4.633
52892W        W21110  11.082  12.711   0.278
52893W        W21111  11.126  39.291  14.422
52894W        W21112  25.512  11.862  11.273
52895W        W21113  10.401  34.695   2.844
52896W        W21114  14.150  16.004  14.363
52897W        W21115  43.423  31.848   2.883
52898W        W21116  16.726  36.637  13.419
52899W        W21117  41.857  26.032  13.554
52900W        W21118  44.003   3.803  13.450
52901W        W21119  10.718  12.726  10.593
52902W        W21120  29.146  20.058   3.777
52903W        W21121  43.852  13.102  14.728
52904W        W21122  15.764  44.384   2.764
52905W        W21123  41.663   3.675   0.889
52906W        W21124  24.048   6.601  14.342
52907W        W21125  36.881   2.786   1.513
52908W        W21126  32.421  43.592  11.980
52909W        W21127  40.288  20.703  13.530
52910W        W21128   0.986  30.777  11.333
52911W        W21129  22.024  28.956   1.262
52912W        W21130   1.806   8.308  13.168
52913W        W21131   8.695  10.887  14.587
52914W        W21132  35.110  21.537   1.712
52915W        W21133  34.420  39.270  13.275
52916W        W21134  14.159  23.230   0.695
52917W        W21135   5.904  43.987   3.099
52918W        W21136  22.009  20.975  11.070
52919W        W21137  30.476  23.109  11.706
52920W        W21138  25.860  25.736  14.331
52921W        W21139  17.862  23.727   1.983
52922W        W21140  25.086  14.750  13.016
52923W        W21141   7.594  39.517   2.139
52924W        W21142  19.860  29.315  14.948
52925W        W21143   4.240  28.202  12.030
52926W        W21144  42.650  26.436  13.364
52927W        W21145  17.591  22.264  13.985
52928W        W21146  28.414   6.516  14.981
52929W        W21147  43.498  21.640   2.259
52930W        W21148  25.171   2.926   0.883
52931W        W21149  32.512  43.461  13.868
52932W        W21150  44.178   6.077   5.058
52933W        W21151  34.801   9.237  14.887
52934W        W21152  42.005   2.245  12.593
52935W        W21153  38.902  27.509   3.264
52936W        W21154   9.218  37.855   4.684
52937W        W21155  18.598  30.937   2.676
52938W        W21156  20.889   4.971   3.410
52939W        W21157  34.087  31.378   2.616
52940W        W21158   4.846  15.559  12.688
52941W        W21159  21.102  15.910  10.237
52942W        W21160  34.929  39.712   2.736
52943W        W21161   9.943   8.907   1.382
52944W        W21162  30.218  14.339   4.245
52945W        W21163  25.136  35.332   3.264
52946W        W21164  43.380  25.057  12.324
52947W        W21165  15.340  29.034   3.583
52948W        W21166  14.668  29.911   2.352
52949W        W21167  11.247  10.670  12.103
52950W        W21168  43.639  14.149  11.986
52951W        W21169  24.071  21.283   1.889
52952W        W21170   1.413  42.800   1.404
52953W        W21171  43.564  41.036   0.467
52954W        W21172   9.105  39.906  14.829
52955W        W21173  26.039  31.523  14.769
52956W        W21174  41.291   2.272   1.219
52957W        W21175  39.967  20.955   3.158
52958W        W21176  16.425  37.144   1.331
52959W        W21177   1.432  38.329  12.892
52960W        W21178  21.107  44.414   3.774
52961W        W21179   0.543   7.183   1.653
52962W        W21180  12.733   1.516  12.433
52963W        W21181  15.232  22.664   0.214
52964W        W21182  33.365  43.300   1.976
52965W        W21183  42.952  40.865  11.742
52966W        W21184  14.461  12.531   1.924
52967W        W21185  30.679  38.908   2.458
52968W        W21186   9.594  44.225   4.273
52969W        W21187   2.056   3.214  11.905
52970W        W21188  31.382  39.510   1.384
52971W        W21189  18.479  26.661  13.517
52972W        W21190  42.338  22.077  14.374
52973W        W21191   9.840  21.271  12.022
52974W        W21192  14.665  12.769   4.505
52975W        W21193  35.621   7.230  14.822
52976W        W21194  19.554  33.078  12.486
52977W        W21195  37.333   0.270   3.166
52978W        W21196  17.549  11.850   1.421
52979W        W21197  41.601  24.097   2.361
52980W        W21198  13.381   5.025  14.150
52981W        W21199  11.277   7.815   1.791
52982W        W21200  40.744  34.857   1.022
52983W        W21201   7.261   0.535   4.438
52984W        W21202   1.382   0.850   1.752
52985W        W21203   6.837   1.813  14.245
52986W        W21204  36.504  34.559   3.686
52987W        W21205  31.714   0.844  13.088
52988W        W21206  28.531  11.711  12.542
52989W        W21207  11.829   5.555   1.287
52990W        W21208  15.288  44.132  12.312
52991W        W21209   3.678  11.318  11.435
52992W        W21210  29.406  28.935   0.473
52993W        W21211  16.496  21.143  14.405
52994W        W21212   5.133   3.812   2.207
52995W        W21213  42.055  10.461  14.242
52996W        W21214  21.297  26.811   4.894
52997W        W21215  33.043  21.986   2.225
52998W        W21216  44.672  10.873  14.850
52999W        W21217   6.409  37.442  11.877
53000W        W21218  27.375   4.279  14.092
53001W        W21219  26.171  27.125   0.804
53002W        W21220  30.730  14.408   1.159
53003W        W21221  34.928  20.352   0.965
53004W        W21222  23.929  17.154  10.790
53005W        W21223  24.264  32.241   0.724
53006W        W21224  31.899  35.905  12.420
53007W        W21225  42.773  11.370  13.449
53008W        W21226   8.977  27.394   0.477
53009W        W21227  44.772   0.928   0.047
53010W        W21228  21.215  38.121  10.080
53011W        W21229  25.176   5.912   4.097
53012W        W21230  34.203  43.001   0.959
53013W        W21231  15.805  17.400   1.046
53014W        W21232  16.773   5.666   0.274
53015W        W21233   5.749   3.697   3.674
53016W        W21234   2.442  43.946  14.422
53017W        W21235  41.335   6.804  12.889
53018W        W21236  15.995   4.216   3.140
53019W        W21237  10.747  28.968  13.906
53020W        W21238   1.825   4.731  14.022
53021W        W21239   4.203  37.894   0.536
53022W        W21240  42.027   6.767  13.327
53023W        W21241  20.455  28.023   1.201
53024W        W21242  34.462  18.246   0.365
53025W        W21243  35.549  25.074   4.623
53026W        W21244  29.615  19.193  14.432
53027W        W21245  37.427  30.640  12.105
53028W        W21246  29.954  25.196  12.575
53029W        W21247   9.259   8.768  11.743
53030W        W21248   6.658  43.201  10.651
53031W        W21249  22.691  11.611  13.732
53032W        W21250  14.797   2.082   4.659
53033W        W21251   5.326   0.376  11.939
53034W        W21252  17.178   5.415   2.776
53035W        W21253  41.393  34.619  11.713
53036W        W21254  43.064   3.825   4.080
53037W        W21255   1.786   1.970  13.434
53038W        W21256  21.843  12.763  12.781
53039W        W21257  20.015  44.575   1.846
53040W        W21258  11.285   4.894  10.971
53041W        W21259  38.793  26.450   0.275
53042W        W21260  20.396  44.438   0.842
53043W        W21261   4.264  42.898  11.479
53044W        W21262  22.734  21.488   0.239
53045W        W21263  22.512   5.839  13.526
53046W        W21264   1.419   0.370   1.476
53047W        W21265  35.628  10.403  10.753
53048W        W21266  41.805  27.694   1.817
53049W        W21267   4.282  11.859  12.115
53050W        W21268  38.695  36.788   1.386
53051W        W21269   8.363  10.260   3.904
53052W        W21270  36.339  32.302   0.411
53053W        W21271   8.782  43.081  13.576
53054W        W21272  34.367  29.608   0.046
53055W        W21273  33.920  10.841   1.309
53056W        W21274  29.398  18.118   2.366
53057W        W21275   3.454  20.220   4.087
53058W        W21276  34.782   8.775   3.659
53059W        W21277  43.896  37.579   1.701
53060W        W21278   6.464  25.990  11.720
53061W        W21279  33.114  39.521  12.177
53062W        W21280  19.623  12.653  13.345
53063W        W21281  33.352  23.581   2.574
53064W        W21282  37.271  31.700   2.923
53065W        W21283  16.607  34.808  10.924
53066W        W21284  41.545  40.747   1.264
53067W        W21285  44.441  31.535  14.861
53068W        W21286  28.652  22.188  11.386
53069W        W21287   4.324  10.778  13.653
53070W        W21288  32.626   7.842  13.034
53071W        W21289  42.349   7.811   1.444
53072W        W21290   2.465  37.562   0.467
53073W        W21291   3.666  25.250  14.397
53074W        W21292  16.314  29.141   4.325
53075W        W21293  31.821  34.196   4.513
53076W        W21294   1.803  28.477  12.070
53077W        W21295  29.151   6.258   3.292
53078W        W21296  14.747  21.105  12.463
53079W        W21297   5.630  19.134   1.910
53080W        W21298   6.739  13.418  12.877
53081W        W21299  43.742  40.900  10.627
53082W        W21300  44.159  15.488   2.905
53083W        W21301  41.294   7.474   3.275
53084W        W21302  13.702  21.161  10.687
53085W        W21303  17.304  18.733  12.952
53086W        W21304   9.688   2.077  11.599
53087W        W21305   5.901  10.074  14.954
53088W        W21306   8.117  31.409   0.313
53089W        W21307  16.835  38.752  14.527
53090W        W21308  15.479  18.295   2.302
53091W        W21309  13.786   0.449   2.068
53092W        W21310  40.498  41.768   4.538
53093W        W21311  40.615  39.108   3.493
53094W        W21312  33.990  44.194  13.386
53095W        W21313  36.693  25.645  14.989
53096W        W21314  44.892  41.942  14.020
53097W        W21315  19.100  28.061  14.766
53098W        W21316  28.034  37.096  12.496
53099W        W21317  43.861  25.001   4.262
53100W        W21318   0.471  21.549   0.878
53101W        W21319   5.758   0.398   4.855
53102W        W21320  14.865   2.436  10.670
53103W        W21321   5.738  27.057  12.406
53104W        W21322  17.493  16.830   2.595
53105W        W21323  11.369  35.978   2.383
53106W        W21324  17.301   7.937  12.137
53107W        W21325  36.070  39.850   1.863
53108W        W21326   8.303   4.829  11.539
53109W        W21327  29.585  36.639  14.561
53110W        W21328  36.959  43.223  14.549
53111W        W21329   6.278  43.819  13.609
53112W        W21330   3.932  11.587   4.656
53113W        W21331  36.277  28.104   3.332
53114W        W21332  32.551   9.388  12.991
53115W        W21333  38.831  39.011   1.633
53116W        W21334   3.853   6.883  11.604
53117W        W21335  29.366  24.658   4.596
53118W        W21336  23.771  26.608   0.868
53119W        W21337   5.330  17.038  12.139
53120W        W21338  15.159   8.062  14.973
53121W        W21339  17.506  25.708  11.176
53122W        W21340   4.326   1.213  12.888
53123W        W21341  36.587  26.669  13.108
53124W        W21342  25.654  10.886  13.975
53125W        W21343  23.804  40.788  11.094
53126W        W21344   2.838  30.139   4.452
53127W        W21345  16.772   7.271  13.808
53128W        W21346  18.687  23.364   4.071
53129W        W21347  33.166  43.685   0.880
53130W        W21348  34.213  19.492   3.146
53131W        W21349  42.913  20.835  12.941
53132W        W21350  27.141  32.390   4.498
53133W        W21351   2.747   4.500  12.803
53134W        W21352  40.471  11.781   3.430
53135W        W21353   5.387  12.974  11.604
53136W        W21354  30.610  21.070  13.598
53137W        W21355   2.715  14.330   3.271
53138W        W21356   2.492   7.437  14.125
53139W        W21357  17.113   2.702   2.336
53140W        W21358   6.380  20.177  11.544
53141W        W21359  34.959  26.006   4.569
53142W        W21360  15.223  13.414   2.248
53143W        W21361  31.206  41.913   4.562
53144W        W21362   2.326  15.633  13.876
53145W        W21363  25.861  13.662   4.191
53146W        W21364  36.174   5.749   3.291
53147W        W21365   5.672  23.153   3.775
53148W        W21366   2.917  18.619  12.427
53149W        W21367  19.012   6.098  12.420
53150W        W21368  23.452  22.274  11.050
53151W        W21369  11.247  30.103  11.972
53152W        W21370  42.817   4.300   1.001
53153W        W21371   4.294  28.603   4.596
53154W        W21372  33.425  15.821   3.777
53155W        W21373  24.698   6.363  12.505
53156W        W21374   8.688  29.277  13.997
53157W        W21375  43.785  44.330   3.034
53158W        W21376   9.322   2.718   0.662
53159W        W21377   1.004  30.590   1.295
53160W        W21378  20.166  32.611  12.399
53161W        W21379  30.635  37.383   1.368
53162W        W21380  13.724  34.110  13.495
53163W        W21381  34.668  14.250   4.632
53164W        W21382   2.960  34.630   2.928
53165W        W21383  43.499   8.822   0.949
53166W        W21384   0.341  32.581  10.711
53167W        W21385  21.877  16.676   4.592
53168W        W21386  21.126   6.754   4.317
53169W        W21387  20.030  27.396  13.452
53170W        W21388  31.336  13.508  12.513
53171W        W21389  16.994   3.714   4.685
53172W        W21390   5.503   8.919  11.614
53173W        W21391   8.518   5.193  13.447
53174W        W21392   7.078  27.343  10.813
53175W        W21393  16.194  25.551   3.697
53176W        W21394  23.542  18.843   1.332
53177W        W21395  10.730  37.890   0.706
53178W        W21396  31.038  30.040   9.970
53179W        W21397  13.907  35.879   0.383
53180W        W21398  32.090  11.621  13.834
53181W        W21399  43.412  43.456  12.054
53182W        W21400  34.511   6.347   3.754
53183W        W21401  36.400  24.942   2.798
53184W        W21402  13.837   5.203   1.256
53185W        W21403  35.643  24.986  12.082
53186W        W21404  19.195   8.329  11.148
53187W        W21405   6.701  10.293   4.762
53188W        W21406  19.110  43.154   0.783
53189W        W21407  14.232  21.605  12.986
53190W        W21408   4.853   8.170  12.705
53191W        W21409  42.786  20.769  11.944
53192W        W21410   7.891  34.559  11.715
53193W        W21411  10.431   4.786   2.625
53194W        W21412  11.489  39.095  10.729
53195W        W21413  20.164   3.721  11.981
53196W        W21414  43.482  40.745  13.111
53197W        W21415  20.619  13.058   3.643
53198W        W21416  35.506   9.629   0.771
53199W        W21417  16.065  22.627   1.787
53200W        W21418   8.203  15.419   3.237
53201W        W21419  27.592   4.820  10.488
53202W        W21420   0.760  26.113  13.944
53203W        W21421  12.193  19.476   4.700
53204W        W21422  27.463  28.149  11.093
53205W        W21423  29.722  22.217   0.823
53206W        W21424   5.436  38.665   1.793
53207W        W21425   4.461  16.088   0.878
53208W        W21426  13.235  17.954   2.810
53209W        W21427  40.671  26.832   4.108
53210W        W21428  16.605   0.825   0.760
53211W        W21429  36.473  38.036   2.920
53212W        W21430  39.344  16.527  11.396
53213W        W21431  38.542  22.020  14.077
53214W        W21432  14.655  29.470   4.625
53215W        W21433  30.933  25.599   3.282
53216W        W21434  32.756   0.313   1.689
53217W        W21435  10.591  13.966   1.951
53218W        W21436  17.121  23.214   1.461
53219W        W21437   8.358   0.705   1.554
53220W        W21438  43.121  27.418   3.309
53221W        W21439  40.349  28.095  11.343
53222W        W21440  25.990  33.169  14.322
53223W        W21441  10.702  37.368   0.538
53224W        W21442   0.396   9.555   3.227
53225W        W21443  20.989  40.421   3.577
53226W        W21444  11.048  12.444  13.055
53227W        W21445  32.957   3.954   1.072
53228W        W21446  17.896  40.787  10.462
53229W        W21447  13.389  19.605   3.216
53230W        W21448  32.348  23.442   2.797
53231W        W21449  22.307  27.046  13.905
53232W        W21450  28.890  24.468   0.769
53233W        W21451  19.472  44.874  12.870
53234W        W21452  30.851  37.589   3.294
53235W        W21453  29.136  12.367   3.670
53236W        W21454   8.615  43.961  13.512
53237W        W21455  24.634  31.325  11.823
53238W        W21456  42.525  27.185  10.453
53239W        W21457   3.757  39.627   0.460
53240W        W21458  37.635   3.236  14.748
53241W        W21459  21.162  38.584   2.588
53242W        W21460  37.643  11.287  12.074
53243W        W21461   2.499  11.344   4.889
53244W        W21462  13.465  36.247   0.890
53245W        W21463  23.333  25.463   2.234
53246W        W21464  41.060  28.004  14.915
53247W        W21465   0.353  37.363   2.894
53248W        W21466  37.068  16.025  12.907
53249W        W21467  28.372   7.792   1.888
53250W        W21468  21.948  14.945   1.965
53251W        W21469   5.928  22.419  13.578
53252W        W21470  28.543  23.583  14.615
53253W        W21471   9.170  18.840   2.426
53254W        W21472  17.153  24.997  11.627
53255W        W21473  17.306  12.203   5.358
53256W        W21474  26.184  29.027   2.343
53257W        W21475  43.329   0.031   3.034
53258W        W21476  17.504  15.562  12.889
53259W        W21477  15.341  25.814   2.825
53260W        W21478  32.340  35.366  13.864
53261W        W21479   9.536  13.772   0.772
53262W        W21480   6.236  37.373   2.757
53263W        W21481  16.680  11.853  14.369
53264W        W21482   3.280  25.157  11.602
53265W        W21483   6.632  43.477   9.765
53266W        W21484  21.619   8.593   3.109
53267W        W21485  20.271   1.336   1.370
53268W        W21486   9.788  10.017  10.992
53269W        W21487  41.793   6.273   0.013
53270W        W21488   5.233  33.946   2.517
53271W        W21489  28.497  14.645  12.402
53272W        W21490   8.416  23.736   3.718
53273W        W21491  25.395  19.261  11.523
53274W        W21492  36.037  27.680  11.422
53275W        W21493  10.791  25.801  10.709
53276W        W21494  24.142   1.146  14.847
53277W        W21495  15.825  14.392  14.366
53278W        W21496  25.675  41.019   1.842
53279W        W21497   9.347   3.809   0.739
53280W        W21498  19.296  31.220   1.966
53281W        W21499  40.994  23.494   0.159
53282W        W21500   4.132   6.266   0.264
53283W        W21501  13.328   5.696  14.761
53284W        W21502  22.723  19.487   2.743
53285W        W21503  21.987  44.356   2.756
53286W        W21504   4.791  29.602   1.203
53287W        W21505  21.577   3.019  14.481
53288W        W21506  33.320  10.299  14.513
53289W        W21507  36.664   6.159   3.337
53290W        W21508  30.517   4.373  13.183
53291W        W21509  42.782  30.113   2.504
53292W        W21510  27.249  30.020  14.383
53293W        W21511   4.957  19.666   0.439
53294W        W21512   2.772   8.433   0.060
53295W        W21513   8.296  35.443   3.127
53296W        W21514  18.648   9.362  11.473
53297W        W21515  23.713  11.735   0.814
53298W        W21516   1.768  25.991  13.246
53299W        W21517   9.451  20.201   2.403
53300W        W21518   6.300  14.855   0.414
53301W        W21519  15.873  15.112   0.902
53302W        W21520   0.729  11.794   1.403
53303W        W21521  22.217  42.536  12.537
53304W        W21522  22.160  12.343   2.728
53305W        W21523   1.289  18.628   2.681
53306W        W21524  24.997   2.345  11.617
53307W        W21525  28.962  32.405   4.055
53308W        W21526  12.194  41.336  11.685
53309W        W21527  44.039  25.252   2.886
53310W        W21528  24.984   1.083   0.240
53311W        W21529  17.596  40.382   4.966
53312W        W21530  35.934   8.216   4.520
53313W        W21531  40.164  20.501  14.865
53314W        W21532  39.252  30.423  14.901
53315W        W21533  37.910   3.074  12.528
53316W        W21534  11.896   9.959   3.232
53317W        W21535  31.626   0.925  12.065
53318W        W21536  37.297  13.889   2.880
53319W        W21537  14.902   4.540  12.568
53320W        W21538  40.810  26.278   0.087
53321W        W21539  27.902  28.918  10.015
53322W        W21540   4.989  40.721   1.383
53323W        W21541   9.514  11.598   2.833
53324W        W21542  24.892  21.363  13.905
53325W        W21543  29.118   5.335  13.038
53326W        W21544  25.983  18.747  13.556
53327W        W21545  34.002   9.902   4.125
53328W        W21546  36.262   7.157  12.544
53329W        W21547   8.278  15.573   3.711
53330W        W21548  36.583  44.717   3.172
53331W        W21549  23.714  33.947  11.505
53332W        W21550  32.025  20.746  11.689
53333W        W21551  25.506   4.227   1.826
53334W        W21552  11.333  29.300  11.492
53335W        W21553  11.223  15.325   4.864
53336W        W21554  26.261   3.284   3.297
53337W        W21555  40.361   4.359   2.110
53338W        W21556  34.492   4.217  13.021
53339W        W21557  18.500   0.711   1.488
53340W        W21558  25.743  19.011   3.429
53341W        W21559  24.170  22.731   3.253
53342W        W21560  10.673  10.733   2.208
53343W        W21561  26.007  16.582  11.143
53344W        W21562  10.177  12.627  11.470
53345W        W21563   8.876  13.255  14.036
53346W        W21564  12.526  10.649   3.654
53347W        W21565  42.202   0.971   0.816
53348W        W21566  33.014  36.661   1.361
53349W        W21567  38.115  29.891   3.898
53350W        W21568  21.678  11.399  11.642
53351W        W21569  31.993   5.565  10.893
53352W        W21570  44.470  32.959   2.730
53353W        W21571   2.192  42.305  14.582
53354W        W21572   7.470  31.597  13.938
53355W        W21573  32.514  37.405   1.114
53356W        W21574  22.971   9.187   2.763
53357W        W21575  37.027  23.048   4.725
53358W        W21576   0.727  15.179   0.210
53359W        W21577  36.820  12.610   0.340
53360W        W21578  44.820  24.970   4.530
53361W        W21579   9.172  18.546  11.562
53362W        W21580  29.636  27.708   3.256
53363W        W21581  44.940  21.167  12.597
53364W        W21582  18.993  35.416   1.719
53365W        W21583  36.203  34.126   1.584
53366W        W21584  43.529  28.860   0.542
53367W        W21585  10.210   1.046  11.148
53368W        W21586  33.033  40.453   4.806
53369W        W21587   6.862  23.264   1.802
53370W        W21588  34.261  43.008   1.537
53371W        W21589  29.711  16.109   0.676
53372W        W21590  12.651  13.531   4.543
53373W        W21591  44.805  15.287   1.758
53374W        W21592  39.802  41.489   1.429
53375W        W21593   2.547   0.841   1.603
53376W        W21594  18.166  29.561   0.096
53377W        W21595  10.192  17.114  12.893
53378W        W21596  16.798   0.296   3.245
53379W        W21597  16.180  11.650   1.297
53380W        W21598  35.573  15.115   2.822
53381W        W21599  21.229  37.074  12.169
53382W        W21600  21.987  25.801   2.429
53383W        W21601   6.027  17.530   2.083
53384W        W21602  36.375  38.749   4.810
53385W        W21603  37.941  19.193   0.893
53386W        W21604  38.534  39.754  10.799
53387W        W21605  16.155  11.077   3.864
53388W        W21606   7.942  31.042  14.732
53389W        W21607  34.147  13.155  13.921
53390W        W21608  44.198  15.266   0.408
53391W        W21609   0.433   9.308   1.444
53392W        W21610  10.752  43.392   0.349
53393W        W21611  31.393  42.572  11.605
53394W        W21612  41.319  14.629   0.452
53395W        W21613   5.141   3.451   2.657
53396W        W21614  20.121  20.363   4.913
53397W        W21615   3.285  25.681   0.334
53398W        W21616  28.987  25.978   3.276
53399W        W21617  19.343   1.067  11.501
53400W        W21618  28.008  13.309  13.157
53401W        W21619  12.787  11.391  11.952
53402W        W21620  21.103  24.571   0.001
53403W        W21621  24.037   9.342  12.033
53404W        W21622   0.308  37.805   2.618
53405W        W21623  16.147   0.418   1.315
53406W        W21624  30.409  27.478   5.073
53407W        W21625  20.256   9.167  14.880
53408W        W21626  24.619  33.512  13.722
53409W        W21627  17.607  15.222  11.692
53410W        W21628  27.055  31.989   0.759
53411W        W21629  19.181  43.241   2.630
53412W        W21630   1.208  12.812   4.448
53413W        W21631  13.295  38.837  13.802
53414W        W21632  42.896  24.714  13.241
53415W        W21633   8.036  34.163  12.065
53416W        W21634  33.209   7.977  11.227
53417W        W21635  30.427  22.990  13.642
53418W        W21636  10.772  13.436   3.106
53419W        W21637  43.993  24.034   3.259
53420W        W21638  11.989   0.344   2.286
53421W        W21639  17.970  42.351   4.136
53422W        W21640   4.381   9.340   4.649
53423W        W21641  38.797  15.612  10.503
53424W        W21642  30.150  32.879   3.241
53425W        W21643  26.590  18.825   0.478
53426W        W21644  12.183  12.429   3.821
53427W        W21645  13.633   7.270  14.358
53428W        W21646  26.977  37.303   3.324
53429W        W21647  16.978  18.757   3.106
53430W        W21648  30.901  31.081   1.299
53431W        W21649  34.845  33.492  10.978
53432W        W21650  36.638  34.908   1.719
53433W        W21651  32.415  41.132  14.345
53434W        W21652   6.488  27.769  13.255
53435W        W21653  36.305  12.078   2.755
53436W        W21654  25.599  28.599   1.016
53437W        W21655  23.256  30.877  14.580
53438W        W21656  39.868  28.515  10.641
53439W        W21657  13.597  35.835   3.634
53440W        W21658  12.136  18.705  12.313
53441W        W21659  28.457  35.541  13.763
53442W        W21660  24.713  40.268  11.179
53443W        W21661   9.401  23.280   2.778
53444W        W21662   2.580  11.315  13.086
53445W        W21663  33.813   6.927  11.625
53446W        W21664   5.165  43.194  12.511
53447W        W21665  18.242   6.676   3.594
53448W        W21666  21.396  16.095   0.116
53449W        W21667  40.999   6.684  14.247
53450W        W21668  36.877  21.047   4.505
53451W        W21669  25.238   4.874  14.389
53452W        W21670   0.055  39.876   2.802
53453W        W21671  21.984   2.284   2.278
53454W        W21672  21.745   1.422   4.389
53455W        W21673  36.161   6.845  12.143
53456W        W21674  12.468  10.956   4.083
53457W        W21675  22.302  11.105  13.833
53458W        W21676  22.911  20.061  11.188
53459W        W21677  40.945  29.539  13.380
53460W        W21678  12.621   1.259   1.394
53461W        W21679   9.672   2.457  11.231
53462W        W21680  11.563   0.457  10.576
53463W        W21681  44.532  39.910   1.698
53464W        W21682  35.383  32.890  12.423
53465W        W21683  35.699   7.457  13.252
53466W        W21684  25.704  31.211  10.671
53467W        W21685  35.364  28.366  14.528
53468W        W21686  42.247  11.339  13.400
53469W        W21687  27.981   2.171   3.699
53470W        W21688  24.707  41.030  10.433
53471W        W21689  30.488  16.878  12.528
53472W        W21690   1.358   7.593  14.993
53473W        W21691  30.620  31.623  14.300
53474W        W21692  19.303  24.184   1.048
53475W        W21693  10.866  33.537   0.502
53476W        W21694  19.037   1.236   4.902
53477W        W21695  41.795   9.405  11.098
53478W        W21696  26.971   2.354  14.694
53479W        W21697  15.154  30.199  12.642
53480W        W21698  38.985  27.954   0.197
53481W        W21699  27.647   6.340  10.544
53482W        W21700  38.016  42.325   1.803
53483W        W21701  23.503  25.215   2.673
53484W        W21702  10.805  28.550   0.955
53485W        W21703  38.950  14.094   0.513
53486W        W21704  22.524  39.957  13.103
53487W        W21705  36.428  11.886   4.070
53488W        W21706  10.619  44.678  14.881
53489W        W21707  14.473   9.171  13.484
53490W        W21708   3.498   8.789   3.341
53491W        W21709  16.761  23.634   3.675
53492W        W21710  35.005  18.126   1.095
53493W        W21711  29.691  41.339   2.221
53494W        W21712  18.836  26.337   0.469
53495W        W21713   6.339  39.433   2.147
53496W        W21714  10.647   4.662   4.870
53497W        W21715  32.356  18.829  14.827
53498W        W21716  36.485  21.676   3.705
53499W        W21717  20.860  26.946  13.334
53500W        W21718   7.706  23.795   4.283
53501W        W21719  38.423  21.128  12.207
53502W        W21720  32.942  22.729  13.830
53503W        W21721   2.820   5.872   2.346
53504W        W21722  39.912  44.479  12.738
53505W        W21723  14.219  22.562  12.631
53506W        W21724   6.784   8.678  11.571
53507W        W21725  33.296  42.309  10.806
53508W        W21726  18.245   3.265   2.851
53509W        W21727  26.113  39.364   0.507
53510W        W21728  43.404  37.355   3.658
53511W        W21729  32.486  26.673  13.497
53512W        W21730  31.400  40.132   2.643
53513W        W21731  40.385  21.224  14.786
53514W        W21732  30.253   6.000   1.794
53515W        W21733  14.298   6.014  14.984
53516W        W21734  35.012  25.658   3.262
53517W        W21735   6.735   9.966   3.741
53518W        W21736   5.765  19.237   2.782
53519W        W21737  20.940  32.164   2.727
53520W        W21738  33.430  33.580   1.369
53521W        W21739  38.958  20.638   0.818
53522W        W21740   0.202   0.858  12.077
53523W        W21741  35.071   3.721  11.568
53524W        W21742   1.229   6.257  12.789
53525W        W21743  12.859   4.212   0.314
53526W        W21744  11.896  34.531  12.186
53527W        W21745  17.287  32.648   3.387
53528W        W21746  31.700  19.950   0.360
53529W        W21747  32.935   4.824   1.103
53530W        W21748  14.791  27.213  12.301
53531W        W21749  30.150   3.624   2.264
53532W        W21750   5.066  11.808  14.219
53533W        W21751  35.708   9.416  14.575
53534W        W21752  16.164  20.631   3.253
53535W        W21753  15.755  40.424  14.838
53536W        W21754  24.030  16.340  14.310
53537W        W21755  13.315   4.229   4.742
53538W        W21756  12.334  24.584   1.719
53539W        W21757  29.373   6.632  13.958
53540W        W21758  29.380  16.634  11.568
53541W        W21759  16.664  24.063   2.768
53542W        W21760   1.397  25.488  13.838
53543W        W21761  27.064  30.901   0.933
53544W        W21762  20.253  43.289  11.675
53545W        W21763  22.036  31.240  12.032
53546W        W21764  16.689  11.131  12.958
53547W        W21765  15.031  30.582   1.859
53548W        W21766   1.626  23.607   4.049
53549W        W21767   0.461   4.516  10.463
53550W        W21768  33.892  32.908  12.365
53551W        W21769  19.770  24.921  13.514
53552W        W21770  13.643  14.620  14.282
53553W        W21771   8.238  26.730   9.855
53554W        W21772   5.603  30.607  14.864
53555W        W21773   1.057  34.436   1.117
53556W        W21774  24.699  36.337   0.675
53557W        W21775  21.303   0.288   0.407
53558W        W21776  23.629  24.476   3.282
53559W        W21777  29.747  11.023  14.890
53560W        W21778  29.122  11.620  11.151
53561W        W21779  36.913  36.812   3.817
53562W        W21780  25.606  41.491   1.989
53563W        W21781   1.898  30.889   2.398
53564W        W21782  10.893  20.748   1.481
53565W        W21783  39.102   9.672   4.468
53566W        W21784  28.585  22.742  10.626
53567W        W21785   6.212   2.903   0.465
53568W        W21786  36.711   1.726  12.582
53569W        W21787   6.437  20.933   5.070
53570W        W21788  42.049  29.212   0.438
53571W        W21789   2.885  28.084   1.660
53572W        W21790   1.810  35.460  14.543
53573W        W21791  27.184  33.594  14.829
53574W        W21792  12.632   6.880   1.216
53575W        W21793  32.386  14.151  11.940
53576W        W21794  26.500   1.712   1.208
53577W        W21795   8.097   1.011   3.680
53578W        W21796   3.292   9.397   4.609
53579W        W21797  16.333   1.666  13.388
53580W        W21798  15.752  40.533  12.840
53581W        W21799   8.736  21.501  11.705
53582W        W21800  14.589  20.364  11.168
53583W        W21801   7.599  39.450  12.924
53584W        W21802  33.589  15.741  11.628
53585W        W21803  24.619   9.603   0.845
53586W        W21804  18.580  14.607  11.552
53587W        W21805  29.295  33.350  14.237
53588W        W21806  18.771  15.337  14.911
53589W        W21807  21.172  22.172   1.581
53590W        W21808  15.304   6.327  12.226
53591W        W21809   7.194  31.133   4.870
53592W        W21810   2.454   4.279   4.022
53593W        W21811  11.801  40.554  10.766
53594W        W21812  36.018  42.838  12.063
53595W        W21813  19.773  44.318   3.830
53596W        W21814  13.689  13.308  14.058
53597W        W21815  31.191  14.277   3.721
53598W        W21816   4.523  16.970   5.023
53599W        W21817  31.140  39.786   2.326
53600W        W21818  31.976  12.408   1.164
53601W        W21819  39.763  10.386  11.157
53602W        W21820   4.014  16.697   4.228
53603W        W21821  11.503  43.927   5.015
53604W        W21822  37.830   0.835   5.436
53605W        W21823  33.649  29.412  14.406
53606W        W21824   5.177  10.580   4.312
53607W        W21825  13.873  21.660   2.123
53608W        W21826   3.832  13.510  11.484
53609W        W21827  22.078  39.540   2.703
53610W        W21828  29.792  12.464   2.880
53611W        W21829  38.303  44.096   4.135
53612W        W21830  39.751  31.395  10.643
53613W        W21831  37.260   6.147  10.202
53614W        W21832   3.875  42.477   1.393
53615W        W21833  17.622  25.852  13.247
53616W        W21834  34.080  30.330   1.359
53617W        W21835  38.355  32.931  11.931
53618W        W21836  32.026  19.002   4.549
53619W        W21837  16.212  20.503   2.228
53620W        W21838  29.862  10.904  14.390
53621W        W21839   2.322  10.240  12.194
53622W        W21840  33.376  13.909   3.378
53623W        W21841  13.212  38.269   0.398
53624W        W21842  19.000  21.132   2.400
53625W        W21843  12.539  23.498   4.104
53626W        W21844  10.649  10.278  13.873
53627W        W21845  15.575  22.789   1.714
53628W        W21846  30.426  21.361  14.028
53629W        W21847   2.149   6.168  12.053
53630W        W21848   3.015  40.002   4.544
53631W        W21849  28.242  31.192  14.445
53632W        W21850  30.431  17.880   2.370
53633W        W21851   1.241  37.353  10.994
53634W        W21852  21.703  21.003  12.661
53635W        W21853  37.456  43.166   0.288
53636W        W21854  13.827  15.151   3.966
53637W        W21855  12.771  12.234   0.284
53638W        W21856  25.157   7.390   3.651
53639W        W21857   7.672   9.328  10.985
53640W        W21858  29.863  12.921  13.505
53641W        W21859  14.082  31.053  12.395
53642W        W21860   7.269  36.074  11.647
53643W        W21861  17.634  36.423   3.096
53644W        W21862  30.203  43.788  14.395
53645W        W21863  34.049  37.466   2.142
53646W        W21864  28.026  17.402   1.331
53647W        W21865  43.336  12.711   4.539
53648W        W21866  39.344  11.783   2.502
53649W        W21867  33.988   4.960  12.813
53650W        W21868  28.398  44.053  11.112
53651W        W21869  42.905  34.976   3.251
53652W        W21870  40.463   1.348  12.087
53653W        W21871  16.956  20.286   0.590
53654W        W21872  31.432  26.045  12.907
53655W        W21873  10.793  13.103   0.408
53656W        W21874  16.642  29.988   0.010
53657W        W21875  10.208  10.538  10.608
53658W        W21876   5.124   5.286   2.818
53659W        W21877  43.356  44.099  11.632
53660W        W21878  28.232  33.062  12.160
53661W        W21879  26.118  23.205   3.385
53662W        W21880   4.226  23.180   4.732
53663W        W21881  36.296  43.484   3.670
53664W        W21882   2.138  12.222   0.296
53665W        W21883  37.788  13.763   3.775
53666W        W21884   6.429   6.630  12.857
53667W        W21885  17.463  15.434  14.451
53668W        W21886  37.565  31.926  10.723
53669W        W21887  20.993  27.009   3.269
53670W        W21888  18.156  28.358  11.117
53671W        W21889  34.583  13.082   4.475
53672W        W21890  36.618  38.641  14.005
53673W        W21891  12.560  32.072  10.868
53674W        W21892  22.504  23.528   2.234
53675W        W21893  22.711   8.927   0.884
53676W        W21894  30.419  39.401   2.397
53677W        W21895  24.710  24.135  11.555
53678W        W21896  11.781  24.151  13.882
53679W        W21897  14.867  22.372   0.430
53680W        W21898  15.678  29.984  11.886
53681W        W21899  44.736  37.855   4.799
53682W        W21900  27.765  29.602  11.505
53683W        W21901  41.904   1.577   4.151
53684W        W21902  10.263  37.521   0.224
53685W        W21903  14.422  38.895   3.528
53686W        W21904   8.609   9.617  11.048
53687W        W21905  13.326  42.357   2.562
53688W        W21906  20.037   8.836  12.122
53689W        W21907  17.968  42.486  11.120
53690W        W21908  23.077  14.463  12.140
53691W        W21909  36.050  27.798   4.156
53692W        W21910  12.175  40.885  14.930
53693W        W21911  44.277   6.575  10.828
53694W        W21912  25.310  24.141   4.087
53695W        W21913  11.119  43.088   4.902
53696W        W21914  31.913  40.979  14.359
53697W        W21915   3.967  11.073   4.231
53698W        W21916  35.051  11.148   4.519
53699W        W21917   2.752  41.385  12.958
53700W        W21918   0.411  23.752  14.054
53701W        W21919  41.751   4.831   0.306
53702W        W21920  19.344  26.813  14.732
53703W        W21921  14.804   1.431  11.630
53704W        W21922  19.415  11.932   1.306
53705W        W21923  32.056  41.332   3.607
53706W        W21924  26.484  10.039   0.763
53707W        W21925   1.983   7.927  11.677
53708W        W21926  15.504  13.279   4.757
53709W        W21927   3.403  21.578   3.550
53710W        W21928  21.448  17.068  12.623
53711W        W21929   5.334   3.895  14.299
53712W        W21930  35.588  16.334  11.031
53713W        W21931  28.339  43.458   2.272
53714W        W21932  30.490  14.410  10.238
53715W        W21933  41.366  18.598   1.114
53716W        W21934  40.248  16.181   3.815
53717W        W21935  20.813  28.975  14.757
53718W        W21936  23.416  15.344   0.035
53719W        W21937  35.907  26.880   1.743
53720W        W21938  40.411  16.044   0.042
53721W        W21939  24.487  33.417  14.735
53722W        W21940  35.897  16.382   4.563
53723W        W21941  44.615  31.396  11.107
53724W        W21942  31.522  44.243   1.232
53725W        W21943  42.659  35.140   5.078
53726W        W21944  10.691  42.777  11.657
53727W        W21945  13.223   9.295   2.318
53728W        W21946  24.893  12.707  14.507
53729W        W21947  24.006  30.077   4.639
53730W        W21948  43.923  16.405   0.877
53731W        W21949   0.672  42.098  11.317
53732W        W21950  23.170   7.429  10.639
53733W        W21951  15.242   5.348   3.932
53734W        W21952  38.608  22.000  11.617
53735W        W21953   4.165   0.958   1.768
53736W        W21954  15.212   9.616   4.251
53737W        W21955  11.301  38.913   1.644
53738W        W21956  20.810  32.209  13.273
53739W        W21957  34.849  32.122   3.589
53740W        W21958  29.187  44.971  14.994
53741W        W21959  28.952  30.275   2.671
53742W        W21960  24.565  28.657  12.938
53743W        W21961  18.109  22.456  13.915
53744W        W21962  31.692   1.095  13.570
53745W        W21963   3.188  39.410   4.326
53746W        W21964  26.398  21.045  14.082
53747W        W21965  11.829  25.196  11.586
53748W        W21966  41.538  41.803  12.962
53749W        W21967   0.314  40.381   0.989
53750W        W21968   6.398  24.093  12.200
53751W        W21969  24.286  44.029   1.199
53752W        W21970  29.608  32.595  14.743
53753W        W21971  19.512  43.319  12.103
53754W        W21972  39.645  11.288  12.935
53755W        W21973  39.903  23.075  10.600
53756W        W21974   9.623   2.886   1.060
53757W        W21975  13.919  43.540   0.284
53758W        W21976   3.485  16.716  14.960
53759W        W21977  40.232  20.121   0.186
53760W        W21978   1.965  44.857   0.894
53761W        W21979  29.687  44.366  13.126
53762W        W21980  44.825  34.045  13.283
53763W        W21981  31.376  16.342   1.909
53764W        W21982  26.165   7.708   2.763
53765W        W21983   8.167  13.676   2.209
53766W        W21984  24.119   0.130  14.858
53767W        W21985   2.762  23.967   4.547
53768W        W21986   2.604  16.928   3.734
53769W        W21987   6.841  17.046  14.062
53770W        W21988  42.107  11.395  14.404
53771W        W21989  30.977  37.587   3.804
53772W        W21990   2.301  40.004   0.039
53773W        W21991  38.410  35.413  14.890
53774W        W21992  30.568  33.893   4.593
53775W        W21993   6.250  17.475   0.249
53776W        W21994  19.502  18.132   4.734
53777W        W21995  30.032  11.650   4.582
53778W        W21996  20.053  31.446   0.160
53779W        W21997   3.775  26.177  10.731
53780W        W21998  23.238  19.348  14.583
53781W        W21999  31.592  29.039  12.914
53782W        W22000   5.538  17.326  14.507
53783W        W22001  42.932   3.540   1.663
53784W        W22002   2.535  28.525  12.775
53785W        W22003  33.186  21.406  14.782
53786W        W22004  28.623   6.346   0.421
53787W        W22005   8.646  26.508  10.671
53788W        W22006  27.941   2.456   2.664
53789W        W22007  16.846  27.437   0.690
53790W        W22008  11.735  37.258   1.806
53791W        W22009  19.616  32.979  14.370
53792W        W22010  42.220   2.772  14.023
53793W        W22011  23.362  28.521  12.634
53794W        W22012  19.037  43.319  11.156
53795W        W22013   4.749  28.165  13.002
53796W        W22014  23.144  32.577  13.895
53797W        W22015  42.403  43.351   0.911
53798W        W22016  11.703  27.714   3.268
53799W        W22017   0.284  36.653  11.154
53800W        W22018  24.751   7.645  12.029
53801W        W22019  36.967   7.738   1.831
53802W        W22020  38.848  33.745   2.493
53803W        W22021  14.330  14.586   2.285
53804W        W22022  21.367  31.439  12.985
53805W        W22023  12.661  40.769  12.616
53806W        W22024  39.036  26.279   4.593
53807W        W22025  37.050  12.261  10.775
53808W        W22026  34.651  36.966  13.749
53809W        W22027   4.517   9.121   0.788
53810W        W22028   1.923  21.111   0.637
53811W        W22029   3.786  39.945  13.957
53812W        W22030  16.448  13.607  11.656
53813W        W22031  24.074  36.993  13.067
53814W        W22032  30.235  32.906  11.291
53815W        W22033  39.420  12.583   4.524
53816W        W22034  41.753  36.525   3.634
53817W        W22035  18.743   9.452   3.737
53818W        W22036   8.217  20.933   3.134
53819W        W22037  26.829  24.840  14.391
53820W        W22038  29.014  33.346   0.678
53821W        W22039  32.191   3.291   1.325
53822W        W22040  26.137  41.974  12.388
53823W        W22041  36.812  38.995   1.261
53824W        W22042  33.086  22.817   4.207
53825W        W22043  13.099   7.851   1.290
53826W        W22044   1.649  14.022   2.459
53827W        W22045  17.128  36.583  10.974
53828W        W22046  26.093   8.350  10.289
53829W        W22047  25.173  10.735   1.194
53830W        W22048  41.960  17.163   4.603
53831W        W22049  42.940   6.360  11.689
53832W        W22050  16.723  22.112   3.833
53833W        W22051  13.340  41.562   4.179
53834W        W22052   1.001  35.066  14.954
53835W        W22053   6.154   5.169   0.821
53836W        W22054  31.714  27.655  13.803
53837W        W22055   2.767  18.590  12.914
53838W        W22056  22.456  24.141   3.599
53839W        W22057  36.437  21.514   1.047
53840W        W22058  42.325  18.552  13.379
53841W        W22059  16.337  19.839  10.759
53842W        W22060  32.885   1.769  13.306
53843W        W22061  20.770  42.352   0.421
53844W        W22062  27.541  10.245   2.271
53845W        W22063   6.837  43.098   4.874
53846W        W22064   0.764   7.592   3.312
53847W        W22065  37.298  28.186  13.497
53848W        W22066  18.115  37.668   4.885
53849W        W22067  30.957  26.975   4.577
53850W        W22068  20.961  12.854  11.097
53851W        W22069  16.196  28.552  14.009
53852W        W22070  38.966  31.342   3.941
53853W        W22071  16.410  35.587   0.435
53854W        W22072  32.422   2.406   0.844
53855W        W22073  34.160  42.509  12.411
53856W        W22074  25.229  21.236   4.803
53857W        W22075  37.071  35.804   2.178
53858W        W22076  29.676  31.007   4.221
53859W        W22077  26.145  10.114  13.946
53860W        W22078  18.785   1.868   3.252
53861W        W22079  34.508   0.310   4.263
53862W        W22080   6.357  40.424   2.116
53863W        W22081  21.530  40.908  12.866
53864W        W22082  16.814  27.996   3.222
53865W        W22083  13.658  38.132   2.374
53866W        W22084  17.806  20.862  12.888
53867W        W22085  32.892  14.236  14.363
53868W        W22086  33.180   0.950   0.121
53869W        W22087   9.538  24.161   1.878
53870W        W22088  32.882  24.506   4.591
53871W        W22089  19.246  30.203   0.473
53872W        W22090  26.761  39.470  13.006
53873W        W22091  34.451  19.439   0.000
53874W        W22092  36.994  17.273   3.695
53875W        W22093  31.240  28.499  11.096
53876W        W22094  21.562  38.857   0.493
53877W        W22095  30.306  40.366  13.400
53878W        W22096  30.931  11.171  13.811
53879W        W22097  27.147  23.258   0.999
53880W        W22098  18.605   5.446   1.973
53881W        W22099  37.529  18.333  13.109
53882W        W22100  16.227   4.921  13.940
53883W        W22101  16.347  33.905   3.683
53884W        W22102  35.534   8.774   1.325
53885W        W22103  32.069   4.329   1.284
53886W        W22104   6.453  39.901  13.851
53887W        W22105  16.662  24.988   3.352
53888W        W22106  20.291  21.457   0.952
53889W        W22107  18.548  32.965  14.421
53890W        W22108  42.236  23.261  10.061
53891W        W22109  10.905  38.090  13.006
53892W        W22110  12.337   7.259   3.386
53893W        W22111   7.375  28.854  13.543
53894W        W22112  37.058  44.545   2.339
53895W        W22113  25.532  18.520   3.292
53896W        W22114  16.451   5.935   4.597
53897W        W22115   1.514  26.162   2.731
53898W        W22116  23.986  23.257   0.032
53899W        W22117   3.115  34.172   3.072
53900W        W22118  10.760  21.745  13.821
53901W        W22119  12.132  36.360   2.913
53902W        W22120  43.228  31.920  11.633
53903W        W22121   7.936   3.893   4.148
53904W        W22122  38.451  39.665   0.500
53905W        W22123  28.139  21.900  12.173
53906W        W22124  10.988   1.845   1.200
53907W        W22125  36.967  30.138  13.378
53908W        W22126  24.222   7.575   1.316
53909W        W22127  22.868   4.531   5.145
53910W        W22128  12.392  10.740  13.894
53911W        W22129  18.581   5.612  12.881
53912W        W22130  23.078  39.045   1.200
53913W        W22131   0.296   8.327  14.273
53914W        W22132   3.359  40.927   0.306
53915W        W22133  18.563  18.658   1.118
53916W        W22134   1.737   3.296   2.311
53917W        W22135  17.289   8.203  10.422
53918W        W22136   4.947  42.077  10.930
53919W        W22137  30.031  25.605   4.561
53920W        W22138  37.679   5.621   3.453
53921W        W22139   1.918  27.058  14.945
53922W        W22140  15.335   2.701  11.142
53923W        W22141  32.169  36.845  12.343
53924W        W22142  30.845  39.341  11.499
53925W        W22143   6.177  37.892   2.201
53926W        W22144  12.455  20.184  13.563
53927W        W22145  22.531  27.639  13.527
53928W        W22146  21.101  22.031   3.305
53929W        W22147  30.170   4.690  13.006
53930W        W22148  28.660  27.529   4.155
53931W        W22149  25.014  35.078  14.553
53932W        W22150  34.110  12.346   2.677
53933W        W22151  10.515  40.468   1.546
53934W        W22152  27.725   0.418  14.194
53935W        W22153  21.353  33.457  11.321
53936W        W22154  39.620  44.917  12.395
53937W        W22155  38.981  36.110  13.934
53938W        W22156  18.512  13.101   1.487
53939W        W22157  30.026  17.485  14.338
53940W        W22158  29.898  36.844  14.974
53941W        W22159  20.823  17.534   3.329
53942W        W22160  12.323  37.462  12.005
53943W        W22161  11.313  31.970   2.674
53944W        W22162   2.593  33.055  10.986
53945W        W22163  17.512  23.479  11.652
53946W        W22164  28.588  32.595  14.972
53947W        W22165  26.717  42.522   4.190
53948W        W22166  34.034  29.444   3.663
53949W        W22167   4.516   6.869  12.602
53950W        W22168  11.897  22.324   4.180
53951W        W22169  27.002  29.176  13.802
53952W        W22170  20.269  33.590  13.869
53953W        W22171  26.508  14.585   0.321
53954W        W22172  44.812  17.930   2.298
53955W        W22173  12.916  43.120  11.660
53956W        W22174  12.485  20.601   4.082
53957W        W22175  21.067   9.683  11.541
53958W        W22176  36.548  24.551  11.124
53959W        W22177  44.429   2.803   3.839
53960W        W22178  42.572  32.381  13.053
53961W        W22179   5.293  18.960   5.521
53962W        W22180  15.179  42.494   3.670
53963W        W22181   3.186  21.615  12.993
53964W        W22182  39.030  25.695  12.035
53965W        W22183   7.263  30.074  12.227
53966W        W22184  36.099  21.627   0.241
53967W        W22185  39.965  25.921  11.132
53968W        W22186   4.187   1.764  11.488
53969W        W22187  24.998  11.371  13.434
53970W        W22188  31.620   3.181   2.333
53971W        W22189  12.236  29.446  12.083
53972W        W22190   5.609  24.278   2.661
53973W        W22191  13.454  13.170   1.302
53974W        W22192  10.438  13.177   1.321
53975W        W22193  20.978  12.190   0.871
53976W        W22194  13.055   3.790   3.226
53977W        W22195  44.300  30.965  11.208
53978W        W22196  25.160   8.177  13.979
53979W        W22197  32.405  18.867   4.169
53980W        W22198   4.617   3.193   2.700
53981W        W22199   7.941  15.752   4.075
53982W        W22200  15.207  14.389  13.066
53983W        W22201  18.752  16.799   5.181
53984W        W22202  18.330  21.635   4.126
53985W        W22203   5.392  13.594  12.905
53986W        W22204  23.193  10.809   1.205
53987W        W22205  37.302  39.067   1.398
53988W        W22206  32.367  18.577   3.148
53989W        W22207  38.404  43.763  14.250
53990W        W22208  30.113  11.115   2.787
53991W        W22209  23.124  39.049  13.788
53992W        W22210  12.340  28.438   4.657
53993W        W22211  32.293   9.862  13.849
53994W        W22212  26.205  25.265  13.021
53995W        W22213  38.436  32.825  14.389
53996W        W22214  15.251  37.464  12.310
53997W        W22215  22.054  44.361  11.762
53998W        W22216  36.592  16.667   1.327
53999W        W22217  25.893  27.781  10.791
54000W        W22218  31.468  26.441   5.054
54001W        W22219  11.288  12.142   0.765
54002W        W22220  39.027   9.565  13.484
54003W        W22221   4.478   6.255  14.876
54004W        W22222  42.499   8.802   4.185
54005W        W22223  15.522  40.003   1.987
54006W        W22224  38.011  11.822   0.205
54007W        W22225  16.115   4.795   2.257
54008W        W22226   3.404  16.079   1.833
54009W        W22227  32.002  19.574  12.589
54010W        W22228  16.199  44.673  11.802
54011W        W22229  28.399  27.915  12.276
54012W        W22230  14.377  14.552   3.626
54013W        W22231  21.337  34.330   3.623
54014W        W22232   5.848  33.930   3.829
54015W        W22233   5.403   5.715   2.638
54016W        W22234  23.763  26.040   1.415
54017W        W22235  32.624  34.110  11.256
54018W        W22236  12.797   0.166   0.536
54019W        W22237  25.716  29.857  14.282
54020W        W22238   5.902   4.114  12.528
54021W        W22239  19.349  16.081  12.223
54022W        W22240  12.321  34.881   1.542
54023W        W22241  18.071   7.459   2.310
54024W        W22242   8.140  26.562   2.709
54025W        W22243  38.308  42.018  14.886
54026W        W22244   9.290  15.300   1.408
54027W        W22245  26.424  23.951   1.822
54028W        W22246  26.188  44.997  11.558
54029W        W22247  40.450  40.969   4.071
54030W        W22248   1.489  43.888   2.766
54031W        W22249  31.561  36.364  11.370
54032W        W22250  21.601  35.507   0.921
54033W        W22251   6.518  16.933  11.172
54034W        W22252  32.200   0.029   4.262
54035W        W22253  43.554  37.827  12.825
54036W        W22254   8.184  21.967   3.347
54037W        W22255  40.419   0.687  12.770
54038W        W22256   0.846  12.896  14.898
54039W        W22257   7.632  37.025   1.778
54040W        W22258  15.717   3.952  11.151
54041W        W22259  19.494  40.267   3.716
54042W        W22260  38.589  40.045  12.523
54043W        W22261  39.620  29.587  12.981
54044W        W22262  11.344   2.367   1.401
54045W        W22263   5.952   2.669   3.756
54046W        W22264  43.892  30.953   4.354
54047W        W22265  33.013  13.196  11.530
54048W        W22266   9.676  29.191  12.940
54049W        W22267   4.368  29.279   1.152
54050W        W22268  40.940  25.471  13.581
54051W        W22269   8.883  38.881  14.455
54052W        W22270  24.476  39.746  13.213
54053W        W22271  30.228  20.276   2.961
54054W        W22272   5.319   8.147   4.847
54055W        W22273  24.550  40.830  14.982
54056W        W22274  12.851   1.717   0.757
54057W        W22275  24.573  35.503   1.311
54058W        W22276   2.230  34.550   4.970
54059W        W22277   0.480  42.964  11.192
54060W        W22278  29.361   3.846  10.987
54061W        W22279  35.880  11.537  13.461
54062W        W22280  19.624   7.513   4.678
54063W        W22281  38.610  10.216  13.892
54064W        W22282  42.758   8.003   1.164
54065W        W22283  42.985  20.328   4.750
54066W        W22284  24.798  28.509  13.371
54067W        W22285   4.694  43.932  11.946
54068W        W22286  34.138  19.547  13.094
54069W        W22287  22.818  16.433   0.925
54070W        W22288  11.954  37.991  13.003
54071W        W22289   5.929  29.813  11.441
54072W        W22290  18.687   8.409  13.481
54073W        W22291  41.984   1.627   1.221
54074W        W22292   0.521  32.411  13.917
54075W        W22293  11.336   6.442  12.813
54076W        W22294  10.898  13.896  12.462
54077W        W22295  32.633   5.459   0.450
54078W        W22296  34.785  34.505  12.875
54079W        W22297  41.013   2.631  12.030
54080W        W22298   8.178  32.709   2.862
54081W        W22299  20.742  12.103   2.738
54082W        W22300  12.566  44.309   1.276
54083W        W22301  28.676  10.360  13.032
54084W        W22302  38.237   5.456  10.167
54085W        W22303  16.558  41.513   4.765
54086W        W22304  16.079  42.857   1.266
54087W        W22305   7.383  35.020   1.507
54088W        W22306   6.175  31.723  11.182
54089W        W22307  31.448  25.972   1.229
54090W        W22308   9.323  17.507   1.835
54091W        W22309   4.963  17.169  13.065
54092W        W22310  26.492   1.395  10.547
54093W        W22311  21.333   3.673   3.219
54094W        W22312  42.325  21.256   3.368
54095W        W22313  10.311  35.037  14.241
54096W        W22314   6.275   0.335   9.963
54097W        W22315   8.161   2.001  13.833
54098W        W22316  18.801   7.803  12.669
54099W        W22317  24.528  41.860  14.483
54100W        W22318  17.140  36.085  11.182
54101W        W22319  16.921  13.787  11.614
54102W        W22320  12.147  34.570   3.229
54103W        W22321  32.322  27.252   2.702
54104W        W22322  42.979  21.752   1.277
54105W        W22323  28.917  28.063  12.220
54106W        W22324  20.078  32.729  12.885
54107W        W22325  23.445   8.994   0.503
54108W        W22326  43.826  19.698   1.462
54109W        W22327  40.792  37.345  13.413
54110W        W22328   7.259  32.453  12.012
54111W        W22329   2.212  40.362   4.711
54112W        W22330  13.323   9.272  14.243
54113W        W22331  23.837   6.723   1.137
54114W        W22332  24.558  37.409   1.696
54115W        W22333  16.265  14.509   3.088
54116W        W22334  37.168   9.778  13.503
54117W        W22335  24.601  24.600   3.351
54118W        W22336   4.389  25.076   0.936
54119W        W22337  39.813  33.128   0.005
54120W        W22338  40.294  29.518   2.958
54121W        W22339  33.431  34.243   0.631
54122W        W22340   6.550  27.524   2.007
54123W        W22341  24.957  15.264   1.229
54124W        W22342  15.393  15.398   3.203
54125W        W22343  34.475   6.102   2.213
54126W        W22344  44.265  41.251   4.092
54127W        W22345  19.509  31.513  11.240
54128W        W22346  16.670  31.918   0.889
54129W        W22347   1.842  37.551  13.106
54130W        W22348  39.409  27.331   1.399
54131W        W22349  42.486   7.592  14.530
54132W        W22350  36.589   3.685   1.263
54133W        W22351  25.119  20.297   1.361
54134W        W22352   1.265  40.947  11.648
54135W        W22353  24.523  23.014   3.526
54136W        W22354  43.750  14.794  13.081
54137W        W22355  22.589  43.443  11.132
54138W        W22356  27.655  29.978  11.181
54139W        W22357  27.000  21.256   0.395
54140W        W22358  26.630  44.204  10.711
54141W        W22359  42.502  25.224  10.813
54142W        W22360  43.305  15.814  11.979
54143W        W22361  36.920  39.677  12.087
54144W        W22362  43.302   1.733  12.115
54145W        W22363  17.504  29.524   0.891
54146W        W22364  21.745  24.400  12.406
54147W        W22365  28.091  36.691   4.063
54148W        W22366   1.390   6.124  14.778
54149W        W22367  28.611   2.792  14.524
54150W        W22368  11.295   9.255   3.066
54151W        W22369   2.688  34.164  14.864
54152W        W22370  23.889  43.147   9.929
54153W        W22371  24.442  40.217   3.537
54154W        W22372   6.126  26.111  12.609
54155W        W22373   6.122  40.052   4.319
54156W        W22374  27.566  43.949   4.026
54157W        W22375  19.097  22.893  14.796
54158W        W22376  25.608  24.693  12.164
54159W        W22377  14.296  19.259   3.876
54160W        W22378   4.498  12.554   1.368
54161W        W22379  19.535  25.432   1.307
54162W        W22380  40.608  15.170   1.040
54163W        W22381   5.879  44.509   3.124
54164W        W22382  44.513  21.208  10.672
54165W        W22383   9.169  11.676  12.453
54166W        W22384  42.395  19.288  14.818
54167W        W22385  14.017  36.054   4.775
54168W        W22386  31.237  21.475  11.328
54169W        W22387   9.204  31.669   1.990
54170W        W22388  15.038  25.612   1.234
54171W        W22389  31.529  35.014   2.259
54172W        W22390  42.352  19.017   0.846
54173W        W22391  36.025  33.592   4.448
54174W        W22392  33.575  12.715   0.833
54175W        W22393  23.550  43.142   0.316
54176W        W22394  21.213  30.234  13.288
54177W        W22395  20.146   8.904  12.929
54178W        W22396  29.630  34.387   1.448
54179W        W22397  33.726  19.312   3.295
54180W        W22398  15.197   4.204  14.409
54181W        W22399  34.501  34.913   2.537
54182W        W22400  37.969   4.238   1.651
54183W        W22401  40.028   4.957  14.701
54184W        W22402  36.000  31.643   4.187
54185W        W22403  21.662  15.740   2.760
54186W        W22404   9.809  31.133  13.132
54187W        W22405  15.227  17.440  12.967
54188W        W22406   8.644   4.902  13.979
54189W        W22407  33.853  22.720   2.742
54190W        W22408  22.817  30.602  14.528
54191W        W22409  42.375   9.921  14.008
54192W        W22410  32.044  20.484  11.206
54193W        W22411  42.361  26.699  10.539
54194W        W22412  27.637  39.398   4.566
54195W        W22413  39.025  32.526   4.452
54196W        W22414  15.681  40.426   2.243
54197W        W22415  43.019  19.682  13.407
54198W        W22416  15.570   1.390   1.252
54199W        W22417  27.655  25.865  11.069
54200W        W22418  37.096  14.603   4.545
54201W        W22419  36.624   9.226   3.714
54202W        W22420   9.145  37.446   2.389
54203W        W22421  23.767  14.293   3.712
54204W        W22422   1.520  12.155   3.837
54205W        W22423  30.600  19.516   4.843
54206W        W22424   8.667  24.444   0.376
54207W        W22425  20.804   2.955   2.332
54208W        W22426  36.252  17.205  13.346
54209W        W22427  20.615   0.468   0.878
54210W        W22428  18.219  13.638  14.221
54211W        W22429  39.607   7.483  13.561
54212W        W22430  26.180  34.638  11.348
54213W        W22431  43.321  18.158  12.078
54214W        W22432  39.681  36.062   4.806
54215W        W22433  24.913  24.760  10.342
54216W        W22434  34.325  30.183  10.224
54217W        W22435  39.130   3.377  13.289
54218W        W22436  14.253  27.941   3.867
54219W        W22437  39.377  25.138  14.985
54220W        W22438  20.184  44.044   3.652
54221W        W22439  18.191  29.385  11.162
54222W        W22440   0.161  12.393  11.838
54223W        W22441   8.977  28.078   4.584
54224W        W22442  10.393   8.481   2.875
54225W        W22443  31.872  36.458  13.559
54226W        W22444  17.198  30.588  11.901
54227W        W22445  26.951  27.003   1.920
54228W        W22446  35.530   0.572   3.384
54229W        W22447  31.090  30.933   3.195
54230W        W22448   7.094  28.942   1.946
54231W        W22449  13.297  27.343   3.168
54232W        W22450  41.419  12.124  11.192
54233W        W22451  19.464  34.463   2.693
54234W        W22452  11.019  22.339   3.653
54235W        W22453  32.077  39.043   2.656
54236W        W22454  38.544  12.422  10.934
54237W        W22455  26.985   2.244   2.317
54238W        W22456  16.899   8.129  10.763
54239W        W22457  39.030  31.853   3.969
54240W        W22458  23.204  20.280  12.158
54241W        W22459   4.483   3.322  14.435
54242W        W22460  35.412  32.883  10.793
54243W        W22461   2.952  39.028   4.567
54244W        W22462  44.686  41.373   0.032
54245W        W22463  38.288   9.469  10.674
54246W        W22464  36.459   0.526   1.386
54247W        W22465  39.974  20.984   0.766
54248W        W22466   6.149  19.589  10.738
54249W        W22467   8.954  29.090   2.111
54250W        W22468  15.507  24.177   1.267
54251W        W22469  37.359  25.638  12.943
54252W        W22470   0.310   2.927   2.127
54253W        W22471  41.106   0.363   4.131
54254W        W22472  14.465   9.266   4.686
54255W        W22473  35.453  41.348   3.856
54256W        W22474   0.214  11.772   2.142
54257W        W22475  28.053  42.621  14.203
54258W        W22476  23.589  36.666  12.100
54259W        W22477   8.745  43.403  11.633
54260W        W22478  18.868   2.265  11.142
54261W        W22479  35.498  30.891   0.337
54262W        W22480   7.949  42.820   1.804
54263W        W22481  15.710  29.496   0.236
54264W        W22482   2.292  34.233  13.595
54265W        W22483   0.509  19.592   2.159
54266W        W22484  34.230  41.446   4.164
54267W        W22485   6.854  23.197   3.291
54268W        W22486   1.225  29.630   0.874
54269W        W22487  34.985  21.418  13.856
54270W        W22488  27.413  34.145   1.794
54271W        W22489  22.563  18.080   0.476
54272W        W22490  30.554  17.989   4.515
54273W        W22491   9.746   2.082  12.479
54274W        W22492  41.197  37.357   2.423
54275W        W22493  25.546  15.004  13.124
54276W        W22494  27.780  33.314  11.170
54277W        W22495  27.022  43.253   0.804
54278W        W22496   2.380  19.146   4.189
54279W        W22497  34.068  27.455   1.126
54280W        W22498  40.944   2.988  14.459
54281W        W22499  14.903  27.540  13.118
54282W        W22500  33.054  18.074  10.675
54283W        W22501  25.469  39.853  13.022
54284W        W22502   9.223  36.902   1.707
54285W        W22503  16.588  41.799  11.859
54286W        W22504  29.152  30.354  11.090
54287W        W22505  12.181  40.563  10.414
54288W        W22506  25.946  38.500  13.904
54289W        W22507  36.093  29.413   1.257
54290W        W22508  25.051  27.500   0.276
54291W        W22509  14.556   8.592   5.313
54292W        W22510  24.967  32.976   0.935
54293W        W22511   0.234  38.294   3.390
54294W        W22512  30.220   3.391   2.709
54295W        W22513   5.394   4.154  11.804
54296W        W22514  27.693   6.265  11.496
54297W        W22515  26.254  26.460  12.533
54298W        W22516   4.527   3.692  12.117
54299W        W22517  35.107  31.594  10.428
54300W        W22518  23.701   7.190   0.894
54301W        W22519  16.144  17.013   1.149
54302W        W22520  10.263   8.660  10.241
54303W        W22521  44.954  41.492   4.543
54304W        W22522  25.787  12.622  12.053
54305W        W22523  24.523  10.493  13.875
54306W        W22524  40.822   7.959  11.690
54307W        W22525  44.542  22.103  11.582
54308W        W22526  13.227  22.875   1.706
54309W        W22527  12.124  16.806  13.587
54310W        W22528  13.891  16.636  12.986
54311W        W22529   7.282  37.772   5.050
54312W        W22530  22.000  24.717   4.224
54313W        W22531  16.638  35.177   2.808
54314W        W22532  17.729   8.129   2.989
54315W        W22533  16.215  28.212   4.063
54316W        W22534  22.949  31.079   0.333
54317W        W22535   8.247  12.848  14.928
54318W        W22536  18.021  36.873   1.744
54319W        W22537  31.201   4.499   2.784
54320W        W22538  16.782   3.819   0.494
54321W        W22539  40.980   9.129   2.799
54322W        W22540  33.454  34.710   4.521
54323W        W22541   2.444  22.713   3.179
54324W        W22542  44.114   4.487  10.849
54325W        W22543  30.916   1.443  14.930
54326W        W22544   6.420  24.603  14.961
54327W        W22545  38.291   9.638  11.602
54328W        W22546  26.713  41.837   1.836
54329W        W22547  36.583  12.615   3.227
54330W        W22548  17.126  16.098   3.118
54331W        W22549  30.712  10.229  12.443
54332W        W22550  10.388  20.014  10.735
54333W        W22551  27.062  23.516  12.189
54334W        W22552  12.790  15.799  12.427
54335W        W22553  34.163  32.548  14.860
54336W        W22554   0.835   5.754  11.621
54337W        W22555  27.135  19.212  10.668
54338W        W22556  40.944  12.197  13.925
54339W        W22557  23.042  43.427   4.243
54340W        W22558   0.872  30.067   1.882
54341W        W22559  34.568  16.708  10.749
54342W        W22560  35.534  21.196   2.440
54343W        W22561  33.376   0.723  12.131
54344W        W22562  10.491   1.978  12.783
54345W        W22563  18.153  27.752   0.611
54346W        W22564  21.458   0.032   2.696
54347W        W22565  20.975  28.003  11.186
54348W        W22566  23.460  30.461   1.083
54349W        W22567  26.592   0.644   3.785
54350W        W22568  33.574  10.454   2.808
54351W        W22569  42.924   0.367   3.746
54352W        W22570  44.861  32.985  12.346
54353W        W22571  14.251  37.323   1.260
54354W        W22572  29.230  17.848   5.180
54355W        W22573  15.683   8.636  14.420
54356W        W22574  26.516   4.767  12.356
54357W        W22575  44.138  24.113   1.001
54358W        W22576  23.555  30.944   2.896
54359W        W22577  41.698  24.313  12.933
54360W        W22578  30.283   8.679   3.139
54361W        W22579  26.889  23.518   2.233
54362W        W22580   2.223   6.398  12.552
54363W        W22581   2.737  41.732   2.128
54364W        W22582  41.302  28.637  11.990
54365W        W22583  38.302  33.837  11.393
54366W        W22584  41.229   6.364  13.141
54367W        W22585  12.488  34.840   2.368
54368W        W22586  42.339  12.993   3.353
54369W        W22587  42.878  36.971   3.021
54370W        W22588  31.066   1.730  13.548
54371W        W22589  31.422  27.150  10.270
54372W        W22590   7.416  42.986  13.498
54373W        W22591   6.188  15.643  11.875
54374W        W22592   2.745  37.908  13.519
54375W        W22593  15.909  23.361  14.959
54376W        W22594   6.335  24.877   1.411
54377W        W22595  43.945   8.881   2.381
54378W        W22596  17.472  10.161  11.451
54379W        W22597  33.553   4.144   3.322
54380W        W22598   9.090  17.074  11.186
54381W        W22599   3.552  39.235  14.454
54382W        W22600  39.637  20.483  14.933
54383W        W22601  40.881  41.253  11.226
54384W        W22602   9.904  17.829   2.646
54385W        W22603  11.702  32.006  10.552
54386W        W22604   8.593  24.003  12.134
54387W        W22605  25.451  13.117   4.957
54388W        W22606   9.624   4.922   3.807
54389W        W22607   9.436   4.636  13.623
54390W        W22608  17.291  39.606  14.869
54391W        W22609  40.622  18.898   1.735
54392W        W22610  16.278  23.452   3.544
54393W        W22611  39.689  25.428   4.647
54394W        W22612  29.881  25.143   2.772
54395W        W22613  23.914   6.400  13.458
54396W        W22614   1.386  24.394   3.430
54397W        W22615  26.535  41.684  12.595
54398W        W22616  32.993  30.473   3.984
54399W        W22617  33.941  17.101  11.855
54400W        W22618  34.690  22.112   4.716
54401W        W22619  24.007  37.344   2.510
54402W        W22620  41.017  44.435  13.243
54403W        W22621   6.715  43.912  13.365
54404W        W22622  10.176  31.830   3.605
54405W        W22623  25.014  41.933  14.336
54406W        W22624  20.180   9.726   1.163
54407W        W22625   2.544  44.303   3.224
54408W        W22626  23.594  21.135   1.877
54409W        W22627  30.591  37.011  11.906
54410W        W22628  12.986  14.601   0.780
54411W        W22629   3.299  23.916  10.568
54412W        W22630  11.075  18.235   4.695
54413W        W22631  25.726  11.786   2.511
54414W        W22632  38.879  11.708   3.697
54415W        W22633  18.125  33.037   0.161
54416W        W22634   3.811  44.020   4.233
54417W        W22635   3.093  11.236  10.743
54418W        W22636  10.795  31.133  13.973
54419W        W22637  24.732  18.295  13.907
54420W        W22638   6.452  21.478   2.806
54421W        W22639  20.772  15.091  12.567
54422W        W22640  43.786  35.905  11.505
54423W        W22641  11.152  20.456  11.216
54424W        W22642  27.939  19.320   4.491
54425W        W22643  32.828   4.902   4.680
54426W        W22644  33.118  21.092  12.364
54427W        W22645   7.460  16.337  13.887
54428W        W22646  44.899  43.912  14.397
54429W        W22647  41.311   6.921  11.182
54430W        W22648  29.355   1.690  12.458
54431W        W22649   1.285  22.571   1.800
54432W        W22650  21.603  29.877   0.019
54433W        W22651  28.954  43.347  11.486
54434W        W22652  24.799   2.828  12.833
54435W        W22653  42.374   6.969   1.019
54436W        W22654  34.593  19.386  12.840
54437W        W22655  22.254  15.841   1.001
54438W        W22656  39.329  38.875  11.843
54439W        W22657   0.292  15.615  11.623
54440W        W22658  12.181  41.516  12.158
54441W        W22659  17.787  41.793   2.415
54442W        W22660  29.233  39.369  12.920
54443W        W22661  30.456  28.110  11.959
54444W        W22662  33.064  17.645   1.622
54445W        W22663  37.656   1.656   0.649
54446W        W22664  36.594  42.298  13.434
54447W        W22665  44.474  35.818   3.429
54448W        W22666  33.627  22.775  11.156
54449W        W22667  11.803  10.651   1.518
54450W        W22668  18.178  29.546   4.558
54451W        W22669  24.726  30.073  11.131
54452W        W22670  22.591   9.178   2.241
54453W        W22671  27.946  43.454  10.690
54454W        W22672  29.635  15.297  13.882
54455W        W22673  23.046  14.245   1.942
54456W        W22674  40.825  13.298  12.538
54457W        W22675  29.098  30.740  14.279
54458W        W22676   5.261  16.743   0.346
54459W        W22677  23.187  28.453   1.458
54460W        W22678  27.622  36.586  12.006
54461W        W22679   8.862  23.224  14.453
54462W        W22680  39.335  19.236   2.913
54463W        W22681   1.016  28.977   3.000
54464W        W22682  29.081  30.649  10.665
54465W        W22683  33.443  42.526   3.447
54466W        W22684  27.101  21.979   4.980
54467W        W22685  11.382  23.985  11.125
54468W        W22686  23.682  28.185   4.075
54469W        W22687  39.305   8.858  11.932
54470W        W22688  11.654   6.475  14.197
54471W        W22689   6.767  26.882  14.911
54472W        W22690  11.713  24.682   4.786
54473W        W22691  10.687  40.985   0.973
54474W        W22692  10.306  30.057  11.564
54475W        W22693  34.060  18.190   3.704
54476W        W22694  26.888   1.064  12.041
54477W        W22695   2.435  33.101   3.188
54478W        W22696   0.565  10.195  12.070
54479W        W22697  22.162  22.518  14.190
54480W        W22698  24.973   6.856   2.713
54481W        W22699  25.041  38.871  13.006
54482W        W22700  30.006  10.067   0.501
54483W        W22701  20.341  33.945   2.810
54484W        W22702  39.578  10.971  13.352
54485W        W22703  11.916  35.375  11.388
54486W        W22704  37.351  40.028   1.264
54487W        W22705  24.204  34.355   4.197
54488W        W22706   3.966  34.925  11.793
54489W        W22707  28.854  23.990  11.650
54490W        W22708   2.279  43.020  13.378
54491W        W22709  42.814  11.382   4.179
54492W        W22710  22.088  38.791  13.751
54493W        W22711  44.525   4.556   0.910
54494W        W22712  36.901   3.540   4.102
54495W        W22713   7.153   0.528   2.766
54496W        W22714   5.378  41.544   2.630
54497W        W22715   7.808  30.090   4.579
54498W        W22716   8.968  44.869   0.775
54499W        W22717  11.410   2.320  12.463
54500W        W22718  33.596   6.764   0.504
54501W        W22719  32.170  35.451  12.366
54502W        W22720  40.094  41.096   1.225
54503W        W22721   6.997  10.760   4.616
54504W        W22722  44.304  29.746   1.324
54505W        W22723  15.316  36.572  12.667
54506W        W22724   7.023  41.792  11.337
54507W        W22725   3.635  33.823  14.920
54508W        W22726  20.247  31.121  11.437
54509W        W22727   4.716  12.860   3.688
54510W        W22728  17.271  39.053   4.095
54511W        W22729  19.701  37.739  13.292
54512W        W22730  35.913  18.744  10.580
54513W        W22731  42.782   1.372   2.736
54514W        W22732  32.618  32.900  11.419
54515W        W22733  26.035  15.045  10.208
54516W        W22734  42.137   2.001   1.551
54517W        W22735  19.041  40.520   3.990
54518W        W22736  10.347  27.793   4.643
54519W        W22737  13.798   3.854  13.085
54520W        W22738  19.095  27.961  14.262
54521W        W22739  19.779  43.815  10.921
54522W        W22740   1.322  39.174   1.733
54523W        W22741  15.258  16.592   0.259
54524W        W22742   3.866  20.307  11.967
54525W        W22743  37.782  44.207  12.971
54526W        W22744   2.379  31.657   4.377
54527W        W22745  37.287   1.547  14.477
54528W        W22746  28.754   6.488   1.664
54529W        W22747  43.325  18.134  11.559
54530W        W22748  44.394   1.841  13.952
54531W        W22749  19.909   1.249   0.423
54532W        W22750  25.639  21.317  12.297
54533W        W22751  25.018  11.720  14.604
54534W        W22752  34.087  28.551  13.855
54535W        W22753  31.449  28.950  14.863
54536W        W22754  40.347  19.065  13.791
54537W        W22755  30.317  43.832   1.780
54538W        W22756  41.989  26.655   1.778
54539W        W22757  27.115  31.805   2.763
54540W        W22758  28.953  16.664  12.538
54541W        W22759  16.149  43.298  12.076
54542W        W22760   5.580   6.452   3.153
54543W        W22761   2.420  19.892  10.458
54544W        W22762  21.289  22.057   0.722
54545W        W22763  13.238  20.572  12.501
54546W        W22764   4.389  43.520  13.517
54547W        W22765  26.613  25.220  12.551
54548W        W22766  41.964  10.056   0.768
54549W        W22767  34.695  33.378   0.077
54550W        W22768  28.399  14.580   3.765
54551W        W22769   5.044  26.162  10.228
54552W        W22770   0.207  20.127   2.864
54553W        W22771  11.818  11.366  14.107
54554W        W22772  38.807  10.801   1.920
54555W        W22773  34.957  43.816  11.126
54556W        W22774  44.370  37.642   3.668
54557W        W22775  23.958  39.701  13.088
54558W        W22776  29.106  33.168  10.599
54559W        W22777  12.533   7.246  13.449
54560W        W22778   3.396   8.363  13.954
54561W        W22779  44.856   8.895  13.076
54562W        W22780  15.654  11.208   3.655
54563W        W22781  26.121  29.298   4.924
54564W        W22782  35.893   0.851  14.483
54565W        W22783  31.462  44.453   1.742
54566W        W22784   4.826  37.240  11.197
54567W        W22785   5.298  21.026  12.495
54568W        W22786  22.126  42.050  11.697
54569W        W22787  27.989  31.953  11.479
54570W        W22788  19.712  30.126   3.441
54571W        W22789   9.181  14.719  14.695
54572W        W22790   9.276  44.519   1.834
54573W        W22791  16.303  23.687   4.448
54574W        W22792  11.719  41.278   4.516
54575W        W22793  25.881  39.947   0.034
54576W        W22794  37.321   5.006   1.725
54577W        W22795  38.931   4.259   3.807
54578W        W22796  18.569  18.249  13.502
54579W        W22797   9.098  23.290   3.332
54580W        W22798  23.840  44.575  11.865
54581W        W22799  15.722  31.011  13.556
54582W        W22800  16.953  37.994   3.035
54583W        W22801  27.719  42.569   1.784
54584W        W22802   7.888  17.972  14.992
54585W        W22803  38.877  26.238  13.025
54586W        W22804  13.363  28.893   0.987
54587W        W22805  44.441  13.549  13.600
54588W        W22806   0.568  30.490  14.869
54589W        W22807  39.361  26.548   1.042
54590W        W22808  12.472  17.736   4.255
54591W        W22809  30.671  17.735  14.071
54592W        W22810  35.628  20.732  11.824
54593W        W22811  38.006  27.008   2.762
54594W        W22812  14.616  25.539  11.925
54595W        W22813   2.544  26.210   2.345
54596W        W22814  14.040  16.013  10.980
54597W        W22815  33.126  30.279   5.359
54598W        W22816  11.578   2.954   3.383
54599W        W22817  20.243  39.975  14.347
54600W        W22818  29.046   5.151   4.186
54601W        W22819   7.252  36.275   1.357
54602W        W22820  44.305  27.266   0.454
54603W        W22821  16.073  30.749  12.390
54604W        W22822   7.037   0.287   2.310
54605W        W22823  28.660  43.301  11.902
54606W        W22824  20.925  28.027  12.030
54607W        W22825  20.335  31.922  13.339
54608W        W22826  28.020  27.596   2.868
54609W        W22827  13.157  35.869  13.826
54610W        W22828  43.209   9.419   2.404
54611W        W22829  13.039  38.896  13.318
54612W        W22830  43.540  20.084   1.704
54613W        W22831  17.377  13.159  14.771
54614W        W22832  18.213  25.686  12.690
54615W        W22833  39.004  38.544  11.580
54616W        W22834  22.243   4.827  10.711
54617W        W22835  38.794  40.425  13.934
54618W        W22836  27.510  40.946   4.235
54619W        W22837  17.211  29.040  13.549
54620W        W22838   4.666  36.375   3.679
54621W        W22839  24.493  43.484   2.061
54622W        W22840  43.846  34.991   3.352
54623W        W22841  41.577  14.823   0.870
54624W        W22842   0.727  37.059   3.614
54625W        W22843  38.172  40.302  10.788
54626W        W22844   5.055  34.524  10.258
54627W        W22845  29.649  19.817  12.651
54628W        W22846  23.557  24.707  12.843
54629W        W22847   5.502   2.806   2.813
54630W        W22848  14.596   7.361  13.405
54631W        W22849   7.755  34.400   4.605
54632W        W22850   5.395  12.370   4.052
54633W        W22851  30.501  29.751   3.851
54634W        W22852   9.727  39.442  14.408
54635W        W22853  11.226  29.133   4.053
54636W        W22854  27.981   1.073  10.323
54637W        W22855  34.566  41.098   0.945
54638W        W22856  33.362   1.875   2.582
54639W        W22857  17.786   0.662   1.818
54640W        W22858  10.946  18.146   1.196
54641W        W22859   9.406  41.519  10.778
54642W        W22860  42.415   4.675   1.652
54643W        W22861  31.905  23.050  11.665
54644W        W22862  35.716  27.172  12.542
54645W        W22863  39.094   1.241  12.138
54646W        W22864  41.886  23.946   0.506
54647W        W22865  10.831  22.760  13.615
54648W        W22866  18.249  31.347  11.255
54649W        W22867  28.960   5.861  10.722
54650W        W22868  17.066   3.823   3.602
54651W        W22869   7.742  17.445   2.306
54652W        W22870  20.631  15.860  12.092
54653W        W22871  17.706  34.046   3.600
54654W        W22872  42.490  32.067  13.455
54655W        W22873  34.738  37.729  11.927
54656W        W22874  32.377   2.762   1.245
54657W        W22875  37.777  40.821   0.380
54658W        W22876  43.770   6.398   2.280
54659W        W22877  39.075   6.832  14.302
54660W        W22878  17.650  44.758   0.790
54661W        W22879  32.350  10.370  10.028
54662W        W22880  17.582  25.009   3.070
54663W        W22881  21.544  25.058  13.117
54664W        W22882  15.288  20.842   2.821
54665W        W22883  39.842  20.997  11.580
54666W        W22884   6.198  36.500  12.971
54667W        W22885  17.358   1.779   5.035
54668W        W22886  22.183  27.259   0.514
54669W        W22887  25.169  41.918  12.442
54670W        W22888   2.198  26.659  12.797
54671W        W22889  12.501   8.259   1.329
54672W        W22890  13.184  28.782   4.105
54673W        W22891   6.688  22.029  14.501
54674W        W22892  22.665  39.832  14.348
54675W        W22893  27.312  31.964  13.415
54676W        W22894  28.673  11.568  11.982
54677W        W22895  18.018  19.339   0.892
54678W        W22896   6.176   0.743  13.698
54679W        W22897  30.164   0.287  13.833
54680W        W22898  30.537  27.912  14.787
54681W        W22899  42.430  30.509  13.826
54682W        W22900  11.085  10.851   1.859
54683W        W22901  17.633  37.984  10.498
54684W        W22902  10.188   9.808   1.409
54685W        W22903   8.214  30.221  11.819
54686W        W22904  38.329  44.791   3.763
54687W        W22905   6.903   6.343   4.160
54688W        W22906  21.357  16.625  10.065
54689W        W22907  35.918  16.638   4.104
54690W        W22908   4.264  39.102   1.173
54691W        W22909  10.147  17.039  11.263
54692W        W22910  25.395   6.101  14.050
54693W        W22911   3.331   9.897   3.805
54694W        W22912   1.200   0.641   2.406
54695W        W22913  34.284  23.075  11.147
54696W        W22914   9.683  19.075   1.034
54697W        W22915  39.483  13.247  10.784
54698W        W22916  37.439  31.452   2.084
54699W        W22917  35.478   1.206  12.142
54700W        W22918  40.376  30.281  13.620
54701W        W22919  30.133   8.122  11.617
54702W        W22920  26.556  34.671  10.984
54703W        W22921  18.044  24.125   1.449
54704W        W22922  27.153  10.643   0.309
54705W        W22923  13.575  40.250   0.247
54706W        W22924  14.031  35.023  13.941
54707W        W22925  24.628  32.551  14.097
54708W        W22926  31.392  33.422  14.572
54709W        W22927  33.350  30.042   0.400
54710W        W22928  35.388  25.680   0.024
54711W        W22929  43.517  42.412   2.327
54712W        W22930  21.820  15.820  11.257
54713W        W22931  10.227  17.814   0.920
54714W        W22932  41.948  21.180   2.628
54715W        W22933  29.116  12.130  13.781
54716W        W22934   3.483  39.157  11.864
54717W        W22935  36.083  10.379  11.633
54718W        W22936  25.987  14.982  11.240
54719W        W22937   6.399   5.757  10.559
54720W        W22938  20.985  15.336   3.207
54721W        W22939  38.861   3.023   2.940
54722W        W22940   1.122   2.824  11.152
54723W        W22941  19.977  24.633  13.935
54724W        W22942  13.337  37.585  14.810
54725W        W22943  36.345  40.453   3.867
54726W        W22944  22.052  36.943   3.623
54727W        W22945  21.650   7.819  11.124
54728W        W22946  32.865  15.237  14.922
54729W        W22947  39.381  30.992   2.015
54730W        W22948  10.744  42.101   0.935
54731W        W22949  26.975  28.181   2.779
54732W        W22950  22.061   1.459   0.914
54733W        W22951   7.924  29.433  12.478
54734W        W22952  30.053  30.485  14.958
54735W        W22953  19.749  15.666  14.755
54736W        W22954   7.448   0.556  11.161
54737W        W22955  21.335  15.684  10.656
54738W        W22956  11.359  29.080  11.960
54739W        W22957   8.232   5.762  13.546
54740W        W22958  26.503   9.346  14.025
54741W        W22959  11.866  27.724   5.198
54742W        W22960  13.682  37.832   2.815
54743W        W22961  32.628  39.927   4.534
54744W        W22962  33.762  25.053  11.729
54745W        W22963  12.274  15.562  11.153
54746W        W22964  10.880  23.164   4.584
54747W        W22965  26.301  25.204  13.951
54748W        W22966  12.428  13.534  13.634
54749W        W22967  30.091  13.753  11.171
54750W        W22968   5.188  39.872   1.722
54751W        W22969   3.270  34.163   2.216
54752W        W22970  13.098  11.701   2.853
54753W        W22971  31.485   1.784   0.546
54754W        W22972   7.118  19.677  11.689
54755W        W22973  37.619  25.177  13.041
54756W        W22974   6.764   4.692   0.409
54757W        W22975  35.943  16.166   0.512
54758W        W22976   4.660  24.112   0.835
54759W        W22977   5.913  27.933  11.395
54760W        W22978  43.317  10.364  14.750
54761W        W22979  17.049  44.970  10.625
54762W        W22980  31.551  37.518  14.916
54763W        W22981  28.920  39.561  10.482
54764W        W22982   1.346  40.065   2.056
54765W        W22983  15.650  28.071  11.028
54766W        W22984  16.507   9.289   4.855
54767W        W22985   2.705  26.593  12.857
54768W        W22986  37.386  12.106   4.583
54769W        W22987  27.131   9.456   2.651
54770W        W22988  44.511  38.314  14.182
54771W        W22989  30.964  11.170  12.418
54772W        W22990  39.959  41.088   1.742
54773W        W22991  17.435  41.836  13.895
54774W        W22992  39.767  41.468   2.363
54775W        W22993  40.443  30.153  13.124
54776W        W22994   4.871  25.437  12.072
54777W        W22995   7.825  30.609   3.223
54778W        W22996  34.443  28.576   0.114
54779W        W22997  27.753  25.955   2.779
54780W        W22998   9.097  25.128  12.066
54781W        W22999  44.545  28.017  12.056
54782W        W23000  34.861  32.883   3.130
54783W        W23001  22.072  39.545   0.789
54784W        W23002  23.309  42.059   1.869
54785W        W23003  24.133  34.210   0.539
54786W        W23004  14.845  41.342   2.288
54787W        W23005   0.888  20.511  11.169
54788W        W23006  32.360  40.222   3.628
54789W        W23007  35.514  22.040   5.005
54790W        W23008  38.033  24.918  13.293
54791W        W23009  15.761  22.009  11.645
54792W        W23010  18.200  19.053  10.903
54793W        W23011   8.027  18.533   9.848
54794W        W23012  10.637  31.638  11.678
54795W        W23013   2.329   7.104   0.953
54796W        W23014   9.661   0.636   4.238
54797W        W23015  37.321   7.894   3.818
54798W        W23016  30.127  10.212   2.232
54799W        W23017  19.438   7.381   2.357
54800W        W23018  41.302  42.768  13.848
54801W        W23019  39.089  15.753  12.084
54802W        W23020   7.219  29.426   4.421
54803W        W23021  30.481  44.330   0.837
54804W        W23022  16.645  14.230   3.361
54805W        W23023  37.959  43.013   2.902
54806W        W23024   4.451  41.620  14.445
54807W        W23025  37.993  20.051   2.894
54808W        W23026   6.406  39.927  10.208
54809W        W23027  16.447  29.105   1.337
54810W        W23028  27.478  36.874  11.152
54811W        W23029   3.530   6.546  12.558
54812W        W23030  22.330  44.442  14.742
54813W        W23031  13.289   5.885  14.138
54814W        W23032  17.289  31.689   0.570
54815W        W23033  21.226  12.006   0.446
54816W        W23034  20.627  10.784   0.908
54817W        W23035  10.922  21.517   0.180
54818W        W23036  23.290  43.846  13.004
54819W        W23037  37.902   2.455  14.330
54820W        W23038  28.623  36.109  12.440
54821W        W23039   8.327  44.808   0.311
54822W        W23040   4.322  18.810  12.590
54823W        W23041  29.044  24.651   1.234
54824W        W23042  29.283  32.989  11.056
54825W        W23043  35.619  37.856  13.878
54826W        W23044  25.435  31.894  12.066
54827W        W23045  13.586  15.075   3.511
54828W        W23046  32.203   7.211  11.839
54829W        W23047  11.499  40.265   5.067
54830W        W23048  23.466   6.225  13.811
54831W        W23049  42.415  38.432   3.135
54832W        W23050  22.556  13.159   2.700
54833W        W23051  37.013   1.492  10.794
54834W        W23052  29.711  36.084   2.818
54835W        W23053  10.896  24.516  13.816
54836W        W23054  28.479  23.281   1.649
54837W        W23055  22.574  40.036  10.895
54838W        W23056  30.884  36.512   3.301
54839W        W23057  14.500  25.076   5.161
54840W        W23058   0.026  35.024  13.909
54841W        W23059   0.963  25.544  10.681
54842W        W23060  15.931  42.391  13.324
54843W        W23061  25.403  26.820   4.187
54844W        W23062  44.996  25.069   0.493
54845W        W23063  27.467   1.051  13.414
54846W        W23064   4.872   3.506   4.200
54847W        W23065  22.587   9.928   0.942
54848W        W23066   5.901   4.738  14.575
54849W        W23067  21.798  32.027   3.782
54850W        W23068  26.503  36.287   2.456
54851W        W23069  29.692  13.102   4.550
54852W        W23070  35.024   5.955  10.157
54853W        W23071   0.544  44.909   2.252
54854W        W23072  17.722  23.496  14.865
54855W        W23073  20.084  11.724  10.904
54856W        W23074  32.151  29.201  10.748
54857W        W23075  14.029  44.354   1.117
54858W        W23076  17.580  30.899   2.317
54859W        W23077  21.563   2.758   4.260
54860W        W23078  28.446  21.809  12.594
54861W        W23079  32.972   7.681   4.434
54862W        W23080   4.201  33.624  10.661
54863W        W23081  30.647  10.327  12.948
54864W        W23082   5.402  30.676   1.399
54865W        W23083   9.896  41.590  14.810
54866W        W23084  36.137   7.438  13.507
54867W        W23085   0.359   7.406   2.629
54868W        W23086   0.497   9.360   1.964
54869W        W23087  32.227  21.899  10.123
54870W        W23088  39.778  25.518   1.599
54871W        W23089   2.307  15.211  14.811
54872W        W23090  44.504  14.620  12.925
54873W        W23091   5.723  25.323  14.787
54874W        W23092  27.010  14.100   2.127
54875W        W23093  41.474   7.690  10.530
54876W        W23094  30.303  22.060  12.936
54877W        W23095  22.755  34.840   0.788
54878W        W23096  12.260  37.109  12.868
54879W        W23097  38.007  27.882  11.211
54880W        W23098  32.214  25.633   4.649
54881W        W23099   2.694  24.110   3.674
54882W        W23100  41.961  43.086  13.318
54883W        W23101  15.251  19.184  11.561
54884W        W23102  10.387  23.004  13.774
54885W        W23103  32.129  19.319  14.013
54886W        W23104  35.334  40.030   4.535
54887W        W23105  17.721  18.170   1.871
54888W        W23106  31.865   7.615  10.594
54889W        W23107  43.260   8.341   1.821
54890W        W23108  37.405  18.898  12.640
54891W        W23109  28.171  34.957   0.524
54892W        W23110  20.973  24.227   3.790
54893W        W23111  13.835  38.260   3.733
54894W        W23112  10.127  22.938  12.781
54895W        W23113  28.587  36.412  14.058
54896W        W23114   6.966  24.587  10.521
54897W        W23115  12.124  42.490   1.844
54898W        W23116  36.471  40.706   1.043
54899W        W23117  42.800  35.454   0.057
54900W        W23118  21.053  20.088  14.339
54901W        W23119   8.766   1.727  13.557
54902W        W23120   6.107  44.867  13.455
54903W        W23121  17.831  14.372  11.281
54904W        W23122  28.430  44.089   4.433
54905W        W23123  20.036   9.225  14.417
54906W        W23124  30.482  10.174  11.617
54907W        W23125   4.917  24.653   3.247
54908W        W23126  27.482  13.562   3.368
54909W        W23127  20.040  13.297  11.472
54910W        W23128  18.640   3.603  10.746
54911W        W23129  31.616  19.254   1.071
54912W        W23130   9.142  10.773   1.397
54913W        W23131  14.799  22.767  13.291
54914W        W23132  21.160  16.137  11.731
54915W        W23133  34.967  40.446  12.073
54916W        W23134   5.557  16.623   5.016
54917W        W23135   2.197   3.620   2.281
54918W        W23136  33.945  30.725  14.402
54919W        W23137  17.693  13.240   3.901
54920W        W23138  23.666  12.292  11.025
54921W        W23139  43.551  38.297  13.013
54922W        W23140  13.057  38.746   0.275
54923W        W23141   1.760  32.874  13.642
54924W        W23142  34.139  10.597  14.657
54925W        W23143   5.735  13.572  14.260
54926W        W23144  43.185  37.721  12.473
54927W        W23145  43.843  15.054   3.298
54928W        W23146  16.674  28.353  13.421
54929W        W23147  38.104   2.353  11.068
54930W        W23148  26.997  24.350  14.327
54931W        W23149  34.271  36.622  12.155
54932W        W23150  15.492  20.303  12.370
54933W        W23151  22.497   9.287   1.716
54934W        W23152  11.776  44.842   4.400
54935W        W23153   0.158  11.904   0.393
54936W        W23154  44.911   5.634   4.521
54937W        W23155  25.406  39.305  14.028
54938W        W23156  23.923  10.165   3.701
54939W        W23157  43.360  36.300  11.884
54940W        W23158   9.342  41.009   2.150
54941W        W23159  40.061  21.887   2.189
54942W        W23160  22.350  43.982  10.492
54943W        W23161  28.586   8.698  10.074
54944W        W23162  27.282  16.626   3.177
54945W        W23163  16.298  29.181  11.153
54946W        W23164  32.932   8.260   3.716
54947W        W23165  39.862  24.537  11.956
54948W        W23166  33.524   5.770   2.387
54949W        W23167  12.337  38.308  12.368
54950W        W23168  16.669   2.510  11.058
54951W        W23169  44.950  19.771   2.580
54952W        W23170  28.991  35.501  13.762
54953W        W23171  19.188  35.436   1.235
54954W        W23172  20.074  39.392   2.712
54955W        W23173   6.805  18.770   0.521
54956W        W23174  34.575  15.539   2.080
54957W        W23175  41.338  32.427   4.563
54958W        W23176   2.478  29.485  13.043
54959W        W23177  10.889  14.323  14.613
54960W        W23178  29.562   0.851   1.690
54961W        W23179  22.610  38.847   1.006
54962W        W23180   5.880  13.322   4.221
54963W        W23181  29.518  36.392  13.789
54964W        W23182  25.018  44.878   0.662
54965W        W23183  32.021  10.798   0.921
54966W        W23184  27.328  35.021   0.686
54967W        W23185  25.140  30.032  13.057
54968W        W23186  16.634  22.226  14.958
54969W        W23187   5.680  16.221   4.668
54970W        W23188  21.913  38.432  12.568
54971W        W23189  36.548  29.914  11.598
54972W        W23190  43.044  30.291  11.199
54973W        W23191  17.577  19.212  13.641
54974W        W23192   5.452  38.669  12.103
54975W        W23193  17.037  12.754  14.981
54976W        W23194   2.754  30.875  14.289
54977W        W23195  24.616   0.922   4.298
54978W        W23196  24.774   1.057   2.773
54979W        W23197  34.521  12.846   0.842
54980W        W23198  40.334   5.476  13.827
54981W        W23199  30.558   2.486  10.187
54982W        W23200  25.525  41.408   3.821
54983W        W23201  35.565  35.027  11.164
54984W        W23202  10.271  27.870  14.766
54985W        W23203  11.380  39.107  13.994
54986W        W23204  43.232  36.310  13.856
54987W        W23205  12.268  24.758   3.284
54988W        W23206  19.785   4.962   1.712
54989W        W23207  30.918   4.310  12.001
54990W        W23208  34.953  34.085   1.848
54991W        W23209  12.817  30.040  13.306
54992W        W23210  32.615   4.843   0.677
54993W        W23211  42.060  21.119   4.117
54994W        W23212   7.677  31.636   1.384
54995W        W23213  43.423  21.813  11.617
54996W        W23214  27.379  43.332   1.830
54997W        W23215  41.241   2.234  14.903
54998W        W23216   5.049   1.071  11.180
54999W        W23217  12.652  19.649  14.647
55000W        W23218   2.737  17.658   2.169
55001W        W23219   2.487  19.538   3.850
55002W        W23220  15.992  22.872  14.794
55003W        W23221  25.628  36.328  14.818
55004W        W23222  36.269   4.496  11.261
55005W        W23223  26.563  26.843   0.108
55006W        W23224  34.681  40.350   0.589
55007W        W23225  43.575  19.076  12.166
55008W        W23226  31.915  31.519  13.694
55009W        W23227  35.136  40.754  10.671
55010W        W23228  11.470  23.391   0.033
55011W        W23229  30.038  35.815  12.202
55012W        W23230  42.985  38.443  10.846
55013W        W23231  21.118  36.145  14.390
55014W        W23232  30.687  17.041  11.893
55015W        W23233  16.809   9.422   1.876
55016W        W23234  38.411  34.181   4.161
55017W        W23235  18.286  24.071   0.366
55018W        W23236  42.306  27.567   1.789
55019W        W23237   7.136  36.107  10.729
55020W        W23238  25.479  11.666  14.863
55021W        W23239  29.126  23.189   5.396
55022W        W23240  29.832  40.747  14.066
55023W        W23241  20.134  11.425   4.156
55024W        W23242  16.179  17.770  12.869
55025W        W23243   4.926  19.112   4.023
55026W        W23244   9.266  17.017  13.276
55027W        W23245   2.033   5.762  14.293
55028W        W23246  17.853   4.091  12.991
55029W        W23247  30.571  38.881  13.548
55030W        W23248  22.214  15.637   0.540
55031W        W23249  37.446  18.804   2.787
55032W        W23250  37.294  30.625   1.543
55033W        W23251  31.172  18.675   1.618
55034W        W23252  13.817  27.717  14.382
55035W        W23253  14.763  26.970  14.848
55036W        W23254  39.925   5.245   4.504
55037W        W23255  26.496  37.412  13.788
55038W        W23256   3.825  18.123   2.871
55039W        W23257  10.809  11.648   3.914
55040W        W23258   6.778   8.126   3.433
55041W        W23259   0.399  18.752   3.182
55042W        W23260  24.365  43.998   2.134
55043W        W23261  26.523  31.429  11.293
55044W        W23262  25.457   2.868  12.050
55045W        W23263  13.843  41.339  12.767
55046W        W23264   7.453  13.541  12.376
55047W        W23265  21.020  23.312   2.765
55048W        W23266  38.083   8.744  13.256
55049W        W23267  19.228  36.127   4.948
55050W        W23268  41.543   5.659   4.668
55051W        W23269  29.149   4.398   3.597
55052W        W23270   3.513  31.516  10.547
55053W        W23271  29.448  39.829  13.894
55054W        W23272   9.403  30.029  11.513
55055W        W23273   3.763  13.404   2.897
55056W        W23274  19.973  43.232   1.863
55057W        W23275  43.003   9.435   1.390
55058W        W23276  27.791  44.921  14.338
55059W        W23277  29.530   5.417  12.757
55060W        W23278  27.467  33.009   4.077
55061W        W23279  37.902  34.131   3.566
55062W        W23280  22.211   9.205  14.445
55063W        W23281  14.306   2.426   0.209
55064W        W23282  39.390  34.456   0.955
55065W        W23283  31.014  16.751   4.583
55066W        W23284   1.238  44.853  10.571
55067W        W23285  28.077  27.347  12.934
55068W        W23286  29.536  27.965   0.833
55069W        W23287   9.260  10.995  13.681
55070W        W23288   9.595  34.239  13.491
55071W        W23289  24.865  27.461   3.560
55072W        W23290  22.686  22.975   2.747
55073W        W23291  31.065   4.896   3.659
55074W        W23292  38.338  19.732   0.491
55075W        W23293  28.841  26.819  11.100
55076W        W23294   4.973   1.191   3.486
55077W        W23295  31.523   1.214   1.818
55078W        W23296  43.893  15.407   0.814
55079W        W23297   5.161   6.780  13.441
55080W        W23298  17.141  28.635  11.073
55081W        W23299  36.540  39.080   3.888
55082W        W23300   0.548  12.054  13.285
55083W        W23301  30.762  16.254  14.802
55084W        W23302  15.572  28.119  12.407
55085W        W23303  29.173   0.460   3.641
55086W        W23304  16.240  18.196   4.161
55087W        W23305  22.618   8.576   5.042
55088W        W23306  16.767   2.354   4.732
55089W        W23307  35.074  21.386   1.091
55090W        W23308  16.233  43.811  10.303
55091W        W23309  20.601  15.678  13.927
55092W        W23310  30.483  21.253  11.344
55093W        W23311  42.649  42.836   1.895
55094W        W23312  33.590  28.754   2.338
55095W        W23313   6.176  32.663   0.815
55096W        W23314  25.167  24.291   0.014
55097W        W23315   9.715   2.493  14.464
55098W        W23316   8.586  20.247  14.457
55099W        W23317  19.176  44.940   3.766
55100W        W23318  27.896   8.188  12.935
55101W        W23319  31.114  37.660  13.166
55102W        W23320  30.546   6.082  10.757
55103W        W23321   0.394  40.501   3.674
55104W        W23322  30.949   1.300   1.382
55105W        W23323  21.491  15.176   1.917
55106W        W23324  30.038  29.521  10.794
55107W        W23325  23.478   3.023   3.161
55108W        W23326  16.734  21.708  14.401
55109W        W23327   8.462  36.162   2.834
55110W        W23328   1.679  12.757   0.007
55111W        W23329  40.070  29.691  12.271
55112W        W23330  28.046  18.581   2.203
55113W        W23331  43.479  29.661   3.605
55114W        W23332   1.693  23.704  14.092
55115W        W23333  10.423  39.236   0.722
55116W        W23334   7.479  14.352  10.705
55117W        W23335  11.658  33.677   0.924
55118W        W23336  33.690  20.820   4.103
55119W        W23337   8.617  35.991  13.504
55120W        W23338  23.530  17.782  14.006
55121W        W23339  23.807  37.271  11.450
55122W        W23340  20.229  12.707   0.902
55123W        W23341  28.778  38.036  13.530
55124W        W23342  14.104  11.227   4.115
55125W        W23343  36.189  28.646   4.623
55126W        W23344  27.210  11.581  10.249
55127W        W23345  21.363  38.943   2.904
55128W        W23346   5.378   1.098  10.739
55129W        W23347  41.832  15.457  12.161
55130W        W23348  40.476  32.642   1.045
55131W        W23349  15.148   0.080   3.745
55132W        W23350  28.457  17.760   2.369
55133W        W23351  42.417  15.604  11.059
55134W        W23352   5.209  42.905  11.494
55135W        W23353  21.417   5.253  14.821
55136W        W23354  10.712  15.067   0.408
55137W        W23355   3.663   5.180  11.113
55138W        W23356  28.342  44.699   0.015
55139W        W23357  26.627  31.282   4.565
55140W        W23358  19.964  37.104  12.485
55141W        W23359  38.064  40.046   2.906
55142W        W23360  11.678  40.530   4.657
55143W        W23361   7.656  28.568   3.450
55144W        W23362  17.509  31.991  13.829
55145W        W23363   4.155  12.799  12.495
55146W        W23364  13.187  19.804   2.785
55147W        W23365  18.812  25.569   2.134
55148W        W23366   9.850  39.201  14.972
55149W        W23367  25.705   8.242   3.332
55150W        W23368  13.655  33.790  14.418
55151W        W23369  18.115  40.658   4.909
55152W        W23370   8.663  16.035   4.557
55153W        W23371   3.126  26.921   2.387
55154W        W23372  19.310  23.944  13.526
55155W        W23373  11.157  40.306   2.657
55156W        W23374  28.620   4.739  11.510
55157W        W23375  21.723  41.020  11.577
55158W        W23376   3.721   1.242   1.345
55159W        W23377  42.768  39.124  12.448
55160W        W23378   7.338  37.341   2.414
55161W        W23379  22.354   8.795   0.247
55162W        W23380  40.826  37.352  14.912
55163W        W23381  34.172  16.986   1.442
55164W        W23382  26.623  44.063  11.427
55165W        W23383  13.933  42.012   4.624
55166W        W23384   8.305  14.781  10.792
55167W        W23385  41.665  11.113   2.741
55168W        W23386   3.309   8.712  12.811
55169W        W23387  12.678  29.051   4.013
55170W        W23388   2.242  13.606   0.201
55171W        W23389  29.531  36.618   4.088
55172W        W23390  44.069   2.227  11.051
55173W        W23391  43.833  42.811   2.237
55174W        W23392  27.846   0.038   3.170
55175W        W23393  27.282  36.455  12.757
55176W        W23394  22.128  17.836   0.306
55177W        W23395  23.734   2.928  14.872
55178W        W23396  28.585  11.194   4.573
55179W        W23397  24.696  15.796  13.361
55180W        W23398   0.638  35.995   2.811
55181W        W23399  18.082   1.989   4.528
55182W        W23400  10.251  41.708   0.208
55183W        W23401  10.396   5.895   3.689
55184W        W23402  23.538  19.495   3.352
55185W        W23403   3.725  40.697  12.354
55186W        W23404  34.914  24.489  13.773
55187W        W23405  19.530  19.099  10.963
55188W        W23406  36.236  33.558   2.289
55189W        W23407  12.095  43.669  14.987
55190W        W23408  35.517  38.928  13.397
55191W        W23409  22.982   1.543  12.087
55192W        W23410   9.559  22.129   2.255
55193W        W23411  20.767  26.109   0.448
55194W        W23412  27.480  17.377  11.600
55195W        W23413  28.852  27.658  10.793
55196W        W23414  22.100   9.792   4.576
55197W        W23415  25.702  15.657   0.377
55198W        W23416  18.660  37.403   1.891
55199W        W23417  33.999  15.075  12.011
55200W        W23418  35.574  35.669  14.079
55201W        W23419  20.418  13.331  14.819
55202W        W23420  34.583   5.924  11.395
55203W        W23421  11.766  25.961  14.460
55204W        W23422  14.105  32.959   0.457
55205W        W23423  23.781  35.915  12.084
55206W        W23424   7.930   6.628  12.023
55207W        W23425  38.657  11.256  13.048
55208W        W23426  15.755  34.468   4.619
55209W        W23427  19.544  43.347  14.963
55210W        W23428  27.235  20.169   3.849
55211W        W23429  38.433  15.056   2.869
55212W        W23430  29.265   8.368  11.674
55213W        W23431  31.674  13.563  13.360
55214W        W23432  22.137   3.472  13.311
55215W        W23433  28.149  19.298  14.784
55216W        W23434  40.597  13.845  11.637
55217W        W23435   5.703  32.875  14.099
55218W        W23436  28.403  20.581  11.663
55219W        W23437  35.383  37.930  11.653
55220W        W23438   4.013  17.018   4.649
55221W        W23439  40.340  28.303   1.204
55222W        W23440   1.757  39.844  14.994
55223W        W23441   5.735  13.695  13.290
55224W        W23442  19.391  34.671   1.930
55225W        W23443  10.354  15.419  11.970
55226W        W23444  18.914  31.004  13.385
55227W        W23445  14.825  36.471   0.889
55228W        W23446  24.723  34.594  13.903
55229W        W23447  42.699  15.636  13.866
55230W        W23448  39.088  35.959   9.907
55231W        W23449   7.803  40.782  11.211
55232W        W23450  39.577   9.238  13.899
55233W        W23451  21.932  18.715  11.625
55234W        W23452  36.040   4.306   3.560
55235W        W23453   8.174  29.491  11.649
55236W        W23454  37.801  42.238   0.458
55237W        W23455  18.882  33.362  13.056
55238W        W23456  36.928  34.123  11.703
55239W        W23457  18.720   6.837   4.809
55240W        W23458   9.770   3.433  13.661
55241W        W23459   4.686  22.583   2.244
55242W        W23460  12.938   5.175   1.915
55243W        W23461  17.610  20.577  12.415
55244W        W23462  22.744   9.265  11.598
55245W        W23463  32.027  25.746  11.081
55246W        W23464  23.509  34.924   1.461
55247W        W23465  36.118  13.799   3.458
55248W        W23466  20.802  41.349  14.773
55249W        W23467   3.776  21.610   4.446
55250W        W23468  31.998  37.129  13.063
55251W        W23469  21.096  37.357   4.977
55252W        W23470   9.919   7.940   2.274
55253W        W23471  13.238   9.599  11.519
55254W        W23472  14.675  29.912   2.899
55255W        W23473  23.128   3.724  14.991
55256W        W23474   0.955  24.581   1.361
55257W        W23475  24.474  30.951   3.399
55258W        W23476  13.103  30.697  10.567
55259W        W23477  29.594  36.104   3.867
55260W        W23478   9.226  24.136  13.460
55261W        W23479  34.197  22.261  13.117
55262W        W23480  29.177  43.478  11.037
55263W        W23481   5.227  10.088   3.674
55264W        W23482  43.400   4.644   2.738
55265W        W23483  14.186  19.246   4.383
55266W        W23484  35.487   5.514   3.261
55267W        W23485  29.534  38.423   4.951
55268W        W23486  12.899  40.011   3.606
55269W        W23487   8.318  21.909   4.222
55270W        W23488  10.009  28.412   1.892
55271W        W23489   2.999  43.342  14.343
55272W        W23490  35.979   1.760   3.412
55273W        W23491   3.256  34.498   4.477
55274W        W23492   3.961   0.819   0.373
55275W        W23493  28.418  40.892   3.192
55276W        W23494  15.956  15.745  11.847
55277W        W23495  26.533  33.588   0.496
55278W        W23496  17.301  16.797   0.937
55279W        W23497  32.388   0.298  13.506
55280W        W23498  17.535  32.332  13.420
55281W        W23499  44.057  31.909   3.268
55282W        W23500  29.056  23.685  13.908
55283W        W23501  16.446  31.624  11.785
55284W        W23502  20.218  41.019   3.785
55285W        W23503   4.627  23.076   2.818
55286W        W23504  34.854  31.986  13.030
55287W        W23505  20.065  27.096   3.560
55288W        W23506  16.648  44.771  13.983
55289W        W23507  42.889  10.653   0.030
55290W        W23508  39.428   4.543   2.302
55291W        W23509  26.201  36.822  12.096
55292W        W23510  34.130  29.618   3.180
55293W        W23511  13.285  39.565   0.769
55294W        W23512   4.754   9.415   1.701
55295W        W23513  17.601  15.816  12.414
55296W        W23514  10.806   1.767   3.010
55297W        W23515  16.285  37.903   4.885
55298W        W23516   7.491  29.213   4.825
55299W        W23517  10.343  34.707   1.807
55300W        W23518  12.126  12.635  14.082
55301W        W23519  31.096  40.852   2.162
55302W        W23520   9.274  32.737  13.037
55303W        W23521  16.849  16.755   3.267
55304W        W23522  35.441  17.581   4.002
55305W        W23523   0.541   7.180  11.454
55306W        W23524   4.947  24.439  13.875
55307W        W23525  43.491  35.475  11.296
55308W        W23526  15.375  27.739   4.140
55309W        W23527  15.705  17.409   2.375
55310W        W23528  28.022  36.404  10.709
55311W        W23529   8.692   2.000   0.068
55312W        W23530  19.490  34.296  12.016
55313W        W23531   6.664  14.776   4.531
55314W        W23532  39.989  41.520  14.838
55315W        W23533  26.425  33.351   0.060
55316W        W23534  13.470  33.862   2.374
55317W        W23535  30.835  26.050   2.103
55318W        W23536   8.649  26.759   2.161
55319W        W23537  37.024   2.382   2.589
55320W        W23538  42.868  10.220  13.290
55321W        W23539  17.503   0.915  12.885
55322W        W23540  23.238  44.294  13.936
55323W        W23541   6.811  29.190  13.011
55324W        W23542  32.521  17.254   4.293
55325W        W23543  29.166  41.548   1.356
55326W        W23544  25.790  44.678  11.521
55327W        W23545   2.935  16.245   0.922
55328W        W23546   2.957  36.113   2.722
55329W        W23547   9.625  24.170   0.878
55330W        W23548  15.223  15.870  12.465
55331W        W23549  38.958  36.100   4.060
55332W        W23550  11.680  10.700  14.369
55333W        W23551   7.381  27.988   1.801
55334W        W23552  10.667  23.347  14.317
55335W        W23553  11.280   5.758  13.850
55336W        W23554   4.528  18.109   1.739
55337W        W23555  24.183  12.390  14.901
55338W        W23556  41.092   6.900   4.063
55339W        W23557  33.061  43.106   2.896
55340W        W23558   7.315  44.400   1.305
55341W        W23559  21.936  20.573  12.811
55342W        W23560  31.043   7.454  10.775
55343W        W23561  14.289   6.153   3.380
55344W        W23562  38.560   0.049   2.631
55345W        W23563  10.441   0.739   4.196
55346W        W23564   5.234   2.449   3.720
55347W        W23565  12.539  43.950   5.029
55348W        W23566   5.882  31.496  12.845
55349W        W23567  30.103  36.658   0.604
55350W        W23568  39.351   2.984   3.184
55351W        W23569  43.433   8.618  14.513
55352W        W23570  16.952  35.559   5.059
55353W        W23571   0.918  39.976   1.697
55354W        W23572  25.949   8.761  14.012
55355W        W23573   4.489  25.187  12.386
55356W        W23574  15.670  21.519  14.104
55357W        W23575  24.894  26.051  11.818
55358W        W23576   8.102   6.384   0.435
55359W        W23577  14.734  18.089  12.395
55360W        W23578  25.986  21.770   4.478
55361W        W23579  24.027  15.575   5.032
55362W        W23580  21.762  35.969   0.187
55363W        W23581   1.880  15.294  12.002
55364W        W23582  17.029  44.884  12.431
55365W        W23583   4.886   7.756   1.040
55366W        W23584  35.730  38.622  14.364
55367W        W23585  32.141  39.333  11.905
55368W        W23586  20.758  42.704   2.585
55369W        W23587  12.043  20.655  12.921
55370W        W23588   9.181   7.445  12.072
55371W        W23589   5.403   9.352  11.345
55372W        W23590  35.296  24.558   4.683
55373W        W23591   8.123  20.726  12.462
55374W        W23592   8.668  38.935  10.209
55375W        W23593  27.823   3.905   0.440
55376W        W23594  12.153   3.771   0.409
55377W        W23595  25.245  38.585  13.380
55378W        W23596  41.965  14.910   3.223
55379W        W23597  41.983   8.753   4.624
55380W        W23598  30.151  30.598  13.391
55381W        W23599   2.492  37.484  14.529
55382W        W23600   5.846   5.729  11.159
55383W        W23601   9.088  37.512  12.957
55384W        W23602  28.117  32.240   3.520
55385W        W23603   9.225  22.271   2.817
55386W        W23604  10.328  41.917  13.924
55387W        W23605  41.989  30.886   2.755
55388W        W23606  34.343  41.354  12.198
55389W        W23607  15.538  38.782   3.669
55390W        W23608  11.769  33.177  14.853
55391W        W23609   6.175  16.589  14.173
55392W        W23610  16.762   0.206   1.941
55393W        W23611  20.976   3.692   1.472
55394W        W23612   8.696  25.182  10.807
55395W        W23613  22.574  28.201   1.825
55396W        W23614  18.852  21.624  13.441
55397W        W23615  34.920  30.702  14.426
55398W        W23616  44.943  41.530  13.506
55399W        W23617  34.447  20.105   0.314
55400W        W23618  10.101  30.466   3.620
55401W        W23619  39.345  10.355  14.535
55402W        W23620  22.277  15.549  10.492
55403W        W23621  28.679  12.622   1.340
55404W        W23622  19.998  10.562  14.229
55405W        W23623  40.977   1.932  10.741
55406W        W23624  38.407   9.981  10.589
55407W        W23625  18.522  42.979   4.450
55408W        W23626  12.822  20.260   4.521
55409W        W23627   0.761  30.356  11.176
55410W        W23628  14.279   9.756   1.137
55411W        W23629   0.994  42.257   2.149
55412W        W23630  27.949   0.374  11.677
55413W        W23631  12.472   9.893   1.738
55414W        W23632  42.618  43.290   1.367
55415W        W23633  10.532  11.368   1.564
55416W        W23634  42.492  12.953   2.832
55417W        W23635   3.735  36.858  10.486
55418W        W23636   0.451   2.190  12.825
55419W        W23637  42.938  26.122   3.601
55420W        W23638  33.801   3.377  11.769
55421W        W23639  30.854   2.683  12.475
55422W        W23640  26.437  41.013   4.671
55423W        W23641  28.388   9.490  14.891
55424W        W23642  40.776   1.753   5.139
55425W        W23643  35.429  15.614  11.599
55426W        W23644  37.252  13.868  11.418
55427W        W23645  17.311  39.874   3.204
55428W        W23646  17.672  27.112  11.676
55429W        W23647  43.335  12.253   0.931
55430W        W23648  17.270  17.745  10.975
55431W        W23649  12.684  41.969   3.063
55432W        W23650  38.007  41.339   3.294
55433W        W23651  12.351   8.858   3.831
55434W        W23652  29.657  31.332   0.437
55435W        W23653  29.794  33.042  11.040
55436W        W23654   2.388  43.501  13.478
55437W        W23655  21.241  29.099  11.300
55438W        W23656  33.509  26.758   1.180
55439W        W23657  32.795  16.069  11.687
55440W        W23658  25.056  30.642   4.276
55441W        W23659  25.561   6.158   4.373
55442W        W23660  29.157   2.896  12.226
55443W        W23661  24.444  14.282  12.063
55444W        W23662  37.051   5.730   4.824
55445W        W23663   2.828  13.575  12.049
55446W        W23664   4.749  15.824  14.496
55447W        W23665  26.497  40.899   2.426
55448W        W23666   3.014  19.074  12.223
55449W        W23667  42.492  43.253  11.227
55450W        W23668  34.948  29.670  14.382
55451W        W23669  14.826   8.671   2.225
55452W        W23670  10.340   1.919  14.898
55453W        W23671  18.702   5.381   3.958
55454W        W23672  25.475   6.908   2.656
55455W        W23673  25.194  16.816  12.000
55456W        W23674  37.994   9.174  11.505
55457W        W23675  42.489  30.980   1.257
55458W        W23676  19.714  30.619  13.929
55459W        W23677  41.998   9.608   3.767
55460W        W23678   1.343  33.693   4.637
55461W        W23679  26.097   0.001   1.406
55462W        W23680  29.463  20.465  11.649
55463W        W23681  23.575  43.297   1.250
55464W        W23682  17.074  41.974   0.850
55465W        W23683   6.428  23.246   4.249
55466W        W23684  20.390  12.638  14.476
55467W        W23685  17.327  18.319   4.146
55468W        W23686  29.668   9.379   0.971
55469W        W23687  13.894  30.126  13.951
55470W        W23688  11.598  17.115   2.761
55471W        W23689  28.944  10.109   0.890
55472W        W23690   5.706  22.477  11.662
55473W        W23691  15.348   8.168  12.713
55474W        W23692  41.830  11.625  14.020
55475W        W23693  20.679   3.756   1.878
55476W        W23694  25.190  38.343  10.850
55477W        W23695   3.042  35.773  12.064
55478W        W23696  23.595  26.658  10.372
55479W        W23697   4.219  44.122  10.322
55480W        W23698  36.665   1.300   0.750
55481W        W23699  19.997  40.062  13.881
55482W        W23700  25.930  26.736  11.589
55483W        W23701  20.452  25.574  13.859
55484W        W23702  21.915  19.672  13.537
55485W        W23703  24.526  44.894  11.250
55486W        W23704   2.841   6.624  10.900
55487W        W23705  31.677  41.471  12.381
55488W        W23706   7.295   3.496  12.125
55489W        W23707  15.797  34.469   3.237
55490W        W23708  37.233   6.776   0.412
55491W        W23709  33.678  37.484   1.733
55492W        W23710  14.227   6.094  10.601
55493W        W23711   5.422  29.184   3.308
55494W        W23712  41.263   5.873  10.903
55495W        W23713  32.116  13.751  13.154
55496W        W23714  30.510  39.756   1.393
55497W        W23715  22.642  37.304  11.574
55498W        W23716  19.276  14.785   2.884
55499W        W23717  29.737  17.823  10.552
55500W        W23718  37.852   6.309  11.356
55501W        W23719  15.780  18.111  11.042
55502W        W23720  42.844  16.299   4.488
55503W        W23721  40.130  21.832   3.112
55504W        W23722  43.351  15.786  11.131
55505W        W23723  34.420  31.423  11.987
55506W        W23724  33.069  34.671   0.601
55507W        W23725   7.322  25.734  13.401
55508W        W23726  42.735   3.905  12.419
55509W        W23727  14.569   9.446   4.235
55510W        W23728   0.923  15.593   1.320
55511W        W23729  38.813  14.381  10.957
55512W        W23730  20.553  27.238   3.711
55513W        W23731  12.806   1.354   0.357
55514W        W23732  33.880  26.385  10.334
55515W        W23733  25.587  39.277   1.339
55516W        W23734  38.687  36.151   3.602
55517W        W23735  11.757  30.925   3.535
55518W        W23736   8.463  18.045   0.555
55519W        W23737  24.984   4.849   2.444
55520W        W23738   1.432  25.268  14.791
55521W        W23739   1.414  26.080   3.659
55522W        W23740   8.293  33.934  12.519
55523W        W23741   6.096   6.193   3.820
55524W        W23742  26.957   0.901   1.956
55525W        W23743  42.962   7.808  14.585
55526W        W23744  28.341  35.448  11.091
55527W        W23745  18.007   5.884   0.763
55528W        W23746  30.513  38.781  11.890
55529W        W23747  20.014  27.140   4.606
55530W        W23748  13.099  32.355  12.952
55531W        W23749   8.054  34.743  13.817
55532W        W23750   6.281  11.853  14.784
55533W        W23751   6.476   2.660   3.669
55534W        W23752  11.508  13.450   4.537
55535W        W23753  39.081   1.771  12.170
55536W        W23754   1.626  33.697  13.255
55537W        W23755  13.767  11.257  11.861
55538W        W23756   5.463  22.645   2.673
55539W        W23757  36.805   7.762   4.684
55540W        W23758  34.307  43.568  11.688
55541W        W23759  40.322  32.415  12.990
55542W        W23760  31.684  26.803   2.248
55543W        W23761   6.875  28.121  14.926
55544W        W23762  30.535  40.177   0.098
55545W        W23763  20.520  37.888  14.490
55546W        W23764   1.528  31.572   1.317
55547W        W23765  30.933  43.922   0.378
55548W        W23766  21.599  29.422  13.260
55549W        W23767  25.479  20.675   1.375
55550W        W23768   5.809   3.912  14.065
55551W        W23769  41.841   8.868  12.564
55552W        W23770   3.874  36.120  14.363
55553W        W23771  13.246  33.532   0.232
55554W        W23772  22.683   1.366  11.194
55555W        W23773  42.983  41.937   4.247
55556W        W23774  11.352  38.108  11.632
55557W        W23775  16.066  10.767  10.786
55558W        W23776  29.645   4.564  12.208
55559W        W23777  12.771  15.517   3.452
55560W        W23778  41.332   1.368  13.368
55561W        W23779  13.493   8.823  10.805
55562W        W23780  14.265  18.867  11.266
55563W        W23781  33.004  17.809   4.777
55564W        W23782  36.838   1.339   4.303
55565W        W23783  15.044  21.153   0.717
55566W        W23784  32.092  36.646   1.513
55567W        W23785  36.377   4.990   0.770
55568W        W23786  20.105  44.912   0.189
55569W        W23787  41.306  35.371   2.720
55570W        W23788  14.813  26.107   0.423
55571W        W23789  35.841   4.332  10.345
55572W        W23790  42.615  31.059   2.101
55573W        W23791  40.055  10.174   0.990
55574W        W23792   7.154  42.068   0.148
55575W        W23793  22.943  26.090  14.012
55576W        W23794  35.506   7.908   4.527
55577W        W23795  44.925  43.908   1.293
55578W        W23796   0.035   7.281   3.647
55579W        W23797  14.714  20.011   3.135
55580W        W23798   8.161  26.025  13.525
55581W        W23799   1.682  18.150  14.364
55582W        W23800  37.622  36.039   0.761
55583W        W23801  31.866  18.272   2.184
55584W        W23802  12.168  31.848   1.731
55585W        W23803  39.074  15.696  13.503
55586W        W23804  12.268   5.621  12.835
55587W        W23805  13.154   2.064   2.642
55588W        W23806  27.455  14.340  10.697
55589W        W23807  42.098  23.984   3.689
55590W        W23808   6.950  31.022   3.562
55591W        W23809  13.057  29.501   2.399
55592W        W23810  36.102   3.526  12.210
55593W        W23811  43.253  31.631  14.581
55594W        W23812  15.700  26.487   4.575
55595W        W23813  20.294  25.781  14.766
55596W        W23814  19.708  11.117   4.208
55597W        W23815  36.495  20.310  12.588
55598W        W23816  40.869  24.962   3.787
55599W        W23817   9.644  44.294  14.883
55600W        W23818  17.296  40.978   3.866
55601W        W23819   9.633  25.054   3.221
55602W        W23820  35.652  28.237   0.409
55603W        W23821  30.037  20.770   4.338
55604W        W23822   9.425   9.700   4.470
55605W        W23823  27.759   4.499  11.542
55606W        W23824  26.077  43.766   3.212
55607W        W23825   2.539  43.359   3.393
55608W        W23826  34.451  36.219  14.451
55609W        W23827  31.876  16.266  14.823
55610W        W23828  27.593  14.479   4.478
55611W        W23829   6.651  12.167  10.787
55612W        W23830  29.075   9.055   4.061
55613W        W23831  12.655  20.691   2.769
55614W        W23832  28.101  31.014  11.398
55615W        W23833  44.795  41.958   1.935
55616W        W23834  27.611  21.658   0.997
55617W        W23835   8.479  16.659  10.768
55618W        W23836  11.677   2.667  11.414
55619W        W23837  10.939  14.077  14.153
55620W        W23838   6.322   2.151  10.683
55621W        W23839   5.694   6.779   2.352
55622W        W23840  32.502  41.005   0.329
55623W        W23841   0.775  35.961  13.391
55624W        W23842  31.972  10.432   1.395
55625W        W23843  14.178   1.900  12.053
55626W        W23844  44.893  42.451  10.820
55627W        W23845   9.730   8.814  11.560
55628W        W23846  20.722  32.497  14.966
55629W        W23847  29.146   5.335  10.947
55630W        W23848  32.994  25.500   2.286
55631W        W23849  32.852  41.435   1.391
55632W        W23850  12.279  36.296  12.022
55633W        W23851  25.149  13.897  10.263
55634W        W23852  44.854  26.180   0.123
55635W        W23853  27.408  32.338   3.277
55636W        W23854   8.239  42.941  11.454
55637W        W23855  11.948  19.812  11.059
55638W        W23856   5.176  15.264  10.623
55639W        W23857   3.731  30.135   4.520
55640W        W23858  36.617  35.535  14.937
55641W        W23859  10.729  25.473   3.771
55642W        W23860  33.002  30.572  12.828
55643W        W23861  17.751   8.298  10.642
55644W        W23862  25.452   4.806  10.951
55645W        W23863   1.378  31.648   0.784
55646W        W23864  43.506  41.343  10.698
55647W        W23865  20.698  43.385   3.921
55648W        W23866  11.399  29.599  12.593
55649W        W23867  32.171  16.799   1.780
55650W        W23868  39.869   0.877  11.510
55651W        W23869  31.208   1.895   2.929
55652W        W23870  20.277   4.680   2.596
55653W        W23871  22.198  31.132   3.522
55654W        W23872   9.339  34.220   4.072
55655W        W23873  24.720  44.288   5.059
55656W        W23874  26.705  31.835   3.809
55657W        W23875  38.386   4.825   4.198
55658W        W23876  27.930  31.414   1.226
55659W        W23877  14.344   6.635   3.683
55660W        W23878  37.786  31.359   2.919
55661W        W23879  17.286   0.472   3.281
55662W        W23880  39.507  24.062  10.623
55663W        W23881  34.057  33.270   3.809
55664W        W23882  37.123   4.658  11.112
55665W        W23883  20.753  39.723  14.446
55666W        W23884  27.982  27.560  14.372
55667W        W23885  38.383  38.606  10.408
55668W        W23886  41.355  34.950   1.970
55669W        W23887  44.335  10.202  13.756
55670W        W23888  24.563  33.400   0.753
55671W        W23889  11.198  21.468  11.010
55672W        W23890  30.043  43.472   3.197
55673W        W23891  25.337  22.019  13.437
55674W        W23892  36.394  40.621  12.131
55675W        W23893   6.820   4.914  14.944
55676W        W23894  13.590  25.067  10.670
55677W        W23895  33.398   2.113   3.050
55678W        W23896  33.095  34.960   1.023
55679W        W23897  41.336  34.267   2.765
55680W        W23898  22.046  26.514   4.339
55681W        W23899  36.119  42.445   4.596
55682W        W23900  11.851  11.413  14.900
55683W        W23901   7.443  34.407  14.451
55684W        W23902  17.721  10.983  14.517
55685W        W23903  18.768  16.829   0.876
55686W        W23904  30.081  31.334   1.764
55687W        W23905  11.327   1.193   3.405
55688W        W23906  14.840  11.211   3.543
55689W        W23907  30.721  35.572   4.081
55690W        W23908  39.147  43.054   0.830
55691W        W23909  31.867  41.491   4.078
55692W        W23910   5.184   4.362  13.045
55693W        W23911  21.147  26.604   1.349
55694W        W23912  37.836  30.876   1.918
55695W        W23913  35.305   0.358   4.861
55696W        W23914  11.176  38.338  11.108
55697W        W23915  37.079   0.994   0.791
55698W        W23916   8.237  36.173   1.484
55699W        W23917  25.480  38.177   0.292
55700W        W23918  40.822  19.545  10.357
55701W        W23919  30.680  22.720   4.424
55702W        W23920  20.225  34.574  12.024
55703W        W23921  43.915  30.881  10.555
55704W        W23922  34.026  30.960   1.199
55705W        W23923  37.134   1.931   1.130
55706W        W23924  21.964  42.106   3.726
55707W        W23925   7.103   7.165   4.433
55708W        W23926  12.143  38.701  11.399
55709W        W23927  42.796  31.615   2.842
55710W        W23928  33.008  32.510   1.698
55711W        W23929  10.625  30.891  12.848
55712W        W23930  29.080   2.839   1.915
55713W        W23931  36.051  33.740   1.276
55714W        W23932  19.260   4.268   2.105
55715W        W23933  25.922  18.762  14.825
55716W        W23934  38.914  34.639   0.627
55717W        W23935  29.070  21.913  11.510
55718W        W23936  15.704  14.385  10.874
55719W        W23937  44.205  13.849   4.472
55720W        W23938  29.385   3.828   2.769
55721W        W23939  12.751   7.482   4.875
55722W        W23940  25.244   5.155  12.114
55723W        W23941  29.543  23.295  14.277
55724W        W23942   6.246   3.889  14.372
55725W        W23943   1.399  44.165   2.319
55726W        W23944  14.048   0.835   0.475
55727W        W23945  21.091   1.822  10.605
55728W        W23946  43.817  34.103  11.868
55729W        W23947  44.559  15.638   4.563
55730W        W23948   4.951  27.923  13.422
55731W        W23949  39.888  43.536  10.674
55732W        W23950   4.311  36.078   3.891
55733W        W23951   8.600   5.646  11.047
55734W        W23952  32.497  36.386   1.264
55735W        W23953  14.321   6.673  10.566
55736W        W23954  43.864  30.650  11.019
55737W        W23955   4.748  12.202  10.678
55738W        W23956  25.767  37.879   4.395
55739W        W23957   7.232   5.273  11.891
55740W        W23958  24.516  25.687  10.180
55741W        W23959  39.132  20.100  13.356
55742W        W23960  12.709   8.423  12.916
55743W        W23961  39.544  16.040   0.489
55744W        W23962  22.123  42.253   4.610
55745W        W23963  16.317  39.356  10.581
55746W        W23964  19.369  26.691  10.721
55747W        W23965  25.119  30.504  14.258
55748W        W23966   0.717  15.300   4.282
55749W        W23967  15.928  12.880   4.912
55750W        W23968  24.772   5.197   3.636
55751W        W23969  20.492   7.252  10.689
55752W        W23970  25.534  15.353   4.211
55753W        W23971  27.773  40.464  12.848
55754W        W23972  12.369  12.044  12.672
55755W        W23973  32.447  26.950   1.273
55756W        W23974  13.748  15.229  10.624
55757W        W23975  41.442  24.195  12.156
55758W        W23976  10.664  30.090  11.036
55759W        W23977  23.162   4.497  14.270
55760W        W23978  17.150   1.998  10.675
55761W        W23979  40.320  10.746  14.500
55762W        W23980  27.939  34.084   1.469
55763W        W23981  16.943  15.217  10.369
55764W        W23982  27.894  33.598   1.257
55765W        W23983  12.556  44.965   1.774
55766W        W23984   1.517  30.152  10.796
55767W        W23985  10.436  10.297   1.151
55768W        W23986  22.935   7.783   2.709
55769W        W23987   4.393   2.092   4.148
55770W        W23988   3.814  43.809   3.758
55771W        W23989  30.898  17.762   2.125
55772W        W23990  19.029  35.641  11.185
55773W        W23991  32.690  22.639   0.796
55774W        W23992  12.905  43.733  12.943
55775W        W23993   4.454  44.497   1.782
55776W        W23994  28.027  29.893  13.939
55777W        W23995   2.242   1.270   4.646
55778W        W23996  29.889   2.939  14.423
55779W        W23997  11.161  38.775  14.378
55780W        W23998  34.534  11.599   2.408
55781W        W23999  44.510  35.315   3.671
55782W        W24000  18.102  38.142  10.823
55783W        W24001  40.805  11.869   0.783
55784W        W24002  11.545  17.923   3.800
55785W        W24003  34.042  11.287  12.162
55786W        W24004  41.807  35.887  11.730
55787W        W24005  30.920  26.513  11.685
55788W        W24006  14.363  21.576   0.892
55789W        W24007   8.546   9.536   0.894
55790W        W24008  10.837  40.735  11.539
55791W        W24009  32.549  44.494  13.936
55792W        W24010  31.610  21.011  10.598
55793W        W24011  13.000   0.257   1.368
55794W        W24012  19.555  42.353  14.820
55795W        W24013  19.221  12.620   5.027
55796W        W24014  35.840  10.180   2.730
55797W        W24015  31.487   2.583  10.334
55798W        W24016  35.689  25.375   0.846
55799W        W24017  15.991  33.990  14.350
55800W        W24018   3.801  24.220   0.074
55801W        W24019  36.894   0.634  13.453
55802W        W24020  39.776  41.372  13.625
55803W        W24021  20.813  40.792   1.112
55804W        W24022  31.059  44.767  11.924
55805W        W24023   0.969  20.243   0.874
55806W        W24024  42.845  36.262  11.106
55807W        W24025   6.686  14.531   2.223
55808W        W24026  19.798  14.832  12.894
55809W        W24027  13.638  12.902  14.397
55810W        W24028  20.907  43.310   3.450
55811W        W24029  41.356  21.839   1.797
55812W        W24030  44.274  18.531  12.942
55813W        W24031   5.154  11.264  14.282
55814W        W24032  33.237  23.571  14.004
55815W        W24033  19.816  25.107   3.380
55816W        W24034   6.123  22.917   4.833
55817W        W24035  15.824  34.657   1.345
55818W        W24036  20.737  41.333  13.771
55819W        W24037  20.718  39.898   1.403
55820W        W24038  39.106  12.936   3.228
55821W        W24039  10.250  26.990   4.504
55822W        W24040   5.370  12.448  11.714
55823W        W24041   7.668  42.944   1.295
55824W        W24042  36.452  20.093  13.065
55825W        W24043  21.882  38.318   0.398
55826W        W24044  24.276   5.382   3.740
55827W        W24045  19.764  39.945   1.470
55828W        W24046  20.704  13.711   0.012
55829W        W24047   0.681   9.214  11.121
55830W        W24048  11.501  22.514  14.713
55831W        W24049  25.419  16.593  14.286
55832W        W24050  17.727  29.857  10.521
55833W        W24051  29.039   2.506  14.462
55834W        W24052  19.022  41.828  12.787
55835W        W24053  24.174   7.053   2.046
55836W        W24054  38.564  11.796   4.090
55837W        W24055   9.217  12.179  10.715
55838W        W24056  38.813  36.345   1.664
55839W        W24057   5.894  43.089  10.220
55840W        W24058  39.642  31.493   2.848
55841W        W24059  15.344  33.061  12.103
55842W        W24060   8.931  20.254   0.345
55843W        W24061  43.489  15.403  14.070
55844W        W24062  32.649  21.759  12.289
55845W        W24063  37.942   7.668  12.196
55846W        W24064  14.841   6.379   1.455
55847W        W24065  17.594  43.421   4.925
55848W        W24066  21.925   9.263   0.556
55849W        W24067  38.123  43.968   0.763
55850W        W24068  40.340  12.258  11.025
55851W        W24069  39.006  30.665  13.440
55852W        W24070   8.455  27.464   0.497
55853W        W24071  40.909  20.063   0.921
55854W        W24072   7.687  29.852   4.136
55855W        W24073  11.904  28.919  14.683
55856W        W24074  37.052  12.160   2.395
55857W        W24075  28.604  43.099   0.472
55858W        W24076   7.389   6.265   1.633
55859W        W24077  26.947  17.077   2.732
55860W        W24078  40.181   6.648   2.013
55861W        W24079  28.566   1.319  12.016
55862W        W24080  16.346   4.409  11.704
55863W        W24081  25.026  19.746   1.301
55864W        W24082  10.117  14.964  12.084
55865W        W24083  33.568  23.172   4.069
55866W        W24084  10.114  32.392   4.900
55867W        W24085  39.309   8.793  13.892
55868W        W24086  43.206  26.908   3.307
55869W        W24087  41.341   2.934  11.571
55870W        W24088  40.092  26.602  12.177
55871W        W24089  23.932  25.141  11.213
55872W        W24090  26.509  19.670  11.238
55873W        W24091   7.189  14.832  11.531
55874W        W24092   6.461  25.710  13.540
55875W        W24093  44.971  26.063  12.972
55876W        W24094  38.666   1.483   2.969
55877W        W24095   5.245   9.761  14.436
55878W        W24096  30.246  10.433  12.605
55879W        W24097  31.428  33.867   4.366
55880W        W24098  33.604  14.384   3.464
55881W        W24099   7.403  35.411  12.410
55882W        W24100   6.591  30.070   2.809
55883W        W24101  11.381  24.195   0.424
55884W        W24102   0.335  27.078   3.765
55885W        W24103   0.140  40.250  14.388
55886W        W24104   3.393   9.368   1.683
55887W        W24105  17.154   1.242  11.152
55888W        W24106   9.338  21.063   3.438
55889W        W24107  18.880  27.751  13.127
55890W        W24108  42.941  25.901   4.104
55891W        W24109  25.120   9.741  13.352
55892W        W24110   3.964  34.112   4.703
55893W        W24111   4.012  40.366   4.828
55894W        W24112  19.034  21.952  11.118
55895W        W24113  22.234  43.782  14.914
55896W        W24114   4.477  32.873   1.752
55897W        W24115   7.835  41.908   3.790
55898W        W24116  19.518  15.994   0.072
55899W        W24117  31.567  43.376  12.522
55900W        W24118  10.375   5.423   2.244
55901W        W24119  37.797   6.198   4.163
55902W        W24120   1.466  26.263  12.504
55903W        W24121  42.755  41.449  12.837
55904W        W24122  43.473  16.066  11.545
55905W        W24123  10.360  20.786   1.417
55906W        W24124   4.974   4.812  14.280
55907W        W24125   3.940  26.926  12.779
55908W        W24126  40.528  43.755  11.524
55909W        W24127  31.206  43.766   3.019
55910W        W24128   1.760  15.305   1.232
55911W        W24129  12.624  36.437   3.143
55912W        W24130   4.391  13.356   3.317
55913W        W24131   6.076  41.558   2.843
55914W        W24132  25.531  11.131   0.949
55915W        W24133  13.800   6.867  11.916
55916W        W24134   6.614  39.905   5.117
55917W        W24135   7.934  38.327   0.959
55918W        W24136  26.026  12.562   1.645
55919W        W24137  24.638  41.642   2.257
55920W        W24138  17.085  43.528  13.913
55921W        W24139  29.421  15.605  14.254
55922W        W24140   1.918  17.644   2.772
55923W        W24141  16.092   8.706  12.917
55924W        W24142  37.898   9.157  13.031
55925W        W24143  25.772   6.198  10.060
55926W        W24144   9.941   5.374  14.899
55927W        W24145  18.204  23.652   1.213
55928W        W24146  41.835  42.051   4.804
55929W        W24147  10.130  25.164   4.403
55930W        W24148  18.982  43.297   3.122
55931W        W24149   3.457   6.967  12.885
55932W        W24150   4.406  15.868   3.813
55933W        W24151  33.466  27.192   1.809
55934W        W24152  30.499  20.572  13.413
55935W        W24153  39.108  15.200  13.260
55936W        W24154   0.057  10.919  13.534
55937W        W24155  44.404  37.852  12.402
55938W        W24156   4.418   2.058   1.025
55939W        W24157  34.100  13.578  12.974
55940W        W24158  22.562  12.296   0.522
55941W        W24159  14.331  24.614   0.843
55942W        W24160  21.534  35.964   0.663
55943W        W24161  25.476  38.990   2.438
55944W        W24162  21.455  35.994  11.106
55945W        W24163  10.347  30.447  12.947
55946W        W24164   2.979  19.851   1.769
55947W        W24165  26.657  21.639   2.201
55948W        W24166  30.150  31.541   0.530
55949W        W24167  38.778  28.973   4.574
55950W        W24168  40.354  19.239  14.774
55951W        W24169   6.224  19.013   2.720
55952W        W24170   1.762   3.926   2.330
55953W        W24171   8.941  20.285  14.820
55954W        W24172  24.204   1.808   0.608
55955W        W24173   2.717  44.294  12.165
55956W        W24174  21.332  26.111   1.319
55957W        W24175  24.077  40.825  12.839
55958W        W24176  26.631  13.482   0.215
55959W        W24177  22.087   9.896   3.218
55960W        W24178  40.230  40.052  14.871
55961W        W24179   0.370  22.015  12.148
55962W        W24180   8.262   4.428   4.783
55963W        W24181  10.644  22.656   0.888
55964W        W24182  31.213  25.907  14.414
55965W        W24183   7.744  36.053  13.926
55966W        W24184   6.504  18.842  13.470
55967W        W24185  16.536  39.493  13.365
55968W        W24186   3.399  42.094   2.478
55969W        W24187  44.291  31.497  12.419
55970W        W24188   7.853  25.486   1.917
55971W        W24189  34.038  39.460  12.113
55972W        W24190  38.747  18.330  10.769
55973W        W24191   6.287   9.145   9.851
55974W        W24192   2.839  34.492  12.479
55975W        W24193  44.975  30.036  11.549
55976W        W24194  11.149  18.697  10.651
55977W        W24195  24.664  26.495   4.554
55978W        W24196  22.317   7.158  12.927
55979W        W24197  25.290   3.520  13.432
55980W        W24198  27.033   8.895   2.213
55981W        W24199  29.442  40.933   3.196
55982W        W24200  32.986  44.224  13.838
55983W        W24201   9.882   4.940   1.729
55984W        W24202  39.995  37.823   0.903
55985W        W24203  21.972   9.660  10.934
55986W        W24204  39.886  24.950   4.626
55987W        W24205  11.809  41.008   1.404
55988W        W24206  19.687  41.344   4.538
55989W        W24207  14.848  14.725  12.386
55990W        W24208  42.058  21.139   4.628
55991W        W24209  28.000  25.390   0.204
55992W        W24210  43.228   6.151  12.053
55993W        W24211  29.829   2.923  11.143
55994W        W24212  39.082  29.557   5.257
55995W        W24213  11.704  15.268   0.685
55996W        W24214  35.040  44.441   2.665
55997W        W24215  35.894  44.718  13.415
55998W        W24216  23.975  28.451  12.173
55999W        W24217  16.558  12.599   1.754
56000W        W24218  19.540   5.272  13.978
56001W        W24219  20.692  42.856   3.845
56002W        W24220   9.424  44.481  14.448
56003W        W24221   5.920  35.458   3.409
56004W        W24222   3.846  26.071  12.550
56005W        W24223  25.817   6.932   0.384
56006W        W24224  42.322  20.789  11.670
56007W        W24225  17.152   0.764   4.985
56008W        W24226  38.346  41.426   0.477
56009W        W24227  37.979  29.588   2.400
56010W        W24228   7.366  12.152   2.435
56011W        W24229  44.917  31.476  12.425
56012W        W24230  28.441  42.628   4.370
56013W        W24231  43.794  26.477  10.799
56014W        W24232  21.981  28.091  11.216
56015W        W24233  44.383  19.056   3.894
56016W        W24234  22.743  33.421   1.724
56017W        W24235  11.124  15.199  11.032
56018W        W24236  18.616  12.813  11.858
56019W        W24237  38.863   6.852   2.335
56020W        W24238   9.672  42.287  12.556
56021W        W24239  11.102  20.044   3.820
56022W        W24240  43.793  28.896   4.045
56023W        W24241  35.451  15.153  12.442
56024W        W24242   7.303  17.692  13.289
56025W        W24243  25.245  13.819  11.983
56026W        W24244  24.543  23.825  12.004
56027W        W24245  11.518  10.738  10.637
56028W        W24246  18.859  38.113   1.233
56029W        W24247  42.019  28.342  12.517
56030W        W24248  17.051  23.733   3.120
56031W        W24249  41.600  24.733   0.970
56032W        W24250  10.840   6.875   1.820
56033W        W24251  38.395   4.686  14.793
56034W        W24252  43.564   2.235   2.767
56035W        W24253   8.399   3.809  14.440
56036W        W24254  18.184  15.296  12.938
56037W        W24255  14.434   5.498   1.729
56038W        W24256   6.269  16.525  12.087
56039W        W24257  10.844  10.745  11.352
56040W        W24258   4.390   4.363  11.587
56041W        W24259  36.089  21.022  11.060
56042W        W24260  27.162  23.885   3.150
56043W        W24261  11.167   9.227   4.067
56044W        W24262  17.294  19.629  13.564
56045W        W24263  11.584  23.615  14.026
56046W        W24264  12.857  15.229  14.380
56047W        W24265  14.455  16.951   3.274
56048W        W24266  35.199  21.210  14.299
56049W        W24267  43.100  39.238   1.335
56050W        W24268  41.865  43.335  10.562
56051W        W24269  22.526   0.055   1.896
56052W        W24270  41.313  13.688   4.358
56053W        W24271  24.513   1.006   0.562
56054W        W24272   9.650  32.467   1.315
56055W        W24273  29.668  37.792  10.711
56056W        W24274  19.396   2.480  14.231
56057W        W24275   8.185  42.502  14.891
56058W        W24276   1.812  28.334  12.558
56059W        W24277  44.254  35.067  12.033
56060W        W24278  35.619  16.537   0.372
56061W        W24279  32.253  11.415  12.630
56062W        W24280  20.506  33.472   2.215
56063W        W24281  41.660  20.197   4.483
56064W        W24282  32.820  25.545   0.639
56065W        W24283  39.205  26.605   2.430
56066W        W24284  39.820   9.639   2.184
56067W        W24285  30.443  32.115  14.404
56068W        W24286  16.703  19.449  12.949
56069W        W24287  37.918  35.405  10.527
56070W        W24288  34.389  42.304  11.947
56071W        W24289  39.540  29.476  13.865
56072W        W24290  39.671  15.048   4.175
56073W        W24291  21.235  11.476   3.466
56074W        W24292  13.573   8.845  14.664
56075W        W24293  20.120   4.925   0.548
56076W        W24294   1.546  17.796   3.132
56077W        W24295  26.363  17.949   9.689
56078W        W24296  10.750  26.661  14.677
56079W        W24297  24.442   4.776  14.080
56080W        W24298  14.085  14.873  11.777
56081W        W24299  29.896  38.826   2.873
56082W        W24300  39.371  32.088  13.141
56083W        W24301   7.644  15.054  11.307
56084W        W24302   7.840  11.792  14.346
56085W        W24303  13.834   3.649  12.613
56086W        W24304  41.864   4.866   1.215
56087W        W24305  43.047  36.119   2.306
56088W        W24306  31.233  40.789   3.082
56089W        W24307  25.744  18.256  13.996
56090W        W24308  23.124  26.050   3.668
56091W        W24309  15.565  44.907  14.488
56092W        W24310  36.527  19.166   4.647
56093W        W24311  11.283  33.676  11.654
56094W        W24312  18.884  12.729   4.612
56095W        W24313  19.644  25.952   0.735
56096W        W24314  17.276  33.130   0.358
56097W        W24315  17.570  24.944   4.237
56098W        W24316  39.827  33.755   0.856
56099W        W24317   1.328   5.716  11.926
56100W        W24318  24.193  24.120  14.966
56101W        W24319  38.417  39.599   1.401
56102W        W24320  24.985  33.033  14.906
56103W        W24321   7.260   6.241  14.759
56104W        W24322   2.036  41.349  11.679
56105W        W24323  21.267  41.340  13.943
56106W        W24324  34.393  33.587   0.449
56107W        W24325  10.947  28.399   2.353
56108W        W24326   3.672  22.378   2.117
56109W        W24327  39.421  19.592  12.202
56110W        W24328   0.176  20.790  12.894
56111W        W24329  17.581  16.556   4.680
56112W        W24330  44.397  44.026   0.388
56113W        W24331  42.842   6.935  13.228
56114W        W24332  20.996   1.246  13.789
56115W        W24333  26.061  30.358   2.226
56116W        W24334   8.062  17.600  10.898
56117W        W24335  12.679  35.524  13.517
56118W        W24336  37.935  17.222  12.568
56119W        W24337   7.024  10.563  11.683
56120W        W24338  33.602  22.591   0.780
56121W        W24339  41.916  31.421   1.872
56122W        W24340  10.848  30.368  10.634
56123W        W24341  33.110  31.880   4.741
56124W        W24342  10.664  14.054   4.709
56125W        W24343  12.039  22.209  12.472
56126W        W24344  36.561  10.478  12.459
56127W        W24345  18.674  39.596   1.179
56128W        W24346  39.449  25.431   3.310
56129W        W24347  34.672   2.136  13.062
56130W        W24348   0.891   5.989  13.555
56131W        W24349   9.601  24.424   0.414
56132W        W24350  36.379  21.451  14.824
56133W        W24351   5.287   7.269  12.449
56134W        W24352  40.561  33.023  13.842
56135W        W24353  38.418  41.916  11.556
56136W        W24354  42.488   5.790  14.583
56137W        W24355  10.136  41.932   4.082
56138W        W24356  30.113  15.290   2.867
56139W        W24357  26.839  19.557   1.130
56140W        W24358  39.979  13.811   3.624
56141W        W24359  13.723  32.648   0.309
56142W        W24360  30.172  18.116   0.931
56143W        W24361   1.883  11.103  11.985
56144W        W24362  13.922  24.457  12.534
56145W        W24363  33.159  41.565  10.867
56146W        W24364  10.252   6.955   2.674
56147W        W24365  26.564  21.170  11.138
56148W        W24366   2.811  44.348   4.688
56149W        W24367  41.762   2.009   5.094
56150W        W24368   6.091   8.476   5.150
56151W        W24369  14.202  42.842  11.166
56152W        W24370  14.353   3.391   3.248
56153W        W24371  10.068  10.885  11.122
56154W        W24372  17.617   7.329   3.594
56155W        W24373  44.599   6.969   4.608
56156W        W24374  17.950  23.272   0.349
56157W        W24375  37.179   4.297   2.412
56158W        W24376  39.863  37.943   3.807
56159W        W24377   7.503  38.069  14.557
56160W        W24378   4.156  42.369   2.340
56161W        W24379   0.364  18.943  12.924
56162W        W24380  32.539  13.114   0.997
56163W        W24381  32.561  41.470  11.567
56164W        W24382  33.083  36.960   2.650
56165W        W24383  14.277  32.600   2.223
56166W        W24384  20.412  28.021  12.033
56167W        W24385   1.330   2.558   4.133
56168W        W24386  37.624   7.480  13.622
56169W        W24387   4.212  21.500  12.944
56170W        W24388  27.526  32.410  14.175
56171W        W24389  27.490  10.695   1.561
56172W        W24390  42.987  17.484  12.345
56173W        W24391  35.210  10.584  13.409
56174W        W24392  11.766   7.840   0.864
56175W        W24393  32.675  21.260  11.358
56176W        W24394  21.795  36.118  13.808
56177W        W24395  10.681   7.316   2.628
56178W        W24396  11.227  10.191   4.585
56179W        W24397   1.457  35.654   4.861
56180W        W24398  12.497  19.233   1.598
56181W        W24399  10.928  34.065   2.913
56182W        W24400   1.753  39.933  11.538
56183W        W24401  30.932   0.172   1.336
56184W        W24402  21.276  17.602  13.274
56185W        W24403  17.575   4.998  12.197
56186W        W24404  44.352  37.561  13.468
56187W        W24405  13.163  26.191  12.600
56188W        W24406  18.619  18.383  10.328
56189W        W24407   3.936  12.286  11.182
56190W        W24408  21.188  42.390   2.567
56191W        W24409   7.356  20.876   1.752
56192W        W24410   1.414  29.103   0.920
56193W        W24411   6.423  38.617  13.384
56194W        W24412  32.725  10.742  13.728
56195W        W24413  24.124  36.129   2.777
56196W        W24414  10.915  26.748  13.317
56197W        W24415  11.887  42.285  13.309
56198W        W24416   7.260  22.012   2.548
56199W        W24417  27.020  39.750   1.773
56200W        W24418  33.892  29.731   5.008
56201W        W24419   1.992   7.357   4.575
56202W        W24420  43.588  15.780   4.534
56203W        W24421  43.053  28.778  10.264
56204W        W24422  25.517  19.910   3.207
56205W        W24423   8.516  24.552   1.180
56206W        W24424  21.156  36.452   3.826
56207W        W24425  26.190  28.155  14.471
56208W        W24426   5.261  11.754   2.392
56209W        W24427   7.948  15.689  11.397
56210W        W24428   1.002  17.256   4.638
56211W        W24429   8.026   4.407   3.260
56212W        W24430  33.916  15.760   1.663
56213W        W24431  12.791   0.732  12.132
56214W        W24432  38.257  38.340   3.734
56215W        W24433  31.083  22.275   0.721
56216W        W24434  24.964  32.075  13.951
56217W        W24435   7.636  20.691   3.830
56218W        W24436  26.413  10.332  12.383
56219W        W24437  34.585  22.483  14.490
56220W        W24438  42.041  40.379  14.866
56221W        W24439   9.404   1.815   1.791
56222W        W24440  22.458  39.655  14.969
56223W        W24441  24.206  10.841  10.888
56224W        W24442  21.524  17.685  10.696
56225W        W24443  37.023  40.458  11.481
56226W        W24444  32.020  17.688   3.611
56227W        W24445  34.817  33.863   0.277
56228W        W24446  40.487  37.742   0.045
56229W        W24447   7.078  36.393   4.205
56230W        W24448   6.716   2.060   4.853
56231W        W24449   1.520   7.976   4.161
56232W        W24450   7.200  32.044  13.902
56233W        W24451  21.380  38.785   4.685
56234W        W24452  14.792  28.610   0.793
56235W        W24453  33.308   5.484  10.181
56236W        W24454  31.629  29.916  12.062
56237W        W24455   9.365  30.679   1.752
56238W        W24456   5.875  16.321   0.872
56239W        W24457  21.194  11.545  14.531
56240W        W24458  18.433   7.765  14.197
56241W        W24459   5.147  31.795  13.551
56242W        W24460  14.713  26.067  14.483
56243W        W24461  37.541  23.675  12.129
56244W        W24462   2.488  29.880   3.754
56245W        W24463   5.366  15.312  13.251
56246W        W24464   7.608  42.869  14.281
56247W        W24465  26.509  25.563   1.807
56248W        W24466  28.595  22.343   1.328
56249W        W24467  27.731   4.629   3.698
56250W        W24468   1.341  36.933  14.995
56251W        W24469   6.316   8.756  10.602
56252W        W24470  43.546  43.231   4.716
56253W        W24471  38.862  18.277   1.882
56254W        W24472  21.546  31.605   3.632
56255W        W24473  14.722  43.213   4.678
56256W        W24474  12.602  18.145  11.668
56257W        W24475  16.253  14.642  14.552
56258W        W24476  34.715  11.287   0.957
56259W        W24477  33.753  27.583  14.012
56260W        W24478  40.783  16.638   4.228
56261W        W24479  10.883  31.087   1.482
56262W        W24480  21.311   2.205   0.203
56263W        W24481  21.277   5.000   3.755
56264W        W24482  19.032  25.298   1.753
56265W        W24483  33.387   2.254  11.201
56266W        W24484  20.059   6.262   1.360
56267W        W24485  15.774  37.706  14.870
56268W        W24486  17.054  29.747   0.192
56269W        W24487  22.148  34.346   1.386
56270W        W24488  42.200  40.536   2.132
56271W        W24489  36.681   3.364   4.545
56272W        W24490   0.407  44.769   2.780
56273W        W24491  18.580   5.803   4.516
56274W        W24492   6.728  44.092   3.794
56275W        W24493  31.012   2.468  13.937
56276W        W24494  30.584  36.006   3.875
56277W        W24495  15.814  28.849  13.760
56278W        W24496  19.415  29.708   0.389
56279W        W24497   6.499  20.150   4.874
56280W        W24498   0.397  31.876   2.889
56281W        W24499  18.236  37.503  13.936
56282W        W24500  15.535  23.452   2.261
56283W        W24501  35.943  34.466  14.552
56284W        W24502  19.110  33.927  14.531
56285W        W24503  43.759  28.502  13.427
56286W        W24504  39.391   1.864   2.845
56287W        W24505  14.688  28.206   3.735
56288W        W24506   3.636  20.128  13.607
56289W        W24507   7.918  35.420  11.507
56290W        W24508   4.230  18.100   0.858
56291W        W24509  41.627  30.712   0.430
56292W        W24510  32.680   4.238   2.874
56293W        W24511  17.053  24.720   1.821
56294W        W24512  14.817   5.929  13.302
56295W        W24513  22.093   1.198  12.400
56296W        W24514  37.669  42.985   0.754
56297W        W24515  26.118   3.314   0.847
56298W        W24516  13.574  28.684   0.301
56299W        W24517  30.702   2.490   3.665
56300W        W24518  23.426   1.660   0.936
56301W        W24519  38.048  28.756   0.247
56302W        W24520   2.272  27.628  12.912
56303W        W24521  15.190  38.433  14.953
56304W        W24522   6.399  27.502   3.264
56305W        W24523   2.642  13.902  11.207
56306W        W24524   6.381  12.929   5.080
56307W        W24525  18.371  34.670  14.357
56308W        W24526  10.401  42.749  10.998
56309W        W24527  18.633  26.849   5.009
56310W        W24528  10.129  23.513   0.038
56311W        W24529  27.556  25.600  14.013
56312W        W24530   1.496  36.515  13.137
56313W        W24531  33.456  13.748   4.882
56314W        W24532  44.814  13.025   2.373
56315W        W24533  42.072  17.629  12.063
56316W        W24534  18.534   0.852  13.041
56317W        W24535  35.470  22.952   0.440
56318W        W24536   4.958  31.369  13.792
56319W        W24537  17.676   2.428  13.858
56320W        W24538   3.879  41.759  13.405
56321W        W24539   4.243  18.302  11.452
56322W        W24540  21.237  17.332   1.636
56323W        W24541   5.186  34.526  11.771
56324W        W24542   7.406  29.442  12.410
56325W        W24543  37.111  41.796   2.931
56326W        W24544  40.445  36.296   3.347
56327W        W24545   3.374  40.546  12.013
56328W        W24546   0.414  41.127  13.886
56329W        W24547  16.064   5.922  14.556
56330W        W24548  18.599  40.407   0.889
56331W        W24549  35.122  41.491   3.213
56332W        W24550  38.723   6.005   3.338
56333W        W24551   9.865   7.416   2.242
56334W        W24552   3.655  37.886  13.963
56335W        W24553  29.108  40.761   1.916
56336W        W24554   7.409  32.958  11.207
56337W        W24555  30.455   9.202   3.249
56338W        W24556  14.281  43.680  13.724
56339W        W24557  26.401  20.274   2.317
56340W        W24558  13.310  18.862   4.602
56341W        W24559  38.904  42.899   2.363
56342W        W24560   0.489  24.609   4.767
56343W        W24561  21.855   0.780  12.621
56344W        W24562   3.162   0.416   1.321
56345W        W24563  27.835  38.861   2.763
56346W        W24564  16.418   3.518  12.917
56347W        W24565  18.854  13.019  12.291
56348W        W24566  24.763   2.857  14.910
56349W        W24567  44.807  35.690   1.693
56350W        W24568  22.154  31.680   2.179
56351W        W24569  40.999   6.721  14.771
56352W        W24570   1.945  33.876   3.778
56353W        W24571  12.425   2.519  13.329
56354W        W24572  32.093  10.633  14.883
56355W        W24573  11.763  16.497  12.520
56356W        W24574  21.315  22.275  10.646
56357W        W24575  25.670   5.481  12.986
56358W        W24576  17.645  17.588   1.134
56359W        W24577  28.122  11.887   1.381
56360W        W24578   9.357  14.183   2.918
56361W        W24579  20.244  13.220   1.137
56362W        W24580  15.037  14.926  13.915
56363W        W24581  38.341  10.704   3.177
56364W        W24582  29.474  26.921   0.821
56365W        W24583   5.284   5.140   4.858
56366W        W24584  16.818   5.222  11.520
56367W        W24585  12.305   5.161  13.774
56368W        W24586   8.564  27.606  13.034
56369W        W24587   4.677  30.090   1.383
56370W        W24588   8.169  44.496   0.739
56371W        W24589  31.177   5.939   4.512
56372W        W24590  26.577  37.570   0.848
56373W        W24591  17.124  34.549   1.807
56374W        W24592  26.495  40.955   2.943
56375W        W24593  42.866   2.694   2.916
56376W        W24594  22.778   0.518   3.201
56377W        W24595  24.628  37.384   2.259
56378W        W24596  14.595  10.351  10.171
56379W        W24597   7.827  12.214   1.360
56380W        W24598  41.040   8.637  13.911
56381W        W24599  28.593  34.469   2.157
56382W        W24600  31.839  27.269   2.408
56383W        W24601  32.551  22.545   1.293
56384W        W24602  17.737  13.714  14.822
56385W        W24603  35.058  43.781   4.898
56386W        W24604   0.170  30.192   1.246
56387W        W24605   7.204  31.667   0.757
56388W        W24606  34.371  15.658  12.559
56389W        W24607  33.940  21.520  11.142
56390W        W24608  36.563  44.059  14.750
56391W        W24609  23.471  32.818  10.555
56392W        W24610   7.978  13.679  11.200
56393W        W24611  40.899  21.060   1.991
56394W        W24612  39.867  40.577  13.468
56395W        W24613  41.217  42.123  13.437
56396W        W24614  30.436   9.386   2.576
56397W        W24615  43.097   5.537  11.129
56398W        W24616  15.743  14.382  11.907
56399W        W24617  21.736   1.492  14.939
56400W        W24618  22.971   6.699  10.762
56401W        W24619  24.177  40.453   2.646
56402W        W24620  14.426  25.760   3.314
56403W        W24621  20.014  18.626   3.961
56404W        W24622  21.003  11.817   3.102
56405W        W24623  34.376  31.905  12.833
56406W        W24624  31.501  33.544  11.439
56407W        W24625  25.856  28.613   2.399
56408W        W24626  33.113  14.369   3.591
56409W        W24627  37.366  24.072  14.628
56410W        W24628  42.399  21.191   2.876
56411W        W24629  20.825  31.168  13.507
56412W        W24630  37.400   8.837  13.843
56413W        W24631  14.693   6.184  12.830
56414W        W24632  37.896  25.762  12.999
56415W        W24633   9.162  28.425  12.982
56416W        W24634  35.268  36.137  14.740
56417W        W24635  28.530  24.149   1.762
56418W        W24636  27.061  15.340  14.482
56419W        W24637  43.393  28.499  12.668
56420W        W24638  43.948  29.232   1.798
56421W        W24639  41.184  38.935   1.809
56422W        W24640  17.353  33.360   5.150
56423W        W24641  24.630  15.823   3.927
56424W        W24642  32.426  29.537   3.550
56425W        W24643  36.034  34.242   1.092
56426W        W24644  24.471   9.876   4.125
56427W        W24645  28.092  15.814   3.613
56428W        W24646  35.026  42.519   4.364
56429W        W24647  44.937   6.225   0.212
56430W        W24648   6.042  31.391   2.767
56431W        W24649   3.522   1.858   0.579
56432W        W24650   5.817  18.212  11.957
56433W        W24651   2.077  23.573   1.210
56434W        W24652  16.306  40.513  14.164
56435W        W24653   0.218  18.107   4.207
56436W        W24654  31.979  24.678   2.829
56437W        W24655  30.508  18.910  14.224
56438W        W24656  37.486  18.567  13.570
56439W        W24657  10.134  35.083   0.841
56440W        W24658   4.472  26.202  14.913
56441W        W24659  40.406  24.993  12.417
56442W        W24660  20.101  35.902   0.862
56443W        W24661  37.485  27.147   3.329
56444W        W24662  28.069  30.119   1.498
56445W        W24663  37.104  37.417  12.497
56446W        W24664  35.124  15.986  11.887
56447W        W24665   3.707  20.055   3.675
56448W        W24666  34.955  44.740  13.294
56449W        W24667  12.024  30.443   0.926
56450W        W24668  40.337   4.917  12.977
56451W        W24669  34.511  30.132  11.236
56452W        W24670  43.677  32.724   2.944
56453W        W24671   6.975   4.853   4.009
56454W        W24672  16.514  31.643   4.088
56455W        W24673  34.880   4.968  13.027
56456W        W24674  18.854  38.019  12.513
56457W        W24675  14.277   6.016  14.022
56458W        W24676  31.018  24.442  12.795
56459W        W24677  24.643  15.701   0.392
56460W        W24678  29.493  44.099   1.520
56461W        W24679  37.661  24.521  13.217
56462W        W24680  26.042  42.226   1.392
56463W        W24681  31.861  32.884  11.145
56464W        W24682  39.911  27.679   1.868
56465W        W24683  13.089   1.601   2.222
56466W        W24684  29.014  25.848  13.083
56467W        W24685  19.994  43.798   1.416
56468W        W24686  12.351  44.193  13.952
56469W        W24687   4.570   6.448   0.538
56470W        W24688  33.168   1.497   1.416
56471W        W24689  29.987  27.171  11.133
56472W        W24690  30.044  16.384  12.019
56473W        W24691   8.398  32.947   2.297
56474W        W24692   2.695  37.026   3.508
56475W        W24693  42.493  27.263   2.801
56476W        W24694  19.548  36.667  14.212
56477W        W24695  30.367  13.668   2.545
56478W        W24696  37.321  35.007  12.107
56479W        W24697  42.778  37.935  14.371
56480W        W24698  18.295  25.542  14.979
56481W        W24699  33.445  20.997  10.158
56482W        W24700  14.260  30.090  12.236
56483W        W24701  41.390  33.984  11.915
56484W        W24702  28.618  23.573  11.148
56485W        W24703  31.205  10.343   2.842
56486W        W24704  41.509  15.484  12.585
56487W        W24705  12.679  34.877  12.879
56488W        W24706  27.979  41.530   1.452
56489W        W24707  23.518  28.890  13.749
56490W        W24708  22.631  20.635  12.870
56491W        W24709  29.949  14.432  12.485
56492W        W24710  33.478  22.909   4.541
56493W        W24711   5.187  12.566   2.691
56494W        W24712  10.416   2.379  11.719
56495W        W24713  36.138  10.701  11.071
56496W        W24714  19.473  24.083   4.556
56497W        W24715  44.020  20.028  14.292
56498W        W24716   1.338  33.362  11.543
56499W        W24717  40.480  20.905   3.183
56500W        W24718  14.008  12.832  12.546
56501W        W24719  43.477  23.009  13.383
56502W        W24720  38.373  41.332  12.050
56503W        W24721  11.620  19.984   3.698
56504W        W24722   0.790   6.141  12.520
56505W        W24723  44.960  18.868   2.556
56506W        W24724   4.440  37.914   4.186
56507W        W24725  32.917  21.536  14.373
56508W        W24726  28.758   0.779   3.553
56509W        W24727  23.158  27.539   2.449
56510W        W24728  43.485  28.021   1.436
56511W        W24729  23.649  10.882  14.463
56512W        W24730   7.176   7.479  12.462
56513W        W24731  34.778   3.698  12.383
56514W        W24732   3.764  19.775   3.236
56515W        W24733  35.823  25.127   1.328
56516W        W24734   5.955  39.928   3.209
56517W        W24735  28.792  23.460  13.521
56518W        W24736   0.520  18.797  14.092
56519W        W24737  26.673  32.054   1.451
56520W        W24738  20.850  30.591  12.403
56521W        W24739  43.100  37.074   4.784
56522W        W24740  27.464  17.118  14.851
56523W        W24741  26.057  34.109  14.604
56524W        W24742  42.481  11.269   3.135
56525W        W24743  41.561  31.427  11.950
56526W        W24744  20.111  44.415   0.410
56527W        W24745  17.012  11.093   3.311
56528W        W24746   4.927   7.587   1.517
56529W        W24747   8.631  43.927  12.557
56530W        W24748   1.392  29.166  13.819
56531W        W24749  24.661  37.635   3.266
56532W        W24750  12.244  33.361  10.631
56533W        W24751  31.584  36.411  13.064
56534W        W24752  19.267  25.774  10.821
56535W        W24753   0.713  29.693   0.952
56536W        W24754  29.374  43.820  11.980
56537W        W24755  43.855  44.272   2.041
56538W        W24756  17.673   7.888  10.960
56539W        W24757   4.122  44.759  11.156
56540W        W24758  43.047  37.054   1.311
56541W        W24759   0.956  27.026  10.773
56542W        W24760  22.015  26.558   4.854
56543W        W24761  16.652   0.371   1.456
56544W        W24762   7.939   7.634   1.218
56545W        W24763   4.257   0.487  13.503
56546W        W24764  17.774  22.582   3.197
56547W        W24765  30.492  15.613   3.676
56548W        W24766  31.923  44.032   0.394
56549W        W24767  43.042  34.906  14.347
56550W        W24768  30.465   2.311  14.441
56551W        W24769   3.420   1.370  12.389
56552W        W24770   4.448   2.627   0.036
56553W        W24771  16.084  11.797  13.342
56554W        W24772  35.605  27.508   2.170
56555W        W24773   9.846  26.182  14.804
56556W        W24774  15.157  38.982  10.570
56557W        W24775  20.889  12.559  14.415
56558W        W24776  15.912   2.377   1.337
56559W        W24777   5.871  44.505   2.178
56560W        W24778  24.715  20.731  12.473
56561W        W24779   5.642  29.605   4.099
56562W        W24780  33.884  30.065   3.149
56563W        W24781  20.545  43.627  11.938
56564W        W24782  18.504  10.708   2.102
56565W        W24783  24.040  36.879  10.647
56566W        W24784   3.195  39.340  11.464
56567W        W24785  27.148  21.443   3.706
56568W        W24786  36.955  43.307  12.040
56569W        W24787   0.765   7.936  12.532
56570W        W24788   8.133  28.526  11.597
56571W        W24789   9.167  40.738  10.469
56572W        W24790  21.191   5.202   4.639
56573W        W24791   1.902  31.383  14.255
56574W        W24792  42.619  31.900   1.189
56575W        W24793   6.481  25.430  13.096
56576W        W24794  39.580  29.569   0.771
56577W        W24795  42.885  44.990  11.213
56578W        W24796   6.426   4.287  11.120
56579W        W24797  32.014  36.645   0.535
56580W        W24798  36.851   1.923  14.595
56581W        W24799  22.123   3.379   1.222
56582W        W24800   7.712  14.602   1.365
56583W        W24801  20.071  27.745   0.915
56584W        W24802  37.866   4.352   4.429
56585W        W24803  20.624  30.696   4.441
56586W        W24804   3.876  15.276  13.356
56587W        W24805   2.797  15.872   3.389
56588W        W24806  44.503  11.248   0.200
56589W        W24807  29.738  27.547  14.985
56590W        W24808  26.438  43.575   0.077
56591W        W24809   1.498  21.119  11.891
56592W        W24810  35.643   4.654   4.494
56593W        W24811  19.301  19.331   1.210
56594W        W24812  21.697   1.841   2.605
56595W        W24813   4.047  37.248  12.998
56596W        W24814  25.583  40.580   0.044
56597W        W24815  43.226  18.154   2.299
56598W        W24816  33.254  14.917   3.630
56599W        W24817  21.534  29.670  10.716
56600W        W24818  11.097  25.096   4.740
56601W        W24819   4.962  27.425  14.905
56602W        W24820  32.305  20.644   4.234
56603W        W24821  27.944  31.176  12.836
56604W        W24822  39.937  44.493   4.310
56605W        W24823  28.925  26.472   3.413
56606W        W24824   3.201  37.847  10.528
56607W        W24825  13.788  24.961   1.533
56608W        W24826  31.161   5.927   2.759
56609W        W24827  18.490  25.884   3.174
56610W        W24828  12.561  24.757   3.732
56611W        W24829  18.865  28.920   4.266
56612W        W24830   3.439   2.907   2.227
56613W        W24831  34.567  28.610   2.141
56614W        W24832  34.073  10.794  12.352
56615W        W24833  39.658  43.944  14.370
56616W        W24834  41.988   3.988  10.150
56617W        W24835  28.683   3.568   3.010
56618W        W24836  36.610  40.369   0.283
56619W        W24837  30.304  16.396  12.487
56620W        W24838  20.108   5.291  12.287
56621W        W24839  18.634  43.709   4.207
56622W        W24840  21.693  23.756   4.556
56623W        W24841  19.847  24.407   1.689
56624W        W24842  43.404  18.242  12.596
56625W        W24843  26.158  23.729  14.638
56626W        W24844  40.993  27.561   4.741
56627W        W24845   3.476  31.923   1.770
56628W        W24846  16.858  35.042   0.080
56629W        W24847  42.444  11.696   4.342
56630W        W24848   0.460  23.449  14.487
56631W        W24849  11.889  40.488   1.396
56632W        W24850   3.609   6.914  14.102
56633W        W24851  15.395  42.384  13.421
56634W        W24852  44.748  14.280  13.550
56635W        W24853   6.309  37.010  13.870
56636W        W24854   3.543   3.023  10.423
56637W        W24855  43.279  18.212  14.050
56638W        W24856  39.429   5.238   0.372
56639W        W24857  43.976  16.778   4.606
56640W        W24858   9.447  39.944  11.003
56641W        W24859  24.403  27.450   0.838
56642W        W24860  39.001  44.925   1.201
56643W        W24861   0.505   4.130   1.585
56644W        W24862  13.677  39.976   1.618
56645W        W24863  10.163  17.803  13.789
56646W        W24864  12.020  37.364  14.998
56647W        W24865  26.202  24.954   0.233
56648W        W24866   1.686  20.510   4.067
56649W        W24867   5.150  27.906  10.654
56650W        W24868  22.242  44.807  11.491
56651W        W24869  36.508   9.151   2.273
56652W        W24870  21.710  22.169  12.158
56653W        W24871  23.784  30.540  14.393
56654W        W24872  36.110   8.091  11.080
56655W        W24873  29.080   0.327   0.397
56656W        W24874  29.950   3.951  14.407
56657W        W24875  33.916  32.106  12.965
56658W        W24876  18.131   5.873  12.899
56659W        W24877   0.799  22.225  10.329
56660W        W24878  27.917   8.568   3.670
56661W        W24879  19.906  12.629   9.937
56662W        W24880  22.461  10.847   4.115
56663W        W24881   2.952   8.703  11.001
56664W        W24882   3.302  12.823  14.993
56665W        W24883   8.088  44.160  12.150
56666W        W24884  25.229  19.121  11.029
56667W        W24885   7.177  18.189   5.100
56668W        W24886   2.839   0.416   2.714
56669W        W24887  11.170  25.481  14.958
56670W        W24888  21.993   6.328   4.622
56671W        W24889  24.482   4.137   0.823
56672W        W24890  14.424   5.583   0.833
56673W        W24891  37.133  19.813   1.056
56674W        W24892   9.335  22.590  12.775
56675W        W24893   8.114  24.560   1.509
56676W        W24894  29.227   8.832  12.416
56677W        W24895  14.717   6.647  11.083
56678W        W24896  18.109   8.427   3.256
56679W        W24897  33.565  41.147  11.462
56680W        W24898   7.793  10.627   1.313
56681W        W24899  38.917  21.750   1.837
56682W        W24900  11.805  22.516   5.171
56683W        W24901  10.469  36.402   0.277
56684W        W24902  42.906  32.095  10.739
56685W        W24903  30.937  19.818  13.449
56686W        W24904  43.322  36.013   4.259
56687W        W24905  31.380  23.560   0.550
56688W        W24906   0.935   3.901   3.234
56689W        W24907  39.187  43.030  14.910
56690W        W24908  21.526  40.451   1.310
56691W        W24909  38.050   9.235   1.512
56692W        W24910  43.643  28.854  14.330
56693W        W24911  14.275  15.768  12.538
56694W        W24912  39.297  43.515  14.451
56695W        W24913   6.883  43.290  14.759
56696W        W24914  39.507  24.913   3.244
56697W        W24915  12.623  24.287   4.566
56698W        W24916   1.797   6.927  13.340
56699W        W24917  35.064  41.244   2.749
56700W        W24918  33.991  17.224  12.370
56701W        W24919  38.024  18.120   0.234
56702W        W24920  13.569  25.595   4.637
56703W        W24921  41.503  38.749   3.156
56704W        W24922  13.777  24.707   4.500
56705W        W24923  10.695  14.620   4.552
56706W        W24924  19.299  21.372  13.839
56707W        W24925   2.901   1.238   3.432
56708W        W24926  22.872  34.961  13.085
56709W        W24927  42.528   4.706   0.759
56710W        W24928  12.848   8.358  12.017
56711W        W24929  14.314  25.981  12.062
56712W        W24930  17.247  23.050  14.812
56713W        W24931  44.030  28.119  12.022
56714W        W24932  40.840  33.342   1.005
56715W        W24933  38.535  34.746   2.430
56716W        W24934   6.301   1.195  12.453
56717W        W24935  22.702  27.687   1.711
56718W        W24936  43.873   1.856   2.560
56719W        W24937  16.680  26.604   4.250
56720W        W24938  12.392  37.989   3.574
56721W        W24939  43.791  26.842   4.567
56722W        W24940  35.416  35.380   1.446
56723W        W24941   3.808   3.767   2.246
56724W        W24942  41.855  15.928   1.814
56725W        W24943   2.287   8.695   4.120
56726W        W24944  39.864  17.715  14.786
56727W        W24945  27.702  12.193   1.436
56728W        W24946  37.825  44.574   0.317
56729W        W24947  22.466  28.843   0.627
56730W        W24948  18.066   5.824   4.585
56731W        W24949  14.153  13.813   4.097
56732W        W24950   9.623  12.112  11.042
56733W        W24951  36.307  33.921  13.866
56734W        W24952  28.636  15.274   0.014
56735W        W24953   2.427  23.475   0.821
56736W        W24954  36.621  31.807  11.587
56737W        W24955  43.837   5.100  12.883
56738W        W24956   5.889  12.738  12.975
56739W        W24957   0.344   6.712  11.471
56740W        W24958   6.460  44.914   4.684
56741W        W24959  10.703  38.888   0.436
56742W        W24960  31.562  34.823  14.919
56743W        W24961  17.918  11.671   4.213
56744W        W24962  14.569  31.929  10.799
56745W        W24963  32.567  33.091   1.656
56746W        W24964  37.805   0.621   0.364
56747W        W24965  38.359  19.192  12.162
56748W        W24966  17.246  30.205  14.275
56749W        W24967  44.855  26.876   3.621
56750W        W24968  44.312  35.855  12.476
56751W        W24969  23.571  27.604  10.349
56752W        W24970  29.744  23.036   0.819
56753W        W24971  36.858  42.986  14.062
56754W        W24972   7.657  39.934   1.852
56755W        W24973   1.314  16.632  12.490
56756W        W24974   7.801   1.218   0.323
56757W        W24975  14.341  17.471  12.980
56758W        W24976   7.013  43.944   1.301
56759W        W24977  22.649  20.569   4.076
56760W        W24978  19.800  21.320  12.036
56761W        W24979  40.386  26.019  11.416
56762W        W24980   5.403   8.666   1.928
56763W        W24981  18.755  21.605   1.443
56764W        W24982  16.608  21.954  13.978
56765W        W24983   1.402  42.872   1.943
56766W        W24984  23.567  39.034  11.345
56767W        W24985   1.885  25.715   0.398
56768W        W24986   3.834   9.224  14.215
56769W        W24987  24.063  37.977   0.198
56770W        W24988  26.390  22.621   3.153
56771W        W24989   0.269   4.002   0.057
56772W        W24990   5.475  25.524   4.712
56773W        W24991  37.870  15.976  11.454
56774W        W24992  44.402   1.483  10.555
56775W        W24993  30.945  11.688  10.959
56776W        W24994  31.715  35.040  13.594
56777W        W24995  42.341  17.098  12.147
56778W        W24996  24.567   0.247  13.944
56779W        W24997   2.333   0.816  11.579
56780W        W24998  28.899  10.407  13.501
56781W        W24999  27.175  28.058   3.742
56782W        W25000  32.041  40.344  13.549
56783W        W25001  11.244  32.055  13.920
56784W        W25002  30.483  44.742  14.062
56785W        W25003  30.717  22.575   1.504
56786W        W25004  11.324  25.268  11.585
56787W        W25005  26.938  33.461   1.287
56788W        W25006  41.238   4.988  13.122
56789W        W25007   0.859   9.737  12.142
56790W        W25008  35.686  39.390   0.377
56791W        W25009  21.174  39.877  13.305
56792W        W25010  40.866  30.447  13.180
56793W        W25011  13.277  21.583  11.806
56794W        W25012   6.914   8.221  14.528
56795W        W25013  12.843  41.380  14.364
56796W        W25014   2.431  36.428   1.242
56797W        W25015  39.370  24.949   4.598
56798W        W25016  44.800   5.541   3.930
56799W        W25017  15.796  23.235   1.881
56800W        W25018   4.532   3.182  14.977
56801W        W25019   0.260  17.239  13.930
56802W        W25020  40.954   1.342   3.358
56803W        W25021  34.594  38.720   2.385
56804W        W25022  31.742  26.676  12.135
56805W        W25023  29.913  29.837   0.221
56806W        W25024  14.583  28.720  11.204
56807W        W25025  42.974  35.906  13.676
56808W        W25026  32.130  11.339   0.964
56809W        W25027   6.411  17.975   1.074
56810W        W25028  22.231   7.104  11.101
56811W        W25029  24.381  20.179   4.613
56812W        W25030   5.924  40.598  14.196
56813W        W25031  40.729  20.192   1.971
56814W        W25032  16.983  34.934  11.890
56815W        W25033   0.037  21.483   2.822
56816W        W25034  34.398  13.147   0.417
56817W        W25035  37.904   7.310   1.002
56818W        W25036  31.349  19.998   4.278
56819W        W25037   9.190  41.532   0.882
56820W        W25038  17.210  10.576  11.130
56821W        W25039  20.232  29.494   4.596
56822W        W25040  39.320  40.946   2.740
56823W        W25041  15.370  39.493   3.346
56824W        W25042  12.652   8.451   0.872
56825W        W25043   3.283  26.617   2.768
56826W        W25044  16.423  22.757  11.955
56827W        W25045   5.216  30.039  11.673
56828W        W25046  20.293  34.848  11.584
56829W        W25047  12.352  39.435   3.068
56830W        W25048  37.921  22.437  13.814
56831W        W25049  37.589   4.636   2.369
56832W        W25050  10.332  43.386   1.409
56833W        W25051  44.791  23.351   2.314
56834W        W25052  30.430   2.370   5.011
56835W        W25053  35.553  32.194   1.329
56836W        W25054  20.084  31.017  11.910
56837W        W25055  33.884  28.909   5.151
56838W        W25056  17.093  40.293  12.897
56839W        W25057  26.982  35.649   2.802
56840W        W25058   5.156  21.800  13.875
56841W        W25059  11.195  16.726  14.848
56842W        W25060  40.871  32.853  10.969
56843W        W25061  42.569  35.985   3.151
56844W        W25062  41.257  22.250   4.175
56845W        W25063  18.034   8.946   3.272
56846W        W25064  11.204   4.301   4.362
56847W        W25065  39.938  14.671  14.419
56848W        W25066  13.922  34.762   3.327
56849W        W25067  22.654  17.116   0.698
56850W        W25068  14.814  37.313  12.644
56851W        W25069  21.505  37.710   3.527
56852W        W25070   7.930  16.517  13.572
56853W        W25071  15.037  26.358  13.561
56854W        W25072  10.424   1.471  13.901
56855W        W25073  11.453  38.444   1.844
56856W        W25074  20.043  15.190  13.246
56857W        W25075  40.539  16.062  10.754
56858W        W25076  40.051  14.868  12.986
56859W        W25077  40.782  13.353  11.583
56860W        W25078  35.854   4.401   4.060
56861W        W25079  16.108  34.176   1.443
56862W        W25080  14.056  10.594  14.466
56863W        W25081  14.409   3.859   1.997
56864W        W25082  22.757  25.037  12.612
56865W        W25083  15.734  34.929  12.942
56866W        W25084  16.876  34.835  13.095
56867W        W25085  24.946   4.781   3.344
56868W        W25086  15.580  19.992  11.483
56869W        W25087  19.115  33.457  13.558
56870W        W25088  15.878  24.564  10.647
56871W        W25089  30.516  18.532   3.161
56872W        W25090  39.962  17.348   1.305
56873W        W25091   3.893  30.376  13.591
56874W        W25092  15.123  40.124   3.720
56875W        W25093  27.658  19.138  14.896
56876W        W25094  30.700   7.675   2.326
56877W        W25095  16.008   1.985  12.091
56878W        W25096  34.489  23.072   4.253
56879W        W25097   8.228  26.335  11.909
56880W        W25098  23.135  28.983   4.822
56881W        W25099  17.629  18.138  13.584
56882W        W25100  28.396  26.514  12.860
56883W        W25101  22.619  17.991  13.741
56884W        W25102  29.381  17.533   4.661
56885W        W25103  30.121   5.716   4.305
56886W        W25104  16.075  34.542  13.027
56887W        W25105  14.911  17.641  11.584
56888W        W25106  15.033   5.757   2.818
56889W        W25107  38.754  24.566   4.142
56890W        W25108  24.631   6.698  11.131
56891W        W25109  42.110  38.469  10.613
56892W        W25110   1.196  26.783   0.693
56893W        W25111  24.176   2.455   4.093
56894W        W25112  40.747  39.434  11.062
56895W        W25113  25.992  14.538   5.024
56896W        W25114   5.130  34.083  10.523
56897W        W25115  10.722  10.787   4.162
56898W        W25116  39.823  35.284  13.967
56899W        W25117  42.857  25.188   1.972
56900W        W25118  38.724  37.918   2.693
56901W        W25119  15.106   8.764  11.554
56902W        W25120  17.245  39.102  10.385
56903W        W25121  10.416  20.966   2.258
56904W        W25122  20.497  19.604  13.374
56905W        W25123  17.287   1.713   4.140
56906W        W25124  37.621  22.734  14.209
56907W        W25125  19.455  42.616   4.026
56908W        W25126  35.385   3.853   5.095
56909W        W25127  16.383  36.001  13.837
56910W        W25128   9.578  36.892  12.952
56911W        W25129   1.784  40.158   4.523
56912W        W25130   9.113  20.670  13.521
56913W        W25131  36.499  23.911  14.816
56914W        W25132  28.731  42.889  11.611
56915W        W25133   9.034  39.859  11.987
56916W        W25134   0.998  24.538   4.908
56917W        W25135  37.748  16.492  11.339
56918W        W25136   1.812  22.747   2.977
56919W        W25137   7.168   5.479   0.253
56920W        W25138  37.356  15.534  10.669
56921W        W25139  42.434   1.037  11.484
56922W        W25140  18.974   8.157  14.175
56923W        W25141  35.928   8.895  10.799
56924W        W25142  37.985  38.564   2.668
56925W        W25143  18.633  18.265  12.583
56926W        W25144  43.378  20.621  13.075
56927W        W25145  37.296  38.584   4.615
56928W        W25146   3.900  42.867   2.312
56929W        W25147  17.655  43.816  12.518
56930W        W25148   9.278  24.693  13.432
56931W        W25149  35.965  41.452  12.610
56932W        W25150  41.875  19.654  13.098
56933W        W25151  43.472  26.051   3.602
56934W        W25152   6.796  17.962  13.386
56935W        W25153   9.836  38.761  13.077
56936W        W25154   9.944  21.350  11.510
56937W        W25155  21.570   0.388  12.467
56938W        W25156   0.909  30.083  12.985
56939W        W25157  37.900  18.791  10.671
56940W        W25158  26.206  23.242  13.942
56941W        W25159  38.236  27.405  13.384
56942W        W25160  38.885  31.931  13.026
56943W        W25161  20.028  29.451   4.086
56944W        W25162  28.182  11.699  10.282
56945W        W25163  43.754   4.885   0.227
56946W        W25164  34.327  24.277   0.021
56947W        W25165   2.103   1.616  12.157
56948W        W25166  40.278  39.013   0.714
56949W        W25167   7.517  28.792   0.703
56950W        W25168  33.040  24.722   0.957
56951W        W25169  20.493  36.943  11.162
56952W        W25170  24.140  23.728  13.283
56953W        W25171  17.833   7.916   0.399
56954W        W25172   2.388  44.867  10.706
56955W        W25173  25.028  28.875  13.054
56956W        W25174   1.404  36.525   3.299
56957W        W25175  25.635  21.818  10.642
56958W        W25176  26.829  13.410   2.112
56959W        W25177   2.064  39.816   0.432
56960W        W25178  40.954  23.571  14.276
56961W        W25179  24.305  22.599   0.779
56962W        W25180  35.401  18.849  10.675
56963W        W25181   6.308  28.974   3.811
56964W        W25182  23.836  24.547   0.263
56965W        W25183  32.456   2.095   3.177
56966W        W25184  34.478  21.332  10.728
56967W        W25185  33.403  24.066   3.724
56968W        W25186  21.610  44.068  13.395
56969W        W25187  31.926  27.471  13.343
56970W        W25188   6.127  18.484   4.451
56971W        W25189  10.373   5.768  11.608
56972W        W25190  22.594  44.876   0.746
56973W        W25191  42.353  35.808  12.384
56974W        W25192  34.911   7.691  13.364
56975W        W25193  14.797  24.542  14.494
56976W        W25194  38.092  27.940   3.731
56977W        W25195  44.421   3.506   3.221
56978W        W25196  40.056  40.273  14.453
56979W        W25197   1.988   4.905   4.509
56980W        W25198  23.444  32.933   0.049
56981W        W25199  28.427  25.040   0.209
56982W        W25200   7.456  22.293  12.451
56983W        W25201  31.076  31.141  11.991
56984W        W25202  38.090   0.790   2.383
56985W        W25203  33.784  19.794   3.091
56986W        W25204  26.941   8.137  11.558
56987W        W25205  20.111  26.720   4.911
56988W        W25206   6.464  27.217   0.717
56989W        W25207   3.254  40.530   0.722
56990W        W25208  30.878  22.859  13.404
56991W        W25209   1.923  31.549  14.758
56992W        W25210  10.562  23.474   0.370
56993W        W25211   5.917  35.790  11.887
56994W        W25212   7.950   8.273   4.613
56995W        W25213  39.345  20.070  11.891
56996W        W25214  23.483  34.394  12.030
56997W        W25215  28.485  28.676   3.329
56998W        W25216  26.670   8.774  13.363
56999W        W25217  29.111  19.700  14.686
57000W        W25218   9.582  25.471   4.936
57001W        W25219   0.475  39.538   3.060
57002W        W25220  22.420  37.479  12.520
57003W        W25221  13.089  35.418  12.882
57004W        W25222  41.492  20.750   0.737
57005W        W25223  33.603  35.803   3.743
57006W        W25224   9.659   9.869  12.852
57007W        W25225  14.466  43.510  11.618
57008W        W25226  19.214  32.349   0.973
57009W        W25227  19.310  29.316   4.769
57010W        W25228  27.567   9.034  13.920
57011W        W25229  26.990   6.758  14.484
57012W        W25230  21.545   9.633   1.464
57013W        W25231  33.721  27.883  11.236
57014W        W25232  15.287  41.034  13.514
57015W        W25233  37.224   9.458  12.473
57016W        W25234   4.666  14.283  12.058
57017W        W25235  43.997  32.449  13.561
57018W        W25236  28.196   0.614  10.362
57019W        W25237  38.079  13.890  13.477
57020W        W25238   7.718  36.145  11.346
57021W        W25239  30.152   8.422  14.968
57022W        W25240  28.826  25.241  11.940
57023W        W25241  33.476   9.983   3.713
57024W        W25242   9.922  16.122   3.287
57025W        W25243  29.112   7.942  10.514
57026W        W25244   0.381  14.086   4.616
57027W        W25245  35.781  37.310  12.027
57028W        W25246  32.458  28.904  13.473
57029W        W25247  30.707  16.654  11.086
57030W        W25248  18.500  26.061   0.788
57031W        W25249   6.630  21.139  14.361
57032W        W25250   6.725  30.081   0.388
57033W        W25251  33.652   4.338  13.501
57034W        W25252   6.804  24.155  12.516
57035W        W25253  34.332  17.276  13.509
57036W        W25254  39.341  19.307   0.761
57037W        W25255  14.907   9.933   5.067
57038W        W25256  16.989   6.018  14.944
57039W        W25257  33.527  28.030   2.812
57040W        W25258   7.213  24.713  13.929
57041W        W25259  37.917   2.196  13.384
57042W        W25260  27.548  42.742  11.091
57043W        W25261  17.491  44.975  12.116
57044W        W25262   2.012  33.351   2.944
57045W        W25263  27.220  29.003   2.256
57046W        W25264  44.068  37.894   0.432
57047W        W25265  10.188  17.858   9.901
57048W        W25266  38.259  15.656   1.807
57049W        W25267  14.322   4.326  12.405
57050W        W25268  34.433   9.632   3.290
57051W        W25269  24.107  42.763  12.920
57052W        W25270  24.166  18.467   0.514
57053W        W25271   9.690  40.109  12.756
57054W        W25272  28.096  31.174  10.925
57055W        W25273  29.917  27.485  11.541
57056W        W25274  13.371   5.701  11.647
57057W        W25275  37.747  44.148   4.556
57058W        W25276  21.284  20.746  10.584
57059W        W25277   5.466  25.000  12.490
57060W        W25278  33.034   9.540   3.238
57061W        W25279  39.936  13.988   2.767
57062W        W25280  40.223  30.388   0.954
57063W        W25281  44.383  42.460   2.631
57064W        W25282  10.745   9.088  13.971
57065W        W25283   8.465  29.738  10.804
57066W        W25284   6.668  15.062  14.077
57067W        W25285  38.872  28.429  12.512
57068W        W25286   5.471  36.350   3.190
57069W        W25287   6.280  20.615  10.610
57070W        W25288  38.478  22.208   2.975
57071W        W25289  16.965  30.567  13.331
57072W        W25290   2.758  19.787   3.192
57073W        W25291  19.763   7.178   2.782
57074W        W25292  25.933  21.226   0.253
57075W        W25293  20.682  27.118  10.499
57076W        W25294  29.156  21.939   1.279
57077W        W25295  30.960  31.108   4.796
57078W        W25296  27.978  28.409   0.476
57079W        W25297  34.521  15.426   0.783
57080W        W25298  20.423  38.743   3.687
57081W        W25299  21.048  43.276  14.877
57082W        W25300  42.990  34.343  13.209
57083W        W25301  38.906  44.752   3.423
57084W        W25302  36.053  32.564   3.595
57085W        W25303  31.187  27.598  12.877
57086W        W25304  20.243  38.621   4.517
57087W        W25305  43.177   0.975  10.698
57088W        W25306  38.582  41.225  14.814
57089W        W25307   7.307  37.840   1.342
57090W        W25308  31.674   3.332   1.374
57091W        W25309   0.748  34.466   4.081
57092W        W25310   5.394  37.129  12.936
57093W        W25311  44.741  25.161  10.661
57094W        W25312  20.515  35.026   4.100
57095W        W25313  44.616  34.129   5.078
57096W        W25314   4.728   4.891   3.683
57097W        W25315  28.561   9.855  13.366
57098W        W25316  10.295  41.865  11.644
57099W        W25317  33.172   2.736  13.412
57100W        W25318  24.737  13.425  11.049
57101W        W25319   5.712  38.889  14.389
57102W        W25320   7.913  37.244  12.154
57103W        W25321   2.828  10.181  11.613
57104W        W25322  38.081   4.453  12.586
57105W        W25323  27.667   0.216  13.711
57106W        W25324  41.503  32.616  11.615
57107W        W25325  12.191   7.297  12.092
57108W        W25326   5.736   8.661  12.635
57109W        W25327  25.452  27.281   2.484
57110W        W25328  25.967  39.995  12.993
57111W        W25329   7.111  28.635  14.336
57112W        W25330  16.871  16.300  13.720
57113W        W25331  26.584  36.453   4.579
57114W        W25332  43.835  24.271   2.786
57115W        W25333  25.677  13.756  13.844
57116W        W25334  11.781   5.409  13.064
57117W        W25335  25.829  14.534  14.400
57118W        W25336   4.423   6.831  13.924
57119W        W25337  37.935  37.072   4.133
57120W        W25338  11.675  26.445   3.850
57121W        W25339   7.847  14.723  10.051
57122W        W25340   2.527   3.334   3.670
57123W        W25341  10.800  25.963   3.890
57124W        W25342  11.898   6.958   4.466
57125W        W25343  31.967  35.681   3.204
57126W        W25344   9.789  18.014  12.439
57127W        W25345  18.521   3.227   2.350
57128W        W25346  35.301  35.621  11.070
57129W        W25347  20.081  28.644   2.286
57130W        W25348  30.293   3.296   4.094
57131W        W25349  30.744  20.471   2.987
57132W        W25350  18.561   7.771   4.022
57133W        W25351   3.525   7.847  10.565
57134W        W25352  18.902  42.376  14.629
57135W        W25353   7.389   2.434  11.165
57136W        W25354  21.513   0.493  14.940
57137W        W25355  30.015   5.188  11.630
57138W        W25356   7.426  30.196   3.861
57139W        W25357  38.131   3.842  12.139
57140W        W25358   8.306  12.923   1.909
57141W        W25359  24.927  35.874   2.371
57142W        W25360  41.280  10.929  14.429
57143W        W25361  32.286   5.789  12.321
57144W        W25362  21.309   0.885   3.722
57145W        W25363  33.375  44.402   3.109
57146W        W25364   8.887   3.655  14.473
57147W        W25365   5.082   4.238  13.540
57148W        W25366   5.421  25.985  11.463
57149W        W25367  32.136  34.779   3.612
57150W        W25368  16.198  31.957  13.495
57151W        W25369  29.978  20.748   3.069
57152W        W25370  40.337  22.019  12.640
57153W        W25371   8.359   9.304  10.715
57154W        W25372  44.552  19.551   0.406
57155W        W25373  26.114  35.533   2.467
57156W        W25374  32.705  35.806  14.606
57157W        W25375  42.836  32.191  11.458
57158W        W25376  44.318  27.597   0.021
57159W        W25377  34.042  38.975   4.551
57160W        W25378  24.034   4.592  12.643
57161W        W25379  10.793  19.786   1.451
57162W        W25380  29.995   9.344   0.434
57163W        W25381  20.135  40.929  11.126
57164W        W25382  25.970   2.292  12.471
57165W        W25383   4.930  26.945  10.750
57166W        W25384  32.150   2.082   3.697
57167W        W25385  24.613   5.640   2.359
57168W        W25386   5.115   9.078   2.851
57169W        W25387   8.378  32.971   1.372
57170W        W25388   7.355  37.807   2.177
57171W        W25389  14.364  26.038  11.228
57172W        W25390  22.522   9.493   4.597
57173W        W25391  16.169   9.698   4.196
57174W        W25392  39.512  26.067   0.306
57175W        W25393  31.771  41.025   1.345
57176W        W25394  34.544  15.802  11.201
57177W        W25395  37.853   8.862  11.909
57178W        W25396  31.666  43.869  12.589
57179W        W25397  39.027  10.947   0.015
57180W        W25398  42.814  34.395  12.680
57181W        W25399  39.915  18.107  12.853
57182W        W25400   5.222  13.001  13.536
57183W        W25401  35.785   4.807  14.334
57184W        W25402   0.837  16.528  10.204
57185W        W25403  36.377  25.982  10.673
57186W        W25404   3.700  19.115  14.857
57187W        W25405  14.259  23.805   3.789
57188W        W25406   5.673  28.139   1.276
57189W        W25407  15.459  14.304   5.016
57190W        W25408   0.122  26.001   2.543
57191W        W25409   2.219  38.835  14.453
57192W        W25410  19.359  10.273   0.764
57193W        W25411  22.213  41.280  12.675
57194W        W25412  26.761  32.870  14.262
57195W        W25413  13.782   9.699  14.343
57196W        W25414  43.763  32.858  14.801
57197W        W25415  17.079  15.318   2.351
57198W        W25416   3.766   5.629   1.830
57199W        W25417  37.071   4.808  13.397
57200W        W25418  33.336  43.667  12.857
57201W        W25419   6.905  20.357  14.735
57202W        W25420  27.927  34.124  14.563
57203W        W25421  20.852  32.412  10.332
57204W        W25422  35.144   4.811   4.376
57205W        W25423   9.019  26.904   3.262
57206W        W25424  43.701  16.283  12.732
57207W        W25425  35.130   5.609   0.367
57208W        W25426  23.949  38.161   2.897
57209W        W25427  41.283   2.813   9.792
57210W        W25428  28.081  15.583   0.840
57211W        W25429   8.480  40.417   0.237
57212W        W25430  21.301  28.123  10.738
57213W        W25431  40.812   1.921  14.991
57214W        W25432  26.944   2.248  13.483
57215W        W25433  36.165   1.349   3.716
57216W        W25434   5.705  26.392   4.534
57217W        W25435  17.668   4.900   0.042
57218W        W25436  20.665   9.776   0.873
57219W        W25437  32.697  33.672   0.759
57220W        W25438  39.100  30.537  11.493
57221W        W25439  18.205  33.868  14.880
57222W        W25440  19.133  18.332   3.165
57223W        W25441  15.080  18.440  13.421
57224W        W25442   6.834  22.998  14.485
57225W        W25443  42.980  19.152  13.500
57226W        W25444  40.262  11.825  12.493
57227W        W25445  25.020  24.817  13.276
57228W        W25446  32.977  25.947   5.524
57229W        W25447   3.948   9.959   0.324
57230W        W25448  17.752  14.634   4.153
57231W        W25449  41.989  25.983   4.675
57232W        W25450   6.707  14.704  11.568
57233W        W25451  27.559  29.818  14.803
57234W        W25452  13.809  25.271  12.915
57235W        W25453   1.392   5.705   4.896
57236W        W25454   6.518   4.698  13.354
57237W        W25455  25.073  11.040   0.198
57238W        W25456  14.233  19.084  13.559
57239W        W25457  35.325  17.841  12.505
57240W        W25458   5.632  29.739  11.857
57241W        W25459  33.517  12.104  13.943
57242W        W25460  31.047  17.096   2.349
57243W        W25461  11.613   3.209   0.823
57244W        W25462  29.957   0.879   0.866
57245W        W25463  20.519   4.927   4.317
57246W        W25464  35.326   4.811   0.654
57247W        W25465  36.093  25.929  13.952
57248W        W25466  44.650  26.389  14.482
57249W        W25467  27.486  40.517   0.896
57250W        W25468  21.084  33.812  11.071
57251W        W25469  23.149   7.822   0.682
57252W        W25470   8.286   4.706   3.869
57253W        W25471  38.347  29.935  10.747
57254W        W25472   8.754   4.843  14.489
57255W        W25473  27.532  14.123  11.944
57256W        W25474   8.306  22.668   4.738
57257W        W25475  12.694  27.010   1.989
57258W        W25476  39.774  11.103  11.611
57259W        W25477   6.755  27.183   3.510
57260W        W25478  32.106  27.709   3.318
57261W        W25479   2.861  32.071  10.834
57262W        W25480   1.715  29.849  13.016
57263W        W25481  11.189  43.943  14.306
57264W        W25482  29.429  17.007   1.721
57265W        W25483  20.317  34.213  11.185
57266W        W25484  16.596  12.382  11.024
57267W        W25485  36.920  43.797   0.022
57268W        W25486   4.698  39.556   0.407
57269W        W25487  26.348  40.465   0.750
57270W        W25488   5.204  11.489  13.815
57271W        W25489  26.066  23.758   3.354
57272W        W25490  31.723  27.597   1.995
57273W        W25491  43.063   0.437   2.854
57274W        W25492   3.246  33.071  13.579
57275W        W25493  34.020   2.789  13.505
57276W        W25494  11.785  26.657  13.856
57277W        W25495  17.848   3.421  11.417
57278W        W25496  19.153  12.711   3.280
57279W        W25497  39.483  15.769   0.935
57280W        W25498  26.354   0.926   3.376
57281W        W25499   2.211  39.068  13.931
57282W        W25500   2.944  24.128   1.234
57283W        W25501  39.238  14.169  11.548
57284W        W25502  23.907   2.818   0.475
57285W        W25503  33.075  15.165   3.216
57286W        W25504  20.390  23.756  11.180
57287W        W25505  16.413  17.865  11.470
57288W        W25506   1.482  31.427  11.677
57289W        W25507  22.995   0.225   0.826
57290W        W25508  31.387  21.504   4.832
57291W        W25509  36.995   7.453   0.879
57292W        W25510  10.260  40.511  14.329
57293W        W25511  18.034  11.404   3.309
57294W        W25512   0.335   9.201   4.077
57295W        W25513   5.816  12.734   1.832
57296W        W25514  31.958  10.131   4.490
57297W        W25515  36.846   1.459   3.337
57298W        W25516  10.776  39.747  13.438
57299W        W25517  29.783  19.537  11.993
57300W        W25518  37.003  35.116   0.115
57301W        W25519  33.855   0.052   3.723
57302W        W25520   1.363  35.702  12.957
57303W        W25521  21.188  41.982   3.302
57304W        W25522  38.607  15.794  11.868
57305W        W25523  35.953   8.590   3.150
57306W        W25524  21.612  11.150   2.590
57307W        W25525  33.905  34.420   2.194
57308W        W25526   0.837  30.132   2.487
57309W        W25527  24.442  21.073  12.107
57310W        W25528  15.411  22.110  13.510
57311W        W25529  11.886  21.937   2.254
57312W        W25530  22.886  19.021  11.728
57313W        W25531  39.294   2.717  14.902
57314W        W25532  43.693  41.352   1.932
57315W        W25533  39.305  10.956   1.748
57316W        W25534  19.644  40.516  13.891
57317W        W25535  17.828  22.252  13.538
57318W        W25536  25.179  37.085  11.517
57319W        W25537  18.938  40.915  10.485
57320W        W25538  34.086  42.518   0.747
57321W        W25539   7.406  29.825   2.910
57322W        W25540   3.655  32.595   0.409
57323W        W25541   2.550  29.898  10.810
57324W        W25542  14.298  31.027  10.891
57325W        W25543  26.859  43.041  13.459
57326W        W25544  30.098   4.610   2.906
57327W        W25545  40.032  35.323  12.435
57328W        W25546   7.844  26.942   1.800
57329W        W25547  30.248  24.002   2.399
57330W        W25548   0.368  12.530  13.393
57331W        W25549  25.677  38.826  13.613
57332W        W25550  14.925   4.304   1.259
57333W        W25551  24.527  25.327  14.436
57334W        W25552  28.078  39.082   0.997
57335W        W25553  39.246  13.566   3.677
57336W        W25554  29.361  27.018  12.893
57337W        W25555  42.002   2.446   3.676
57338W        W25556  18.189  25.505   0.815
57339W        W25557  21.017  10.095  11.112
57340W        W25558  33.628  34.627  11.106
57341W        W25559  26.764   8.522  11.155
57342W        W25560  38.667   4.330  11.516
57343W        W25561  17.396  39.761  11.518
57344W        W25562  31.500   8.170   1.349
57345W        W25563   7.907  30.924  12.599
57346W        W25564  13.600  33.577   4.559
57347W        W25565  15.156  43.069  12.114
57348W        W25566  19.698  36.645  11.628
57349W        W25567  25.670  17.366  12.552
57350W        W25568  41.613  26.976  11.234
57351W        W25569  26.132  10.731  14.844
57352W        W25570  35.637  14.955  14.792
57353W        W25571   1.573  25.844   4.212
57354W        W25572  33.564   3.300   4.072
57355W        W25573  34.051  14.262   2.210
57356W        W25574  27.142  41.032  10.757
57357W        W25575  13.081   8.192   4.120
57358W        W25576  14.904  11.270   2.161
57359W        W25577  41.894   9.848  12.505
57360W        W25578  12.052   1.863   1.182
57361W        W25579  42.526  13.692   2.940
57362W        W25580  11.236  16.207  11.397
57363W        W25581  39.990  42.226   2.717
57364W        W25582  40.358  14.620   3.750
57365W        W25583  25.247   1.823  10.908
57366W        W25584  23.122   8.483  11.507
57367W        W25585  19.868   1.728   2.172
57368W        W25586   5.183  30.898   2.841
57369W        W25587  42.790  39.388  14.110
57370W        W25588  14.616  27.087   3.272
57371W        W25589   5.787  35.908  10.486
57372W        W25590  27.654  28.432   0.068
57373W        W25591   0.639  43.109   0.763
57374W        W25592  35.368  36.282   2.896
57375W        W25593  14.686  20.732  12.110
57376W        W25594  11.601  11.051   3.494
57377W        W25595  27.614  33.023   4.566
57378W        W25596   4.438  20.586   1.295
57379W        W25597  40.370  16.602  14.419
57380W        W25598  36.908  26.969   0.828
57381W        W25599  33.462  26.669  10.471
57382W        W25600   6.297  27.492  14.756
57383W        W25601  11.401  17.550  12.061
57384W        W25602   8.385   8.632   1.001
57385W        W25603   0.630  14.146  12.115
57386W        W25604  37.049  33.146   2.047
57387W        W25605  17.049  19.773   0.297
57388W        W25606  39.049   8.426  12.749
57389W        W25607  43.513  11.822   3.858
57390W        W25608  41.809   9.119   3.713
57391W        W25609  32.036  19.575  12.081
57392W        W25610  13.840  39.414  11.032
57393W        W25611  38.629   0.252   1.747
57394W        W25612  28.691  16.398   2.781
57395W        W25613  23.654  24.006  13.291
57396W        W25614  15.699  22.007  14.893
57397W        W25615  21.559  19.087  12.488
57398W        W25616  28.835   4.443   3.193
57399W        W25617  11.577  31.146  14.366
57400W        W25618   4.952   7.351   1.960
57401W        W25619   4.631  41.416   0.337
57402W        W25620  13.341  38.118  12.611
57403W        W25621  19.783  32.543  14.591
57404W        W25622   2.174  28.461   3.701
57405W        W25623  36.148  20.987   5.085
57406W        W25624  33.599  21.631  13.846
57407W        W25625  35.733  19.115  13.797
57408W        W25626  27.202  20.972   5.396
57409W        W25627  35.434  14.869   1.824
57410W        W25628   2.790  33.711   1.429
57411W        W25629  22.974  41.898   2.895
57412W        W25630   2.304  28.074   0.897
57413W        W25631  33.406  30.431   0.733
57414W        W25632   8.977  36.392  11.617
57415W        W25633  34.389  43.809  14.315
57416W        W25634  10.689  13.650  13.805
57417W        W25635  37.314  34.523   2.250
57418W        W25636   4.975  17.196  10.752
57419W        W25637  19.640  17.325  13.076
57420W        W25638  35.354  27.208   1.786
57421W        W25639   4.432  16.582  11.234
57422W        W25640  14.534  33.861   1.379
57423W        W25641  44.814  25.493   4.460
57424W        W25642   1.897  27.358  14.511
57425W        W25643  43.710  20.443  14.382
57426W        W25644  22.409  26.214  11.092
57427W        W25645   6.823  43.498   2.296
57428W        W25646  10.123  17.808  10.741
57429W        W25647  20.136  27.565   3.357
57430W        W25648  16.314   3.686  12.441
57431W        W25649   6.656  20.610  11.549
57432W        W25650  25.248  16.288   4.620
57433W        W25651  14.231   5.773   2.108
57434W        W25652  40.531  38.809  13.460
57435W        W25653   7.450   5.780   1.443
57436W        W25654  27.578  36.727   4.078
57437W        W25655  36.806  28.912  11.651
57438W        W25656  17.134  15.022   1.463
57439W        W25657  16.766  38.293  14.789
57440W        W25658  19.082  40.852   0.912
57441W        W25659  40.122   6.316   1.243
57442W        W25660  17.851  35.654  13.808
57443W        W25661  18.031   2.841   1.902
57444W        W25662  43.253  38.326   0.367
57445W        W25663  39.877  20.542   3.450
57446W        W25664  22.840  24.149   1.253
57447W        W25665  19.044   9.349  14.338
57448W        W25666  40.426  21.923  12.159
57449W        W25667  40.787  14.710   0.442
57450W        W25668  17.138  19.616   3.407
57451W        W25669  42.369  42.761   2.694
57452W        W25670  23.606  15.471   4.213
57453W        W25671   7.489  32.209  11.587
57454W        W25672  16.065  38.423   0.316
57455W        W25673  42.290  17.108  14.439
57456W        W25674  10.244   9.825   3.322
57457W        W25675  20.994  32.202   0.932
57458W        W25676  32.619  36.076  12.222
57459W        W25677  41.937   5.890   2.289
57460W        W25678  15.195  21.778  14.890
57461W        W25679   2.563   9.850  14.326
57462W        W25680  13.181  34.676   3.150
57463W        W25681  32.503  15.272   1.140
57464W        W25682  11.136   2.784  13.501
57465W        W25683  21.704   5.817   3.856
57466W        W25684  28.203  13.289   0.541
57467W        W25685  41.306  40.023  11.395
57468W        W25686  41.015  40.048  10.624
57469W        W25687  44.671  25.067   0.897
57470W        W25688  14.361  39.415   2.669
57471W        W25689  24.382   9.749  12.034
57472W        W25690  14.789  26.452  14.853
57473W        W25691  42.585  13.020  12.444
57474W        W25692  22.605  24.983  14.366
57475W        W25693  23.234  32.025   3.580
57476W        W25694  39.952  19.588  12.106
57477W        W25695   3.385   8.147  11.576
57478W        W25696  19.684  24.113   2.165
57479W        W25697  23.283  30.656   0.475
57480W        W25698  40.411   8.056   3.186
57481W        W25699  11.579   5.303   2.935
57482W        W25700  13.382  43.965  12.085
57483W        W25701   3.341  24.212  14.283
57484W        W25702  14.784   1.931  10.841
57485W        W25703  20.004   3.261   3.125
57486W        W25704  39.054  25.672  10.616
57487W        W25705  18.921  22.254  13.765
57488W        W25706  35.799   6.900   0.196
57489W        W25707  10.576  18.390   4.804
57490W        W25708   0.442  28.949   4.157
57491W        W25709  24.047   2.620   3.606
57492W        W25710  17.766  18.669   0.896
57493W        W25711   0.820  25.879   0.780
57494W        W25712  37.615  12.269  10.742
57495W        W25713   8.625   5.528   4.238
57496W        W25714  31.903  21.162   1.272
57497W        W25715  44.720   5.247   0.281
57498W        W25716  10.612  18.562   0.896
57499W        W25717  20.088  22.964  11.663
57500W        W25718  31.440  43.993   4.831
57501W        W25719  24.241  42.877  10.863
57502W        W25720  44.726  11.720   1.861
57503W        W25721  39.129  20.809   4.107
57504W        W25722  16.809   5.007  11.044
57505W        W25723  14.274  41.846  12.006
57506W        W25724  19.288  39.932   1.741
57507W        W25725  43.831  39.062   0.523
57508W        W25726  36.521  37.522   3.413
57509W        W25727   7.229  31.948  12.115
57510W        W25728  15.293  10.282   0.313
57511W        W25729  22.467  44.016  13.073
57512W        W25730  17.707  27.919   1.720
57513W        W25731  38.433  29.713   2.606
57514W        W25732  42.386  28.459  13.547
57515W        W25733  23.106  34.000   1.220
57516W        W25734   3.879   4.235   4.953
57517W        W25735  20.581  42.508  12.541
57518W        W25736  32.943  18.210   0.259
57519W        W25737   5.257   5.493  12.011
57520W        W25738  37.657  33.090  12.621
57521W        W25739  19.762  11.875   3.673
57522W        W25740  19.531  28.602  12.678
57523W        W25741  36.798  27.055  13.409
57524W        W25742  16.644   2.905   1.457
57525W        W25743   6.730  40.267  14.805
57526W        W25744  40.781  27.537  12.092
57527W        W25745  29.892  34.899  12.451
57528W        W25746  24.437  27.728   4.075
57529W        W25747   2.712   9.919  12.023
57530W        W25748  37.856   9.712   3.244
57531W        W25749  44.442   7.172   0.371
57532W        W25750  32.073  14.544  11.981
57533W        W25751  13.301  27.464  12.939
57534W        W25752   3.630   5.171  11.964
57535W        W25753  38.882  19.587   0.787
57536W        W25754   9.139  27.219  13.490
57537W        W25755  29.885  39.910   1.033
57538W        W25756  38.707  44.040   1.712
57539W        W25757  30.563  12.726   0.209
57540W        W25758   5.933  16.980   4.972
57541W        W25759  41.314  43.952   4.151
57542W        W25760  28.589  38.633   4.194
57543W        W25761  11.741  12.119  11.602
57544W        W25762   4.387  42.079   3.785
57545W        W25763  36.804  29.922  12.047
57546W        W25764   2.767  28.957   3.664
57547W        W25765  15.996  20.517   4.300
57548W        W25766  34.929  18.546  14.729
57549W        W25767  35.039  15.113   3.179
57550W        W25768  40.860  36.467  12.417
57551W        W25769  33.577  38.014   4.365
57552W        W25770   6.581   1.192   0.860
57553W        W25771  37.442  26.727   0.003
57554W        W25772  16.127  22.821  11.533
57555W        W25773  32.533  26.942   3.578
57556W        W25774   8.397  41.796   0.383
57557W        W25775  24.567   3.615   0.918
57558W        W25776  19.103  13.788   1.351
57559W        W25777   0.097   9.773   0.803
57560W        W25778  39.021  16.558  10.938
57561W        W25779   3.699  15.507  13.787
57562W        W25780  32.797   7.007  13.299
57563W        W25781   3.964  32.546   1.311
57564W        W25782  26.369  19.672   0.943
57565W        W25783  38.930   5.760  13.461
57566W        W25784  44.861   9.150   0.786
57567W        W25785  16.835  36.632   2.666
57568W        W25786   4.232  19.190  14.891
57569W        W25787  35.873  30.542   1.069
57570W        W25788   2.477   6.956   0.423
57571W        W25789  41.325   4.197   3.630
57572W        W25790   3.371  31.178   2.217
57573W        W25791  44.116  20.767   4.130
57574W        W25792  26.099   6.782  14.360
57575W        W25793  22.800   5.836   4.585
57576W        W25794  30.673  19.299  11.165
57577W        W25795  23.447  43.173  12.648
57578W        W25796   0.257  21.352   2.267
57579W        W25797  20.758  13.823  12.884
57580W        W25798  39.665  14.301  11.318
57581W        W25799  10.278  14.296   3.331
57582W        W25800  39.067  35.392   4.262
57583W        W25801  41.420  17.138  12.885
57584W        W25802  15.810  39.318  10.707
57585W        W25803  34.829  33.645   4.288
57586W        W25804   8.694  30.585  13.318
57587W        W25805  22.105   7.375   2.302
57588W        W25806  14.625   1.206  11.197
57589W        W25807   5.639  17.679   3.760
57590W        W25808  30.838  44.694  13.673
57591W        W25809  10.770  26.945   2.886
57592W        W25810   1.905  23.451  12.081
57593W        W25811  32.474  13.638   2.802
57594W        W25812  35.111   6.306  13.375
57595W        W25813   8.026   3.363   4.177
57596W        W25814  33.643  33.546   1.855
57597W        W25815  40.428  30.129   3.681
57598W        W25816  20.690   5.330  14.492
57599W        W25817  25.079  19.229   2.800
57600W        W25818  37.339  13.230   3.213
57601W        W25819  18.652  32.414   2.655
57602W        W25820  22.217  42.751   2.700
57603W        W25821  32.916  31.913   0.985
57604W        W25822   9.303   1.257   4.491
57605W        W25823  42.334  21.758  10.947
57606W        W25824  10.918  41.319  12.442
57607W        W25825  21.825  10.138   3.670
57608W        W25826  20.813   8.786   5.109
57609W        W25827  11.617  37.577   0.272
57610W        W25828  44.918   0.756   4.465
57611W        W25829   0.509  44.896  14.583
57612W        W25830  36.321  18.065  12.488
57613W        W25831  34.799  41.427   1.387
57614W        W25832   4.086  12.449  13.163
57615W        W25833  15.609  20.137  14.947
57616W        W25834  26.606  15.602  14.789
57617W        W25835  12.351  18.249   0.047
57618W        W25836  15.263  44.990  14.910
57619W        W25837  14.760  22.942  11.602
57620W        W25838  37.877  13.664   2.401
57621W        W25839  21.148  32.609  14.699
57622W        W25840  27.993  12.007   4.390
57623W        W25841  26.951  19.093   1.409
57624W        W25842  39.850  20.902  12.079
57625W        W25843   5.795   5.265  14.490
57626W        W25844  15.248  13.890  13.073
57627W        W25845  15.538   7.315   2.903
57628W        W25846  43.700  21.244   1.289
57629W        W25847  24.318  12.845  10.724
57630W        W25848  22.650   3.883  10.294
57631W        W25849   3.162  15.373  10.693
57632W        W25850  42.863  18.760  13.129
57633W        W25851  33.380  17.177   4.855
57634W        W25852  19.804  17.332  12.074
57635W        W25853  11.385  17.631  13.056
57636W        W25854  25.012  24.703  13.788
57637W        W25855  15.378  11.853   0.642
57638W        W25856   5.220  17.899   2.891
57639W        W25857  19.152  34.895  11.486
57640W        W25858  28.983   1.443   1.618
57641W        W25859  21.154  11.235   3.914
57642W        W25860   6.728  20.647  14.301
57643W        W25861   6.352   9.445   0.398
57644W        W25862  28.952  11.335  11.552
57645W        W25863   6.124   2.148  11.455
57646W        W25864  10.436   6.259   1.427
57647W        W25865   5.046  13.652   1.195
57648W        W25866  32.929  39.000   1.854
57649W        W25867  16.637  34.403   4.542
57650W        W25868  33.475  26.297   0.953
57651W        W25869  28.944  32.968  11.448
57652W        W25870  39.043  29.008  13.556
57653W        W25871  25.521  22.746   3.717
57654W        W25872   2.196  36.904   2.151
57655W        W25873  26.963  36.473   1.653
57656W        W25874  42.243  22.264  12.631
57657W        W25875   3.567  18.615  12.988
57658W        W25876   6.685   4.412  11.968
57659W        W25877  42.840  31.459   1.386
57660W        W25878  11.910   6.647   2.836
57661W        W25879  12.623  17.354   0.810
57662W        W25880  24.414  34.540  14.863
57663W        W25881  39.970  16.212  10.700
57664W        W25882  16.601  12.079   1.704
57665W        W25883  37.359   2.933   1.409
57666W        W25884   0.188  42.905   2.324
57667W        W25885  32.423  28.365  12.296
57668W        W25886  31.479  21.024   0.337
57669W        W25887   5.815  31.967  11.973
57670W        W25888  44.615   9.620   0.697
57671W        W25889  44.890  32.631   4.657
57672W        W25890  44.269  12.250  12.640
57673W        W25891  27.514  15.625   0.239
57674W        W25892  26.449  44.372  13.833
57675W        W25893  25.082   2.821  10.701
57676W        W25894   7.006  34.073  11.932
57677W        W25895   3.914  28.476   1.473
57678W        W25896  30.870   2.954  13.927
57679W        W25897   9.684   7.665   2.665
57680W        W25898  22.662  15.693   0.258
57681W        W25899  44.882  42.162   3.317
57682W        W25900  37.411   1.492   1.259
57683W        W25901  24.980  22.637  14.331
57684W        W25902  19.483  16.287   4.777
57685W        W25903  37.733  14.139   0.746
57686W        W25904  32.426  24.812  12.012
57687W        W25905  39.984   3.887  11.503
57688W        W25906  30.896  39.509   4.737
57689W        W25907  10.858   0.797   0.701
57690W        W25908   0.038   0.427  13.133
57691W        W25909  21.956  41.226  11.173
57692W        W25910  34.922  11.789  14.026
57693W        W25911   9.681  22.025   0.849
57694W        W25912  25.189  25.160   0.447
57695W        W25913   3.028  34.045  10.647
57696W        W25914  27.034  33.133   3.102
57697W        W25915  17.042  41.413   4.613
57698W        W25916  28.121  30.678  14.312
57699W        W25917  24.274  19.827   3.829
57700W        W25918   9.885   7.856  11.917
57701W        W25919   7.622  40.588   1.810
57702W        W25920  37.520  13.604   0.787
57703W        W25921  29.895  25.054  14.067
57704W        W25922  33.053   1.746  10.160
57705W        W25923  29.928  22.978   4.312
57706W        W25924  24.973  21.693  12.626
57707W        W25925   0.583  23.052   1.756
57708W        W25926  33.218  37.007   2.155
57709W        W25927  44.617  30.390  11.570
57710W        W25928  13.755   4.796   4.462
57711W        W25929   3.264  14.768   4.097
57712W        W25930  39.940  24.817  13.495
57713W        W25931  15.217   4.217   2.829
57714W        W25932   8.429   2.498   2.710
57715W        W25933  44.222  21.049   2.687
57716W        W25934   8.134   5.399   1.795
57717W        W25935  42.592  19.597   2.315
57718W        W25936  11.306  34.069  12.441
57719W        W25937   5.904  25.410   3.741
57720W        W25938  18.225  19.079   4.446
57721W        W25939  14.624   0.979   0.901
57722W        W25940   5.784   4.289   1.456
57723W        W25941  42.965  36.336  13.373
57724W        W25942  36.487  32.790   1.745
57725W        W25943  16.346  25.342  11.166
57726W        W25944  18.447   6.456  10.678
57727W        W25945  11.893  37.587   1.414
57728W        W25946  41.033  35.957  10.605
57729W        W25947   0.530  12.129   3.101
57730W        W25948  44.954  28.612  11.116
57731W        W25949  27.482  30.565   3.382
57732W        W25950  31.488  38.020  12.544
57733W        W25951  33.603   1.791  11.290
57734W        W25952  30.597   7.943  11.065
57735W        W25953   4.359  18.364   3.591
57736W        W25954  22.722  24.699   1.871
57737W        W25955  32.955  16.864  12.542
57738W        W25956  35.591  12.941   3.528
57739W        W25957  21.488  24.045  11.136
57740W        W25958   9.243  32.494  11.036
57741W        W25959  29.204  10.363  13.021
57742W        W25960   9.579  24.915   0.259
57743W        W25961  16.081   4.769   1.738
57744W        W25962  24.421  16.710  13.528
57745W        W25963   4.284  44.192   2.604
57746W        W25964  25.111  14.592   3.815
57747W        W25965  40.879  33.235  13.038
57748W        W25966  32.476  42.347   0.926
57749W        W25967  24.150  15.181   3.293
57750W        W25968   2.421  24.373   1.151
57751W        W25969   3.507   8.824   2.457
57752W        W25970  22.722   3.791  14.036
57753W        W25971  17.615  15.266  12.470
57754W        W25972  40.752  21.278  12.808
57755W        W25973  20.710  33.670  14.792
57756W        W25974  43.991  31.376   4.050
57757W        W25975  38.432   5.238  14.737
57758W        W25976  18.314   4.305  12.070
57759W        W25977  13.061  42.267  11.587
57760W        W25978  11.108  29.170  12.415
57761W        W25979   9.634  26.218   1.275
57762W        W25980  15.103  23.112  13.529
57763W        W25981   8.144  36.912   1.748
57764W        W25982  44.682  23.280  11.193
57765W        W25983  24.981   0.953  14.331
57766W        W25984   7.258   8.246   3.585
57767W        W25985  44.529  13.148  14.921
57768W        W25986  17.706   0.052  13.106
57769W        W25987  31.510  18.791   2.918
57770W        W25988  42.484  13.001  10.556
57771W        W25989  29.124  33.418   4.146
57772W        W25990  21.407   8.465  13.837
57773W        W25991   7.699   6.481  14.938
57774W        W25992  39.635   1.346  11.509
57775W        W25993  13.559  15.117   2.269
57776W        W25994   2.008  17.530  14.351
57777W        W25995  33.499   7.991   5.018
57778W        W25996  11.839  34.462   2.792
57779W        W25997  30.644  32.006   4.351
57780W        W25998   4.815  44.871  12.338
57781W        W25999  27.173  28.932  12.885
57782W        W26000  42.049   0.019   0.452
57783W        W26001  26.474  34.098   1.261
57784W        W26002  29.042  39.700  12.544
57785W        W26003   7.312  17.059  14.962
57786W        W26004  38.942  35.434   3.254
57787W        W26005  34.467   2.834   3.082
57788W        W26006  28.510  44.827   3.728
57789W        W26007   3.248  34.555  14.921
57790W        W26008  32.910   7.159  12.452
57791W        W26009  29.117   4.831   1.351
57792W        W26010  21.822  17.691   3.347
57793W        W26011  23.960  32.127   4.614
57794W        W26012  11.269   1.885   1.644
57795W        W26013  22.000  17.023  11.033
57796W        W26014  44.909  35.108  14.400
57797W        W26015  32.541  15.848   9.886
57798W        W26016  31.566   9.182  10.639
57799W        W26017   6.984  35.252   4.383
57800W        W26018  38.134  38.902  14.501
57801W        W26019   3.947  32.046   2.959
57802W        W26020  41.827  35.967  14.267
57803W        W26021   6.440  43.504   0.464
57804W        W26022   7.773  24.099  10.888
57805W        W26023  28.374  42.668  14.973
57806W        W26024   4.174   6.703   1.450
57807W        W26025  15.219  19.247  13.107
57808W        W26026  31.405   4.672   3.247
57809W        W26027  43.754  18.787  13.105
57810W        W26028  24.660  18.525   1.238
57811W        W26029  42.387  43.608   0.474
57812W        W26030  25.137  15.112   3.951
57813W        W26031  12.538  35.160   4.542
57814W        W26032  25.208  38.088  13.468
57815W        W26033  25.629   7.755  11.494
57816W        W26034  10.300  17.317  12.388
57817W        W26035  18.300   9.145   2.796
57818W        W26036  24.701  33.872   3.792
57819W        W26037  15.869   6.809   4.998
57820W        W26038  11.760  41.125   3.821
57821W        W26039  44.492   2.648   2.651
57822W        W26040  15.119   1.458   4.210
57823W        W26041  36.794   9.880   1.672
57824W        W26042   6.796   9.143  14.004
57825W        W26043  19.070  14.315  11.607
57826W        W26044  29.443  28.548  14.092
57827W        W26045   7.360  36.862  11.068
57828W        W26046  27.558  26.127  14.781
57829W        W26047  36.393  26.256   3.157
57830W        W26048  28.674  32.802   2.249
57831W        W26049  40.632  41.866  11.984
57832W        W26050  19.650  23.682   3.449
57833W        W26051  27.095  19.107   0.905
57834W        W26052  11.321  28.452  13.875
57835W        W26053  15.429  11.414   0.896
57836W        W26054  14.843  15.782  10.219
57837W        W26055   8.314  26.540  11.397
57838W        W26056   3.135  11.112   2.713
57839W        W26057  18.894   6.902   4.312
57840W        W26058  36.299   7.626   4.645
57841W        W26059  44.723  14.770  13.369
57842W        W26060  18.233  22.586   4.149
57843W        W26061  27.839   0.534  14.939
57844W        W26062  26.016   3.297  12.104
57845W        W26063  17.988  40.017  14.239
57846W        W26064  41.046  28.600   0.733
57847W        W26065  19.327  23.115  11.929
57848W        W26066   9.730   6.584   2.741
57849W        W26067   2.240  28.774   0.305
57850W        W26068  35.446  39.650   2.750
57851W        W26069  13.777  24.266   3.199
57852W        W26070  18.295  23.230   0.931
57853W        W26071  40.639  33.593   1.485
57854W        W26072  41.045  27.071  13.878
57855W        W26073   0.311  42.796   3.238
57856W        W26074   2.355  42.759  11.125
57857W        W26075  37.477  15.326  12.428
57858W        W26076  34.093  22.540   0.331
57859W        W26077   7.641  44.374  10.732
57860W        W26078  13.815  27.095   3.939
57861W        W26079  31.489   7.281   0.959
57862W        W26080  38.075  26.101   4.227
57863W        W26081  32.458  15.844   1.906
57864W        W26082  44.588   0.097   0.327
57865W        W26083  42.375  18.648   4.085
57866W        W26084  34.537  28.272  12.897
57867W        W26085  41.011  18.621   4.090
57868W        W26086  12.246   5.862   1.477
57869W        W26087   7.826  44.639   0.298
57870W        W26088  39.467   6.643  13.983
57871W        W26089  39.798  14.507   2.406
57872W        W26090  22.083   9.645  14.683
57873W        W26091  39.101  31.242   4.831
57874W        W26092  12.479  32.583  14.764
57875W        W26093  15.639  28.516   4.579
57876W        W26094   4.261  20.677   0.779
57877W        W26095  25.717  19.090  11.131
57878W        W26096  11.311   8.138   3.449
57879W        W26097  41.022  32.429  11.615
57880W        W26098  22.069  41.690   1.125
57881W        W26099  20.403  10.120   2.675
57882W        W26100  31.610  36.000  10.424
57883W        W26101  15.801  24.059  10.829
57884W        W26102  27.445   8.160  11.596
57885W        W26103  19.266   8.841  12.449
57886W        W26104  32.303   3.316  14.391
57887W        W26105  31.546  35.380  12.934
57888W        W26106   2.419  22.612   4.737
57889W        W26107  34.364  44.902  12.468
57890W        W26108   2.440  31.898  13.981
57891W        W26109   7.337  43.887  14.436
57892W        W26110  39.769  28.638  11.534
57893W        W26111  15.309  22.144   0.237
57894W        W26112   2.524  10.244  13.968
57895W        W26113  14.344  25.250  12.408
57896W        W26114  39.909  32.877  13.024
57897W        W26115   1.870  34.875   0.388
57898W        W26116  13.895   3.309   3.015
57899W        W26117  33.484  19.563  12.879
57900W        W26118  25.077  27.406  13.034
57901W        W26119  34.285  38.098  10.737
57902W        W26120  17.843  16.980  14.343
57903W        W26121  23.187  42.809  12.992
57904W        W26122  22.996  27.616  13.811
57905W        W26123  40.301  39.809   1.842
57906W        W26124  31.385  36.802  14.299
57907W        W26125  19.614  19.773  13.632
57908W        W26126  41.518  14.172   4.244
57909W        W26127  25.619   1.682   4.185
57910W        W26128  40.537  41.407   2.747
57911W        W26129  37.685  41.873  13.879
57912W        W26130  32.365   6.766  11.588
57913W        W26131  14.390   4.961  11.232
57914W        W26132  23.284  30.431  14.344
57915W        W26133  27.599  37.570   4.647
57916W        W26134  40.374  27.079   1.841
57917W        W26135  31.036  10.379  14.820
57918W        W26136  41.906  24.520  14.244
57919W        W26137  16.070  42.469  14.413
57920W        W26138  28.097  19.021  14.345
57921W        W26139   1.390  15.046  13.555
57922W        W26140   0.390  27.694   0.514
57923W        W26141  40.075  26.129  14.367
57924W        W26142   8.708  14.703  10.459
57925W        W26143  42.892  28.475  13.510
57926W        W26144  40.278  43.006   3.034
57927W        W26145  33.621   2.698   1.600
57928W        W26146  14.656  31.665  12.315
57929W        W26147  38.155  28.017   4.568
57930W        W26148  43.994  14.759  11.629
57931W        W26149  34.279  29.691  10.996
57932W        W26150   1.878  14.871  14.030
57933W        W26151  30.925   2.235   1.324
57934W        W26152   6.772  39.948  11.987
57935W        W26153   8.948  21.754  14.315
57936W        W26154  21.976  41.914   3.232
57937W        W26155  15.520  43.253  11.182
57938W        W26156  31.436  33.973  12.956
57939W        W26157  43.667  19.266  10.460
57940W        W26158  11.635  29.556  13.979
57941W        W26159   7.763  13.228  14.975
57942W        W26160   4.277  11.743  14.919
57943W        W26161  17.844  29.693   3.685
57944W        W26162  24.975  20.765   1.144
57945W        W26163  24.479   5.290   4.230
57946W        W26164   9.086  18.314   2.422
57947W        W26165   8.347  29.008  14.801
57948W        W26166   9.268  34.621   1.969
57949W        W26167  24.256  20.973   5.060
57950W        W26168  23.898  30.407   5.049
57951W        W26169   8.165  20.035   4.252
57952W        W26170  30.956  37.561   4.331
57953W        W26171  43.700  41.849   2.134
57954W        W26172  39.195  32.510  13.388
57955W        W26173  40.434  15.810   0.490
57956W        W26174  21.794  25.906   1.279
57957W        W26175  38.842   2.978  12.463
57958W        W26176  19.525  10.861  13.504
57959W        W26177  17.622  31.213  13.038
57960W        W26178  27.905   9.888   1.375
57961W        W26179  28.091   7.525  11.935
57962W        W26180  41.344  32.631   4.109
57963W        W26181  42.962  32.058  12.896
57964W        W26182  30.359  13.658   3.732
57965W        W26183  36.793  29.665  14.285
57966W        W26184  37.036  20.267  14.290
57967W        W26185  33.406  15.661   2.899
57968W        W26186   8.150   0.287  12.850
57969W        W26187  27.383  32.379  13.089
57970W        W26188  19.535  34.276  13.987
57971W        W26189   1.276  16.571   0.602
57972W        W26190   2.628  21.176  12.629
57973W        W26191  37.900  36.892  12.997
57974W        W26192  43.123   3.182  11.143
57975W        W26193  31.282   4.969  10.711
57976W        W26194  15.348  19.061   4.568
57977W        W26195  20.536  41.771  11.318
57978W        W26196   5.910  26.944   1.675
57979W        W26197  39.357  14.570   1.314
57980W        W26198  11.083  38.390   2.340
57981W        W26199  27.637   2.309  12.054
57982W        W26200  41.340  30.503   2.036
57983W        W26201   2.852  21.264  12.182
57984W        W26202   8.102  38.798  11.803
57985W        W26203  17.542  30.486   4.083
57986W        W26204  10.552  24.234   3.632
57987W        W26205  19.836  14.535  13.341
57988W        W26206  43.422  36.592  13.455
57989W        W26207  24.018   3.485   1.568
57990W        W26208   0.416  38.982   2.119
57991W        W26209  44.090   4.450   3.139
57992W        W26210  37.790  30.669  12.533
57993W        W26211  27.634  32.521  12.140
57994W        W26212  14.889  29.142   1.014
57995W        W26213  30.972  12.422   4.088
57996W        W26214  39.907  42.058  12.483
57997W        W26215  38.497  29.718   3.150
57998W        W26216  32.045  44.013  10.548
57999W        W26217  35.967  37.614  11.647
58000W        W26218  36.387  21.459   1.552
58001W        W26219   9.383  42.578   4.967
58002W        W26220  42.583  20.476   0.251
58003W        W26221  17.754  26.941   4.100
58004W        W26222  28.424  18.686  14.071
58005W        W26223   6.278  38.736   4.555
58006W        W26224  35.023  16.277   2.101
58007W        W26225  33.364  26.171  13.399
58008W        W26226   1.888  22.649   4.782
58009W        W26227  15.655  10.903   4.310
58010W        W26228  14.282   2.337   3.262
58011W        W26229  20.618   9.914  13.350
58012W        W26230  19.673  23.079   2.856
58013W        W26231   7.783  14.149   4.502
58014W        W26232  11.178  16.156  13.390
58015W        W26233  12.910  19.349  14.301
58016W        W26234  28.915  17.140   1.806
58017W        W26235  40.421   3.388   3.575
58018W        W26236  10.774   0.696  12.744
58019W        W26237   2.223   7.282   2.328
58020W        W26238  43.687  24.992  14.867
58021W        W26239  39.945  21.208  12.495
58022W        W26240  33.150  10.879   0.901
58023W        W26241   3.402   9.508  12.448
58024W        W26242  23.321  34.472   9.868
58025W        W26243  14.870  18.228  10.379
58026W        W26244  31.212  18.237  10.549
58027W        W26245  27.702  16.828   1.891
58028W        W26246   1.421   8.145   4.636
58029W        W26247  34.015  23.752   4.602
58030W        W26248  33.033  18.364   4.776
58031W        W26249  31.101   6.569  12.929
58032W        W26250   1.109  12.245   1.828
58033W        W26251  22.227   3.743  14.955
58034W        W26252   1.770   4.723  11.803
58035W        W26253  40.172  30.410  11.766
58036W        W26254  39.379  43.157  10.748
58037W        W26255   4.964  26.488  14.693
58038W        W26256  17.799  36.875  12.938
58039W        W26257  13.169   1.200  12.403
58040W        W26258   4.376  14.185  13.371
58041W        W26259  43.211  15.712  13.782
58042W        W26260  21.681   8.380   0.179
58043W        W26261   3.911  24.880   0.933
58044W        W26262  24.278  28.713   4.214
58045W        W26263  35.382  38.831   1.020
58046W        W26264  44.765  23.062   3.662
58047W        W26265  13.036  34.580  13.413
58048W        W26266  33.483  11.419  12.894
58049W        W26267  13.871  37.537   4.394
58050W        W26268  41.708   1.489   0.304
58051W        W26269  37.787  42.813  11.143
58052W        W26270   4.340  35.399   4.214
58053W        W26271  13.647  34.383   3.475
58054W        W26272  34.660  43.836   4.181
58055W        W26273   0.302  33.389  10.336
58056W        W26274  21.104  39.022   4.306
58057W        W26275   3.845  27.884  11.238
58058W        W26276  15.866   6.640  11.681
58059W        W26277  19.296  38.931   2.161
58060W        W26278  28.150  39.333   4.451
58061W        W26279  32.208   7.745  14.291
58062W        W26280  25.191  29.561  14.901
58063W        W26281  43.958  31.370   0.012
58064W        W26282   7.371   4.898   1.328
58065W        W26283   3.863  24.378   0.987
58066W        W26284  21.660  31.866  14.774
58067W        W26285   3.764  25.911   4.725
58068W        W26286  38.301  26.722   0.401
58069W        W26287  39.758  29.506   0.262
58070W        W26288  22.812  32.950   0.862
58071W        W26289   0.167  37.650  14.017
58072W        W26290  23.734  26.057  11.993
58073W        W26291  18.528  44.835  11.920
58074W        W26292  26.386  24.715   4.540
58075W        W26293   8.322  13.363  14.240
58076W        W26294  24.678  33.036  11.920
58077W        W26295  11.122  24.538  11.723
58078W        W26296  38.341  26.306  13.455
58079W        W26297  44.157  20.707  12.066
58080W        W26298   2.469   8.117  12.011
58081W        W26299  23.639  35.429   1.354
58082W        W26300  18.734  22.499   1.505
58083W        W26301  28.925  13.050   1.143
58084W        W26302  31.393   4.993   4.902
58085W        W26303  11.817  31.638   1.409
58086W        W26304   2.738   0.945  11.292
58087W        W26305  24.003   7.475   1.785
58088W        W26306  14.558   9.523   3.533
58089W        W26307   3.326   4.421  14.051
58090W        W26308  14.743  18.362   4.556
58091W        W26309  39.787  10.128   2.408
58092W        W26310  11.587  33.542  14.001
58093W        W26311  16.670  16.314   2.366
58094W        W26312  27.002  39.787  11.598
58095W        W26313  12.708  33.640  11.540
58096W        W26314  14.075  25.207   1.898
58097W        W26315  12.556  15.783  14.287
58098W        W26316  39.645  29.099  13.218
58099W        W26317   8.799   1.049   2.277
58100W        W26318  37.243   0.271  10.477
58101W        W26319  18.659  12.692   4.139
58102W        W26320   8.410  32.692   1.806
58103W        W26321  13.998   1.828   3.511
58104W        W26322  26.558  22.911   0.899
58105W        W26323   8.501   7.671  13.850
58106W        W26324  26.079   0.476   1.188
58107W        W26325  25.415  41.220  10.019
58108W        W26326  10.205  24.949  13.059
58109W        W26327   4.295  34.596   4.607
58110W        W26328  19.858  23.985   2.655
58111W        W26329   5.680  14.898   1.215
58112W        W26330   9.730  27.996  14.317
58113W        W26331  16.900  15.196   1.878
58114W        W26332   8.579  34.143  14.468
58115W        W26333   5.200  12.623   3.638
58116W        W26334   7.198  24.477   3.603
58117W        W26335  38.498   8.201   2.573
58118W        W26336  24.156  36.511   1.380
58119W        W26337   2.679  41.083  14.027
58120W        W26338  14.783  40.784   3.200
58121W        W26339   5.427   0.392  11.449
58122W        W26340  10.695   3.097  12.264
58123W        W26341  32.093   1.344  12.018
58124W        W26342   2.351  27.401  12.444
58125W        W26343  42.873  19.582  14.781
58126W        W26344  34.409   1.383   3.884
58127W        W26345  15.771  19.304  12.097
58128W        W26346   4.070  19.741  12.053
58129W        W26347   4.131  32.758   4.187
58130W        W26348  26.556  22.656  13.950
58131W        W26349   8.565  41.866   1.971
58132W        W26350  21.511  34.589   1.839
58133W        W26351  15.811   1.897   2.125
58134W        W26352  15.541  25.257  10.734
58135W        W26353  10.230  34.096  13.093
58136W        W26354   7.623  36.813   0.438
58137W        W26355  22.373  12.475  10.769
58138W        W26356  24.241  10.270  12.074
58139W        W26357  17.774  44.781   4.665
58140W        W26358  40.314  41.754   0.666
58141W        W26359   6.507  41.534   4.517
58142W        W26360   9.591  23.547   0.030
58143W        W26361  36.938  38.111   1.187
58144W        W26362  22.165  16.820   0.690
58145W        W26363  17.952  25.315  13.485
58146W        W26364  13.654  38.901   2.905
58147W        W26365  18.849  25.715  11.665
58148W        W26366  16.603  27.962   0.777
58149W        W26367   9.392  29.769   2.741
58150W        W26368   9.792   7.100  10.773
58151W        W26369  34.700  22.207  13.172
58152W        W26370  22.712  21.077   1.771
58153W        W26371  31.916  23.995  10.806
58154W        W26372  36.655   3.523   0.552
58155W        W26373  19.151  29.503  12.538
58156W        W26374  21.678  35.919   9.983
58157W        W26375   5.549  31.581   2.706
58158W        W26376  25.721  12.591  12.954
58159W        W26377  23.053  39.100  14.734
58160W        W26378  13.310  14.193   4.662
58161W        W26379   6.794  17.827   4.493
58162W        W26380  18.806  18.625   4.747
58163W        W26381  31.400   3.363   1.863
58164W        W26382  32.197  27.006  14.847
58165W        W26383  22.144  39.576  11.582
58166W        W26384  43.695   4.032  11.978
58167W        W26385   3.259  31.405   3.837
58168W        W26386  25.214   0.056   1.118
58169W        W26387  13.651  14.315   2.852
58170W        W26388  18.791   7.113  11.373
58171W        W26389  37.975  40.571   2.834
58172W        W26390  20.312   9.622   2.592
58173W        W26391  20.772  13.047   4.463
58174W        W26392  23.317   7.725   4.755
58175W        W26393  33.565   9.640   4.080
58176W        W26394  42.443   7.922  13.596
58177W        W26395  33.973   3.974   3.592
58178W        W26396  37.818  42.002   1.000
58179W        W26397  28.892  25.737  14.925
58180W        W26398  13.088  17.130   0.768
58181W        W26399  21.576  38.397   4.299
58182W        W26400  42.489  22.676  10.865
58183W        W26401  33.447  16.098   0.884
58184W        W26402   7.713  14.128  12.050
58185W        W26403  28.255  30.404  10.569
58186W        W26404   2.093   3.362   4.950
58187W        W26405  29.164  32.872   0.469
58188W        W26406  34.938   1.720  11.539
58189W        W26407  31.117  33.597   0.787
58190W        W26408  31.352  32.043   4.913
58191W        W26409  27.106  27.250   0.370
58192W        W26410  44.311  18.073  13.885
58193W        W26411  19.468   2.425  12.164
58194W        W26412  20.086   4.891   4.027
58195W        W26413  43.865   5.305   4.419
58196W        W26414   4.181  34.482   2.253
58197W        W26415  39.948  39.397   0.898
58198W        W26416  11.891   7.667   0.355
58199W        W26417  38.362   0.870  13.667
58200W        W26418  42.067  16.703   2.762
58201W        W26419   8.352   7.399   3.109
58202W        W26420   4.467   6.952   4.256
58203W        W26421  37.139  13.676  10.666
58204W        W26422  23.787  35.604   4.358
58205W        W26423  17.549  20.052  12.947
58206W        W26424  28.923  34.165   3.692
58207W        W26425   9.171  35.563   1.530
58208W        W26426  41.057  35.488  14.301
58209W        W26427  22.432  42.411  12.042
58210W        W26428  34.045   3.749  13.631
58211W        W26429  12.339   6.903   0.228
58212W        W26430  18.577  19.208  12.584
58213W        W26431   9.307  35.162   2.910
58214W        W26432   6.023  43.195   3.686
58215W        W26433   0.271  30.540   2.683
58216W        W26434  15.132  12.283  14.012
58217W        W26435   0.490  27.552  14.157
58218W        W26436  25.413  15.047  12.140
58219W        W26437  16.169  19.993   4.400
58220W        W26438   1.757  30.101   3.686
58221W        W26439  15.384  40.817   2.943
58222W        W26440  11.834   7.215   1.854
58223W        W26441  37.489  38.404  13.583
58224W        W26442   2.043  29.881  13.459
58225W        W26443  33.321   1.809  14.604
58226W        W26444   5.497  12.782   1.348
58227W        W26445   2.802  40.301   0.568
58228W        W26446  23.106   4.719  14.783
58229W        W26447  36.363  12.929   2.387
58230W        W26448  34.298   3.920  11.217
58231W        W26449   8.597  26.745  14.665
58232W        W26450  27.133  11.761  13.364
58233W        W26451  41.436  24.676  13.483
58234W        W26452   1.547  21.158   0.221
58235W        W26453  29.436  43.399  11.682
58236W        W26454   5.920  36.592   3.227
58237W        W26455  12.641   3.409  11.108
58238W        W26456  14.736  40.272  12.465
58239W        W26457  42.277   7.180  14.267
58240W        W26458  36.672  29.495   5.037
58241W        W26459  14.708  43.827   3.950
58242W        W26460  19.704  23.487   0.226
58243W        W26461  38.166   0.340  12.576
58244W        W26462  15.586  35.282  14.225
58245W        W26463  24.564  27.178  11.037
58246W        W26464  34.378  12.388  12.513
58247W        W26465  37.516  33.601   1.236
58248W        W26466  31.754  37.506  10.810
58249W        W26467  15.293  14.900   3.216
58250W        W26468  30.693  18.633  11.498
58251W        W26469  28.085  16.845   9.973
58252W        W26470   4.790  43.843   4.400
58253W        W26471  39.887   5.404  14.104
58254W        W26472   8.640  35.969  11.582
58255W        W26473  16.580  17.289   4.082
58256W        W26474   9.903  15.673  14.117
58257W        W26475  32.013  44.030  10.007
58258W        W26476  12.791  11.376   1.779
58259W        W26477  15.096  16.749  13.726
58260W        W26478  36.336   1.901   1.407
58261W        W26479   5.947  37.846   3.952
58262W        W26480   7.623  24.228  13.476
58263W        W26481  10.363  23.313   3.553
58264W        W26482  28.024   8.676   3.174
58265W        W26483  21.965   5.274  12.965
58266W        W26484  42.002  30.459   3.720
58267W        W26485  25.876  16.138   4.036
58268W        W26486  41.074   5.844   4.572
58269W        W26487   1.746  17.467  12.848
58270W        W26488   1.496  44.676   2.288
58271W        W26489   6.588  27.729  11.578
58272W        W26490  36.088   2.917   0.322
58273W        W26491  18.132  30.811   2.884
58274W        W26492   4.365  40.087  10.629
58275W        W26493   6.750   9.390  12.031
58276W        W26494   5.234   6.666   3.700
58277W        W26495   9.215  14.644   2.697
58278W        W26496  38.040  23.283   1.812
58279W        W26497  29.943  20.642  11.550
58280W        W26498  44.947   8.727  14.351
58281W        W26499  35.832  28.151  14.532
58282W        W26500  36.485  18.277   3.416
58283W        W26501  34.871  24.674  12.854
58284W        W26502  17.804  35.595   1.395
58285W        W26503  13.130  36.011   4.600
58286W        W26504  28.537  29.586   3.107
58287W        W26505  25.572  34.591   3.528
58288W        W26506  13.784  25.937  11.489
58289W        W26507  26.825  36.964   4.261
58290W        W26508   5.146   2.520  10.699
58291W        W26509  18.206  13.631  12.365
58292W        W26510  43.442  38.027   3.290
58293W        W26511  40.791  32.886  14.814
58294W        W26512   4.080   6.849  10.708
58295W        W26513  15.732   9.450   4.121
58296W        W26514   8.657  41.119  11.222
58297W        W26515  11.008  16.128  10.960
58298W        W26516  16.977  29.541  13.529
58299W        W26517  25.316  16.196  10.206
58300W        W26518  35.467  41.122  10.492
58301W        W26519  37.851  18.908   1.907
58302W        W26520  22.138   3.011   0.815
58303W        W26521  31.432  16.279  10.603
58304W        W26522  27.126  39.295  11.611
58305W        W26523  34.168  18.994   3.216
58306W        W26524  29.915  18.229  12.563
58307W        W26525   1.884  11.772  10.710
58308W        W26526  17.873   4.273  14.782
58309W        W26527  37.022  40.372  10.967
58310W        W26528   4.459  37.575  12.779
58311W        W26529  33.344  16.859  13.499
58312W        W26530  36.454  34.861   0.943
58313W        W26531  35.482   9.565   2.170
58314W        W26532   4.434  19.739   0.604
58315W        W26533   2.960  25.024  12.484
58316W        W26534  39.789  19.534   0.992
58317W        W26535  21.105  26.951   0.935
58318W        W26536  35.848  37.898  10.755
58319W        W26537  26.594  13.724  12.783
58320W        W26538  43.912  41.194  12.219
58321W        W26539  31.826  38.463   3.254
58322W        W26540  30.108   0.824   2.402
58323W        W26541  20.216   6.388  10.643
58324W        W26542  29.473  41.549  11.666
58325W        W26543   3.287  42.802   3.145
58326W        W26544  37.049  19.626  14.384
58327W        W26545  12.312   8.891   0.018
58328W        W26546  39.782   9.419  14.940
58329W        W26547  22.428  10.745  11.844
58330W        W26548   9.623   0.131   4.237
58331W        W26549  10.433   1.521  13.003
58332W        W26550  18.630  32.450   3.599
58333W        W26551  37.204  13.440  11.131
58334W        W26552   6.152  36.071  14.532
58335W        W26553  17.109  25.485   2.445
58336W        W26554   6.532  29.049   4.866
58337W        W26555   1.351  34.414  12.901
58338W        W26556   5.142  44.914  12.834
58339W        W26557  11.664   3.776  11.621
58340W        W26558  38.445   2.669   3.345
58341W        W26559   5.440  32.434  14.064
58342W        W26560  31.450  39.730   4.022
58343W        W26561  39.045  24.172   1.493
58344W        W26562   6.864  36.473   4.706
58345W        W26563   6.642   1.739   0.122
58346W        W26564  36.454  19.700  14.843
58347W        W26565  21.746  10.615  13.076
58348W        W26566  13.601  44.303  14.810
58349W        W26567  30.718  37.535  13.896
58350W        W26568   3.682  21.666  12.080
58351W        W26569  10.335  40.594   1.079
58352W        W26570  22.235  40.604  13.863
58353W        W26571  27.830  39.826  11.964
58354W        W26572  16.520  33.617   2.408
58355W        W26573  34.853  43.228  11.754
58356W        W26574  22.732  17.819  11.070
58357W        W26575  18.028  33.012  12.039
58358W        W26576  38.115  40.772   4.174
58359W        W26577  24.306  44.394   3.264
58360W        W26578  15.939   9.501   2.106
58361W        W26579  36.505  24.086  11.683
58362W        W26580   2.152  36.971   0.761
58363W        W26581   6.770  14.146   0.188
58364W        W26582  32.457  28.389   0.656
58365W        W26583   8.317   9.311  14.215
58366W        W26584  15.704  42.582   3.325
58367W        W26585  40.968   5.172  11.940
58368W        W26586  35.645  27.428  11.068
58369W        W26587  38.189   7.215   2.009
58370W        W26588  19.833   4.081   4.691
58371W        W26589  37.472  28.329   2.696
58372W        W26590  24.850  41.421   0.236
58373W        W26591  32.660  24.940  11.551
58374W        W26592  22.017  37.342   1.377
58375W        W26593  22.821   6.756   1.325
58376W        W26594  19.256  17.330  13.417
58377W        W26595   5.270  12.333  12.359
58378W        W26596   6.880  33.607   2.196
58379W        W26597  34.818  10.786   2.281
58380W        W26598  37.004  38.351  13.787
58381W        W26599  16.535  34.055   4.151
58382W        W26600  43.811  23.100  14.706
58383W        W26601  24.587  44.066  11.561
58384W        W26602  23.019   2.937  13.295
58385W        W26603  18.328  11.202  13.359
58386W        W26604  30.744  41.855  13.266
58387W        W26605  27.872  35.817   0.969
58388W        W26606   1.514  35.572   4.341
58389W        W26607  38.025  31.616  13.454
58390W        W26608   0.513  22.090   2.706
58391W        W26609   6.955  29.040  12.136
58392W        W26610  23.151  21.909   1.743
58393W        W26611   2.209  27.098   2.235
58394W        W26612  21.261  41.172   2.777
58395W        W26613  16.622  44.250  14.923
58396W        W26614   0.338   3.180  11.611
58397W        W26615  30.387  30.111  12.602
58398W        W26616  28.431  29.712  12.073
58399W        W26617   0.806  36.921  10.399
58400W        W26618  18.781   1.642   4.114
58401W        W26619  27.674  30.523  12.458
58402W        W26620   3.738   0.635  13.412
58403W        W26621   4.135  28.308  11.135
58404W        W26622  17.541  24.180   4.579
58405W        W26623  14.060  14.432   3.225
58406W        W26624  17.259  39.870  13.128
58407W        W26625  13.133  24.925   4.161
58408W        W26626  11.298  14.583   2.815
58409W        W26627  33.543   1.730   1.106
58410W        W26628  21.130  44.271   1.907
58411W        W26629   0.369  29.997  14.809
58412W        W26630  11.928  38.809  10.722
58413W        W26631  27.858  21.608  10.767
58414W        W26632  39.887  18.691   0.109
58415W        W26633  38.099   9.855  10.993
58416W        W26634  27.475  13.353   1.799
58417W        W26635  16.175   2.465  13.843
58418W        W26636  22.048  10.132   0.838
58419W        W26637  28.295  11.608   4.519
58420W        W26638   2.054  24.474  14.864
58421W        W26639   4.441  15.755   4.750
58422W        W26640  34.086  35.490  12.338
58423W        W26641  23.273  28.181  11.583
58424W        W26642   1.820  41.578   2.116
58425W        W26643   0.249  28.099   2.773
58426W        W26644  10.525  29.159  10.142
58427W        W26645   4.783  23.414   3.678
58428W        W26646  28.676  19.653   4.496
58429W        W26647  10.828  39.343  10.991
58430W        W26648  42.062  42.187   1.930
58431W        W26649  24.085  13.644   1.360
58432W        W26650   2.146   1.236   1.378
58433W        W26651  25.450  29.139   0.979
58434W        W26652  34.902  32.713   1.362
58435W        W26653  24.730  30.061   3.327
58436W        W26654   1.977  25.535   3.312
58437W        W26655   0.958  34.913   3.841
58438W        W26656  40.173  17.746   2.663
58439W        W26657  34.760   1.024   3.776
58440W        W26658  13.192  16.445  13.631
58441W        W26659  36.525  27.986   0.257
58442W        W26660  25.620  38.701   0.191
58443W        W26661  38.643  26.632   4.615
58444W        W26662  41.708  28.625   0.358
58445W        W26663   8.262  37.815   1.699
58446W        W26664  37.967  23.556  11.865
58447W        W26665  36.918  41.142   0.647
58448W        W26666   3.555  24.242  13.420
58449W        W26667   8.976  22.208  12.694
58450W        W26668  26.907   3.111  10.961
58451W        W26669  34.194   0.754   0.471
58452W        W26670  29.999  35.499   2.882
58453W        W26671  11.965  16.701   9.914
58454W        W26672  18.119  31.191  12.910
58455W        W26673  18.191  35.533   4.003
58456W        W26674  34.118  19.636  14.475
58457W        W26675  31.684   1.933   1.410
58458W        W26676  33.384  39.154   2.286
58459W        W26677  25.166  38.985   3.936
58460W        W26678   6.853  14.444  12.897
58461W        W26679   0.393  17.930  13.530
58462W        W26680  36.668  30.466   2.310
58463W        W26681  30.718   7.861   2.823
58464W        W26682  34.557  36.319   4.150
58465W        W26683  43.429   7.218   2.578
58466W        W26684  23.159  31.892  12.505
58467W        W26685  24.236  18.022   2.827
58468W        W26686  38.879  24.232   3.404
58469W        W26687  44.313  29.713   4.203
58470W        W26688  11.417   1.355   0.515
58471W        W26689  16.228   4.387  13.942
58472W        W26690  18.793  35.382  12.509
58473W        W26691  13.434  13.184  14.847
58474W        W26692   3.040   4.095  13.016
58475W        W26693  20.108  35.432   4.163
58476W        W26694  27.982  44.518   2.351
58477W        W26695  14.806   5.355   3.111
58478W        W26696  36.350   1.959  13.492
58479W        W26697  24.292  18.703   0.067
58480W        W26698   5.771  42.982   1.010
58481W        W26699  30.913  40.858   4.415
58482W        W26700  16.359  15.658  12.172
58483W        W26701  16.826  30.381  11.579
58484W        W26702  31.370  21.074   4.138
58485W        W26703   0.858   8.459  11.580
58486W        W26704   9.485  29.647  13.865
58487W        W26705  19.528  32.618   3.743
58488W        W26706  26.853   9.646   3.721
58489W        W26707  22.234  43.438   0.772
58490W        W26708  18.864   6.817  10.731
58491W        W26709  44.152  19.163   2.782
58492W        W26710  31.220  24.679   1.189
58493W        W26711  39.084  11.913   3.291
58494W        W26712  17.527  40.262  13.470
58495W        W26713  26.763  38.310   5.140
58496W        W26714  33.793  19.097   4.613
58497W        W26715   5.891  40.989   0.518
58498W        W26716  24.432  18.585   3.817
58499W        W26717  35.507  20.066  11.216
58500W        W26718  27.979  44.332  12.950
58501W        W26719  33.893  22.107  10.620
58502W        W26720  42.489  12.084   2.938
58503W        W26721  36.055  17.525   2.392
58504W        W26722   5.964  33.595   3.242
58505W        W26723   8.114  30.127   2.293
58506W        W26724   4.237   3.779  11.261
58507W        W26725  38.546  18.247   0.249
58508W        W26726   9.706  10.922   0.723
58509W        W26727  30.200   8.424   3.702
58510W        W26728  17.500  23.986  14.928
58511W        W26729  18.551   0.373   3.655
58512W        W26730  28.055   4.179  10.262
58513W        W26731  22.200  24.951   1.308
58514W        W26732  16.219  44.505  13.194
58515W        W26733  42.038  16.318   3.134
58516W        W26734  27.668  18.647   0.182
58517W        W26735  15.405   0.986   4.259
58518W        W26736  22.718  11.567  13.227
58519W        W26737  44.899   3.728   3.255
58520W        W26738   1.048  19.871   0.447
58521W        W26739  31.515  29.162   1.299
58522W        W26740  16.842  13.798  14.564
58523W        W26741  32.079  14.214  10.219
58524W        W26742  17.059  27.869  10.537
58525W        W26743  11.241  26.184   3.660
58526W        W26744  32.960  11.143   0.501
58527W        W26745  23.468  18.089  13.572
58528W        W26746  40.506  23.199   0.040
58529W        W26747  23.160  37.898   0.296
58530W        W26748  41.789  40.400   2.935
58531W        W26749  23.021  11.854  12.145
58532W        W26750  13.372  29.171   1.458
58533W        W26751  33.898   3.450   2.745
58534W        W26752  10.270   9.158  10.952
58535W        W26753   1.516  42.946   3.725
58536W        W26754  13.771  36.680   4.208
58537W        W26755  33.223  39.696   2.346
58538W        W26756  13.683  41.058   1.316
58539W        W26757  28.522  17.185   5.046
58540W        W26758  14.735  10.313  12.935
58541W        W26759  25.195  20.512  12.638
58542W        W26760  21.817  22.369   3.466
58543W        W26761  19.132  27.183   3.719
58544W        W26762  20.561  41.354   0.254
58545W        W26763  31.603  37.418  13.865
58546W        W26764  37.104   9.312  11.774
58547W        W26765  24.258   1.947   4.011
58548W        W26766  36.470   0.019   4.117
58549W        W26767  28.633  18.510   3.596
58550W        W26768  27.014   9.131  11.620
58551W        W26769  33.360  26.647  13.933
58552W        W26770  38.980  18.192  13.423
58553W        W26771  13.711  41.454   9.813
58554W        W26772   8.240  29.203   3.560
58555W        W26773   4.550  41.070  12.959
58556W        W26774  41.926  15.597  14.909
58557W        W26775  31.553  33.094  13.147
58558W        W26776  33.519  31.092  13.894
58559W        W26777  30.126  29.462   2.067
58560W        W26778  14.201  18.554   1.229
58561W        W26779  25.189  10.773   3.261
58562W        W26780  44.164  11.985   0.937
58563W        W26781  38.427  29.034  12.181
58564W        W26782  40.977  33.851  13.929
58565W        W26783  44.901  35.954  13.145
58566W        W26784  22.561  26.736   1.549
58567W        W26785  15.689  33.945   4.505
58568W        W26786  43.839  21.658  10.322
58569W        W26787  28.590  43.102   1.981
58570W        W26788  12.709  43.324   5.014
58571W        W26789  22.395  19.992  11.097
58572W        W26790   4.392  34.168  11.030
58573W        W26791  15.132  28.712   1.181
58574W        W26792  26.413  24.067   2.752
58575W        W26793   8.450  42.404   5.089
58576W        W26794  10.390  34.269  11.263
58577W        W26795  18.587  28.136  12.947
58578W        W26796  16.103  17.257  13.264
58579W        W26797  19.675  38.947  11.183
58580W        W26798  33.074   4.821   2.477
58581W        W26799  44.210  42.437   4.562
58582W        W26800  35.687  23.722  10.673
58583W        W26801  14.233  30.867   3.855
58584W        W26802   3.025  38.444  12.170
58585W        W26803  25.178   1.174   2.167
58586W        W26804  20.109   1.276   0.886
58587W        W26805  22.386  38.829  10.573
58588W        W26806  14.354  10.333   3.912
58589W        W26807  34.450  39.923   2.703
58590W        W26808  24.004  35.058   4.207
58591W        W26809  40.175  38.158  12.157
58592W        W26810  15.520  18.675   0.312
58593W        W26811   6.185   9.919  11.598
58594W        W26812  25.099   3.445  12.561
58595W        W26813  34.154  25.944   2.830
58596W        W26814  44.078  38.918   2.447
58597W        W26815  33.476  41.412  12.568
58598W        W26816  28.256  22.712  13.445
58599W        W26817  30.926  28.400  12.434
58600W        W26818   4.787  10.720   3.103
58601W        W26819  26.582  26.028   4.977
58602W        W26820   9.187   0.811   4.239
58603W        W26821  23.670  24.090  12.014
58604W        W26822   2.273  14.535   4.087
58605W        W26823  26.420  11.075   0.829
58606W        W26824  17.038  12.379   1.841
58607W        W26825  10.827  31.173   3.748
58608W        W26826  23.076  41.739  13.113
58609W        W26827  20.033  42.322  11.511
58610W        W26828   5.827  14.814   4.031
58611W        W26829  33.519  29.696  11.500
58612W        W26830  38.313  11.332   1.312
58613W        W26831  34.341  38.301   0.166
58614W        W26832   9.342  23.611   3.670
58615W        W26833  44.706   6.370   3.182
58616W        W26834   5.806  33.345   3.695
58617W        W26835  30.124   1.409  10.731
58618W        W26836  29.869  19.544  10.806
58619W        W26837  29.293  30.446  12.068
58620W        W26838  29.630  28.536  12.917
58621W        W26839  32.168  31.109  14.849
58622W        W26840  26.202  25.487   0.309
58623W        W26841  44.322  13.761   3.777
58624W        W26842  34.049  10.389   3.056
58625W        W26843  21.448  41.624   2.553
58626W        W26844  22.114   6.704  14.883
58627W        W26845   6.623   4.448   0.836
58628W        W26846  26.184  41.004   0.745
58629W        W26847  24.087  26.328  10.071
58630W        W26848  36.901  32.510   4.576
58631W        W26849   6.836   1.810   2.766
58632W        W26850  13.794  23.545  13.390
58633W        W26851  38.894  22.981  13.420
58634W        W26852   5.281  26.961  13.517
58635W        W26853   4.652   4.983   1.789
58636W        W26854  29.528   2.330  14.390
58637W        W26855  15.064  20.053   3.708
58638W        W26856  41.634  35.585   2.359
58639W        W26857  39.444  21.066  12.380
58640W        W26858  19.611  29.084   1.225
58641W        W26859  41.367   8.902   2.123
58642W        W26860  31.227  15.388   1.767
58643W        W26861  10.122  13.326   0.921
58644W        W26862  15.720  20.953   0.357
58645W        W26863  13.719  24.226  14.869
58646W        W26864   6.142  19.688  13.777
58647W        W26865  44.807  13.265   4.189
58648W        W26866  19.606   6.617  13.056
58649W        W26867  22.202  30.417   2.161
58650W        W26868  31.047  15.826   4.656
58651W        W26869  13.306  20.250   1.235
58652W        W26870  26.499  35.329  14.986
58653W        W26871  25.654  31.762   0.851
58654W        W26872  23.297  25.105  12.088
58655W        W26873  31.545  15.359  12.935
58656W        W26874  18.292   3.682  12.927
58657W        W26875  13.624   5.206   0.770
58658W        W26876  42.873  27.950  13.378
58659W        W26877  41.493  25.538  13.448
58660W        W26878  15.625  27.176   1.692
58661W        W26879   3.828  16.386   2.719
58662W        W26880  31.330  41.961  14.347
58663W        W26881  32.832   3.817   3.167
58664W        W26882  36.543  42.426  12.607
58665W        W26883  40.875  33.405  14.932
58666W        W26884  24.001   5.654  14.044
58667W        W26885  43.502  21.650   3.736
58668W        W26886   0.264  11.242   0.949
58669W        W26887  43.406   7.138  10.991
58670W        W26888  41.002  38.356   2.151
58671W        W26889  40.374  14.878  12.176
58672W        W26890  19.449   8.498  10.734
58673W        W26891  23.844  27.439  11.523
58674W        W26892  21.291  29.180  12.902
58675W        W26893  34.629  21.831  10.785
58676W        W26894  16.235  33.615  11.161
58677W        W26895   6.979  30.090   0.851
58678W        W26896   4.215  10.310   3.656
58679W        W26897  18.767  21.473  11.576
58680W        W26898  44.931  29.790  12.940
58681W        W26899  17.928  21.219   9.946
58682W        W26900  25.938  23.518  13.551
58683W        W26901  17.276  21.479  14.845
58684W        W26902   4.738  19.342   1.744
58685W        W26903  28.518  11.021   2.243
58686W        W26904   4.387  16.293   3.485
58687W        W26905  21.197  30.903   3.291
58688W        W26906  15.321  17.327   3.199
58689W        W26907   9.926  25.564  10.926
58690W        W26908   5.027  21.144  12.933
58691W        W26909   5.823  33.123   4.545
58692W        W26910  37.893  32.014   5.034
58693W        W26911   8.175  18.182   0.964
58694W        W26912  12.132  19.064  13.981
58695W        W26913  44.486  29.450   3.642
58696W        W26914  21.600  19.611   0.909
58697W        W26915  33.773  39.017   9.733
58698W        W26916  34.085  43.509   1.903
58699W        W26917  29.966   3.006  14.934
58700W        W26918   5.547  39.169   1.700
58701W        W26919  40.004  39.842   3.808
58702W        W26920  35.997  16.689   2.212
58703W        W26921  42.932  37.364   1.714
58704W        W26922  13.660  13.545   3.249
58705W        W26923  36.833  18.745  10.528
58706W        W26924  25.528  18.250  10.671
58707W        W26925  20.440  25.552  11.582
58708W        W26926  30.537  40.238  12.969
58709W        W26927   4.278  24.888  10.786
58710W        W26928  14.057   2.259   2.638
58711W        W26929  21.549  33.990   0.777
58712W        W26930  19.688  24.546   4.364
58713W        W26931  41.365  42.560  10.877
58714W        W26932  39.432  14.666  12.124
58715W        W26933  37.614  27.754   3.807
58716W        W26934  17.825  19.048   3.123
58717W        W26935  36.626  19.644  12.869
58718W        W26936  37.534  29.469   0.774
58719W        W26937  18.610  31.136   1.191
58720W        W26938   7.971   7.738  13.864
58721W        W26939   1.750  13.364  14.923
58722W        W26940   2.029  41.792  11.030
58723W        W26941   3.122  33.543  14.812
58724W        W26942  43.845  27.023  10.940
58725W        W26943  14.660   4.303   4.630
58726W        W26944  11.298  25.950   1.240
58727W        W26945  38.858   9.911   4.073
58728W        W26946   2.348  42.806  14.764
58729W        W26947  16.502  11.294   1.030
58730W        W26948  37.565  29.205  11.140
58731W        W26949  39.982  23.246   1.416
58732W        W26950  10.289   3.861   4.444
58733W        W26951  15.366  34.685   3.926
58734W        W26952  12.764   7.016   4.665
58735W        W26953  19.852  22.187   2.286
58736W        W26954  40.310  19.487   0.952
58737W        W26955  44.903  18.227   0.806
58738W        W26956  27.205  37.519   0.486
58739W        W26957  16.802  12.900  14.543
58740W        W26958  16.658  44.226   9.899
58741W        W26959  36.317  38.982   1.402
58742W        W26960  12.631  38.638  13.130
58743W        W26961  23.665  34.623  13.610
58744W        W26962   4.721  12.817   0.886
58745W        W26963  25.599  34.514  12.010
58746W        W26964  13.822  30.155  13.052
58747W        W26965   6.928  43.106   3.612
58748W        W26966  23.219   0.495   4.857
58749W        W26967  28.807  41.770  10.554
58750W        W26968  42.693  12.784   0.939
58751W        W26969  16.792  42.402   0.855
58752W        W26970  24.464  10.175   1.279
58753W        W26971  12.109  13.198   4.502
58754W        W26972   0.825  23.639  13.517
58755W        W26973  16.181  26.658   0.960
58756W        W26974  40.514   6.870   0.219
58757W        W26975  22.177   8.266  14.486
58758W        W26976   2.942  30.503  12.675
58759W        W26977   7.204   0.932   2.453
58760W        W26978   1.502  40.998   0.890
58761W        W26979  26.383  44.105   1.837
58762W        W26980   9.718  26.972   4.581
58763W        W26981  35.101  42.693   9.926
58764W        W26982  36.781   1.038   2.077
58765W        W26983  31.878  33.694  12.925
58766W        W26984  11.050   5.331   0.884
58767W        W26985  37.274   0.313   1.885
58768W        W26986  18.507  40.524   2.793
58769W        W26987  15.137  39.064  13.961
58770W        W26988  21.664  20.179   1.750
58771W        W26989  40.063  31.489   3.148
58772W        W26990  21.343  42.562  14.427
58773W        W26991  13.828  13.681  11.149
58774W        W26992  28.674  40.048  12.961
58775W        W26993   1.948  13.298   1.337
58776W        W26994  10.710   2.695  12.595
58777W        W26995  17.324  28.620   2.088
58778W        W26996   8.445  33.107  13.537
58779W        W26997  25.560  37.709  12.952
58780W        W26998   2.293  34.070   4.764
58781W        W26999  14.128  33.494   3.752
58782W        W27000   0.587   6.951   0.457
58783W        W27001  24.910  39.134   3.110
58784W        W27002  24.917  14.619  10.571
58785W        W27003   1.351  11.201   2.835
58786W        W27004  20.551  34.955  14.083
58787W        W27005  25.134  41.490   2.335
58788W        W27006  35.527   2.205  13.983
58789W        W27007   6.236  37.436  14.570
58790W        W27008  25.095  41.602  11.106
58791W        W27009  22.989   9.849  14.824
58792W        W27010  38.595  10.192   0.243
58793W        W27011  44.822   3.450   2.823
58794W        W27012  21.466  38.280   1.375
58795W        W27013  22.235   5.111   4.992
58796W        W27014  18.092  38.996  10.314
58797W        W27015   0.882   5.333   1.460
58798W        W27016  39.371  28.759   3.006
58799W        W27017  17.645   0.360   2.372
58800W        W27018  23.442  15.889   3.381
58801W        W27019   1.524  33.087  11.117
58802W        W27020   7.730   9.194  11.895
58803W        W27021  37.041  43.358  13.618
58804W        W27022  26.105  32.087  12.509
58805W        W27023  30.653  43.819   0.832
58806W        W27024  34.914  29.652  12.399
58807W        W27025  34.385   7.852   4.340
58808W        W27026   8.691  15.248   3.156
58809W        W27027   4.073  10.173  12.590
58810W        W27028  17.465  25.446  11.665
58811W        W27029  30.258  29.804   1.695
58812W        W27030  29.517  30.733  11.192
58813W        W27031  18.390   7.145   2.685
58814W        W27032  11.845  27.637  13.932
58815W        W27033  30.649   4.072  14.007
58816W        W27034  10.022  43.956  10.679
58817W        W27035  13.118  32.730  11.572
58818W        W27036  36.196  43.454   2.803
58819W        W27037  12.260  30.747  10.721
58820W        W27038  29.745  35.545  13.228
58821W        W27039  16.152  15.601  14.572
58822W        W27040   3.467  31.294   1.214
58823W        W27041  11.486   2.509  14.963
58824W        W27042  21.677  37.815   1.487
58825W        W27043  39.459  28.598  14.749
58826W        W27044  15.225   9.701   2.517
58827W        W27045   6.276  34.573   3.301
58828W        W27046  39.739  38.362  14.713
58829W        W27047   5.915  23.045   2.189
58830W        W27048  24.099  23.044   2.006
58831W        W27049   0.805  35.833   1.164
58832W        W27050   1.981   9.460  11.639
58833W        W27051  13.118   2.814   1.644
58834W        W27052  32.674  28.608  13.074
58835W        W27053  17.240  15.934   1.133
58836W        W27054  13.776  36.313   0.091
58837W        W27055  14.561  12.568  14.947
58838W        W27056   1.831  34.424   4.104
58839W        W27057  14.623  41.844   0.656
58840W        W27058  18.744  30.676   1.395
58841W        W27059  35.420   3.104  10.153
58842W        W27060  19.000   5.163   2.165
58843W        W27061  18.902   8.632  12.729
58844W        W27062  44.516  20.960  11.122
58845W        W27063  44.874  41.217  11.056
58846W        W27064   7.650  21.144   2.203
58847W        W27065  10.707  27.134  11.173
58848W        W27066   4.879   8.312  13.709
58849W        W27067  40.374  12.567   3.589
58850W        W27068  35.637  37.856   4.162
58851W        W27069  36.194  21.941  14.816
58852W        W27070  43.210  16.431   1.884
58853W        W27071  40.746  43.400   1.655
58854W        W27072  17.238  43.380   1.608
58855W        W27073  32.670  30.474   2.118
58856W        W27074  27.428  40.833  11.152
58857W        W27075   4.225  43.825   0.830
58858W        W27076   7.121  38.331   1.382
58859W        W27077  41.283  38.450  13.839
58860W        W27078  12.262   6.474  11.199
58861W        W27079  34.795  44.547  11.082
58862W        W27080   8.027   8.275  13.114
58863W        W27081  13.160  17.804  12.485
58864W        W27082  37.705   3.965   4.912
58865W        W27083  40.919  32.927  13.483
58866W        W27084  15.805   8.259   1.799
58867W        W27085   7.857   2.499  14.825
58868W        W27086  35.001   5.785   2.108
58869W        W27087  42.427  42.526   3.148
58870W        W27088  25.068  32.911  12.630
58871W        W27089  34.341  31.452   4.580
58872W        W27090  32.208  43.081  12.018
58873W        W27091  29.632  18.316  10.656
58874W        W27092  42.273  36.411   3.631
58875W        W27093  25.063  41.119  11.241
58876W        W27094  11.373  20.193   0.298
58877W        W27095   0.873   1.940  11.390
58878W        W27096  17.122  25.731   3.303
58879W        W27097  34.381  30.599   1.010
58880W        W27098  27.966  40.810  11.159
58881W        W27099  24.033   6.274   0.946
58882W        W27100  33.785   2.160  11.655
58883W        W27101  23.785   5.897   2.358
58884W        W27102  18.250   9.646   2.723
58885W        W27103  28.392  31.054  12.534
58886W        W27104  30.156  28.423   1.357
58887W        W27105  21.201  24.274  14.293
58888W        W27106  30.242  10.209   3.117
58889W        W27107  22.608  41.938   2.544
58890W        W27108  30.546  19.222  14.764
58891W        W27109  22.960   6.728  14.906
58892W        W27110   9.269  33.684   3.173
58893W        W27111  17.791   0.594   3.237
58894W        W27112   9.261  34.445   4.547
58895W        W27113  22.816  24.489  11.191
58896W        W27114  29.518  30.612  14.916
58897W        W27115   3.302  37.601  11.976
58898W        W27116  20.763  42.354  13.565
58899W        W27117  24.973  30.059  11.609
58900W        W27118  10.726  30.447   0.506
58901W        W27119  24.513   6.115   1.292
58902W        W27120   7.399  24.682  10.906
58903W        W27121   0.467  23.182  11.524
58904W        W27122   3.924  37.672   1.756
58905W        W27123  14.154  18.829  12.639
58906W        W27124  23.351  20.269  11.038
58907W        W27125  40.362  42.182   0.944
58908W        W27126   8.179  19.988   0.183
58909W        W27127  10.913  17.462   3.679
58910W        W27128  41.957  22.793  12.759
58911W        W27129  34.081  16.624   2.883
58912W        W27130  29.239  44.479   4.627
58913W        W27131  26.258  25.626   0.807
58914W        W27132  37.298  36.923  12.505
58915W        W27133   9.159   5.347  10.430
58916W        W27134  36.665  28.403  10.947
58917W        W27135   4.327  35.831  14.303
58918W        W27136   7.746   0.300  13.161
58919W        W27137  32.344   6.969   3.525
58920W        W27138  33.550  14.725  13.358
58921W        W27139   6.779  39.420   4.258
58922W        W27140  21.549  18.670   3.175
58923W        W27141   5.322  25.642  14.825
58924W        W27142  22.598  22.233  12.482
58925W        W27143   1.301  15.394  13.149
58926W        W27144  30.464  25.798  13.846
58927W        W27145  44.730  43.455  11.627
58928W        W27146  23.675  36.464  10.245
58929W        W27147   7.146  12.744  12.578
58930W        W27148  31.816   9.117   2.239
58931W        W27149  35.441  10.178  13.607
58932W        W27150  32.141  19.403   5.085
58933W        W27151  16.739  16.677  13.381
58934W        W27152  10.290  42.124  11.201
58935W        W27153   5.849   8.631  11.283
58936W        W27154   2.855  33.193  13.912
58937W        W27155  41.320  28.570   2.825
58938W        W27156  16.687   7.988  13.321
58939W        W27157  34.282  42.255   0.295
58940W        W27158  22.017  32.478  10.973
58941W        W27159  12.540  31.483  10.987
58942W        W27160  38.076  13.086  12.989
58943W        W27161  33.730  15.898  12.115
58944W        W27162  12.342  35.493   4.912
58945W        W27163  38.792  41.550  10.230
58946W        W27164  10.246   5.467   0.494
58947W        W27165  27.924   5.856   0.384
58948W        W27166  20.755  24.146  11.588
58949W        W27167  14.166   6.670  14.247
58950W        W27168  38.630  37.694  14.711
58951W        W27169  27.410   0.669   1.759
58952W        W27170   3.521  22.473  12.532
58953W        W27171   2.472  19.772   1.942
58954W        W27172  15.125   6.602  14.738
58955W        W27173   9.685  31.508  13.513
58956W        W27174   2.006  32.943  12.099
58957W        W27175   7.675  43.766   0.198
58958W        W27176  30.085  16.584  10.757
58959W        W27177  36.385  27.656   0.784
58960W        W27178  15.127  34.969  14.711
58961W        W27179  20.995  39.935  10.750
58962W        W27180  14.589   4.625   0.452
58963W        W27181  27.152  10.376  14.865
58964W        W27182  44.235  20.306   2.423
58965W        W27183  12.747  24.684   0.522
58966W        W27184  12.413  11.650  14.473
58967W        W27185   1.829  24.318  13.020
58968W        W27186  12.461   8.969   5.204
58969W        W27187  26.239   2.820  14.348
58970W        W27188   3.778  12.311   2.801
58971W        W27189  40.360  23.117  11.554
58972W        W27190  21.291  43.237  13.878
58973W        W27191  34.327  34.991  12.905
58974W        W27192  43.967  16.767   2.392
58975W        W27193  33.566  10.111   2.325
58976W        W27194  28.006  29.415  14.394
58977W        W27195   0.391  33.053   0.516
58978W        W27196  18.655   8.182  11.008
58979W        W27197   5.664   2.226   2.442
58980W        W27198  19.730  15.310   4.593
58981W        W27199  22.263  13.241  13.486
58982W        W27200  35.319  37.602  12.963
58983W        W27201  11.729  16.628   4.896
58984W        W27202  32.716  31.051  12.929
58985W        W27203  31.640  18.611   1.861
58986W        W27204  39.561  36.571   2.298
58987W        W27205  38.039  12.884   0.035
58988W        W27206  35.300  26.129  11.237
58989W        W27207  15.830  10.312   0.410
58990W        W27208   9.179  28.501  10.654
58991W        W27209  31.932  19.968   0.858
58992W        W27210  43.769  16.682  13.626
58993W        W27211   9.835  16.646  13.648
58994W        W27212  16.210  25.571   4.615
58995W        W27213   6.795  15.281   1.730
58996W        W27214   1.677  22.724  11.489
58997W        W27215  19.156  17.035   2.887
58998W        W27216  25.588  18.744   4.506
58999W        W27217  31.396  43.215   2.375
59000W        W27218   1.475  30.088   0.794
59001W        W27219   1.715   5.413   3.567
59002W        W27220  25.136  26.563   2.134
59003W        W27221  15.961  36.547  12.960
59004W        W27222  40.033   7.750   4.537
59005W        W27223  13.586  43.968   1.647
59006W        W27224   2.956  19.368  12.631
59007W        W27225   5.469  22.206  10.740
59008W        W27226  18.715  29.216   1.097
59009W        W27227   4.280   8.847   3.799
59010W        W27228   8.159  34.774  10.770
59011W        W27229  17.263  19.523   4.845
59012W        W27230  25.675   2.709   2.800
59013W        W27231  25.616  14.163   2.698
59014W        W27232  24.645  12.080   0.752
59015W        W27233  12.683  36.667  10.891
59016W        W27234   1.280   3.479  13.850
59017W        W27235   6.860  40.900  13.971
59018W        W27236   6.692  18.349  14.814
59019W        W27237  31.597  24.424  12.053
59020W        W27238  28.020   4.961   4.481
59021W        W27239  29.919  44.828   4.683
59022W        W27240  18.305  32.079   1.382
59023W        W27241  29.175  13.539  10.951
59024W        W27242  13.911  24.513   2.752
59025W        W27243   9.175   6.252   1.343
59026W        W27244  37.053  30.652  14.263
59027W        W27245  44.215  44.435  14.029
59028W        W27246  12.190  24.032  14.776
59029W        W27247  43.969   3.868  10.686
59030W        W27248   4.912  14.554   1.835
59031W        W27249  19.647  44.933   4.424
59032W        W27250   9.821  26.592   0.462
59033W        W27251  14.637  43.174  11.172
59034W        W27252  43.451   1.757   0.891
59035W        W27253  12.906  42.479  11.154
59036W        W27254  17.833  41.620   2.885
59037W        W27255  36.440  32.006  12.612
59038W        W27256   7.268  16.509   3.882
59039W        W27257  16.669  32.415   0.053
59040W        W27258  12.171  35.404  14.507
59041W        W27259  35.488   4.472  10.846
59042W        W27260  21.483   9.333   0.303
59043W        W27261  36.952  17.789   3.629
59044W        W27262  32.386  14.151   2.771
59045W        W27263   7.702  20.791  13.444
59046W        W27264  10.961  21.247  11.491
59047W        W27265  26.257  41.017  13.389
59048W        W27266  36.483  14.622  13.851
59049W        W27267  19.020   0.171   2.878
59050W        W27268  29.200  32.344   1.821
59051W        W27269  15.559   4.739  10.663
59052W        W27270   6.446  20.263  13.659
59053W        W27271  12.783   7.413  12.984
59054W        W27272  17.287  33.605   9.966
59055W        W27273  25.748  27.963   2.720
59056W        W27274  43.307  16.304  11.110
59057W        W27275  16.771  41.736   4.285
59058W        W27276  17.743  40.081   3.387
59059W        W27277   8.752  35.385   1.242
59060W        W27278  36.764  42.265  11.876
59061W        W27279  16.288   1.448   0.028
59062W        W27280  11.232   7.247   2.550
59063W        W27281  36.154  16.800   3.670
59064W        W27282  27.131  26.531   1.764
59065W        W27283  24.604  21.136  13.012
59066W        W27284  41.424  30.956  12.959
59067W        W27285  39.379  22.463  13.864
59068W        W27286  33.878   4.401   0.932
59069W        W27287   1.850  38.358  10.810
59070W        W27288  30.547  10.151  13.417
59071W        W27289  28.470   7.476   0.983
59072W        W27290  43.919  32.904  13.323
59073W        W27291  39.865  33.258   0.993
59074W        W27292  10.915  15.571   0.380
59075W        W27293  43.784  26.654   0.722
59076W        W27294  29.928  44.359   0.836
59077W        W27295  11.213  11.923   3.745
59078W        W27296   2.699  38.270  12.559
59079W        W27297   3.388   0.321  14.095
59080W        W27298  34.074  18.533   1.671
59081W        W27299  16.110  14.685  10.728
59082W        W27300  35.971  14.786  13.108
59083W        W27301   9.191  27.868  14.529
59084W        W27302  42.201  15.037  14.407
59085W        W27303   1.488  39.511  13.974
59086W        W27304   5.745   7.144  10.738
59087W        W27305   9.791  12.888  11.681
59088W        W27306  42.458   2.725  13.119
59089W        W27307  25.170  35.043   1.008
59090W        W27308  26.374  10.545   0.838
59091W        W27309  11.113  18.046   3.026
59092W        W27310  32.030  20.058  14.585
59093W        W27311  25.559  38.540   2.697
59094W        W27312  27.834  31.452   0.662
59095W        W27313  31.384  34.126  13.783
59096W        W27314  13.857   3.426   2.012
59097W        W27315  31.569   1.019  12.576
59098W        W27316  19.745  44.432  13.613
59099W        W27317   7.713  15.217  13.137
59100W        W27318  38.403  21.187  14.862
59101W        W27319  12.800   6.558   4.865
59102W        W27320  35.514  14.533  13.046
59103W        W27321   7.106  21.602  14.008
59104W        W27322   1.719  20.132  11.038
59105W        W27323  25.379  16.348  11.578
59106W        W27324  26.635   7.820  13.326
59107W        W27325  43.740  34.499  14.825
59108W        W27326  13.828  41.472   4.011
59109W        W27327   6.942  32.398  14.768
59110W        W27328  14.771  30.250  12.214
59111W        W27329  34.997  38.984   4.588
59112W        W27330   5.193  39.026   3.654
59113W        W27331  13.554  17.250   0.533
59114W        W27332  17.858   0.139   1.758
59115W        W27333  13.980  17.606   2.139
59116W        W27334  25.792   5.754  13.423
59117W        W27335  28.260  39.206   3.605
59118W        W27336  11.223  19.997   1.690
59119W        W27337   5.264  13.621  14.492
59120W        W27338  44.013  18.845  10.618
59121W        W27339  11.334  19.182   4.841
59122W        W27340   3.664  21.277   3.217
59123W        W27341  32.486  40.258  12.554
59124W        W27342  42.459   1.802   2.634
59125W        W27343  37.430  34.639   1.362
59126W        W27344  18.345  41.595   0.940
59127W        W27345  16.883   9.870  13.430
59128W        W27346  25.110  34.064   3.564
59129W        W27347  32.925  18.113   4.321
59130W        W27348  26.655  29.820   0.317
59131W        W27349  12.067  31.808   0.778
59132W        W27350  36.377   5.131   2.168
59133W        W27351   6.327  42.446   0.388
59134W        W27352  39.571  43.367   0.824
59135W        W27353  10.729  35.501  11.037
59136W        W27354  17.124  31.047   4.487
59137W        W27355  23.959  27.503   0.365
59138W        W27356  41.537  34.183   1.349
59139W        W27357  39.842  42.320  11.673
59140W        W27358  37.079  30.037   2.822
59141W        W27359  36.984  10.256  13.596
59142W        W27360   1.367  23.422  12.800
59143W        W27361  22.979  15.965  12.960
59144W        W27362  38.283  41.745   4.124
59145W        W27363  42.550  39.057  13.689
59146W        W27364  16.106  39.746   4.654
59147W        W27365  36.356  33.404  11.507
59148W        W27366  19.467   9.561  14.929
59149W        W27367   8.303  31.132  11.466
59150W        W27368  30.922   8.651  13.045
59151W        W27369  31.944  43.116   4.556
59152W        W27370  21.770  34.345   0.045
59153W        W27371  27.077  37.870   4.400
59154W        W27372  13.793  27.078  13.927
59155W        W27373   7.749   6.304  13.848
59156W        W27374  18.780  21.697   3.229
59157W        W27375  43.403  32.947  12.199
59158W        W27376  27.057  19.034  14.515
59159W        W27377  19.745  17.840  12.059
59160W        W27378   4.551  13.775  12.473
59161W        W27379  14.188  24.122   0.219
59162W        W27380  38.605  42.761   1.288
59163W        W27381  14.749  37.992   0.910
59164W        W27382  35.385  29.570  14.106
59165W        W27383   0.211  43.265  10.820
59166W        W27384  19.200  21.629   1.194
59167W        W27385   4.529  16.454  11.861
59168W        W27386  32.186  19.752   4.181
59169W        W27387   1.863   3.771   1.415
59170W        W27388  22.161   8.393  10.621
59171W        W27389  12.238  16.564   0.952
59172W        W27390  23.611   7.863  14.730
59173W        W27391  32.566   9.943  10.206
59174W        W27392  42.830  13.072  12.899
59175W        W27393  34.008  11.593  13.097
59176W        W27394  33.600  10.233   3.273
59177W        W27395  11.941  11.330  11.245
59178W        W27396   1.159  24.048   2.654
59179W        W27397   5.727   3.880  11.524
59180W        W27398  40.558  25.695  12.376
59181W        W27399  28.074  22.981   4.059
59182W        W27400  36.472   7.990  12.767
59183W        W27401  44.202  40.331   1.843
59184W        W27402  43.405  29.306   0.308
59185W        W27403  20.120  22.713  12.119
59186W        W27404  16.224  23.630   0.286
59187W        W27405   9.626   4.478   1.727
59188W        W27406  23.377  34.682   5.076
59189W        W27407  17.993  24.459  13.833
59190W        W27408  44.880  16.855   4.223
59191W        W27409  14.549  12.259  12.010
59192W        W27410  41.309  19.333  13.932
59193W        W27411  39.372  12.608   2.400
59194W        W27412   8.931  12.758  14.234
59195W        W27413  31.609  12.796   0.073
59196W        W27414  27.500  32.138   0.483
59197W        W27415  26.846  42.457   0.295
59198W        W27416  44.704  40.378   2.762
59199W        W27417  37.173  26.089   1.725
59200W        W27418  25.362  21.077   1.721
59201W        W27419   2.998  24.642  14.455
59202W        W27420  39.422  39.233   2.653
59203W        W27421  43.065  15.819   4.540
59204W        W27422  13.266  16.129   0.921
59205W        W27423  18.144  12.287   9.864
59206W        W27424  34.438   0.530  11.404
59207W        W27425  34.413  25.302  13.414
59208W        W27426  37.954  40.335  11.248
59209W        W27427  30.469  21.603   3.885
59210W        W27428  40.379  13.580  11.232
59211W        W27429  20.326  38.913   2.893
59212W        W27430   0.252   7.721   3.274
59213W        W27431  36.544  44.088  12.060
59214W        W27432  40.332  43.506   0.385
59215W        W27433  14.061   8.694  10.738
59216W        W27434  31.615   7.814  14.133
59217W        W27435  17.334  17.040   4.612
59218W        W27436  31.546   8.309   2.688
59219W        W27437  32.421  15.166  10.814
59220W        W27438  38.833  25.865   4.159
59221W        W27439   4.606   5.894   4.649
59222W        W27440  28.888  31.522  12.832
59223W        W27441   8.636  33.278   3.620
59224W        W27442  32.020  18.814   0.225
59225W        W27443  31.111  30.349   1.766
59226W        W27444  26.611  29.887  12.596
59227W        W27445  27.509  16.150  12.529
59228W        W27446  35.089  12.194  13.756
59229W        W27447  21.723  42.811  11.006
59230W        W27448  13.818   0.681  12.991
59231W        W27449  27.043   6.435   1.774
59232W        W27450   4.208   1.571   0.926
59233W        W27451  14.242  33.961  14.320
59234W        W27452  23.379  12.828   0.434
59235W        W27453  38.884  32.404  10.534
59236W        W27454   6.686   3.939   3.143
59237W        W27455   1.891  21.574   3.257
59238W        W27456  13.746   4.588  12.490
59239W        W27457  23.080  31.931   4.641
59240W        W27458  10.825   1.526   1.925
59241W        W27459  14.463   6.731   0.911
59242W        W27460  11.329  11.160   1.011
59243W        W27461   3.757  12.069  13.056
59244W        W27462  39.295  35.523   0.410
59245W        W27463  12.982  23.128  14.538
59246W        W27464  17.366  17.957  11.445
59247W        W27465  30.220  13.391   3.318
59248W        W27466  29.304  31.587   1.012
59249W        W27467  34.507  35.360   0.829
59250W        W27468   9.822  42.468   2.419
59251W        W27469   5.313  19.268   1.438
59252W        W27470  43.898  10.156   3.371
59253W        W27471  11.391  29.183  10.542
59254W        W27472  23.032  15.304   0.420
59255W        W27473  31.504  19.536  12.685
59256W        W27474   2.764  31.509  12.755
59257W        W27475  38.495  39.035  13.298
59258W        W27476  22.763  35.997   4.789
59259W        W27477  32.392  22.427   3.073
59260W        W27478  20.262  38.023   0.832
59261W        W27479   7.291  10.340   2.676
59262W        W27480  33.668   1.950  13.117
59263W        W27481  20.063  11.770   1.855
59264W        W27482  17.098  31.576   1.884
59265W        W27483   9.118   0.958   1.901
59266W        W27484  29.585  40.411   0.922
59267W        W27485  15.320  10.694  14.760
59268W        W27486   5.514   0.405  14.254
59269W        W27487  28.452  14.704   0.269
59270W        W27488   3.092  17.224   2.621
59271W        W27489   5.812  22.095  13.970
59272W        W27490  13.396  29.519  14.409
59273W        W27491  28.633   5.279  11.072
59274W        W27492  33.465  35.310   0.881
59275W        W27493  20.014  39.146  14.731
59276W        W27494   3.672   5.326   4.112
59277W        W27495  28.169   5.015  14.270
59278W        W27496  31.877   3.650  14.362
59279W        W27497  23.282  43.066   4.544
59280W        W27498   1.727  36.594  14.460
59281W        W27499  17.217  29.496   2.150
59282W        W27500  11.182  18.279  13.587
59283W        W27501  16.557  37.147  11.675
59284W        W27502  25.122   9.723  12.407
59285W        W27503  31.544  41.573  11.484
59286W        W27504   7.145   4.143   4.113
59287W        W27505  10.705  27.419   3.616
59288W        W27506  10.771  14.366  10.581
59289W        W27507   5.402  37.858   2.800
59290W        W27508  11.363  40.457   3.166
59291W        W27509  26.686  19.755   3.814
59292W        W27510  21.146  35.960  10.142
59293W        W27511  10.799  10.298   3.881
59294W        W27512  28.481  20.628  14.549
59295W        W27513  23.987  15.552  12.858
59296W        W27514  32.640  17.670   2.016
59297W        W27515  34.474   1.501  14.826
59298W        W27516  27.771   3.183  10.293
59299W        W27517  39.857  36.139  12.470
59300W        W27518   2.304   8.258  14.828
59301W        W27519  28.799  29.134  12.809
59302W        W27520  10.398  38.371   0.973
59303W        W27521  41.723   2.694  10.383
59304W        W27522   1.235  26.853  12.114
59305W        W27523  29.136  23.136  14.887
59306W        W27524  25.433  24.604   0.348
59307W        W27525  14.540  43.054  14.014
59308W        W27526  10.361  21.110   4.920
59309W        W27527  28.988  32.144  12.166
59310W        W27528  16.173  30.783   0.560
59311W        W27529  19.881  17.172  13.509
59312W        W27530   1.437  12.470  12.347
59313W        W27531  11.381   5.301  14.063
59314W        W27532  17.035  18.560  12.539
59315W        W27533  22.756  35.291  14.485
59316W        W27534  33.373  19.501   0.779
59317W        W27535  15.679  32.418  14.999
59318W        W27536  32.633   6.768  10.734
59319W        W27537   1.316  20.976  10.365
59320W        W27538  41.237  38.056   1.291
59321W        W27539   8.632  43.767   0.320
59322W        W27540  41.774  26.945   2.377
59323W        W27541  26.196  18.219  14.864
59324W        W27542  21.753  35.448   1.936
59325W        W27543  21.667   3.205   2.091
59326W        W27544  17.248  42.518  13.989
59327W        W27545  38.479  16.387   1.025
59328W        W27546  13.792  13.310  12.548
59329W        W27547  23.054  20.539   1.359
59330W        W27548  16.727  11.569  14.824
59331W        W27549  27.067  36.894  10.825
59332W        W27550  39.955  35.035  13.476
59333W        W27551  18.858  12.312  11.047
59334W        W27552  32.139  17.629  13.473
59335W        W27553  42.479   8.226   0.272
59336W        W27554  27.635   9.686  12.681
59337W        W27555  36.463   4.590  12.229
59338W        W27556  20.379   9.340   0.852
59339W        W27557   5.907  15.005  14.364
59340W        W27558   0.655  26.898  12.519
59341W        W27559   8.195  15.957   2.246
59342W        W27560  15.681  41.511  14.748
59343W        W27561  40.290  22.543  10.317
59344W        W27562   4.284  23.303   4.223
59345W        W27563  37.874   6.305  14.027
59346W        W27564  16.761  14.560  13.497
59347W        W27565  42.497  35.100   0.787
59348W        W27566  33.102   5.953   4.081
59349W        W27567  24.456  25.977   1.936
59350W        W27568  14.348  25.112   4.669
59351W        W27569  18.977  20.994  10.201
59352W        W27570  28.075   2.685   2.225
59353W        W27571  43.899  12.507   2.285
59354W        W27572   0.441  19.141  12.423
59355W        W27573  26.821  41.443   3.815
59356W        W27574  36.032  20.511   4.674
59357W        W27575  30.932   2.907  12.969
59358W        W27576  27.807   6.135   0.864
59359W        W27577   3.780  30.568  14.879
59360W        W27578  25.702   1.762   0.710
59361W        W27579  42.411   2.935   4.338
59362W        W27580   4.358  13.906   2.232
59363W        W27581  14.729   6.338   4.568
59364W        W27582   3.431  19.198  13.500
59365W        W27583  40.068  19.969   0.937
59366W        W27584  33.986  14.868  10.709
59367W        W27585  41.021   3.157  12.075
59368W        W27586   0.630  27.174  13.378
59369W        W27587  15.118  35.006   1.617
59370W        W27588  19.666   1.672  14.032
59371W        W27589  26.271  37.581   1.260
59372W        W27590  22.132  20.663   4.106
59373W        W27591  15.887  26.105   4.904
59374W        W27592  35.196  25.496   0.934
59375W        W27593  16.030  12.395   0.915
59376W        W27594  21.558   7.497  13.976
59377W        W27595  14.055  24.740  14.326
59378W        W27596  31.715  27.023  11.620
59379W        W27597   2.043  18.806   0.302
59380W        W27598   0.763  42.724   0.374
59381W        W27599   6.353  14.529   4.216
59382W        W27600  34.009  21.144  10.773
59383W        W27601   8.833  22.475   3.790
59384W        W27602  17.740  44.008  13.384
59385W        W27603  41.496  22.261   3.710
59386W        W27604  31.961   5.625  10.352
59387W        W27605  24.687  37.393   4.236
59388W        W27606  26.604  19.255   0.778
59389W        W27607  39.520  31.480  13.065
59390W        W27608  31.091  26.366   1.257
59391W        W27609   2.711  22.184  11.272
59392W        W27610  43.568  41.476   1.351
59393W        W27611  41.575  26.638  11.893
59394W        W27612  33.885   8.379   4.817
59395W        W27613  11.413   2.242  11.574
59396W        W27614  36.160  44.862   0.859
59397W        W27615   9.683  29.308  11.130
59398W        W27616  15.550  39.219  11.612
59399W        W27617  44.264  22.974  12.575
59400W        W27618  39.134  41.888   0.320
59401W        W27619  33.905   8.440  10.742
59402W        W27620  26.010  38.765   4.385
59403W        W27621  41.529  29.708   2.416
59404W        W27622   9.737   9.712   3.550
59405W        W27623  33.849  30.363   2.719
59406W        W27624  12.368  33.109  14.914
59407W        W27625  34.165  43.368  14.433
59408W        W27626   8.621  19.131  13.031
59409W        W27627  23.598  23.632  14.964
59410W        W27628  14.823  15.231  11.480
59411W        W27629   4.151  29.926  14.362
59412W        W27630  14.163  14.200   1.333
59413W        W27631  24.643  42.805  13.515
59414W        W27632  41.217  30.144  14.128
59415W        W27633   8.067  20.206  11.004
59416W        W27634   0.938   0.438   4.257
59417W        W27635  44.193  44.910  12.666
59418W        W27636  41.552  37.117   0.767
59419W        W27637  10.371  18.349  13.565
59420W        W27638  17.164  25.328  11.244
59421W        W27639  23.960  15.182   1.402
59422W        W27640   5.886  37.985  10.866
59423W        W27641  12.318  28.146  11.474
59424W        W27642  18.620  42.946  14.754
59425W        W27643  21.548  22.769  13.380
59426W        W27644  38.829  41.013  10.234
59427W        W27645  44.359  35.925   1.855
59428W        W27646  31.417   5.695   2.374
59429W        W27647  39.178   1.264   3.680
59430W        W27648  35.327  11.347   3.610
59431W        W27649  31.623  26.456   1.300
59432W        W27650   6.439  39.819   3.513
59433W        W27651  21.596  40.377  11.236
59434W        W27652  12.529  43.291   4.163
59435W        W27653  15.051  13.224  10.736
59436W        W27654  14.340   5.930  13.505
59437W        W27655  35.970  44.038  12.867
59438W        W27656  13.757  10.211  13.926
59439W        W27657   9.358   3.364  10.407
59440W        W27658  10.348  20.548  13.046
59441W        W27659   6.431  15.486  10.538
59442W        W27660   5.402  39.819  14.194
59443W        W27661  36.346  35.550   2.715
59444W        W27662  40.485  20.007  14.163
59445W        W27663  36.453  25.331  13.129
59446W        W27664  41.432  29.469  13.586
59447W        W27665  35.612  38.789  11.934
59448W        W27666  33.887  16.067   1.211
59449W        W27667   8.925  42.785   5.683
59450W        W27668  28.886  36.812   3.101
59451W        W27669   8.453  12.670  12.046
59452W        W27670  14.773  37.764   1.833
59453W        W27671   1.523   7.210   3.722
59454W        W27672  13.114  15.747  11.635
59455W        W27673  36.762   8.075   2.822
59456W        W27674  31.369  32.277  12.041
59457W        W27675  38.608  21.717   0.059
59458W        W27676  15.317  32.763   4.811
59459W        W27677  39.536  25.995   1.740
59460W        W27678  44.441  37.489   1.739
59461W        W27679  20.581  16.371   1.307
59462W        W27680  29.635  35.465   4.727
59463W        W27681   5.057   5.710  14.300
59464W        W27682  35.823   0.914   0.401
59465W        W27683  24.048  25.249   4.288
59466W        W27684  10.570  44.023   0.792
59467W        W27685  16.735  34.849   3.600
59468W        W27686  19.254   7.327   2.842
59469W        W27687  29.061  34.205  13.304
59470W        W27688  23.030  26.118  14.997
59471W        W27689   4.440  32.323  12.100
59472W        W27690  17.580  35.572  14.855
59473W        W27691   5.200  12.090   3.633
59474W        W27692   3.751  26.411   2.853
59475W        W27693   8.710  34.662  11.972
59476W        W27694   7.808  37.100   2.270
59477W        W27695   4.196  42.825  12.360
59478W        W27696  18.569  33.972   5.380
59479W        W27697  25.880   3.769   0.967
59480W        W27698  40.951  31.009   3.753
59481W        W27699   7.659   1.493   1.673
59482W        W27700  37.120  13.957  14.067
59483W        W27701  40.271   9.908   2.340
59484W        W27702  12.282  44.037   3.716
59485W        W27703  18.948  38.961  11.676
59486W        W27704  39.475  40.939   4.512
59487W        W27705  19.834  13.664  11.157
59488W        W27706  13.628  15.103   0.570
59489W        W27707   8.244   0.351  10.924
59490W        W27708  44.745  42.463  11.318
59491W        W27709  16.831  11.730  12.794
59492W        W27710  31.133  21.820  13.477
59493W        W27711  30.503  40.826  12.980
59494W        W27712   1.518   3.505  10.723
59495W        W27713  29.939  41.275  11.585
59496W        W27714  44.342  20.941  10.241
59497W        W27715  11.418  17.430   3.647
59498W        W27716  32.359  28.292  14.202
59499W        W27717  26.549  38.419  11.621
59500W        W27718   7.395  44.791   3.753
59501W        W27719  10.121   4.037   2.282
59502W        W27720  29.379  39.481   3.226
59503W        W27721  41.070   1.468  12.933
59504W        W27722  38.230  25.521  10.887
59505W        W27723   3.470  29.163  12.976
59506W        W27724   2.457  34.015   2.440
59507W        W27725  20.549  32.564   0.865
59508W        W27726  28.565  19.229  14.455
59509W        W27727  39.939  23.910   2.743
59510W        W27728  14.518   5.233  10.795
59511W        W27729  33.569  31.442   0.399
59512W        W27730  16.327   1.471  14.015
59513W        W27731  16.138  18.335  14.950
59514W        W27732  33.487  28.535  10.748
59515W        W27733  28.089  41.816   0.984
59516W        W27734  21.778  17.487  11.140
59517W        W27735  25.650   1.929   5.140
59518W        W27736  15.510  31.933   0.173
59519W        W27737  29.052  19.278  11.649
59520W        W27738   9.362   8.961   3.691
59521W        W27739  17.196   5.061   4.133
59522W        W27740  29.945  15.543  13.513
59523W        W27741   2.925   0.525  14.849
59524W        W27742  25.053  16.304   1.461
59525W        W27743  27.568  23.234   1.551
59526W        W27744  42.996  17.827   0.365
59527W        W27745   5.639  19.433   1.035
59528W        W27746   7.495  11.035   4.044
59529W        W27747  27.647  13.297  12.250
59530W        W27748  26.657  14.805   0.844
59531W        W27749  36.065   1.870   4.201
59532W        W27750   0.903  28.718  11.142
59533W        W27751  39.020  41.329  12.598
59534W        W27752  18.530  35.507  11.583
59535W        W27753  18.770  32.859   2.305
59536W        W27754  36.701   4.288  12.572
59537W        W27755  10.021  29.497  10.788
59538W        W27756  24.614   4.664   0.944
59539W        W27757  22.108   5.636   3.597
59540W        W27758  43.111   7.288  12.910
59541W        W27759   2.802  43.497  11.002
59542W        W27760   1.950  12.195   2.040
59543W        W27761   3.420  34.987  13.412
59544W        W27762  17.561   3.518  12.176
59545W        W27763   8.406  23.796   0.774
59546W        W27764  33.896   2.073   0.887
59547W        W27765  33.101  39.986  13.847
59548W        W27766  10.965   3.230  12.694
59549W        W27767   5.256  10.826  12.419
59550W        W27768  28.327   1.958   1.436
59551W        W27769  33.566  16.553   2.791
59552W        W27770  11.678  24.121  14.709
59553W        W27771  34.536   3.768   0.949
59554W        W27772  30.065  37.135  12.725
59555W        W27773  36.067  16.766   1.310
59556W        W27774   4.259  35.469  11.823
59557W        W27775  37.092  40.987  13.847
59558W        W27776  32.935  10.640   2.046
59559W        W27777  33.807  32.995  13.978
59560W        W27778  22.593  29.186  11.201
59561W        W27779   0.242  24.027  10.734
59562W        W27780  11.818   7.380   3.197
59563W        W27781   7.640  17.341  13.111
59564W        W27782  12.634  34.117  14.310
59565W        W27783  28.958  28.144  10.971
59566W        W27784  30.586  34.429   4.548
59567W        W27785  30.393  16.391   3.328
59568W        W27786  12.096   9.111  13.126
59569W        W27787   1.015  32.708   2.156
59570W        W27788  30.915  26.881   1.241
59571W        W27789   0.900  11.241   3.595
59572W        W27790   6.706  36.042   4.903
59573W        W27791  42.545  28.579  14.024
59574W        W27792  27.796   2.433  13.920
59575W        W27793   1.354  21.513   1.008
59576W        W27794   6.099  36.799   4.794
59577W        W27795  23.201  41.847   0.954
59578W        W27796  32.938  13.626   3.181
59579W        W27797  23.591  20.746   3.631
59580W        W27798  18.905  40.828   2.704
59581W        W27799   3.867  18.565   1.429
59582W        W27800  37.917   1.288   2.487
59583W        W27801  43.272  29.735  13.537
59584W        W27802  33.305  37.969  12.432
59585W        W27803  28.399  23.179   2.697
59586W        W27804  33.616   9.684  13.745
59587W        W27805  33.882   0.393  10.653
59588W        W27806  14.257   1.961   0.917
59589W        W27807  16.333   7.145  12.429
59590W        W27808  11.671  16.159   4.688
59591W        W27809  10.774   1.845  10.691
59592W        W27810  24.491  14.828  10.903
59593W        W27811  12.843  33.869  11.096
59594W        W27812  29.183  27.569  12.135
59595W        W27813  33.762  28.191   4.101
59596W        W27814  22.300   3.377  11.042
59597W        W27815  20.606  16.839   4.085
59598W        W27816  21.034   0.918   4.168
59599W        W27817  15.834  17.031  13.820
59600W        W27818  25.080  30.214   1.330
59601W        W27819   5.309  27.960  14.946
59602W        W27820  21.224  15.106  14.158
59603W        W27821   2.015  16.484  14.360
59604W        W27822   0.482  26.515   1.238
59605W        W27823  44.836   7.628  13.363
59606W        W27824  43.917  27.881  10.662
59607W        W27825  39.732  31.561  11.887
59608W        W27826   4.203  40.551   4.359
59609W        W27827   1.753   1.347  11.172
59610W        W27828  20.669  16.763  10.560
59611W        W27829  13.885  15.508  11.831
59612W        W27830   6.429  17.190   2.199
59613W        W27831  34.693  20.677   4.325
59614W        W27832  31.674   3.626   4.464
59615W        W27833   4.875  31.386  11.136
59616W        W27834  16.390  21.468   0.933
59617W        W27835  33.091  44.931  12.230
59618W        W27836  18.684  16.015  13.102
59619W        W27837  41.042   2.146  12.229
59620W        W27838  24.028   5.040  13.402
59621W        W27839  44.879  30.222   2.781
59622W        W27840   8.124   2.400   0.281
59623W        W27841  21.298  39.969   4.250
59624W        W27842  42.059   2.458  14.413
59625W        W27843  42.779  15.237   2.822
59626W        W27844  12.576  18.226  13.954
59627W        W27845  10.681   3.169   0.037
59628W        W27846  38.199  37.815  10.697
59629W        W27847  27.947  20.748   1.268
59630W        W27848  42.410  29.396   1.210
59631W        W27849  27.888  16.603   2.346
59632W        W27850   2.713  25.149   3.743
59633W        W27851  43.950  39.401   2.873
59634W        W27852  21.522  44.090   3.679
59635W        W27853  41.986  32.045   0.587
59636W        W27854  21.596  16.284  13.874
59637W        W27855  39.721   1.591   3.137
59638W        W27856   9.179  28.094   1.482
59639W        W27857  39.927  38.905  12.640
59640W        W27858   3.300  40.723   2.559
59641W        W27859  12.056  30.513   4.957
59642W        W27860  42.319   0.037   3.246
59643W        W27861   8.373  35.524  13.476
59644W        W27862  40.840  33.528  10.035
59645W        W27863   0.013  40.449   2.281
59646W        W27864  14.373  27.450  13.784
59647W        W27865  23.458  25.705  10.595
59648W        W27866  24.432  37.412   2.856
59649W        W27867  39.842  28.194   1.121
59650W        W27868  20.731  24.047   2.371
59651W        W27869  18.880   9.842   3.325
59652W        W27870  33.891  43.480  12.175
59653W        W27871  31.574  19.609   2.337
59654W        W27872   9.279  18.164  12.381
59655W        W27873   8.746   0.934  14.583
59656W        W27874   4.366  10.243   4.948
59657W        W27875   3.762  40.757   4.511
59658W        W27876   8.276  10.503  14.341
59659W        W27877  20.317  44.662   2.254
59660W        W27878  13.606  11.748   2.751
59661W        W27879  34.775  27.489  11.891
59662W        W27880  21.026  39.568   1.687
59663W        W27881  36.686  20.945   5.019
59664W        W27882  40.996  18.037  13.909
59665W        W27883  28.575  44.882  13.336
59666W        W27884  20.142  44.432  11.528
59667W        W27885  39.421  30.898   3.642
59668W        W27886  24.112  33.877   3.290
59669W        W27887  44.723  25.058  14.951
59670W        W27888  24.608  38.929  10.599
59671W        W27889  35.826  12.930   2.968
59672W        W27890  11.781   9.395   3.173
59673W        W27891  31.114   7.416   0.354
59674W        W27892   3.157   7.675   3.337
59675W        W27893  15.507  36.915   2.794
59676W        W27894  23.664  35.822  11.585
59677W        W27895  18.118  33.200  11.499
59678W        W27896  28.488  31.345   1.334
59679W        W27897  42.875  27.734   3.769
59680W        W27898  27.695   4.952   4.105
59681W        W27899  39.278  44.402   0.465
59682W        W27900  33.153  30.504   0.272
59683W        W27901  12.096   5.546  11.168
59684W        W27902  14.034  28.444   0.374
59685W        W27903  25.082  30.427  14.765
59686W        W27904  11.288  16.343   4.997
59687W        W27905   5.680  17.456   5.016
59688W        W27906  36.029  41.551  11.010
59689W        W27907   0.193  19.759  13.296
59690W        W27908   6.952  18.810  12.200
59691W        W27909  37.838  31.871   4.193
59692W        W27910  29.168  17.616   1.866
59693W        W27911  21.521  17.777  13.914
59694W        W27912  17.388  37.604  11.460
59695W        W27913  23.491  41.976  11.664
59696W        W27914  11.390  33.475   0.463
59697W        W27915  34.877  21.701   4.439
59698W        W27916  16.451  28.039   2.792
59699W        W27917   3.734  10.649   4.458
59700W        W27918  28.397  28.294   1.244
59701W        W27919  19.201   2.949  12.932
59702W        W27920   0.709  17.691  13.126
59703W        W27921   4.249  24.820   4.152
59704W        W27922  10.647  35.088   1.466
59705W        W27923  14.287   2.927  11.076
59706W        W27924  24.550  26.177  11.444
59707W        W27925  25.603  36.319   2.679
59708W        W27926  42.915   5.455   3.648
59709W        W27927  23.293  33.166  13.949
59710W        W27928  24.680  17.170   3.331
59711W        W27929  24.217  18.946  13.484
59712W        W27930  32.975  36.244  12.547
59713W        W27931   5.593  13.548  12.407
59714W        W27932  11.636  18.791   0.486
59715W        W27933   9.668  14.090  12.329
59716W        W27934   6.356  26.239  13.509
59717W        W27935   9.906  35.976   4.104
59718W        W27936  12.292  10.407   2.237
59719W        W27937  32.551  26.546  11.678
59720W        W27938  32.551  28.850  10.824
59721W        W27939  20.257  15.843   5.028
59722W        W27940  13.506  24.134   1.317
59723W        W27941  40.302  14.732  11.207
59724W        W27942  13.141  29.132  11.664
59725W        W27943   4.823  43.547  14.269
59726W        W27944   4.282   8.082  11.194
59727W        W27945   3.458  19.762  14.595
59728W        W27946  20.155  28.113  13.839
59729W        W27947  30.176  34.643   0.910
59730W        W27948  27.012  34.172  14.547
59731W        W27949  38.274   5.307   1.642
59732W        W27950  21.213  24.703   4.692
59733W        W27951  22.722  30.474   4.600
59734W        W27952  11.789  40.479   0.299
59735W        W27953  11.823   8.424  12.881
59736W        W27954  29.533  29.022   4.036
59737W        W27955  35.581  40.156  10.756
59738W        W27956  20.189   8.883  14.064
59739W        W27957  35.439   0.302  14.800
59740W        W27958   9.236  26.485   0.714
59741W        W27959   4.729  23.600   4.159
59742W        W27960  33.069  18.066   3.245
59743W        W27961  37.793  32.459   3.279
59744W        W27962  16.722  44.734   1.708
59745W        W27963  16.852  34.562   1.219
59746W        W27964  10.800   0.396   4.978
59747W        W27965  43.261  38.997   2.311
59748W        W27966  38.915  12.994  14.213
59749W        W27967   9.043  44.360  11.956
59750W        W27968  29.100  37.776  11.150
59751W        W27969  26.483  27.083  12.837
59752W        W27970   4.519  30.012  12.467
59753W        W27971  15.627   9.311   0.959
59754W        W27972  27.583  29.508  10.994
59755W        W27973   7.230   0.402  11.989
59756W        W27974  33.667   8.902  10.460
59757W        W27975  38.968  26.962  11.137
59758W        W27976  39.969  23.629   3.184
59759W        W27977  40.572   4.789   0.765
59760W        W27978  20.281   9.611   0.171
59761W        W27979  27.385  16.643   2.272
59762W        W27980  30.735   0.794   0.642
59763W        W27981   5.451  15.224  14.489
59764W        W27982  21.081  44.318  13.456
59765W        W27983  14.376  39.006  12.428
59766W        W27984  31.456  44.539  13.661
59767W        W27985  34.038  36.550   1.770
59768W        W27986  13.654  32.904   0.789
59769W        W27987  23.185  29.468   1.338
59770W        W27988  23.264  22.204   2.710
59771W        W27989  40.199  14.343   1.035
59772W        W27990  24.530  37.316   4.731
59773W        W27991  13.849  39.777   3.758
59774W        W27992   0.182   5.304  12.357
59775W        W27993  23.174  13.340   4.552
59776W        W27994  27.167  13.765   3.819
59777W        W27995  38.816  17.170  10.779
59778W        W27996   1.864  34.397   4.619
59779W        W27997  13.727  23.722  12.174
59780W        W27998  43.403   0.289  12.551
59781W        W27999   5.911   3.435  11.857
59782W        W28000  22.336  19.595  10.652
59783W        W28001  40.951  32.128  14.334
59784W        W28002   8.308  27.037   3.186
59785W        W28003  30.411  17.285  14.035
59786W        W28004  27.938  12.142   2.350
59787W        W28005  18.769  13.372   2.692
59788W        W28006  23.078   0.001   4.583
59789W        W28007  44.563  30.569  14.633
59790W        W28008  15.805   6.287   4.930
59791W        W28009  44.808  21.645  10.668
59792W        W28010   8.098  21.980   2.168
59793W        W28011   1.077  27.109   0.317
59794W        W28012  13.360   4.758  10.107
59795W        W28013  34.566  13.668  11.971
59796W        W28014  29.965  39.973  13.507
59797W        W28015  27.660  44.264   0.341
59798W        W28016  39.858  20.032  14.816
59799W        W28017  11.082  32.593  13.822
59800W        W28018  18.661   1.745  13.104
59801W        W28019  24.727   1.735   1.285
59802W        W28020  10.864  16.724   0.577
59803W        W28021  24.203  37.614   4.186
59804W        W28022   8.859  26.113   0.750
59805W        W28023  23.052  29.176   2.737
59806W        W28024  21.226  21.554   4.223
59807W        W28025  16.377  20.405   4.692
59808W        W28026  19.211  37.406   2.748
59809W        W28027   0.875   6.857   0.909
59810W        W28028  11.278  39.067  11.721
59811W        W28029   7.217  17.155   3.998
59812W        W28030  11.409  12.199   0.280
59813W        W28031  27.912  28.493   1.369
59814W        W28032  39.618   0.321   2.812
59815W        W28033   7.963  32.398   3.290
59816W        W28034  41.366   9.648  14.386
59817W        W28035  40.002  38.048   3.305
59818W        W28036  20.805  29.663   3.731
59819W        W28037  41.494   5.446  13.057
59820W        W28038   9.157  26.146  13.521
59821W        W28039  19.388  21.224   1.954
59822W        W28040  10.771  11.296  12.006
59823W        W28041  40.426  27.906   0.275
59824W        W28042  20.632  24.320   0.033
59825W        W28043  43.920   3.426  11.586
59826W        W28044  33.902  13.751  11.508
59827W        W28045  16.817   2.952  12.006
59828W        W28046  18.479  38.819  11.533
59829W        W28047  32.932   2.730   0.630
59830W        W28048  20.247  31.665  11.587
59831W        W28049   4.340  31.458  14.448
59832W        W28050   6.769  43.875   0.638
59833W        W28051  15.856  25.775  13.329
59834W        W28052  44.138   3.264   1.817
59835W        W28053   3.202  16.813   0.570
59836W        W28054  10.772  34.024   1.416
59837W        W28055  12.686  23.037  13.572
59838W        W28056  10.148  15.297  13.823
59839W        W28057   6.271  44.218  12.603
59840W        W28058  16.337   8.249  13.719
59841W        W28059  15.071  11.303  11.650
59842W        W28060   0.808   1.400  11.609
59843W        W28061  30.545   4.732   3.626
59844W        W28062  38.623  25.370  10.566
59845W        W28063   6.153  24.614  14.490
59846W        W28064  13.290   7.710  13.665
59847W        W28065  31.584  44.383  12.655
59848W        W28066  19.974  19.136  11.199
59849W        W28067  44.044   6.863  11.167
59850W        W28068  15.592   8.432  13.644
59851W        W28069  23.569   0.288  12.606
59852W        W28070  12.584  38.576   0.450
59853W        W28071  18.617  40.216   3.758
59854W        W28072   6.869  32.650   0.239
59855W        W28073   0.867  39.456   1.806
59856W        W28074  25.287   5.253   2.325
59857W        W28075   4.302  35.597  10.337
59858W        W28076  44.400  10.298   4.078
59859W        W28077   4.333  13.618   4.635
59860W        W28078  33.322  21.570   2.832
59861W        W28079   9.844  16.011   4.177
59862W        W28080   5.218  22.624   3.141
59863W        W28081  15.440  25.509  14.406
59864W        W28082  34.167  34.139   3.677
59865W        W28083   9.967  27.174   3.368
59866W        W28084  20.699  13.987  13.376
59867W        W28085  25.088  17.052   5.108
59868W        W28086  31.307  38.535   3.192
59869W        W28087  18.641  36.073   3.652
59870W        W28088  19.601  30.813   4.174
59871W        W28089  13.142  34.814  12.179
59872W        W28090  42.465   1.571   3.104
59873W        W28091  29.901  35.092  11.091
59874W        W28092  16.643  32.998   0.896
59875W        W28093  26.920  19.124   4.130
59876W        W28094  28.346   7.014  14.819
59877W        W28095   4.098  29.703   1.278
59878W        W28096  33.769  22.130  13.903
59879W        W28097   5.630  33.573  12.050
59880W        W28098  41.607  16.256  13.011
59881W        W28099  21.051   3.618  14.091
59882W        W28100   7.996  22.354   1.044
59883W        W28101  10.154  43.302  11.957
59884W        W28102  20.552  10.708   3.902
59885W        W28103  41.545  34.147   2.296
59886W        W28104   8.830   9.119   4.766
59887W        W28105  12.663  22.075  10.886
59888W        W28106  33.881  30.097   2.240
59889W        W28107  32.603  33.853  11.705
59890W        W28108   3.156  26.028  13.544
59891W        W28109  22.087  22.219   1.346
59892W        W28110  35.818  22.056  14.464
59893W        W28111   2.748  16.700   2.851
59894W        W28112  32.250  33.250  10.297
59895W        W28113  35.891  36.516  13.757
59896W        W28114  28.773   0.883  12.522
59897W        W28115  43.772  34.449  12.982
59898W        W28116  34.457  37.816  13.381
59899W        W28117  35.046  22.289  12.800
59900W        W28118  39.884  39.518  12.310
59901W        W28119  42.155  41.019  12.505
59902W        W28120  38.332  18.541  12.991
59903W        W28121  42.923  28.209   0.767
59904W        W28122  26.010  27.393   4.587
59905W        W28123  23.150   0.832  10.739
59906W        W28124   5.307  30.502   0.267
59907W        W28125  30.962  19.104   2.756
59908W        W28126  32.194  10.301  12.096
59909W        W28127  14.098  16.283   1.129
59910W        W28128  26.492  33.876   3.682
59911W        W28129  13.434  21.958   3.249
59912W        W28130  26.079  14.886  11.756
59913W        W28131  23.653  44.727  14.498
59914W        W28132  29.280  17.131  14.090
59915W        W28133  18.701  28.924  11.678
59916W        W28134  17.393  37.477   2.554
59917W        W28135  36.438  23.682  14.310
59918W        W28136  42.272  17.091   2.440
59919W        W28137  12.388  40.391  13.150
59920W        W28138  16.233  20.844  14.755
59921W        W28139   6.877  28.652   1.588
59922W        W28140  40.110  39.058  12.161
59923W        W28141  39.131  23.166   1.247
59924W        W28142  40.019  36.617  14.299
59925W        W28143  17.535  19.462   1.374
59926W        W28144   2.767  29.977   1.453
59927W        W28145  41.309  44.277   2.903
59928W        W28146  16.213   2.215  11.675
59929W        W28147  36.847   7.686  13.580
59930W        W28148  44.406  24.459   2.709
59931W        W28149  39.453  24.081  13.473
59932W        W28150  41.962   9.740   3.263
59933W        W28151  21.049  15.915  14.775
59934W        W28152  10.149   4.836   3.031
59935W        W28153   6.940  23.154   4.458
59936W        W28154   1.972   9.867   1.731
59937W        W28155   2.556  38.792   4.347
59938W        W28156  40.219  13.042  10.514
59939W        W28157  14.904  16.720   1.389
59940W        W28158  18.908  17.179   4.848
59941W        W28159  33.837  28.516  12.468
59942W        W28160  19.214  20.616  11.968
59943W        W28161  43.871  12.853   0.684
59944W        W28162  33.007  27.451   1.773
59945W        W28163  17.164  19.500   0.773
59946W        W28164   9.511   3.342  14.094
59947W        W28165  20.586  15.641  14.513
59948W        W28166   9.332  39.048  11.507
59949W        W28167  16.854   0.536   2.353
59950W        W28168   5.623  18.301  13.881
59951W        W28169   3.105  11.230  13.120
59952W        W28170   5.772  19.485   2.314
59953W        W28171   7.481  35.283   3.392
59954W        W28172  10.896  14.638  12.472
59955W        W28173  44.494   5.750   4.806
59956W        W28174  37.749  39.803  13.411
59957W        W28175  22.180  26.711   1.968
59958W        W28176  16.775  40.428  12.183
59959W        W28177  33.813  36.982  14.894
59960W        W28178  18.426  13.068   2.354
59961W        W28179  33.911  39.761   2.960
59962W        W28180  29.054  33.044   2.496
59963W        W28181   6.743  21.690  12.884
59964W        W28182  21.612   2.926  13.891
59965W        W28183   6.976  35.069  14.383
59966W        W28184  41.566  41.906   3.263
59967W        W28185  24.998   0.382   0.805
59968W        W28186  15.701  23.872   4.133
59969W        W28187  25.575  19.759  11.608
59970W        W28188   6.603  26.814  12.122
59971W        W28189  30.326  17.492   9.793
59972W        W28190  23.136  21.361   1.798
59973W        W28191  38.106  32.119  11.540
59974W        W28192  22.424  23.517  12.066
59975W        W28193   7.567  23.740   4.792
59976W        W28194  11.644   8.934  12.914
59977W        W28195  15.779   3.808   2.478
59978W        W28196  15.605   5.704  14.535
59979W        W28197   5.407   7.183   3.667
59980W        W28198   7.775   0.487   4.596
59981W        W28199  27.685  38.856  11.208
59982W        W28200   5.448  27.399   3.330
59983W        W28201   8.890  38.425  13.367
59984W        W28202  12.165  21.689  10.555
59985W        W28203  17.986  30.249   1.958
59986W        W28204  20.017  40.978   4.278
59987W        W28205  22.147  43.104   3.636
59988W        W28206  35.058   5.837  10.665
59989W        W28207  40.962  17.549  11.983
59990W        W28208  26.517   2.325  13.207
59991W        W28209  17.533  28.993  14.670
59992W        W28210  19.586  37.810   1.876
59993W        W28211   2.054  29.490   1.968
59994W        W28212   0.956   9.375  11.517
59995W        W28213   9.705  26.464  11.693
59996W        W28214   6.252  10.372   1.160
59997W        W28215  32.164  19.646   2.415
59998W        W28216  25.183  21.798  13.942
59999W        W28217  25.274  22.302  11.579
60000W        W28218   7.332  38.823   3.755
60001W        W28219  35.434  21.039  12.971
60002W        W28220  38.333  20.792   2.833
60003W        W28221  34.016   9.761  11.219
60004W        W28222  27.474  19.015   2.678
60005W        W28223   7.226  31.613   4.639
60006W        W28224   7.092   8.921   1.735
60007W        W28225   9.656  32.207  11.984
60008W        W28226  39.293  30.662   1.315
60009W        W28227   0.341  25.501   0.491
60010W        W28228   8.206  25.402   2.267
60011W        W28229   4.841   3.771   3.716
60012W        W28230  34.615   2.864  11.871
60013W        W28231  27.105  40.410  11.165
60014W        W28232  14.290  38.526  14.249
60015W        W28233  37.757  28.994   1.873
60016W        W28234   3.887  39.383   2.491
60017W        W28235  41.400  14.780  11.277
60018W        W28236  23.235  16.812  12.453
60019W        W28237  39.115  26.824   4.569
60020W        W28238  41.330   4.728   3.601
60021W        W28239  36.833   3.908  10.339
60022W        W28240  26.587  14.431   3.080
60023W        W28241  33.648  12.341  12.640
60024W        W28242   9.914  14.583   0.334
60025W        W28243   0.690  43.030   2.371
60026W        W28244   5.387  11.608  11.907
60027W        W28245  10.123   2.353  13.136
60028W        W28246  15.448   4.305   1.263
60029W        W28247  44.187   3.068  12.128
60030W        W28248  43.346  22.638  12.970
60031W        W28249   6.679  17.302   1.750
60032W        W28250  43.499  12.799   2.155
60033W        W28251  39.964   1.404   0.694
60034W        W28252  35.379  42.122   1.360
60035W        W28253   9.265  44.236  12.409
60036W        W28254  23.158  15.809  10.478
60037W        W28255   0.549  23.718  11.027
60038W        W28256  35.139  17.478  12.017
60039W        W28257  30.444   9.914  11.153
60040W        W28258  44.564  31.769   3.196
60041W        W28259  37.514  36.467   0.448
60042W        W28260  11.977  39.492   1.168
60043W        W28261   8.153  39.072   1.356
60044W        W28262  18.797  44.856  10.484
60045W        W28263   7.177  19.362   2.351
60046W        W28264  29.432  10.603   2.314
60047W        W28265  30.440  23.327   1.248
60048W        W28266  22.808  31.675   0.978
60049W        W28267  33.480  22.199  14.340
60050W        W28268  12.117  33.607   2.208
60051W        W28269  34.701  18.819  14.347
60052W        W28270  26.948  36.424  12.377
60053W        W28271  41.745  29.235  14.522
60054W        W28272  42.253  10.055   2.537
60055W        W28273   3.540   4.979  12.930
60056W        W28274   8.677   7.921  14.825
60057W        W28275   1.352  18.203  10.698
60058W        W28276  18.262  36.099  12.941
60059W        W28277  44.869  32.493  10.449
60060W        W28278   6.915  29.864   4.442
60061W        W28279   4.933  18.997   2.667
60062W        W28280   0.360  26.963  14.819
60063W        W28281  25.227  13.778   0.367
60064W        W28282   1.706  29.004  11.467
60065W        W28283  28.364  25.743  10.834
60066W        W28284  10.449  30.605   4.788
60067W        W28285  41.300  16.550   2.295
60068W        W28286  39.854  43.686   2.496
60069W        W28287   1.825   9.766   4.196
60070W        W28288  29.698  22.794   2.131
60071W        W28289   4.773  33.555   0.563
60072W        W28290  43.545  35.040   4.672
60073W        W28291  33.503  10.738   3.251
60074W        W28292   6.759  31.502   3.428
60075W        W28293  30.212  23.455  13.575
60076W        W28294  33.150  23.515  10.568
60077W        W28295  31.518  20.359   1.995
60078W        W28296  41.566  11.579  10.388
60079W        W28297  20.477   2.809  10.801
60080W        W28298   6.934  15.263   0.014
60081W        W28299  35.555  25.860  10.897
60082W        W28300   7.420  20.068   4.677
60083W        W28301  14.837  37.330   3.268
60084W        W28302  18.889  17.824   1.616
60085W        W28303  28.770  24.653  14.848
60086W        W28304  41.550  30.592   2.886
60087W        W28305  23.910   3.284  10.348
60088W        W28306  33.083  27.118  13.843
60089W        W28307  13.201  23.281   2.448
60090W        W28308  32.658  39.565   3.133
60091W        W28309  34.583  44.783   4.191
60092W        W28310  43.927  15.269   3.763
60093W        W28311  14.008   1.523  13.385
60094W        W28312  31.041  29.689   4.821
60095W        W28313  38.853  39.829   4.615
60096W        W28314   4.718  10.690  11.296
60097W        W28315  31.706  25.084   4.114
60098W        W28316  11.840   1.187   0.742
60099W        W28317  40.542  33.129  14.358
60100W        W28318   2.095  41.247   3.734
60101W        W28319  37.504  15.025   1.247
60102W        W28320  13.239  44.881   4.109
60103W        W28321   9.228  23.361   1.849
60104W        W28322   7.205  42.918   0.531
60105W        W28323  36.829   2.147  12.879
60106W        W28324  17.358  15.380  13.911
60107W        W28325  37.001  41.334  12.411
60108W        W28326   1.990  12.548  12.217
60109W        W28327  39.274  21.783   4.212
60110W        W28328  42.736  43.443   1.837
60111W        W28329  29.098  24.646   3.948
60112W        W28330  31.053  13.119   4.971
60113W        W28331  39.392   6.769   4.755
60114W        W28332  10.456  30.938   5.221
60115W        W28333  10.765  22.333  14.700
60116W        W28334  33.784  23.594  13.971
60117W        W28335  27.572  21.143   3.105
60118W        W28336   6.717  32.839   3.661
60119W        W28337   8.312  14.651   4.545
60120W        W28338  20.198  11.460   1.433
60121W        W28339  43.326  38.026  10.934
60122W        W28340  24.613   2.774  14.385
60123W        W28341   5.588  21.441  11.883
60124W        W28342  26.093  17.692  14.845
60125W        W28343  42.560  44.257   4.743
60126W        W28344  16.843  22.703   1.449
60127W        W28345  26.764  37.045   3.734
60128W        W28346  21.284   5.583  14.007
60129W        W28347   0.758  34.061  12.823
60130W        W28348  34.553  15.937   0.862
60131W        W28349  19.389  31.089  13.532
60132W        W28350  37.502  11.672   3.392
60133W        W28351  30.342  26.468   0.402
60134W        W28352   3.962  14.732   1.015
60135W        W28353  41.539  20.611   3.054
60136W        W28354  30.386  38.083  14.986
60137W        W28355  33.580  27.997  13.660
60138W        W28356  27.045   4.780  13.104
60139W        W28357  30.391   2.277  13.309
60140W        W28358  20.757  28.089  10.725
60141W        W28359  44.936  44.970   1.337
60142W        W28360  22.195  34.533  12.462
60143W        W28361  32.701  41.339   2.246
60144W        W28362  16.539  26.122   2.151
60145W        W28363  21.053   2.196  13.066
60146W        W28364  19.504   1.666   4.424
60147W        W28365  38.421  42.492   4.693
60148W        W28366  13.172  11.811   0.528
60149W        W28367  22.032   7.124   3.692
60150W        W28368  17.243  42.948  13.075
60151W        W28369  24.837  23.390  12.021
60152W        W28370   1.635   1.266   0.654
60153W        W28371  23.151  39.421   3.673
60154W        W28372   8.633  20.778  14.515
60155W        W28373  14.253  39.918   4.291
60156W        W28374  15.670   6.226  14.477
60157W        W28375  39.250  27.933   2.369
60158W        W28376  21.059  29.145  12.261
60159W        W28377  14.846  19.901  11.168
60160W        W28378  33.996  34.875   2.416
60161W        W28379  38.592  14.268  12.180
60162W        W28380  18.632  11.642  13.326
60163W        W28381  32.653  28.590  14.767
60164W        W28382   4.701  21.274  10.156
60165W        W28383  24.056  18.577   3.186
60166W        W28384  20.046  40.949  14.741
60167W        W28385  36.361  24.471  13.085
60168W        W28386   0.497  33.950   4.176
60169W        W28387  38.002  29.443   4.597
60170W        W28388  23.534  31.535   1.450
60171W        W28389  38.108  30.298   1.782
60172W        W28390  34.489  15.252  11.921
60173W        W28391   4.430  32.506  13.085
60174W        W28392  16.825  13.232  14.985
60175W        W28393  35.254   4.679   2.888
60176W        W28394  43.230  43.970  13.898
60177W        W28395   5.188  12.020  13.757
60178W        W28396  18.630  27.195  12.187
60179W        W28397   4.144  38.928   2.363
60180W        W28398   8.857  17.555  11.013
60181W        W28399  34.389  23.212  12.481
60182W        W28400  35.832  30.444  11.977
60183W        W28401  14.077   9.943  11.260
60184W        W28402  19.336   6.189   0.987
60185W        W28403  44.523  21.258   3.118
60186W        W28404  44.433  15.556  10.737
60187W        W28405   4.605  22.771   0.950
60188W        W28406   6.447  43.958   4.620
60189W        W28407  15.001  10.061  11.165
60190W        W28408  18.634   0.266   1.274
60191W        W28409  43.014  30.660  14.427
60192W        W28410   6.173  16.974   0.295
60193W        W28411  34.698  38.341   3.047
60194W        W28412  24.403  12.587  14.429
60195W        W28413  27.715  15.218  13.940
60196W        W28414  30.888  39.315   2.227
60197W        W28415  43.921  38.910  11.609
60198W        W28416   0.441  37.172  12.112
60199W        W28417  43.062  12.066  13.889
60200W        W28418  11.681  10.985   4.699
60201W        W28419  44.758   8.709   0.213
60202W        W28420  30.021  40.971  11.159
60203W        W28421  35.287  23.279  13.370
60204W        W28422  10.332  13.588  10.639
60205W        W28423   7.271  18.127  13.564
60206W        W28424   9.075   0.418  13.088
60207W        W28425  21.600   9.908   1.023
60208W        W28426  38.694  26.078  14.868
60209W        W28427  41.234  21.296  14.647
60210W        W28428  12.684  25.189   1.735
60211W        W28429  34.430  23.493   2.902
60212W        W28430  16.479  41.997  13.958
60213W        W28431  31.558  25.128  13.762
60214W        W28432  35.047  33.226   4.096
60215W        W28433  38.970  18.535  11.601
60216W        W28434   6.118  16.685  12.556
60217W        W28435  17.560  41.516  14.823
60218W        W28436  18.643  17.074  12.948
60219W        W28437  44.503  20.152  11.574
60220W        W28438  29.141   0.644   2.298
60221W        W28439  34.084  21.690   0.200
60222W        W28440  35.617  28.654   3.165
60223W        W28441  12.183   3.644  11.180
60224W        W28442  37.745  22.775   0.929
60225W        W28443  12.132   5.293  14.619
60226W        W28444  38.985  35.965   3.136
60227W        W28445  43.723  40.934   3.467
60228W        W28446   5.405   9.715   3.977
60229W        W28447  11.052  17.735  14.909
60230W        W28448   1.519  27.451  13.333
60231W        W28449  20.246  39.438   0.367
60232W        W28450  37.043  14.548  14.977
60233W        W28451   2.825  27.210  14.932
60234W        W28452   5.287  44.438   5.082
60235W        W28453  32.801  31.728  12.152
60236W        W28454  34.285   6.729  11.566
60237W        W28455  40.721  24.555   1.325
60238W        W28456   1.056  43.446   0.661
60239W        W28457  10.278   2.318   3.190
60240W        W28458  37.012  37.382   0.738
60241W        W28459  25.903   3.920  10.518
60242W        W28460  27.645   3.798  14.374
60243W        W28461  32.369   1.777  13.309
60244W        W28462   4.265  43.464   0.074
60245W        W28463  21.385   2.628   1.659
60246W        W28464  11.247  44.033  10.239
60247W        W28465  30.455  27.127   2.164
60248W        W28466  23.914  28.972   3.017
60249W        W28467  38.078  10.966  13.823
60250W        W28468  40.912  21.257   1.495
60251W        W28469  18.384  37.955   3.630
60252W        W28470  28.983  37.474   4.276
60253W        W28471  18.093   0.618   2.300
60254W        W28472  43.924  26.395  12.556
60255W        W28473  37.427   4.073   2.829
60256W        W28474   6.272  25.977   1.870
60257W        W28475  25.935  29.116  12.073
60258W        W28476  31.052  42.851   2.455
60259W        W28477  31.923  24.719   0.204
60260W        W28478  40.387   8.318  14.957
60261W        W28479  38.452   3.917   5.375
60262W        W28480  35.413  30.047   3.440
60263W        W28481  22.227  43.849  12.515
60264W        W28482  37.876  34.522  13.437
60265W        W28483  37.264   5.572   2.565
60266W        W28484   2.224   7.411  12.920
60267W        W28485   7.564  18.563   3.153
60268W        W28486  30.188  35.327  11.516
60269W        W28487  14.283  20.723   0.380
60270W        W28488   5.321  24.197   1.546
60271W        W28489  19.804   7.665  12.527
60272W        W28490   4.520  28.611  14.893
60273W        W28491  14.477  33.947   0.539
60274W        W28492  17.557  11.724  11.480
60275W        W28493  33.091  22.587   1.473
60276W        W28494  13.382  18.801  12.235
60277W        W28495  43.525  12.312  13.939
60278W        W28496  27.464  25.049   2.862
60279W        W28497  17.478   0.066  12.627
60280W        W28498  13.880  24.733  14.836
60281W        W28499   8.035   5.623   2.237
60282W        W28500   1.275  30.595   0.792
60283W        W28501   2.958   9.708   2.889
60284W        W28502  33.848  17.187   1.838
60285W        W28503   6.822  22.003  11.195
60286W        W28504  31.579   6.438   5.063
60287W        W28505  32.960  10.256  12.786
60288W        W28506  42.355   5.280  12.373
60289W        W28507   1.946  16.763  10.701
60290W        W28508  26.595   4.299   2.685
60291W        W28509  40.287   0.365  13.616
60292W        W28510   7.143  10.643   4.127
60293W        W28511  32.527  41.384   2.749
60294W        W28512  19.129  20.653   2.202
60295W        W28513   7.374  14.919   3.176
60296W        W28514  36.509  26.692  13.624
60297W        W28515  32.625  40.676  12.882
60298W        W28516   2.416   4.301   0.786
60299W        W28517  38.259  23.708  14.980
60300W        W28518  36.883  12.917  13.975
60301W        W28519  18.244   7.645   2.773
60302W        W28520  21.227  42.839  10.866
60303W        W28521  40.999  27.129   2.602
60304W        W28522   9.176  31.424  13.486
60305W        W28523  42.680  15.224  14.320
60306W        W28524  21.225  27.107  14.870
60307W        W28525  30.159  12.143   2.672
60308W        W28526   9.209  25.136   0.552
60309W        W28527  43.900  28.788  13.842
60310W        W28528   1.444  10.761  12.020
60311W        W28529  25.269  33.406  11.051
60312W        W28530  18.218   3.020   5.013
60313W        W28531  18.772  39.892  13.438
60314W        W28532   5.394   3.406  10.605
60315W        W28533  14.146  35.414  10.696
60316W        W28534  28.698  26.510   2.172
60317W        W28535  13.119  17.774   4.863
60318W        W28536  13.775  21.243  14.919
60319W        W28537   8.825   3.889   0.836
60320W        W28538  14.928   7.934  11.525
60321W        W28539  20.946  42.372  10.797
60322W        W28540  24.528  30.464   3.583
60323W        W28541  22.019  37.243  13.043
60324W        W28542  26.155  11.735  11.165
60325W        W28543  33.543  31.509  11.494
60326W        W28544  19.252  26.563   4.386
60327W        W28545  43.493   6.318  12.460
60328W        W28546  18.736  27.264  13.022
60329W        W28547  40.061  44.808  14.408
60330W        W28548  13.824  22.557   3.775
60331W        W28549  15.659  19.730   3.208
60332W        W28550  32.132   9.765   0.702
60333W        W28551   7.314  43.648  12.757
60334W        W28552  17.746  26.688   2.760
60335W        W28553  29.166   2.344  10.484
60336W        W28554  28.740  29.248   4.770
60337W        W28555  31.959  20.486  12.665
60338W        W28556  20.198  25.653   2.850
60339W        W28557  15.292  30.996   0.468
60340W        W28558  26.435  18.492  13.361
60341W        W28559  15.599   1.769   0.387
60342W        W28560   4.737  40.990   1.019
60343W        W28561   4.249   5.845   1.882
60344W        W28562  31.891  41.787   3.320
60345W        W28563  42.049  44.495   2.632
60346W        W28564  12.733  33.601  12.589
60347W        W28565  40.894  10.258   4.661
60348W        W28566  32.056   7.031  13.924
60349W        W28567  40.956  39.389   0.689
60350W        W28568   4.815   8.638   2.386
60351W        W28569  30.744  26.531   2.308
60352W        W28570  26.710  33.683   5.065
60353W        W28571  21.966  15.065   3.250
60354W        W28572  34.838   3.527  13.113
60355W        W28573  39.915   4.366   2.398
60356W        W28574  31.014   3.466   0.498
60357W        W28575  20.208  25.580  11.121
60358W        W28576  22.718  32.814  14.774
60359W        W28577  20.668  31.679  12.425
60360W        W28578  43.329  43.358   2.446
60361W        W28579   6.711  33.357   3.694
60362W        W28580  37.258  15.382   0.390
60363W        W28581  31.057  19.816   0.736
60364W        W28582  31.608  10.661  12.204
60365W        W28583  30.392  26.281  12.982
60366W        W28584  24.293  31.627  12.653
60367W        W28585  25.871   8.776   4.968
60368W        W28586  36.877  33.496   4.927
60369W        W28587   9.829  28.913   1.714
60370W        W28588  25.308  31.385   0.259
60371W        W28589   9.855   1.433  13.949
60372W        W28590  30.899  36.479  11.655
60373W        W28591  33.374   0.835   3.199
60374W        W28592  33.998  33.535  13.891
60375W        W28593  26.781  40.487   1.082
60376W        W28594  10.879  28.708  12.482
60377W        W28595  42.490  27.672   0.391
60378W        W28596  44.298  23.613  14.977
60379W        W28597  13.148  12.400  12.469
60380W        W28598  38.916  13.346   1.890
60381W        W28599   0.324   1.380   0.411
60382W        W28600  35.892  18.693   2.064
60383W        W28601   9.117  18.103  11.867
60384W        W28602  37.457   6.823  10.697
60385W        W28603  13.977  10.317   1.891
60386W        W28604  13.699  43.571  12.017
60387W        W28605  39.544  32.495   4.412
60388W        W28606  26.520  35.028  11.351
60389W        W28607  38.840  28.981  14.956
60390W        W28608  29.437  44.985   4.619
60391W        W28609  39.238  10.495  11.848
60392W        W28610  14.335  19.783  13.820
60393W        W28611  35.457  40.779  12.957
60394W        W28612  16.252  21.594  10.864
60395W        W28613  14.599  33.059  11.673
60396W        W28614   4.844  10.432   4.955
60397W        W28615  13.795  43.719  13.017
60398W        W28616  28.641  31.349   2.723
60399W        W28617   8.180   6.314   4.567
60400W        W28618  44.217   7.922   0.811
60401W        W28619  14.340   5.241   2.845
60402W        W28620  21.721  22.072   1.758
60403W        W28621  17.727  34.045   1.715
60404W        W28622  36.903  41.401   2.654
60405W        W28623  27.162  41.834   3.868
60406W        W28624  22.936  18.157   0.119
60407W        W28625   4.025  34.370  13.206
60408W        W28626  11.033   7.564   0.089
60409W        W28627  12.530  21.491   4.175
60410W        W28628  32.358  38.236  12.645
60411W        W28629  36.588  13.541   3.597
60412W        W28630  34.408  18.749   1.192
60413W        W28631  25.620   1.967  10.576
60414W        W28632  31.239   4.780   2.333
60415W        W28633  13.177  10.310   2.919
60416W        W28634  17.118   8.306  13.273
60417W        W28635  43.411  40.466  13.562
60418W        W28636  13.377  20.988   4.609
60419W        W28637  16.046  14.818   1.782
60420W        W28638  16.704  10.173   0.050
60421W        W28639  20.058  17.571  12.942
60422W        W28640  16.784  22.279   2.173
60423W        W28641  36.498  22.941   2.980
60424W        W28642   7.780  30.406  11.634
60425W        W28643  36.981  15.583   3.305
60426W        W28644  44.151  36.234  14.724
60427W        W28645  44.192  32.797   1.425
60428W        W28646   4.280   7.361   0.899
60429W        W28647  44.147  43.921   1.651
60430W        W28648  44.882  12.922   1.522
60431W        W28649   7.867   1.254  13.347
60432W        W28650  25.521   7.362  10.627
60433W        W28651  13.602   5.459   2.692
60434W        W28652  16.250  38.937   4.579
60435W        W28653  44.962  34.585  14.414
60436W        W28654  36.084  18.264   4.937
60437W        W28655  15.738   2.348  11.850
60438W        W28656  22.451   6.272  12.430
60439W        W28657   6.406  23.016   1.902
60440W        W28658  13.608  21.635  12.211
60441W        W28659   8.742   1.755  10.633
60442W        W28660  14.097  43.095  12.442
60443W        W28661  42.357   8.174   3.847
60444W        W28662   2.270  28.841  14.714
60445W        W28663  20.073  35.501  13.036
60446W        W28664  27.094  44.359  12.843
60447W        W28665  38.544  20.714   0.242
60448W        W28666   3.976   1.897   1.324
60449W        W28667   9.911  33.975   1.793
60450W        W28668  22.827  31.090  14.787
60451W        W28669   6.434  41.791  10.499
60452W        W28670  43.448  22.091  14.274
60453W        W28671  27.678  43.774   0.141
60454W        W28672  28.367  32.092  13.544
60455W        W28673  12.269  40.355   0.468
60456W        W28674   0.524  43.233   2.819
60457W        W28675  30.473  27.231   3.153
60458W        W28676   1.140   7.305  14.200
60459W        W28677  27.974   5.868  14.433
60460W        W28678  18.657  35.079  13.563
60461W        W28679  39.428  44.285   4.586
60462W        W28680  24.324  31.078   1.178
60463W        W28681   8.823  38.104   2.431
60464W        W28682   9.577  43.794   0.657
60465W        W28683   6.024  36.990  14.332
60466W        W28684  21.549  24.592   3.250
60467W        W28685  26.116  22.405   3.908
60468W        W28686  29.991  13.255   1.863
60469W        W28687  33.433  24.577   3.836
60470W        W28688  44.533   0.440  11.077
60471W        W28689  12.234  30.233  10.627
60472W        W28690   3.692  31.423  11.948
60473W        W28691   3.279  43.436   3.947
60474W        W28692  19.283  24.285   1.852
60475W        W28693  13.102  35.328  14.297
60476W        W28694  16.695   2.201  11.492
60477W        W28695   1.453   6.586   4.871
60478W        W28696   6.702  41.473   0.985
60479W        W28697   4.782  26.601  10.317
60480W        W28698  15.522  12.790   3.145
60481W        W28699  42.141  41.300  14.020
60482W        W28700  30.944  29.785   0.918
60483W        W28701  35.306  12.804  12.527
60484W        W28702  38.402  23.131  13.284
60485W        W28703  39.974  28.560   1.494
60486W        W28704   9.227  17.534  13.392
60487W        W28705  28.151  21.165  10.069
60488W        W28706  29.151  26.924   0.405
60489W        W28707  30.901  16.666  10.220
60490W        W28708   9.706  25.940   1.720
60491W        W28709  43.305  10.904  14.780
60492W        W28710  26.686  16.576   0.898
60493W        W28711   1.272  43.366   0.197
60494W        W28712  31.858  26.032   4.595
60495W        W28713  17.623  28.047   4.133
60496W        W28714  19.153  11.115   1.767
60497W        W28715  12.865  40.862  14.099
60498W        W28716   8.288   0.889  10.467
60499W        W28717  36.596  26.712   9.571
60500W        W28718  18.078  35.691  14.280
60501W        W28719  20.317  35.366   2.299
60502W        W28720   9.269  13.160   2.784
60503W        W28721  38.825  40.488   3.275
60504W        W28722  19.939  44.789  11.212
60505W        W28723  37.269  42.626   2.366
60506W        W28724  30.003   2.507  14.787
60507W        W28725  19.485   0.231  13.821
60508W        W28726   3.691  30.152  11.680
60509W        W28727  22.548  14.731   0.225
60510W        W28728   5.924  40.761   2.202
60511W        W28729  20.442  30.380   2.832
60512W        W28730  32.051  13.626   3.089
60513W        W28731   9.603  37.985   3.241
60514W        W28732   6.720   9.692  13.385
60515W        W28733  44.442  17.728   3.278
60516W        W28734   3.891   3.624  13.773
60517W        W28735  21.201   9.741   2.057
60518W        W28736  36.054  32.018   1.465
60519W        W28737  12.619  26.384   4.172
60520W        W28738  28.434  44.935  11.149
60521W        W28739  40.905   0.770   0.737
60522W        W28740  17.376  41.401   1.643
60523W        W28741  21.224  33.381  13.041
60524W        W28742  33.221  27.205   3.086
60525W        W28743  20.133   8.725   0.504
60526W        W28744  26.260  39.047  14.198
60527W        W28745   8.896   8.929   1.474
60528W        W28746  43.432   6.442  11.654
60529W        W28747   2.862  43.108  13.892
60530W        W28748  22.622  28.880   2.869
60531W        W28749  28.389  14.713   1.231
60532W        W28750  16.104  43.960   2.295
60533W        W28751   8.021  32.451  13.987
60534W        W28752  31.961  26.027   1.167
60535W        W28753  18.549  20.504  12.481
60536W        W28754  37.188  41.923  13.927
60537W        W28755  19.723  31.456  13.663
60538W        W28756  27.554   6.640   4.514
60539W        W28757  25.666   6.442   1.753
60540W        W28758  17.976  12.689   0.854
60541W        W28759  18.475  28.576  13.363
60542W        W28760  22.505  15.752  12.924
60543W        W28761  28.473  37.493   3.583
60544W        W28762   6.844  16.681   0.461
60545W        W28763  34.901  12.742  14.069
60546W        W28764  43.850  27.964  14.170
60547W        W28765   3.875  10.658   0.810
60548W        W28766   9.754  32.562   2.203
60549W        W28767  15.764  44.878   2.661
60550W        W28768  35.741  44.638   2.275
60551W        W28769  30.428  43.936  12.084
60552W        W28770  15.098   7.177  10.266
60553W        W28771   1.099  37.446   3.093
60554W        W28772   9.146   1.856   3.142
60555W        W28773  37.064  15.377   2.773
60556W        W28774  14.375  43.021  11.600
60557W        W28775  18.782  39.536  14.285
60558W        W28776  38.946  39.935  11.045
60559W        W28777   3.846  44.332   3.741
60560W        W28778  30.788  41.303   2.235
60561W        W28779   9.070  39.608  13.652
60562W        W28780  37.347  21.800   3.217
60563W        W28781  14.234  20.749   1.427
60564W        W28782  19.973  24.134  11.163
60565W        W28783  21.285  24.181  12.500
60566W        W28784  12.161  31.501   3.234
60567W        W28785  42.661  20.361   4.288
60568W        W28786  27.033  32.233  11.547
60569W        W28787   3.234   7.835   3.830
60570W        W28788   8.806  39.999   3.745
60571W        W28789  34.111   3.892  14.125
60572W        W28790  28.965  33.185   4.585
60573W        W28791   3.883  36.525  12.130
60574W        W28792  13.966  32.186  12.945
60575W        W28793  13.670  11.575  13.425
60576W        W28794  35.064  28.390  14.964
60577W        W28795  21.004  43.365   2.131
60578W        W28796  28.754   4.041  12.055
60579W        W28797  44.009  10.870   4.595
60580W        W28798  12.155  18.824  14.716
60581W        W28799  20.969  15.228   1.886
60582W        W28800  20.150  23.782   1.083
60583W        W28801   9.786   5.233  11.083
60584W        W28802  27.106   0.152   2.427
60585W        W28803  43.297  42.349   3.384
60586W        W28804   9.387  36.438   0.938
60587W        W28805  30.684  25.270   2.328
60588W        W28806  38.094   8.850   0.140
60589W        W28807  18.637   6.294   2.195
60590W        W28808   3.768  29.986  13.949
60591W        W28809  29.998   5.464  14.420
60592W        W28810  44.689  16.626  11.118
60593W        W28811  37.319  31.928  11.190
60594W        W28812  36.543  29.594   1.872
60595W        W28813   9.195   2.467  14.494
60596W        W28814  33.729   2.325  14.328
60597W        W28815  13.705  31.313  11.514
60598W        W28816  34.267  29.249   4.093
60599W        W28817   7.359  17.687  13.830
60600W        W28818   6.707  21.127   4.571
60601W        W28819  32.938  18.074   2.198
60602W        W28820   6.896  21.695  12.373
60603W        W28821  17.572  40.087  12.756
60604W        W28822   6.817  43.592   5.099
60605W        W28823  31.036  12.364   1.131
60606W        W28824  22.510   8.826  10.683
60607W        W28825  11.573   8.949   3.402
60608W        W28826   6.663   7.674  10.676
60609W        W28827  34.203  30.956   4.517
60610W        W28828  28.172  12.793   3.213
60611W        W28829   9.854  30.418   0.342
60612W        W28830  33.314  31.034  11.009
60613W        W28831  22.963  24.010  12.485
60614W        W28832   2.535   1.544   0.555
60615W        W28833  25.434  14.035   5.085
60616W        W28834   8.636  18.718  12.401
60617W        W28835  15.656   4.844   1.256
60618W        W28836  18.286  17.253  14.365
60619W        W28837  18.196  18.537   3.890
60620W        W28838  43.347   1.727  11.196
60621W        W28839  14.009  19.005   0.998
60622W        W28840  31.966   6.498   0.706
60623W        W28841  17.041  14.319  13.879
60624W        W28842  39.752   0.272  14.508
60625W        W28843  14.598  27.428  14.657
60626W        W28844  40.665  27.885  12.916
60627W        W28845   3.407  29.427  13.413
60628W        W28846  34.424  13.038  13.423
60629W        W28847  39.529  19.102   0.287
60630W        W28848   0.823  13.785   2.441
60631W        W28849  28.951  27.427  11.675
60632W        W28850   7.853   6.428  12.910
60633W        W28851   8.725  43.412   4.583
60634W        W28852  43.408  25.105   1.731
60635W        W28853  34.462   3.262   3.835
60636W        W28854   4.643   7.796  13.000
60637W        W28855  21.761   1.079  13.593
60638W        W28856  22.707  35.675  12.601
60639W        W28857  24.487   0.629   2.764
60640W        W28858  27.173  37.906  10.671
60641W        W28859  17.311  20.719  10.584
60642W        W28860  28.053  13.276   1.022
60643W        W28861  35.331   8.785   0.421
60644W        W28862   0.820  35.389  12.218
60645W        W28863  10.170  40.778   1.815
60646W        W28864  43.589   5.682  11.199
60647W        W28865  37.868   9.758  14.226
60648W        W28866   4.345  19.201   0.539
60649W        W28867  18.855  30.077  13.019
60650W        W28868  25.495  28.374   3.392
60651W        W28869  44.491  26.676  10.364
60652W        W28870  20.475  36.991  14.519
60653W        W28871   0.387  19.156  10.545
60654W        W28872   8.571  26.943  11.127
60655W        W28873   1.612  35.533  13.419
60656W        W28874  24.275  29.403   2.172
60657W        W28875  31.176   9.381  13.254
60658W        W28876  40.348  32.530   1.546
60659W        W28877  22.561  41.495   0.457
60660W        W28878  14.724   6.758   0.012
60661W        W28879  27.034   8.754  10.782
60662W        W28880  32.370  28.151   2.204
60663W        W28881  13.157   7.168   0.771
60664W        W28882  13.231  28.446  13.050
60665W        W28883   1.299  11.140  14.543
60666W        W28884  37.969  35.194  13.879
60667W        W28885  18.454  25.888   2.369
60668W        W28886  29.113   5.643   4.149
60669W        W28887  36.513  16.597  12.499
60670W        W28888  44.774   6.321   0.704
60671W        W28889  14.644  18.035   1.858
60672W        W28890  31.799  23.787   1.269
60673W        W28891  15.048  43.050  13.945
60674W        W28892  17.345  26.986   3.695
60675W        W28893   7.334  24.046   1.777
60676W        W28894  38.104  17.166   3.141
60677W        W28895  30.346   6.355   1.339
60678W        W28896  28.857  28.952   0.509
60679W        W28897   6.551  32.649  10.578
60680W        W28898  14.286  35.361  11.531
60681W        W28899   6.839  11.086   2.332
60682W        W28900  12.635   9.142  12.446
60683W        W28901   7.889   9.251   1.420
60684W        W28902   4.949  26.397   1.358
60685W        W28903  22.139  17.811  14.507
60686W        W28904  28.673  23.271   4.693
60687W        W28905  39.349  26.100  12.852
60688W        W28906  43.461  17.968   3.956
60689W        W28907  23.742  21.611   3.228
60690W        W28908  31.361  32.826  11.244
60691W        W28909  37.087  21.676  10.434
60692W        W28910  32.944  14.073  11.075
60693W        W28911  36.791  18.215  12.387
60694W        W28912  17.740  10.715   3.591
60695W        W28913  31.640  22.996   4.811
60696W        W28914  20.215  24.804   1.700
60697W        W28915  33.010  19.639   3.712
60698W        W28916  11.711  39.768   1.857
60699W        W28917  15.460  32.812  14.235
60700W        W28918  44.160  39.875  12.575
60701W        W28919  16.061   9.050   0.683
60702W        W28920  34.352  20.589  12.418
60703W        W28921  19.105  16.990   1.418
60704W        W28922   4.301  16.071  13.480
60705W        W28923  41.361  44.248  14.027
60706W        W28924   3.424  29.418   2.638
60707W        W28925  13.274   7.722   4.260
60708W        W28926  13.051  18.239  14.479
60709W        W28927  36.337  38.001   0.443
60710W        W28928  33.790  32.805  13.462
60711W        W28929  25.751   0.963  12.929
60712W        W28930  10.140   9.956  13.081
60713W        W28931  24.662  27.931   3.612
60714W        W28932  20.759   6.743  11.617
60715W        W28933  12.436   2.273   2.308
60716W        W28934  42.296  39.173  12.720
60717W        W28935  39.585  13.781  11.610
60718W        W28936  42.502  10.275  14.368
60719W        W28937   1.354  37.366  12.887
60720W        W28938   9.815  17.460  11.214
60721W        W28939  29.000  37.168  12.012
60722W        W28940  38.271   0.368   0.363
60723W        W28941   7.195   9.857   4.101
60724W        W28942  41.953   9.142  13.886
60725W        W28943   9.868   9.393   2.318
60726W        W28944  27.146  40.472   1.899
60727W        W28945  14.849  16.233  13.131
60728W        W28946   7.905  12.321  12.486
60729W        W28947  31.929  12.245  10.677
60730W        W28948  37.941  27.635   1.425
60731W        W28949  25.106   5.292   1.349
60732W        W28950   3.350  44.519   1.990
60733W        W28951  44.337  28.574   2.614
60734W        W28952  22.313  13.221   2.239
60735W        W28953  21.211  13.407   0.384
60736W        W28954  32.078  22.240   3.856
60737W        W28955   1.981  44.748  13.483
60738W        W28956  41.052  20.869   5.154
60739W        W28957  29.446  25.121  14.320
60740W        W28958   4.271   7.714  14.845
60741W        W28959  10.814  43.897   0.353
60742W        W28960  13.809  18.984  12.991
60743W        W28961  26.665  18.104  13.000
60744W        W28962  13.515  19.294   1.366
60745W        W28963  11.185  35.003  10.785
60746W        W28964  19.515   7.873   2.221
60747W        W28965   3.198  39.385   3.820
60748W        W28966  36.535  12.671  14.880
60749W        W28967  25.167  10.207  13.068
60750W        W28968  41.044  20.536   1.028
60751W        W28969  14.371  22.102  12.231
60752W        W28970   7.924  15.736   0.275
60753W        W28971   3.163  37.330   2.312
60754W        W28972  14.275  43.852  12.905
60755W        W28973   0.374  42.193   2.626
60756W        W28974  35.506  26.587  14.887
60757W        W28975  34.498  26.943   3.660
60758W        W28976   8.300  35.130   1.160
60759W        W28977  29.964  12.631   4.541
60760W        W28978  38.853  30.534  13.911
60761W        W28979   9.825  41.584   1.715
60762W        W28980  39.876  13.375  11.366
60763W        W28981  35.566   2.456   4.985
60764W        W28982  44.353   9.127  11.533
60765W        W28983  15.120  21.628   2.206
60766W        W28984  44.203   3.778  12.475
60767W        W28985  27.610  19.695  12.873
60768W        W28986  41.339  20.723  12.231
60769W        W28987   1.853  31.087  11.505
60770W        W28988  17.599  24.939  13.480
60771W        W28989  10.017  13.661   2.618
60772W        W28990  19.735  17.896   0.256
60773W        W28991  26.047  12.243  12.385
60774W        W28992  17.986  44.780  11.477
60775W        W28993  15.322  14.848  12.515
60776W        W28994  39.389  14.291   1.777
60777W        W28995  20.195  33.569  12.813
60778W        W28996  16.127  16.302   3.282
60779W        W28997  12.872  25.291  11.725
60780W        W28998  31.231  20.809  12.859
60781W        W28999   0.765  21.055  13.972
60782W        W29000  26.102  40.028  14.429
60783W        W29001  41.354   0.255  11.038
60784W        W29002  10.915  21.995   0.703
60785W        W29003  30.445  19.201  11.603
60786W        W29004  38.090  27.262   3.210
60787W        W29005  25.673  21.182   0.705
60788W        W29006  43.979   3.974   1.625
60789W        W29007  29.697  39.200  12.967
60790W        W29008  33.072  28.971   2.130
60791W        W29009  42.629   6.451  12.080
60792W        W29010  30.432  14.306  14.297
60793W        W29011   4.194  32.260   4.388
60794W        W29012   5.290  19.573  14.483
60795W        W29013  24.565  28.665   1.816
60796W        W29014  25.660  44.844  12.151
60797W        W29015  18.265  16.794   1.923
60798W        W29016  40.784  28.638  11.420
60799W        W29017  26.657  37.974  14.949
60800W        W29018  15.861  27.476   0.438
60801W        W29019   0.499  23.425  12.739
60802W        W29020  23.275  20.200   1.018
60803W        W29021  28.687  27.030   2.235
60804W        W29022  12.469   1.895   4.522
60805W        W29023  30.935  32.926   2.382
60806W        W29024  20.544  28.509   4.668
60807W        W29025  26.174  10.686   3.277
60808W        W29026  23.216  40.348   0.432
60809W        W29027   6.900  41.898   0.786
60810W        W29028  42.025  15.776   4.528
60811W        W29029  43.660   3.321  12.966
60812W        W29030  18.543  22.071  14.086
60813W        W29031  33.412  26.202  10.211
60814W        W29032  27.258  43.143   3.553
60815W        W29033  37.854  19.563   0.520
60816W        W29034  44.728  11.153   0.663
60817W        W29035  23.498  44.412   2.820
60818W        W29036  28.173  41.913  12.072
60819W        W29037  36.985  15.159   1.372
60820W        W29038  21.327  10.282  10.710
60821W        W29039   9.816  20.140   2.053
60822W        W29040  21.904  30.978   4.505
60823W        W29041   1.732   3.328   3.702
60824W        W29042  44.523  10.006  12.291
60825W        W29043  13.851  24.142  14.373
60826W        W29044  30.185  27.918  13.044
60827W        W29045  32.415  27.636  13.493
60828W        W29046   1.765  25.053  12.563
60829W        W29047  16.116  28.843  14.424
60830W        W29048   5.351  41.235   3.911
60831W        W29049  33.384  33.842  13.814
60832W        W29050   1.848   4.259  13.794
60833W        W29051  43.602  42.274  13.451
60834W        W29052  11.415  37.943   3.745
60835W        W29053  22.062  20.079   2.376
60836W        W29054  37.410  14.533   0.975
60837W        W29055  40.097  31.925  14.317
60838W        W29056   0.817  14.326   3.219
60839W        W29057  43.729   0.809   4.126
60840W        W29058   8.205   7.484  13.443
60841W        W29059   8.854   3.759   1.893
60842W        W29060  10.780  32.839  13.078
60843W        W29061  17.559  12.650   5.384
60844W        W29062  24.977  19.985   2.232
60845W        W29063   0.811  33.473  10.543
60846W        W29064   1.890  35.629   0.037
60847W        W29065  23.069  15.597  14.720
60848W        W29066  20.119  18.599  13.850
60849W        W29067   7.816  31.350   4.097
60850W        W29068  40.009  37.546  12.882
60851W        W29069   8.197   5.307  11.703
60852W        W29070  30.990  40.420  11.154
60853W        W29071   0.483  32.288   1.019
60854W        W29072  23.542  16.816   2.389
60855W        W29073  15.289  27.868   0.753
60856W        W29074  13.602   8.940   2.416
60857W        W29075  23.710  19.840  13.074
60858W        W29076   6.125  42.421   1.791
60859W        W29077  43.018  35.361  11.024
60860W        W29078  28.891  35.899  13.425
60861W        W29079   2.845  29.938   2.474
60862W        W29080   0.470  41.410   3.597
60863W        W29081   1.904  29.040  13.124
60864W        W29082   6.480  10.746   4.627
60865W        W29083   8.704  11.334  11.962
60866W        W29084  29.043  19.023   3.756
60867W        W29085  15.362   7.301  13.053
60868W        W29086  17.166  23.439   4.827
60869W        W29087  40.463   6.359  11.158
60870W        W29088   6.958   7.721   2.205
60871W        W29089   6.167  14.099  10.787
60872W        W29090  22.037  32.687  14.835
60873W        W29091  29.541  33.097   4.067
60874W        W29092  18.182  30.243  11.476
60875W        W29093  34.070  40.302   1.194
60876W        W29094  41.496  44.413   3.403
60877W        W29095  38.595  24.597  14.897
60878W        W29096  16.342  37.449   3.623
60879W        W29097   2.208  36.372  12.515
60880W        W29098   8.693  38.442  12.540
60881W        W29099   8.396  15.572  11.121
60882W        W29100  19.237   9.345  12.605
60883W        W29101  41.133  28.050   2.155
60884W        W29102  19.509  36.090  12.498
60885W        W29103  25.085  32.331  11.616
60886W        W29104   0.290  18.840   0.798
60887W        W29105   6.778  38.412  10.902
60888W        W29106  13.614  35.884   2.776
60889W        W29107  12.807  27.659  13.019
60890W        W29108  12.093  40.437  14.008
60891W        W29109  26.159  40.382  14.841
60892W        W29110  16.661  13.863   2.300
60893W        W29111  13.177  20.050   4.188
60894W        W29112  37.596  13.298   0.347
60895W        W29113   5.962   8.402   3.572
60896W        W29114  19.990  35.957  13.317
60897W        W29115  38.724  44.580  13.156
60898W        W29116   8.276  18.175   5.358
60899W        W29117  36.153   0.843  14.958
60900W        W29118  32.877   6.752  13.747
60901W        W29119  19.865  32.802  10.150
60902W        W29120  41.854  41.002   4.575
60903W        W29121  30.559  37.257  12.897
60904W        W29122  37.798  26.905   1.887
60905W        W29123  13.686   4.002  13.555
60906W        W29124  16.201  21.876  12.995
60907W        W29125  41.911  14.226   3.073
60908W        W29126  33.479   5.115   1.610
60909W        W29127  25.141   7.230  11.908
60910W        W29128   5.788   2.950  11.677
60911W        W29129  42.796  17.194   2.674
60912W        W29130  42.879  17.272  10.684
60913W        W29131  44.975  13.158   0.275
60914W        W29132  25.877  28.584  14.491
60915W        W29133  25.166  13.114   1.381
60916W        W29134  13.539  22.048   4.651
60917W        W29135  10.220   4.183  13.574
60918W        W29136  31.295  20.711   3.384
60919W        W29137   0.901  37.597  13.009
60920W        W29138   2.863  26.612  14.860
60921W        W29139   4.366  37.460   1.921
60922W        W29140  18.195   3.728   0.351
60923W        W29141  19.268  30.914  14.765
60924W        W29142   8.955  36.963   4.303
60925W        W29143  14.702   6.498  14.231
60926W        W29144   9.312  11.636  11.571
60927W        W29145   1.338  14.792  12.608
60928W        W29146  21.828  26.984  13.660
60929W        W29147  11.828   3.928  12.096
60930W        W29148  10.643  10.803  11.865
60931W        W29149  43.459   6.902   4.408
60932W        W29150   6.262  33.871  14.106
60933W        W29151  26.332  35.076   4.528
60934W        W29152  41.094  13.152   3.739
60935W        W29153   4.640  20.272  13.452
60936W        W29154   5.393  35.025   4.641
60937W        W29155  21.754  39.937   0.765
60938W        W29156  39.546  43.071  13.541
60939W        W29157   4.453   5.807   2.386
60940W        W29158  12.359   7.731   4.242
60941W        W29159  10.444  35.879  12.196
60942W        W29160  35.045  14.954   1.346
60943W        W29161  25.661  23.777   2.029
60944W        W29162  28.720  44.999   0.214
60945W        W29163  30.354  37.078   0.869
60946W        W29164  15.349  27.911  14.912
60947W        W29165  21.944  24.080   3.613
60948W        W29166   2.827   0.381   1.697
60949W        W29167  24.492  13.342   1.638
60950W        W29168  14.410  38.704   9.908
60951W        W29169  21.304  25.977  12.857
60952W        W29170  34.130  17.172  14.472
60953W        W29171  39.936  33.898  13.471
60954W        W29172  13.108  44.783   3.212
60955W        W29173  41.831  25.517   2.707
60956W        W29174  13.336  19.539   4.183
60957W        W29175  13.466   3.070  14.706
60958W        W29176   9.006   4.188  11.828
60959W        W29177  25.734  36.946  12.334
60960W        W29178  31.959   0.270  11.732
60961W        W29179  39.326  32.873   4.703
60962W        W29180  37.538  21.040   2.185
60963W        W29181  28.107  29.665  13.437
60964W        W29182   1.393  43.709  10.699
60965W        W29183  26.036  30.667  11.945
60966W        W29184  37.570  30.993   3.562
60967W        W29185   1.622  12.908  12.123
60968W        W29186  44.184  11.198   2.717
60969W        W29187  28.969  13.799  14.266
60970W        W29188   9.438  19.584  10.688
60971W        W29189  29.171  11.864   3.668
60972W        W29190  26.565  34.316  13.918
60973W        W29191  24.929  31.457  10.688
60974W        W29192  29.979  24.020   3.717
60975W        W29193  36.799  21.205  13.011
60976W        W29194  40.332  20.026  12.811
60977W        W29195  42.880  29.250   2.178
60978W        W29196   4.065  27.183   4.066
60979W        W29197  42.460  23.351  13.509
60980W        W29198  16.606  14.166  14.831
60981W        W29199  13.114  24.661   3.706
60982W        W29200  23.898  39.806  14.003
60983W        W29201   2.733   1.138   3.968
60984W        W29202  16.607  37.975   1.694
60985W        W29203  34.643  21.208   1.380
60986W        W29204  20.064   9.849   1.697
60987W        W29205  16.100  21.473   3.842
60988W        W29206  41.752  24.160  11.346
60989W        W29207   7.697  11.913  11.173
60990W        W29208  22.589  15.134  10.684
60991W        W29209   4.896  35.436  11.134
60992W        W29210  29.537  31.553  14.026
60993W        W29211  12.193  15.502   2.348
60994W        W29212  36.009  18.480  12.359
60995W        W29213  24.292  40.974   0.828
60996W        W29214   3.242   0.291  11.344
60997W        W29215   3.040   4.825   3.629
60998W        W29216  17.397  21.028  12.264
60999W        W29217  19.623   2.968  13.574
61000W        W29218  42.982   1.996   1.914
61001W        W29219  14.848  34.912   2.725
61002W        W29220   7.709  23.937  13.906
61003W        W29221  25.836  11.698   4.840
61004W        W29222  37.106   2.660  11.122
61005W        W29223  30.874  15.384  13.434
61006W        W29224  20.905   3.688  10.987
61007W        W29225  18.230  37.684   3.206
61008W        W29226  35.652  25.682  14.584
61009W        W29227  44.747   4.572  12.957
61010W        W29228  41.015   8.454  10.794
61011W        W29229  30.093   9.100   2.895
61012W        W29230  29.457  26.041  12.923
61013W        W29231   4.110  40.403   3.330
61014W        W29232  20.083   4.094  14.328
61015W        W29233   9.721  35.848   2.609
61016W        W29234  33.618  14.889  12.894
61017W        W29235  30.643  25.607   0.776
61018W        W29236  12.899  14.909  12.462
61019W        W29237  38.611  40.909   1.737
61020W        W29238  23.275  24.719  13.288
61021W        W29239  17.557  12.741   4.339
61022W        W29240  29.335   8.164  13.324
61023W        W29241  20.846  36.533   1.482
61024W        W29242  25.231  40.085   3.204
61025W        W29243  20.136   5.533  13.223
61026W        W29244  30.086   2.358   1.758
61027W        W29245  30.303  40.577   1.285
61028W        W29246   6.735  41.896   2.329
61029W        W29247  25.558  24.833   3.639
61030W        W29248  15.264  10.268   3.689
61031W        W29249  39.524   4.920  14.940
61032W        W29250  19.162  26.440  12.977
61033W        W29251  27.598   1.230  13.933
61034W        W29252  41.430  17.745  12.161
61035W        W29253  19.312  15.892   4.370
61036W        W29254  32.500   9.289   4.368
61037W        W29255  15.149   7.847   2.133
61038W        W29256  34.838  20.697  11.543
61039W        W29257  10.154  23.161  11.907
61040W        W29258  12.293  42.807   1.477
61041W        W29259  32.564   2.757   4.934
61042W        W29260  17.103  22.422  10.722
61043W        W29261  24.253  15.596   3.625
61044W        W29262  20.684  27.000  12.088
61045W        W29263  18.804  31.726   0.738
61046W        W29264   2.893  19.521   2.165
61047W        W29265  34.621  25.625  14.568
61048W        W29266  42.298  22.336   1.830
61049W        W29267   0.510   9.487   2.707
61050W        W29268   5.824  10.903   0.356
61051W        W29269  41.867  15.463  11.620
61052W        W29270  34.672  15.286   3.846
61053W        W29271  44.983  14.189  13.079
61054W        W29272   2.937  17.078  14.364
61055W        W29273   9.217  30.174   4.058
61056W        W29274  10.294  20.023   3.188
61057W        W29275  24.448  16.433  14.565
61058W        W29276  22.626  16.756   2.094
61059W        W29277  24.897  19.639  13.993
61060W        W29278   0.740  28.097   0.945
61061W        W29279   7.343  40.604   3.066
61062W        W29280  35.345  40.944   3.147
61063W        W29281   8.036   7.817  11.540
61064W        W29282  38.054  14.209   4.134
61065W        W29283  27.107  16.759   4.485
61066W        W29284   8.181  17.673   0.342
61067W        W29285  19.983  17.962  11.608
61068W        W29286  14.916  24.507  10.630
61069W        W29287  20.417   0.764  13.457
61070W        W29288  42.832  12.859   4.420
61071W        W29289  27.713  34.984   4.145
61072W        W29290   4.576   6.021   0.838
61073W        W29291  10.897  27.912  12.938
61074W        W29292   1.710  27.680   2.011
61075W        W29293   8.870  16.719  11.525
61076W        W29294  23.998  40.899   3.153
61077W        W29295  35.063  29.522   2.173
61078W        W29296   1.002  22.136  14.387
61079W        W29297  16.646  29.478   0.429
61080W        W29298  34.341  32.596   0.381
61081W        W29299  36.811  37.894  12.977
61082W        W29300   5.833   5.928   4.598
61083W        W29301  29.370  28.528   4.877
61084W        W29302  32.872  38.035  10.309
61085W        W29303  23.745  22.769  10.287
61086W        W29304  13.735  20.509  14.331
61087W        W29305  17.497  20.073   3.642
61088W        W29306  15.147  13.557   4.511
61089W        W29307   6.882  16.977   2.332
61090W        W29308   2.366  41.332  14.963
61091W        W29309  24.273  17.323  14.089
61092W        W29310  18.338   4.761   2.899
61093W        W29311  43.984   3.801   3.078
61094W        W29312   8.386  19.133  13.958
61095W        W29313   3.966  31.605  12.997
61096W        W29314   9.739  17.762   3.249
61097W        W29315   6.904  16.124  14.806
61098W        W29316   1.506  44.005  14.379
61099W        W29317  26.186  29.117   1.457
61100W        W29318  26.049   0.947  14.310
61101W        W29319  26.040  41.746  10.544
61102W        W29320  10.685  22.222  11.219
61103W        W29321  13.802  10.373  11.993
61104W        W29322  38.864  33.071   1.899
61105W        W29323   1.776  42.053  14.784
61106W        W29324  19.994  16.402   3.689
61107W        W29325  38.991  25.001  11.195
61108W        W29326  38.998  12.501   1.407
61109W        W29327  38.170  41.511  14.915
61110W        W29328   0.737  43.033  10.766
61111W        W29329  24.905  26.200  13.156
61112W        W29330  14.751  40.969  13.566
61113W        W29331  31.463  13.859  14.329
61114W        W29332   5.786   3.790  14.581
61115W        W29333  32.486  16.271  13.445
61116W        W29334  36.593  41.448  11.092
61117W        W29335  11.339   1.091   3.904
61118W        W29336  13.053  43.467   3.664
61119W        W29337  19.441  18.028  11.710
61120W        W29338  17.148  29.977  14.740
61121W        W29339  26.598  37.885   2.205
61122W        W29340  35.401  34.480   1.682
61123W        W29341  44.895  38.423   1.664
61124W        W29342  30.775  43.596  12.991
61125W        W29343   2.810   7.326  14.538
61126W        W29344  20.442  31.411  14.758
61127W        W29345  37.497  40.692  13.583
61128W        W29346   0.681  31.952   2.418
61129W        W29347  10.823  18.611   1.400
61130W        W29348  39.660  31.588   0.756
61131W        W29349  38.015   1.806   3.793
61132W        W29350  29.425  27.149  11.924
61133W        W29351   0.401  21.975   1.354
61134W        W29352  26.109   1.946   0.970
61135W        W29353   0.279  36.160  13.425
61136W        W29354  43.882  12.011   2.173
61137W        W29355  38.007   3.787   2.241
61138W        W29356  29.632  32.637   1.826
61139W        W29357  42.473   9.851  14.995
61140W        W29358  38.084  43.025   3.907
61141W        W29359   8.154  19.633   3.594
61142W        W29360  24.091  40.309  13.003
61143W        W29361   0.153  42.715  11.535
61144W        W29362  39.577  40.498  14.467
61145W        W29363  42.446  19.362   1.464
61146W        W29364  28.656   9.359   1.144
61147W        W29365   8.746   4.108  10.660
61148W        W29366  22.423   4.312   2.556
61149W        W29367  20.624  25.619   1.193
61150W        W29368  36.744  31.623  13.883
61151W        W29369   7.214  30.439  13.345
61152W        W29370  33.998  40.865  13.585
61153W        W29371  23.636  18.764   4.892
61154W        W29372   4.051  38.719   0.294
61155W        W29373  21.527  31.234  10.808
61156W        W29374  26.785  40.849  13.470
61157W        W29375  24.370  26.706   0.055
61158W        W29376  31.254  13.860  10.355
61159W        W29377  20.625   3.941  14.042
61160W        W29378   3.837  38.339  14.819
61161W        W29379  39.707   6.881   1.968
61162W        W29380  38.408   4.432   3.721
61163W        W29381  12.403  25.039   2.456
61164W        W29382  13.000  25.582   2.506
61165W        W29383   2.284  43.885  10.702
61166W        W29384  15.764   9.656  14.250
61167W        W29385   4.973   3.264   0.249
61168W        W29386  20.364  25.692   4.748
61169W        W29387  12.609  15.377   2.036
61170W        W29388  19.243  37.393   0.515
61171W        W29389  15.205  43.725   2.775
61172W        W29390  12.168  38.740   0.178
61173W        W29391  40.700  32.975   2.721
61174W        W29392   0.161  20.063   3.732
61175W        W29393   1.664  11.655   3.742
61176W        W29394  35.146  26.611  11.173
61177W        W29395   3.938  15.980   4.704
61178W        W29396  12.640  29.914   3.867
61179W        W29397  38.452  22.124   3.502
61180W        W29398  20.701  27.657   0.410
61181W        W29399  21.644  27.570  12.957
61182W        W29400  26.319   9.796   3.751
61183W        W29401  16.955  40.676  11.371
61184W        W29402   7.238  13.944   3.199
61185W        W29403  28.204  12.341  13.544
61186W        W29404  26.463  43.368   3.281
61187W        W29405  26.802   0.262   0.251
61188W        W29406   5.351  17.752  11.367
61189W        W29407  39.143  41.846  12.058
61190W        W29408  38.931  38.832  13.542
61191W        W29409  23.742   1.531  14.854
61192W        W29410  28.546   6.031  13.555
61193W        W29411  16.229   0.777   0.339
61194W        W29412  10.349  42.309   3.812
61195W        W29413  21.247  23.702  10.487
61196W        W29414   0.702  23.246  11.994
61197W        W29415   1.382  25.000  13.926
61198W        W29416  14.193  44.442   1.584
61199W        W29417  17.683  15.699  11.539
61200W        W29418  21.033  37.270   0.683
61201W        W29419  32.163   5.911  11.801
61202W        W29420   1.961   5.936  12.454
61203W        W29421  15.295   8.344  12.231
61204W        W29422  13.914  44.264  12.972
61205W        W29423  44.794  33.174  11.022
61206W        W29424  21.140  35.888  12.503
61207W        W29425  14.577  42.922  12.417
61208W        W29426   2.685  29.408  13.932
61209W        W29427  11.923  41.047  12.062
61210W        W29428  23.662  23.825   1.151
61211W        W29429  12.323  28.997   4.421
61212W        W29430  34.387  38.746   1.419
61213W        W29431  23.106  28.885  14.365
61214W        W29432   2.885   0.051  10.706
61215W        W29433  38.923  29.918   3.910
61216W        W29434  24.613  17.753   4.662
61217W        W29435  17.368  25.918   3.751
61218W        W29436   1.860  32.884  14.570
61219W        W29437  33.016  23.922   3.409
61220W        W29438  33.888  19.099  13.060
61221W        W29439  10.219  30.128   2.139
61222W        W29440  12.960  33.024   1.227
61223W        W29441  39.789  25.790  13.547
61224W        W29442  43.903  29.978   4.055
61225W        W29443  20.664  40.843   0.197
61226W        W29444  38.973  41.845   5.060
61227W        W29445  11.036   3.039  13.998
61228W        W29446  32.899  27.979   2.878
61229W        W29447   1.728  28.798  14.042
61230W        W29448  12.669  15.714  11.418
61231W        W29449  12.972  21.216  12.702
61232W        W29450  43.400  30.160   0.703
61233W        W29451  26.417   2.018   3.636
61234W        W29452  33.336  32.927   2.896
61235W        W29453  34.316  44.478  11.267
61236W        W29454   4.848  20.348   3.584
61237W        W29455  42.961  18.109   0.894
61238W        W29456   2.914  10.867  11.064
61239W        W29457  21.553  36.996   2.654
61240W        W29458  42.873  27.222  11.502
61241W        W29459  31.580  20.469   0.424
61242W        W29460  11.563  34.903  13.944
61243W        W29461  34.642  32.351  10.733
61244W        W29462   5.590  33.941   3.333
61245W        W29463  12.812  33.853   3.260
61246W        W29464   2.922  34.901   4.554
61247W        W29465   8.871  33.082  10.401
61248W        W29466  16.276  34.135  11.934
61249W        W29467  16.660  32.197   1.389
61250W        W29468   6.925  17.463  13.589
61251W        W29469  40.427  41.919   1.875
61252W        W29470  13.196   2.486  12.975
61253W        W29471  12.627   1.760   2.022
61254W        W29472  24.361  34.407  11.015
61255W        W29473  35.118  43.443  12.154
61256W        W29474  10.941   7.604  13.979
61257W        W29475  24.228  38.506   3.224
61258W        W29476   9.728  33.037  14.911
61259W        W29477  43.250  13.827   2.229
61260W        W29478  34.348  31.020  12.959
61261W        W29479  42.891   2.686  14.985
61262W        W29480  25.094  31.099   4.034
61263W        W29481  11.866  36.920   3.310
61264W        W29482  14.502   6.230   2.214
61265W        W29483  24.696   8.551  11.238
61266W        W29484  38.045   9.959   4.552
61267W        W29485   8.949  10.249   1.749
61268W        W29486  32.391  35.854  12.611
61269W        W29487  21.442  23.449  14.572
61270W        W29488  28.733   3.789   1.935
61271W        W29489  15.207   3.155  13.470
61272W        W29490   5.579   8.836  12.108
61273W        W29491  29.519   7.677   4.630
61274W        W29492  19.586  17.625   1.379
61275W        W29493  37.804  13.879   2.873
61276W        W29494   3.927  16.535  13.999
61277W        W29495   0.956   3.042  13.709
61278W        W29496  21.680   8.411  12.611
61279W        W29497  35.301  21.755  14.842
61280W        W29498  24.528  27.617  10.679
61281W        W29499  25.570  10.680  12.185
61282W        W29500  26.138   0.918   3.829
61283W        W29501  19.521   6.132  12.484
61284W        W29502  35.893  10.863   2.320
61285W        W29503  36.093  33.953  10.663
61286W        W29504  19.849  43.417  13.214
61287W        W29505  18.760  31.194   0.692
61288W        W29506  12.888  12.148  13.320
61289W        W29507  23.664  40.037  10.418
61290W        W29508  43.339  43.598  11.560
61291W        W29509   3.965  39.509  13.658
61292W        W29510   4.869  26.606  13.448
61293W        W29511   4.250   5.749   3.864
61294W        W29512  14.135   7.886   1.167
61295W        W29513   9.702  42.486   3.337
61296W        W29514  41.810  41.176   5.049
61297W        W29515  25.732  35.400   0.390
61298W        W29516   8.380  10.187   0.225
61299W        W29517   0.300  36.597   3.703
61300W        W29518  37.386  33.006  12.190
61301W        W29519  11.245  31.992  10.246
61302W        W29520  16.215  22.381  13.067
61303W        W29521  29.614  33.397   3.645
61304W        W29522   8.074  13.206   0.988
61305W        W29523  24.881  37.451  11.298
61306W        W29524  29.010  25.477   1.935
61307W        W29525   0.844   5.769   1.215
61308W        W29526   0.031  22.636  14.680
61309W        W29527  15.724  12.368   4.873
61310W        W29528  15.550  28.170  14.512
61311W        W29529  31.879  15.695  11.110
61312W        W29530  24.544  26.691  11.340
61313W        W29531  31.928   6.996   1.178
61314W        W29532  15.574  33.205   0.667
61315W        W29533  19.459  38.909   3.116
61316W        W29534  36.244   2.297  10.666
61317W        W29535  28.898  44.329   0.797
61318W        W29536  14.713  33.997   4.218
61319W        W29537  28.065  25.057   0.612
61320W        W29538  35.762   0.605   4.095
61321W        W29539  14.521  11.426   0.969
61322W        W29540  19.138  10.712  14.401
61323W        W29541  43.276   1.233  12.371
61324W        W29542   7.858   0.172  14.482
61325W        W29543  14.616   1.327   4.118
61326W        W29544   5.246  37.627   3.708
61327W        W29545  26.681  19.117  10.945
61328W        W29546   4.929   8.741   9.896
61329W        W29547  14.014  41.046  11.577
61330W        W29548  22.037  27.233   2.814
61331W        W29549   0.955  28.202  11.147
61332W        W29550   5.584   1.252  14.307
61333W        W29551  36.225  39.921  11.743
61334W        W29552   0.393  37.454  13.033
61335W        W29553   8.734  42.045  13.031
61336W        W29554  40.222   8.330   3.672
61337W        W29555   8.312  31.713  11.974
61338W        W29556   5.944  37.851  14.944
61339W        W29557  15.804  26.156  13.760
61340W        W29558  39.168  39.788  14.354
61341W        W29559  40.449  35.572  14.807
61342W        W29560   7.476   1.058  13.057
61343W        W29561  27.735  21.139  14.744
61344W        W29562  25.660   0.769  13.400
61345W        W29563  13.493   5.166  11.122
61346W        W29564   6.239  14.047  12.956
61347W        W29565  39.974  14.550  12.123
61348W        W29566  36.513   5.718  14.845
61349W        W29567  43.970   6.959   0.418
61350W        W29568  24.075  13.344  12.362
61351W        W29569  22.125   4.996  12.501
61352W        W29570  17.329  19.936  11.139
61353W        W29571  29.417  36.767  10.753
61354W        W29572   7.637  40.286   2.245
61355W        W29573  25.182   9.100  13.941
61356W        W29574  18.670  34.308  13.012
61357W        W29575  12.866   7.501   2.467
61358W        W29576  14.146  12.075  12.877
61359W        W29577  39.705   0.302   4.511
61360W        W29578  10.817   1.800   3.987
61361W        W29579   6.198   8.390   2.173
61362W        W29580   9.687  33.118  10.931
61363W        W29581  22.701  27.258   4.600
61364W        W29582  14.956  31.234  12.439
61365W        W29583  37.245  33.450   0.791
61366W        W29584   1.716   1.472   2.203
61367W        W29585  37.438  18.243   4.494
61368W        W29586   2.794  24.638   1.383
61369W        W29587  18.815   5.482  12.429
61370W        W29588   2.464   6.177   1.295
61371W        W29589  10.065  12.683   0.251
61372W        W29590  41.406   9.127  14.374
61373W        W29591  17.552   9.172  10.583
61374W        W29592  23.660  22.262   0.061
61375W        W29593  41.952   3.838  13.478
61376W        W29594  22.126  42.967  14.435
61377W        W29595  17.133  20.742  14.304
61378W        W29596  33.971  42.813  11.430
61379W        W29597   2.853  44.772  12.007
61380W        W29598  29.907  25.483  11.259
61381W        W29599  38.819  10.151  10.852
61382W        W29600  17.225  11.736   2.776
61383W        W29601  43.021  41.940  11.940
61384W        W29602  25.128   7.004   1.204
61385W        W29603  43.441   7.285   0.262
61386W        W29604  34.060  29.710  14.321
61387W        W29605  30.659  31.490   0.710
61388W        W29606   7.487  37.458   4.687
61389W        W29607  19.153   9.042   1.307
61390W        W29608  35.521  31.524  10.734
61391W        W29609  39.647  33.948  12.592
61392W        W29610  39.492   6.499   1.665
61393W        W29611  11.335  31.329  13.926
61394W        W29612   9.948  43.881   5.065
61395W        W29613  40.793  28.426  12.885
61396W        W29614  14.065  19.699  12.447
61397W        W29615  35.114  42.774   0.791
61398W        W29616   8.274  44.927  14.333
61399W        W29617  16.585   2.720  11.566
61400W        W29618  16.229  35.293  12.531
61401W        W29619  42.514   1.788  13.309
61402W        W29620  21.030  42.255  12.548
61403W        W29621  43.365  33.761  10.611
61404W        W29622  21.322  14.556   2.316
61405W        W29623  44.420  13.333   2.472
61406W        W29624  21.233   9.201  13.397
61407W        W29625  24.026  35.472  11.784
61408W        W29626  43.265  21.614   3.286
61409W        W29627  42.854  27.142  14.743
61410W        W29628  41.829  22.690  14.087
61411W        W29629  17.642  10.060   0.212
61412W        W29630  36.766   6.810  13.377
61413W        W29631  15.069  28.964  14.793
61414W        W29632  20.702  10.731  11.827
61415W        W29633  20.744  29.022  13.900
61416W        W29634  35.965  33.441  12.005
61417W        W29635  29.406  27.465  11.480
61418W        W29636  43.472   2.977   1.251
61419W        W29637  31.344  18.058   2.283
61420W        W29638  32.658  16.713  14.998
61421W        W29639  22.469  17.677   0.992
61422W        W29640  37.114  11.855  11.579
61423W        W29641   9.362  21.840  11.084
61424W        W29642  32.367   5.236  13.931
61425W        W29643  28.786  28.003   4.376
61426W        W29644  22.190  28.719  13.454
61427W        W29645   6.098   8.289  12.954
61428W        W29646  28.528  43.014  11.144
61429W        W29647  34.205  44.030  13.859
61430W        W29648   1.049  29.315  14.516
61431W        W29649  43.360   6.437   4.590
61432W        W29650  25.087  37.499  10.823
61433W        W29651  11.885   5.110  14.136
61434W        W29652   3.110   7.132   2.220
61435W        W29653  38.256  20.294  13.464
61436W        W29654  17.649  34.211   2.578
61437W        W29655  16.777  31.568   3.645
61438W        W29656   3.952  38.331  13.821
61439W        W29657  22.474  31.640  10.635
61440W        W29658  17.842  10.778  14.982
61441W        W29659  32.048  24.874  13.488
61442W        W29660   1.447  37.936  11.695
61443W        W29661  27.413  17.983   5.112
61444W        W29662  17.672  12.201  11.693
61445W        W29663  34.171  41.850   1.923
61446W        W29664  38.867  44.362   1.292
61447W        W29665   0.848  44.594   2.554
61448W        W29666  34.961  18.476   4.147
61449W        W29667  39.016  19.199  10.439
61450W        W29668  34.388  15.710   0.390
61451W        W29669  42.375  42.346  14.969
61452W        W29670  13.399  18.507  13.123
61453W        W29671   1.413  32.387   0.267
61454W        W29672  32.582  17.826   0.269
61455W        W29673  19.814  28.301   0.599
61456W        W29674  29.674  21.087   4.133
61457W        W29675  43.776  26.888  12.548
61458W        W29676   5.131  32.831  14.061
61459W        W29677  38.887   5.528   3.201
61460W        W29678  32.500  38.418  14.448
61461W        W29679  42.300   5.717  12.042
61462W        W29680   1.337   2.702   1.905
61463W        W29681  40.980  38.865   2.298
61464W        W29682  12.074  24.529   3.691
61465W        W29683  14.730  40.006   4.046
61466W        W29684  25.032  31.712   1.223
61467W        W29685  32.875  42.936  13.370
61468W        W29686  28.881  37.846   4.626
61469W        W29687  25.479  40.507  13.676
61470W        W29688  16.092  19.005   2.125
61471W        W29689  38.220   6.130   3.304
61472W        W29690  18.775  12.930  12.790
61473W        W29691  15.522   1.859  12.161
61474W        W29692  17.475  34.809  10.729
61475W        W29693  31.401  38.876  11.989
61476W        W29694  19.723  16.128   2.367
61477W        W29695  34.961  21.738  11.993
61478W        W29696  12.793  30.651   4.288
61479W        W29697  27.019  31.320   2.965
61480W        W29698  31.475  43.039   1.697
61481W        W29699  44.297  10.300   2.593
61482W        W29700  22.663  19.723   4.098
61483W        W29701  37.010  13.222  11.545
61484W        W29702  43.002  11.187  12.125
61485W        W29703   9.124  39.410   2.252
61486W        W29704  40.398  11.242   0.273
61487W        W29705  43.278   9.284   0.960
61488W        W29706  17.485   2.210   3.223
61489W        W29707  27.721   1.379   4.827
61490W        W29708   1.425  10.147  14.815
61491W        W29709  43.248  33.563  12.392
61492W        W29710  13.830  43.421   4.232
61493W        W29711  44.892  29.131   2.231
61494W        W29712  36.268   2.817  14.840
61495W        W29713  15.593  21.930  12.526
61496W        W29714  33.746  18.131  13.068
61497W        W29715  28.399  24.942   2.883
61498W        W29716   2.202  18.039  13.588
61499W        W29717  40.410  33.875  14.806
61500W        W29718  37.456  38.381   0.059
61501W        W29719  20.340  13.844  10.243
61502W        W29720  40.378  15.565  10.470
61503W        W29721   4.949  12.381  14.060
61504W        W29722  18.822  30.912  12.518
61505W        W29723  40.159   8.721  12.778
61506W        W29724  21.511  37.914   4.451
61507W        W29725  30.235  26.594  10.916
61508W        W29726   9.236  38.771  14.846
61509W        W29727   8.053  22.145  11.281
61510W        W29728  28.017  28.025   0.044
61511W        W29729  18.069  20.049  13.507
61512W        W29730  20.506  32.655  10.678
61513W        W29731  39.440  22.643   3.701
61514W        W29732  41.842  29.911  12.232
61515W        W29733  27.096  32.908   4.523
61516W        W29734  38.990  43.834   0.346
61517W        W29735   3.362  31.969  10.706
61518W        W29736   0.945  22.284   0.652
61519W        W29737  30.083  24.123   1.924
61520W        W29738   7.191   7.831  11.059
61521W        W29739   4.844  18.388   3.949
61522W        W29740   8.228  30.426   4.677
61523W        W29741  29.857  26.674   1.090
61524W        W29742  22.208   1.762   2.762
61525W        W29743  24.806  31.515   4.593
61526W        W29744  21.181  40.416  13.974
61527W        W29745  22.565  31.527   1.420
61528W        W29746  35.512   5.292   3.723
61529W        W29747   2.903   2.726  13.774
61530W        W29748   3.583  10.798   1.218
61531W        W29749   0.745  17.494  10.775
61532W        W29750  40.705  11.550   1.196
61533W        W29751  13.314  29.586   0.278
61534W        W29752  42.838  22.011   0.363
61535W        W29753  42.284  14.923   3.666
61536W        W29754  30.076   0.093   0.494
61537W        W29755  23.888  30.090   1.928
61538W        W29756  30.438  29.240  12.991
61539W        W29757  27.970  32.594   3.906
61540W        W29758  13.599  10.107  11.092
61541W        W29759  37.539  31.244  12.905
61542W        W29760  44.884   0.351   2.280
61543W        W29761  31.540  27.165  14.544
61544W        W29762   2.659   1.679   1.756
61545W        W29763  14.904  36.352  13.419
61546W        W29764  37.143  28.645   2.964
61547W        W29765  18.395  30.195  13.403
61548W        W29766  13.756  33.735   1.202
61549W        W29767  19.729  26.090   0.261
61550W        W29768   4.914  23.009   3.296
61551W        W29769  40.516  24.198   3.459
61552W        W29770  19.849  25.615  12.910
61553W        W29771  32.582  19.050  13.991
61554W        W29772  15.035  18.102   3.670
61555W        W29773  19.585  38.450  11.204
61556W        W29774  17.214  37.545   9.944
61557W        W29775  18.064  34.702  11.617
61558W        W29776   7.386  34.602  11.702
61559W        W29777  18.296  19.573  13.211
61560W        W29778  27.455   6.607   1.487
61561W        W29779  10.292  44.198  12.413
61562W        W29780   1.349  30.568  11.057
61563W        W29781  31.166  28.007   4.592
61564W        W29782  17.119   2.069  14.956
61565W        W29783  24.928   8.650  14.008
61566W        W29784  22.945  32.088  13.893
61567W        W29785  33.719   3.203  12.375
61568W        W29786  32.982  26.504  10.276
61569W        W29787   4.779  13.182   0.478
61570W        W29788   8.292  25.705   3.854
61571W        W29789  39.475  26.584  12.571
61572W        W29790   3.013  43.830   0.407
61573W        W29791  41.860  39.809  14.021
61574W        W29792   2.094   1.857  12.990
61575W        W29793  14.029  36.904  14.386
61576W        W29794  32.138   9.837  10.464
61577W        W29795   2.810  38.422  13.510
61578W        W29796  28.473  10.749   2.697
61579W        W29797  41.430  22.733   3.525
61580W        W29798  34.113  30.520   3.200
61581W        W29799  35.843  44.991  12.572
61582W        W29800  39.973   1.334   5.267
61583W        W29801  42.144  41.492  10.215
61584W        W29802  28.015  31.001   1.991
61585W        W29803  20.661   9.093  12.836
61586W        W29804  37.562  30.191   1.421
61587W        W29805  29.192  23.432   2.669
61588W        W29806  36.433  26.659   3.514
61589W        W29807   0.953  15.317  13.531
61590W        W29808  24.225  38.554  10.711
61591W        W29809  44.395   2.673  14.044
61592W        W29810   3.576  34.631  13.056
61593W        W29811  18.504  19.166  13.568
61594W        W29812  15.602  27.726   3.699
61595W        W29813  36.365  11.189   5.050
61596W        W29814  25.148  12.220  10.635
61597W        W29815   5.684  15.254  13.971
61598W        W29816  34.942  31.719  14.480
61599W        W29817   4.719   6.033   2.006
61600W        W29818  32.118  10.486   4.855
61601W        W29819  34.666   2.841   4.099
61602W        W29820  35.420  31.029   2.192
61603W        W29821  25.788  13.299   0.427
61604W        W29822   6.683  39.093  13.988
61605W        W29823  30.037  13.664   2.921
61606W        W29824  17.085  33.529  11.080
61607W        W29825  26.934  35.878  11.219
61608W        W29826  33.089  38.534   1.704
61609W        W29827  18.056   1.790  11.029
61610W        W29828  41.304  31.643   2.783
61611W        W29829  14.728  42.870  13.018
61612W        W29830  34.589  17.219   0.384
61613W        W29831   6.729  23.794  11.205
61614W        W29832   7.924  17.288   3.158
61615W        W29833  23.500  18.745  13.826
61616W        W29834  36.842  23.540   1.890
61617W        W29835  18.853  28.635  14.823
61618W        W29836  14.537   6.595   1.841
61619W        W29837  16.089  12.647   2.724
61620W        W29838   7.696  31.857   0.850
61621W        W29839  31.144  40.324   2.241
61622W        W29840   7.986  44.410  13.980
61623W        W29841   6.735   2.348   1.441
61624W        W29842   2.310  31.633  14.432
61625W        W29843  26.654  37.840  10.673
61626W        W29844  29.435  43.815   2.913
61627W        W29845  34.541   2.925   2.597
61628W        W29846   0.789  24.072  10.715
61629W        W29847   4.690  30.015  10.742
61630W        W29848   4.689  11.174  10.591
61631W        W29849   8.267   2.374   2.245
61632W        W29850   7.275  34.745  14.802
61633W        W29851  22.084  19.042   1.428
61634W        W29852  42.907   6.503   3.659
61635W        W29853   0.790  24.119  11.681
61636W        W29854  29.806  39.082  10.965
61637W        W29855  29.633   5.725   3.555
61638W        W29856  25.461  41.514  12.424
61639W        W29857   1.773  10.825  12.929
61640W        W29858  24.170  26.045   4.624
61641W        W29859  36.686   9.480  12.458
61642W        W29860   1.352  44.306  13.101
61643W        W29861  33.906   0.411   2.381
61644W        W29862   3.963  21.449   1.156
61645W        W29863  28.964  13.361  12.516
61646W        W29864  29.221  31.584  14.681
61647W        W29865  38.265  32.008   2.795
61648W        W29866  40.585  44.817  14.472
61649W        W29867  28.789  31.984   2.330
61650W        W29868  40.380  23.263  10.716
61651W        W29869  18.853  29.585   3.880
61652W        W29870   4.174   5.833   4.361
61653W        W29871   3.415  18.185   0.275
61654W        W29872  41.415  38.911   4.043
61655W        W29873  43.014  38.953  12.878
61656W        W29874   8.758  37.927  11.155
61657W        W29875  39.160   0.941  13.142
61658W        W29876  29.224   7.956   0.811
61659W        W29877  32.675   0.981   5.029
61660W        W29878  17.298  18.529   2.608
61661W        W29879  11.731  26.603   0.883
61662W        W29880   5.831  41.566   1.821
61663W        W29881  24.565  37.266   0.657
61664W        W29882  30.171  30.610   4.721
61665W        W29883   3.266  22.312   4.177
61666W        W29884  35.184  24.059  12.146
61667W        W29885  42.794  26.644   3.581
61668W        W29886  29.280  26.522  10.631
61669W        W29887  11.990  22.169   3.666
61670W        W29888  29.574  42.907  10.395
61671W        W29889  11.920  16.769  10.952
61672W        W29890  19.501   0.440   3.594
61673W        W29891  36.385  43.990  13.327
61674W        W29892  16.595  17.252   0.597
61675W        W29893   9.785  14.767  10.620
61676W        W29894  32.095   8.756  12.468
61677W        W29895  25.872   7.389  14.041
61678W        W29896  30.598  17.744   0.743
61679W        W29897   6.844  11.749  14.478
61680W        W29898  16.682  20.093   4.418
61681W        W29899  10.887   1.319   0.504
61682W        W29900  24.014  26.116   0.239
61683W        W29901  33.847   7.426  12.499
61684W        W29902  13.212  28.264   4.158
61685W        W29903   0.301  25.774   0.925
61686W        W29904  16.348   6.298  10.624
61687W        W29905  13.765  33.249  14.400
61688W        W29906  36.457  41.229   1.929
61689W        W29907  38.003  16.252   1.217
61690W        W29908  14.327   3.360   1.777
61691W        W29909  37.659  40.317   1.602
61692W        W29910  20.795   8.784  12.456
61693W        W29911  17.824   1.242   4.560
61694W        W29912  19.340  10.622   1.765
61695W        W29913  32.112  16.570   3.762
61696W        W29914   8.804  38.413   1.760
61697W        W29915  27.893  40.493   0.568
61698W        W29916   0.748  38.882  13.260
61699W        W29917  26.560  12.083  12.095
61700W        W29918   7.279  33.694  14.898
61701W        W29919  14.144  22.700  14.977
61702W        W29920  16.296  33.860   0.729
61703W        W29921  35.129  28.033   4.119
61704W        W29922   7.773   8.585  13.657
61705W        W29923  10.718  36.875   4.110
61706W        W29924  22.493   3.750  12.540
61707W        W29925  37.162  22.723  14.472
61708W        W29926   2.913  40.826   4.243
61709W        W29927   2.712  28.625  14.484
61710W        W29928  12.820  27.706   0.716
61711W        W29929  41.103  17.873   2.326
61712W        W29930  38.387  41.136  10.968
61713W        W29931  17.012  24.217  11.140
61714W        W29932  18.394  19.595  14.917
61715W        W29933  11.628  23.582   2.111
61716W        W29934  17.207  40.043  11.930
61717W        W29935  38.600   4.423  12.555
61718W        W29936   4.680  14.619   0.034
61719W        W29937   8.896  35.116  12.820
61720W        W29938  28.478  28.596  14.008
61721W        W29939   6.352  44.734   3.220
61722W        W29940  16.650  30.430   4.404
61723W        W29941  18.679  10.242   2.299
61724W        W29942  17.689  14.889   3.160
61725W        W29943  10.176  24.030  14.537
61726W        W29944   9.287   3.896  12.566
61727W        W29945  25.995  15.575  11.130
61728W        W29946  28.758  18.369  11.882
61729W        W29947  31.557  19.638   0.739
61730W        W29948  21.732  12.645   3.993
61731W        W29949  44.533  32.179  14.045
61732W        W29950  36.013  11.363  10.631
61733W        W29951  38.227  28.124   3.244
61734W        W29952   8.100  18.692  13.795
61735W        W29953  10.354  15.178   3.861
61736W        W29954  39.243   2.217  12.386
61737W        W29955   4.403  38.427  10.719
61738W        W29956   1.995   5.933   0.331
61739W        W29957  33.049  14.604  13.406
61740W        W29958  15.499  24.758   0.694
61741W        W29959  31.076   5.457  10.829
61742W        W29960  36.513  23.972   4.709
61743W        W29961  39.494  36.386  14.997
61744W        W29962  22.639  11.157   1.495
61745W        W29963  15.045   6.457  11.817
61746W        W29964   9.939  37.892   4.973
61747W        W29965  18.012  35.637   3.146
61748W        W29966  30.619  18.308   0.668
61749W        W29967  34.418  19.350   3.645
61750W        W29968  28.057  35.439   1.774
61751W        W29969   7.263   5.728  10.630
61752W        W29970   0.148  13.047  10.778
61753W        W29971  37.489  44.676   4.239
61754W        W29972  33.721  20.488  13.007
61755W        W29973  24.641  41.875  11.061
61756W        W29974   5.832  36.853  12.955
61757W        W29975  41.538  14.607  11.743
61758W        W29976  41.603   8.035  12.044
61759W        W29977  16.087  29.739  13.393
61760W        W29978  43.058  35.854   1.872
61761W        W29979  33.794  44.177   4.037
61762W        W29980  13.651  42.046   2.148
61763W        W29981  21.528  39.253   3.315
61764W        W29982  23.402  26.752  12.322
61765W        W29983  27.662   5.853  12.165
61766W        W29984  33.655  35.966   3.272
61767W        W29985  21.449  26.717   3.213
61768W        W29986  37.106  20.597   4.284
61769W        W29987   0.281  15.096   1.656
61770W        W29988  14.061   7.816  14.014
61771W        W29989   9.801  41.963  13.878
61772W        W29990  42.347  36.993  10.867
61773W        W29991  36.998   9.834   4.942
61774W        W29992  10.627  23.069  12.811
61775W        W29993  11.182  39.482  12.877
61776W        W29994  35.348   3.978  11.166
61777W        W29995  34.346   9.685  12.902
61778W        W29996   7.823  11.530   4.825
61779W        W29997  26.494  25.737  13.336
61780W        W29998  10.408  41.237  12.412
61781W        W29999  21.221  11.284  13.351
61782W        W30000   2.824  22.492  11.663
61783W        W30001  10.072   5.834   2.322
61784W        W30002  17.827  41.599  11.069
61785W        W30003  31.317   9.224   2.208
61786W        W30004  31.188   7.627  12.081
61787W        W30005  41.459  27.604   3.785
61788W        W30006  18.536   4.114   0.240
61789W        W30007   1.695   6.113   2.793
61790W        W30008   8.124   4.348   0.502
61791W        W30009  21.192  32.047  10.525
61792W        W30010  26.095  34.390  13.720
61793W        W30011   4.412  25.615  11.153
61794W        W30012  26.067  33.007   2.865
61795W        W30013  13.000   9.302  12.776
61796W        W30014  40.065  13.195   4.705
61797W        W30015  17.464  13.529  12.963
61798W        W30016  14.512  38.091   0.050
61799W        W30017  27.564  33.512  10.727
61800W        W30018  43.470   2.450  10.637
61801W        W30019   1.823  35.358   1.860
61802W        W30020  40.734  35.841   4.580
61803W        W30021  29.973  38.999   4.702
61804W        W30022  41.524  30.061   2.858
61805W        W30023  30.926  17.274  13.966
61806W        W30024  38.064  25.640  11.804
61807W        W30025  43.450  16.214   0.990
61808W        W30026  37.952   9.452   4.373
61809W        W30027  10.880  33.132   0.164
61810W        W30028  25.664  31.007   0.020
61811W        W30029   8.205  24.189  11.153
61812W        W30030  20.360  37.582  12.961
61813W        W30031  36.863  24.459   4.288
61814W        W30032  41.223  12.037  11.669
61815W        W30033   0.256   2.343  12.003
61816W        W30034  16.154  21.691  13.920
61817W        W30035   3.760  25.507   0.408
61818W        W30036   0.336  21.309   3.199
61819W        W30037  13.571  10.182  14.412
61820W        W30038  42.825  40.810   4.588
61821W        W30039  24.229   5.989   3.142
61822W        W30040  38.063  40.424   2.155
61823W        W30041   7.765   8.409   2.456
61824W        W30042  31.661  18.042   3.482
61825W        W30043   0.331  19.796   0.825
61826W        W30044  39.406  39.020  13.690
61827W        W30045  30.856  21.449  11.651
61828W        W30046   9.420   8.759   2.754
61829W        W30047  27.473  19.575  11.981
61830W        W30048  31.944   4.989  14.896
61831W        W30049  12.472  11.123   0.389
61832W        W30050  15.230  25.983  14.412
61833W        W30051  36.583  43.879  11.111
61834W        W30052  20.532  23.960   3.744
61835W        W30053  10.616  33.447  13.830
61836W        W30054  42.957  10.166  11.150
61837W        W30055   0.214  39.404   0.430
61838W        W30056  29.139  42.369   1.876
61839W        W30057  19.735  39.423  11.371
61840W        W30058   0.831   7.934  14.817
61841W        W30059  40.261  34.465   3.728
61842W        W30060   0.876   3.428  14.665
61843W        W30061  21.977  20.990  10.186
61844W        W30062  15.220  19.309  14.497
61845W        W30063  28.495  30.256   0.190
61846W        W30064  19.168  43.051   3.923
61847W        W30065  41.377   3.476  12.418
61848W        W30066  40.018  23.229   3.735
61849W        W30067  32.582  40.850   2.745
61850W        W30068  21.911  31.507   1.247
61851W        W30069  23.338  42.539   0.253
61852W        W30070  26.266  30.455   0.770
61853W        W30071   5.125  23.298  14.675
61854W        W30072  27.186  24.117   1.435
61855W        W30073  10.588   5.769   3.209
61856W        W30074  35.901  13.374   0.287
61857W        W30075  41.342  21.504   4.640
61858W        W30076  26.745  19.748   0.599
61859W        W30077  18.561  29.546   2.378
61860W        W30078  21.710  26.185  12.022
61861W        W30079  42.285   4.155  13.266
61862W        W30080  21.486  37.280   9.903
61863W        W30081  26.987  21.442   5.178
61864W        W30082  42.927  12.804  11.203
61865W        W30083  37.835  20.227  12.006
61866W        W30084   9.143  31.977  14.590
61867W        W30085  39.357  23.234  12.820
61868W        W30086   7.892  41.045  12.534
61869W        W30087  31.450  13.779  12.955
61870W        W30088  25.990  26.318   1.375
61871W        W30089  26.961  39.114   0.037
61872W        W30090   6.883  38.995   4.881
61873W        W30091  11.406  21.315  11.798
61874W        W30092  14.303  25.472   2.900
61875W        W30093  18.069  14.252   1.266
61876W        W30094  24.352  36.966   2.588
61877W        W30095  12.113   0.423   1.080
61878W        W30096  29.463  30.912   1.428
61879W        W30097  32.408  12.170  13.785
61880W        W30098  27.338  19.464   1.194
61881W        W30099  36.072  14.303   3.563
61882W        W30100  37.428   1.624   0.201
61883W        W30101   7.398  42.301  14.296
61884W        W30102  11.369  10.196  11.952
61885W        W30103  25.951   6.127   4.037
61886W        W30104  17.671   9.257  11.603
61887W        W30105  39.153  39.256  10.194
61888W        W30106  38.979  34.951  13.483
61889W        W30107   8.698  36.584   2.301
61890W        W30108  21.126  19.368  12.444
61891W        W30109   4.946  13.792  13.873
61892W        W30110  11.748  31.682   4.636
61893W        W30111  26.756  21.941   4.082
61894W        W30112  20.838  32.264   4.138
61895W        W30113  13.355  35.179  12.502
61896W        W30114  38.928  21.995   2.707
61897W        W30115  23.962  20.402   3.740
61898W        W30116   3.702  42.231  14.573
61899W        W30117  17.282  24.451  14.896
61900W        W30118  20.861  23.076  11.593
61901W        W30119   4.970  25.164   1.802
61902W        W30120   1.252  28.529  13.292
61903W        W30121  20.212  28.450  13.413
61904W        W30122  32.527  43.981  13.883
61905W        W30123  34.823   9.756  11.574
61906W        W30124  35.309  21.849   1.326
61907W        W30125   0.967   6.719  10.973
61908W        W30126   0.135  23.588  13.646
61909W        W30127  25.471   7.195  12.665
61910W        W30128  40.266   2.372  14.849
61911W        W30129  42.888   7.402   0.943
61912W        W30130   1.836   2.809  10.656
61913W        W30131  42.347  44.010  11.606
61914W        W30132  44.917  33.935   0.835
61915W        W30133  30.018  10.774  10.908
61916W        W30134  16.348  41.344   3.899
61917W        W30135  17.619   4.402  14.360
61918W        W30136  25.491   3.048  13.317
61919W        W30137   5.691   9.339   4.230
61920W        W30138  28.090  21.936   3.872
61921W        W30139  14.736  28.219  13.374
61922W        W30140  13.961   9.083  13.542
61923W        W30141   1.544   5.346   0.748
61924W        W30142   6.748  39.446  13.138
61925W        W30143   3.882  39.401   0.929
61926W        W30144  33.027  38.464  10.585
61927W        W30145  44.063  13.008  11.439
61928W        W30146  24.536  24.033   1.642
61929W        W30147  25.238  44.653  12.988
61930W        W30148  30.979   1.787  12.337
61931W        W30149  20.767  16.631   0.373
61932W        W30150  12.365  33.427   0.375
61933W        W30151   4.256  30.020   1.736
61934W        W30152  41.756  41.436   1.757
61935W        W30153  17.014  38.370   4.413
61936W        W30154  31.938  14.557  14.014
61937W        W30155  31.237  37.538  11.564
61938W        W30156  33.356  41.919  11.178
61939W        W30157   3.871   1.940   2.764
61940W        W30158  31.456   2.803  12.961
61941W        W30159  43.741   3.949  13.889
61942W        W30160  17.228  31.711   2.361
61943W        W30161  10.748  20.514   3.872
61944W        W30162   2.836  27.324  12.293
61945W        W30163   8.631   0.197   1.689
61946W        W30164   6.341  39.998   1.351
61947W        W30165  40.746   7.703  12.134
61948W        W30166   9.147  30.293   4.555
61949W        W30167  41.557  30.893  12.081
61950W        W30168  34.581  28.794   5.511
61951W        W30169  33.649  36.944   1.242
61952W        W30170   6.162  34.093  11.528
61953W        W30171  42.480   2.351  12.775
61954W        W30172  42.121   9.205  11.431
61955W        W30173  37.054  43.772   0.934
61956W        W30174  23.303   7.468  14.405
61957W        W30175  23.287  33.860   4.613
61958W        W30176  33.200   8.389   4.186
61959W        W30177  23.780   2.206  14.061
61960W        W30178   4.368  36.927   1.216
61961W        W30179  14.834  17.022   2.084
61962W        W30180  10.390  36.298  13.948
61963W        W30181  10.141  38.477   0.521
61964W        W30182  25.985  28.279  10.722
61965W        W30183  21.296   3.737  14.997
61966W        W30184  43.970  40.804   3.924
61967W        W30185  38.410   6.689  14.990
61968W        W30186  34.446  29.477  13.560
61969W        W30187   6.137  25.030  14.785
61970W        W30188  42.829  20.463   0.889
61971W        W30189  32.082  13.420  14.993
61972W        W30190  24.170  42.826  11.634
61973W        W30191   4.179  26.052  14.506
61974W        W30192  34.395  20.059  14.299
61975W        W30193  36.816   8.667  12.496
61976W        W30194  20.603   2.695  11.639
61977W        W30195  25.493  20.162   2.738
61978W        W30196  25.085   4.479   0.783
61979W        W30197  35.629  31.199   1.699
61980W        W30198  12.302  25.505   4.867
61981W        W30199   2.143  33.642  13.183
61982W        W30200  40.774  23.313   4.162
61983W        W30201  38.013  13.074  11.474
61984W        W30202   5.632  12.352  14.994
61985W        W30203  15.543   0.414  14.783
61986W        W30204  14.650   3.953   2.670
61987W        W30205  39.955  35.686   2.539
61988W        W30206  25.490  42.460   2.265
61989W        W30207   7.776  44.400  13.520
61990W        W30208   2.044  29.912   4.079
61991W        W30209  33.157  21.082  14.356
61992W        W30210  27.069  20.169   0.516
61993W        W30211  44.979  11.092  14.348
61994W        W30212  29.194  15.661  12.893
61995W        W30213  39.374  36.270  11.384
61996W        W30214  19.905  16.792   0.880
61997W        W30215  24.548  22.322  14.413
61998W        W30216  25.497  23.706   2.845
61999W        W30217  20.502  11.003   1.381
62000W        W30218  39.552  34.041   1.242
62001W        W30219  38.330   7.291  11.499
62002W        W30220  24.628  34.019   4.289
62003W        W30221  30.051  32.189  10.646
62004W        W30222  18.139   0.209  14.031
62005W        W30223  32.716  44.817  11.473
62006W        W30224   3.429   2.477   3.380
62007W        W30225   5.428  27.691   1.153
62008W        W30226  23.599  19.760  12.569
62009W        W30227  15.330  15.396   1.824
62010W        W30228  25.540  16.157   1.603
62011W        W30229  27.011   7.267   4.629
62012W        W30230  43.521  23.294   0.886
62013W        W30231  17.793  42.434   0.674
62014W        W30232  16.521   8.810  11.188
62015W        W30233  17.279   5.183  12.628
62016W        W30234  29.905  23.496  12.147
62017W        W30235  29.845   8.274  13.307
62018W        W30236  44.497  22.784   4.069
62019W        W30237  13.587   6.813   2.998
62020W        W30238  30.817  34.648   3.661
62021W        W30239  20.656  27.887  13.010
62022W        W30240  34.005   1.177   3.177
62023W        W30241  26.672  43.917   1.472
62024W        W30242  40.336  43.525   3.258
62025W        W30243  30.070  29.981   3.699
62026W        W30244  30.081  37.701   4.083
62027W        W30245  24.570  37.256  11.905
62028W        W30246  32.597  28.310   3.920
62029W        W30247  43.260  28.943  12.436
62030W        W30248  12.067  17.310  13.467
62031W        W30249  32.653  25.367   4.700
62032W        W30250   7.414  28.959  11.459
62033W        W30251  29.514  14.268  13.808
62034W        W30252  44.019   0.278   2.719
62035W        W30253  27.945  19.586   1.955
62036W        W30254  35.882   0.290   0.748
62037W        W30255  17.070  43.440  13.109
62038W        W30256  24.909  33.588   4.330
62039W        W30257   3.228  44.448   2.499
62040W        W30258  17.004  18.088   1.030
62041W        W30259  10.848  40.084  14.823
62042W        W30260   3.475   5.287  14.599
62043W        W30261   7.922  23.803   0.025
62044W        W30262  12.707   9.651   1.342
62045W        W30263  19.209  19.814   1.391
62046W        W30264  19.246   1.404  12.918
62047W        W30265  43.755   9.785   2.681
62048W        W30266   3.388  19.919  10.621
62049W        W30267  22.816  44.440  13.040
62050W        W30268   5.730   6.233  12.416
62051W        W30269  10.821  12.916   3.199
62052W        W30270  13.136  18.225  13.545
62053W        W30271  40.143   9.713  14.173
62054W        W30272  15.771   8.327   4.570
62055W        W30273   7.411   9.127  12.908
62056W        W30274  39.311  17.826  13.569
62057W        W30275  31.298   4.420  11.636
62058W        W30276  43.838   6.722   0.877
62059W        W30277   7.187  34.315  13.586
62060W        W30278  38.830  16.175  13.530
62061W        W30279   8.735  14.170  11.132
62062W        W30280  24.724   4.913  14.492
62063W        W30281  21.883  41.204   4.185
62064W        W30282  20.546  19.704   3.776
62065W        W30283  28.624  13.572   3.805
62066W        W30284   7.268   4.445  12.930
62067W        W30285  17.856  32.454   2.246
62068W        W30286   1.162   0.431  10.497
62069W        W30287  28.685  23.609   2.673
62070W        W30288  39.460  38.640  13.352
62071W        W30289  16.213  29.878   4.906
62072W        W30290   8.900  13.877  12.479
62073W        W30291  42.735  44.235   4.271
62074W        W30292  31.608   2.095   4.504
62075W        W30293   6.512  14.734  13.440
62076W        W30294  40.263  38.466  10.966
62077W        W30295  13.642  37.082   4.512
62078W        W30296  35.459  39.098   4.851
62079W        W30297   6.324  14.147  12.120
62080W        W30298  32.213  21.734  13.980
62081W        W30299  40.900  34.617  10.453
62082W        W30300  15.258  10.147   4.227
62083W        W30301  44.453  39.233   2.762
62084W        W30302  31.358  41.271  11.091
62085W        W30303  44.001   3.698   4.483
62086W        W30304  20.838  18.477   5.060
62087W        W30305  12.228  20.124  11.681
62088W        W30306   5.794  27.053  11.345
62089W        W30307  41.160  11.592   0.100
62090W        W30308  34.962  28.711  12.958
62091W        W30309  25.021  14.096  10.717
62092W        W30310  22.627  40.823  13.341
62093W        W30311  40.381  26.267   3.637
62094W        W30312  31.440  35.030   4.666
62095W        W30313  35.284  42.013  12.986
62096W        W30314   1.948  22.756   3.918
62097W        W30315  21.237   0.732  12.141
62098W        W30316  38.903  10.162  12.062
62099W        W30317  19.265  30.654   1.967
62100W        W30318   9.151  34.962   4.545
62101W        W30319  31.555   1.609   3.230
62102W        W30320   6.396  27.416   4.321
62103W        W30321   5.958  43.687  11.521
62104W        W30322  38.877  12.669   2.203
62105W        W30323  18.137  34.203  11.662
62106W        W30324  25.730  31.336   2.400
62107W        W30325  26.684  20.612   1.441
62108W        W30326  22.768  21.480   4.142
62109W        W30327  44.773  11.727  10.487
62110W        W30328  24.727  38.410  10.648
62111W        W30329  29.643  12.302   1.770
62112W        W30330  14.389   3.947  14.182
62113W        W30331  14.845  30.742  14.398
62114W        W30332  17.139  36.487   4.562
62115W        W30333  42.939  14.449   4.268
62116W        W30334  11.334   0.414  11.420
62117W        W30335   1.237  17.577   2.753
62118W        W30336  19.032  35.141  11.058
62119W        W30337   0.420  20.750  11.345
62120W        W30338  10.856  31.555   1.703
62121W        W30339   4.461  38.176   2.768
62122W        W30340  43.982  38.519  10.677
62123W        W30341  23.926  21.809  13.955
62124W        W30342  22.776  32.364   3.211
62125W        W30343  19.720  15.328  11.938
62126W        W30344  27.334  14.211   3.650
62127W        W30345  13.764  27.195   0.958
62128W        W30346  12.717  43.946   4.525
62129W        W30347  42.849  25.129  10.435
62130W        W30348   2.936  43.771   4.248
62131W        W30349  35.882   2.934  12.665
62132W        W30350  39.551   4.368   4.142
62133W        W30351  17.280  37.085   2.207
62134W        W30352  19.734  21.830  12.147
62135W        W30353  36.785  33.493   2.353
62136W        W30354  26.419   3.884  10.655
62137W        W30355  17.717   3.808  12.582
62138W        W30356  33.677  39.392  14.925
62139W        W30357  10.690  12.318  14.818
62140W        W30358  19.818   5.766   4.068
62141W        W30359  21.128  43.870  12.552
62142W        W30360  40.903  25.271  14.951
62143W        W30361  19.566   3.176   1.308
62144W        W30362  23.424  42.379  13.801
62145W        W30363  11.553  27.686  13.483
62146W        W30364  33.834  12.523  14.548
62147W        W30365   1.988  19.585   1.853
62148W        W30366   9.681  31.489  14.451
62149W        W30367  37.997  20.767   1.182
62150W        W30368  13.406  33.408  12.056
62151W        W30369  40.328   5.142   2.260
62152W        W30370  14.613  36.603  14.913
62153W        W30371  21.087  35.041   0.359
62154W        W30372  19.992  30.529  12.040
62155W        W30373  34.734   5.123   2.238
62156W        W30374  37.647  23.881  13.814
62157W        W30375  37.709  28.568  14.292
62158W        W30376   3.821  16.839  13.590
62159W        W30377  35.026  19.854   2.253
62160W        W30378  40.728  13.555  14.449
62161W        W30379  33.922  19.467  14.933
62162W        W30380  43.705  35.963   3.848
62163W        W30381  17.092  35.804  13.414
62164W        W30382  22.842  43.685  13.194
62165W        W30383  22.006  10.428   2.131
62166W        W30384  32.287  29.609  10.468
62167W        W30385  25.621  44.315   1.390
62168W        W30386  41.885  10.361  13.380
62169W        W30387  20.520   7.643   2.265
62170W        W30388  44.961   1.257  11.125
62171W        W30389  11.689  21.024  13.054
62172W        W30390  21.699  10.914  12.562
62173W        W30391   2.721  15.576  14.617
62174W        W30392  39.882  22.136  12.825
62175W        W30393  15.778   4.247   3.842
62176W        W30394   3.170  17.311   1.235
62177W        W30395  24.230  19.724  11.880
62178W        W30396  26.987  40.552  14.292
62179W        W30397  23.672  22.854  12.397
62180W        W30398  23.298  27.923  10.690
62181W        W30399   7.833  25.636  13.351
62182W        W30400  42.471  20.565  12.940
62183W        W30401  37.975  23.790  10.623
62184W        W30402  33.889  30.575  11.051
62185W        W30403  39.796  30.668   0.829
62186W        W30404  18.471  23.692   4.451
62187W        W30405  43.721  10.763  11.291
62188W        W30406  24.913  38.046   1.646
62189W        W30407  31.125   1.552   0.858
62190W        W30408  13.017  25.421   4.170
62191W        W30409  24.999  17.569   2.448
62192W        W30410  20.251  14.251  13.397
62193W        W30411  11.712  24.893   3.609
62194W        W30412  23.573   4.822  11.427
62195W        W30413  13.951   9.971  10.121
62196W        W30414   2.213  12.834  12.590
62197W        W30415  32.591  12.042   3.658
62198W        W30416  33.552  19.587   3.737
62199W        W30417   8.734  40.688  14.866
62200W        W30418  11.381  26.203   0.793
62201W        W30419   2.948  29.664  13.521
62202W        W30420  35.741  10.362   1.331
62203W        W30421  19.636  43.769  14.378
62204W        W30422  29.657   3.416   3.669
62205W        W30423  34.661  11.328  11.244
62206W        W30424  18.282  16.809   2.437
62207W        W30425  38.020  25.237   5.037
62208W        W30426  20.582  37.389  10.236
62209W        W30427  16.833  16.346  11.985
62210W        W30428  19.571   3.942  11.025
62211W        W30429   2.727  37.030   2.451
62212W        W30430  38.405  40.964   0.711
62213W        W30431  39.412  17.025   0.311
62214W        W30432   6.072   1.300   0.878
62215W        W30433  30.489  44.922   1.472
62216W        W30434  17.233  16.522  13.370
62217W        W30435   6.890  38.131  11.950
62218W        W30436   1.540  31.563  11.170
62219W        W30437  18.205  29.721  11.565
62220W        W30438  16.550   5.654  11.602
62221W        W30439  16.724  39.813  14.477
62222W        W30440  32.551  40.534  12.100
62223W        W30441  28.000  11.578   4.095
62224W        W30442  21.545  14.850   0.392
62225W        W30443  34.875   9.251  11.473
62226W        W30444  44.442   2.194  11.669
62227W        W30445   7.848  29.145  14.683
62228W        W30446  38.697  42.007   1.816
62229W        W30447   3.218  28.512  11.712
62230W        W30448  15.778  12.277  13.383
62231W        W30449  22.269  31.469  14.448
62232W        W30450  18.859   7.748   3.130
62233W        W30451   5.748   8.606   1.381
62234W        W30452   0.799  39.933   3.281
62235W        W30453  12.959  42.827   3.310
62236W        W30454  32.923  33.062   4.272
62237W        W30455  21.613  12.040  13.030
62238W        W30456  30.730  20.597  12.940
62239W        W30457  35.074  15.845   1.796
62240W        W30458   0.521   7.188  14.790
62241W        W30459  18.444  15.309   2.739
62242W        W30460  17.161  27.657   2.963
62243W        W30461  35.867  24.464  14.010
62244W        W30462  23.617  15.504  14.569
62245W        W30463  36.246  41.472   1.360
62246W        W30464  11.746  15.115  13.677
62247W        W30465  11.471   4.968  12.869
62248W        W30466   9.878  35.334  14.317
62249W        W30467  37.144  32.214  10.805
62250W        W30468  29.392   8.388  12.830
62251W        W30469  12.449  23.392  11.075
62252W        W30470  21.596  15.434  14.347
62253W        W30471  37.388   2.150  12.214
62254W        W30472   7.887  16.724  11.603
62255W        W30473  17.326  42.147   0.424
62256W        W30474  14.630  27.951  12.935
62257W        W30475  10.934  28.896  10.329
62258W        W30476  36.537   9.605   2.908
62259W        W30477   0.040  40.098   3.706
62260W        W30478  41.639  11.189  10.747
62261W        W30479  35.058  34.500  12.402
62262W        W30480   0.189  21.555  11.452
62263W        W30481  42.828  40.493  12.658
62264W        W30482   9.676  35.101   1.093
62265W        W30483  22.186  17.350   2.304
62266W        W30484  28.524  38.984   0.698
62267W        W30485  32.040   3.719   0.734
62268W        W30486  25.444  13.324  13.613
62269W        W30487   2.326  43.508   4.284
62270W        W30488  27.167  29.317  12.540
62271W        W30489   1.200  20.764  12.863
62272W        W30490  23.159  26.957   1.413
62273W        W30491  42.026  25.200   3.062
62274W        W30492   8.268  38.522  11.010
62275W        W30493  24.973  38.756   4.379
62276W        W30494  30.650  36.493   4.583
62277W        W30495  19.114   6.844   0.596
62278W        W30496   7.008  32.798  11.701
62279W        W30497  19.709  40.877  14.305
62280W        W30498  28.217  42.730  10.332
62281W        W30499  16.485  31.998   3.656
62282W        W30500  21.120  18.849  12.371
62283W        W30501  24.205   8.288   0.428
62284W        W30502   9.553  21.833   3.079
62285W        W30503  32.021  23.297   1.274
62286W        W30504  24.321   0.295  13.101
62287W        W30505  30.145  17.145   1.805
62288W        W30506  10.214   4.990  14.604
62289W        W30507   7.470  22.792  10.659
62290W        W30508  19.402  14.083  14.195
62291W        W30509  14.888  35.879  10.946
62292W        W30510  25.246  17.315  13.963
62293W        W30511  25.197  41.240  13.885
62294W        W30512  38.418   5.283  11.319
62295W        W30513  22.449  41.990  14.741
62296W        W30514  26.163  39.893   0.498
62297W        W30515  25.558  40.022   4.423
62298W        W30516  29.696   8.163   1.368
62299W        W30517  34.402  44.841  13.479
62300W        W30518  25.068  15.369  11.531
62301W        W30519  38.301  42.974   1.699
62302W        W30520  23.355  13.657  12.109
62303W        W30521   6.756  37.620  10.217
62304W        W30522  32.233   0.901   0.291
62305W        W30523  27.562  30.962   1.419
62306W        W30524  43.261  26.917   0.005
62307W        W30525   0.344  43.919   3.163
62308W        W30526  21.163  34.122   1.194
62309W        W30527  30.712  13.625  11.926
62310W        W30528  31.505  19.867  13.073
62311W        W30529  11.816  26.705  12.368
62312W        W30530  39.586   3.411  11.139
62313W        W30531  40.488  40.600   3.684
62314W        W30532  36.220   8.843   3.717
62315W        W30533  31.057  22.738   3.171
62316W        W30534   2.506  37.363  10.724
62317W        W30535  13.860  42.846  14.902
62318W        W30536  37.983  41.714  14.478
62319W        W30537   4.911  18.133  10.341
62320W        W30538  15.071   3.786  12.130
62321W        W30539  15.081  34.054  12.441
62322W        W30540   6.414   4.040   2.631
62323W        W30541  35.906  26.194  10.703
62324W        W30542  19.717  19.623  14.605
62325W        W30543  40.996   0.744   2.735
62326W        W30544  34.519  41.455  13.558
62327W        W30545  30.634  12.110  12.117
62328W        W30546  37.792   5.131   0.348
62329W        W30547  19.212  41.892   2.279
62330W        W30548   4.292   0.746   0.772
62331W        W30549  36.434  35.993  14.193
62332W        W30550  22.522   8.173   2.266
62333W        W30551  40.920   4.344   2.864
62334W        W30552  31.892  36.093   1.801
62335W        W30553  37.373   3.026   2.925
62336W        W30554   1.003  40.774   4.031
62337W        W30555  36.562  21.950   1.330
62338W        W30556  10.381  26.770   2.214
62339W        W30557   4.247  21.754  11.266
62340W        W30558  23.759   9.195   1.829
62341W        W30559  44.292  12.871   3.350
62342W        W30560  33.110  21.318  10.403
62343W        W30561   8.172  42.815   0.350
62344W        W30562  14.312  31.885   4.606
62345W        W30563  19.634  23.453  12.479
62346W        W30564  23.941  28.813  11.633
62347W        W30565  42.545   1.706   1.755
62348W        W30566   2.191  39.086  10.298
62349W        W30567   3.824   4.839   3.047
62350W        W30568  41.427  20.769   4.001
62351W        W30569  10.606  20.642   2.677
62352W        W30570  44.947  34.227  11.184
62353W        W30571  24.589   8.495   3.197
62354W        W30572  39.969   5.923  10.340
62355W        W30573  44.381  36.960  14.337
62356W        W30574   1.728   9.338  14.328
62357W        W30575   8.076  36.423   3.328
62358W        W30576   5.297  35.956  10.652
62359W        W30577   4.595   9.746   3.989
62360W        W30578  20.500   7.876  11.805
62361W        W30579  20.214   2.581  14.329
62362W        W30580  12.320  10.615   3.168
62363W        W30581  43.745  33.999  10.847
62364W        W30582  36.363  40.834   3.315
62365W        W30583  33.393  10.338   5.133
62366W        W30584   1.015  34.016   1.775
62367W        W30585   4.900  37.675  12.491
62368W        W30586   7.888  12.818   3.669
62369W        W30587  33.867  21.923  13.382
62370W        W30588   0.911  22.625  13.587
62371W        W30589  20.141  24.273   3.817
62372W        W30590  37.085  24.008   3.364
62373W        W30591  35.447  43.600   2.268
62374W        W30592  32.948   6.615   1.882
62375W        W30593  11.663   6.858   0.101
62376W        W30594  20.666   4.916  14.844
62377W        W30595  36.094  17.830  12.072
62378W        W30596  44.960  24.426   4.635
62379W        W30597  36.212   3.880  12.906
62380W        W30598   2.067  16.142  11.584
62381W        W30599  19.212  44.615   2.675
62382W        W30600  11.679  16.325   3.279
62383W        W30601  29.109  38.318  11.149
62384W        W30602  34.897   5.852   4.335
62385W        W30603  22.584  44.115   4.642
62386W        W30604  27.075   4.829   3.210
62387W        W30605  26.747  23.805  12.503
62388W        W30606  15.820  26.017   0.240
62389W        W30607  29.576  23.737  12.469
62390W        W30608  29.440  25.752  12.046
62391W        W30609  12.529  41.121   4.947
62392W        W30610  20.171  27.561   3.859
62393W        W30611  15.683  23.975   0.790
62394W        W30612  27.006  44.892  11.043
62395W        W30613   9.476  17.375   3.639
62396W        W30614  36.548  16.045  12.871
62397W        W30615  30.024   4.262  13.991
62398W        W30616  27.489  39.542   1.847
62399W        W30617   4.713  42.555  14.400
62400W        W30618  14.136  18.600   0.216
62401W        W30619  38.676  27.633   0.991
62402W        W30620  39.057   3.129  12.011
62403W        W30621  22.616  39.176   1.412
62404W        W30622  33.866  34.903   1.476
62405W        W30623  22.152  30.702   2.719
62406W        W30624   7.879  35.298   0.310
62407W        W30625   3.858  15.611  12.904
62408W        W30626  13.720  43.295   4.759
62409W        W30627  38.736  36.349  11.926
62410W        W30628  33.447  40.254   4.071
62411W        W30629   2.642  25.420  12.519
62412W        W30630  30.977   4.007  11.552
62413W        W30631  40.914  37.582   4.176
62414W        W30632   5.879  12.441   1.353
62415W        W30633  13.819   4.262  10.598
62416W        W30634  39.246  23.484   0.378
62417W        W30635   0.964  31.718   0.026
62418W        W30636  32.208  30.856   4.540
62419W        W30637  30.480  38.773   1.281
62420W        W30638  21.388   4.451   3.744
62421W        W30639  41.969  19.251   2.768
62422W        W30640  31.213  40.392  10.678
62423W        W30641   1.499  11.972   1.641
62424W        W30642  38.621   6.641   4.177
62425W        W30643  14.945  40.027   2.679
62426W        W30644  18.253   8.443  13.166
62427W        W30645  33.058  26.437  11.700
62428W        W30646  43.363  15.668   1.903
62429W        W30647  12.677  16.749   2.799
62430W        W30648  25.498  11.786   4.435
62431W        W30649  39.317  14.191  14.235
62432W        W30650  32.920  23.569  14.424
62433W        W30651  15.015  25.608   0.323
62434W        W30652  36.428  38.556  14.993
62435W        W30653  15.758  15.357   4.973
62436W        W30654  38.820  28.879   2.248
62437W        W30655   8.240  35.920  13.149
62438W        W30656  21.903  36.346   5.082
62439W        W30657   9.244  28.181   3.730
62440W        W30658   3.134  43.892  12.972
62441W        W30659   6.321  31.457   2.251
62442W        W30660  40.530  28.600  12.435
62443W        W30661  28.417  37.858  14.771
62444W        W30662  13.198   9.360   2.881
62445W        W30663   4.510  18.569  11.132
62446W        W30664  42.033  19.770   1.461
62447W        W30665  40.255  39.440  11.007
62448W        W30666  27.918   2.963  12.136
62449W        W30667   7.326   8.482   4.036
62450W        W30668   2.984  20.018  14.003
62451W        W30669   9.380   6.178   2.847
62452W        W30670  33.140   5.744  11.896
62453W        W30671  14.774   7.149   1.828
62454W        W30672  33.468  41.385  12.004
62455W        W30673  42.647  41.511  11.109
62456W        W30674  10.661  43.712  13.403
62457W        W30675   1.251  15.155   3.230
62458W        W30676  21.213   3.254  13.691
62459W        W30677   4.252  26.768  11.988
62460W        W30678  12.835  35.300   4.089
62461W        W30679  19.133  26.180  11.710
62462W        W30680  36.561  31.840   3.201
62463W        W30681   6.800  31.855  12.450
62464W        W30682  20.262   6.425   2.779
62465W        W30683  13.567  24.579  14.441
62466W        W30684  14.871  32.150  14.027
62467W        W30685  29.548  39.180  11.556
62468W        W30686  34.949  17.151  12.927
62469W        W30687  37.371   6.346  14.043
62470W        W30688  16.283  23.683  14.766
62471W        W30689  13.905   6.828  10.904
62472W        W30690   7.640  34.616  10.865
62473W        W30691  20.080  26.835  14.457
62474W        W30692  30.138  15.271   4.414
62475W        W30693  18.162  30.878   1.316
62476W        W30694  33.545  18.572   1.784
62477W        W30695  36.954  41.374   3.185
62478W        W30696  23.616  36.456   4.679
62479W        W30697  34.954  15.151   0.840
62480W        W30698  34.505  13.539  10.699
62481W        W30699  20.637  23.835   1.905
62482W        W30700  40.271  29.129   0.919
62483W        W30701  15.285  25.562   1.844
62484W        W30702  43.268  41.248   5.038
62485W        W30703   7.401  34.126   1.472
62486W        W30704  22.692  23.750  10.692
62487W        W30705  15.443  26.075  13.406
62488W        W30706   2.695  36.536   3.643
62489W        W30707  14.093   5.916   4.648
62490W        W30708  12.966  43.616   0.540
62491W        W30709  25.700  27.947   3.597
62492W        W30710  24.727  10.276   3.120
62493W        W30711  41.829  42.823   0.508
62494W        W30712  36.645  36.328  10.949
62495W        W30713  25.353  44.377   4.309
62496W        W30714  44.411  29.528   0.366
62497W        W30715  40.396  16.240  12.195
62498W        W30716  27.091  14.295   0.455
62499W        W30717  32.941  43.448  13.168
62500W        W30718   7.659  28.645   2.920
62501W        W30719   0.936   9.397   1.623
62502W        W30720   8.616  15.825  12.645
62503W        W30721   6.108   4.721  11.138
62504W        W30722   9.253  23.834   0.789
62505W        W30723   6.184  39.021  10.683
62506W        W30724  16.634  43.735  14.858
62507W        W30725   4.216   4.425  12.819
62508W        W30726   9.817   3.917  13.303
62509W        W30727  14.266  32.899   2.948
62510W        W30728  19.216  28.146  10.592
62511W        W30729   2.349  17.989  11.654
62512W        W30730  42.761   2.792   1.437
62513W        W30731  38.211   5.242  10.628
62514W        W30732  21.802   4.955  11.103
62515W        W30733   9.361   5.594  14.479
62516W        W30734  21.398  11.386  13.812
62517W        W30735  11.857  33.602  11.769
62518W        W30736   9.674   2.525   4.496
62519W        W30737  14.183  38.034  10.672
62520W        W30738  28.594  27.044  14.593
62521W        W30739   7.101   2.779  11.601
62522W        W30740  14.405  38.642  12.073
62523W        W30741  43.481  25.547  12.412
62524W        W30742  22.655   3.669   0.299
62525W        W30743   5.367  38.158   1.866
62526W        W30744   6.638  19.504  10.611
62527W        W30745   0.826   5.364   1.976
62528W        W30746  29.456  14.665  12.408
62529W        W30747   0.507   3.640   1.423
62530W        W30748  29.582  42.469   2.628
62531W        W30749  27.670  20.152  11.646
62532W        W30750  18.931  32.085  12.684
62533W        W30751  44.711  10.936  13.930
62534W        W30752  35.809  24.510   1.769
62535W        W30753   9.220  35.461   4.082
62536W        W30754  25.686  27.376  11.111
62537W        W30755   2.743   0.904  14.449
62538W        W30756  22.080   7.655   2.733
62539W        W30757  41.077  23.252  12.543
62540W        W30758  19.713  21.538  14.091
62541W        W30759   0.539   8.757   0.030
62542W        W30760  10.643  33.004  10.641
62543W        W30761  25.462   6.941   3.704
62544W        W30762  27.545  31.476  12.474
62545W        W30763  34.991   7.922   4.631
62546W        W30764   8.176  10.650  12.854
62547W        W30765  14.008   8.033   3.700
62548W        W30766  29.970  17.351   4.421
62549W        W30767  41.978   7.705  11.239
62550W        W30768   9.731  40.798  13.318
62551W        W30769  15.060  15.321   4.575
62552W        W30770  25.038   3.899   3.109
62553W        W30771  37.587  20.075   5.123
62554W        W30772   7.115  16.890  12.505
62555W        W30773  24.115   5.888  10.890
62556W        W30774  21.128  41.280   2.255
62557W        W30775  12.608   3.794   1.421
62558W        W30776  24.877  34.507  12.782
62559W        W30777  42.784  44.246  13.950
62560W        W30778  42.339  41.229   0.814
62561W        W30779   6.670  17.575   1.292
62562W        W30780  31.931  13.792  12.686
62563W        W30781  10.374  40.985  14.040
62564W        W30782  37.001  18.687  12.398
62565W        W30783  29.193  30.382   0.274
62566W        W30784  12.700  32.563  12.086
62567W        W30785  37.020  41.716  11.042
62568W        W30786  16.791  31.948   3.254
62569W        W30787  34.888  23.664   0.734
62570W        W30788  42.742   1.910  12.865
62571W        W30789  36.092  42.108   0.197
62572W        W30790  11.866   0.286  14.366
62573W        W30791  12.631  14.833   4.179
62574W        W30792   5.028   8.790  14.407
62575W        W30793  24.217   7.127   1.032
62576W        W30794  21.638  28.616   1.842
62577W        W30795  25.116  33.847  11.667
62578W        W30796  23.863   7.239  13.979
62579W        W30797  29.523   3.627   1.701
62580W        W30798  44.821  19.829   0.744
62581W        W30799  24.316  26.165  10.944
62582W        W30800   0.882  22.477  12.535
62583W        W30801  11.110  14.280   4.620
62584W        W30802   8.343  44.727   3.885
62585W        W30803  14.010  17.302  12.284
62586W        W30804  27.449  36.281  14.260
62587W        W30805   2.442  35.128  12.911
62588W        W30806  29.737  41.839  13.500
62589W        W30807  35.122  36.571   4.134
62590W        W30808  16.997  14.293  11.772
62591W        W30809  28.629  18.718   4.516
62592W        W30810  27.980  25.633  12.311
62593W        W30811  25.676   3.990   1.397
62594W        W30812  39.517   7.699  14.408
62595W        W30813  13.266  17.024  13.744
62596W        W30814   8.439  33.330  10.585
62597W        W30815   6.469  24.715   0.897
62598W        W30816  17.012  36.547   0.821
62599W        W30817  22.498   7.138  14.033
62600W        W30818  30.860  10.359   3.677
62601W        W30819  31.891   0.741  14.858
62602W        W30820  33.495  19.849  11.853
62603W        W30821   9.236  16.203  11.613
62604W        W30822   0.032  25.917  11.486
62605W        W30823  12.871  41.399  11.054
62606W        W30824  31.287  28.728  10.218
62607W        W30825  22.461  18.365   3.661
62608W        W30826  21.530  23.346  12.756
62609W        W30827  22.959  19.589   2.296
62610W        W30828   2.852   5.760   0.335
62611W        W30829  29.338  41.927  13.155
62612W        W30830  44.334   0.842  12.396
62613W        W30831  35.987  35.926   1.849
62614W        W30832   6.943  20.058   2.049
62615W        W30833   7.668  14.817  12.383
62616W        W30834  17.742  23.587   4.960
62617W        W30835  12.579  42.313   0.039
62618W        W30836  35.490   8.671   4.289
62619W        W30837   3.252  30.690   2.022
62620W        W30838  16.103  14.610  13.989
62621W        W30839   9.836  39.267  11.022
62622W        W30840  25.278  44.254  14.469
62623W        W30841  33.405  21.082  13.882
62624W        W30842  30.241  16.493   0.449
62625W        W30843  21.016  17.130   1.196
62626W        W30844  10.353  30.273  13.981
62627W        W30845   2.512  43.266  12.990
62628W        W30846   3.613  20.769  11.935
62629W        W30847   9.188   5.448  12.101
62630W        W30848  36.905   6.131   1.286
62631W        W30849   5.915  37.308   2.282
62632W        W30850  31.091   5.340  13.538
62633W        W30851   0.695  21.014   2.260
62634W        W30852  35.349  14.849   0.903
62635W        W30853  23.002  30.219   9.869
62636W        W30854  30.526  15.032   9.991
62637W        W30855   0.392   1.548  10.943
62638W        W30856  37.861  21.851  12.501
62639W        W30857  36.599  38.123  14.046
62640W        W30858  23.257  30.741  10.727
62641W        W30859   4.243  44.017   3.553
62642W        W30860  32.926  41.150   0.568
62643W        W30861  20.687  28.133   3.851
62644W        W30862  27.867  18.507  11.305
62645W        W30863  44.477  36.401  11.610
62646W        W30864  12.549  14.483   0.998
62647W        W30865  11.803  36.992   2.277
62648W        W30866  20.075  12.785  11.698
62649W        W30867  24.711  40.378  14.813
62650W        W30868  19.285  25.612   0.864
62651W        W30869  39.023  22.510   2.504
62652W        W30870   5.005  33.357  12.565
62653W        W30871  30.221  44.492   1.270
62654W        W30872  44.175  34.001  11.109
62655W        W30873  41.462  28.032  13.328
62656W        W30874  27.213  22.922   3.242
62657W        W30875  26.505  44.543  14.752
62658W        W30876  36.678  19.219   0.506
62659W        W30877   9.630  12.334  14.916
62660W        W30878  38.977  13.612  14.273
62661W        W30879  42.380  13.675  11.226
62662W        W30880  42.764  20.636  12.464
62663W        W30881   1.809  33.007   2.123
62664W        W30882  21.964  44.874   2.651
62665W        W30883  34.442  13.553  13.363
62666W        W30884  44.769   8.718   5.113
62667W        W30885  29.087  25.468   3.308
62668W        W30886  38.565  30.873   4.653
62669W        W30887  41.417  21.763   0.900
62670W        W30888  27.347  37.099   4.336
62671W        W30889  13.586  29.711  13.024
62672W        W30890   0.514  11.591   2.858
62673W        W30891  36.393  24.055  11.153
62674W        W30892  30.460  42.092   1.311
62675W        W30893   4.725  30.656  11.850
62676W        W30894  37.095   0.039  13.866
62677W        W30895  33.338   4.777  14.490
62678W        W30896  34.876  22.431   4.338
62679W        W30897  34.907  30.501  11.158
62680W        W30898  39.990  39.396  12.807
62681W        W30899  42.093  34.969   3.716
62682W        W30900  32.065  11.105   4.094
62683W        W30901   0.859  42.598  14.573
62684W        W30902  16.132  36.306   3.245
62685W        W30903  27.240  26.121   3.646
62686W        W30904  31.364  33.273   0.457
62687W        W30905  32.490   1.851   2.411
62688W        W30906   4.411  40.138   4.574
62689W        W30907  20.058  37.559   0.853
62690W        W30908  30.530  40.428   2.792
62691W        W30909  40.081  15.200   1.359
62692W        W30910  44.899  22.759   2.324
62693W        W30911   4.965  32.595  13.636
62694W        W30912  25.747  29.371   0.365
62695W        W30913  17.378  27.282   4.140
62696W        W30914  24.660   1.247   2.243
62697W        W30915   3.278  25.178  13.364
62698W        W30916  14.652   0.568   3.133
62699W        W30917  16.111  11.582  11.354
62700W        W30918  23.227  23.525  12.487
62701W        W30919  14.752  31.755   3.824
62702W        W30920  10.520  35.316  11.491
62703W        W30921   5.919  30.262  11.185
62704W        W30922  17.825   8.628  14.458
62705W        W30923   1.013  17.859  11.500
62706W        W30924  39.535  19.654   0.052
62707W        W30925  39.289  14.050   1.341
62708W        W30926  32.861   5.016  12.486
62709W        W30927  10.317   8.395   3.710
62710W        W30928  26.747  27.628   2.462
62711W        W30929  44.232  16.450   1.730
62712W        W30930  22.836  29.640   4.737
62713W        W30931  19.180  12.883   5.486
62714W        W30932   4.658  36.471   4.203
62715W        W30933  13.219  23.463   0.773
62716W        W30934   2.353  27.555   1.354
62717W        W30935  29.016  41.858   4.096
62718W        W30936  10.409  16.648  14.375
62719W        W30937  25.579  24.575  13.134
62720W        W30938  15.321   5.889   4.122
62721W        W30939  24.191  34.439  12.412
62722W        W30940  20.222  10.401   4.355
62723W        W30941  17.749   6.161  11.006
62724W        W30942  20.285  35.918  14.753
62725W        W30943  31.889  38.330   2.395
62726W        W30944  17.555  34.372   2.083
62727W        W30945   9.146  40.065   1.790
62728W        W30946  10.305  11.531  10.561
62729W        W30947  42.622  13.706   0.399
62730W        W30948   8.209  44.838  13.127
62731W        W30949   2.685   3.512  14.873
62732W        W30950  36.102  17.143  14.250
62733W        W30951  15.797  16.995  12.307
62734W        W30952  20.305  44.343   4.492
62735W        W30953   6.004  18.799   4.819
62736W        W30954   5.284  34.613  11.282
62737W        W30955  14.083  22.773   2.167
62738W        W30956  40.386  27.474   1.438
62739W        W30957  33.377  36.173  13.950
62740W        W30958   8.760  21.170  10.958
62741W        W30959   6.332  26.769  13.407
62742W        W30960  15.140  30.072   2.145
62743W        W30961  19.964  36.079  11.047
62744W        W30962  16.437  17.622   2.872
62745W        W30963   1.239  29.216  11.569
62746W        W30964  41.863  20.185   3.017
62747W        W30965  36.140  26.929  13.916
62748W        W30966  10.378  44.589  10.176
62749W        W30967  29.581  44.511   4.235
62750W        W30968  12.692   1.760   2.538
62751W        W30969  31.529  32.408   0.550
62752W        W30970  32.488  23.515  12.410
62753W        W30971  27.255  38.912  10.933
62754W        W30972  31.375   5.453   2.858
62755W        W30973  31.953  42.799   2.214
62756W        W30974   1.440  15.188  14.038
62757W        W30975  20.543  30.178  11.543
62758W        W30976   3.660   6.145   0.539
62759W        W30977  30.376   1.386  10.289
62760W        W30978  38.196  11.583  10.749
62761W        W30979  32.522  19.268   0.975
62762W        W30980  21.597  35.626  11.481
62763W        W30981  20.758  17.685   4.676
62764W        W30982  35.821  29.906   2.137
62765W        W30983   8.382   8.698  11.994
62766W        W30984  22.105   4.871   4.552
62767W        W30985   9.347  33.809  10.600
62768W        W30986  42.423  14.436  10.650
62769W        W30987  41.848  44.500  11.513
62770W        W30988  25.680  14.503   4.497
62771W        W30989  16.646   4.725  11.980
62772W        W30990  37.961  12.049   4.500
62773W        W30991  12.346  27.475  13.920
62774W        W30992  19.487  21.001  10.662
62775W        W30993  27.919  28.286  14.602
62776W        W30994  20.107  31.857   0.993
62777W        W30995   4.717  19.735  12.899
62778W        W30996  43.641  10.582   3.215
62779W        W30997  34.882  31.726   4.692
62780W        W30998  23.589  12.271   2.734
62781W        W30999  17.542   0.313   2.871
62782W        W31000  29.880   3.361  14.110
62783W        W31001  35.007  25.072   4.646
62784W        W31002  35.291  42.287  13.886
62785W        W31003   1.945  12.132   4.169
62786W        W31004  40.093  22.717  13.621
62787W        W31005   3.335   9.385  10.595
62788W        W31006  10.635  19.684   0.429
62789W        W31007  16.770  39.279   3.055
62790W        W31008  43.488   4.437   2.272
62791W        W31009  42.348  25.720   0.060
62792W        W31010  38.113  34.505  12.132
62793W        W31011  38.186  24.640  14.515
62794W        W31012  24.733  15.747   1.327
62795W        W31013  42.972   7.897  10.704
62796W        W31014  18.615   5.592   0.587
62797W        W31015  28.405  42.119  13.030
62798W        W31016  37.731   4.348   3.155
62799W        W31017  12.436  32.108   2.355
62800W        W31018  22.243  25.535   4.834
62801W        W31019  19.637  32.822  10.691
62802W        W31020  34.582  22.143   2.466
62803W        W31021  37.093  17.174   2.002
62804W        W31022   7.677  18.049  11.525
62805W        W31023  39.934  24.309  13.534
62806W        W31024  27.915  30.725  10.803
62807W        W31025  24.408  25.426   2.689
62808W        W31026  30.764  28.986  11.672
62809W        W31027  38.046  44.323   2.733
62810W        W31028   8.894   1.394  12.949
62811W        W31029  36.864  40.531  11.986
62812W        W31030   4.224  39.744  14.882
62813W        W31031  42.987  36.649   2.232
62814W        W31032  23.190   4.912  10.265
62815W        W31033  40.471  41.580   3.672
62816W        W31034  37.557  27.223  13.852
62817W        W31035  13.741  22.885   1.286
62818W        W31036  14.822  19.089  14.748
62819W        W31037  39.802  34.641   1.841
62820W        W31038  41.433  41.785   4.588
62821W        W31039   5.259  24.742  12.072
62822W        W31040  26.453  37.895  13.997
62823W        W31041   7.351  21.943   1.704
62824W        W31042  40.754  28.711  10.666
62825W        W31043  11.328  13.661   1.134
62826W        W31044   4.723  21.556  12.965
62827W        W31045  28.898  20.566  12.130
62828W        W31046  14.018   2.684  10.681
62829W        W31047  22.992  14.802   0.487
62830W        W31048   0.835  32.907  11.833
62831W        W31049  43.528  24.459   4.510
62832W        W31050   6.762  17.829  14.434
62833W        W31051  40.467  33.654   4.185
62834W        W31052  22.333  24.466  11.078
62835W        W31053  30.462  15.184   0.049
62836W        W31054  19.003   5.752  12.001
62837W        W31055  26.175  14.317  14.732
62838W        W31056  44.409  10.726   2.860
62839W        W31057   9.299  12.043   2.696
62840W        W31058  15.163   6.249  14.368
62841W        W31059   9.106  28.712  14.322
62842W        W31060  22.539   0.465   3.667
62843W        W31061  30.331  34.284  14.887
62844W        W31062  18.589  29.551  14.819
62845W        W31063  22.720  12.882  10.726
62846W        W31064  44.379   5.051  10.791
62847W        W31065  18.252   0.832   3.804
62848W        W31066   7.830  38.993  13.028
62849W        W31067  29.250  31.960  11.191
62850W        W31068  24.750  25.191  11.641
62851W        W31069  42.480  35.482   3.164
62852W        W31070  43.007   9.990   1.354
62853W        W31071  38.521   5.228   5.027
62854W        W31072  31.932   2.742   2.233
62855W        W31073   7.672   6.352   4.587
62856W        W31074  37.594  43.913   0.650
62857W        W31075  33.633   4.205  10.811
62858W        W31076  12.706  18.636  10.651
62859W        W31077  19.566  21.458   3.770
62860W        W31078  38.335   7.088   3.306
62861W        W31079  43.826  29.543   1.217
62862W        W31080  16.641  30.196   1.454
62863W        W31081   3.048  41.071  14.421
62864W        W31082  11.126   8.239   4.449
62865W        W31083  23.672  33.343   1.378
62866W        W31084  30.161  25.106  14.506
62867W        W31085  33.963   8.116   3.549
62868W        W31086  31.646  31.164  12.970
62869W        W31087  35.966   1.984  11.520
62870W        W31088  27.921  34.527  14.200
62871W        W31089  37.277   6.415   2.163
62872W        W31090  24.590   0.713   1.480
62873W        W31091  41.891   1.894   0.068
62874W        W31092  11.881   4.157   2.156
62875W        W31093  35.893  22.061  12.142
62876W        W31094  16.719  26.948   3.103
62877W        W31095  10.132   0.528  11.174
62878W        W31096  42.815  20.436   2.849
62879W        W31097  37.108   1.910  11.719
62880W        W31098  33.069  16.373   1.385
62881W        W31099  34.173  26.388  13.034
62882W        W31100   8.128   8.595   5.031
62883W        W31101  16.311   2.939   3.395
62884W        W31102  19.028  29.739   2.195
62885W        W31103  27.576  35.543  10.639
62886W        W31104  30.409  11.323   1.429
62887W        W31105  17.644  24.204   3.668
62888W        W31106   8.957  11.962  12.867
62889W        W31107  15.064   9.313  10.749
62890W        W31108  25.169  10.196  14.900
62891W        W31109  22.237  20.475   1.798
62892W        W31110   2.383  24.739   2.288
62893W        W31111  28.600  24.546   2.629
62894W        W31112  21.251   3.403  14.531
62895W        W31113   9.813  10.450   4.685
62896W        W31114  11.220   1.983  14.379
62897W        W31115   5.432  44.230   1.444
62898W        W31116  13.418   6.331  13.928
62899W        W31117  16.378   1.604   0.969
62900W        W31118  37.427  41.366   2.711
62901W        W31119  34.019   3.837  11.682
62902W        W31120  32.660   5.850   3.657
62903W        W31121  42.290  23.636  13.899
62904W        W31122  38.407  20.674  14.324
62905W        W31123   5.734  35.881   4.372
62906W        W31124  38.807   6.057  11.613
62907W        W31125  28.426  32.587  12.021
62908W        W31126  37.548   9.960   3.595
62909W        W31127   3.697   4.710  12.255
62910W        W31128  12.414  43.842  13.015
62911W        W31129  37.874   0.173   4.669
62912W        W31130  34.953  35.053   0.837
62913W        W31131  31.400  17.419   0.963
62914W        W31132  43.526  14.985  10.741
62915W        W31133  38.420  34.482   1.976
62916W        W31134  33.522  22.711  12.597
62917W        W31135  11.730  44.866   9.716
62918W        W31136  15.101   8.450   4.157
62919W        W31137  13.789  21.472   0.377
62920W        W31138  35.330  25.903   1.701
62921W        W31139  32.471  22.986  14.991
62922W        W31140  39.888   4.843   1.073
62923W        W31141  22.720  40.357   2.242
62924W        W31142   0.877  33.055  12.791
62925W        W31143  19.016  32.468  11.906
62926W        W31144  27.425   2.277  11.577
62927W        W31145  13.639  21.944   1.438
62928W        W31146  20.257  34.324   3.641
62929W        W31147  44.458  19.234   0.817
62930W        W31148   0.704  31.136  11.547
62931W        W31149  39.064  37.601   3.918
62932W        W31150  42.598  43.460   3.768
62933W        W31151  18.130  35.917   3.598
62934W        W31152  20.739  27.121  14.672
62935W        W31153  33.363   2.939  10.541
62936W        W31154  22.294  41.498  14.752
62937W        W31155  39.927   1.350  12.431
62938W        W31156  35.886  16.539  14.930
62939W        W31157   9.910  28.146   3.173
62940W        W31158  33.540  21.420   4.125
62941W        W31159  40.520  13.732   0.669
62942W        W31160  43.771  24.591   2.355
62943W        W31161   8.266   2.895  14.469
62944W        W31162   6.867  30.891  13.400
62945W        W31163  22.682  13.175   4.740
62946W        W31164   2.800  34.685   1.703
62947W        W31165   3.254  14.229   1.443
62948W        W31166   6.131  10.410  12.839
62949W        W31167   1.692   0.419  11.139
62950W        W31168  13.908  15.379   0.916
62951W        W31169  41.635  43.380   4.034
62952W        W31170  22.993  19.560  11.746
62953W        W31171  13.377  43.058   2.435
62954W        W31172  35.819  12.640  12.516
62955W        W31173   9.634   1.750   1.321
62956W        W31174  22.451  43.352  11.931
62957W        W31175  17.483  23.508   0.790
62958W        W31176  11.928   4.371   0.349
62959W        W31177  42.218  24.112  11.568
62960W        W31178  34.557  24.897   1.953
62961W        W31179  23.042  10.258   4.687
62962W        W31180  13.338  30.118  13.247
62963W        W31181  33.787  17.212  10.631
62964W        W31182  28.433  23.274   3.819
62965W        W31183  23.150  25.688   4.137
62966W        W31184  34.573  29.605   4.345
62967W        W31185  43.973  17.060   3.581
62968W        W31186   2.447  20.107   4.208
62969W        W31187  34.824   2.761  10.585
62970W        W31188  40.332  22.170  13.129
62971W        W31189  19.714  35.229   0.162
62972W        W31190  15.905   8.171  10.693
62973W        W31191  26.687  40.964   0.912
62974W        W31192  14.341   1.951  12.561
62975W        W31193   5.202  41.714   0.233
62976W        W31194  34.970  28.541   4.038
62977W        W31195  27.742  40.577   4.537
62978W        W31196  41.350  27.465  11.133
62979W        W31197  10.850  20.631  13.064
62980W        W31198  37.965   8.827   3.285
62981W        W31199   5.455  41.924  12.216
62982W        W31200  17.772  21.645   4.148
62983W        W31201  36.364  15.931   2.182
62984W        W31202  13.712  11.749   4.725
62985W        W31203  25.893  28.167   1.191
62986W        W31204  41.081  35.410  11.677
62987W        W31205  38.043   8.847   2.213
62988W        W31206   9.165  39.322   1.325
62989W        W31207   2.435  23.536   4.526
62990W        W31208  30.153  30.621   0.966
62991W        W31209  34.869   4.406  10.078
62992W        W31210  37.920   1.364  12.578
62993W        W31211  44.321  44.235   5.204
62994W        W31212  19.862  13.990  14.479
62995W        W31213   1.014  26.405   3.724
62996W        W31214  28.426   9.897   5.122
62997W        W31215  16.884  21.815  13.555
62998W        W31216  28.802  39.507  14.748
62999W        W31217   9.403  18.416   0.081
63000W        W31218  34.979  30.182  14.493
63001W        W31219  43.522   1.228   3.903
63002W        W31220   4.250   5.758  12.871
63003W        W31221  11.239   1.372  13.114
63004W        W31222   1.617  33.419  12.325
63005W        W31223  35.394   0.959   0.916
63006W        W31224  20.361   4.266  13.126
63007W        W31225  38.607   5.758   2.845
63008W        W31226  20.489  39.223  13.911
63009W        W31227  18.762  17.581  13.019
63010W        W31228  24.083  11.639   3.682
63011W        W31229  16.196  36.088  11.191
63012W        W31230  21.292  15.078  12.545
63013W        W31231  37.413  11.803   2.880
63014W        W31232  23.072  21.592  12.221
63015W        W31233  17.253  13.348   3.638
63016W        W31234  27.900  38.582  10.172
63017W        W31235  27.093  12.077   2.833
63018W        W31236  11.846   6.167  11.122
63019W        W31237  17.528  14.300  12.188
63020W        W31238   2.499  19.088   4.695
63021W        W31239  27.158   6.187  10.686
63022W        W31240  31.898  14.065  14.089
63023W        W31241  29.391  17.783   1.408
63024W        W31242  40.939   6.445   3.798
63025W        W31243   0.437  24.009   1.287
63026W        W31244  24.079  38.189   1.920
63027W        W31245  34.908  31.154   4.030
63028W        W31246  20.974   2.208  11.124
63029W        W31247  20.816  43.738   0.285
63030W        W31248   4.909  42.734   3.859
63031W        W31249   6.751  38.917   4.390
63032W        W31250   1.762  15.354  13.358
63033W        W31251  12.848  28.056   3.861
63034W        W31252  26.612   3.878  13.852
63035W        W31253  31.072  10.991  11.544
63036W        W31254  36.909  36.623  13.562
63037W        W31255  34.394  14.701  12.596
63038W        W31256  20.326  26.216  12.178
63039W        W31257   1.862   8.848  14.852
63040W        W31258  17.831  12.986  13.536
63041W        W31259  18.554  43.462   3.430
63042W        W31260  18.744  22.471  11.579
63043W        W31261  27.638  28.136  10.609
63044W        W31262  23.762  19.924   3.174
63045W        W31263  34.698   1.300  10.455
63046W        W31264   4.766  28.210   0.760
63047W        W31265  27.684   9.847   0.540
63048W        W31266  44.428  23.173  11.641
63049W        W31267  36.527  31.407  13.443
63050W        W31268  15.922  32.043  13.964
63051W        W31269  44.011  17.295   0.901
63052W        W31270  41.262  32.585  11.154
63053W        W31271  10.457  31.155  11.606
63054W        W31272  11.760  23.774   4.488
63055W        W31273  34.941  10.620  14.240
63056W        W31274  25.985   0.970  11.611
63057W        W31275  15.144  17.080  10.694
63058W        W31276  39.952  35.144   4.669
63059W        W31277   7.152  42.781  14.478
63060W        W31278  23.122  17.334  13.429
63061W        W31279   0.351   7.828  13.350
63062W        W31280  14.798  12.137   1.894
63063W        W31281   0.763  12.525   4.541
63064W        W31282  30.027  16.241  12.925
63065W        W31283   4.333  10.157   4.130
63066W        W31284  17.740   4.169   4.130
63067W        W31285  29.217  35.515   3.819
63068W        W31286  41.043  16.376  11.548
63069W        W31287  33.897   7.628   2.673
63070W        W31288   9.631   9.455  14.557
63071W        W31289   9.327   2.071  11.214
63072W        W31290  31.557  19.939   3.813
63073W        W31291  14.326   8.427   4.839
63074W        W31292  24.522  26.956   4.751
63075W        W31293  28.967  13.779   2.190
63076W        W31294  31.999  28.195   0.829
63077W        W31295  21.910   0.563  12.122
63078W        W31296  24.035  15.365  11.933
63079W        W31297  32.820  27.319   1.302
63080W        W31298  23.276  34.378   2.386
63081W        W31299   6.300  30.128   1.938
63082W        W31300  13.774  18.286   0.454
63083W        W31301  21.874   3.468   0.726
63084W        W31302  43.266  35.513   3.811
63085W        W31303  26.034  30.419  14.825
63086W        W31304  38.605  43.537   0.101
63087W        W31305  22.245   1.326   4.559
63088W        W31306  11.649  17.240   1.303
63089W        W31307  38.969  27.132  13.802
63090W        W31308  28.547  10.176   4.588
63091W        W31309  18.683  15.019   0.297
63092W        W31310  38.732   2.324   4.596
63093W        W31311  19.019   1.375   0.484
63094W        W31312  11.216  26.380  11.491
63095W        W31313  44.380  20.784  11.605
63096W        W31314  37.076  34.944  13.904
63097W        W31315   9.394  28.094   4.252
63098W        W31316  13.846  34.850   2.835
63099W        W31317   0.045  37.967   0.374
63100W        W31318  22.278  25.946   1.372
63101W        W31319  32.584  35.412   4.564
63102W        W31320  27.206   4.381   2.309
63103W        W31321   6.679  10.423  13.923
63104W        W31322  21.617  13.662  11.525
63105W        W31323  12.566  12.155   2.156
63106W        W31324  25.311  39.946   2.299
63107W        W31325  25.632   1.867  12.629
63108W        W31326  41.794  30.477  10.674
63109W        W31327  11.641   2.385  12.006
63110W        W31328  44.944  43.018   3.535
63111W        W31329   1.279  14.061   3.374
63112W        W31330  24.535   9.344  12.930
63113W        W31331  19.589  18.224   0.659
63114W        W31332  42.031  21.597   0.288
63115W        W31333  27.247  27.949  11.539
63116W        W31334  41.575  10.688  14.800
63117W        W31335  41.331   4.392  14.090
63118W        W31336  36.069  18.646  13.455
63119W        W31337  25.504   8.729   2.864
63120W        W31338  18.971  20.000  13.095
63121W        W31339  12.792  37.939   2.493
63122W        W31340   0.389  23.671   3.438
63123W        W31341   4.863  20.078  11.509
63124W        W31342   3.261   2.691   4.309
63125W        W31343  28.938   9.732   3.313
63126W        W31344  37.095  32.908  13.278
63127W        W31345  12.760  23.775  12.031
63128W        W31346  30.752   3.639   3.109
63129W        W31347  33.047   7.756   3.923
63130W        W31348   5.834   3.384  10.909
63131W        W31349   8.109   2.402  14.383
63132W        W31350  14.281  28.120   2.877
63133W        W31351  22.736  31.578  11.081
63134W        W31352  28.664   5.323  12.834
63135W        W31353  20.748  42.026  11.693
63136W        W31354  10.306  25.102   1.470
63137W        W31355   8.427  35.676  13.990
63138W        W31356   4.822  20.249  12.966
63139W        W31357  25.699  39.454  10.367
63140W        W31358  31.774   2.999  12.529
63141W        W31359   2.845  20.227  12.307
63142W        W31360  34.018   8.500   1.376
63143W        W31361   3.678   3.871   1.008
63144W        W31362  39.948  42.987  12.806
63145W        W31363   6.880  34.915   4.781
63146W        W31364  17.107   2.278  11.165
63147W        W31365   6.707  24.433   3.779
63148W        W31366  37.374  30.986  11.628
63149W        W31367  39.756   7.827   1.053
63150W        W31368  22.122  22.772   0.238
63151W        W31369   5.716  33.524   4.163
63152W        W31370   4.406   9.422  10.530
63153W        W31371  13.366  37.454  11.596
63154W        W31372   3.753  29.999   1.531
63155W        W31373  35.135   0.799   1.970
63156W        W31374   4.880   9.618   1.242
63157W        W31375  19.154  20.959  13.041
63158W        W31376  37.020  34.085   2.073
63159W        W31377  23.965  27.793   3.882
63160W        W31378  31.721  32.654  11.905
63161W        W31379  19.886  39.516  13.202
63162W        W31380  24.642  25.561   4.016
63163W        W31381  18.694  33.217   0.983
63164W        W31382  30.357  34.564   2.674
63165W        W31383  33.182  11.416   0.960
63166W        W31384  11.365   6.683  11.417
63167W        W31385   2.747  39.574   3.637
63168W        W31386  24.082  11.266  12.261
63169W        W31387  38.595  27.835  13.400
63170W        W31388  31.893  23.603  14.890
63171W        W31389  31.503  23.834  12.430
63172W        W31390   4.947  29.337  14.678
63173W        W31391  24.163  16.355   3.401
63174W        W31392  41.001   8.714  11.235
63175W        W31393  24.718   8.449  14.454
63176W        W31394   5.185  40.905  11.077
63177W        W31395  15.817   6.007   1.696
63178W        W31396  18.791  43.765  11.109
63179W        W31397  10.206  35.344  14.794
63180W        W31398  18.757   2.306   1.954
63181W        W31399  19.113  28.674  10.581
63182W        W31400  14.704  28.918  11.671
63183W        W31401  23.756  28.094  10.936
63184W        W31402  26.929  42.300   3.754
63185W        W31403   6.117  10.780  11.826
63186W        W31404   0.372  26.545   3.173
63187W        W31405  13.539  22.105   0.887
63188W        W31406  22.575  14.879  14.700
63189W        W31407  39.294  17.577  13.104
63190W        W31408  31.341   0.403  14.521
63191W        W31409  22.733  28.977   0.197
63192W        W31410  43.230  35.553   4.504
63193W        W31411   1.259  17.423   1.310
63194W        W31412  39.846  42.974  14.076
63195W        W31413  11.551  44.039   1.276
63196W        W31414  44.473  24.186  11.129
63197W        W31415   9.742  26.623  13.174
63198W        W31416  43.783  43.857  11.445
63199W        W31417  44.803  18.134   3.212
63200W        W31418  43.489  10.094  14.289
63201W        W31419  39.851  13.610  14.451
63202W        W31420  17.092   5.112   2.342
63203W        W31421  16.155  27.932   1.957
63204W        W31422  25.002  37.563   1.469
63205W        W31423   5.169  12.105   1.830
63206W        W31424  12.097   1.738   3.382
63207W        W31425   4.118  12.191  11.740
63208W        W31426   5.869  32.366   2.547
63209W        W31427  16.396  10.712  14.823
63210W        W31428   5.797  41.806  13.483
63211W        W31429   3.246  17.353  13.989
63212W        W31430  20.124   9.377  13.903
63213W        W31431  33.525  42.887   3.089
63214W        W31432  16.118   6.666   3.160
63215W        W31433  28.093  17.257  12.638
63216W        W31434  10.198  27.367  13.680
63217W        W31435  16.589  12.917  12.075
63218W        W31436  19.574   0.464   0.897
63219W        W31437   3.843  29.117   3.274
63220W        W31438  25.697  22.225  12.463
63221W        W31439  35.046   2.546  12.850
63222W        W31440  35.716  17.609   3.243
63223W        W31441   2.418  24.676  11.881
63224W        W31442  31.447  27.134  12.056
63225W        W31443  43.566  34.594   0.305
63226W        W31444  30.198  21.994   1.329
63227W        W31445  40.780  34.470  14.784
63228W        W31446   6.316  16.609   0.618
63229W        W31447  20.356  19.482  12.445
63230W        W31448  39.999  38.062  11.139
63231W        W31449  27.025  20.300  10.603
63232W        W31450  16.542  22.391   3.423
63233W        W31451  27.096  31.811  11.861
63234W        W31452  24.690  30.211   2.024
63235W        W31453  18.521   0.195   2.771
63236W        W31454  10.818  40.546   4.188
63237W        W31455  29.112  12.174  11.123
63238W        W31456   4.337   3.712  13.529
63239W        W31457  10.440  26.602  13.367
63240W        W31458   3.495  13.826  12.427
63241W        W31459  23.689  35.048   0.990
63242W        W31460  25.527  20.278   3.889
63243W        W31461  21.024   4.238   1.496
63244W        W31462  18.079  16.050   4.539
63245W        W31463  27.179  33.843  13.498
63246W        W31464  12.305  26.221   2.649
63247W        W31465   3.355  44.866  10.589
63248W        W31466  42.741  43.688  11.461
63249W        W31467  22.448  12.096  12.412
63250W        W31468  23.640  25.969   4.525
63251W        W31469  33.430  25.961  12.558
63252W        W31470  35.042  42.283  13.376
63253W        W31471  34.038  31.453  11.155
63254W        W31472  16.370  24.624  12.616
63255W        W31473  31.661   6.648   1.507
63256W        W31474  26.112  12.724  13.820
63257W        W31475  24.068  38.940   1.491
63258W        W31476  19.892  15.280  14.445
63259W        W31477  16.898  12.189   3.219
63260W        W31478  31.865  10.939  11.532
63261W        W31479  36.597  39.964  13.952
63262W        W31480  19.097  11.689  12.511
63263W        W31481  24.014  17.555   0.392
63264W        W31482  13.937  40.100   0.646
63265W        W31483  26.558   5.465  12.537
63266W        W31484  32.091   2.273   2.348
63267W        W31485   8.419  11.727  12.050
63268W        W31486  25.820  39.250   4.327
63269W        W31487  19.205  19.620  10.911
63270W        W31488  31.395  21.771   1.888
63271W        W31489  34.516  23.049  11.992
63272W        W31490   7.190  24.606  14.440
63273W        W31491  42.176   5.409   2.098
63274W        W31492  41.428  37.061   4.630
63275W        W31493  30.358  31.484   3.130
63276W        W31494  25.905  11.796   3.618
63277W        W31495  27.549  13.072  13.245
63278W        W31496  20.252  37.766  13.965
63279W        W31497   2.492   4.299   0.027
63280W        W31498   5.774  24.921  13.358
63281W        W31499  24.450  28.150  14.875
63282W        W31500  27.910  14.149   2.770
63283W        W31501  16.181  35.833  14.296
63284W        W31502  35.085  30.142   0.741
63285W        W31503  35.421  12.115   4.634
63286W        W31504  27.606  15.511  13.372
63287W        W31505  16.488  26.443  13.305
63288W        W31506  12.975  12.520  11.546
63289W        W31507  13.135  36.763  11.157
63290W        W31508  26.989  16.259  11.774
63291W        W31509  15.301  38.976   3.257
63292W        W31510  43.715   2.569   4.536
63293W        W31511  18.631  30.098  11.241
63294W        W31512  30.218  25.681   1.081
63295W        W31513  27.493  19.220   3.167
63296W        W31514  27.216  25.308   3.249
63297W        W31515  18.079  34.465  12.096
63298W        W31516   1.361  12.437  10.558
63299W        W31517  22.814  36.978   3.251
63300W        W31518  27.407  29.691   1.232
63301W        W31519  16.154   8.620  10.810
63302W        W31520  28.640   5.568   0.762
63303W        W31521  34.876  30.090  10.492
63304W        W31522  12.312  41.802  13.794
63305W        W31523  11.733   4.590  14.888
63306W        W31524  23.935  27.523  13.891
63307W        W31525  22.545  39.820   2.750
63308W        W31526   9.726   3.723  12.832
63309W        W31527  23.214  29.181   0.307
63310W        W31528   8.129  42.867  12.825
63311W        W31529  42.517   6.690   1.455
63312W        W31530  42.004   0.459  11.278
63313W        W31531  22.455   2.504   2.235
63314W        W31532  20.295  35.598   3.184
63315W        W31533  24.702  16.191   3.101
63316W        W31534  34.248   3.519   9.836
63317W        W31535  30.122   4.789   1.589
63318W        W31536  23.466   1.955   0.074
63319W        W31537  35.801  19.597  14.617
63320W        W31538  37.584  34.557  12.985
63321W        W31539  43.056  30.661   4.609
63322W        W31540   5.083  40.410  11.240
63323W        W31541  29.318  39.021  11.069
63324W        W31542   5.998  31.944  10.717
63325W        W31543  32.154  18.098   3.308
63326W        W31544  37.746  31.478   3.421
63327W        W31545  19.125  21.659   1.803
63328W        W31546   4.317   2.969   0.859
63329W        W31547   2.527   8.842  10.117
63330W        W31548   9.064   8.372  13.974
63331W        W31549  19.109  35.078   2.106
63332W        W31550  31.983  40.784  13.890
63333W        W31551   4.412  27.733  11.910
63334W        W31552  44.223  34.452   4.404
63335W        W31553  39.455  40.339  12.060
63336W        W31554  36.366  41.318  12.952
63337W        W31555  24.134  41.873   3.136
63338W        W31556  23.250  22.185  10.592
63339W        W31557  16.649  31.880  12.614
63340W        W31558  36.921  44.294   0.871
63341W        W31559  31.443   7.438  13.768
63342W        W31560   4.198  21.958   4.460
63343W        W31561  39.135  31.605  14.322
63344W        W31562  14.191  34.558   0.584
63345W        W31563  17.338  34.093   0.712
63346W        W31564  16.701  40.112   2.642
63347W        W31565   5.332  40.119   4.968
63348W        W31566  11.286   0.456   0.496
63349W        W31567   2.901   7.173  12.694
63350W        W31568  34.818  14.230  11.497
63351W        W31569  43.567  22.608  12.281
63352W        W31570  33.653  29.631   0.343
63353W        W31571  22.845  36.775   5.071
63354W        W31572   8.122  42.871  14.223
63355W        W31573  29.093   3.904   1.581
63356W        W31574  44.415  44.021  12.432
63357W        W31575  33.958  27.019   1.902
63358W        W31576  40.783  24.033  10.437
63359W        W31577  25.196  29.157  11.511
63360W        W31578  13.255  38.594  12.413
63361W        W31579  34.122  41.781  14.145
63362W        W31580  21.445  23.246  12.238
63363W        W31581  25.624  37.863  11.634
63364W        W31582   3.451  40.853  11.123
63365W        W31583  26.990  23.616  10.268
63366W        W31584  19.519  23.187   3.337
63367W        W31585  28.975  11.102   4.140
63368W        W31586  14.147  27.451   3.728
63369W        W31587  34.613  43.517  13.061
63370W        W31588  17.015  11.083   4.063
63371W        W31589  28.023  25.612  14.215
63372W        W31590  36.488  24.522  14.829
63373W        W31591  44.823   7.396   2.730
63374W        W31592  15.538  35.949  11.759
63375W        W31593  11.629  27.157  13.574
63376W        W31594  12.685  36.159  13.832
63377W        W31595  43.545  37.036  14.842
63378W        W31596   4.488  33.400  13.513
63379W        W31597  32.084  19.839  14.070
63380W        W31598  22.988   3.338  12.915
63381W        W31599  19.855   5.329   4.790
63382W        W31600   0.249  21.619   4.679
63383W        W31601  11.226  38.416  13.390
63384W        W31602  23.198  17.285   3.307
63385W        W31603  13.381  26.080  13.969
63386W        W31604  14.119  14.667   2.752
63387W        W31605   8.905  39.362   1.773
63388W        W31606   2.484  40.355  13.897
63389W        W31607  41.803  12.273   2.287
63390W        W31608  31.569  11.650   1.251
63391W        W31609  20.244  29.945   0.398
63392W        W31610  41.336  25.440  12.260
63393W        W31611  32.630  20.763   4.661
63394W        W31612  20.299  19.061  12.133
63395W        W31613   1.425  39.443  13.441
63396W        W31614  31.636  44.194  14.987
63397W        W31615  31.937  11.408  11.706
63398W        W31616   1.441  35.573   3.340
63399W        W31617   5.465  33.091   2.902
63400W        W31618  29.476   2.016  11.260
63401W        W31619  11.299   5.872   1.758
63402W        W31620   2.825  38.258   3.328
63403W        W31621  16.165   7.907  13.365
63404W        W31622  26.375  27.484  12.478
63405W        W31623   1.992  21.745   1.829
63406W        W31624   1.720  17.217   1.894
63407W        W31625  36.303  12.327  12.049
63408W        W31626   5.624  42.477  12.679
63409W        W31627  16.910  20.252  14.344
63410W        W31628  44.283   4.827  11.654
63411W        W31629  35.548  29.878  13.122
63412W        W31630  36.405  25.729   4.296
63413W        W31631  37.998   0.517   3.346
63414W        W31632  15.556  36.953   1.358
63415W        W31633   1.380  40.165   1.556
63416W        W31634   8.665  30.152   4.821
63417W        W31635   1.012   1.397  13.912
63418W        W31636  18.162   1.047  14.969
63419W        W31637   2.936  16.082   3.856
63420W        W31638   5.432   4.068   1.818
63421W        W31639   3.826  28.598  14.521
63422W        W31640  42.545   9.285  11.733
63423W        W31641  18.809  39.396  10.837
63424W        W31642  23.937  14.290  12.110
63425W        W31643   5.160   9.317   4.201
63426W        W31644   6.437  20.253  14.531
63427W        W31645  37.756  25.153   0.877
63428W        W31646  40.016  28.750   2.422
63429W        W31647  19.964  29.223   2.865
63430W        W31648  36.938  24.853   9.788
63431W        W31649   1.042  41.266  11.965
63432W        W31650  29.940  43.420  11.749
63433W        W31651  30.544  24.783  11.234
63434W        W31652  12.048  10.106   2.617
63435W        W31653  25.223  11.228  14.743
63436W        W31654  38.014  21.014   2.464
63437W        W31655  32.451  20.767  11.405
63438W        W31656  15.183   6.394  10.802
63439W        W31657   7.149  16.591  14.742
63440W        W31658  25.031   5.832   2.654
63441W        W31659  36.835   3.238   3.684
63442W        W31660  44.971  11.853  14.799
63443W        W31661  39.593   4.388  14.513
63444W        W31662   5.748  44.951  12.567
63445W        W31663   0.006  29.229  12.028
63446W        W31664   5.263  15.654   3.660
63447W        W31665  35.121   4.291  12.486
63448W        W31666  23.123  16.616   2.140
63449W        W31667  29.609  12.392   0.356
63450W        W31668  31.616  24.659   3.722
63451W        W31669  31.948  30.032  13.515
63452W        W31670  34.843  44.467  14.971
63453W        W31671  25.411  22.099   1.277
63454W        W31672   6.096  36.802  11.620
63455W        W31673  39.049  11.990   1.564
63456W        W31674   0.075  12.249   3.296
63457W        W31675  15.978  44.050   1.289
63458W        W31676   1.070  21.416  14.884
63459W        W31677   8.221   1.885   0.301
63460W        W31678  41.699  43.570  12.619
63461W        W31679  15.669  35.796  14.148
63462W        W31680  41.376  30.921   1.715
63463W        W31681  18.561  41.094  12.091
63464W        W31682  19.101   7.973  13.181
63465W        W31683   0.928  15.727  14.497
63466W        W31684   1.723  19.202   3.598
63467W        W31685  44.305  14.774  11.168
63468W        W31686  26.127   7.387   3.286
63469W        W31687  35.416  41.807   0.898
63470W        W31688  43.267  19.225  10.797
63471W        W31689   4.659   0.031  14.352
63472W        W31690  37.310   0.179   0.974
63473W        W31691  30.563  10.440  11.155
63474W        W31692  23.693  34.242   5.357
63475W        W31693  34.866  20.693  14.730
63476W        W31694  21.724  11.707   1.009
63477W        W31695   0.172  13.368   4.555
63478W        W31696   2.882  25.071   5.180
63479W        W31697   6.199  12.810   0.726
63480W        W31698   8.954  13.873   2.692
63481W        W31699  35.650  15.273  11.182
63482W        W31700  12.431  14.263  14.827
63483W        W31701  18.860  42.833  12.869
63484W        W31702  18.693   5.343   3.441
63485W        W31703   9.186   0.619   3.354
63486W        W31704   9.691   4.100   3.757
63487W        W31705  31.645  18.239  12.266
63488W        W31706  42.056  10.857  13.375
63489W        W31707  41.295  24.628  11.922
63490W        W31708   4.039  12.774   1.603
63491W        W31709  34.291  32.255   1.892
63492W        W31710   1.455  41.413   2.482
63493W        W31711   6.319   7.618  11.157
63494W        W31712  20.170   1.879   3.827
63495W        W31713   3.010  30.177  13.606
63496W        W31714   7.750  32.622  14.419
63497W        W31715  15.216  23.692  14.433
63498W        W31716  32.053  15.054  13.975
63499W        W31717  29.660  21.314   0.013
63500W        W31718  12.145   8.172   4.473
63501W        W31719  21.656  36.866  10.248
63502W        W31720  40.608  24.038   3.943
63503W        W31721   8.261  23.096   4.395
63504W        W31722  12.751  41.067   3.621
63505W        W31723  42.296  14.111  12.087
63506W        W31724  10.494  32.108  14.310
63507W        W31725  26.678  42.039  13.033
63508W        W31726  44.827  26.599   5.105
63509W        W31727  40.223  27.948   4.466
63510W        W31728  31.422  17.814  14.494
63511W        W31729  37.385  11.618  12.406
63512W        W31730  16.599  42.684  14.686
63513W        W31731  39.806  13.172  12.274
63514W        W31732  34.624  26.924  14.792
63515W        W31733  36.890  12.849  10.255
63516W        W31734   5.725  40.024  11.899
63517W        W31735  37.348  42.785  12.455
63518W        W31736  28.419  41.915   2.340
63519W        W31737  11.881  25.249  10.370
63520W        W31738  22.519  41.871  11.983
63521W        W31739  30.065   0.353   0.938
63522W        W31740  34.910  17.528  11.529
63523W        W31741   5.454  10.335  12.348
63524W        W31742  11.546  14.449   2.348
63525W        W31743  29.155   7.727   1.304
63526W        W31744  37.458  42.512   3.397
63527W        W31745  26.059  33.730   4.534
63528W        W31746   2.428  18.550   0.948
63529W        W31747  32.500  32.148   4.219
63530W        W31748  29.195  13.034  14.102
63531W        W31749  16.067  11.455   3.468
63532W        W31750  29.080  40.282  14.226
63533W        W31751  26.595  31.818  11.683
63534W        W31752  44.297  29.905  11.173
63535W        W31753   7.273  22.459   1.656
63536W        W31754  20.883  19.884  13.597
63537W        W31755  25.704  35.916   0.476
63538W        W31756  30.944  30.963  13.462
63539W        W31757  41.807  43.051  12.414
63540W        W31758  39.647  33.385   0.523
63541W        W31759  34.911   8.472  13.839
63542W        W31760  37.828  14.140   1.664
63543W        W31761   4.519  31.506  11.553
63544W        W31762  27.700  18.544   2.611
63545W        W31763  17.973  10.805   2.209
63546W        W31764  24.714   8.819   3.997
63547W        W31765  27.961  34.832  12.460
63548W        W31766  28.396  40.470  10.755
63549W        W31767  29.015  40.835  14.247
63550W        W31768  14.717  43.230   0.361
63551W        W31769  25.208   3.264   0.483
63552W        W31770   3.450  29.463   1.838
63553W        W31771  30.129  38.978  13.837
63554W        W31772  13.307  24.551   3.217
63555W        W31773  43.777  30.085   3.577
63556W        W31774   4.250  27.158   1.316
63557W        W31775  40.666  23.032  12.876
63558W        W31776  23.641  36.947   4.435
63559W        W31777  33.545  13.594   1.226
63560W        W31778  42.939  34.860  10.885
63561W        W31779  11.141  21.142  13.081
63562W        W31780  39.474  14.257   4.614
63563W        W31781   5.895  39.711   1.395
63564W        W31782   9.539  35.917   0.900
63565W        W31783  31.333   3.368   4.181
63566W        W31784  29.695   4.658   0.329
63567W        W31785  41.765  32.508  14.270
63568W        W31786  33.604  25.672   0.362
63569W        W31787   8.374  28.212  10.657
63570W        W31788  41.006  26.662   2.838
63571W        W31789  15.740  39.372   4.728
63572W        W31790  19.013  38.238  11.046
63573W        W31791  44.735  13.863  14.894
63574W        W31792   0.630  20.620  12.072
63575W        W31793  28.224  24.528   3.676
63576W        W31794  32.986   1.287  11.201
63577W        W31795   0.058  23.080   1.740
63578W        W31796   1.728  25.604  14.530
63579W        W31797  33.895  12.099  11.804
63580W        W31798   4.784  21.548  11.484
63581W        W31799  28.503  23.422  12.022
63582W        W31800  13.169  18.036   1.874
63583W        W31801  44.500  28.167  13.366
63584W        W31802  13.830  19.770  10.992
63585W        W31803  29.912  24.476  12.981
63586W        W31804   8.309  11.192   3.402
63587W        W31805  42.992  41.017  12.261
63588W        W31806   0.126  39.572  12.849
63589W        W31807   0.760  43.413  12.379
63590W        W31808  24.742  37.554  14.694
63591W        W31809  28.891   8.188  13.588
63592W        W31810  31.285   0.182  10.996
63593W        W31811   6.914   7.797   1.235
63594W        W31812   8.901   1.357   0.420
63595W        W31813  21.643  17.978  13.229
63596W        W31814  23.961  17.749  10.744
63597W        W31815  38.586  26.694  11.445
63598W        W31816   7.802  38.399  13.625
63599W        W31817  17.728  22.782   0.447
63600W        W31818   5.634  41.120   1.881
63601W        W31819  36.302  21.173  12.927
63602W        W31820  16.853  19.865  10.900
63603W        W31821  24.076  27.494   2.908
63604W        W31822  12.656  43.015   2.916
63605W        W31823  43.860  39.042  10.731
63606W        W31824   6.148  23.652   0.457
63607W        W31825   8.732  27.579  14.763
63608W        W31826  24.767  22.315   3.674
63609W        W31827  39.042  20.004  13.851
63610W        W31828  12.731   5.391  14.022
63611W        W31829  44.801   1.219  13.393
63612W        W31830  44.581  21.243  11.536
63613W        W31831   6.867  38.852   1.702
63614W        W31832  42.862   9.892  12.732
63615W        W31833  38.279  37.895   3.415
63616W        W31834  12.660  39.618   4.388
63617W        W31835  33.459  14.897   4.309
63618W        W31836  24.481  24.156   2.822
63619W        W31837   6.262  16.625   1.611
63620W        W31838  43.992  12.630   4.373
63621W        W31839  41.309   0.479   0.909
63622W        W31840   9.698  25.080   2.349
63623W        W31841  28.228  23.021   3.185
63624W        W31842  38.303  12.622  12.409
63625W        W31843  42.412  14.175   4.645
63626W        W31844   9.906  32.068   2.308
63627W        W31845  32.564  23.530  11.836
63628W        W31846  19.434  26.425   0.538
63629W        W31847  19.715   6.130  12.958
63630W        W31848   5.881   7.481  13.663
63631W        W31849  43.001  35.598  14.083
63632W        W31850  33.747  12.335   4.965
63633W        W31851  39.343  10.109   4.244
63634W        W31852   0.534  14.729  11.472
63635W        W31853   9.261  21.238   0.741
63636W        W31854  26.010   8.605  11.582
63637W        W31855  16.951   2.161  12.423
63638W        W31856  12.453   3.479   4.032
63639W        W31857  14.755  24.508  13.956
63640W        W31858  20.331   2.924   2.123
63641W        W31859  33.556  31.470  10.980
63642W        W31860   4.221   2.535  12.714
63643W        W31861  32.902  30.693  14.389
63644W        W31862  23.229   0.960  14.345
63645W        W31863   5.885  33.475  13.886
63646W        W31864  40.863  19.309   2.374
63647W        W31865  32.362  39.524  12.929
63648W        W31866  25.459  11.707   1.827
63649W        W31867  37.662  34.407   0.940
63650W        W31868  43.077   2.845  13.638
63651W        W31869  31.375  22.044  13.960
63652W        W31870  40.775  33.343  10.960
63653W        W31871  22.521  28.314  14.589
63654W        W31872  44.862  36.373   0.916
63655W        W31873   1.942  20.252   0.682
63656W        W31874  32.047  43.291  14.188
63657W        W31875  11.693  16.821  14.320
63658W        W31876  43.143  40.878  12.751
63659W        W31877  39.341  39.394   4.103
63660W        W31878  32.940   6.266  14.933
63661W        W31879   8.899  42.155  13.506
63662W        W31880  23.589  44.525   1.912
63663W        W31881  30.650  11.340  10.659
63664W        W31882   4.895  39.198   2.363
63665W        W31883   5.681  32.223   0.259
63666W        W31884  22.255   6.120   2.648
63667W        W31885  17.653   3.665   4.108
63668W        W31886  42.107  10.266  12.077
63669W        W31887  40.341  37.089   4.544
63670W        W31888   9.979  15.758   1.801
63671W        W31889  37.453  37.078   2.636
63672W        W31890  13.148  31.400   1.896
63673W        W31891  13.335  19.085   3.316
63674W        W31892  35.299  41.607   1.423
63675W        W31893  30.651  13.229   2.427
63676W        W31894   1.020   3.368   1.852
63677W        W31895  41.879   1.161  10.782
63678W        W31896  38.266  43.878   3.678
63679W        W31897  22.467  27.996   4.141
63680W        W31898  35.265   9.206   2.803
63681W        W31899  43.734  21.558   4.182
63682W        W31900   9.976  10.165  13.633
63683W        W31901  20.030   6.233   4.137
63684W        W31902  42.972  23.161  13.544
63685W        W31903  33.383   8.322   4.659
63686W        W31904  41.297   3.946   0.397
63687W        W31905   5.644   9.801   0.824
63688W        W31906  28.415  44.467   0.868
63689W        W31907  38.204  13.967  11.969
63690W        W31908   8.627   0.998  12.672
63691W        W31909  25.266  35.229  10.831
63692W        W31910  30.526  35.310  13.278
63693W        W31911  17.877  37.077  10.385
63694W        W31912  17.156   4.196   1.144
63695W        W31913  19.593  34.065   0.839
63696W        W31914   7.243   0.052  12.957
63697W        W31915  23.731  13.282   1.232
63698W        W31916   8.982  32.957   3.814
63699W        W31917  40.097  19.512   4.110
63700W        W31918  37.771  16.148  10.979
63701W        W31919   6.232   3.702  12.450
63702W        W31920   2.753  31.898  14.441
63703W        W31921  13.914   1.845   2.333
63704W        W31922   4.581  18.919   4.833
63705W        W31923  40.368  14.151   3.562
63706W        W31924  38.299  25.685  12.643
63707W        W31925  39.948   8.245   0.769
63708W        W31926  11.280  38.791   2.679
63709W        W31927  21.810  32.676  11.488
63710W        W31928   1.732   6.354   0.540
63711W        W31929  18.019  30.988   4.786
63712W        W31930  14.865  14.229   1.952
63713W        W31931   0.074   5.830  11.078
63714W        W31932  25.691  32.272   0.755
63715W        W31933  33.316  19.876  11.064
63716W        W31934  24.529  42.748   0.038
63717W        W31935  20.763  42.339   2.950
63718W        W31936  13.588  42.443   3.900
63719W        W31937  27.163  22.266  12.494
63720W        W31938  36.839   1.447  13.460
63721W        W31939  23.092  33.582  10.502
63722W        W31940  31.449  29.519  12.973
63723W        W31941  40.762  31.550  10.725
63724W        W31942   4.454  16.924  13.197
63725W        W31943  33.343  21.780  13.408
63726W        W31944  27.402  16.601  14.928
63727W        W31945  29.484  11.624  10.791
63728W        W31946   5.297  13.307  14.928
63729W        W31947  35.062  34.303   0.382
63730W        W31948  31.431  35.964  12.168
63731W        W31949  40.926   1.710   0.446
63732W        W31950  27.376  40.325   2.845
63733W        W31951  40.423  22.719   4.579
63734W        W31952  14.545  37.015  13.467
63735W        W31953  14.074  21.081  13.562
63736W        W31954  35.313  21.238  10.700
63737W        W31955  12.761  38.091  13.607
63738W        W31956  20.253  17.275  11.083
63739W        W31957  30.726  39.574   1.816
63740W        W31958  42.349  16.582   2.321
63741W        W31959  14.511  10.139  12.509
63742W        W31960   0.228  15.649   0.937
63743W        W31961  17.785  43.295   1.480
63744W        W31962  21.715  25.993  10.597
63745W        W31963  36.332  18.882   0.204
63746W        W31964  17.462  26.018   1.090
63747W        W31965  20.786  14.370  14.251
63748W        W31966   2.306  44.485   4.727
63749W        W31967  39.611   2.614  11.228
63750W        W31968  15.400  39.697   3.822
63751W        W31969  34.105   2.516  12.425
63752W        W31970  42.704  10.650  14.047
63753W        W31971  33.037  42.573   1.772
63754W        W31972  25.139  37.346   2.363
63755W        W31973  43.774  20.718   1.805
63756W        W31974  15.765  37.939   4.813
63757W        W31975  44.865   8.408  14.781
63758W        W31976  22.333  21.411   1.649
63759W        W31977  33.960  34.079   2.776
63760W        W31978   5.358  11.399  12.820
63761W        W31979   8.116   0.807  13.437
63762W        W31980  33.946  18.868  11.140
63763W        W31981  42.070   3.809   4.792
63764W        W31982  31.400   0.784   2.644
63765W        W31983  41.020  29.523   3.693
63766W        W31984  34.176  16.203   0.377
63767W        W31985  20.057  14.750  12.384
63768W        W31986  34.720  33.968   1.336
63769W        W31987  14.731  37.812   0.431
63770W        W31988  44.995   0.731   3.224
63771W        W31989  10.255   7.402   1.357
63772W        W31990   4.525  19.160  14.473
63773W        W31991  28.080  21.699  11.685
63774W        W31992  34.805   0.739   1.580
63775W        W31993  23.649   1.706   4.429
63776W        W31994  30.487  24.749  13.864
63777W        W31995  18.438  26.169   4.614
63778W        W31996  16.694  19.548   1.954
63779W        W31997  32.479  24.914   2.932
63780W        W31998  20.240  43.346   1.428
63781W        W31999  41.308  29.861   4.238
63782W        W32000  15.300   1.509   3.722
63783W        W32001  19.115  40.327   0.897
63784W        W32002   1.724  14.372   0.729
63785W        W32003  13.418   7.302   1.232
63786W        W32004  42.283  37.938   3.397
63787W        W32005  24.845  18.203   9.862
63788W        W32006  25.755  20.578  11.113
63789W        W32007  38.078  33.999  12.507
63790W        W32008  38.567  40.457   3.718
63791W        W32009  31.288  29.938   4.362
63792W        W32010  12.331  35.437   1.771
63793W        W32011   0.157  23.428   3.845
63794W        W32012  30.164   0.191   3.640
63795W        W32013   1.003   4.352  12.704
63796W        W32014   4.997  14.559   0.455
63797W        W32015  33.011   0.474  14.373
63798W        W32016   4.631  20.699  11.662
63799W        W32017  41.401  12.990   0.359
63800W        W32018   2.391  12.031  14.431
63801W        W32019  28.838   3.991   3.470
63802W        W32020   6.186  23.956  11.381
63803W        W32021   5.799  24.258   1.812
63804W        W32022  27.086  32.110  13.880
63805W        W32023  43.913  21.190   3.882
63806W        W32024  35.577  18.755   4.696
63807W        W32025  22.734  32.001  13.358
63808W        W32026  10.441   1.791   2.670
63809W        W32027  41.553  29.179   2.221
63810W        W32028  34.502   5.757  11.905
63811W        W32029  22.188  40.733   1.346
63812W        W32030  38.358   7.453  13.803
63813W        W32031  30.019   6.747  10.950
63814W        W32032  43.304  18.584   1.732
63815W        W32033  14.876  31.314  13.563
63816W        W32034  42.336  37.587   0.869
63817W        W32035   0.791  21.635  14.436
63818W        W32036  18.069  17.326   1.227
63819W        W32037  17.365   3.262   4.272
63820W        W32038  25.905  10.438   3.720
63821W        W32039  15.576  18.664   4.117
63822W        W32040  31.867   7.184   4.908
63823W        W32041  20.704  12.566  11.468
63824W        W32042  36.254  18.045  11.134
63825W        W32043  11.611  21.787  11.145
63826W        W32044  29.561   3.352  12.906
63827W        W32045  32.102  21.412  12.530
63828W        W32046   6.680  40.085  14.288
63829W        W32047  18.805  33.492   4.307
63830W        W32048  18.290  26.673   4.645
63831W        W32049   9.728  31.706   1.912
63832W        W32050  28.639   1.719   3.413
63833W        W32051   6.779  35.370   3.702
63834W        W32052  24.750   8.904   3.499
63835W        W32053  26.945   7.235  11.722
63836W        W32054  20.313  29.047  11.070
63837W        W32055  35.037  31.661  13.434
63838W        W32056  31.053   0.871  12.522
63839W        W32057  18.024  44.674   1.894
63840W        W32058  23.448  18.177   3.599
63841W        W32059  25.925  34.679   0.651
63842W        W32060  12.596   6.745   2.272
63843W        W32061  29.170  34.834   1.453
63844W        W32062  31.193  41.076   2.607
63845W        W32063  29.886  31.818  12.540
63846W        W32064  29.416   7.876   1.747
63847W        W32065  12.383  39.471   0.833
63848W        W32066  20.217  22.336   1.235
63849W        W32067  23.410  31.573  10.662
63850W        W32068  39.019  31.549   1.826
63851W        W32069   0.572   6.439   2.846
63852W        W32070  43.476  38.334   0.890
63853W        W32071   1.198  15.201  11.593
63854W        W32072  19.091  29.481  13.051
63855W        W32073  44.439  29.380  11.235
63856W        W32074   5.164  44.864  11.925
63857W        W32075   1.854  14.263  11.527
63858W        W32076  42.006   2.982  11.979
63859W        W32077  42.507  33.117  14.382
63860W        W32078  34.486  19.179   2.731
63861W        W32079  11.330  16.193  10.561
63862W        W32080   9.710  42.466  11.626
63863W        W32081  11.700  26.410  11.347
63864W        W32082  20.973  24.324   4.975
63865W        W32083  39.061   9.802  11.192
63866W        W32084  12.168  23.709  10.778
63867W        W32085  29.926  21.779  13.285
63868W        W32086  14.115   5.486  13.311
63869W        W32087  35.117  16.792   3.691
63870W        W32088  17.783   2.074  13.486
63871W        W32089  30.591  42.220  12.549
63872W        W32090  38.560   5.173   0.650
63873W        W32091  35.958  31.140   0.350
63874W        W32092  38.915   9.960  12.534
63875W        W32093  33.825  44.298   0.906
63876W        W32094  11.886  19.553  13.975
63877W        W32095  24.627  19.387  11.875
63878W        W32096  42.693  21.631   4.170
63879W        W32097   6.230  17.288  11.517
63880W        W32098  26.225  35.297  11.009
63881W        W32099  24.107  44.825   1.750
63882W        W32100  17.608   5.963  12.162
63883W        W32101  39.816  18.931  11.006
63884W        W32102  12.175  21.150   3.289
63885W        W32103  12.017   3.848   3.187
63886W        W32104   3.815  36.485   3.211
63887W        W32105  24.114   6.797  13.799
63888W        W32106   1.459  42.302  12.919
63889W        W32107   1.165  16.265  10.549
63890W        W32108  39.548  38.469  11.664
63891W        W32109  17.627  25.952   0.594
63892W        W32110  31.429  44.800   2.993
63893W        W32111  10.678   6.619   2.823
63894W        W32112   5.423  16.829   1.232
63895W        W32113  35.901  13.740   2.441
63896W        W32114  33.951  34.890   0.521
63897W        W32115  30.684  27.617  11.990
63898W        W32116  31.483  40.650   2.492
63899W        W32117  12.781  18.654   1.356
63900W        W32118  12.266  28.157   2.729
63901W        W32119  34.635   3.269  10.629
63902W        W32120  28.123   7.889   4.776
63903W        W32121  38.023  29.591   2.917
63904W        W32122  13.620  43.814   0.672
63905W        W32123  20.256  10.885  12.081
63906W        W32124  24.065  11.712   2.708
63907W        W32125  38.846  26.914   4.121
63908W        W32126  43.009  22.851  10.448
63909W        W32127  42.458  32.427  11.739
63910W        W32128  22.167  20.529  10.373
63911W        W32129   0.206  15.331   0.188
63912W        W32130  41.839  20.042  13.972
63913W        W32131  28.072  33.699  13.881
63914W        W32132  25.998  44.118   0.891
63915W        W32133   4.444  17.638   0.850
63916W        W32134  23.488  10.588  12.597
63917W        W32135  40.527  21.181  13.400
63918W        W32136  31.993  13.786   0.969
63919W        W32137   2.721   5.262   4.632
63920W        W32138  29.586  19.973  12.162
63921W        W32139  15.556   5.693   3.699
63922W        W32140  41.855  29.743  13.426
63923W        W32141  33.201  31.430   5.017
63924W        W32142  33.487  36.135  11.029
63925W        W32143  23.005  43.292   3.323
63926W        W32144  27.783  15.059   1.680
63927W        W32145  27.665  38.122  10.714
63928W        W32146   3.808  26.416   4.570
63929W        W32147   8.306  19.677   2.068
63930W        W32148  26.276   1.770  11.952
63931W        W32149  38.349  17.271  11.575
63932W        W32150  33.313  42.930   1.140
63933W        W32151   2.816  39.908   0.914
63934W        W32152   1.263  11.201   4.919
63935W        W32153  14.229  33.166   0.915
63936W        W32154  32.971  16.169  13.982
63937W        W32155   6.910  35.949  12.033
63938W        W32156  11.291  19.085  11.997
63939W        W32157  28.725  33.440   2.809
63940W        W32158  26.243   4.754  12.881
63941W        W32159   1.494   4.471   0.261
63942W        W32160  43.722  10.118   1.420
63943W        W32161   3.183  11.911   3.386
63944W        W32162  16.693  34.585   2.076
63945W        W32163   7.910  19.426  10.892
63946W        W32164  37.267  24.997   0.965
63947W        W32165  32.906   5.789  10.915
63948W        W32166  39.535  38.912  12.307
63949W        W32167  37.069  22.483  12.519
63950W        W32168   4.937  16.834   3.297
63951W        W32169   8.372  30.284  13.043
63952W        W32170  32.666  18.630  11.647
63953W        W32171   9.833  36.033   4.606
63954W        W32172   9.227  32.317  13.637
63955W        W32173  40.118  19.071  12.789
63956W        W32174  19.265  20.488  14.350
63957W        W32175   9.405  31.577  11.027
63958W        W32176  33.822  14.926   3.565
63959W        W32177  42.480  38.124   1.697
63960W        W32178  33.825   0.857   1.998
63961W        W32179  32.071   2.403   0.430
63962W        W32180   7.732   3.752  13.850
63963W        W32181  42.554  16.276   3.163
63964W        W32182  24.360  21.545  10.025
63965W        W32183  35.518   3.321  13.354
63966W        W32184  37.375  16.213  12.528
63967W        W32185   2.038  31.867  12.123
63968W        W32186   6.830  39.258  11.182
63969W        W32187  11.865  17.726   1.226
63970W        W32188  33.965   5.186   3.143
63971W        W32189   3.201  28.524   4.801
63972W        W32190   1.581  34.064   2.619
63973W        W32191  36.810  10.127   4.547
63974W        W32192   0.709  16.190  14.439
63975W        W32193  18.263   9.282  13.858
63976W        W32194  39.710   0.409  12.489
63977W        W32195  22.446   3.814  14.481
63978W        W32196  44.223  28.959  11.593
63979W        W32197  35.760  19.192   4.144
63980W        W32198   5.759  33.803  14.285
63981W        W32199  42.640  31.865  11.135
63982W        W32200  11.357   1.416  11.623
63983W        W32201  33.567   4.339   3.780
63984W        W32202  41.361  25.793   2.667
63985W        W32203  30.792  43.723  13.764
63986W        W32204  43.362  32.803   3.655
63987W        W32205  26.529  28.140   5.137
63988W        W32206  21.389  43.887  11.608
63989W        W32207  32.898  17.598   3.055
63990W        W32208  22.038   5.439  10.721
63991W        W32209  13.965   6.512   0.945
63992W        W32210   3.329   9.984   1.938
63993W        W32211  31.660  31.520   4.163
63994W        W32212  39.866  23.170  11.426
63995W        W32213  36.332  25.034   0.732
63996W        W32214   1.812  42.247  13.409
63997W        W32215  41.979  18.288  12.755
63998W        W32216  43.787  12.874   3.186
63999W        W32217  44.333  42.051   0.062
64000W        W32218   5.810   3.878  10.613
64001W        W32219  37.040  16.783   0.676
64002W        W32220  40.553   9.959  12.928
64003W        W32221  28.700  18.092  12.323
64004W        W32222  23.732  14.951   4.226
64005W        W32223   9.161  13.312   1.859
64006W        W32224   6.018  26.126  13.888
64007W        W32225  19.343   9.784  13.589
64008W        W32226  18.559  38.909  12.645
64009W        W32227   0.874  44.519   3.787
64010W        W32228  31.626  13.193  11.034
64011W        W32229  35.398  44.850   2.640
64012W        W32230  35.143  28.067  12.648
64013W        W32231  24.285  29.263   3.312
64014W        W32232  43.819  35.035  11.377
64015W        W32233  15.903  20.021  14.530
64016W        W32234  22.030  25.311   0.330
64017W        W32235  18.516   5.687   2.838
64018W        W32236  21.549  38.053   3.922
64019W        W32237  14.124   5.926  11.093
64020W        W32238  25.223   5.225   3.326
64021W        W32239  37.100  39.972  14.065
64022W        W32240  37.466   3.434  14.299
64023W        W32241  27.896  18.097   3.734
64024W        W32242  13.129  13.686  14.210
64025W        W32243  36.943  17.332  13.867
64026W        W32244  44.488  26.722  13.881
64027W        W32245  27.669  20.668  11.127
64028W        W32246   5.834  15.551   2.507
64029W        W32247   3.934   4.866  10.797
64030W        W32248   3.792  29.100  11.928
64031W        W32249   8.933  43.016   1.431
64032W        W32250   4.708  26.559  14.023
64033W        W32251   1.624   0.857   1.314
64034W        W32252  15.083  15.771   2.383
64035W        W32253   4.753  44.681   3.342
64036W        W32254  33.596  35.200   0.314
64037W        W32255  12.187  16.297   1.374
64038W        W32256  28.345  39.470   2.300
64039W        W32257  32.000  13.200  10.676
64040W        W32258  26.242  15.863  11.665
64041W        W32259  20.158  13.848  11.531
64042W        W32260  29.204  42.756   2.286
64043W        W32261  12.685  27.030   1.461
64044W        W32262  34.112  25.363   3.171
64045W        W32263  26.031  28.980  14.802
64046W        W32264  28.405  44.938   3.226
64047W        W32265  12.326  16.130  10.354
64048W        W32266   5.447  23.084   2.406
64049W        W32267  23.609  38.763   4.802
64050W        W32268  43.058  31.993   1.453
64051W        W32269  39.728  42.943  12.348
64052W        W32270  29.604  11.643   3.529
64053W        W32271   8.052  30.822  13.896
64054W        W32272  19.758  25.700   1.707
64055W        W32273  14.287  31.778  12.939
64056W        W32274  42.808  40.930  14.997
64057W        W32275  37.770  10.562  13.752
64058W        W32276   7.803  37.624  12.526
64059W        W32277  33.870   0.915   4.544
64060W        W32278  16.345  44.991   3.222
64061W        W32279   9.581  17.509  14.941
64062W        W32280   9.768  40.423   0.227
64063W        W32281  17.251  27.532   0.383
64064W        W32282  11.248   4.308   3.237
64065W        W32283  35.827  22.022   0.469
64066W        W32284  26.080  29.579  11.172
64067W        W32285  30.704  34.984   2.667
64068W        W32286   0.448  17.696  12.680
64069W        W32287  38.033  19.458   2.769
64070W        W32288  35.481  12.422  14.693
64071W        W32289  28.973  35.365   4.247
64072W        W32290   0.183   7.851   0.532
64073W        W32291  27.971  15.253   4.428
64074W        W32292   4.231  32.978  14.398
64075W        W32293  41.494  36.396  14.240
64076W        W32294  35.563  42.329   4.174
64077W        W32295  30.892  29.263   0.872
64078W        W32296  31.503  36.312   0.462
64079W        W32297  40.466  43.347  12.636
64080W        W32298  33.951  39.783   3.485
64081W        W32299  21.398  42.745   1.761
64082W        W32300  40.369  32.979  10.718
64083W        W32301  20.224  21.590  13.965
64084W        W32302  14.541   5.656   3.971
64085W        W32303   6.714  23.535   1.334
64086W        W32304  15.783   0.441  11.728
64087W        W32305  36.270  14.626   4.193
64088W        W32306  11.572   7.021  11.824
64089W        W32307  16.687  39.374   4.081
64090W        W32308  23.719  21.250  14.926
64091W        W32309  44.101  42.216   3.743
64092W        W32310  26.917  34.019   1.956
64093W        W32311  44.683  40.835  10.766
64094W        W32312  26.960  37.434   4.112
64095W        W32313  22.166  10.127   1.737
64096W        W32314  33.279  29.340  11.021
64097W        W32315   3.679  17.202  13.242
64098W        W32316  37.028  24.024  10.890
64099W        W32317  38.574  16.101  14.036
64100W        W32318  33.817  44.522   2.186
64101W        W32319  18.296  31.888  14.939
64102W        W32320  37.411  31.457  11.435
64103W        W32321  41.592  21.009   4.811
64104W        W32322  33.940  38.227  11.717
64105W        W32323  10.749  43.179   4.050
64106W        W32324  14.428   4.335   2.271
64107W        W32325  37.358  37.501   2.322
64108W        W32326  13.749  27.807  10.969
64109W        W32327  43.193  20.510   3.189
64110W        W32328   7.901  34.071  14.944
64111W        W32329  41.866   5.388  12.096
64112W        W32330   4.799   4.198   2.370
64113W        W32331  44.895   3.241   4.635
64114W        W32332  26.685  30.000   2.290
64115W        W32333   5.841  23.668  10.627
64116W        W32334  35.547  40.484   4.398
64117W        W32335  24.571   6.386  13.497
64118W        W32336  27.207  34.339   4.083
64119W        W32337   4.467   3.579   3.004
64120W        W32338  15.153  17.158   4.009
64121W        W32339  35.075  18.392  10.577
64122W        W32340   0.408  32.939  12.515
64123W        W32341  36.888  43.272  11.170
64124W        W32342  29.240   0.350  11.116
64125W        W32343   1.007   9.314  13.815
64126W        W32344  27.959  26.071   4.563
64127W        W32345   4.106  16.833   1.796
64128W        W32346   2.539  30.628   0.358
64129W        W32347  30.480  26.128  11.526
64130W        W32348  21.729   5.478  11.117
64131W        W32349  22.625  22.301   4.659
64132W        W32350  30.873  17.998  14.470
64133W        W32351  25.646  37.786   4.896
64134W        W32352   2.729  11.675  14.982
64135W        W32353  44.856   9.322  14.868
64136W        W32354  40.298   1.823  14.954
64137W        W32355  29.515  22.267   4.848
64138W        W32356  32.750  15.110  11.776
64139W        W32357  17.497  39.071   3.148
64140W        W32358  24.850   0.416   1.906
64141W        W32359  41.784   9.534   0.668
64142W        W32360   2.785   1.687  13.385
64143W        W32361  14.938  18.853   2.795
64144W        W32362   4.675  17.633   2.260
64145W        W32363  16.896  18.136  14.508
64146W        W32364   1.782  29.858   3.236
64147W        W32365   6.892   5.493  12.545
64148W        W32366  23.290  36.896  13.966
64149W        W32367  15.121  36.977  12.433
64150W        W32368  31.244  40.719  11.616
64151W        W32369  29.414  15.032   2.451
64152W        W32370   9.684  31.339   3.435
64153W        W32371   0.510  35.101  14.767
64154W        W32372  10.605  34.320   3.240
64155W        W32373  31.434   6.771   4.235
64156W        W32374  19.494  24.902  11.182
64157W        W32375  16.827   3.260   1.891
64158W        W32376  40.737  21.684  13.944
64159W        W32377  29.587  17.290  12.562
64160W        W32378   2.260  22.173   0.377
64161W        W32379   8.221  29.475   1.029
64162W        W32380  26.546   6.516   1.557
64163W        W32381   5.717   3.644  12.350
64164W        W32382  25.112  35.641  11.739
64165W        W32383  34.927   7.761   3.617
64166W        W32384  25.103  26.576  10.087
64167W        W32385  40.298   2.739  13.333
64168W        W32386  12.155  11.670   4.515
64169W        W32387  33.997  23.163  12.884
64170W        W32388   2.590  19.454   0.926
64171W        W32389  24.946   3.253  11.602
64172W        W32390   2.306   4.703  12.056
64173W        W32391  19.104  26.472   3.322
64174W        W32392   5.320   9.867  10.492
64175W        W32393  22.656  12.919   4.228
64176W        W32394  22.677  41.444   3.342
64177W        W32395  11.443   3.718  13.414
64178W        W32396  27.268  42.293  11.125
64179W        W32397  36.904  15.471   1.778
64180W        W32398  32.947  30.185   0.739
64181W        W32399  35.890  33.073  12.445
64182W        W32400  23.522  23.159   2.791
64183W        W32401  38.838  32.637  11.922
64184W        W32402  27.573  12.488  11.193
64185W        W32403   7.610  39.101   2.418
64186W        W32404   7.638  13.231   3.887
64187W        W32405   2.373   0.038  14.369
64188W        W32406   2.907  34.000   0.685
64189W        W32407  39.919  10.426  13.415
64190W        W32408  22.147  23.943   4.917
64191W        W32409  13.058  43.429  10.570
64192W        W32410   3.177  22.494  13.976
64193W        W32411  21.460   3.951   2.778
64194W        W32412  26.652   6.253  10.669
64195W        W32413  18.614   0.980  14.424
64196W        W32414  35.032  14.273  14.998
64197W        W32415  11.879  25.158   1.386
64198W        W32416  23.656  11.454   1.353
64199W        W32417  31.545   1.411   2.299
64200W        W32418  36.040  35.169  10.465
64201W        W32419  38.554   3.186  12.853
64202W        W32420   8.080   8.248  13.904
64203W        W32421   8.711  15.800   3.295
64204W        W32422  30.583  44.957   2.918
64205W        W32423   8.801  39.646  12.937
64206W        W32424  36.481  28.484  10.475
64207W        W32425  16.297  11.141   4.857
64208W        W32426  39.201   4.374   5.101
64209W        W32427  10.736  44.753  13.319
64210W        W32428  12.431  12.968  14.928
64211W        W32429  43.658  25.589   3.022
64212W        W32430  37.092  25.387  11.557
64213W        W32431  38.423   8.935  14.307
64214W        W32432   5.953  36.271  12.078
64215W        W32433  32.121  21.931  11.015
64216W        W32434  13.056   0.917   0.359
64217W        W32435  15.367  41.402   0.911
64218W        W32436  25.173  43.801  13.553
64219W        W32437  16.964  16.696   4.483
64220W        W32438  18.482  10.255  11.668
64221W        W32439  38.962  33.330  14.563
64222W        W32440   3.192  32.464  10.759
64223W        W32441   6.204  29.959   0.449
64224W        W32442   0.475   8.419  13.797
64225W        W32443  17.277  32.704  10.497
64226W        W32444  42.807  17.816   2.394
64227W        W32445  17.654   2.430   0.666
64228W        W32446  16.253  15.548   0.087
64229W        W32447  30.515  21.215   1.868
64230W        W32448  24.672  42.492   1.821
64231W        W32449  13.225  28.711  13.995
64232W        W32450  19.546  22.929  14.317
64233W        W32451  18.520  44.040   0.866
64234W        W32452  25.174   6.688   0.184
64235W        W32453  41.942  36.442  14.480
64236W        W32454  39.036  38.340  13.351
64237W        W32455  26.515  26.565  14.131
64238W        W32456  18.845  26.645  13.920
64239W        W32457   3.931   7.738   0.739
64240W        W32458  37.761  40.771   1.847
64241W        W32459  25.200  23.133  14.358
64242W        W32460   0.501  30.167  10.747
64243W        W32461   8.651   6.909   4.086
64244W        W32462  20.255   1.481   4.178
64245W        W32463  35.389  31.003  10.685
64246W        W32464   0.356   2.295   3.912
64247W        W32465  44.526  23.784  14.549
64248W        W32466  17.682  17.180  11.402
64249W        W32467  32.596  15.093  11.298
64250W        W32468   7.785  11.807   2.565
64251W        W32469  20.256  22.617  14.630
64252W        W32470  22.826  32.043  11.386
64253W        W32471   1.359  39.355  11.114
64254W        W32472   1.890   3.210  11.428
64255W        W32473  26.534  40.922   1.901
64256W        W32474  37.066  35.584   3.313
64257W        W32475  32.133  17.042  13.464
64258W        W32476  26.919  17.874   3.518
64259W        W32477  42.553   3.809   3.525
64260W        W32478  11.834  12.719  10.770
64261W        W32479  43.997  11.030   1.868
64262W        W32480   6.144  16.101  11.106
64263W        W32481  16.527  16.150  13.360
64264W        W32482  17.833  16.712   3.387
64265W        W32483   8.159  15.033   3.733
64266W        W32484  22.633  24.780  10.801
64267W        W32485  30.884  23.922  10.694
64268W        W32486  16.676  13.174   0.935
64269W        W32487   6.452  43.538  11.395
64270W        W32488  31.596  18.810   2.344
64271W        W32489  10.033  18.730  13.451
64272W        W32490  26.765  44.185   5.011
64273W        W32491   6.980  20.994   1.230
64274W        W32492  16.664  11.917  11.958
64275W        W32493  27.982  20.202  13.417
64276W        W32494  37.835  25.410  13.471
64277W        W32495   9.728   7.845  14.281
64278W        W32496  16.505   7.501  13.397
64279W        W32497  40.371  24.753   4.661
64280W        W32498  14.673   4.169   1.684
64281W        W32499  30.758  40.591   3.264
64282W        W32500  21.601  13.675  12.433
64283W        W32501  21.251  29.756  13.491
64284W        W32502   1.978  36.263   4.204
64285W        W32503  37.866  35.718  10.960
64286W        W32504  33.097  27.435  11.566
64287W        W32505  23.778   2.923  11.064
64288W        W32506  29.273  37.438  13.393
64289W        W32507   7.446  29.009   3.272
64290W        W32508   0.945  40.308   2.279
64291W        W32509   9.133  42.351  14.790
64292W        W32510  11.305  25.408   1.332
64293W        W32511  26.624  12.550   3.712
64294W        W32512  35.469   8.841  12.452
64295W        W32513  22.945  36.204  12.007
64296W        W32514   4.782  37.941  13.785
64297W        W32515   5.628  13.577   3.672
64298W        W32516   3.828  14.599   0.549
64299W        W32517  43.990  23.720   1.328
64300W        W32518  36.576   1.393   0.266
64301W        W32519  35.067  16.541  11.646
64302W        W32520  23.933   4.723   4.768
64303W        W32521   9.245  32.984  11.207
64304W        W32522   3.019  28.534   2.706
64305W        W32523  27.596  40.633   1.688
64306W        W32524   1.682  20.196   3.636
64307W        W32525   4.091  22.358   3.076
64308W        W32526   7.718  22.189  13.584
64309W        W32527  10.773  22.103  10.730
64310W        W32528  26.247  14.284  13.107
64311W        W32529  21.944  29.617  12.414
64312W        W32530  14.861  42.320  13.578
64313W        W32531  16.205  33.208   4.681
64314W        W32532   9.760  10.831  10.717
64315W        W32533  15.155  14.729   4.631
64316W        W32534  18.284  41.706  13.419
64317W        W32535   0.940   4.408  13.544
64318W        W32536   6.279  44.848   4.183
64319W        W32537  27.647  15.114   2.191
64320W        W32538  41.369  25.177   0.793
64321W        W32539   1.518  15.618   0.209
64322W        W32540  41.629   3.754   4.476
64323W        W32541  12.731   7.704   1.957
64324W        W32542   5.827  13.800   1.886
64325W        W32543   8.922  27.139   0.024
64326W        W32544  24.498  42.448  12.137
64327W        W32545  41.338  20.271   4.095
64328W        W32546  42.927  29.871  14.921
64329W        W32547  43.775   9.953  12.181
64330W        W32548  22.680  40.526   0.413
64331W        W32549  17.661  22.294   1.746
64332W        W32550  27.835  14.297   3.659
64333W        W32551   4.271  13.382   1.436
64334W        W32552  15.140  39.903  14.425
64335W        W32553   7.328  38.760   5.017
64336W        W32554   0.434   4.870  11.174
64337W        W32555  10.207  25.009   0.942
64338W        W32556  38.059  43.743   4.447
64339W        W32557  34.524   2.800   3.593
64340W        W32558  38.145   5.743  14.625
64341W        W32559  23.087  13.668   2.403
64342W        W32560  15.777  24.626   1.396
64343W        W32561   7.285   9.384  14.062
64344W        W32562  23.608  10.446   1.319
64345W        W32563  13.524  12.303  10.683
64346W        W32564  14.765  20.487   0.158
64347W        W32565  44.358  32.523   3.714
64348W        W32566   2.910  11.935   1.932
64349W        W32567  15.510   2.254  13.423
64350W        W32568   7.865  14.548   5.353
64351W        W32569  37.728  20.129  13.631
64352W        W32570   2.368  24.006   1.933
64353W        W32571  26.947   2.923   1.429
64354W        W32572  24.481  13.902  14.963
64355W        W32573   7.131  19.087   3.283
64356W        W32574  22.283  44.722   5.037
64357W        W32575  38.723  22.675   4.200
64358W        W32576   9.642  19.496   2.836
64359W        W32577  13.898  40.226  14.299
64360W        W32578  30.436  41.838   0.044
64361W        W32579  34.920   4.714   2.506
64362W        W32580  27.673   0.210   0.299
64363W        W32581  24.507   9.816  14.628
64364W        W32582  27.721  40.519   3.246
64365W        W32583   9.852  29.620  12.622
64366W        W32584  43.746   1.684   4.278
64367W        W32585  25.844  44.713   2.837
64368W        W32586  23.641  22.575  12.846
64369W        W32587  44.415   5.800  12.558
64370W        W32588   8.157  35.591  11.945
64371W        W32589  42.347  42.851  10.937
64372W        W32590  16.728  27.573   3.812
64373W        W32591  17.091  40.695   0.196
64374W        W32592  23.273   6.205  12.056
64375W        W32593  10.131  10.976   0.296
64376W        W32594  18.176  19.553  13.720
64377W        W32595  31.870   4.936   4.109
64378W        W32596  31.380  42.211  14.787
64379W        W32597  20.198   9.070   3.759
64380W        W32598  12.132   1.419   1.516
64381W        W32599  28.009   1.890  10.507
64382W        W32600  22.554  35.549  14.085
64383W        W32601  26.559  17.760  11.062
64384W        W32602  33.111  28.885  13.003
64385W        W32603  28.752  17.709  10.267
64386W        W32604  25.135   6.321  10.713
64387W        W32605   4.071  22.588  14.764
64388W        W32606  37.897  36.256  10.876
64389W        W32607  21.250  22.756  12.258
64390W        W32608  11.093  37.339  14.724
64391W        W32609   9.424  27.677   1.912
64392W        W32610  27.908  28.517  10.358
64393W        W32611  30.096  26.583   1.538
64394W        W32612  26.926  12.243  13.356
64395W        W32613  35.097   2.007  11.966
64396W        W32614  41.283  18.004  14.390
64397W        W32615  10.032  41.653  11.196
64398W        W32616   7.586  17.568  12.276
64399W        W32617  32.381  26.274   1.862
64400W        W32618  25.561  25.892  11.531
64401W        W32619  38.794  33.126  11.052
64402W        W32620  13.391  17.506  12.878
64403W        W32621   4.420  35.006  12.091
64404W        W32622  30.678   9.200  12.476
64405W        W32623  15.775  42.390   2.838
64406W        W32624  19.677  44.596  11.679
64407W        W32625  37.420   0.298   0.498
64408W        W32626   9.364  40.479   4.088
64409W        W32627   6.336  22.219  13.864
64410W        W32628  24.310  17.092  14.959
64411W        W32629  37.086  18.569  12.911
64412W        W32630   9.850   7.829  11.393
64413W        W32631   7.574  12.225   0.918
64414W        W32632   5.616  36.961  11.547
64415W        W32633  29.857  22.511  10.955
64416W        W32634   6.679  38.759  14.367
64417W        W32635   8.749  39.122  12.994
64418W        W32636  32.569  38.689  14.888
64419W        W32637   9.153  40.773  11.835
64420W        W32638  28.088  16.519  13.719
64421W        W32639  35.408  12.691   2.623
64422W        W32640   1.921  16.605   1.277
64423W        W32641  43.051  22.724  12.212
64424W        W32642   2.005  24.136  11.193
64425W        W32643  25.566  11.389   3.732
64426W        W32644  11.556  16.451  10.118
64427W        W32645  27.597  20.758   4.978
64428W        W32646  34.550  35.669   1.278
64429W        W32647  35.450  28.468   4.194
64430W        W32648  21.415  27.295  11.120
64431W        W32649  11.135   6.096  12.486
64432W        W32650  21.191  42.084   1.268
64433W        W32651  19.606   9.607   1.800
64434W        W32652   6.705  19.611   2.284
64435W        W32653  13.784  26.908  12.571
64436W        W32654  10.677  32.806   4.438
64437W        W32655   4.975  33.413   3.662
64438W        W32656  21.626   6.253   1.258
64439W        W32657  10.369  29.641  12.580
64440W        W32658   1.627  40.298  13.121
64441W        W32659   3.313  37.186   4.497
64442W        W32660  35.130  44.846   4.919
64443W        W32661  20.232  31.596  10.705
64444W        W32662  10.309   7.836  11.135
64445W        W32663  23.436  31.519   3.752
64446W        W32664  16.842  23.921  12.381
64447W        W32665  26.090  43.679   1.884
64448W        W32666  20.205  23.556   5.228
64449W        W32667  39.292  23.651  10.381
64450W        W32668  10.100   0.358   4.260
64451W        W32669  36.591  23.516  13.809
64452W        W32670   5.136   4.628  11.097
64453W        W32671  19.320  14.175  11.167
64454W        W32672  25.558  12.828   0.509
64455W        W32673  43.740  16.596  11.976
64456W        W32674  42.324   7.096  11.578
64457W        W32675  28.464  37.120  14.499
64458W        W32676  27.719  27.107   3.689
64459W        W32677  43.347  31.391  10.673
64460W        W32678  37.200  29.332  13.401
64461W        W32679  37.434  43.384  14.797
64462W        W32680  21.334  25.920   4.543
64463W        W32681   5.388  16.490   2.105
64464W        W32682  43.379  37.451   4.175
64465W        W32683  11.675   6.434   4.192
64466W        W32684  34.427  31.647  11.494
64467W        W32685   7.999  16.567  11.120
64468W        W32686   8.767  19.582   2.885
64469W        W32687  22.353  24.215  11.526
64470W        W32688  40.608  38.421  10.583
64471W        W32689  17.190   0.888   2.655
64472W        W32690  19.701   2.165  13.122
64473W        W32691  20.148  24.302   0.896
64474W        W32692  20.743  31.166  11.627
64475W        W32693   2.082  15.977   4.204
64476W        W32694  28.959   1.819  11.092
64477W        W32695   0.829  16.629   2.404
64478W        W32696  42.353  24.544  14.498
64479W        W32697  23.623  27.667   1.697
64480W        W32698  10.286  35.178   2.762
64481W        W32699  35.977  25.672  10.644
64482W        W32700  24.159   7.227  10.650
64483W        W32701  19.199  30.034  12.474
64484W        W32702  33.108  18.532   0.839
64485W        W32703   6.774  23.274  14.934
64486W        W32704   7.195   4.426  11.994
64487W        W32705  19.776  32.255   1.264
64488W        W32706  27.550  16.762   2.740
64489W        W32707  23.651   9.736  11.524
64490W        W32708  22.671   8.299  10.712
64491W        W32709  17.670  10.171   3.314
64492W        W32710   7.273   4.380   4.582
64493W        W32711  15.872  36.357  11.550
64494W        W32712   8.878  27.725   2.354
64495W        W32713  17.049   4.532   2.404
64496W        W32714   3.329   3.011  13.690
64497W        W32715  44.005   3.713  12.937
64498W        W32716  23.473  10.205   0.882
64499W        W32717   0.242  27.329  10.967
64500W        W32718  11.241   1.114   5.057
64501W        W32719  39.480  28.522   4.637
64502W        W32720  18.211  34.904  13.923
64503W        W32721   8.241  23.448  14.868
64504W        W32722  41.294  16.610  11.060
64505W        W32723  19.429  30.445   2.637
64506W        W32724  42.924  41.328   4.587
64507W        W32725  18.505  14.639  12.441
64508W        W32726  28.513   9.756  10.198
64509W        W32727  18.621  27.555   4.860
64510W        W32728  44.757  18.273  11.854
64511W        W32729  23.647  31.653  12.503
64512W        W32730  43.222   4.809   3.188
64513W        W32731  31.903  39.942  14.797
64514W        W32732  17.060  17.281   0.868
64515W        W32733   8.192  34.809   2.007
64516W        W32734  31.709  40.782  11.862
64517W        W32735  11.034  17.824  10.321
64518W        W32736   4.538  11.219   1.006
64519W        W32737  16.770   1.698  14.263
64520W        W32738  22.826  31.433   2.735
64521W        W32739  13.228  35.533   4.393
64522W        W32740  40.282  28.635  11.493
64523W        W32741  42.214   1.371   0.380
64524W        W32742  34.576   4.329   4.674
64525W        W32743  23.210  37.770  14.317
64526W        W32744  14.896   6.652   2.841
64527W        W32745  43.010   7.526   5.235
64528W        W32746  22.664  29.165   4.681
64529W        W32747  36.351  17.933   2.252
64530W        W32748   4.716  30.558   4.060
64531W        W32749  40.829  41.940   0.724
64532W        W32750  24.708   5.626   3.917
64533W        W32751  13.889  38.843  14.446
64534W        W32752  23.577  19.109  12.182
64535W        W32753   7.984  44.930  14.905
64536W        W32754  38.541  25.504  14.805
64537W        W32755  31.073  38.950   2.930
64538W        W32756  12.592  12.770   3.137
64539W        W32757  12.415   4.176   3.840
64540W        W32758  27.667  15.097   4.028
64541W        W32759   1.764  36.633   2.325
64542W        W32760  18.395  17.303   2.571
64543W        W32761   0.385  10.240   4.985
64544W        W32762  17.518  21.235  11.260
64545W        W32763  29.049  20.189  14.789
64546W        W32764  27.629   7.103  12.621
64547W        W32765  22.618  15.342   2.431
64548W        W32766  14.742  23.649   3.923
64549W        W32767   4.433  35.877   2.364
64550W        W32768  32.471  19.481   1.801
64551W        W32769  27.603  27.501   1.272
64552W        W32770   2.524  34.755  10.421
64553W        W32771  18.098   6.942  10.797
64554W        W32772  16.128  35.977  13.408
64555W        W32773  30.486  40.624  14.806
64556W        W32774  38.527  33.981   0.657
64557W        W32775  23.682  38.340   4.040
64558W        W32776  44.015  32.988  10.592
64559W        W32777  16.211   0.923  11.050
64560W        W32778  32.125  38.501  13.437
64561W        W32779  27.219  10.825  11.305
64562W        W32780  43.751  13.201  12.136
64563W        W32781  17.571  24.077  12.935
64564W        W32782   3.837   9.757  14.363
64565W        W32783  10.542  36.441  13.457
64566W        W32784  31.347  11.110   1.116
64567W        W32785  18.263   7.872  11.149
64568W        W32786  41.419  25.974   3.157
64569W        W32787  13.088  22.547  12.051
64570W        W32788  32.986  19.147   3.553
64571W        W32789  40.632  17.861  10.829
64572W        W32790   5.157   6.144  14.013
64573W        W32791  25.023  38.941  14.754
64574W        W32792  11.103  29.938  12.905
64575W        W32793  15.619  43.422  13.528
64576W        W32794  43.999  40.040  13.042
64577W        W32795   4.197  16.780   2.706
64578W        W32796  23.672   6.913   2.368
64579W        W32797  44.462  24.154   1.427
64580W        W32798  23.403   2.919   0.283
64581W        W32799  37.130  15.423  10.221
64582W        W32800   7.483  27.961  14.157
64583W        W32801   6.612  10.788   1.957
64584W        W32802   3.181  34.052  14.792
64585W        W32803  10.190  15.064   0.234
64586W        W32804  11.715   5.299   1.909
64587W        W32805  30.424   6.379   2.647
64588W        W32806  31.965  39.817  13.764
64589W        W32807  26.525  33.639  11.537
64590W        W32808   7.270  13.068  14.918
64591W        W32809   8.673  42.612   3.138
64592W        W32810   6.956  26.926   4.744
64593W        W32811  38.310   4.820   1.885
64594W        W32812  24.666   7.678  14.705
64595W        W32813  11.829  38.454  14.893
64596W        W32814  43.299  11.652  11.962
64597W        W32815  40.817  34.961  14.578
64598W        W32816  16.702  25.974  13.327
64599W        W32817  38.634  23.156  10.962
64600W        W32818  18.572  39.781   3.445
64601W        W32819  40.621   3.946  10.357
64602W        W32820   8.125  42.682  11.902
64603W        W32821   3.582  10.784  12.182
64604W        W32822   1.665   1.785   0.230
64605W        W32823   4.027  14.971   3.693
64606W        W32824  14.241  11.577   4.556
64607W        W32825  38.932   2.377  14.600
64608W        W32826   3.755  29.742  10.763
64609W        W32827  16.540  19.615   4.283
64610W        W32828  41.974  19.158  14.362
64611W        W32829  28.734  16.830  10.249
64612W        W32830  14.979  40.629   3.693
64613W        W32831   1.785  44.561   4.622
64614W        W32832  18.210  32.202  11.509
64615W        W32833  26.646  27.064  12.349
64616W        W32834  24.099  26.771   2.163
64617W        W32835  10.838  28.137  11.388
64618W        W32836  34.829  39.523  13.039
64619W        W32837  13.216  42.354  14.512
64620W        W32838  24.290   2.289  14.868
64621W        W32839   4.687  35.883  12.530
64622W        W32840  11.626  21.030   2.371
64623W        W32841   0.955  26.628  13.548
64624W        W32842  26.927  14.067   4.914
64625W        W32843  18.538   5.911  12.460
64626W        W32844  41.063  40.044   0.842
64627W        W32845   7.874   4.841   0.474
64628W        W32846  10.532  34.454   2.244
64629W        W32847  15.355  35.056  10.440
64630W        W32848  28.442  29.078   0.805
64631W        W32849  33.910  13.315  14.937
64632W        W32850  17.131   6.395   1.862
64633W        W32851   3.805  38.956  12.212
64634W        W32852  20.562   3.673   2.752
64635W        W32853   0.401  22.017   4.401
64636W        W32854  16.935  39.011  13.741
64637W        W32855  33.268  30.637   3.550
64638W        W32856   1.859  36.312   0.274
64639W        W32857  19.258   0.339   4.968
64640W        W32858  27.651  28.051   3.556
64641W        W32859  30.429  19.167   4.490
64642W        W32860  10.915   4.900  13.401
64643W        W32861   6.347  16.716   3.113
64644W        W32862   7.401   5.824   2.793
64645W        W32863  41.409  16.086  14.305
64646W        W32864  34.427  17.833   3.043
64647W        W32865   3.798   3.203   4.698
64648W        W32866  40.948  16.877   3.773
64649W        W32867  11.227  41.266   3.689
64650W        W32868  22.160  24.947  10.965
64651W        W32869  33.673  32.178   0.807
64652W        W32870   2.400  30.026   4.707
64653W        W32871  24.652  43.561   4.207
64654W        W32872  44.379  30.946   4.581
64655W        W32873  40.807  21.480   4.584
64656W        W32874  15.222  38.044  14.062
64657W        W32875  43.057  28.920   0.273
64658W        W32876  19.499  41.606  10.652
64659W        W32877  25.446  35.572   0.780
64660W        W32878  28.834   0.534   2.688
64661W        W32879  15.711  11.380  12.004
64662W        W32880  32.781   1.377  13.940
64663W        W32881  36.816   0.721  11.145
64664W        W32882  34.347  14.209  13.940
64665W        W32883   7.165  13.620  14.368
64666W        W32884  16.607  32.768   2.732
64667W        W32885  23.053  42.604   4.595
64668W        W32886   2.914   3.834   4.296
64669W        W32887   7.960  23.314  11.198
64670W        W32888  30.954  43.557  14.709
64671W        W32889  36.330   4.642  14.425
64672W        W32890  28.716   6.031  11.518
64673W        W32891  44.353  14.708  12.021
64674W        W32892  34.967  16.337   1.596
64675W        W32893  38.579  16.963  11.184
64676W        W32894  35.398  14.824  11.172
64677W        W32895  31.078   4.939   5.323
64678W        W32896  32.595  24.899  13.689
64679W        W32897  33.466  31.725   1.661
64680W        W32898   1.301  22.977  11.148
64681W        W32899  31.488  42.705  14.746
64682W        W32900   3.473   6.325   3.637
64683W        W32901  15.075  43.376  13.530
64684W        W32902  33.111  34.904  11.695
64685W        W32903  15.726  11.213   3.163
64686W        W32904  30.205  26.201  14.281
64687W        W32905  29.452  11.065   2.086
64688W        W32906   9.806  38.615   3.933
64689W        W32907  29.032  41.515  12.958
64690W        W32908  20.369   1.412   0.241
64691W        W32909   4.932   0.408   0.042
64692W        W32910  13.298   7.292   2.162
64693W        W32911  14.686  43.509   2.783
64694W        W32912  11.325   8.694   0.706
64695W        W32913  16.721  41.119   2.297
64696W        W32914  24.908   7.749   1.803
64697W        W32915   5.909  18.196  13.456
64698W        W32916  13.925  24.468  13.502
64699W        W32917  33.904  14.587  11.120
64700W        W32918  32.862  20.642  14.356
64701W        W32919  12.843  39.898  12.458
64702W        W32920  27.190  34.070   0.019
64703W        W32921   9.226  44.012   1.880
64704W        W32922  11.478  44.682  10.967
64705W        W32923  35.893  16.620   3.257
64706W        W32924  23.853  39.176  13.112
64707W        W32925  34.897  43.577  14.962
64708W        W32926  35.044  20.501  13.734
64709W        W32927  40.956  41.521   4.618
64710W        W32928  32.134  40.578   1.379
64711W        W32929  26.412  30.808   2.958
64712W        W32930  26.387   1.319   4.718
64713W        W32931  15.848  33.845  12.855
64714W        W32932   6.720  37.147   4.125
64715W        W32933  19.815   4.329  10.545
64716W        W32934  24.422  14.489  13.555
64717W        W32935  34.607  18.421   4.772
64718W        W32936  40.908  22.278   1.410
64719W        W32937  12.390  28.011  14.942
64720W        W32938  37.345  33.960   0.894
64721W        W32939  33.346   5.251   1.134
64722W        W32940  17.744  30.180   1.106
64723W        W32941  44.831   7.072   0.024
64724W        W32942   2.966  18.267   4.275
64725W        W32943  31.026  16.395   2.932
64726W        W32944  21.208  29.573   1.137
64727W        W32945  16.928  22.810  11.901
64728W        W32946  15.689  19.087  11.285
64729W        W32947  39.507   7.980  13.493
64730W        W32948   6.855  24.193  10.839
64731W        W32949  27.873  30.548  11.428
64732W        W32950   4.268  24.688  12.695
64733W        W32951   3.376  35.907  10.310
64734W        W32952  15.683  29.923   1.766
64735W        W32953  44.047  21.172  11.573
64736W        W32954   9.426  21.135   2.219
64737W        W32955  24.942  44.686  12.561
64738W        W32956  36.636  23.606  13.288
64739W        W32957  41.460   9.650  13.031
64740W        W32958  12.156  20.545  11.991
64741W        W32959  44.966  34.795   2.740
64742W        W32960   3.837  39.921   0.896
64743W        W32961  42.303  25.690  12.167
64744W        W32962  42.512   7.696   3.736
64745W        W32963   4.438   5.061   0.681
64746W        W32964   2.906  12.056   4.661
64747W        W32965  11.189  10.339   0.685
64748W        W32966  21.270  13.970  10.311
64749W        W32967  16.471   5.089  13.357
64750W        W32968  11.991  34.624  14.814
64751W        W32969  26.897   6.722   3.229
64752W        W32970  34.232  44.512  14.080
64753W        W32971  36.638  31.100   3.831
64754W        W32972  18.257  19.788  11.673
64755W        W32973  28.960   9.302  11.198
64756W        W32974  21.248  26.386  11.888
64757W        W32975  12.695  28.342   1.892
64758W        W32976  20.599  12.830  12.951
64759W        W32977  43.261  35.560  14.852
64760W        W32978  29.884  15.273   1.224
64761W        W32979  42.747  17.600   4.351
64762W        W32980  13.729   0.303   0.285
64763W        W32981  36.402  13.175   5.000
64764W        W32982  42.536   8.563   0.661
64765W        W32983  24.199  26.309   2.344
64766W        W32984  36.331  39.268  12.845
64767W        W32985  11.921  40.278  13.537
64768W        W32986  14.803   3.020  13.767
64769W        W32987  23.456  27.118   0.011
64770W        W32988  29.520   6.779   2.303
64771W        W32989  17.228  12.243  14.331
64772W        W32990  16.016  34.080   0.256
64773W        W32991  41.908  20.093  11.716
64774W        W32992  22.796   3.300  11.154
64775W        W32993  27.933  12.442   3.545
64776W        W32994   4.205  10.842  10.626
64777W        W32995  12.782  17.060   1.287
64778W        W32996  10.925  31.448  14.833
64779W        W32997  24.982  26.952   2.442
64780W        W32998  29.907   3.815   2.720
64781W        W32999   8.272  18.849  14.384
64782W        W33000  23.108  14.068   0.862
64783W        W33001  31.327  28.711  12.601
64784W        W33002   5.631  44.909  13.631
64785W        W33003  24.736  38.348  13.451
64786W        W33004  23.255  29.043  11.734
64787W        W33005  34.260   9.230  14.901
64788W        W33006  44.502  29.884  11.622
64789W        W33007   1.352  35.092   2.654
64790W        W33008  11.072  16.607  10.765
64791W        W33009  44.074  23.552  11.717
64792W        W33010  26.093  39.981   1.028
64793W        W33011  34.452  29.027   1.815
64794W        W33012  17.764   3.272   0.742
64795W        W33013  38.123  13.703   1.703
64796W        W33014   4.817  13.253  13.835
64797W        W33015  19.908  36.435   3.339
64798W        W33016  23.536  19.357   1.314
64799W        W33017  13.423  15.612   4.540
64800W        W33018  11.265  31.193  10.642
64801W        W33019  38.976  33.928   0.414
64802W        W33020  43.063   5.600   4.585
64803W        W33021  42.003  35.159   0.734
64804W        W33022  38.546   4.805  12.918
64805W        W33023   7.400  29.790   4.728
64806W        W33024  34.068   0.889  13.959
64807W        W33025  26.881  43.374  14.852
64808W        W33026  24.171  38.968  12.139
64809W        W33027   2.353   1.916  12.523
64810W        W33028   3.174  23.663   2.273
64811W        W33029  42.458  31.334  12.967
64812W        W33030   0.263  19.284  11.032
64813W        W33031  31.262  19.210  12.035
64814W        W33032  39.453  22.255   4.459
64815W        W33033  10.914  24.378   4.492
64816W        W33034  30.718  37.847  13.473
64817W        W33035   3.523   7.927   4.252
64818W        W33036  30.966  35.885   1.864
64819W        W33037  44.831   5.730   0.045
64820W        W33038  17.119  22.523   0.696
64821W        W33039  17.172  22.678   4.187
64822W        W33040  18.448  26.781   9.836
64823W        W33041  20.570  14.950   9.877
64824W        W33042  30.729  24.054   2.533
64825W        W33043  18.454  32.551  10.982
64826W        W33044  29.036  38.593   0.711
64827W        W33045  39.781  37.841  12.435
64828W        W33046  25.757  26.464  10.970
64829W        W33047  43.718  20.375   0.351
64830W        W33048  11.331  26.071  11.093
64831W        W33049  44.961   2.448   2.881
64832W        W33050  25.482  13.658   2.643
64833W        W33051  10.415  25.127  12.608
64834W        W33052  21.835  11.267   4.542
64835W        W33053  23.703   8.864   5.081
64836W        W33054  21.332  27.096  13.558
64837W        W33055  28.155  14.695   1.723
64838W        W33056  22.870  27.125   3.208
64839W        W33057   6.729  35.099   2.775
64840W        W33058  19.514  38.802   1.721
64841W        W33059  43.540  38.033  13.869
64842W        W33060  14.855  37.569  14.967
64843W        W33061   4.641  11.982   1.921
64844W        W33062  35.127  14.611   3.236
64845W        W33063   1.785  16.741   0.736
64846W        W33064  23.561  30.019  14.500
64847W        W33065   3.473  18.886  11.790
64848W        W33066  20.859  14.687   1.895
64849W        W33067  16.673  36.343  11.196
64850W        W33068  43.333  26.728   0.978
64851W        W33069  20.840  33.559   5.558
64852W        W33070  10.062  37.999  11.992
64853W        W33071   3.007   4.836   4.616
64854W        W33072  18.056  23.009   2.326
64855W        W33073  30.549  36.308  14.459
64856W        W33074   9.992   8.395   3.206
64857W        W33075   8.295  27.103  11.528
64858W        W33076   8.681   1.214  13.434
64859W        W33077  27.515  43.924  14.365
64860W        W33078   2.341   4.158   1.300
64861W        W33079  19.032  27.460   1.853
64862W        W33080  40.459   1.946   3.001
64863W        W33081   8.894  39.463   3.176
64864W        W33082  34.717  20.286   2.192
64865W        W33083  41.084  31.612   4.370
64866W        W33084  10.978   9.622   1.013
64867W        W33085  14.678  23.953  14.539
64868W        W33086  25.822   3.687   1.786
64869W        W33087   3.682   5.685   4.494
64870W        W33088  30.446  14.150  13.793
64871W        W33089   7.752  36.580  13.849
64872W        W33090  22.186  35.099   1.901
64873W        W33091  37.043  34.427   4.390
64874W        W33092   6.916  34.768   4.256
64875W        W33093   4.148  30.094  10.764
64876W        W33094  42.431  29.994  13.833
64877W        W33095  42.508   1.830   1.234
64878W        W33096  35.723  43.943  14.723
64879W        W33097  11.652   9.936   4.459
64880W        W33098   6.980  27.938  13.230
64881W        W33099  20.074  31.214   2.811
64882W        W33100  41.562  22.240  10.753
64883W        W33101  35.546  37.293   2.240
64884W        W33102  27.117   3.754  13.136
64885W        W33103  25.102   9.334   1.313
64886W        W33104  34.908  36.639   1.197
64887W        W33105   8.216  16.080  13.540
64888W        W33106   9.803  21.491  12.574
64889W        W33107  26.092   3.054  13.913
64890W        W33108  16.634  32.464  11.857
64891W        W33109  22.513  26.933   2.847
64892W        W33110  33.089  30.178  14.398
64893W        W33111  41.281  30.414  13.655
64894W        W33112  15.318  26.834   4.449
64895W        W33113  26.438   8.733   4.233
64896W        W33114  30.900  18.681   1.159
64897W        W33115   7.887   7.456  10.379
64898W        W33116   0.351  29.696  11.567
64899W        W33117   1.649  23.108   4.657
64900W        W33118  27.417  44.390  11.704
64901W        W33119  23.690  16.791   0.853
64902W        W33120  16.539   6.157  11.570
64903W        W33121   5.884   5.887  14.723
64904W        W33122   7.922  10.204  12.903
64905W        W33123   8.055  44.454  10.400
64906W        W33124  21.797   0.472  14.467
64907W        W33125  23.856   2.491   0.952
64908W        W33126  27.677  24.388   4.170
64909W        W33127   0.318  10.072   3.263
64910W        W33128  43.837  26.546   2.798
64911W        W33129  31.477  37.835  13.566
64912W        W33130   1.721  42.975   3.256
64913W        W33131  18.977  10.108   0.389
64914W        W33132  40.335   1.013   1.365
64915W        W33133   1.233  19.029  10.739
64916W        W33134  44.022  38.875   3.310
64917W        W33135  16.533  12.649  14.944
64918W        W33136  44.243   3.784   0.590
64919W        W33137   2.265  19.050   0.784
64920W        W33138  20.191   7.680   3.564
64921W        W33139   3.660  43.944  11.185
64922W        W33140  11.128  21.032  12.123
64923W        W33141  22.350  15.129  12.200
64924W        W33142  37.413  44.384   1.929
64925W        W33143  38.100  35.964  14.415
64926W        W33144   3.465   0.762  12.967
64927W        W33145  21.709   5.856  12.136
64928W        W33146   4.707  22.218   1.846
64929W        W33147  21.827  18.142  11.560
64930W        W33148  40.069   1.536   2.708
64931W        W33149  38.203  43.987   1.846
64932W        W33150  38.730  24.296   0.298
64933W        W33151   8.882  19.211   1.595
64934W        W33152  18.230  34.450   0.735
64935W        W33153  26.639  22.452   4.111
64936W        W33154  42.019  32.873  13.980
64937W        W33155  43.287   7.872   4.278
64938W        W33156   5.179  33.314  11.962
64939W        W33157  31.411  21.156   2.692
64940W        W33158  20.025  37.762  14.444
64941W        W33159  19.010  20.400  13.902
64942W        W33160  22.724  17.532   3.613
64943W        W33161  31.519   6.187   0.687
64944W        W33162  12.230  43.634  10.627
64945W        W33163  40.429  21.601  11.266
64946W        W33164   5.739  25.193  13.807
64947W        W33165  42.511   5.598  11.551
64948W        W33166   7.803  13.083   1.414
64949W        W33167   4.207  29.536  13.988
64950W        W33168  24.303  15.109   3.793
64951W        W33169  27.713   0.971   4.275
64952W        W33170  39.727  41.961  14.842
64953W        W33171   1.047  10.296   3.216
64954W        W33172  42.906  13.791   0.846
64955W        W33173  11.611  33.087  10.601
64956W        W33174  35.879  14.762   0.973
64957W        W33175  36.941  37.451   4.618
64958W        W33176  40.495   0.106   1.802
64959W        W33177  41.288  17.783   4.357
64960W        W33178   3.753   8.252  11.077
64961W        W33179  41.908  41.449   3.760
64962W        W33180  31.401  33.209   0.972
64963W        W33181  25.765  37.281   5.049
64964W        W33182  18.389   3.879   1.559
64965W        W33183  19.603  33.428   2.500
64966W        W33184  20.286  42.291   3.184
64967W        W33185  18.756  16.833  12.501
64968W        W33186  26.454  32.909  10.973
64969W        W33187   7.428  22.887   0.412
64970W        W33188  24.027   9.627  10.693
64971W        W33189  40.094  20.724   1.653
64972W        W33190  17.993  33.437   3.439
64973W        W33191  20.545  42.781  13.788
64974W        W33192  29.721  44.367  11.206
64975W        W33193  40.137   9.209  12.076
64976W        W33194   3.986   5.369   0.795
64977W        W33195  11.074  34.514   3.224
64978W        W33196  10.689  28.921   1.917
64979W        W33197  38.936  44.118  11.846
64980W        W33198  33.486  11.567  13.874
64981W        W33199  14.988  21.257   3.998
64982W        W33200  17.346  36.603  12.916
64983W        W33201  25.560   5.283   0.220
64984W        W33202   5.889  42.276   2.327
64985W        W33203  37.680   3.825   3.226
64986W        W33204  25.421   2.490  13.351
64987W        W33205  44.827   5.935   1.945
64988W        W33206  32.470  31.806   3.815
64989W        W33207   7.896  13.145   4.765
64990W        W33208  37.564  13.757  10.990
64991W        W33209  31.561  38.665   4.897
64992W        W33210  10.959   2.104  11.108
64993W        W33211   0.508  21.505  13.986
64994W        W33212  44.532  29.706  12.623
64995W        W33213  35.584   6.423   1.337
64996W        W33214   1.536  43.585   3.176
64997W        W33215  41.538  18.832  11.387
64998W        W33216  42.879  32.687  11.536
64999W        W33217  22.606  12.825  14.975
65000W        W33218   1.739  10.308  13.019
65001W        W33219  10.053  36.367  14.340
65002W        W33220  18.935  33.166   3.151
65003W        W33221   7.704  19.468  11.410
65004W        W33222   3.645   6.332   0.055
65005W        W33223   6.848  11.353   1.853
65006W        W33224   2.826  26.702   3.539
65007W        W33225   8.171   0.847   2.001
65008W        W33226  36.419  29.611  10.271
65009W        W33227  22.176  33.440  13.073
65010W        W33228  19.699  40.285  13.433
65011W        W33229  10.185   3.977  10.692
65012W        W33230  21.275  35.852   2.435
65013W        W33231  37.502   6.621   3.305
65014W        W33232  38.146  19.166  14.273
65015W        W33233  34.523  37.874   0.952
65016W        W33234  35.425  23.972   3.308
65017W        W33235  20.051  23.176  14.340
65018W        W33236  18.130  23.401  11.120
65019W        W33237  32.659  40.664   3.689
65020W        W33238  20.940  11.524   4.254
65021W        W33239  20.069  13.744   2.297
65022W        W33240   2.655   1.312   1.410
65023W        W33241  33.612  23.264  14.340
65024W        W33242  32.884  42.288   4.573
65025W        W33243  37.856  20.636  13.486
65026W        W33244  13.822  38.402   4.555
65027W        W33245  38.975  24.116  10.529
65028W        W33246   7.764  36.571   2.207
65029W        W33247   6.221  13.608   4.752
65030W        W33248  39.597  24.539  11.490
65031W        W33249   7.094  38.781  14.003
65032W        W33250  36.237  31.702   3.577
65033W        W33251  36.848  14.423   1.813
65034W        W33252  34.117  25.654  14.483
65035W        W33253   7.276  42.134   1.028
65036W        W33254  16.298  30.993   1.490
65037W        W33255  35.868  20.004  12.027
65038W        W33256  21.017  44.973  11.978
65039W        W33257  24.559  21.055   2.527
65040W        W33258  40.239  31.584  12.019
65041W        W33259  38.384   3.721   0.852
65042W        W33260  18.684   5.202  11.464
65043W        W33261  34.977  10.934  13.741
65044W        W33262  35.519  40.455   4.911
65045W        W33263  24.287  14.278   3.657
65046W        W33264  16.148   5.917  11.979
65047W        W33265  12.452   2.265  13.756
65048W        W33266  33.798  43.650  11.565
65049W        W33267  38.927  23.136   2.596
65050W        W33268   0.738   1.807   1.809
65051W        W33269   1.975  35.068  13.100
65052W        W33270  31.454  34.955   0.813
65053W        W33271  17.741  11.286  10.289
65054W        W33272   1.431  11.769  14.448
65055W        W33273   8.503  38.561  13.050
65056W        W33274  43.931  24.533  11.490
65057W        W33275   5.758  10.698   3.208
65058W        W33276  35.170   9.267   1.802
65059W        W33277  19.264  36.364  11.624
65060W        W33278   2.452  28.316   0.451
65061W        W33279  13.216  14.517   1.763
65062W        W33280  43.865   6.463   3.674
65063W        W33281  10.220   2.378  12.631
65064W        W33282   6.237  19.050   3.606
65065W        W33283  15.693  18.108  14.775
65066W        W33284  19.791   8.814   4.637
65067W        W33285  23.686   7.707   0.704
65068W        W33286  12.170  40.040  12.075
65069W        W33287  41.327  42.028   0.961
65070W        W33288   0.454  22.204  10.747
65071W        W33289  31.253  24.036  12.018
65072W        W33290  36.509  22.673   0.309
65073W        W33291  31.933   6.018  10.668
65074W        W33292  15.219  10.647   1.165
65075W        W33293  37.146  21.025   0.691
65076W        W33294  35.515  28.203  14.052
65077W        W33295  17.743  29.950  11.539
65078W        W33296  10.893  17.956   3.887
65079W        W33297  16.307  31.256  12.212
65080W        W33298  31.542  32.934  14.639
65081W        W33299  44.544  39.052   2.261
65082W        W33300  27.468  14.639   1.497
65083W        W33301  27.174  22.135   2.255
65084W        W33302  16.605  43.868   2.526
65085W        W33303  16.719  40.329  14.475
65086W        W33304  10.184  36.271  14.848
65087W        W33305  42.639   1.252   3.619
65088W        W33306  37.412   2.770   2.424
65089W        W33307  13.192  10.387   1.575
65090W        W33308  42.438  21.094  12.952
65091W        W33309  17.740   6.819  12.985
65092W        W33310   2.939  36.293  12.080
65093W        W33311  15.158  39.541   0.814
65094W        W33312  42.609  26.635   1.805
65095W        W33313  14.448  39.564  14.209
65096W        W33314  36.202  23.862   1.103
65097W        W33315  21.967   4.936   2.208
65098W        W33316  40.990   1.645  12.111
65099W        W33317  28.003   1.207   3.397
65100W        W33318  10.371   3.326   1.355
65101W        W33319  28.456  20.678  13.563
65102W        W33320  28.670  16.837   3.349
65103W        W33321  40.825  27.132   3.078
65104W        W33322  14.262  44.931   3.674
65105W        W33323  20.167  15.321  10.587
65106W        W33324  37.202  10.375   3.623
65107W        W33325  26.135  36.036   1.815
65108W        W33326  23.541  29.171   4.568
65109W        W33327  41.266   0.471  14.494
65110W        W33328  10.731   1.368  14.443
65111W        W33329  39.404  39.753   0.264
65112W        W33330  13.271  14.738   0.361
65113W        W33331  44.960  31.693  14.895
65114W        W33332  29.571   4.950  11.550
65115W        W33333  15.371  18.233  13.829
65116W        W33334  19.350  34.507  12.464
65117W        W33335  41.468  28.181   2.531
65118W        W33336  41.794  26.251   0.351
65119W        W33337  40.307  36.635  11.272
65120W        W33338   7.475  14.696   0.740
65121W        W33339   5.479  36.320  14.919
65122W        W33340  13.823   9.797   3.363
65123W        W33341  10.631  14.558  12.937
65124W        W33342  11.777   4.567   5.030
65125W        W33343  36.199  24.939   3.653
65126W        W33344  39.126  39.022   0.772
65127W        W33345  18.672  16.495   4.213
65128W        W33346  30.627  38.356  13.454
65129W        W33347  36.910  22.266   4.681
65130W        W33348  39.374  28.147   0.906
65131W        W33349  12.758  37.888   4.365
65132W        W33350   2.704  27.612   1.748
65133W        W33351  33.883  30.070  11.927
65134W        W33352  42.776  19.923   2.670
65135W        W33353  24.494  21.513   2.782
65136W        W33354   0.447   7.432  12.041
65137W        W33355   0.978  23.432  11.127
65138W        W33356   5.986  17.331  14.005
65139W        W33357  44.044  20.383  11.654
65140W        W33358  40.312  11.600  11.547
65141W        W33359  18.289  35.841   2.740
65142W        W33360  22.732  32.905   9.991
65143W        W33361  26.335   1.406  14.216
65144W        W33362  18.281  12.663  10.984
65145W        W33363  34.837  35.668  11.344
65146W        W33364   4.132  28.722  11.990
65147W        W33365  25.517  17.229   4.893
65148W        W33366  20.560   6.873   1.104
65149W        W33367  29.193  30.597   1.758
65150W        W33368  34.811  37.915  10.716
65151W        W33369  40.848  28.639   3.790
65152W        W33370  42.572  25.116   4.552
65153W        W33371  37.859   3.582  12.508
65154W        W33372   7.235  11.927   0.222
65155W        W33373  24.749   1.758   2.212
65156W        W33374   9.611   5.850  14.862
65157W        W33375  23.265   2.971  11.059
65158W        W33376  14.324  19.843  11.198
65159W        W33377  28.938  14.456   0.936
65160W        W33378   4.977  40.851   3.969
65161W        W33379   3.316  42.061   0.558
65162W        W33380  10.580  35.122   0.107
65163W        W33381   2.362  36.874  14.277
65164W        W33382  13.720  31.001   2.287
65165W        W33383  29.130  35.457  14.821
65166W        W33384  14.631   9.803   0.749
65167W        W33385  20.672   6.172  10.776
65168W        W33386  10.701  22.537  12.095
65169W        W33387  34.051  39.911  14.422
65170W        W33388  26.516  28.139  10.431
65171W        W33389  34.887  34.003  12.301
65172W        W33390  20.518  41.433  13.308
65173W        W33391   0.626  15.925   5.063
65174W        W33392   6.188   8.561   4.010
65175W        W33393  16.573  27.921  10.361
65176W        W33394  42.630  43.776  11.961
65177W        W33395  32.182  30.534   1.259
65178W        W33396  30.127  32.603  14.907
65179W        W33397   5.965  30.861  14.466
65180W        W33398  22.334  24.690   3.816
65181W        W33399  24.486  37.847  11.236
65182W        W33400   1.040  13.171  14.497
65183W        W33401  15.685  21.672  12.039
65184W        W33402   7.863  24.709   2.883
65185W        W33403  17.138  43.559   3.710
65186W        W33404  34.570  43.772   0.375
65187W        W33405  10.641   5.918  14.695
65188W        W33406  35.129  24.650  13.327
65189W        W33407  28.617  41.806   0.444
65190W        W33408  13.585   2.612   1.765
65191W        W33409   8.829  11.201   4.163
65192W        W33410  29.448  35.431   2.150
65193W        W33411  17.729  12.223   1.778
65194W        W33412  44.464  19.248  11.502
65195W        W33413  24.509   2.911  13.252
65196W        W33414  29.783  29.212   2.779
65197W        W33415  28.486  18.162  10.232
65198W        W33416  21.138   0.808  11.620
65199W        W33417  18.193  33.692  12.551
65200W        W33418   6.380   3.444  12.031
65201W        W33419  19.971  12.820   1.390
65202W        W33420   3.705  24.105  13.905
65203W        W33421  39.607  24.985  13.832
65204W        W33422  30.079  35.804  11.661
65205W        W33423  16.439   5.566  13.535
65206W        W33424   6.973  17.519  14.105
65207W        W33425  35.091  36.844  12.155
65208W        W33426  20.378  29.716  12.213
65209W        W33427  24.596  30.175   0.801
65210W        W33428  40.516   2.146  10.942
65211W        W33429  30.810  15.659  14.536
65212W        W33430  15.581  20.318  11.860
65213W        W33431  21.223  21.051   3.159
65214W        W33432  44.886  32.648  10.926
65215W        W33433  32.674  12.737  14.989
65216W        W33434  26.079  12.763   1.151
65217W        W33435   9.229  24.493  14.360
65218W        W33436  15.871  26.302  13.162
65219W        W33437  19.074  38.930  13.499
65220W        W33438  12.707  22.981  12.386
65221W        W33439  13.652  35.570   3.183
65222W        W33440  27.158  37.009   1.288
65223W        W33441  34.927  15.572   4.245
65224W        W33442  16.496  39.997  14.931
65225W        W33443  22.001  19.842  12.417
65226W        W33444  44.313  27.628  13.296
65227W        W33445   0.762  24.699  12.275
65228W        W33446   0.870  12.679   4.053
65229W        W33447   6.260   4.367   1.210
65230W        W33448   2.709  43.966   1.766
65231W        W33449  23.246  44.810  13.904
65232W        W33450  37.269  15.556  12.934
65233W        W33451  31.463  29.783   9.803
65234W        W33452  33.373  44.496  12.448
65235W        W33453  22.704  36.428  14.508
65236W        W33454   3.340  15.385  14.982
65237W        W33455  42.712   1.258   0.474
65238W        W33456  10.848   9.398  10.654
65239W        W33457  21.927  23.429  12.088
65240W        W33458   2.297  33.927  11.966
65241W        W33459   2.430   9.429  10.731
65242W        W33460   6.626  15.319   0.906
65243W        W33461   8.657  44.862   3.089
65244W        W33462   6.026  11.208   0.753
65245W        W33463  32.369  12.372  14.775
65246W        W33464   4.950  21.770   1.894
65247W        W33465  34.962  15.755   2.306
65248W        W33466   7.640  11.661   1.166
65249W        W33467  35.919  41.270  14.073
65250W        W33468  18.557  38.623   4.802
65251W        W33469  31.614  36.478   4.532
65252W        W33470  16.020   8.440  13.359
65253W        W33471  37.892  25.917   0.200
65254W        W33472  16.675   5.332   1.604
65255W        W33473  17.036  16.989   2.829
65256W        W33474  34.909  26.964  11.525
65257W        W33475  30.517  30.553   3.311
65258W        W33476  37.894  31.870  12.914
65259W        W33477  35.069  35.892  12.681
65260W        W33478  42.348   6.799  10.372
65261W        W33479  27.335  12.568  10.706
65262W        W33480  23.889  26.643   2.659
65263W        W33481  43.889  32.320  11.519
65264W        W33482   4.316   2.255  11.754
65265W        W33483  34.632  23.031   2.771
65266W        W33484  33.348   4.930   4.652
65267W        W33485  39.373  10.521   4.571
65268W        W33486  10.172  32.401  14.998
65269W        W33487  32.828  29.583  11.143
65270W        W33488   7.929   4.393  14.101
65271W        W33489  44.211  34.697  12.872
65272W        W33490   9.473  40.315   1.374
65273W        W33491   3.923  11.327   2.317
65274W        W33492  19.307  11.429  11.291
65275W        W33493  24.025  10.604   0.055
65276W        W33494  20.957  11.891   1.338
65277W        W33495  22.056  11.821   3.223
65278W        W33496   5.735  39.012   3.625
65279W        W33497   6.451  18.857   4.549
65280W        W33498   8.074  22.420   0.012
65281W        W33499  20.967   3.841  14.551
65282W        W33500  42.508  41.224  13.544
65283W        W33501  29.460  13.828   4.032
65284W        W33502  17.568  22.632  10.707
65285W        W33503  21.583  22.737  13.883
65286W        W33504   8.204  26.920  12.698
65287W        W33505   1.366   0.779   4.235
65288W        W33506  26.592  18.612   2.027
65289W        W33507   2.503  21.252   3.911
65290W        W33508  24.005  19.093   1.263
65291W        W33509  32.091  30.113   4.054
65292W        W33510  20.578  23.554  10.736
65293W        W33511  38.155  27.671   2.896
65294W        W33512  37.786   8.915   2.685
65295W        W33513  36.813  32.224  11.829
65296W        W33514   8.838  24.554   2.774
65297W        W33515  34.654  16.835   1.201
65298W        W33516  38.430  18.384  13.505
65299W        W33517   8.158  11.680  11.165
65300W        W33518  24.521  25.059   4.222
65301W        W33519  40.548  40.733   4.511
65302W        W33520  11.278  36.110  12.132
65303W        W33521   1.421  24.366   1.460
65304W        W33522  25.873  38.873   1.521
65305W        W33523  42.556  29.996  10.582
65306W        W33524  29.881  20.346  11.985
65307W        W33525  37.700  21.131   1.433
65308W        W33526  22.709   0.437  11.503
65309W        W33527   9.928  22.194  14.733
65310W        W33528  10.268  29.566  14.425
65311W        W33529  10.339  17.715   1.897
65312W        W33530  32.673  34.914  13.600
65313W        W33531  29.336  16.163  14.700
65314W        W33532  16.270   6.296  14.277
65315W        W33533  21.682  15.755   3.597
65316W        W33534  41.391  41.499  12.494
65317W        W33535  38.811  44.449  14.479
65318W        W33536   1.857  21.307   2.807
65319W        W33537  28.357  42.911  14.506
65320W        W33538  28.444  31.277  12.064
65321W        W33539  36.693  43.998  11.589
65322W        W33540  11.734  39.769  13.520
65323W        W33541  35.482  42.820  11.229
65324W        W33542  23.863   9.099  12.468
65325W        W33543  21.534  34.429   2.723
65326W        W33544  34.630  34.035  13.375
65327W        W33545  11.366  32.191  13.443
65328W        W33546   8.756  18.855   0.689
65329W        W33547   7.215  44.530   4.174
65330W        W33548  22.247  14.323   4.672
65331W        W33549  18.766  35.109  12.012
65332W        W33550  15.100  30.085   2.658
65333W        W33551  12.745  24.247   3.686
65334W        W33552  40.761  42.939  10.490
65335W        W33553  14.729  44.318  14.487
65336W        W33554  37.603  22.453  10.951
65337W        W33555  35.299   1.494  10.227
65338W        W33556   3.633  44.962  11.108
65339W        W33557  19.631  34.963  12.485
65340W        W33558  12.326  30.146  13.810
65341W        W33559   2.225   0.787  13.383
65342W        W33560  24.689  39.512   2.730
65343W        W33561  26.635  11.286   1.252
65344W        W33562  39.314   2.562   2.290
65345W        W33563  13.548  28.143  14.513
65346W        W33564   0.027  30.390  14.895
65347W        W33565  28.707   7.942   0.867
65348W        W33566  17.126  32.054   4.802
65349W        W33567  34.319  37.546   3.618
65350W        W33568  44.745  42.780  14.519
65351W        W33569  30.732  25.396  10.370
65352W        W33570   9.389  39.315   3.123
65353W        W33571  29.940  28.634  10.591
65354W        W33572  14.365  35.960  12.628
65355W        W33573  24.498  15.735  12.876
65356W        W33574  29.767  29.924  14.362
65357W        W33575  18.671  39.910  10.078
65358W        W33576   1.736  41.249   0.502
65359W        W33577  30.249  19.334  12.065
65360W        W33578   7.980  32.028   4.577
65361W        W33579  25.792  29.347  14.298
65362W        W33580  36.058  25.904  11.992
65363W        W33581   4.550  13.768   1.233
65364W        W33582  23.690  11.237   0.862
65365W        W33583  42.043   4.948  10.279
65366W        W33584  24.003   7.311  12.603
65367W        W33585  25.641  32.170  11.681
65368W        W33586  42.301  30.485  10.565
65369W        W33587  11.312  12.903   1.194
65370W        W33588  13.122  41.875  12.678
65371W        W33589  15.486  40.385  14.030
65372W        W33590  24.010   4.654   3.620
65373W        W33591  43.961  15.796  10.721
65374W        W33592   0.752  36.693   0.746
65375W        W33593  21.461  25.079   0.916
65376W        W33594  31.208  16.616  11.099
65377W        W33595   7.853  21.410   3.813
65378W        W33596   7.741  40.883   0.467
65379W        W33597  29.576  29.615   3.152
65380W        W33598  36.020  36.473   4.175
65381W        W33599   8.453  20.175   4.646
65382W        W33600   5.867  17.501  10.205
65383W        W33601  22.690  29.134  12.600
65384W        W33602  38.252  28.979   4.586
65385W        W33603  38.339  32.370   1.932
65386W        W33604  20.559  43.322   0.059
65387W        W33605  21.910   6.452  11.621
65388W        W33606  11.156  21.614   4.613
65389W        W33607   4.431  36.021   0.746
65390W        W33608  44.003   3.207   3.212
65391W        W33609   7.400  20.128  10.530
65392W        W33610  20.617  29.629  10.670
65393W        W33611  43.789  30.111   1.907
65394W        W33612  25.405  19.583  13.903
65395W        W33613  22.263   8.683  11.114
65396W        W33614  38.827   1.841   2.477
65397W        W33615  24.189  39.861   1.410
65398W        W33616  16.365  43.731   0.301
65399W        W33617  34.901  15.256  13.815
65400W        W33618  31.790  25.644  13.035
65401W        W33619  12.830  11.913   1.767
65402W        W33620   8.216  28.381   2.537
65403W        W33621  39.323  36.354   2.731
65404W        W33622  26.963  35.347   4.116
65405W        W33623  16.091  30.988   1.024
65406W        W33624  29.937  33.855   1.430
65407W        W33625  17.889  37.838   3.615
65408W        W33626   8.837   7.230   4.735
65409W        W33627   5.826  16.275  12.029
65410W        W33628   8.630  35.051  10.725
65411W        W33629  31.157  18.564  12.621
65412W        W33630   5.817  39.066  11.056
65413W        W33631  12.673  20.902  13.017
65414W        W33632  15.097  15.277  12.891
65415W        W33633  22.453  40.990  11.111
65416W        W33634  22.071  20.710   0.299
65417W        W33635   6.703  29.114  13.999
65418W        W33636  27.129  17.378  11.966
65419W        W33637  20.689   6.169  13.836
65420W        W33638  41.919  12.703  10.687
65421W        W33639  43.308  39.344  13.974
65422W        W33640  25.966  24.553  11.231
65423W        W33641  30.814  14.785   9.600
65424W        W33642  30.137  31.497   3.656
65425W        W33643   1.018  27.166   4.226
65426W        W33644  37.082   7.574  12.024
65427W        W33645  16.558  19.218  11.064
65428W        W33646   4.484  17.187   2.489
65429W        W33647  11.647   1.529   3.181
65430W        W33648  42.779   7.348  11.554
65431W        W33649   6.176  22.644  12.550
65432W        W33650  38.185   1.324   3.709
65433W        W33651   4.272  44.242  12.004
65434W        W33652   6.242  16.853   2.610
65435W        W33653  18.508   1.728  10.670
65436W        W33654  32.393   3.261   2.691
65437W        W33655  43.419  32.513  12.482
65438W        W33656   5.613   1.344   1.168
65439W        W33657   9.761  16.971  12.681
65440W        W33658  35.894  39.154  14.953
65441W        W33659  37.428  41.007   0.788
65442W        W33660  22.540  14.797   4.624
65443W        W33661  26.051  21.850   2.606
65444W        W33662  16.702   3.009  11.145
65445W        W33663   4.150   5.231  11.927
65446W        W33664  10.900  29.697  13.412
65447W        W33665  20.770  39.851   0.247
65448W        W33666  28.225  13.963  14.968
65449W        W33667  39.911  32.327   2.734
65450W        W33668  34.854  21.777  12.930
65451W        W33669  16.063   0.530  14.790
65452W        W33670  17.154  37.624  14.050
65453W        W33671   8.187  43.510   0.851
65454W        W33672  21.607  15.259  13.865
65455W        W33673  13.427  43.462   1.753
65456W        W33674  32.566   9.335  14.455
65457W        W33675  11.220   7.803   1.215
65458W        W33676   5.323   1.748   0.988
65459W        W33677  10.186   8.360  13.035
65460W        W33678  38.542  25.968   1.575
65461W        W33679  37.955  13.037  12.479
65462W        W33680   9.550  26.380  14.399
65463W        W33681   7.727  14.761   0.299
65464W        W33682  17.141   2.508  10.723
65465W        W33683   3.444  40.094  12.914
65466W        W33684  29.644   4.551   3.163
65467W        W33685  39.765   5.172   1.810
65468W        W33686  25.779  35.760   4.790
65469W        W33687  25.215  17.009  11.198
65470W        W33688  18.770  10.837   0.147
65471W        W33689  43.316   8.266  11.797
65472W        W33690  21.954  31.863   2.861
65473W        W33691  28.602  36.622  12.289
65474W        W33692  19.775  37.238  10.617
65475W        W33693   7.425  40.298   4.045
65476W        W33694  23.396  38.583   3.660
65477W        W33695  42.359  26.021  13.450
65478W        W33696   4.454   9.386  13.014
65479W        W33697  24.701  15.523   1.830
65480W        W33698  32.063  35.501  11.139
65481W        W33699  16.391  20.753  10.926
65482W        W33700  39.943   4.891  13.305
65483W        W33701  42.358  42.567  14.483
65484W        W33702  40.457   5.015   1.385
65485W        W33703   6.361   9.308   3.183
65486W        W33704  17.578   9.788   1.013
65487W        W33705   2.743  10.354  14.409
65488W        W33706  44.456   8.755   2.258
65489W        W33707  34.740  23.398   0.297
65490W        W33708  19.616  22.965  11.483
65491W        W33709   0.287  22.407  11.781
65492W        W33710  17.243  35.198   4.240
65493W        W33711   0.704  16.966   3.325
65494W        W33712   3.905  36.054  11.849
65495W        W33713  15.282  12.211  13.511
65496W        W33714  13.712  10.916   0.382
65497W        W33715   5.665  26.233  11.829
65498W        W33716   7.722  16.162   1.587
65499W        W33717  25.114   0.312  10.771
65500W        W33718  43.847  27.185   3.550
65501W        W33719  32.935  24.999  11.117
65502W        W33720  31.731  16.925  11.987
65503W        W33721  35.007  42.382   1.693
65504W        W33722  43.954  38.567   0.621
65505W        W33723  32.414  41.891  12.807
65506W        W33724  17.131  38.300   1.259
65507W        W33725  11.281  41.577  10.775
65508W        W33726   5.672  32.368  10.739
65509W        W33727  43.188  16.975  10.183
65510W        W33728   0.291  12.310   2.203
65511W        W33729  28.678  40.471   2.338
65512W        W33730  44.935  14.590   3.631
65513W        W33731  21.724  43.526   2.841
65514W        W33732  16.151  42.741   2.287
65515W        W33733  29.627  21.179   1.811
65516W        W33734  17.057  30.505  12.392
65517W        W33735  22.490  39.718   1.338
65518W        W33736  26.060  32.436  14.455
65519W        W33737   8.136  43.737   0.396
65520W        W33738  17.102  15.952   4.286
65521W        W33739   7.156  19.959   4.228
65522W        W33740  38.405   9.617  12.528
65523W        W33741  41.770  22.246  14.380
65524W        W33742  19.234   3.417  11.659
65525W        W33743  30.961  25.993  14.887
65526W        W33744   2.723  36.503  14.376
65527W        W33745  31.495  15.933  12.063
65528W        W33746  34.296   0.826  12.539
65529W        W33747  23.003  34.574  11.892
65530W        W33748   6.981  39.912  13.913
65531W        W33749  22.925   1.627  13.603
65532W        W33750  14.234  27.420  14.277
65533W        W33751  20.858  41.748   2.243
65534W        W33752  19.493   6.903  13.478
65535W        W33753  29.839  16.140  14.757
65536W        W33754  31.430   1.528   3.725
65537W        W33755  12.392   5.773  11.532
65538W        W33756  31.633  35.691  10.846
65539W        W33757  14.394  43.484  10.653
65540W        W33758  36.946  26.741  10.499
65541W        W33759  12.926  37.536  12.394
65542W        W33760   4.733  34.010  12.383
65543W        W33761   7.340  43.379   2.413
65544W        W33762  35.084  35.949   1.928
65545W        W33763  18.893  39.521   4.278
65546W        W33764  18.765  20.717   3.650
65547W        W33765  14.183  13.706   0.109
65548W        W33766  24.097  37.648   4.716
65549W        W33767   9.591  15.279  11.288
65550W        W33768  12.416  25.922   4.556
65551W        W33769  19.346  24.575  13.541
65552W        W33770  22.947  34.417   1.498
65553W        W33771  28.202  36.958  14.072
65554W        W33772  16.173   2.953   3.880
65555W        W33773  40.828  36.436   1.736
65556W        W33774  14.866  32.316  11.115
65557W        W33775  36.518   7.486  12.816
65558W        W33776  13.112  42.785   2.801
65559W        W33777  20.258  15.066  12.757
65560W        W33778  10.229  28.213   0.191
65561W        W33779   8.900  33.017   4.400
65562W        W33780  37.202  37.478  13.857
65563W        W33781  12.755   5.821  12.780
65564W        W33782   8.200   9.157  12.056
65565W        W33783  40.790  39.763   2.131
65566W        W33784  24.336  24.598  12.379
65567W        W33785  22.929  25.676   1.248
65568W        W33786   5.477  21.317  10.570
65569W        W33787  21.532  14.759  13.736
65570W        W33788  40.136  16.149  13.147
65571W        W33789  30.382  43.571   1.319
65572W        W33790  43.417   5.448  14.604
65573W        W33791   4.733   7.203   9.997
65574W        W33792  17.214  11.796  10.664
65575W        W33793  20.952   1.802   4.427
65576W        W33794  13.622  22.509   2.157
65577W        W33795  11.865  22.443   2.317
65578W        W33796  20.597   9.873  11.464
65579W        W33797  36.770   6.332   2.124
65580W        W33798   4.728  25.676  12.505
65581W        W33799   1.810  12.508  11.280
65582W        W33800  44.344  15.265  12.003
65583W        W33801   2.914  14.355  11.264
65584W        W33802   6.106   1.684  10.590
65585W        W33803  43.796   2.504  13.978
65586W        W33804  44.372  33.544  13.973
65587W        W33805  21.249  16.792   1.803
65588W        W33806   6.603   8.246   4.706
65589W        W33807  34.944  33.717  10.493
65590W        W33808   9.596  21.305   1.268
65591W        W33809  38.129  41.368  13.044
65592W        W33810  25.465  44.727  13.459
65593W        W33811  16.370  33.888   1.805
65594W        W33812  29.883  32.190   2.713
65595W        W33813  19.579   3.690   4.483
65596W        W33814  20.764  19.629   4.705
65597W        W33815  33.175  30.428   1.193
65598W        W33816   5.771  44.188   2.637
65599W        W33817  13.126  40.033  11.237
65600W        W33818  32.942   0.001   1.307
65601W        W33819  20.553  19.727   1.978
65602W        W33820   0.735  24.278  13.063
65603W        W33821  10.171   4.419  12.047
65604W        W33822  14.327  13.413  13.798
65605W        W33823  25.023  11.278   1.056
65606W        W33824  14.362  24.317  14.256
65607W        W33825  17.746  28.715   2.785
65608W        W33826   1.000  37.526   3.605
65609W        W33827  11.214  22.772   0.500
65610W        W33828   8.408  13.729  12.472
65611W        W33829  36.407  34.554   1.364
65612W        W33830  12.364  10.719   1.441
65613W        W33831  22.765  10.325  14.901
65614W        W33832   8.541  27.161   4.531
65615W        W33833  39.416  10.005  12.059
65616W        W33834  19.979  36.775  11.210
65617W        W33835  34.074  14.941  14.237
65618W        W33836   7.680  19.053   3.217
65619W        W33837  36.921   8.682   4.322
65620W        W33838  43.357   6.294  13.491
65621W        W33839  23.679  12.654  10.653
65622W        W33840  40.192  38.378   4.157
65623W        W33841  10.041  14.995   2.906
65624W        W33842  38.764  38.471   4.496
65625W        W33843  28.520  11.902   3.198
65626W        W33844  22.922  22.884  13.487
65627W        W33845  29.713   4.295   2.726
65628W        W33846   9.931  30.531  13.878
65629W        W33847  37.541  15.558   1.316
65630W        W33848  15.968  21.772  14.454
65631W        W33849  19.236  15.348  13.785
65632W        W33850   5.631  23.408   0.479
65633W        W33851  12.687  27.032   2.520
65634W        W33852  32.210  38.511  12.224
65635W        W33853  40.820   3.900   0.729
65636W        W33854  37.585  22.140   4.159
65637W        W33855  43.648  11.142  13.006
65638W        W33856  40.613  39.501  11.944
65639W        W33857  19.095   7.600  13.520
65640W        W33858  12.718  28.303  14.158
65641W        W33859  33.878  21.800   5.055
65642W        W33860  21.217  11.770  14.987
65643W        W33861  22.789   9.503   4.157
65644W        W33862   9.106  23.226   1.349
65645W        W33863  13.722  29.519  11.492
65646W        W33864   8.880   5.232  10.885
65647W        W33865  35.823  38.046  14.308
65648W        W33866  30.668  43.206   2.338
65649W        W33867  18.515  32.325  12.536
65650W        W33868   6.634  19.322   3.292
65651W        W33869  13.732  37.061   2.387
65652W        W33870  10.206   2.088  11.329
65653W        W33871  22.794  18.707   0.944
65654W        W33872  15.233  32.128   1.435
65655W        W33873  14.771   9.806  12.823
65656W        W33874  28.334  27.548   3.759
65657W        W33875  17.290  38.091   0.810
65658W        W33876   5.854  37.111   3.287
65659W        W33877  39.389  24.038  11.614
65660W        W33878  20.259  13.846   2.845
65661W        W33879  14.032  26.000   0.001
65662W        W33880  17.295  44.231   0.332
65663W        W33881  44.868  22.574   4.358
65664W        W33882  42.994  32.153  13.390
65665W        W33883  28.686  43.095  13.044
65666W        W33884   9.689   0.330  10.699
65667W        W33885  36.020  19.728   0.151
65668W        W33886  12.371  37.892  13.964
65669W        W33887  13.068  35.050   4.470
65670W        W33888  28.428  37.352  14.993
65671W        W33889  31.850  20.755  13.896
65672W        W33890   2.288  22.078  13.592
65673W        W33891   8.417  20.021   9.968
65674W        W33892  15.067  14.229   0.266
65675W        W33893   3.749  25.087   4.075
65676W        W33894  21.245  10.117   0.716
65677W        W33895  25.963  10.013  11.520
65678W        W33896  28.605   6.905  13.275
65679W        W33897  44.491   0.667  12.872
65680W        W33898   5.634   7.683  12.424
65681W        W33899   5.193   3.801  11.450
65682W        W33900  25.235   5.176  13.001
65683W        W33901  38.028  31.911   3.263
65684W        W33902  16.186  10.638   4.655
65685W        W33903  15.022  23.398   3.216
65686W        W33904  11.459  15.059   4.514
65687W        W33905  42.920  35.151   3.741
65688W        W33906   3.179  30.883   4.526
65689W        W33907   2.523   0.349  12.444
65690W        W33908  19.839  44.097   1.803
65691W        W33909  10.810  11.600  14.129
65692W        W33910  15.584  27.430   9.932
65693W        W33911  25.899  21.013  13.933
65694W        W33912  27.198  33.620   1.743
65695W        W33913  21.852   7.765   1.444
65696W        W33914  36.913   1.611   5.046
65697W        W33915  36.087   2.691   0.814
65698W        W33916  21.394   6.961  12.848
65699W        W33917   9.796  31.013   0.998
65700W        W33918  44.053   1.256  10.901
65701W        W33919  32.439  29.406   0.738
65702W        W33920  23.480  17.959  10.630
65703W        W33921  14.848  23.646   2.778
65704W        W33922  26.547  18.332  11.507
65705W        W33923  25.996  13.058   1.758
65706W        W33924  11.539  13.630  10.307
65707W        W33925  11.641  43.460   4.769
65708W        W33926  28.080  21.532  14.832
65709W        W33927  21.550  13.596  13.850
65710W        W33928  39.386  16.259   3.151
65711W        W33929  34.573   1.366  14.319
65712W        W33930  19.636   8.315   4.580
65713W        W33931  23.092   6.893  11.527
65714W        W33932  16.692   5.877   1.296
65715W        W33933  18.847  11.296  11.119
65716W        W33934   6.873  36.145  13.784
65717W        W33935   7.922  35.980  12.199
65718W        W33936   2.245  18.336   3.707
65719W        W33937  24.972   1.438  14.501
65720W        W33938  37.828  26.596   1.485
65721W        W33939  23.920  15.267   0.462
65722W        W33940   3.459  41.441  13.752
65723W        W33941   6.071   6.774  10.600
65724W        W33942  22.786  40.030  12.660
65725W        W33943  35.857  13.626  13.502
65726W        W33944  10.233   6.684   2.147
65727W        W33945  21.644   4.906  14.464
65728W        W33946  44.953   1.417   0.776
65729W        W33947  26.138   8.643  13.547
65730W        W33948  27.596  19.405  13.337
65731W        W33949   3.706  26.074   3.567
65732W        W33950  39.368  16.000  14.488
65733W        W33951  42.213  14.063  14.924
65734W        W33952  23.305   0.475  14.483
65735W        W33953  25.076  33.410  13.527
65736W        W33954  18.129  11.431  13.830
65737W        W33955  43.120  16.310   3.164
65738W        W33956   5.779  11.626   2.431
65739W        W33957  35.356  12.801  14.346
65740W        W33958  19.615   8.081   1.734
65741W        W33959  15.075  19.397  11.124
65742W        W33960  35.531  44.724  11.859
65743W        W33961  19.707  36.360  12.934
65744W        W33962  23.211  17.065   0.811
65745W        W33963  37.779  37.846   0.970
65746W        W33964   3.638  34.975   4.118
65747W        W33965  25.017   5.996  11.136
65748W        W33966   3.509  28.464  11.282
65749W        W33967  43.288  10.425   1.459
65750W        W33968  11.575  28.878   3.682
65751W        W33969  32.069  31.391   0.294
65752W        W33970  15.273   9.097  13.056
65753W        W33971  43.547  24.099  11.319
65754W        W33972  33.967  25.985   3.777
65755W        W33973  14.300  44.705  13.854
65756W        W33974  25.668  25.438  11.116
65757W        W33975   9.928   1.655   4.235
65758W        W33976  20.736  38.020   1.006
65759W        W33977  18.986  12.668   1.757
65760W        W33978   7.383  35.594   0.259
65761W        W33979   7.890  20.639  14.796
65762W        W33980  29.970   5.482   0.430
65763W        W33981  31.327   3.893  11.201
65764W        W33982  32.935  33.946   3.973
65765W        W33983  44.425  25.059   3.645
65766W        W33984  11.159  37.933   3.290
65767W        W33985  40.446  24.236   4.624
65768W        W33986  39.798  23.645   4.011
65769W        W33987  26.367  22.029  14.620
65770W        W33988  35.340  37.454   4.325
65771W        W33989  36.792   1.484  11.662
65772W        W33990  37.632  17.304  14.912
65773W        W33991  22.589  38.586  11.013
65774W        W33992  27.502  40.836   2.917
65775W        W33993  29.210  24.931   3.100
65776W        W33994   2.346  22.196   1.366
65777W        W33995  29.641  14.392  10.723
65778W        W33996  44.729  21.283  14.033
65779W        W33997  26.103  12.672   2.684
65780W        W33998  22.108  37.851  14.609
65781W        W33999  34.524  22.617   4.014
65782W        W34000  27.969   8.576  14.774
65783W        W34001  40.725  31.973   3.580
65784W        W34002  24.413  16.172   0.393
65785W        W34003  25.030  34.917   4.299
65786W        W34004   8.709   7.735   4.904
65787W        W34005  35.850  27.539  14.512
65788W        W34006  35.903  31.027  14.441
65789W        W34007  38.457  11.255  14.989
65790W        W34008   7.912  24.659  13.073
65791W        W34009  17.301   7.460   3.195
65792W        W34010  41.398  34.688   1.408
65793W        W34011  41.805  33.464  14.533
65794W        W34012  25.150   6.362  13.216
65795W        W34013  43.237  10.803   4.753
65796W        W34014  37.519  43.306  11.578
65797W        W34015  30.720  31.557  12.979
65798W        W34016  25.794  15.246   2.612
65799W        W34017  44.486  40.421  10.537
65800W        W34018  16.772  40.465  13.946
65801W        W34019  26.462  43.733  11.817
65802W        W34020  44.926  28.467   1.769
65803W        W34021   4.412  13.873   3.312
65804W        W34022  17.587  21.266  13.618
65805W        W34023  11.116   1.387   1.498
65806W        W34024  32.112  23.288   0.270
65807W        W34025  26.192  25.217  10.634
65808W        W34026   1.708  14.175   4.509
65809W        W34027   8.715   9.073   4.242
65810W        W34028  14.724  44.460   2.738
65811W        W34029  40.351   3.178  11.474
65812W        W34030  23.234  37.088   1.852
65813W        W34031  37.928  26.075  14.308
65814W        W34032   6.884  25.301   4.974
65815W        W34033  16.101  28.576  11.958
65816W        W34034  19.713  35.617   0.528
65817W        W34035  28.726   3.252  10.722
65818W        W34036  33.996  15.748   4.647
65819W        W34037  22.940  39.373  10.963
65820W        W34038  33.985   3.975   9.862
65821W        W34039  35.572  18.737  14.528
65822W        W34040   3.486  35.523  13.003
65823W        W34041  20.726   3.939  13.001
65824W        W34042   4.701  34.049   0.234
65825W        W34043   1.913  22.243   1.692
65826W        W34044  39.599  14.761   1.761
65827W        W34045  27.224   9.149   3.066
65828W        W34046   4.227  20.230  14.889
65829W        W34047  18.097  18.374   0.235
65830W        W34048  19.218  27.757  13.771
65831W        W34049  39.069  42.849   4.502
65832W        W34050   5.648  21.606  13.844
65833W        W34051  37.812  39.528  12.945
65834W        W34052   7.817   5.662  11.762
65835W        W34053   8.190  17.046   0.085
65836W        W34054  23.752  38.110  13.451
65837W        W34055  14.542   6.359  13.299
65838W        W34056  27.733  10.108  11.303
65839W        W34057  15.453  27.310   1.225
65840W        W34058  33.064  33.898   1.540
65841W        W34059  21.674   4.099  10.725
65842W        W34060   1.406  11.682   0.340
65843W        W34061  25.765  37.627  12.471
65844W        W34062  18.479   6.133  11.570
65845W        W34063  12.037  27.260   2.607
65846W        W34064  42.068  32.698  12.922
65847W        W34065  17.533  12.841   1.170
65848W        W34066  23.961  41.982   4.174
65849W        W34067   2.248   1.859   0.226
65850W        W34068  33.022  44.375   4.479
65851W        W34069  38.180  21.912  14.812
65852W        W34070   8.850  34.614   2.325
65853W        W34071   3.548   3.178  11.143
65854W        W34072  15.733  20.019  14.005
65855W        W34073  31.164  16.813  12.026
65856W        W34074  27.395  39.589   3.218
65857W        W34075   8.397  32.192   3.557
65858W        W34076  40.014  25.498  10.868
65859W        W34077  10.727   1.045   1.712
65860W        W34078  44.786  41.906  14.854
65861W        W34079  26.471  44.221  11.994
65862W        W34080  22.188   1.818  10.537
65863W        W34081  37.057  44.423   2.864
65864W        W34082  15.750  44.612   4.098
65865W        W34083  10.815   7.189  13.081
65866W        W34084   2.747  14.353  14.101
65867W        W34085  11.365  29.574   4.671
65868W        W34086  24.263   8.200  14.496
65869W        W34087  29.370  37.065   1.904
65870W        W34088   0.894  41.544   2.822
65871W        W34089  24.040  21.339  10.378
65872W        W34090  24.547  14.543  11.334
65873W        W34091  41.665  22.418  14.844
65874W        W34092  23.213  43.812  10.480
65875W        W34093   3.505  10.204   1.476
65876W        W34094  14.261  41.506  14.217
65877W        W34095   2.948  10.676  11.566
65878W        W34096   6.645  15.639  11.580
65879W        W34097  35.554   7.155  10.796
65880W        W34098   8.908   5.590   4.676
65881W        W34099  26.281   8.389   1.272
65882W        W34100  20.195  26.705   2.755
65883W        W34101  30.946  30.563  10.757
65884W        W34102  43.598  43.483  13.072
65885W        W34103  14.889  39.296   3.326
65886W        W34104  21.542  27.938  13.330
65887W        W34105  19.130  28.612  12.024
65888W        W34106   0.261  18.288  12.029
65889W        W34107   6.414  28.991   4.330
65890W        W34108  31.455  26.953   1.128
65891W        W34109  31.640  18.621  14.258
65892W        W34110  19.985  18.123   3.102
65893W        W34111  28.175  42.445  13.725
65894W        W34112  22.690   9.809  12.496
65895W        W34113   7.185   2.330  13.442
65896W        W34114  21.440  41.836  11.148
65897W        W34115  38.801  15.084   2.003
65898W        W34116  13.192   2.088  14.876
65899W        W34117  44.833  20.746  14.785
65900W        W34118   5.392  19.462   5.273
65901W        W34119  29.856  26.438   2.073
65902W        W34120  30.389   7.456  13.607
65903W        W34121  17.251  13.164   0.273
65904W        W34122  31.988  10.283  13.957
65905W        W34123   1.884  27.221   1.814
65906W        W34124  43.971  26.709  13.874
65907W        W34125  28.625   1.718  11.536
65908W        W34126   8.532   6.130   0.629
65909W        W34127  21.622  26.012  13.491
65910W        W34128  37.310   6.370  11.203
65911W        W34129  44.373  36.978   1.970
65912W        W34130  43.368  26.743   2.802
65913W        W34131  26.857  37.500   2.455
65914W        W34132  42.574  22.243  13.924
65915W        W34133  36.627  35.007   3.350
65916W        W34134  18.492   7.429  12.526
65917W        W34135  17.520  28.423  14.509
65918W        W34136  30.199  12.602   1.144
65919W        W34137  33.942  33.116   1.922
65920W        W34138   6.967  43.670   2.759
65921W        W34139  16.467  29.417  13.549
65922W        W34140   0.020  29.760  11.989
65923W        W34141  44.255  10.788   2.370
65924W        W34142  32.121  38.131   0.298
65925W        W34143  10.146  31.104  12.745
65926W        W34144  38.365  29.034  13.068
65927W        W34145  29.189  38.791   1.507
65928W        W34146  32.620  34.906  12.582
65929W        W34147  27.977  16.598   0.763
65930W        W34148  32.547  20.479  10.638
65931W        W34149  13.845  38.429   1.094
65932W        W34150  13.156  25.933  12.154
65933W        W34151   3.971  44.663  13.459
65934W        W34152  27.188   8.045   2.626
65935W        W34153  11.402  18.843   2.795
65936W        W34154  37.808   0.611   1.265
65937W        W34155  11.210   0.498  14.986
65938W        W34156  37.320  11.404   1.838
65939W        W34157   5.405  31.346  12.746
65940W        W34158   6.091  14.238   0.711
65941W        W34159   6.378  34.529  11.667
65942W        W34160  19.272  32.420  12.842
65943W        W34161  27.403   0.868   0.890
65944W        W34162  23.697  43.520  13.049
65945W        W34163   3.178   8.977   4.896
65946W        W34164  39.877  24.454  10.830
65947W        W34165  26.660   7.684   0.874
65948W        W34166  21.429   3.737   0.647
65949W        W34167  23.106   2.529   1.671
65950W        W34168  37.813   6.352  12.876
65951W        W34169   0.265  22.670   1.974
65952W        W34170  35.067  40.731   2.744
65953W        W34171   8.688  22.007  11.783
65954W        W34172  35.994  40.822  13.521
65955W        W34173  22.520   2.053  11.593
65956W        W34174  22.012  20.789  11.536
65957W        W34175  12.183  25.908   2.231
65958W        W34176  37.768  29.701   0.227
65959W        W34177  27.464  40.069  13.449
65960W        W34178  24.680  40.810  13.478
65961W        W34179  36.445  39.241   0.949
65962W        W34180   2.755  23.749  13.102
65963W        W34181  20.022  21.548  12.457
65964W        W34182  41.445   3.672  13.434
65965W        W34183  24.691   6.128  13.988
65966W        W34184  33.234   3.155   0.294
65967W        W34185  39.021  30.962   4.381
65968W        W34186   5.786   0.340  14.848
65969W        W34187  16.672  21.583   4.862
65970W        W34188  42.358   7.385   4.640
65971W        W34189  12.097  19.062   0.607
65972W        W34190  28.205  43.846   1.948
65973W        W34191  17.242  14.850  12.917
65974W        W34192  41.851  32.637  11.986
65975W        W34193  26.535   1.100   2.815
65976W        W34194  31.991   7.972  11.562
65977W        W34195  23.052  41.682   3.809
65978W        W34196  43.359  25.382  11.461
65979W        W34197  43.860  30.743  12.864
65980W        W34198  42.455  16.071   4.228
65981W        W34199  17.780  39.892   4.374
65982W        W34200  25.138  14.945  10.186
65983W        W34201  36.503   3.533   2.827
65984W        W34202   7.331  41.902   1.479
65985W        W34203  22.202  38.545   0.763
65986W        W34204  27.028  38.519   0.499
65987W        W34205  17.687  33.956   3.080
65988W        W34206  43.538   1.820  12.590
65989W        W34207  13.407   5.729   1.831
65990W        W34208  14.842  36.828   4.245
65991W        W34209  38.886  11.257  13.801
65992W        W34210   5.547   2.181   4.569
65993W        W34211  22.096  27.174   0.013
65994W        W34212  22.935   4.839   3.110
65995W        W34213  32.606  10.535   3.773
65996W        W34214  39.809  15.795  12.983
65997W        W34215  14.305  41.056  14.557
65998W        W34216  17.564  12.743   0.062
65999W        W34217  44.657  30.186   1.378
66000W        W34218   8.234  13.721   4.216
66001W        W34219  12.783  38.340   0.047
66002W        W34220  15.573  35.637   4.057
66003W        W34221  28.096   0.071  13.413
66004W        W34222  21.010   6.243   2.231
66005W        W34223   4.917  28.989  13.677
66006W        W34224  42.827  21.887   3.294
66007W        W34225   5.183  19.235   0.918
66008W        W34226  23.599  35.434  12.084
66009W        W34227  36.129  19.130   2.556
66010W        W34228  18.349   6.290  13.107
66011W        W34229  29.383  20.348  13.505
66012W        W34230  11.686  30.637  14.263
66013W        W34231   0.864  21.103  12.067
66014W        W34232  15.990  25.700  11.169
66015W        W34233  31.971  33.316   3.271
66016W        W34234  28.187  17.797   2.800
66017W        W34235  40.035  25.530  14.525
66018W        W34236  18.777   7.677  12.162
66019W        W34237   3.822  31.639   4.709
66020W        W34238  39.897  42.994  10.802
66021W        W34239  32.495  31.005  12.081
66022W        W34240  15.915  38.924   4.961
66023W        W34241   6.643  12.449   0.036
66024W        W34242  18.531  20.541   1.319
66025W        W34243  35.614  24.854   3.119
66026W        W34244  41.160  31.628   0.131
66027W        W34245  38.516  31.063  10.994
66028W        W34246  25.197  14.221   1.863
66029W        W34247  28.715  19.997   1.879
66030W        W34248  27.360  42.860  13.614
66031W        W34249  29.393  24.548   2.257
66032W        W34250  26.857  23.545  13.437
66033W        W34251  15.258   6.194  13.583
66034W        W34252  17.889   9.693   3.249
66035W        W34253   9.913  13.349  14.892
66036W        W34254  29.132  29.050   3.637
66037W        W34255  41.809  28.586   4.149
66038W        W34256  40.422  25.951  13.828
66039W        W34257  40.363  34.072   0.773
66040W        W34258  25.625  23.741   3.735
66041W        W34259  26.416  27.554   0.719
66042W        W34260   6.908   5.806   3.704
66043W        W34261   6.859  15.668   0.343
66044W        W34262   9.153  34.691   4.101
66045W        W34263   6.383   9.893   0.657
66046W        W34264  27.449  44.697  14.672
66047W        W34265  25.546  14.835  13.831
66048W        W34266   8.217  35.076  12.553
66049W        W34267  15.883  43.562  10.015
66050W        W34268   5.668  11.814   1.438
66051W        W34269  10.283   3.809   1.847
66052W        W34270  41.495  13.788   0.924
66053W        W34271  15.299  37.610   3.145
66054W        W34272  43.100  16.594  12.345
66055W        W34273  32.315   3.834   3.257
66056W        W34274  44.759   7.135  13.533
66057W        W34275  10.862  38.995  14.027
66058W        W34276  41.493  25.257  10.556
66059W        W34277   4.486  21.958  12.766
66060W        W34278   9.362  37.683   4.215
66061W        W34279   7.626   0.847   2.735
66062W        W34280  11.274   2.973   2.789
66063W        W34281  35.559   4.583   1.890
66064W        W34282  26.257  16.780   4.085
66065W        W34283  40.114  18.523  11.120
66066W        W34284   7.869  41.249   2.528
66067W        W34285   0.412  15.107   2.968
66068W        W34286  38.156   9.812   1.791
66069W        W34287  32.411  15.560  11.136
66070W        W34288  33.896  15.206   2.449
66071W        W34289  19.175  44.559   0.431
66072W        W34290  12.573  28.657  11.063
66073W        W34291   5.302   2.905  10.375
66074W        W34292   6.679  29.488  14.834
66075W        W34293  23.964   9.043   0.508
66076W        W34294  41.195  19.160  11.214
66077W        W34295  31.940  32.133  10.470
66078W        W34296  38.405  17.490   2.869
66079W        W34297   1.432  40.403   4.838
66080W        W34298   6.373  13.008  13.846
66081W        W34299  15.229  44.239   2.752
66082W        W34300  19.597  39.869   4.725
66083W        W34301  20.661  33.092   5.427
66084W        W34302  37.072   9.585  13.000
66085W        W34303  15.712  22.335   3.968
66086W        W34304   2.224  11.282   1.682
66087W        W34305  19.102   2.460   4.127
66088W        W34306  35.062  43.869   3.414
66089W        W34307  35.853  38.057   1.885
66090W        W34308  25.550  38.930  13.103
66091W        W34309  38.830  28.756  12.966
66092W        W34310  12.686   1.396  14.019
66093W        W34311  14.708  16.068   2.231
66094W        W34312  25.618  13.218  11.297
66095W        W34313  11.179  10.749  14.445
66096W        W34314  10.641  13.916  12.003
66097W        W34315   2.417   7.728   4.080
66098W        W34316  24.230  19.384   1.756
66099W        W34317   8.737  43.803  10.597
66100W        W34318  29.706  39.897  12.089
66101W        W34319  22.177  40.107  14.485
66102W        W34320  22.192   4.323   1.203
66103W        W34321  29.498  43.098   1.437
66104W        W34322  14.140  24.979   2.843
66105W        W34323  40.272   0.801   4.192
66106W        W34324   0.932  21.640   1.292
66107W        W34325  26.616  37.355   2.906
66108W        W34326  12.289  28.650  11.511
66109W        W34327   9.072  22.638  12.339
66110W        W34328  24.643  27.115  13.136
66111W        W34329  33.794   4.026  11.271
66112W        W34330  22.439  32.400  14.579
66113W        W34331  12.789   7.853  11.654
66114W        W34332  44.751  33.717   4.825
66115W        W34333  14.317  41.655   2.856
66116W        W34334  13.539  29.901   0.944
66117W        W34335  41.576  29.890  13.863
66118W        W34336   7.722  31.563   4.556
66119W        W34337  41.562  41.651   5.058
66120W        W34338  27.058  15.594   1.754
66121W        W34339  29.706  16.996  12.974
66122W        W34340   2.318  15.039   3.335
66123W        W34341  21.726  41.448   1.453
66124W        W34342  31.153  29.181   2.576
66125W        W34343   5.853  20.275   4.110
66126W        W34344  35.822  23.451  13.367
66127W        W34345  31.215  28.109   0.446
66128W        W34346  36.948   6.928   0.837
66129W        W34347  38.929  19.521  12.345
66130W        W34348  43.418  14.693  14.474
66131W        W34349  36.043  17.659  13.325
66132W        W34350   3.876  17.642   4.539
66133W        W34351  41.878  22.089  13.487
66134W        W34352  10.866  41.256  13.370
66135W        W34353  10.831  21.624   1.645
66136W        W34354  17.598  36.983   4.080
66137W        W34355  35.902  38.871   5.008
66138W        W34356  19.085  28.047   0.910
66139W        W34357  14.141  44.419   2.819
66140W        W34358  39.889  39.334   2.898
66141W        W34359   9.260  41.313   3.910
66142W        W34360  37.129  35.918   0.742
66143W        W34361   1.563  16.712  14.321
66144W        W34362  13.367  36.096  11.529
66145W        W34363  18.816  16.597  12.037
66146W        W34364  34.870  22.962  13.380
66147W        W34365  24.121  29.010   2.515
66148W        W34366  30.931  34.394   4.147
66149W        W34367  17.769  16.637   5.173
66150W        W34368  37.669  13.704  11.973
66151W        W34369   1.821  16.327   4.490
66152W        W34370   4.909  15.057  12.635
66153W        W34371  17.543  25.759   1.536
66154W        W34372  14.535  23.055  14.802
66155W        W34373  42.493  31.843  12.986
66156W        W34374   0.539  44.544  11.916
66157W        W34375  32.176   6.871  14.727
66158W        W34376  33.468   4.059   0.249
66159W        W34377  43.000  41.375  11.884
66160W        W34378  35.446   3.821   2.478
66161W        W34379  32.767  24.482  13.920
66162W        W34380  35.965   6.673  13.118
66163W        W34381   8.904  28.933   4.115
66164W        W34382  15.270  41.774  14.998
66165W        W34383  19.136  15.374   2.255
66166W        W34384  40.410  13.288   4.278
66167W        W34385   4.202   5.358   1.668
66168W        W34386  13.137  15.690   3.784
66169W        W34387  34.363   4.004  12.551
66170W        W34388  12.317  24.088   0.832
66171W        W34389  10.856  39.624   2.090
66172W        W34390  26.014  16.208   1.902
66173W        W34391  14.119  22.156  10.940
66174W        W34392  42.236  40.636   1.619
66175W        W34393  35.104  40.274   3.207
66176W        W34394  15.032  21.986  11.277
66177W        W34395   3.779  39.943   3.265
66178W        W34396   8.398  31.162   2.857
66179W        W34397  35.800  33.868   0.778
66180W        W34398   1.862  15.930   0.475
66181W        W34399  16.271  25.980  13.000
66182W        W34400  20.445  21.078  14.705
66183W        W34401   3.424  20.688  13.479
66184W        W34402  40.475  33.203  13.362
66185W        W34403  42.407  21.659  10.453
66186W        W34404  21.824  20.321  12.123
66187W        W34405  42.717  25.179  12.998
66188W        W34406  22.336  31.121  13.337
66189W        W34407  13.242  32.204  12.473
66190W        W34408  27.099  21.740   0.178
66191W        W34409  27.601  14.456   0.998
66192W        W34410  14.857  15.102   0.945
66193W        W34411  42.963   2.709  10.846
66194W        W34412  28.471  40.702  14.800
66195W        W34413  20.913  23.570  14.818
66196W        W34414  27.035  32.904  10.598
66197W        W34415   8.795  18.263   4.147
66198W        W34416  20.615  13.016   2.010
66199W        W34417  35.891  17.533  14.956
66200W        W34418  26.503   7.141   2.363
66201W        W34419  25.537  18.279   4.904
66202W        W34420  18.227  30.517   0.407
66203W        W34421  23.885   5.786   0.900
66204W        W34422  12.572  12.256  13.913
66205W        W34423   1.315  14.608   1.328
66206W        W34424  42.913  41.776   0.014
66207W        W34425  15.795  36.962  14.208
66208W        W34426  43.796  19.509  12.574
66209W        W34427  21.310   7.261  13.272
66210W        W34428   2.875  37.432   4.289
66211W        W34429  28.661   2.342  10.535
66212W        W34430   3.685  41.600   4.186
66213W        W34431  40.012  36.906   1.890
66214W        W34432   8.576   0.468  12.589
66215W        W34433   4.105  29.730  11.132
66216W        W34434   7.376  11.986  11.574
66217W        W34435  10.117   7.667   3.199
66218W        W34436   5.023  27.412  10.558
66219W        W34437  44.864  13.494  13.890
66220W        W34438  30.985  42.571   0.708
66221W        W34439  13.924  13.886  12.855
66222W        W34440   8.604  15.706   5.039
66223W        W34441  37.613  23.977   3.286
66224W        W34442  35.099  15.687  11.210
66225W        W34443   4.162  11.384   0.361
66226W        W34444  26.377  15.587   3.317
66227W        W34445  15.898  19.281   3.085
66228W        W34446  26.203  39.480  14.495
66229W        W34447   6.899   1.993  11.444
66230W        W34448  16.769  18.950  13.022
66231W        W34449  12.901  33.504   1.040
66232W        W34450   1.213  42.454  10.503
66233W        W34451  17.256  23.209   4.344
66234W        W34452   9.124  31.505  11.495
66235W        W34453  41.464  12.353   1.748
66236W        W34454  15.856   2.268  11.306
66237W        W34455  33.517   8.204  13.812
66238W        W34456  10.120  34.321   3.065
66239W        W34457  24.213   2.391   0.387
66240W        W34458   1.794  35.077  13.591
66241W        W34459  28.313  36.441   3.667
66242W        W34460  37.524   2.768  13.965
66243W        W34461  21.690   0.069   3.741
66244W        W34462  31.571  15.083  11.068
66245W        W34463  19.474  26.126  14.812
66246W        W34464   9.286  44.233   1.380
66247W        W34465  40.438   1.885  13.051
66248W        W34466  43.251  24.517   2.368
66249W        W34467  43.929  37.153  12.211
66250W        W34468  42.577  14.250   1.694
66251W        W34469  10.299  13.314  12.549
66252W        W34470   8.834  40.035  13.517
66253W        W34471  11.921  27.578  12.164
66254W        W34472  36.438  28.232   4.321
66255W        W34473  13.139  19.367   4.623
66256W        W34474  25.960  40.739  10.679
66257W        W34475  22.000   7.035  12.480
66258W        W34476  34.062   4.857   9.788
66259W        W34477   9.918   0.789   1.574
66260W        W34478  26.600  39.269   1.624
66261W        W34479  27.148  38.164  14.891
66262W        W34480  14.243  32.094  13.530
66263W        W34481  19.800  11.359  11.237
66264W        W34482  42.115  21.318  14.848
66265W        W34483   3.482  40.240   1.441
66266W        W34484   6.405  28.636   0.767
66267W        W34485  34.521  15.077   1.577
66268W        W34486  38.497   5.497  13.370
66269W        W34487  35.012  14.101   0.950
66270W        W34488  20.275  22.563   3.310
66271W        W34489  31.119  15.861   9.844
66272W        W34490  20.171  31.709  13.820
66273W        W34491   1.670  13.011  11.174
66274W        W34492  44.237  16.815  13.825
66275W        W34493  31.416  20.607  11.944
66276W        W34494  18.250   0.897   4.379
66277W        W34495  26.191  33.826   0.035
66278W        W34496  33.460  41.045  14.281
66279W        W34497  17.549   2.034  11.086
66280W        W34498  18.091  31.162   3.779
66281W        W34499  27.466  33.903   1.328
66282W        W34500  25.179  25.254  13.018
66283W        W34501  40.327  35.692  11.098
66284W        W34502  40.070   4.203   1.491
66285W        W34503   1.270  13.214  13.501
66286W        W34504  19.593   3.746   3.703
66287W        W34505  31.974  39.467  10.790
66288W        W34506  37.607  10.222  14.245
66289W        W34507  35.468  33.965   1.921
66290W        W34508  14.084  18.123  14.463
66291W        W34509   1.366  11.242  12.199
66292W        W34510  32.834  33.517  12.604
66293W        W34511   3.983  31.922   1.858
66294W        W34512  24.530  11.812   3.421
66295W        W34513  28.900   5.255  14.815
66296W        W34514  20.784  33.546  13.968
66297W        W34515  15.723   1.809   3.598
66298W        W34516  24.451  33.425  10.111
66299W        W34517  11.590  27.892  11.570
66300W        W34518  13.865  13.286  13.570
66301W        W34519  34.080  11.414   4.564
66302W        W34520  10.899  12.218   0.365
66303W        W34521  26.498  28.892   0.081
66304W        W34522  14.065   6.425  13.413
66305W        W34523  35.711  16.763  13.948
66306W        W34524  14.667  29.445  11.687
66307W        W34525  33.030   2.101   2.257
66308W        W34526  35.851   4.601  11.589
66309W        W34527   0.870  14.137  12.970
66310W        W34528  32.514   3.262   3.892
66311W        W34529  30.847  28.419   0.218
66312W        W34530   0.398  21.093  12.331
66313W        W34531  32.993  13.681  13.543
66314W        W34532  26.014  35.167   3.292
66315W        W34533  10.169  43.945   3.799
66316W        W34534  13.778  36.529   4.714
66317W        W34535  22.638  26.465  10.695
66318W        W34536  35.410   5.806   2.815
66319W        W34537  14.869  18.510  12.095
66320W        W34538  11.318  36.242   0.560
66321W        W34539   0.898  11.641  13.435
66322W        W34540  27.225  36.938  10.302
66323W        W34541  15.692   6.629   4.545
66324W        W34542  19.984  11.156   1.081
66325W        W34543  21.827  13.592   1.004
66326W        W34544  39.402  34.883  11.233
66327W        W34545   7.779  40.377  13.059
66328W        W34546   8.489  13.292   4.114
66329W        W34547  44.762  11.193  10.578
66330W        W34548  36.507  41.821  14.395
66331W        W34549  25.860  40.668  11.500
66332W        W34550  42.633  28.284  13.081
66333W        W34551  43.821  11.238  13.495
66334W        W34552  25.926   3.486  12.606
66335W        W34553  17.096   7.312   1.232
66336W        W34554  43.343   3.257  12.348
66337W        W34555  30.214  15.098   0.860
66338W        W34556  20.603  27.180  11.604
66339W        W34557  10.638  35.574   1.810
66340W        W34558  40.343  44.708   0.804
66341W        W34559  29.864  18.879  11.243
66342W        W34560   5.771  43.803  14.376
66343W        W34561  37.135  33.213  11.797
66344W        W34562  20.948   7.675   4.612
66345W        W34563  22.325  33.576  11.624
66346W        W34564  19.100  44.906   4.270
66347W        W34565  22.971  42.241  14.016
66348W        W34566   3.319   2.701   2.907
66349W        W34567  26.509  34.394  12.475
66350W        W34568  30.397   9.853  13.807
66351W        W34569  36.976  36.262  11.737
66352W        W34570  29.756   8.187  12.532
66353W        W34571  38.415  38.833  13.770
66354W        W34572  29.597   9.703   0.562
66355W        W34573  33.983  38.437   2.256
66356W        W34574  37.829  31.972  11.144
66357W        W34575  14.897  17.552   2.465
66358W        W34576  23.559  28.938   2.585
66359W        W34577  44.904   3.259  14.521
66360W        W34578  43.290  34.553  12.856
66361W        W34579   3.989  28.555  12.452
66362W        W34580   8.886  34.028   4.720
66363W        W34581  17.783   7.033   0.286
66364W        W34582   0.853  26.711   3.046
66365W        W34583  33.082  33.568  10.705
66366W        W34584  44.055  35.697  12.920
66367W        W34585  41.229  21.542  13.937
66368W        W34586  28.087  38.931   3.207
66369W        W34587   5.644  43.749   1.718
66370W        W34588  16.927  41.202  11.302
66371W        W34589  12.055  20.952   1.530
66372W        W34590  28.479  43.590  13.580
66373W        W34591  26.484   7.007  14.752
66374W        W34592  33.382  17.714  10.872
66375W        W34593   3.391  19.544   1.978
66376W        W34594   6.931  37.059  13.485
66377W        W34595  15.244  41.335  12.693
66378W        W34596  35.861  22.181   1.885
66379W        W34597  30.021  28.905  12.916
66380W        W34598  26.676  20.481  13.061
66381W        W34599  18.525   5.783   3.709
66382W        W34600  34.445  43.349   4.092
66383W        W34601  35.901   4.830  10.188
66384W        W34602  24.907  32.289   2.409
66385W        W34603  24.127  37.729  12.578
66386W        W34604  12.272  23.171  10.647
66387W        W34605  25.093  29.589  11.874
66388W        W34606  21.422  38.962  10.622
66389W        W34607   2.268  26.188   0.872
66390W        W34608  13.217   4.990  13.121
66391W        W34609   6.383  27.935   4.136
66392W        W34610  10.387  43.490   3.815
66393W        W34611  10.115  39.112  14.343
66394W        W34612  27.875  18.971  13.414
66395W        W34613  39.310   3.243   2.708
66396W        W34614  41.537  23.272  10.725
66397W        W34615   3.718  31.059  13.971
66398W        W34616  23.082  30.689  11.733
66399W        W34617  11.726  13.144   0.041
66400W        W34618  12.658  21.695  12.646
66401W        W34619  28.112  17.752  11.949
66402W        W34620   9.167  21.531  14.746
66403W        W34621  30.349  19.157  12.979
66404W        W34622  44.697  21.704  13.573
66405W        W34623  30.081  22.124  11.427
66406W        W34624  44.556  17.029  14.522
66407W        W34625  16.216   0.781  13.437
66408W        W34626   6.919  43.158   4.262
66409W        W34627  44.454  29.485  14.011
66410W        W34628  21.143  38.341   4.561
66411W        W34629   9.368   8.279  12.518
66412W        W34630  14.237   7.995   0.625
66413W        W34631  16.707   6.202  14.553
66414W        W34632  34.983  21.092  13.443
66415W        W34633  41.442  21.255  12.945
66416W        W34634   8.698  24.947  13.921
66417W        W34635  33.761   7.352   3.098
66418W        W34636  23.971   5.957   0.067
66419W        W34637  13.872   5.300  14.764
66420W        W34638  35.748  42.142   3.714
66421W        W34639  35.779  15.501  13.223
66422W        W34640  33.536  17.167  12.631
66423W        W34641  37.028  35.644  12.567
66424W        W34642  42.060  28.081   3.346
66425W        W34643  18.445  32.756   0.901
66426W        W34644   2.046   5.509   0.686
66427W        W34645   5.254  24.382   4.172
66428W        W34646  20.065   2.951  13.311
66429W        W34647  43.323   4.863  10.730
66430W        W34648  17.781  12.291   4.486
66431W        W34649   9.802   4.241  10.910
66432W        W34650  17.819   6.250   2.678
66433W        W34651  21.497  12.163   0.892
66434W        W34652  17.607  37.868  13.892
66435W        W34653   5.693  21.769  13.039
66436W        W34654   6.696  11.154  12.496
66437W        W34655   0.831  41.458  13.905
66438W        W34656  19.626   1.271  12.594
66439W        W34657  33.461  38.323  12.051
66440W        W34658   2.217  34.801   4.090
66441W        W34659  26.362  36.417  11.505
66442W        W34660  41.856   3.527   1.337
66443W        W34661   0.185  35.164  12.836
66444W        W34662  27.883   9.276  10.595
66445W        W34663   1.933   7.688   1.206
66446W        W34664  36.794  15.678  13.243
66447W        W34665  26.372  25.494   1.307
66448W        W34666   6.373  22.122   2.017
66449W        W34667   7.820   4.483  11.005
66450W        W34668   0.930   1.302   1.766
66451W        W34669  43.505  19.660  10.135
66452W        W34670  29.742  21.288  13.449
66453W        W34671  13.723  21.645   2.693
66454W        W34672  35.932  14.927  11.593
66455W        W34673  12.740   8.635  12.452
66456W        W34674  23.129  20.601   3.854
66457W        W34675  33.571  17.834   2.330
66458W        W34676  26.208  34.307  10.961
66459W        W34677   2.761  42.911   3.141
66460W        W34678  42.438  18.076   0.919
66461W        W34679  11.594   3.793   4.921
66462W        W34680   3.910  13.321   0.995
66463W        W34681  34.495  15.743  10.689
66464W        W34682  29.911  20.738   0.758
66465W        W34683   7.879  18.168   1.433
66466W        W34684   0.915  43.635   1.109
66467W        W34685  11.828   0.026   1.373
66468W        W34686  37.989  34.052   0.113
66469W        W34687  29.792  42.770   3.876
66470W        W34688  12.605  24.818   2.886
66471W        W34689   2.083  10.324   1.959
66472W        W34690   7.695  11.402  11.156
66473W        W34691  16.921   4.268   0.275
66474W        W34692  17.148  26.720   3.300
66475W        W34693  41.846  43.724  10.941
66476W        W34694  10.604  17.684  14.096
66477W        W34695  18.633  31.856   2.690
66478W        W34696  31.957  21.906   1.924
66479W        W34697  10.841  43.430   2.229
66480W        W34698  12.793  12.689  10.660
66481W        W34699  11.362  26.675  13.561
66482W        W34700  35.931  29.396  12.556
66483W        W34701  39.605  37.081   2.871
66484W        W34702   8.758  30.431   3.281
66485W        W34703   4.698  12.855   2.804
66486W        W34704   6.202  25.570   4.142
66487W        W34705  29.534  26.478  11.498
66488W        W34706  44.271  10.217  10.786
66489W        W34707  23.516  37.048   3.948
66490W        W34708  11.899  28.361   4.924
66491W        W34709   4.421  35.520  13.336
66492W        W34710   5.384  27.038  10.526
66493W        W34711  10.886   7.674  12.940
66494W        W34712   8.948   7.166   3.767
66495W        W34713   7.314  40.624  11.881
66496W        W34714   4.297  36.905   0.182
66497W        W34715  42.370  29.595  13.495
66498W        W34716  30.145  22.541  14.514
66499W        W34717   1.113  30.659  12.605
66500W        W34718   5.675  25.940   0.906
66501W        W34719  39.543  29.530   4.870
66502W        W34720  10.268  12.826   4.942
66503W        W34721   6.776  23.271  11.252
66504W        W34722   9.908  23.703  13.145
66505W        W34723  16.833  39.492  13.942
66506W        W34724  11.876  40.321   2.098
66507W        W34725  28.148   1.407  10.682
66508W        W34726   4.420  30.933  12.180
66509W        W34727  30.166  29.412   0.413
66510W        W34728  20.348  43.889   2.715
66511W        W34729  10.082  43.316   2.937
66512W        W34730   0.624   5.486  10.762
66513W        W34731   5.683  44.225  14.674
66514W        W34732   8.134  10.600  11.992
66515W        W34733  34.409  25.916  14.946
66516W        W34734  29.606   7.840  14.863
66517W        W34735  27.124  19.990  11.029
66518W        W34736  14.201  31.362  11.975
66519W        W34737  23.384   6.340  13.317
66520W        W34738  35.019  41.009  12.802
66521W        W34739   2.016  24.232   0.872
66522W        W34740  10.648  20.287  11.148
66523W        W34741  28.152   8.799  11.463
66524W        W34742  23.059  40.327   1.828
66525W        W34743   6.937  17.606  11.589
66526W        W34744   1.658  30.129   2.835
66527W        W34745  38.562  29.446   4.637
66528W        W34746  17.872  44.296   4.524
66529W        W34747  29.534   8.218  10.719
66530W        W34748  39.756  34.459   3.630
66531W        W34749  36.146  14.471  11.920
66532W        W34750  16.231   4.954  14.446
66533W        W34751  15.437  15.120  13.649
66534W        W34752  31.607  19.978  10.361
66535W        W34753  40.486  20.516   3.766
66536W        W34754   8.502   4.164  12.056
66537W        W34755   9.740   3.736   3.373
66538W        W34756   6.012  24.050  11.859
66539W        W34757  10.563   2.425   1.882
66540W        W34758  44.672  31.366  13.882
66541W        W34759  16.015   3.690   3.171
66542W        W34760  11.715  44.902  13.436
66543W        W34761  32.082   0.923  12.300
66544W        W34762  23.880  38.816   5.239
66545W        W34763  42.271  29.535  13.004
66546W        W34764   9.636  44.423  10.692
66547W        W34765  13.672  22.159  13.635
66548W        W34766  24.734   6.089   3.000
66549W        W34767  27.997  25.523   1.839
66550W        W34768  35.788  17.333   2.801
66551W        W34769  30.582   8.665   1.259
66552W        W34770   9.901  22.198   3.235
66553W        W34771   6.481   6.705  12.345
66554W        W34772   1.364  42.410  10.982
66555W        W34773  29.691  13.335   0.910
66556W        W34774  19.500  42.687   0.281
66557W        W34775  16.837   8.851  12.525
66558W        W34776  42.467  37.929  12.162
66559W        W34777  28.210  13.129  14.137
66560W        W34778   3.413  22.289   0.215
66561W        W34779  44.792   6.698   1.488
66562W        W34780   3.758  44.035   0.851
66563W        W34781  33.584  10.608  13.878
66564W        W34782  39.314  18.168  11.642
66565W        W34783   6.949  14.402  14.787
66566W        W34784  35.482  38.764   2.436
66567W        W34785  30.122  38.071  14.313
66568W        W34786   9.663  40.359  12.316
66569W        W34787  34.654  19.236   3.204
66570W        W34788   7.748   6.136  11.945
66571W        W34789  34.380  32.151  11.471
66572W        W34790   8.657  15.232   3.687
66573W        W34791  32.554   9.935  12.879
66574W        W34792  29.544   8.685   4.815
66575W        W34793  15.375  26.536   0.291
66576W        W34794  17.924  16.597  12.169
66577W        W34795  30.407   7.679  11.457
66578W        W34796   5.374  18.051   4.098
66579W        W34797  18.597  13.088  11.306
66580W        W34798  25.957  39.481   3.871
66581W        W34799  10.719  19.827   2.311
66582W        W34800   7.320   2.015  12.080
66583W        W34801   5.395  16.538   0.788
66584W        W34802  32.024  25.939   3.660
66585W        W34803  26.927   9.209  12.437
66586W        W34804  29.947  11.738  12.871
66587W        W34805   1.544   9.824  11.676
66588W        W34806  34.989  32.054  12.513
66589W        W34807  19.258   3.780   1.898
66590W        W34808  20.272  34.978   2.895
66591W        W34809  15.024  10.715   0.182
66592W        W34810   3.003  17.756  13.776
66593W        W34811  25.069   2.951   4.534
66594W        W34812  19.231  12.059  14.064
66595W        W34813  11.815   2.470   4.628
66596W        W34814  40.106  25.696   4.471
66597W        W34815   0.871   6.257  14.028
66598W        W34816  41.554   1.527  10.707
66599W        W34817  39.818  15.301   0.912
66600W        W34818  13.241  21.644  14.287
66601W        W34819   3.801  18.017  14.297
66602W        W34820  24.804  22.241  10.830
66603W        W34821  20.012  11.300  13.129
66604W        W34822   5.529  21.542  14.747
66605W        W34823  16.351  27.252   1.401
66606W        W34824   0.928   5.736  14.011
66607W        W34825  32.963  32.498   2.734
66608W        W34826  27.513  42.420  10.669
66609W        W34827  42.400  27.165  11.707
66610W        W34828  22.655   7.351   2.056
66611W        W34829  34.452  26.420  14.801
66612W        W34830  39.752   6.265  10.696
66613W        W34831  19.092   2.693  14.986
66614W        W34832   7.622  38.804  14.732
66615W        W34833  34.244   8.390  13.014
66616W        W34834   5.499  10.256   3.258
66617W        W34835  36.128  30.577   4.902
66618W        W34836  40.889  22.788   1.388
66619W        W34837  23.152   7.843   3.728
66620W        W34838   8.741   0.887   0.930
66621W        W34839  32.464  22.125  14.491
66622W        W34840  33.555  36.673  11.080
66623W        W34841  34.367  23.773   0.775
66624W        W34842  18.397  39.409  12.811
66625W        W34843  38.598   0.850  10.762
66626W        W34844  11.805  23.132  12.593
66627W        W34845  31.635  24.468   4.684
66628W        W34846  23.308  10.243  10.740
66629W        W34847  28.441  23.530  12.918
66630W        W34848  39.496  43.920   2.811
66631W        W34849   5.790  34.439   4.074
66632W        W34850  27.485  12.371  12.253
66633W        W34851  25.640  23.461   3.273
66634W        W34852  28.884   5.585  11.728
66635W        W34853  12.383   0.959   4.469
66636W        W34854   4.367  28.215   1.405
66637W        W34855   3.451  17.228   0.797
66638W        W34856  28.752  18.161   3.168
66639W        W34857  21.591   5.759  10.708
66640W        W34858  11.380  22.973   4.574
66641W        W34859  37.988  10.635  14.225
66642W        W34860  34.959   3.667   2.704
66643W        W34861  30.911  33.307   3.336
66644W        W34862  27.204  41.569  14.301
66645W        W34863   9.901  34.011  12.409
66646W        W34864  21.259  17.457  11.064
66647W        W34865  18.647   8.094   0.454
66648W        W34866  23.244  34.439   5.515
66649W        W34867  16.126  23.011  13.509
66650W        W34868  41.908  10.166   1.786
66651W        W34869  17.761  27.194   4.558
66652W        W34870  39.249  41.742  10.103
66653W        W34871  25.643  39.304  14.510
66654W        W34872  35.778  38.378   4.997
66655W        W34873   9.631   8.945   3.211
66656W        W34874   0.099  43.463   3.793
66657W        W34875  30.033  15.942  12.489
66658W        W34876   8.842  11.567   3.779
66659W        W34877  44.499  13.143   3.770
66660W        W34878  40.488  27.264   3.875
66661W        W34879   1.564  16.200  11.587
66662W        W34880  31.605  34.958  12.623
66663W        W34881  42.997   5.484  13.447
66664W        W34882  15.529  34.805  14.398
66665W        W34883  28.608  10.682  12.182
66666W        W34884  34.762  22.689  12.939
66667W        W34885   9.283  19.085  11.463
66668W        W34886  30.636   2.420   0.912
66669W        W34887  35.127  31.032   0.913
66670W        W34888  30.229  43.040  11.960
66671W        W34889   5.711   5.966   3.225
66672W        W34890  27.621  19.882  14.396
66673W        W34891   0.299  21.573   4.145
66674W        W34892   3.004  32.019  12.117
66675W        W34893  21.635  17.559  14.387
66676W        W34894   7.127  12.208  12.046
66677W        W34895  22.539  31.387  12.156
66678W        W34896   0.498  33.095  11.502
66679W        W34897   9.301  26.420   2.230
66680W        W34898  17.513  18.720  12.467
66681W        W34899   5.155   7.301   4.514
66682W        W34900  36.884  20.720   2.894
66683W        W34901  22.582   9.657   3.713
66684W        W34902  25.655   1.404  12.327
66685W        W34903  35.249  27.027   5.069
66686W        W34904  17.390  17.355   2.730
66687W        W34905  31.525  37.468   1.910
66688W        W34906  31.659  20.483  10.474
66689W        W34907   7.673  38.786   2.837
66690W        W34908   9.094  24.132  11.994
66691W        W34909  42.560  41.697  11.929
66692W        W34910   9.177   1.466   4.042
66693W        W34911   9.613  16.668   2.112
66694W        W34912  33.089  12.289   3.715
66695W        W34913  15.876  42.936  14.284
66696W        W34914  42.061  38.250   1.264
66697W        W34915   0.426  14.997  12.236
66698W        W34916   5.647  35.374  12.093
66699W        W34917  20.803  30.626  11.590
66700W        W34918   4.904  17.882   0.746
66701W        W34919   1.977  31.593  11.513
66702W        W34920  25.966  43.833   4.586
66703W        W34921  37.065  25.305   4.577
66704W        W34922  24.911  37.052  14.807
66705W        W34923   1.026  20.500   4.069
66706W        W34924  37.453  29.664  11.324
66707W        W34925  30.504  27.706   1.746
66708W        W34926  21.086  33.360  12.090
66709W        W34927  22.254  28.020  14.883
66710W        W34928  42.965  28.809  11.028
66711W        W34929  21.588  21.697  12.333
66712W        W34930  35.151   5.767  12.665
66713W        W34931   6.960   4.852  13.067
66714W        W34932  12.581  13.079   4.307
66715W        W34933  36.131  34.859  13.087
66716W        W34934   5.629  32.566  12.794
66717W        W34935  14.360  33.806  12.047
66718W        W34936   8.804  14.277   0.658
66719W        W34937   6.955  28.225  14.054
66720W        W34938  25.260  23.763   0.925
66721W        W34939  12.124   0.489   2.750
66722W        W34940  26.457  23.642  11.074
66723W        W34941  29.859  17.746   1.196
66724W        W34942  25.282  29.023  13.921
66725W        W34943  44.813  33.402   3.711
66726W        W34944  28.612  14.091  12.179
66727W        W34945  13.653  40.431   2.385
66728W        W34946  19.535  36.638  12.511
66729W        W34947  39.269  36.418   1.888
66730W        W34948   6.336  15.986   4.922
66731W        W34949   9.446  43.380   2.215
66732W        W34950  26.507  16.193   4.737
66733W        W34951   8.894   5.773   0.474
66734W        W34952   3.319   7.715  14.510
66735W        W34953  30.941  25.989  11.779
66736W        W34954  15.040  33.147   0.468
66737W        W34955  12.345   0.465  14.456
66738W        W34956  21.588  31.002   0.766
66739W        W34957  43.924  16.353  11.551
66740W        W34958   2.401  26.258   0.014
66741W        W34959  31.122  29.830   1.684
66742W        W34960   8.944  13.820   1.772
66743W        W34961  13.043   7.929  11.157
66744W        W34962  22.024  18.199  14.928
66745W        W34963   6.272  17.820  13.337
66746W        W34964  24.795  24.073   4.057
66747W        W34965  26.680   8.170  12.567
66748W        W34966  37.580  15.149  12.902
66749W        W34967   0.998  24.254  12.149
66750W        W34968  20.674   6.323   0.370
66751W        W34969  31.641  37.266  14.364
66752W        W34970  13.809  27.155  14.430
66753W        W34971  40.785  15.406   3.722
66754W        W34972  13.900  22.981  11.497
66755W        W34973  22.525   6.323   2.253
66756W        W34974  25.584   8.970  14.795
66757W        W34975  27.433  18.129   2.424
66758W        W34976  37.702   2.535   1.232
66759W        W34977   6.712   5.802   3.222
66760W        W34978  41.600  41.472  11.880
66761W        W34979  40.420  17.505   2.237
66762W        W34980  14.188  11.616  14.321
66763W        W34981  21.860  35.168  12.996
66764W        W34982   9.853   6.484   4.367
66765W        W34983  22.490  26.426   2.884
66766W        W34984  20.221  29.250  12.008
66767W        W34985  23.930  15.877  12.025
66768W        W34986  42.032  38.945  14.876
66769W        W34987  42.857  25.409  11.547
66770W        W34988  16.797  38.008  14.339
66771W        W34989  32.730   1.228   1.301
66772W        W34990  35.366  19.723  14.306
66773W        W34991  41.806  29.758  12.919
66774W        W34992   2.827   3.169  11.589
66775W        W34993  22.703   5.938  12.086
66776W        W34994   9.198  21.540   4.187
66777W        W34995  18.781  31.770  14.872
66778W        W34996  39.996  37.405   2.722
66779W        W34997  18.640  41.033  11.196
66780W        W34998   1.130  27.171  12.503
66781W        W34999  13.379   0.643   9.764
66782W        W35000   8.395  19.923   1.615
66783W        W35001   0.672  27.604   3.332
66784W        W35002   1.770   6.705  14.714
66785W        W35003  37.657  10.354   3.907
66786W        W35004   8.954  20.121   1.123
66787W        W35005  30.031  19.561  14.510
66788W        W35006  36.860  10.646  14.789
66789W        W35007   5.276  39.963  11.065
66790W        W35008  23.969   1.339  14.401
66791W        W35009  20.357  33.974   2.298
66792W        W35010   9.674   8.343  11.981
66793W        W35011  44.270  24.759   2.290
66794W        W35012  19.876  12.539   4.658
66795W        W35013  27.996   7.455   2.908
66796W        W35014  34.442  24.333  12.529
66797W        W35015  10.899   4.858   1.757
66798W        W35016  32.398  22.177  10.606
66799W        W35017  13.135  17.246   0.237
66800W        W35018  10.809  23.768   3.653
66801W        W35019  23.395   1.834  12.880
66802W        W35020  13.576  32.696   2.745
66803W        W35021  40.043   7.684  14.357
66804W        W35022  37.918  34.560   3.291
66805W        W35023   2.374  10.319  13.061
66806W        W35024  43.007  39.631   3.672
66807W        W35025  29.653  11.376  13.734
66808W        W35026   3.979  15.365  11.113
66809W        W35027  12.566  40.216   0.882
66810W        W35028  42.310  11.638  12.295
66811W        W35029   6.683  42.757  13.889
66812W        W35030  42.472   1.023   4.409
66813W        W35031  35.334  28.513   2.735
66814W        W35032   4.441  41.243  12.357
66815W        W35033  44.382   9.142   3.746
66816W        W35034  41.998  32.400   1.851
66817W        W35035  20.165   2.391  11.556
66818W        W35036  26.800  11.326  14.833
66819W        W35037  15.394  42.616  11.970
66820W        W35038   7.875   9.731  13.633
66821W        W35039  11.776  13.297   4.076
66822W        W35040  24.224  44.325   4.269
66823W        W35041  16.134  13.494  13.886
66824W        W35042   2.540   3.264  12.041
66825W        W35043  40.478  12.177   1.211
66826W        W35044  15.060  28.517  11.159
66827W        W35045  26.285  30.164  11.837
66828W        W35046  36.415   9.174  12.115
66829W        W35047  14.031  39.450   4.165
66830W        W35048  16.362  25.588  13.408
66831W        W35049  36.575   3.656  14.319
66832W        W35050  32.895  18.762  12.157
66833W        W35051  10.777  38.830   2.353
66834W        W35052  35.557  21.556   3.280
66835W        W35053  30.022  10.274   4.073
66836W        W35054  31.410  36.290   4.099
66837W        W35055   5.387   6.955  14.545
66838W        W35056  12.734  19.513  10.689
66839W        W35057  18.420  15.649   4.553
66840W        W35058  36.903  42.746  11.132
66841W        W35059  23.951   9.836   1.841
66842W        W35060  17.132   9.878  12.981
66843W        W35061   3.453  43.511  13.970
66844W        W35062   6.390  21.797   0.921
66845W        W35063  30.668   1.412  14.439
66846W        W35064  13.893  33.111  10.537
66847W        W35065  14.078  14.219   0.396
66848W        W35066  24.115  34.607  14.421
66849W        W35067   4.731  39.441   4.123
66850W        W35068   5.082   8.866  11.978
66851W        W35069  26.279  44.872   4.112
66852W        W35070  23.892  14.821   0.731
66853W        W35071  16.721  25.955  11.297
66854W        W35072  31.006  31.192   2.750
66855W        W35073  43.898  10.660  12.991
66856W        W35074  30.547  12.498  11.304
66857W        W35075  43.300  21.908  10.210
66858W        W35076  11.316  39.024  13.096
66859W        W35077   6.857  27.686  11.140
66860W        W35078  31.364  29.535  14.973
66861W        W35079  12.888  43.849  12.110
66862W        W35080  26.088  36.064  14.802
66863W        W35081  36.346  17.887   0.924
66864W        W35082   9.803  31.022  14.012
66865W        W35083  35.731   5.439   1.006
66866W        W35084  21.218  18.631   4.319
66867W        W35085   5.101  24.175   2.709
66868W        W35086  44.849  39.040  14.890
66869W        W35087  20.797  43.170  14.037
66870W        W35088   5.476  39.083  13.494
66871W        W35089   4.848  34.949  11.322
66872W        W35090  31.171  23.247   3.080
66873W        W35091   6.962   3.717  11.299
66874W        W35092  10.340  39.543   4.019
66875W        W35093  25.763   4.976  12.969
66876W        W35094   1.439   7.661   1.040
66877W        W35095  26.359  14.478  11.517
66878W        W35096  27.997  28.159   0.942
66879W        W35097  12.545   0.926  11.711
66880W        W35098  25.063  37.473   0.958
66881W        W35099  15.242   9.344   2.910
66882W        W35100  30.680   8.285   0.334
66883W        W35101  14.141  25.587  13.771
66884W        W35102  34.053  32.046  12.419
66885W        W35103  21.560  10.749  10.764
66886W        W35104  37.990  32.754  13.924
66887W        W35105  17.050  33.529  11.604
66888W        W35106  10.361   4.289  14.093
66889W        W35107  21.804  32.336   2.698
66890W        W35108  29.217  40.453   3.190
66891W        W35109  27.635  20.386   1.469
66892W        W35110  12.895  19.466   2.487
66893W        W35111  25.121  25.660   1.300
66894W        W35112  18.712   8.236   3.867
66895W        W35113  38.550  10.267  14.728
66896W        W35114  17.048  34.790   2.832
66897W        W35115  25.938  30.664   3.233
66898W        W35116  31.039  19.717  11.993
66899W        W35117   7.272  39.528   1.314
66900W        W35118  25.798  33.677  14.346
66901W        W35119  18.178  23.715  10.651
66902W        W35120  33.089  11.824  11.428
66903W        W35121  24.250   7.719  13.358
66904W        W35122  29.166  35.754   1.159
66905W        W35123  31.618  18.402   1.337
66906W        W35124   3.951  31.162   1.375
66907W        W35125  36.895  10.101   2.802
66908W        W35126  14.643  19.063   4.207
66909W        W35127   4.525  43.435   4.225
66910W        W35128  44.797  42.962   0.821
66911W        W35129  35.032  27.877   0.028
66912W        W35130  42.747  38.573  11.641
66913W        W35131   8.939  43.448  10.231
66914W        W35132  24.242  41.372   2.522
66915W        W35133  22.602  27.421  11.621
66916W        W35134  38.014  41.861   2.435
66917W        W35135  14.036  14.150   2.244
66918W        W35136  20.499  42.828  14.333
66919W        W35137  12.789  16.756  12.859
66920W        W35138  12.074  30.980   2.744
66921W        W35139   2.226  14.233   1.375
66922W        W35140  35.441   5.871   3.640
66923W        W35141  17.013  14.864  13.831
66924W        W35142  44.064   5.349  10.467
66925W        W35143  23.673  40.141   0.587
66926W        W35144  42.239   7.849   2.398
66927W        W35145  44.399  14.790   4.745
66928W        W35146   3.278  43.215  13.582
66929W        W35147  37.590  14.715  11.894
66930W        W35148  10.893  26.258   1.373
66931W        W35149  33.763  13.489  11.082
66932W        W35150  43.135  11.349   2.880
66933W        W35151  36.976   8.121  13.843
66934W        W35152  19.710  31.535   0.857
66935W        W35153  33.940  28.587   0.283
66936W        W35154  41.636  35.739  12.867
66937W        W35155  42.559  38.913   0.727
66938W        W35156  21.493  30.355   4.257
66939W        W35157  40.959  16.119  11.094
66940W        W35158  22.936  35.531   4.586
66941W        W35159  41.147  32.245   3.797
66942W        W35160  44.564  43.652   2.786
66943W        W35161  34.320  13.242   1.792
66944W        W35162   7.716  26.592  13.327
66945W        W35163  19.427  42.669  14.404
66946W        W35164  28.440   7.427  11.112
66947W        W35165  33.005  27.608   2.260
66948W        W35166   7.834  28.977  10.697
66949W        W35167   7.240  12.737  13.491
66950W        W35168  43.717  40.018  10.989
66951W        W35169  14.684  20.417   2.203
66952W        W35170  22.617  37.943   0.637
66953W        W35171  11.365   1.970  12.846
66954W        W35172  40.819  28.280   0.337
66955W        W35173  30.224  14.863  13.916
66956W        W35174   0.928   8.307  12.917
66957W        W35175  11.600  39.014  12.157
66958W        W35176   9.263  31.907   3.757
66959W        W35177  35.503  22.347   3.724
66960W        W35178  15.792   4.656  13.948
66961W        W35179   7.744  17.976   2.377
66962W        W35180  41.541   4.415   3.210
66963W        W35181  12.664  36.529   0.969
66964W        W35182   4.741  43.271  13.777
66965W        W35183  15.031  32.022  12.181
66966W        W35184   0.607  23.786   0.845
66967W        W35185  40.723  35.508  13.250
66968W        W35186  15.573  30.391  10.423
66969W        W35187   8.152   6.872  11.635
66970W        W35188  41.856  43.363  11.925
66971W        W35189  19.533  17.334  12.550
66972W        W35190  31.451  32.387  10.479
66973W        W35191  19.690   7.757   3.793
66974W        W35192  18.013  13.372  13.829
66975W        W35193   5.885   8.427  12.106
66976W        W35194  36.832  25.157   1.178
66977W        W35195  32.431  39.959   0.501
66978W        W35196  29.887  13.939   1.313
66979W        W35197   1.071  15.811   0.406
66980W        W35198  30.039  44.386   2.651
66981W        W35199  36.959   1.887   3.651
66982W        W35200  36.061   7.224  13.996
66983W        W35201  31.145  14.152   0.435
66984W        W35202   9.164  43.354   4.297
66985W        W35203  34.881  35.278   1.323
66986W        W35204   6.465  21.569   3.741
66987W        W35205  26.226  32.103   1.206
66988W        W35206  36.037   1.753   5.019
66989W        W35207   4.160   4.743  13.632
66990W        W35208  12.099  14.348   0.238
66991W        W35209  38.940  14.058  14.561
66992W        W35210   9.669  38.805  10.180
66993W        W35211  23.084  33.656  11.008
66994W        W35212  37.436   1.449  12.409
66995W        W35213  26.387  36.118   3.776
66996W        W35214  37.998  32.232  10.699
66997W        W35215  23.583   3.152   4.383
66998W        W35216  28.553  10.956   0.051
66999W        W35217  37.068  44.015   0.469
67000W        W35218  21.651  23.817  12.578
67001W        W35219  28.685  30.977   0.782
67002W        W35220   5.946  18.654  12.502
67003W        W35221   3.840  17.722  13.468
67004W        W35222  43.375  10.341   3.609
67005W        W35223  20.285  28.552   1.365
67006W        W35224   0.803  15.944  14.951
67007W        W35225  16.352  20.226  11.743
67008W        W35226  19.505  34.174   1.775
67009W        W35227  29.030   0.946   4.779
67010W        W35228  21.499  35.166  11.263
67011W        W35229  16.495  40.753   4.019
67012W        W35230  26.355  15.125   3.720
67013W        W35231  35.994  37.099  11.614
67014W        W35232   6.444  29.165   2.358
67015W        W35233  41.854   9.975   4.579
67016W        W35234  22.534   9.198  12.958
67017W        W35235  39.348  11.373  14.292
67018W        W35236  12.375  30.088  11.099
67019W        W35237  28.778  35.372   2.107
67020W        W35238  42.100  24.931  11.809
67021W        W35239  10.831   7.763   3.325
67022W        W35240  13.386  15.035  12.623
67023W        W35241   3.191  20.109  11.625
67024W        W35242  24.785  37.152  12.482
67025W        W35243  24.946  40.977  11.717
67026W        W35244  42.433   5.427   4.262
67027W        W35245  41.057  24.760  14.058
67028W        W35246   2.854  30.177   3.953
67029W        W35247  19.674  12.431  12.458
67030W        W35248  25.705  14.826   5.402
67031W        W35249  33.461   7.881   2.789
67032W        W35250   5.718  24.421   0.430
67033W        W35251  19.008  12.559  12.096
67034W        W35252  14.840  24.139   4.152
67035W        W35253  20.762  44.519   3.190
67036W        W35254  13.770  10.347  11.494
67037W        W35255   5.964  20.132  13.491
67038W        W35256  44.772  13.016   4.654
67039W        W35257  42.684  22.196  14.885
67040W        W35258  12.831  33.336  11.096
67041W        W35259  41.519   1.981   0.435
67042W        W35260  34.399  17.299   4.529
67043W        W35261  12.913  43.156  14.818
67044W        W35262  24.758   1.448   3.561
67045W        W35263  31.444   6.278  13.237
67046W        W35264  28.996  14.888  12.210
67047W        W35265   4.784  20.983  14.100
67048W        W35266  34.367  33.658   3.707
67049W        W35267   1.222  42.463   0.377
67050W        W35268  14.839  36.081   5.151
67051W        W35269  40.060  42.982  14.542
67052W        W35270  33.687  16.288  14.497
67053W        W35271  38.964  10.971  12.452
67054W        W35272  28.449  22.457  10.091
67055W        W35273  42.385  24.704  13.424
67056W        W35274  16.609  34.780   3.109
67057W        W35275   5.347  13.824  10.937
67058W        W35276  19.369  14.328  13.309
67059W        W35277   8.583  18.027   2.255
67060W        W35278  22.948   6.039  14.298
67061W        W35279   1.964   9.625   3.707
67062W        W35280  36.062  19.772   4.160
67063W        W35281   7.459  26.001   2.842
67064W        W35282  18.355   2.865  11.579
67065W        W35283  32.674  11.799  10.681
67066W        W35284  39.437   7.339   4.183
67067W        W35285  25.477   7.685   3.946
67068W        W35286  38.577  19.076   3.655
67069W        W35287  19.785   2.626   0.441
67070W        W35288  10.789   8.357   0.090
67071W        W35289  16.971  11.367  11.523
67072W        W35290  28.561   0.140  13.776
67073W        W35291  27.080   1.856   1.940
67074W        W35292  30.142  30.083  10.684
67075W        W35293   0.033   3.537  12.923
67076W        W35294  37.469  40.148  13.121
67077W        W35295  23.152   0.509   1.244
67078W        W35296  21.609  30.547   3.355
67079W        W35297  35.611  15.936  14.544
67080W        W35298  10.363  34.032   4.498
67081W        W35299  19.509  32.400  12.010
67082W        W35300   2.343  16.837   2.457
67083W        W35301  30.176  24.082   0.422
67084W        W35302  18.842  20.610   2.703
67085W        W35303   1.132  20.065  13.369
67086W        W35304   4.375  28.549  10.719
67087W        W35305   8.724  21.256   4.593
67088W        W35306  38.209   0.702   5.088
67089W        W35307  41.472  17.335   4.597
67090W        W35308  14.346  23.925  11.222
67091W        W35309  43.955   4.012   4.032
67092W        W35310   1.969  44.073   2.856
67093W        W35311  38.388   2.307   1.905
67094W        W35312  21.995   6.500  12.461
67095W        W35313  19.229  33.561   5.020
67096W        W35314   8.346  39.590   3.168
67097W        W35315  11.093  43.760   1.386
67098W        W35316  15.279  32.862  13.445
67099W        W35317  19.724  19.934   4.119
67100W        W35318  15.505  39.291   2.892
67101W        W35319  17.862  10.380  12.920
67102W        W35320   0.332  23.602  11.908
67103W        W35321  13.616  26.809  11.245
67104W        W35322  31.639  17.403  11.535
67105W        W35323  38.964  21.449  11.109
67106W        W35324   8.175  12.755   4.083
67107W        W35325  18.885  24.955  12.872
67108W        W35326  14.774  30.020  11.740
67109W        W35327  29.048  22.507  10.626
67110W        W35328  11.487   5.725  13.373
67111W        W35329  25.312  43.920   2.545
67112W        W35330  18.654  29.400  10.421
67113W        W35331  32.158  19.552   3.279
67114W        W35332  32.907  11.517   3.160
67115W        W35333  43.304  26.209   0.928
67116W        W35334   8.520  12.349   3.972
67117W        W35335  42.437   7.440  11.174
67118W        W35336  32.077  44.917   1.722
67119W        W35337  16.717  23.055   2.847
67120W        W35338  17.160  30.152   0.506
67121W        W35339   2.003  35.892  10.765
67122W        W35340  27.569   3.273   1.839
67123W        W35341  27.505  23.772  12.182
67124W        W35342  28.621  34.036   4.519
67125W        W35343  44.948  33.116   2.902
67126W        W35344  33.221  44.923  12.728
67127W        W35345  37.857   7.829   1.273
67128W        W35346  22.273  22.859   4.103
67129W        W35347  43.452  40.500   2.205
67130W        W35348  27.024  25.608   3.643
67131W        W35349  42.954  33.090   0.223
67132W        W35350  29.088  11.382   4.560
67133W        W35351   6.782  16.298   9.971
67134W        W35352  24.171  16.073   3.844
67135W        W35353  23.805  31.574  13.893
67136W        W35354  28.692  34.915  11.612
67137W        W35355  33.509  34.694   3.599
67138W        W35356  40.051   3.455   3.203
67139W        W35357  21.515  32.331  13.082
67140W        W35358  14.221  38.882   2.230
67141W        W35359  36.899  27.990   2.074
67142W        W35360  20.999  18.131  14.916
67143W        W35361  44.494  19.869   2.353
67144W        W35362   8.741  33.772   3.751
67145W        W35363   5.176  35.463  10.687
67146W        W35364  21.204   4.595  13.736
67147W        W35365  11.189  14.567  14.248
67148W        W35366  43.619  30.407   1.117
67149W        W35367  40.466   3.658  10.767
67150W        W35368  42.990  34.981  14.868
67151W        W35369  33.846  36.584   0.330
67152W        W35370  44.413  25.185  11.073
67153W        W35371  15.196  13.377   3.226
67154W        W35372  44.436   3.432   4.546
67155W        W35373  36.122   7.381   2.865
67156W        W35374   5.997  17.465   4.588
67157W        W35375  11.391  23.109  11.149
67158W        W35376  16.586   3.456   2.312
67159W        W35377   4.334  42.613  14.002
67160W        W35378  22.649  14.258  11.080
67161W        W35379  13.834  14.195  14.511
67162W        W35380  23.626  40.917   4.285
67163W        W35381  11.336  12.202   2.765
67164W        W35382  37.387  11.418  13.478
67165W        W35383  28.329   0.832   3.260
67166W        W35384  27.089   8.441   1.292
67167W        W35385  16.893  44.394   3.718
67168W        W35386   0.901  31.503   3.306
67169W        W35387   1.453  40.778   3.137
67170W        W35388  38.838  28.102   1.994
67171W        W35389  21.782  42.065   2.401
67172W        W35390  32.144  24.376  11.961
67173W        W35391  14.115  44.308  14.786
67174W        W35392  35.818   7.351   0.488
67175W        W35393   8.171  39.313  11.734
67176W        W35394  22.790  23.160  12.131
67177W        W35395   9.395  27.699  13.306
67178W        W35396  31.975  31.566  12.817
67179W        W35397  26.479  11.396   4.175
67180W        W35398   1.419  36.631  11.522
67181W        W35399  24.260   9.687  14.204
67182W        W35400  39.573  11.426   1.739
67183W        W35401  10.375  23.195  12.380
67184W        W35402  18.730  18.266  13.994
67185W        W35403  18.463  30.513  14.934
67186W        W35404  37.897  20.795  14.345
67187W        W35405  14.267  30.045  13.275
67188W        W35406  20.480  19.214  11.199
67189W        W35407  18.636  15.329   3.282
67190W        W35408   8.692  30.516   0.325
67191W        W35409  34.827  32.193  11.178
67192W        W35410  12.138  16.088   3.153
67193W        W35411  26.841  25.679   5.523
67194W        W35412  18.483  12.654   0.732
67195W        W35413  15.620  30.001   0.806
67196W        W35414  30.470  10.358  13.889
67197W        W35415  27.959   4.867  12.913
67198W        W35416  30.067  33.494  11.898
67199W        W35417  33.681   4.939   5.145
67200W        W35418  29.394  30.831   4.616
67201W        W35419   1.221  37.782  12.142
67202W        W35420  14.180  35.985  14.915
67203W        W35421  40.426  27.542  14.500
67204W        W35422  39.760  23.303   0.433
67205W        W35423  10.217   6.702   4.018
67206W        W35424  36.973   2.316   0.816
67207W        W35425  24.019   7.908   3.061
67208W        W35426  35.961  28.310   4.093
67209W        W35427  12.893   3.787   0.974
67210W        W35428  25.626  21.307  10.534
67211W        W35429  33.075   6.678   2.877
67212W        W35430  13.173  44.415  11.944
67213W        W35431  13.084   5.390   4.078
67214W        W35432  26.042  37.166  13.845
67215W        W35433   3.750  30.823  12.443
67216W        W35434  44.037  42.939  13.892
67217W        W35435  19.439  28.180   1.364
67218W        W35436  38.104  15.152  12.929
67219W        W35437  31.883  39.413   0.011
67220W        W35438  12.311  28.995  13.892
67221W        W35439  37.301   5.456  12.898
67222W        W35440  22.969  19.019  14.271
67223W        W35441  18.181  27.827   0.088
67224W        W35442  19.485  22.239  11.990
67225W        W35443  44.349  41.301  14.319
67226W        W35444  42.321  41.571  12.500
67227W        W35445  28.342  29.609   0.948
67228W        W35446  20.588   2.918   1.070
67229W        W35447  32.697  27.240   3.973
67230W        W35448  31.560  42.288   4.605
67231W        W35449  15.181   9.140   0.745
67232W        W35450  44.478  34.585  12.012
67233W        W35451   9.344  24.451   4.125
67234W        W35452  39.190  15.047   2.355
67235W        W35453  10.822  23.720   1.792
67236W        W35454  27.749  40.307   1.311
67237W        W35455  23.762  23.069  13.731
67238W        W35456  29.800  31.486  13.245
67239W        W35457   9.217  35.982  10.693
67240W        W35458  23.023   5.015   0.254
67241W        W35459  27.203  37.442  10.986
67242W        W35460  26.261  38.842  11.757
67243W        W35461   0.269   4.159  13.027
67244W        W35462  16.037  26.469   3.645
67245W        W35463   3.915  21.594  11.621
67246W        W35464   8.913  17.321   2.352
67247W        W35465  38.554  43.454   9.920
67248W        W35466  16.847  14.626   1.319
67249W        W35467  13.282  13.254   0.828
67250W        W35468  18.251  13.456   4.538
67251W        W35469  13.208   3.543   4.177
67252W        W35470   2.381  37.261   4.939
67253W        W35471   2.924   6.383   2.458
67254W        W35472  40.506  28.032   0.770
67255W        W35473  43.689  39.262   2.452
67256W        W35474   7.833  23.219   2.223
67257W        W35475  12.352  27.920  12.872
67258W        W35476   3.087  17.719  13.082
67259W        W35477  38.520  40.839  11.944
67260W        W35478  26.622  32.675   4.712
67261W        W35479   3.844  16.567  12.633
67262W        W35480   4.791  18.973  13.898
67263W        W35481   1.964   2.127   2.969
67264W        W35482   5.963   0.051  14.001
67265W        W35483   2.070  17.232  14.785
67266W        W35484  32.656  10.862  11.142
67267W        W35485  34.046  20.212   4.904
67268W        W35486   8.825  42.678  10.192
67269W        W35487  28.591  42.599   4.876
67270W        W35488  20.047  22.138   3.163
67271W        W35489  19.940   4.012   0.380
67272W        W35490  18.248  15.102  14.949
67273W        W35491  10.825   5.123  12.932
67274W        W35492  39.873  30.132   1.954
67275W        W35493   4.278  44.935  12.532
67276W        W35494  20.413  30.897   4.867
67277W        W35495   5.265  38.855   3.146
67278W        W35496   7.738  24.200   4.646
67279W        W35497  38.488  33.098  12.841
67280W        W35498   0.877  14.261   1.305
67281W        W35499  41.008  22.527  13.105
67282W        W35500  41.753  15.625  13.927
67283W        W35501   7.699  33.546  14.095
67284W        W35502  42.102  32.177   3.033
67285W        W35503  38.311  12.653  11.510
67286W        W35504  10.811  16.676   1.089
67287W        W35505   4.277  33.885   1.442
67288W        W35506  11.023   5.367  12.513
67289W        W35507  27.423  33.575   0.313
67290W        W35508  17.124  42.084  14.237
67291W        W35509  14.302  31.525   2.135
67292W        W35510  41.621  18.299   4.998
67293W        W35511  41.940  18.740   1.432
67294W        W35512  18.291  33.448  12.076
67295W        W35513  20.571  17.673  13.734
67296W        W35514  31.858  10.234   0.802
67297W        W35515  39.047  10.992  13.367
67298W        W35516  18.707  42.002   1.973
67299W        W35517  44.833  20.090  13.398
67300W        W35518   5.014  26.617   1.884
67301W        W35519  41.083  37.255   3.805
67302W        W35520  21.457  11.788   2.119
67303W        W35521  38.593  21.703   3.197
67304W        W35522  15.933  17.670   2.839
67305W        W35523  31.937  37.056   0.226
67306W        W35524   0.206   1.715   0.009
67307W        W35525  29.251  23.502   9.821
67308W        W35526   0.898  44.086  14.864
67309W        W35527  42.464  16.624  14.539
67310W        W35528  17.135  43.289  10.990
67311W        W35529  25.155  34.817   1.461
67312W        W35530  32.205  14.173   4.152
67313W        W35531   3.025  21.631  13.521
67314W        W35532  12.140  44.968   3.695
67315W        W35533  15.411  21.678  11.442
67316W        W35534  40.820   1.380  13.388
67317W        W35535  26.997  42.942  13.973
67318W        W35536  44.255   8.842   0.159
67319W        W35537  40.305  23.491   4.077
67320W        W35538  44.251  19.686  11.780
67321W        W35539   5.811  32.481  12.039
67322W        W35540  37.977  29.564  10.948
67323W        W35541  33.008  25.809   4.018
67324W        W35542  14.682  17.222  13.518
67325W        W35543  34.943  25.251  11.623
67326W        W35544  15.031  14.769  11.588
67327W        W35545   7.677  37.793  10.278
67328W        W35546  11.743  30.596   2.573
67329W        W35547  30.621   2.164  13.793
67330W        W35548  37.462  40.480  11.211
67331W        W35549  11.251  30.376  13.804
67332W        W35550  23.589  27.453   3.215
67333W        W35551  38.516  33.999   0.144
67334W        W35552  27.759   1.754   3.953
67335W        W35553  19.984  41.993   1.885
67336W        W35554  10.701  23.414  13.786
67337W        W35555   6.395  43.303  14.986
67338W        W35556  21.114  20.332   0.425
67339W        W35557  41.974  23.650  11.585
67340W        W35558  12.890  21.159   2.769
67341W        W35559  29.884  23.727  14.494
67342W        W35560  24.096  35.955   1.862
67343W        W35561  36.237  42.285  14.529
67344W        W35562  41.307  17.514   3.353
67345W        W35563  25.176  12.253  14.507
67346W        W35564  30.212  21.763  13.737
67347W        W35565  24.739  38.537  12.545
67348W        W35566  17.862  44.757  12.456
67349W        W35567  10.037  27.014   0.710
67350W        W35568   9.597  14.129   0.306
67351W        W35569  44.764  36.503   0.287
67352W        W35570  10.658  31.997   1.852
67353W        W35571  33.031  34.091  10.707
67354W        W35572  40.987  37.403   1.741
67355W        W35573  14.061  20.676  12.855
67356W        W35574   0.458  31.353   2.872
67357W        W35575  35.375   1.777   1.931
67358W        W35576  32.579  18.820  11.172
67359W        W35577  39.342  15.582  13.948
67360W        W35578  21.449  33.429  14.750
67361W        W35579  30.132  38.527  13.516
67362W        W35580  31.768   1.331  14.035
67363W        W35581  20.738  35.114  11.651
67364W        W35582  44.806  43.627  12.592
67365W        W35583  34.001   9.734   1.838
67366W        W35584  31.623   0.384  10.602
67367W        W35585  38.656  31.408   4.600
67368W        W35586  20.010  21.163  13.381
67369W        W35587   6.204   7.938   4.540
67370W        W35588  20.235  20.997   0.724
67371W        W35589  18.150  41.470  12.017
67372W        W35590  30.940  19.176   4.645
67373W        W35591   1.427  36.678  14.024
67374W        W35592  32.449   2.289   4.139
67375W        W35593  31.993  32.322   4.175
67376W        W35594  19.650  29.572  14.489
67377W        W35595  21.035  33.922   2.111
67378W        W35596   5.707  28.470  13.488
67379W        W35597   0.369  42.821   1.427
67380W        W35598  12.586   3.742   2.302
67381W        W35599  30.986  33.431  14.295
67382W        W35600  22.516  17.998  14.821
67383W        W35601  43.468  25.048   3.654
67384W        W35602  16.042  38.065  14.486
67385W        W35603  17.181  11.231  13.877
67386W        W35604  44.863  14.601  12.007
67387W        W35605  14.193  35.449   0.546
67388W        W35606  33.613  25.447   1.210
67389W        W35607  35.470  19.347   0.874
67390W        W35608  18.252  23.117   4.184
67391W        W35609  17.236  22.791  14.347
67392W        W35610  30.983  44.707   4.040
67393W        W35611  39.325   7.290  13.179
67394W        W35612  32.161  26.496   0.415
67395W        W35613   4.819   7.902  11.086
67396W        W35614  37.994  32.423  14.922
67397W        W35615  10.288  16.498   3.170
67398W        W35616  40.460   2.002   3.676
67399W        W35617   7.134  18.318  12.027
67400W        W35618  27.502  13.856  11.487
67401W        W35619  32.518  42.803  10.580
67402W        W35620  12.233  16.767   0.481
67403W        W35621   5.450  11.512  10.027
67404W        W35622  39.262  31.582   3.179
67405W        W35623  14.929  31.137   1.780
67406W        W35624  10.102  11.917  11.163
67407W        W35625   1.673  41.081  13.817
67408W        W35626  27.783  17.259  13.864
67409W        W35627  37.905  35.243   0.843
67410W        W35628   3.131  12.587  12.782
67411W        W35629  29.486   8.364  14.960
67412W        W35630  38.385  10.321  12.151
67413W        W35631  25.025  28.214   3.139
67414W        W35632  40.570  11.840  10.287
67415W        W35633  26.691  10.095  12.877
67416W        W35634  13.173  43.536  13.311
67417W        W35635   2.227  19.080   1.733
67418W        W35636  34.970  27.438   0.963
67419W        W35637  32.071  31.471  14.193
67420W        W35638  41.941   8.025  10.725
67421W        W35639  44.500  42.994  12.152
67422W        W35640  27.657  40.649  13.971
67423W        W35641  28.463  40.756   4.555
67424W        W35642  32.162  28.578  13.119
67425W        W35643  30.348  12.894  13.341
67426W        W35644  11.310  25.743  10.681
67427W        W35645  33.385  28.487  14.383
67428W        W35646  10.445  42.095   1.764
67429W        W35647  41.885   4.856  12.061
67430W        W35648  17.738  27.415   1.894
67431W        W35649   3.054  42.205  12.484
67432W        W35650   4.667  12.675  14.578
67433W        W35651  28.989   5.742   1.171
67434W        W35652  26.876  12.852   4.286
67435W        W35653  11.626   8.852  10.164
67436W        W35654  18.622  31.385  14.429
67437W        W35655  13.302   1.870  13.984
67438W        W35656  31.154  33.894  11.232
67439W        W35657  29.423  11.695  13.097
67440W        W35658  14.722  35.991   0.776
67441W        W35659  26.426  23.674  13.728
67442W        W35660  43.468  30.909  10.808
67443W        W35661   7.326  40.992   3.401
67444W        W35662  39.923  24.277   1.399
67445W        W35663  41.401  33.903   0.842
67446W        W35664  41.249   2.291  13.294
67447W        W35665  17.828  16.099  11.998
67448W        W35666  19.511  18.123   2.785
67449W        W35667  23.162  14.138  14.846
67450W        W35668  17.065   6.423  11.130
67451W        W35669  23.281  18.056   1.554
67452W        W35670  26.101   7.896   3.384
67453W        W35671   2.906   1.246  13.117
67454W        W35672   1.503  17.669  14.330
67455W        W35673  37.347  19.524   4.576
67456W        W35674  37.165  24.656  13.422
67457W        W35675  15.822   1.301   0.387
67458W        W35676  26.296  17.079  14.013
67459W        W35677  44.205  20.278   1.089
67460W        W35678  34.089  20.566   3.833
67461W        W35679  22.093  14.208  11.943
67462W        W35680  25.765  40.251  14.028
67463W        W35681  37.572  29.107   1.365
67464W        W35682  27.707  41.343  11.960
67465W        W35683  38.043  20.302  14.453
67466W        W35684  38.181   2.786   1.795
67467W        W35685   2.226  28.518   1.795
67468W        W35686  12.335  38.589   2.895
67469W        W35687  35.855  42.969  12.625
67470W        W35688  31.079  17.088   0.338
67471W        W35689  25.055   3.424   2.828
67472W        W35690   1.380  20.665   3.700
67473W        W35691   6.746   9.187   4.231
67474W        W35692  41.659  26.656   4.159
67475W        W35693   3.030  39.005   1.432
67476W        W35694  16.348  25.179  12.052
67477W        W35695   7.270  16.656  12.934
67478W        W35696  27.481  12.576   5.025
67479W        W35697  39.251  10.236   5.271
67480W        W35698  35.319  17.876   3.548
67481W        W35699  25.512  39.301   3.648
67482W        W35700  41.009   1.726  13.756
67483W        W35701  43.755  29.446   3.179
67484W        W35702  12.108   1.091  13.061
67485W        W35703  22.598  17.093  14.265
67486W        W35704   9.194  24.738   4.541
67487W        W35705  32.794  28.490   2.778
67488W        W35706   5.168   8.791  10.719
67489W        W35707  38.338   0.186   3.069
67490W        W35708  22.542  37.918  10.443
67491W        W35709  35.723  33.774   2.374
67492W        W35710  29.446  23.772  10.672
67493W        W35711  21.091  29.416  10.682
67494W        W35712  34.013   9.178  11.402
67495W        W35713  14.702   6.837  12.061
67496W        W35714  20.309  18.645  12.451
67497W        W35715  14.818  21.738   4.408
67498W        W35716  13.557  17.166   4.829
67499W        W35717   3.251  26.920  11.103
67500W        W35718  14.881  32.542   3.263
67501W        W35719  17.741  33.552  14.029
67502W        W35720  43.106  41.979  14.191
67503W        W35721  24.595  30.866   4.439
67504W        W35722  10.262  23.385  12.992
67505W        W35723  35.675  25.640  14.077
67506W        W35724  33.662  20.323  12.049
67507W        W35725  25.814  41.166  11.580
67508W        W35726  13.415  21.967  12.572
67509W        W35727  17.812  28.027  13.867
67510W        W35728  29.622   4.737   0.850
67511W        W35729  28.447   3.840  13.222
67512W        W35730   7.026  24.987   2.607
67513W        W35731  18.494  31.315  12.541
67514W        W35732  27.202   2.809   4.383
67515W        W35733  24.181  11.849  10.581
67516W        W35734   1.539  31.685  12.124
67517W        W35735   5.972  32.794   2.140
67518W        W35736  23.266  11.218  12.387
67519W        W35737   1.381  15.223   4.546
67520W        W35738  10.035  30.112   4.780
67521W        W35739  12.607  19.555  13.377
67522W        W35740  23.200  14.880  12.383
67523W        W35741  20.173   7.266  11.100
67524W        W35742  16.736  38.558  12.515
67525W        W35743  32.629  13.073   3.661
67526W        W35744  27.614  29.256   0.401
67527W        W35745  13.534  39.801  14.473
67528W        W35746  35.825  34.871   0.343
67529W        W35747  44.290  31.054  14.740
67530W        W35748  35.761  12.165  14.336
67531W        W35749  30.387   3.500  13.430
67532W        W35750  34.114  36.909  13.959
67533W        W35751   2.958  34.386  14.434
67534W        W35752  25.037  13.083   3.539
67535W        W35753   5.477   6.471   4.194
67536W        W35754  35.048  37.837  12.589
67537W        W35755  22.017   7.598  12.776
67538W        W35756  10.421   3.928   0.968
67539W        W35757  39.932  31.943  13.403
67540W        W35758  11.045  41.443   1.770
67541W        W35759  34.566  39.795   0.468
67542W        W35760  13.032  44.471   0.324
67543W        W35761  35.140   9.330  12.994
67544W        W35762   4.251  32.037  13.425
67545W        W35763   8.302  44.366  13.519
67546W        W35764  24.071  20.943   3.733
67547W        W35765  39.078  15.354   2.792
67548W        W35766  17.247  22.536   3.156
67549W        W35767  14.031  37.876  14.879
67550W        W35768  41.362  23.677   2.162
67551W        W35769  24.658  30.111  12.590
67552W        W35770   0.567  37.332   4.915
67553W        W35771  38.112   1.302   5.409
67554W        W35772  10.663  22.697   4.907
67555W        W35773  29.982   2.727   0.368
67556W        W35774   2.934   7.700  14.885
67557W        W35775  37.533  24.023  10.756
67558W        W35776  31.232  13.542  14.793
67559W        W35777  23.818  34.115  10.428
67560W        W35778   8.486  23.544   4.638
67561W        W35779  32.962  12.920  12.067
67562W        W35780  34.141   7.182  13.478
67563W        W35781  13.033  12.359   2.021
67564W        W35782  33.948   3.502   0.749
67565W        W35783  20.292  19.403   4.590
67566W        W35784  24.847  21.277   1.150
67567W        W35785  17.790  18.682   1.787
67568W        W35786  13.627  28.412   3.893
67569W        W35787  31.393  10.345  10.970
67570W        W35788  34.007  22.007  12.362
67571W        W35789   7.651   9.118   4.034
67572W        W35790  29.681  12.900  11.164
67573W        W35791  29.915   2.235   3.345
67574W        W35792  31.545  11.830   0.453
67575W        W35793   5.702   8.404  13.705
67576W        W35794  34.655  23.750   1.212
67577W        W35795  22.577  21.662  11.536
67578W        W35796  35.656  26.582   3.548
67579W        W35797  43.795   8.322   1.803
67580W        W35798  19.255  32.567  13.321
67581W        W35799  42.850  36.530  12.463
67582W        W35800  21.674   0.016   2.220
67583W        W35801   1.030  12.085   4.625
67584W        W35802  26.695   2.824   1.888
67585W        W35803  20.570  33.345  14.402
67586W        W35804  36.767  15.601  12.725
67587W        W35805   6.195  22.007   1.460
67588W        W35806   2.470   2.171   2.295
67589W        W35807  30.545   9.386  11.135
67590W        W35808   0.821   6.752   0.047
67591W        W35809   1.729  10.251  14.399
67592W        W35810   3.597  11.867  13.509
67593W        W35811  14.202  22.218   2.836
67594W        W35812  24.549   3.729  10.820
67595W        W35813  43.875  13.989  11.108
67596W        W35814  41.167  14.573   4.153
67597W        W35815  15.278   5.298   2.817
67598W        W35816  22.628   1.547  11.678
67599W        W35817  26.123  13.181   2.581
67600W        W35818   3.324  21.002  14.845
67601W        W35819  37.446   2.522   1.706
67602W        W35820  42.253  30.690  12.053
67603W        W35821  35.493  22.439  13.036
67604W        W35822  38.979  37.065  12.917
67605W        W35823  11.752  20.589  14.844
67606W        W35824  10.792  41.300   2.349
67607W        W35825   8.623  39.486   0.465
67608W        W35826   7.616  10.774   2.756
67609W        W35827  40.823  24.733  12.107
67610W        W35828  22.109  14.818  11.212
67611W        W35829  23.593   3.315  10.783
67612W        W35830  39.427   0.817   2.818
67613W        W35831  34.475  38.322   4.787
67614W        W35832  27.584  27.463   2.622
67615W        W35833  16.625  20.950   0.066
67616W        W35834   3.797  18.615   4.531
67617W        W35835   4.894  19.139   0.445
67618W        W35836  20.106  23.736  14.376
67619W        W35837  25.841  24.508   2.706
67620W        W35838   8.309   9.121   3.259
67621W        W35839  33.501  25.082  13.846
67622W        W35840  31.560  30.916  12.086
67623W        W35841   2.904   9.260  13.731
67624W        W35842  32.619  42.574  13.024
67625W        W35843  17.432  31.140   1.895
67626W        W35844   5.357  14.843  12.877
67627W        W35845   7.720  20.295  14.376
67628W        W35846   0.474  11.296   1.424
67629W        W35847  19.671  32.255   0.366
67630W        W35848  18.550   4.908   2.115
67631W        W35849   2.542  43.536  14.041
67632W        W35850  35.805   9.764   0.366
67633W        W35851  12.057  33.472   1.330
67634W        W35852  43.377  10.163   1.025
67635W        W35853  43.518  12.530  11.416
67636W        W35854  23.244  25.836  11.047
67637W        W35855  27.479  43.829  13.558
67638W        W35856  42.566  37.088   4.813
67639W        W35857  27.841  43.518   2.160
67640W        W35858  26.349  39.106   4.568
67641W        W35859  37.804  37.742   3.630
67642W        W35860  10.774   8.901  12.583
67643W        W35861  40.070  38.916   4.876
67644W        W35862  41.496  40.149   1.569
67645W        W35863  24.630  44.401   2.375
67646W        W35864  25.656  40.311   2.453
67647W        W35865  30.312  34.854  13.802
67648W        W35866  14.609  12.048  14.965
67649W        W35867   4.295  43.899  10.786
67650W        W35868  11.553  36.097  13.992
67651W        W35869  19.935  18.794   1.371
67652W        W35870  17.440  22.142   0.581
67653W        W35871  35.456  37.413  11.593
67654W        W35872  17.036  27.766  13.452
67655W        W35873  24.062  41.914   1.251
67656W        W35874  30.494  27.608   4.180
67657W        W35875  22.275  23.081   0.863
67658W        W35876   0.313   0.312   2.023
67659W        W35877  43.394   5.459  13.126
67660W        W35878  44.242  23.582   0.888
67661W        W35879  30.072   2.482  11.374
67662W        W35880  21.776  42.510   1.442
67663W        W35881  39.985  20.531   3.983
67664W        W35882  40.901  29.939  13.065
67665W        W35883   5.173  28.128   0.459
67666W        W35884  28.625   2.843  14.012
67667W        W35885  41.268  36.409  13.273
67668W        W35886  33.580  23.788  13.404
67669W        W35887  25.007  27.037   1.931
67670W        W35888   0.775  27.457   2.383
67671W        W35889  22.058  10.563  12.464
67672W        W35890  20.747  44.902  10.716
67673W        W35891  40.045  23.820  13.167
67674W        W35892  25.549  44.382  11.920
67675W        W35893  24.153  33.835  10.163
67676W        W35894  10.037   6.217   5.026
67677W        W35895   7.749  13.605  13.854
67678W        W35896   4.792  44.407  10.064
67679W        W35897   8.551   5.759   2.340
67680W        W35898  39.665  13.524   2.771
67681W        W35899  25.641   1.333  13.303
67682W        W35900  30.631  40.636   0.313
67683W        W35901   0.083  29.112  13.336
67684W        W35902  20.547  31.801   4.162
67685W        W35903  33.420  33.895  14.660
67686W        W35904  15.149  14.204   4.621
67687W        W35905  13.447   9.983  10.287
67688W        W35906  20.424  28.066   0.218
67689W        W35907  26.536  38.883  10.748
67690W        W35908  12.963  42.942   4.533
67691W        W35909  15.510   7.738  14.409
67692W        W35910   5.192  36.125   0.908
67693W        W35911  24.183  11.945   4.710
67694W        W35912  22.782  12.129   3.406
67695W        W35913  23.579  38.257   0.355
67696W        W35914   1.947  13.050   4.375
67697W        W35915  31.369  41.718  14.933
67698W        W35916  29.039  21.420  14.873
67699W        W35917  14.365   2.856   0.819
67700W        W35918  21.490  28.939   1.312
67701W        W35919  37.836  17.654   4.442
67702W        W35920  30.996   6.450  10.664
67703W        W35921  20.696   5.932   4.398
67704W        W35922   3.675  21.553  10.560
67705W        W35923  24.706   5.854   0.351
67706W        W35924   0.001   9.505   2.157
67707W        W35925   3.854  21.115  14.405
67708W        W35926  38.271  15.833   4.726
67709W        W35927  29.580   1.484   2.786
67710W        W35928  29.032  31.970   3.268
67711W        W35929  42.741  35.014   0.343
67712W        W35930  35.977   1.454   1.394
67713W        W35931  30.757  36.716  11.189
67714W        W35932  30.561   0.328   0.787
67715W        W35933   5.564  38.912  12.659
67716W        W35934   3.795   5.684   3.136
67717W        W35935   1.372  36.056   4.485
67718W        W35936  12.845  10.237   3.728
67719W        W35937  19.017  37.442   0.996
67720W        W35938  36.702  27.227   2.862
67721W        W35939  31.116   3.553  12.440
67722W        W35940  43.053  42.773  13.770
67723W        W35941  35.549  21.718   2.757
67724W        W35942   2.153  42.070   4.092
67725W        W35943  15.884  21.518  11.587
67726W        W35944   4.384  33.574   0.934
67727W        W35945  26.526  40.416  12.030
67728W        W35946  39.304   1.269  10.128
67729W        W35947  26.491  25.651  12.793
67730W        W35948  13.495  31.294   4.169
67731W        W35949   0.536  16.714   0.260
67732W        W35950  27.366  18.912  13.468
67733W        W35951   3.134  42.074   1.964
67734W        W35952  27.709   2.804  14.532
67735W        W35953  23.142  35.129   4.987
67736W        W35954  17.756  29.415  10.911
67737W        W35955   0.815  18.702  12.132
67738W        W35956   5.762  31.055   4.872
67739W        W35957  41.558  44.832  12.693
67740W        W35958   0.325  10.071  13.138
67741W        W35959  36.661  40.355  12.495
67742W        W35960   6.282  32.555   3.724
67743W        W35961  14.911  37.427  13.154
67744W        W35962  20.766   6.641   1.947
67745W        W35963  10.877  29.813  10.672
67746W        W35964  36.747  14.792   4.130
67747W        W35965  29.474  15.822  13.742
67748W        W35966  12.923  26.969   0.951
67749W        W35967   3.208   4.632   0.305
67750W        W35968  16.168  38.920  10.828
67751W        W35969  35.554  18.687  13.557
67752W        W35970  32.202  43.844  12.575
67753W        W35971  32.472  25.211  13.298
67754W        W35972   0.880   7.777  14.312
67755W        W35973  35.858  33.045  13.896
67756W        W35974  37.025  19.166   3.725
67757W        W35975  22.457  17.793   2.334
67758W        W35976   7.006  35.729   4.182
67759W        W35977  24.023  12.657   4.042
67760W        W35978   8.349   8.888   1.450
67761W        W35979  30.585  26.477   1.346
67762W        W35980  18.138   2.168   2.796
67763W        W35981  17.639   7.796  10.443
67764W        W35982   0.319  20.837   3.383
67765W        W35983  18.142  18.070   3.169
67766W        W35984  42.431  20.575   3.167
67767W        W35985   9.388  18.180  10.922
67768W        W35986  18.224  14.747  13.795
67769W        W35987  13.109  20.280  10.614
67770W        W35988  44.720  34.439   4.191
67771W        W35989  42.945  29.380   0.053
67772W        W35990  14.028  25.274   5.312
67773W        W35991  33.053  40.942   2.206
67774W        W35992  24.325   6.604   1.254
67775W        W35993  10.596  14.204   1.485
67776W        W35994  22.348   0.928   3.708
67777W        W35995  32.293   5.234   4.063
67778W        W35996  37.790  20.251  14.935
67779W        W35997   7.192  10.594  12.319
67780W        W35998  19.479  42.914   4.989
67781W        W35999   9.973  13.030  11.194
67782W        W36000  37.836  14.826  12.567
67783W        W36001   7.763  22.052   2.692
67784W        W36002  11.798  39.085  11.160
67785W        W36003  30.987  17.686   2.645
67786W        W36004  19.933  12.192   0.885
67787W        W36005   7.932  27.933  10.637
67788W        W36006  37.503  32.261  12.940
67789W        W36007  12.156   7.693  11.614
67790W        W36008   9.781  24.259  14.252
67791W        W36009  40.699   5.418  12.605
67792W        W36010  20.152   8.126  12.431
67793W        W36011   3.278  36.881  14.281
67794W        W36012  25.104  16.788   1.727
67795W        W36013  36.318  39.921  12.495
67796W        W36014  31.560  33.223  14.135
67797W        W36015  13.659  22.781  14.844
67798W        W36016  27.815  17.829   4.610
67799W        W36017  13.752  18.150   4.529
67800W        W36018   6.253  24.524   1.787
67801W        W36019  39.872  38.581  12.124
67802W        W36020  27.045  22.451   1.440
67803W        W36021  12.237  14.563  13.991
67804W        W36022  42.457  32.361  10.749
67805W        W36023  37.145  20.346   3.136
67806W        W36024   1.910  35.691   3.142
67807W        W36025  26.501  30.174  10.730
67808W        W36026   6.402  32.482  13.989
67809W        W36027  22.750  36.673   4.562
67810W        W36028   7.317   5.220  12.397
67811W        W36029  18.592  26.699  12.128
67812W        W36030  37.948  43.678   1.514
67813W        W36031  20.769  26.646  10.666
67814W        W36032  44.853  39.321  10.771
67815W        W36033  39.520  44.267  13.008
67816W        W36034   9.220  35.528   1.017
67817W        W36035  38.905  22.100   3.237
67818W        W36036  14.060   8.640  12.880
67819W        W36037  25.679   6.203  12.633
67820W        W36038  29.330  32.564   0.874
67821W        W36039  37.840  36.487   4.704
67822W        W36040   4.057  36.313  12.992
67823W        W36041   4.247  14.129  13.879
67824W        W36042  15.883  20.196   3.333
67825W        W36043  40.069  28.572  13.378
67826W        W36044  27.676   7.868   1.002
67827W        W36045  17.721  19.670   1.814
67828W        W36046  12.564  34.658  10.677
67829W        W36047  27.496   8.257   4.348
67830W        W36048  23.441  29.096   0.770
67831W        W36049  42.653  23.694   9.842
67832W        W36050  36.619  21.620  10.892
67833W        W36051  13.839  25.208   3.802
67834W        W36052   3.409   6.446  13.047
67835W        W36053  24.923  30.150   0.421
67836W        W36054  40.083  16.577   0.689
67837W        W36055   6.302  17.004   4.022
67838W        W36056   6.626   0.600   4.621
67839W        W36057  39.885   2.220  13.881
67840W        W36058  10.958  26.975  12.867
67841W        W36059  23.334  25.474  11.432
67842W        W36060  44.600   1.767  12.583
67843W        W36061  16.235  25.277   3.265
67844W        W36062  28.020  15.894  14.507
67845W        W36063  42.767  23.132   1.284
67846W        W36064  40.339  23.585   2.702
67847W        W36065  36.500  18.112  11.575
67848W        W36066   7.973  33.158  10.438
67849W        W36067  30.350  19.185   1.907
67850W        W36068  32.432  31.085   2.832
67851W        W36069  44.753  15.049  11.164
67852W        W36070  15.389  26.449   1.258
67853W        W36071  10.297  10.094  11.468
67854W        W36072  38.407  33.080  10.624
67855W        W36073   0.892   6.229  14.946
67856W        W36074  15.856  39.714  14.012
67857W        W36075  25.231   5.908   1.227
67858W        W36076  34.393  18.514  14.878
67859W        W36077  15.552  33.660  14.964
67860W        W36078   4.955  22.176   3.253
67861W        W36079  24.062  20.260   2.913
67862W        W36080  16.247  31.640  13.910
67863W        W36081  39.522  40.865  13.779
67864W        W36082  41.424  16.188  11.832
67865W        W36083   0.887   2.342   1.890
67866W        W36084  42.495  12.773  14.004
67867W        W36085  42.353  27.738  14.884
67868W        W36086  21.025  33.412   2.252
67869W        W36087  42.475  24.989  14.259
67870W        W36088  28.951  14.674  11.205
67871W        W36089  20.746   6.356   4.955
67872W        W36090  38.693  33.545   4.679
67873W        W36091  26.541  22.161  14.156
67874W        W36092  20.182  30.643  11.125
67875W        W36093  15.407   5.768  12.542
67876W        W36094   5.158  13.134   3.709
67877W        W36095   8.464  37.416   0.259
67878W        W36096  40.007  32.157  13.869
67879W        W36097  44.158  40.390   4.231
67880W        W36098  21.621  10.122   2.345
67881W        W36099  35.561  38.959  12.842
67882W        W36100  36.812  21.980  11.226
67883W        W36101  41.394  34.626  10.653
67884W        W36102  31.363  15.708   2.891
67885W        W36103  18.961   4.633   1.352
67886W        W36104  20.802   7.198  13.383
67887W        W36105  40.401  39.448  12.431
67888W        W36106  30.944  17.067  11.227
67889W        W36107   9.401  36.814   4.074
67890W        W36108  11.701   8.788  14.344
67891W        W36109  23.743  15.125  13.104
67892W        W36110  21.229  22.962  13.003
67893W        W36111  18.760  26.043  14.385
67894W        W36112  22.333  21.607   2.173
67895W        W36113   5.995  17.997  10.242
67896W        W36114  25.264   0.187  12.146
67897W        W36115   6.589  28.956   1.899
67898W        W36116  34.918  30.969   3.188
67899W        W36117  21.772   4.495   0.917
67900W        W36118  36.938  39.920  13.574
67901W        W36119  12.348   1.461   3.737
67902W        W36120   9.197  40.181   2.694
67903W        W36121  43.523  16.744   2.126
67904W        W36122  11.655   1.343   4.214
67905W        W36123  16.520   6.996   2.925
67906W        W36124  25.762  29.407   4.574
67907W        W36125  38.830   0.784  11.246
67908W        W36126  17.647  19.799  14.336
67909W        W36127  19.535  42.257   1.129
67910W        W36128   2.991  22.713   0.878
67911W        W36129  37.547  39.033  13.815
67912W        W36130  43.430  24.896   0.323
67913W        W36131  30.458  44.341   1.725
67914W        W36132   2.814  21.404  10.631
67915W        W36133  16.569  18.553   3.377
67916W        W36134  21.338  27.438  12.554
67917W        W36135  42.751  33.586  12.583
67918W        W36136  35.597  41.337   3.360
67919W        W36137  40.012  41.809   3.578
67920W        W36138  11.509  17.651   1.610
67921W        W36139  20.037   1.317   2.838
67922W        W36140  44.801  14.546   0.913
67923W        W36141   5.990   2.700   2.803
67924W        W36142  11.994   8.802  10.923
67925W        W36143   4.163  23.239   2.599
67926W        W36144  37.813  15.362  14.351
67927W        W36145  27.702  26.517   4.548
67928W        W36146  10.309  17.768  11.204
67929W        W36147  35.425  42.993  14.411
67930W        W36148  14.252  44.134   2.405
67931W        W36149  25.011  10.219  11.221
67932W        W36150   9.712  20.501   1.707
67933W        W36151   2.519  23.873   1.107
67934W        W36152   6.242   1.725   1.782
67935W        W36153  33.150  29.510   1.240
67936W        W36154  15.266  15.354  14.626
67937W        W36155  39.386  43.319   1.333
67938W        W36156  18.798  24.829  13.461
67939W        W36157  24.692   2.133  12.618
67940W        W36158  31.625  24.265  11.133
67941W        W36159   3.436  14.359  13.561
67942W        W36160   8.730  44.409   3.746
67943W        W36161   2.976   3.902   4.824
67944W        W36162  36.514  21.566   0.538
67945W        W36163  25.446  43.323  13.501
67946W        W36164  25.184  13.682  13.022
67947W        W36165  42.319  23.109  12.136
67948W        W36166  28.906  38.419   3.221
67949W        W36167  36.367  36.018  11.950
67950W        W36168  30.969  41.541   2.666
67951W        W36169  42.295   9.260  10.822
67952W        W36170  23.449   4.235  13.924
67953W        W36171  11.023  32.242  13.052
67954W        W36172  12.331  38.044  14.446
67955W        W36173  28.449  37.854  11.665
67956W        W36174  12.322  37.413  11.158
67957W        W36175  44.678  39.846   4.089
67958W        W36176  26.980   2.833  14.894
67959W        W36177  17.257  40.018   0.856
67960W        W36178  43.466   2.720   1.708
67961W        W36179   0.274   5.344  11.091
67962W        W36180  14.278  42.913   1.284
67963W        W36181  15.308  36.750  11.136
67964W        W36182  32.679  41.937   1.515
67965W        W36183  36.804   6.186  11.165
67966W        W36184  40.732   7.742   2.747
67967W        W36185  14.276  44.782  14.690
67968W        W36186  15.057  24.866  11.804
67969W        W36187  17.620  26.610  12.568
67970W        W36188  42.517  17.206  14.893
67971W        W36189  25.626  33.066   4.139
67972W        W36190  23.424  11.812  11.040
67973W        W36191  40.755  35.505   0.310
67974W        W36192  43.576  34.360   0.757
67975W        W36193  17.063  14.730   3.129
67976W        W36194  12.230  44.170   0.400
67977W        W36195  14.196   9.349  13.934
67978W        W36196  16.800  18.571  14.816
67979W        W36197   6.241  16.702   1.104
67980W        W36198   7.248   5.176  14.813
67981W        W36199  10.560   3.925  10.350
67982W        W36200  36.252  15.507   3.741
67983W        W36201  17.644  11.900  12.162
67984W        W36202  44.886  26.014   4.373
67985W        W36203   7.772  40.531  12.571
67986W        W36204  44.198  17.641  12.781
67987W        W36205   6.132  40.937  10.644
67988W        W36206  18.244  18.603   0.700
67989W        W36207  27.085  36.596   2.923
67990W        W36208  43.269  26.959  12.517
67991W        W36209   9.305  34.309  10.624
67992W        W36210  15.011  18.318  14.220
67993W        W36211  16.791  32.597  14.035
67994W        W36212  23.905   3.268   4.770
67995W        W36213  23.118  32.437  11.501
67996W        W36214  39.055  24.499   4.563
67997W        W36215  25.525   0.202  11.278
67998W        W36216   0.304   5.345   3.646
67999W        W36217  42.713   8.549  12.560
68000W        W36218   2.241   7.465  11.649
68001W        W36219   3.187  43.027  12.105
68002W        W36220  14.144  14.619  10.776
68003W        W36221   8.407   0.935   5.020
68004W        W36222  39.003  21.044   4.542
68005W        W36223   3.291  35.331  11.974
68006W        W36224  14.157  42.546   2.108
68007W        W36225  35.110  29.644   5.059
68008W        W36226  20.562  41.000   2.795
68009W        W36227  34.886  31.634   3.780
68010W        W36228  32.516  41.148   3.764
68011W        W36229  31.387  39.376   3.163
68012W        W36230   9.122  15.702  12.783
68013W        W36231  41.062  34.362   4.907
68014W        W36232  44.301  15.949   1.566
68015W        W36233  29.491   5.661   0.439
68016W        W36234  21.578  26.520   4.094
68017W        W36235   3.878   2.257   3.220
68018W        W36236  31.886  18.598  12.010
68019W        W36237   2.733  17.603   1.278
68020W        W36238  25.559  16.028  11.946
68021W        W36239  26.343  18.679   2.898
68022W        W36240  11.634  23.107  14.650
68023W        W36241  14.707  16.751   3.698
68024W        W36242   2.013  33.114   1.659
68025W        W36243  21.977   4.311  12.051
68026W        W36244  30.331  11.816  12.480
68027W        W36245  27.478  41.636   1.542
68028W        W36246  28.553  23.877  10.712
68029W        W36247  11.677  43.017  11.539
68030W        W36248   4.422  23.241  11.697
68031W        W36249  39.260  40.560   0.730
68032W        W36250  17.966  39.369   4.499
68033W        W36251  21.905  42.501  11.752
68034W        W36252  10.229   8.919  13.898
68035W        W36253  33.460  11.848  10.640
68036W        W36254  29.021  40.514  11.248
68037W        W36255  33.566  21.088   2.802
68038W        W36256  12.863  36.368   1.975
68039W        W36257  29.140  17.316  11.162
68040W        W36258  33.940  19.202  10.714
68041W        W36259  21.787  39.481   1.864
68042W        W36260  39.449  22.026  13.511
68043W        W36261  26.231  10.701   4.670
68044W        W36262  41.003  12.817   4.664
68045W        W36263  44.426  33.550  11.185
68046W        W36264  34.047  24.590   1.082
68047W        W36265  33.874  12.397   2.218
68048W        W36266   5.665   5.420  12.922
68049W        W36267   9.050  22.968   3.954
68050W        W36268   0.983  31.903   4.591
68051W        W36269   4.857  25.775   0.796
68052W        W36270  42.715  39.049   1.689
68053W        W36271  36.538  31.873   0.215
68054W        W36272  41.430   7.693   4.679
68055W        W36273  26.470   0.124   3.249
68056W        W36274   5.994   2.544   4.340
68057W        W36275  20.039  14.393  13.862
68058W        W36276  10.171  36.121   2.447
68059W        W36277   9.254   7.869   1.697
68060W        W36278  24.060   3.211  12.011
68061W        W36279  36.417  43.863   2.582
68062W        W36280   5.286  34.415   2.252
68063W        W36281  37.021  18.114   2.661
68064W        W36282   2.620  34.847  14.409
68065W        W36283   7.406   0.324   0.099
68066W        W36284  17.213   2.807   9.910
68067W        W36285   9.718  31.730   0.408
68068W        W36286  24.906   9.692   1.899
68069W        W36287   3.204  39.504   1.630
68070W        W36288   2.830  23.751  11.703
68071W        W36289  37.470  32.850   3.880
68072W        W36290   6.264  30.152  13.779
68073W        W36291  26.013   6.901   2.205
68074W        W36292  16.996   0.857  12.823
68075W        W36293   6.510   3.173   5.138
68076W        W36294  39.000   8.662  10.617
68077W        W36295  27.159  12.710  13.317
68078W        W36296  12.253  11.540  13.545
68079W        W36297  32.039  19.454   0.835
68080W        W36298  43.387  39.594   3.292
68081W        W36299  17.179  24.433   3.637
68082W        W36300  40.422   2.267   1.831
68083W        W36301   0.295   4.372   4.057
68084W        W36302  31.295  27.186   0.320
68085W        W36303   7.744  38.670  12.168
68086W        W36304  35.626  43.038  14.891
68087W        W36305  36.118  40.717   2.211
68088W        W36306   6.806  23.353  12.133
68089W        W36307  44.353   1.256  14.561
68090W        W36308   6.205  21.300   1.742
68091W        W36309  34.022  42.325   2.722
68092W        W36310  41.408  10.730   4.489
68093W        W36311  43.242  34.692  11.563
68094W        W36312  27.658  18.699  13.923
68095W        W36313   6.475   1.148  13.878
68096W        W36314  24.167  33.154  12.006
68097W        W36315  18.276  28.560  12.882
68098W        W36316  10.160  24.445  13.201
68099W        W36317  40.515  34.421   2.921
68100W        W36318   8.630   2.966   2.803
68101W        W36319   5.625  22.538   0.516
68102W        W36320  11.667  13.004   2.282
68103W        W36321  41.793  29.627   0.292
68104W        W36322  30.725  34.251  14.496
68105W        W36323  24.600  20.418  12.065
68106W        W36324  15.728  23.508  13.581
68107W        W36325  16.798  18.275  10.748
68108W        W36326  33.572  27.073  11.858
68109W        W36327  32.226  30.135  13.080
68110W        W36328  29.077  31.634   3.656
68111W        W36329  38.080   7.300  11.054
68112W        W36330  19.333   7.372   3.719
68113W        W36331  11.700  10.793   2.523
68114W        W36332  14.345  32.114  14.033
68115W        W36333  13.307  23.478  10.736
68116W        W36334   7.409   1.295   1.245
68117W        W36335  24.119  10.794  12.032
68118W        W36336   7.405  39.422  11.860
68119W        W36337   4.588  40.442   2.373
68120W        W36338  38.511  29.057   4.134
68121W        W36339   3.580  35.897   5.073
68122W        W36340  33.275   3.684  14.332
68123W        W36341  28.627  26.249   4.648
68124W        W36342   4.719   8.475   5.062
68125W        W36343   3.530  39.744   1.294
68126W        W36344  11.835  22.293   0.946
68127W        W36345  15.695  27.659   1.873
68128W        W36346  15.502  33.773  14.458
68129W        W36347  36.865  17.429   3.221
68130W        W36348  20.601  44.830  14.424
68131W        W36349  30.449  36.912  13.596
68132W        W36350  29.629  10.265  13.336
68133W        W36351  27.726  35.520   3.573
68134W        W36352  12.693  22.236   0.541
68135W        W36353  14.314  31.990   0.031
68136W        W36354  35.875   1.646  13.382
68137W        W36355  29.076  15.717  13.418
68138W        W36356  19.063   2.018  10.265
68139W        W36357  33.009   8.368   1.391
68140W        W36358  20.846   3.237  11.233
68141W        W36359   6.508  36.895  13.096
68142W        W36360  36.908   5.997  10.668
68143W        W36361  31.905   6.943  11.480
68144W        W36362  18.081  42.213  12.555
68145W        W36363  10.314  25.648   1.450
68146W        W36364  31.901  21.351   0.359
68147W        W36365  43.374   4.405  12.853
68148W        W36366   9.928  32.901   1.282
68149W        W36367  27.129  20.573   9.651
68150W        W36368   2.916  34.211   2.606
68151W        W36369  37.339  27.687  13.752
68152W        W36370  38.423  10.157  12.646
68153W        W36371   7.715  39.802  10.996
68154W        W36372  37.925   0.958   4.220
68155W        W36373  43.861  26.267   2.366
68156W        W36374  16.740  25.405  14.207
68157W        W36375  18.498  36.510  14.789
68158W        W36376  43.546   7.587  10.447
68159W        W36377  31.056  24.617   1.747
68160W        W36378  31.534  15.198   1.242
68161W        W36379  20.194   9.623  11.724
68162W        W36380   8.770  25.466  13.981
68163W        W36381  30.044  22.585   2.570
68164W        W36382  16.686   9.874   1.649
68165W        W36383  10.466  32.451   1.690
68166W        W36384  12.653  40.920   4.484
68167W        W36385  15.311  37.615   0.937
68168W        W36386  18.041   4.318   2.774
68169W        W36387  32.510  34.029  14.433
68170W        W36388  28.591   6.515  11.410
68171W        W36389   0.996  34.923   0.904
68172W        W36390  32.554   2.561  12.862
68173W        W36391  41.533   2.403  12.845
68174W        W36392  10.038   3.420  14.149
68175W        W36393  42.490  26.046   2.147
68176W        W36394  32.843   2.172   1.738
68177W        W36395   0.372   6.288  14.914
68178W        W36396  30.017  18.485   2.245
68179W        W36397  16.630  10.298  13.590
68180W        W36398  19.226  31.837   4.222
68181W        W36399  27.489  30.572  10.544
68182W        W36400  28.040  18.612   3.645
68183W        W36401  23.415  24.562  14.955
68184W        W36402  27.466  33.878   4.079
68185W        W36403   6.801  30.618   1.228
68186W        W36404  12.176  30.914   3.236
68187W        W36405  33.468   5.107  10.916
68188W        W36406   1.914  11.727  11.220
68189W        W36407  41.572  42.273   1.440
68190W        W36408  35.104  39.759   4.136
68191W        W36409  25.659  25.967  11.044
68192W        W36410  20.403  14.554   3.615
68193W        W36411   7.912  11.346   4.002
68194W        W36412  32.905  15.623   2.008
68195W        W36413  25.568  20.969  14.319
68196W        W36414  32.397  11.818   3.178
68197W        W36415  34.928  40.796   1.853
68198W        W36416   5.720  38.024  12.889
68199W        W36417  24.721  33.982   4.815
68200W        W36418   2.068  38.575   0.874
68201W        W36419  27.231  25.594   0.522
68202W        W36420   9.363  43.771  13.827
68203W        W36421  44.823  35.788  10.922
68204W        W36422  29.715  20.811   2.206
68205W        W36423  21.745  31.546  14.375
68206W        W36424  11.583  34.424  14.478
68207W        W36425  38.685  40.519   1.410
68208W        W36426  19.780  16.691   1.763
68209W        W36427  11.826  33.583   1.776
68210W        W36428  30.589   9.901   1.353
68211W        W36429  30.635  28.797   0.953
68212W        W36430  23.184  37.088  11.575
68213W        W36431  11.306  25.631   2.895
68214W        W36432  41.569  33.184  12.493
68215W        W36433   9.414  19.138  12.519
68216W        W36434  21.159  21.572  13.071
68217W        W36435   5.049  33.127   3.198
68218W        W36436   7.469   1.127  13.953
68219W        W36437  25.550  30.631   1.921
68220W        W36438  42.550  44.873   0.290
68221W        W36439  41.617  24.628   4.310
68222W        W36440   5.827  23.042   0.923
68223W        W36441   2.819  33.350   0.369
68224W        W36442  25.622  22.751  13.993
68225W        W36443   9.921  21.545   1.762
68226W        W36444  36.203  32.993  11.983
68227W        W36445  34.552  31.076   1.178
68228W        W36446  18.598  16.120   2.254
68229W        W36447   4.360  35.560   0.956
68230W        W36448  41.844  12.720   1.722
68231W        W36449  29.462   9.105   2.362
68232W        W36450  18.418  35.353   3.020
68233W        W36451  35.944  14.382  12.365
68234W        W36452  28.064  37.276  11.924
68235W        W36453  36.345  21.728  11.334
68236W        W36454  42.406  43.375  13.155
68237W        W36455  27.909  29.104   0.793
68238W        W36456   4.499   8.075  13.431
68239W        W36457  32.364   9.833  14.745
68240W        W36458  13.605  30.427   0.856
68241W        W36459   0.417  14.000   1.346
68242W        W36460   5.485  13.136   4.548
68243W        W36461   6.980  30.127   3.616
68244W        W36462  27.394  33.026  11.462
68245W        W36463   1.742  40.768   3.657
68246W        W36464   8.182  10.940  13.412
68247W        W36465  15.099  35.661   0.878
68248W        W36466  21.713  29.900   2.825
68249W        W36467  22.637  42.525  13.681
68250W        W36468  19.624  37.280   3.259
68251W        W36469  43.673  40.273   2.745
68252W        W36470  13.335  42.729   5.089
68253W        W36471   2.901  25.433   3.323
68254W        W36472  11.459  41.931  12.124
68255W        W36473   9.633  16.403  11.907
68256W        W36474  22.683  18.559  14.341
68257W        W36475  35.803  20.030  14.311
68258W        W36476  42.882  12.821  11.717
68259W        W36477   3.241  14.788   4.940
68260W        W36478  43.335  26.364  11.635
68261W        W36479  28.199  32.944  13.618
68262W        W36480  41.727   9.618   2.822
68263W        W36481  28.254   9.180   1.878
68264W        W36482  25.456  11.336   4.694
68265W        W36483  12.783  19.081  10.964
68266W        W36484  10.447  13.869  13.406
68267W        W36485  39.421  21.069  13.574
68268W        W36486  31.362  10.646   0.322
68269W        W36487   5.417  11.341   4.132
68270W        W36488  41.430  17.697  11.203
68271W        W36489   9.773  39.812   3.205
68272W        W36490   2.380  12.182   2.357
68273W        W36491  35.951  18.733   4.071
68274W        W36492  30.922  14.763  10.116
68275W        W36493  30.269  15.855   5.235
68276W        W36494  38.913  18.349  10.282
68277W        W36495   2.207  24.016   1.458
68278W        W36496  24.603  14.717   4.535
68279W        W36497   2.687   8.097   0.831
68280W        W36498   3.790  42.976   2.795
68281W        W36499   2.502   7.200   1.521
68282W        W36500  36.018  44.561   1.832
68283W        W36501  36.463  36.750   0.753
68284W        W36502  28.830  43.911  12.924
68285W        W36503   7.673  42.523  12.082
68286W        W36504  18.745  27.972  11.603
68287W        W36505  18.387  27.216  13.413
68288W        W36506  43.333   1.079  12.852
68289W        W36507  17.030  12.389   4.946
68290W        W36508  30.399  35.595  11.124
68291W        W36509  10.214  15.154   1.268
68292W        W36510  31.091  13.428   4.395
68293W        W36511   9.825  23.044   1.863
68294W        W36512   3.703   6.456   1.506
68295W        W36513   2.628  20.686   3.197
68296W        W36514   9.931  13.772  13.374
68297W        W36515  22.303  33.136  14.876
68298W        W36516  23.507  29.423  14.946
68299W        W36517  35.505  20.230  10.730
68300W        W36518  44.278  20.650  13.045
68301W        W36519  19.800   1.776   3.412
68302W        W36520  21.507   2.937   1.241
68303W        W36521  14.532  25.264  11.011
68304W        W36522  37.679  42.549   5.112
68305W        W36523  17.567   5.988   1.197
68306W        W36524  11.889  17.828   3.179
68307W        W36525  34.520  12.075  10.697
68308W        W36526  41.036  18.797  12.545
68309W        W36527  14.865   6.875  11.558
68310W        W36528   7.736   3.131  13.000
68311W        W36529  29.396  26.688   2.910
68312W        W36530  28.897  35.655  12.920
68313W        W36531  12.717   0.222  12.154
68314W        W36532  38.262  18.294   3.291
68315W        W36533   1.391  44.007  12.597
68316W        W36534  32.961  26.360   0.967
68317W        W36535   2.055  34.641  13.407
68318W        W36536  27.643  20.631  12.657
68319W        W36537  42.002  20.762   2.921
68320W        W36538  22.710  16.844  12.492
68321W        W36539  29.543  34.127  13.490
68322W        W36540  41.690  26.414  13.024
68323W        W36541   7.773  10.210  13.485
68324W        W36542  41.331  34.289  13.997
68325W        W36543  41.944  38.809   0.398
68326W        W36544  38.855  35.076   0.996
68327W        W36545  34.839   5.373  13.825
68328W        W36546  23.464  42.422   4.903
68329W        W36547  24.706  32.531   0.763
68330W        W36548  10.243  18.603   3.011
68331W        W36549   2.140  14.080   5.086
68332W        W36550  20.575  44.702   0.393
68333W        W36551  40.392   2.788   3.165
68334W        W36552  37.844  17.798   4.940
68335W        W36553  32.910  33.484   3.661
68336W        W36554   2.258  16.493   2.877
68337W        W36555   4.756  30.928  12.571
68338W        W36556  32.523   1.188   3.217
68339W        W36557  26.593  41.968  12.170
68340W        W36558  32.878  42.214   2.672
68341W        W36559  40.777  10.923   0.453
68342W        W36560  26.550   2.221   1.030
68343W        W36561  43.466  11.203  11.215
68344W        W36562  43.030   9.317  11.599
68345W        W36563  27.669   4.211   0.833
68346W        W36564   0.917  23.739  12.027
68347W        W36565  29.487  25.812   3.362
68348W        W36566  34.914  35.452  11.851
68349W        W36567  18.955  18.767  10.929
68350W        W36568   8.864  17.166  12.487
68351W        W36569  15.308  17.999  10.170
68352W        W36570  17.776  24.773   0.362
68353W        W36571  10.144   9.295   0.701
68354W        W36572  40.831  10.427  11.877
68355W        W36573  40.971   5.483  10.634
68356W        W36574  17.193  38.897  11.317
68357W        W36575  30.948  19.719  14.388
68358W        W36576  42.964  18.147   1.813
68359W        W36577  43.751  33.451   2.408
68360W        W36578  33.143  39.555   3.691
68361W        W36579  44.380   0.754  14.766
68362W        W36580  16.797  36.330  13.842
68363W        W36581   4.661  12.291   0.944
68364W        W36582  30.111  12.926  12.720
68365W        W36583  40.820  19.384   0.985
68366W        W36584  41.419   5.354   4.238
68367W        W36585  41.078  21.654  12.973
68368W        W36586  24.442  15.816   2.179
68369W        W36587  18.656  16.268   3.755
68370W        W36588   7.417   7.502   0.437
68371W        W36589   8.905  25.263  13.512
68372W        W36590   4.159  34.151  11.493
68373W        W36591   9.401   7.651   0.326
68374W        W36592   5.661  30.216   4.736
68375W        W36593  42.776  30.168   4.681
68376W        W36594  23.776  21.111   0.917
68377W        W36595  23.280  15.557   0.777
68378W        W36596  30.745   6.223   3.950
68379W        W36597  34.535   0.651   2.757
68380W        W36598  38.894  37.566   4.964
68381W        W36599   2.411  33.448  14.044
68382W        W36600  43.736   7.743   0.020
68383W        W36601   1.474  36.486   2.774
68384W        W36602   7.928   2.894   3.961
68385W        W36603  40.266  19.275   1.828
68386W        W36604  17.288   3.732   1.382
68387W        W36605  19.607   5.515  10.954
68388W        W36606  25.158  27.231   3.936
68389W        W36607  22.750  25.166  13.886
68390W        W36608  31.784  29.146  13.809
68391W        W36609  38.799  28.541  14.416
68392W        W36610  24.702   1.954   3.723
68393W        W36611  15.490  17.822  13.510
68394W        W36612  23.728   9.907   2.717
68395W        W36613  34.382  37.472  11.631
68396W        W36614   1.837  31.953   1.552
68397W        W36615  21.234  21.948  13.930
68398W        W36616  25.563  43.650  12.743
68399W        W36617  16.761  22.686  10.430
68400W        W36618  37.211  33.111   9.963
68401W        W36619  33.627  11.894  11.326
68402W        W36620  26.964  28.397   3.407
68403W        W36621  26.053  10.588  12.054
68404W        W36622  36.618  41.048  14.121
68405W        W36623  10.607  31.442  14.398
68406W        W36624  29.391  42.812   4.214
68407W        W36625  13.599  33.862   4.130
68408W        W36626  27.548  31.279  14.900
68409W        W36627  14.755  19.412   5.365
68410W        W36628  28.560  35.492   2.745
68411W        W36629   4.444   7.341  13.886
68412W        W36630  37.429  23.606   4.604
68413W        W36631  20.632   0.970   3.239
68414W        W36632  12.278   9.340  14.060
68415W        W36633  29.235  22.570   1.975
68416W        W36634  38.754  27.856  12.530
68417W        W36635  23.597   7.602   1.214
68418W        W36636   3.239   5.711   1.213
68419W        W36637  31.131  19.154   2.286
68420W        W36638  15.371   0.856  14.997
68421W        W36639  39.356   5.432   3.409
68422W        W36640  14.623   5.544  12.495
68423W        W36641  36.131  31.000   0.955
68424W        W36642  39.181  23.685  13.039
68425W        W36643  21.269  40.765  12.445
68426W        W36644  22.725  29.474  12.008
68427W        W36645  19.746  23.059   0.648
68428W        W36646  14.444  15.716   4.518
68429W        W36647  39.356   6.799   3.312
68430W        W36648  31.993  23.088   0.779
68431W        W36649  24.981  34.609   0.748
68432W        W36650  41.800  16.667  11.080
68433W        W36651   7.809   3.262   0.295
68434W        W36652  33.031  34.790  12.879
68435W        W36653  42.564   6.594  12.552
68436W        W36654  31.855   8.345  12.137
68437W        W36655  30.520  19.658  12.850
68438W        W36656  38.417  35.470  13.952
68439W        W36657  38.015  28.433   3.610
68440W        W36658  16.545  44.335   3.293
68441W        W36659  20.624   2.148   1.868
68442W        W36660  25.795  31.575   3.391
68443W        W36661  11.693  23.088   3.706
68444W        W36662  23.381  29.761   2.403
68445W        W36663  15.168  25.640   3.686
68446W        W36664  44.636  38.026  12.818
68447W        W36665  37.681   5.340  10.643
68448W        W36666  13.931   7.356   1.223
68449W        W36667   7.310  26.145   4.769
68450W        W36668  44.087  10.159   5.081
68451W        W36669  20.363  33.127  13.591
68452W        W36670  21.084  17.646   3.766
68453W        W36671  20.042  10.893   0.201
68454W        W36672  11.407  37.528   1.233
68455W        W36673  32.092   9.962   1.181
68456W        W36674  40.633  14.544   3.317
68457W        W36675   0.207  44.410   3.090
68458W        W36676  19.792   1.727  12.805
68459W        W36677   9.332   7.236  12.523
68460W        W36678  44.692  11.300   3.875
68461W        W36679   5.285  24.638   2.885
68462W        W36680   4.633  37.740  11.289
68463W        W36681   1.754   3.370  13.557
68464W        W36682  31.827  12.079   2.304
68465W        W36683  16.117   2.044   3.267
68466W        W36684  12.729  14.343   2.775
68467W        W36685   9.270  37.319  12.463
68468W        W36686  37.723  41.400   4.711
68469W        W36687  14.881  16.234   0.735
68470W        W36688  41.625  21.745  13.053
68471W        W36689   8.821   4.867   0.523
68472W        W36690  15.123   1.731  13.987
68473W        W36691  15.107   2.433  10.218
68474W        W36692   1.788  27.321  14.012
68475W        W36693  41.823  28.695  12.879
68476W        W36694   3.345  38.302  11.515
68477W        W36695  24.519   9.240   0.495
68478W        W36696  33.661  25.748  13.440
68479W        W36697   9.766  36.531   4.753
68480W        W36698  40.572  39.044  13.909
68481W        W36699  38.402  24.923   4.901
68482W        W36700   0.317   3.919   2.401
68483W        W36701  12.336  43.773   4.196
68484W        W36702  33.619  16.115  11.088
68485W        W36703  44.986  19.251  12.205
68486W        W36704   2.467  33.132   1.935
68487W        W36705   1.496  17.261   4.841
68488W        W36706  39.383  13.339   4.156
68489W        W36707  43.021  43.777  14.384
68490W        W36708  42.618  43.245   4.974
68491W        W36709   4.285  34.639   3.820
68492W        W36710  40.978  29.926   3.388
68493W        W36711  22.088   9.598   1.798
68494W        W36712   6.488  13.277   1.497
68495W        W36713  30.610   0.490  10.767
68496W        W36714  31.551   9.211  14.584
68497W        W36715   6.114  10.429   0.266
68498W        W36716  41.376   6.069   5.129
68499W        W36717   6.864   3.766  13.538
68500W        W36718  17.299  38.124  13.125
68501W        W36719  35.031   5.357   4.460
68502W        W36720  14.396  30.516  10.985
68503W        W36721  32.120  41.031   2.653
68504W        W36722   4.126  25.122   1.407
68505W        W36723  20.214   5.233  10.947
68506W        W36724   8.116  14.918   1.363
68507W        W36725  14.641  36.118   2.525
68508W        W36726  22.666  40.589   4.179
68509W        W36727  19.446   5.327   0.976
68510W        W36728  37.934  43.046  10.691
68511W        W36729  11.718  42.323   2.147
68512W        W36730  26.187  22.659   1.727
68513W        W36731  37.775  17.232  13.532
68514W        W36732  13.628  18.154  11.581
68515W        W36733  38.954  14.513  14.935
68516W        W36734  40.117  23.137   2.828
68517W        W36735  21.244  18.302  12.522
68518W        W36736  16.401   7.694   4.243
68519W        W36737  21.651  41.531   3.016
68520W        W36738  33.370  44.327   1.286
68521W        W36739   1.142  22.963  12.609
68522W        W36740   5.401  40.408  10.257
68523W        W36741  36.092  22.195   2.975
68524W        W36742  43.086   8.782   3.802
68525W        W36743  13.321  40.303  13.575
68526W        W36744  24.658   6.943   1.456
68527W        W36745  13.089   1.467  13.732
68528W        W36746   0.449  35.399   3.220
68529W        W36747  40.340   0.839  12.150
68530W        W36748  44.385  26.163  12.680
68531W        W36749  42.687  36.636   2.670
68532W        W36750   5.843  26.384  13.403
68533W        W36751  29.038  23.697  10.312
68534W        W36752   1.972  43.328   0.949
68535W        W36753  20.826   4.966  11.138
68536W        W36754  10.413  16.504   0.399
68537W        W36755  17.762  35.754   2.302
68538W        W36756  42.956  41.978   3.295
68539W        W36757  37.477   8.430  12.109
68540W        W36758  14.448   2.481   4.603
68541W        W36759   9.879   9.267  14.133
68542W        W36760  34.539   9.182   0.355
68543W        W36761  19.763  36.255   4.669
68544W        W36762  16.162  26.157  14.466
68545W        W36763  17.618   4.900   4.485
68546W        W36764  23.008   2.850   1.143
68547W        W36765  14.454  21.049  10.096
68548W        W36766  31.003  40.256   0.364
68549W        W36767   4.751   6.441  13.979
68550W        W36768  11.387  20.292  11.646
68551W        W36769   6.969  21.997  11.677
68552W        W36770  34.908  11.336   0.438
68553W        W36771  29.744  33.529   1.922
68554W        W36772  16.532  22.160  12.591
68555W        W36773  25.971  25.030  11.060
68556W        W36774  40.901  25.910   1.468
68557W        W36775   1.225  41.827   1.195
68558W        W36776  38.129   6.432   3.710
68559W        W36777  21.834  40.742   3.844
68560W        W36778  17.221  12.171   0.381
68561W        W36779   6.144   2.982  14.512
68562W        W36780  29.146  43.220   3.246
68563W        W36781  14.329  30.864   2.944
68564W        W36782   3.275  12.037   2.874
68565W        W36783  35.021  36.825   0.364
68566W        W36784  16.099  31.064  13.200
68567W        W36785   5.246   0.455   2.847
68568W        W36786  27.594  31.142  10.724
68569W        W36787  24.635  42.426   0.993
68570W        W36788   6.040  18.965  11.150
68571W        W36789   7.319  40.691  13.753
68572W        W36790  11.507  33.546  10.834
68573W        W36791  28.091   9.449  14.452
68574W        W36792   6.266  36.038   0.049
68575W        W36793  33.485  23.209   0.343
68576W        W36794  31.136  36.530  10.754
68577W        W36795  30.091  11.260  14.050
68578W        W36796   6.912   5.826  12.176
68579W        W36797  22.961  17.745   3.199
68580W        W36798  32.057  27.955  14.458
68581W        W36799  42.236   9.441  13.456
68582W        W36800  10.173   5.395  11.903
68583W        W36801  33.364  15.642  12.368
68584W        W36802  19.996  26.438  11.279
68585W        W36803  38.992  11.633   2.873
68586W        W36804   3.351  12.588   0.936
68587W        W36805  29.061   9.863  10.386
68588W        W36806  39.388  17.435  12.616
68589W        W36807  25.242  42.981   4.634
68590W        W36808   9.713  29.692   1.328
68591W        W36809  10.664  25.752  13.409
68592W        W36810   1.013  21.095  14.462
68593W        W36811  15.308  32.604   4.206
68594W        W36812  44.844  25.536   0.726
68595W        W36813   2.993  24.748  14.983
68596W        W36814   9.458   9.626  11.135
68597W        W36815  40.334  13.173   1.383
68598W        W36816  34.493   9.573   4.113
68599W        W36817  21.987  33.348  12.054
68600W        W36818  35.537  24.208  10.723
68601W        W36819  40.052  18.295   4.350
68602W        W36820  23.580  18.670   4.385
68603W        W36821   6.973  33.884  11.133
68604W        W36822  33.559  32.295   3.370
68605W        W36823  32.460  30.929  13.394
68606W        W36824  12.509  22.197  12.778
68607W        W36825  37.125   6.273  13.593
68608W        W36826   3.471   7.759   1.047
68609W        W36827  37.819  28.062   2.949
68610W        W36828  41.741  28.813   4.618
68611W        W36829  23.170  43.950  10.968
68612W        W36830  37.531   0.181   4.125
68613W        W36831   6.077  21.449  11.735
68614W        W36832  34.613  30.766  13.334
68615W        W36833   1.406  38.587   0.825
68616W        W36834  11.646  11.658   2.277
68617W        W36835   1.315  35.871   1.274
68618W        W36836  43.556  41.170  11.223
68619W        W36837   4.502  14.928  14.493
68620W        W36838  40.019  40.773  14.402
68621W        W36839  21.969  40.453   2.669
68622W        W36840  27.274  13.709  14.852
68623W        W36841  28.851   4.812   2.818
68624W        W36842  23.800   8.704   3.665
68625W        W36843   1.148  37.658   1.665
68626W        W36844   7.739  18.282   1.936
68627W        W36845  24.092  29.752   0.712
68628W        W36846  18.559  37.097  12.486
68629W        W36847   2.355  44.469  12.544
68630W        W36848  31.167   7.928   0.419
68631W        W36849   0.320   6.658  12.547
68632W        W36850  12.953  25.066  12.711
68633W        W36851   1.249  28.600   0.820
68634W        W36852  20.410   5.261  10.474
68635W        W36853  44.722   4.779  13.538
68636W        W36854  33.644  31.770  12.613
68637W        W36855  18.444  25.043  13.101
68638W        W36856  24.440  25.972  13.976
68639W        W36857  24.980  44.381   0.801
68640W        W36858  43.283  39.287   4.246
68641W        W36859  16.643  15.129  11.425
68642W        W36860  27.643  25.219  12.862
68643W        W36861  14.598  43.699  11.159
68644W        W36862  16.383  35.058   0.261
68645W        W36863  44.915  10.374   4.786
68646W        W36864  41.234  25.569  11.610
68647W        W36865  32.629  23.518  10.721
68648W        W36866  17.545  11.165   2.245
68649W        W36867  37.971  34.599  11.644
68650W        W36868  25.807   0.204   0.309
68651W        W36869  28.620  23.930  13.797
68652W        W36870   8.317  16.104   2.718
68653W        W36871  34.657  17.400   3.193
68654W        W36872  25.996  26.648   2.365
68655W        W36873  41.344  19.957  12.951
68656W        W36874  18.327   0.408  13.188
68657W        W36875  42.472  35.444   1.191
68658W        W36876  32.625  18.713  13.420
68659W        W36877  41.533  43.706   0.302
68660W        W36878  28.540  42.214  12.551
68661W        W36879  26.745  25.492   0.938
68662W        W36880  43.470  22.796  13.862
68663W        W36881  11.773  18.818   4.206
68664W        W36882  24.138   5.424  11.089
68665W        W36883  30.932  27.154  12.933
68666W        W36884  13.832  39.776   0.263
68667W        W36885  14.876   3.788  14.241
68668W        W36886  34.955   1.984   5.059
68669W        W36887   1.162  39.149  13.095
68670W        W36888   1.254  34.176  13.411
68671W        W36889  33.847  15.102  11.166
68672W        W36890  26.431  42.598   1.279
68673W        W36891   4.488   4.446   3.137
68674W        W36892  30.685  30.432   2.839
68675W        W36893  14.061  33.188  12.478
68676W        W36894   9.575   8.289  13.926
68677W        W36895  37.251  23.304   2.662
68678W        W36896  28.111   4.654  13.901
68679W        W36897  33.062   2.024   3.755
68680W        W36898  33.389  29.741   1.852
68681W        W36899  23.546   8.242  12.880
68682W        W36900   8.428   7.452  12.704
68683W        W36901   8.462  17.872   4.045
68684W        W36902   6.648  39.322   3.364
68685W        W36903  32.461  20.732   0.660
68686W        W36904   7.945  40.518  11.619
68687W        W36905  18.108  14.141   2.601
68688W        W36906  43.016  31.121  10.970
68689W        W36907  39.347  33.932   0.789
68690W        W36908  26.397  36.071  13.320
68691W        W36909  25.843  13.548   1.759
68692W        W36910  27.177  38.470   3.713
68693W        W36911   4.834  28.247  13.799
68694W        W36912  11.915   2.170  12.441
68695W        W36913  34.516  30.381   0.125
68696W        W36914  30.896   4.598   4.037
68697W        W36915  40.880  39.446   2.980
68698W        W36916  27.507   0.983  10.651
68699W        W36917  37.596   4.117   2.150
68700W        W36918  33.844  36.840   3.299
68701W        W36919  18.659  36.624   1.275
68702W        W36920  23.041  19.312   3.606
68703W        W36921  14.528   1.736   0.507
68704W        W36922  36.377  12.877   0.355
68705W        W36923  32.743  21.813   3.864
68706W        W36924  29.684  26.077   4.537
68707W        W36925  31.198   1.275   4.642
68708W        W36926  44.534  15.796   4.081
68709W        W36927  37.364  41.318   4.325
68710W        W36928   9.085  40.845  11.339
68711W        W36929  40.820   4.718  12.900
68712W        W36930  14.932  12.538   1.239
68713W        W36931   0.671  20.027  11.132
68714W        W36932   2.316   0.588  14.391
68715W        W36933   1.893  35.268   4.046
68716W        W36934   2.959  36.128   3.760
68717W        W36935  36.344  18.287  12.022
68718W        W36936  12.597  39.413  11.701
68719W        W36937  25.209  22.437   3.447
68720W        W36938  11.924  18.126  10.705
68721W        W36939  33.021  12.190  10.555
68722W        W36940  25.754  34.178   2.371
68723W        W36941   6.287  26.631   1.441
68724W        W36942  11.021  44.886  12.391
68725W        W36943  10.727  30.566   1.029
68726W        W36944  36.103  31.487  14.369
68727W        W36945  21.246   1.802   3.991
68728W        W36946  12.308  39.003  11.005
68729W        W36947  15.568  18.391  10.648
68730W        W36948  11.709   0.519  11.056
68731W        W36949  26.717   5.767   4.074
68732W        W36950  30.921  27.420   0.981
68733W        W36951  34.663  10.775   0.927
68734W        W36952   8.117   8.948  12.566
68735W        W36953  20.942  20.162   4.753
68736W        W36954  42.881  19.523  12.530
68737W        W36955  11.577  40.596  14.823
68738W        W36956  21.639  33.309   4.454
68739W        W36957  33.030  22.122   3.569
68740W        W36958  16.818   1.882   2.195
68741W        W36959   6.406  41.528  11.318
68742W        W36960  27.684  41.434   4.164
68743W        W36961  14.262  27.995   4.593
68744W        W36962  40.930   4.285   4.428
68745W        W36963  44.216   4.797  14.941
68746W        W36964  29.009  22.021   4.004
68747W        W36965  14.684  24.456  11.433
68748W        W36966   7.804   7.289   3.908
68749W        W36967   0.933  31.143  10.525
68750W        W36968  26.657  34.238  10.253
68751W        W36969  14.183  43.370  11.126
68752W        W36970  16.295  20.282   1.563
68753W        W36971   5.957  41.502  11.588
68754W        W36972   0.909  43.084  13.059
68755W        W36973  34.844  12.200  11.692
68756W        W36974  42.131  36.530   2.391
68757W        W36975  15.479   3.339  13.914
68758W        W36976   5.486   4.764   4.507
68759W        W36977  34.515  22.721   0.753
68760W        W36978  37.099  32.157   2.269
68761W        W36979   7.913  24.933   3.664
68762W        W36980   0.292  22.784   0.827
68763W        W36981  35.522  27.431   3.085
68764W        W36982  27.880  26.481  11.597
68765W        W36983  18.050  15.974   1.694
68766W        W36984  24.498  24.104  12.450
68767W        W36985  36.495   6.635  11.184
68768W        W36986  31.997   7.097   1.700
68769W        W36987   3.390  23.293  14.479
68770W        W36988  41.281  33.158  11.089
68771W        W36989   6.296  40.918   4.058
68772W        W36990  41.866   7.579  14.125
68773W        W36991  37.554  41.985   3.772
68774W        W36992  33.353  18.592  14.744
68775W        W36993  21.171  38.284   0.972
68776W        W36994  41.339  32.028   2.396
68777W        W36995  23.702   8.181   0.457
68778W        W36996  33.232  10.068   2.760
68779W        W36997  33.572   8.317  14.312
68780W        W36998  17.079  10.174   4.627
68781W        W36999  43.923   5.796   4.254
68782W        W37000  43.059  15.655  12.410
68783W        W37001  14.639   6.973  13.967
68784W        W37002  36.948  14.779   3.635
68785W        W37003  18.280   9.350  10.679
68786W        W37004  39.339  41.158   2.283
68787W        W37005   8.775  28.631  13.291
68788W        W37006  27.989   6.816   3.274
68789W        W37007   7.254  23.551  11.986
68790W        W37008   4.542  36.154   4.899
68791W        W37009   2.827   7.437   1.204
68792W        W37010  16.154   7.284   1.972
68793W        W37011   0.423   3.304  14.384
68794W        W37012  12.366  30.892  11.644
68795W        W37013  33.071  33.113  13.534
68796W        W37014   9.357   9.656  12.153
68797W        W37015   7.865  39.680  11.991
68798W        W37016  38.387   1.161   3.268
68799W        W37017  39.769  21.397   2.229
68800W        W37018  19.710  42.006  13.099
68801W        W37019  41.637  35.629   1.395
68802W        W37020  21.592   3.482   3.803
68803W        W37021  27.167  29.511   2.900
68804W        W37022  35.544  44.961   4.607
68805W        W37023  35.421  31.462   2.488
68806W        W37024  11.311  24.716   3.342
68807W        W37025  24.080  26.441   3.729
68808W        W37026  24.400  14.368   2.339
68809W        W37027  43.370  32.369   2.687
68810W        W37028  17.365  44.410  14.229
68811W        W37029   2.909  18.095  14.345
68812W        W37030  22.398  27.170   1.317
68813W        W37031  37.525   8.404  14.890
68814W        W37032   4.015   4.778  14.415
68815W        W37033  43.879  23.942   0.312
68816W        W37034  29.797   0.263  11.276
68817W        W37035  42.194   8.436  12.599
68818W        W37036  23.623  30.274   0.373
68819W        W37037  10.397  20.145  12.396
68820W        W37038  11.819  37.103  11.191
68821W        W37039  44.368   7.791  11.447
68822W        W37040  28.626   8.739   2.321
68823W        W37041  32.588  15.587   0.685
68824W        W37042  36.480  44.201   4.661
68825W        W37043  35.490  31.461  13.552
68826W        W37044  28.919  25.099  11.101
68827W        W37045  19.077  28.919   0.336
68828W        W37046   6.646  24.495  13.508
68829W        W37047  31.489   8.230  14.419
68830W        W37048   9.418  19.040   4.263
68831W        W37049  23.348   9.417   1.308
68832W        W37050  41.503   1.457   1.181
68833W        W37051  13.326  27.445   1.804
68834W        W37052  24.681  42.341   3.959
68835W        W37053   0.530  23.035  10.516
68836W        W37054  15.404  25.916   4.059
68837W        W37055  18.646  34.817   4.179
68838W        W37056  26.879  41.642  11.644
68839W        W37057  13.702   3.135  12.547
68840W        W37058  26.519  10.764   2.800
68841W        W37059  10.084  38.120  11.008
68842W        W37060  44.966  14.243   4.273
68843W        W37061   0.295  24.261  14.025
68844W        W37062  24.522   4.386   3.652
68845W        W37063  44.999  16.143   3.446
68846W        W37064  23.972   0.433  12.245
68847W        W37065  39.453  20.620   0.941
68848W        W37066  10.859  26.990  14.025
68849W        W37067  37.406  16.170  14.336
68850W        W37068  33.105  21.181  13.463
68851W        W37069   2.195  37.332  14.121
68852W        W37070   5.135  35.509   4.640
68853W        W37071  35.062  13.515  12.009
68854W        W37072  27.831   5.338   3.683
68855W        W37073  13.040  22.598  12.577
68856W        W37074  21.870  27.556  11.089
68857W        W37075  40.955  11.939  14.777
68858W        W37076  18.736  42.976   2.667
68859W        W37077  26.978  37.107  11.302
68860W        W37078  30.219  30.913  11.039
68861W        W37079   2.925  16.909   3.325
68862W        W37080  37.426  39.603   3.577
68863W        W37081  35.470  27.417   0.791
68864W        W37082   0.110  41.864   4.180
68865W        W37083  44.238   9.396   4.166
68866W        W37084  10.104  29.527   3.279
68867W        W37085  22.141  25.712  10.712
68868W        W37086  28.115  35.135   3.215
68869W        W37087  41.491  34.518   4.127
68870W        W37088   8.372   2.191   0.694
68871W        W37089  24.510  17.192  13.304
68872W        W37090  16.091   9.318   0.214
68873W        W37091  42.337   3.038   2.251
68874W        W37092  39.490  23.113   5.032
68875W        W37093  20.812  13.078   2.992
68876W        W37094  10.314  11.168  14.769
68877W        W37095  14.644  42.398   1.940
68878W        W37096   6.122  41.076   2.647
68879W        W37097  18.035  11.794   1.246
68880W        W37098  20.772  22.564  11.443
68881W        W37099  31.651  37.042  12.361
68882W        W37100  21.465  23.290  13.312
68883W        W37101  23.747  41.546   1.843
68884W        W37102  42.468  39.420  11.635
68885W        W37103   7.399  43.365   0.372
68886W        W37104  43.790  43.938  10.543
68887W        W37105   7.421  32.045   2.808
68888W        W37106  33.990  11.437  13.605
68889W        W37107  41.995  29.902   3.118
68890W        W37108  29.976  16.551   3.629
68891W        W37109   9.105  34.654  13.932
68892W        W37110  44.796  43.330  11.146
68893W        W37111  10.133  34.310  14.482
68894W        W37112  39.892   3.957   3.685
68895W        W37113  31.845   0.962  10.427
68896W        W37114  39.491  39.652   3.684
68897W        W37115  40.427  36.604  14.990
68898W        W37116  31.007  29.403  14.027
68899W        W37117  18.939  14.116  12.062
68900W        W37118  13.296  11.266   2.510
68901W        W37119  30.941  31.653  10.598
68902W        W37120  11.591  34.602   3.226
68903W        W37121  29.319  19.953   2.489
68904W        W37122   9.114  40.457   4.546
68905W        W37123  20.208  14.821   0.055
68906W        W37124  29.200   3.757   0.431
68907W        W37125  33.455   6.451  14.435
68908W        W37126  30.913  22.634   0.216
68909W        W37127  37.528  18.216   5.025
68910W        W37128  40.934   2.468  14.564
68911W        W37129  13.028  37.066  11.565
68912W        W37130  15.045   7.277   3.816
68913W        W37131  25.561   8.612   4.161
68914W        W37132  23.048  33.252  13.477
68915W        W37133  21.268  28.567  14.266
68916W        W37134  39.813  31.649   3.575
68917W        W37135  19.330  16.582  12.103
68918W        W37136  27.132  12.804  11.940
68919W        W37137  28.968  30.630   3.851
68920W        W37138   0.244   9.201  14.420
68921W        W37139  31.402  39.880  14.416
68922W        W37140  19.757   8.061  10.727
68923W        W37141  43.917  36.681   4.382
68924W        W37142  37.641  16.943  11.169
68925W        W37143   2.424  28.929  11.943
68926W        W37144   2.754  27.677   4.734
68927W        W37145  18.044  37.881   0.251
68928W        W37146   6.912  43.445  11.133
68929W        W37147   9.266  41.221  10.364
68930W        W37148  15.017  25.814  13.523
68931W        W37149  27.563   8.220   1.388
68932W        W37150  13.585  20.932  12.774
68933W        W37151  41.699  18.004   4.560
68934W        W37152  44.971  10.819   1.640
68935W        W37153  29.167  37.437   1.269
68936W        W37154  41.610  20.779   2.559
68937W        W37155  19.417   3.038  10.896
68938W        W37156  23.910  42.673   2.274
68939W        W37157  22.901   8.285   0.691
68940W        W37158   4.191  39.100   3.715
68941W        W37159  43.273   7.441  11.421
68942W        W37160   8.712   9.054   1.005
68943W        W37161  22.324  28.978  13.919
68944W        W37162  18.592  29.356  14.333
68945W        W37163   3.338  17.618   3.760
68946W        W37164  26.624  16.136   2.089
68947W        W37165   7.795   6.077  13.303
68948W        W37166  10.768  36.152   1.868
68949W        W37167  29.134  12.463  11.956
68950W        W37168  25.390   9.301  13.466
68951W        W37169  44.329  43.846  13.444
68952W        W37170   9.104  14.699   1.335
68953W        W37171  36.294  39.914   2.346
68954W        W37172  10.806   4.883   4.089
68955W        W37173  37.733  22.641   4.087
68956W        W37174   0.568  32.470   2.348
68957W        W37175  41.294  37.377  12.063
68958W        W37176   9.751  18.652   3.202
68959W        W37177  28.864  26.656  13.702
68960W        W37178  41.621   1.887   0.932
68961W        W37179  32.509   1.206  14.483
68962W        W37180  20.230  26.711  12.032
68963W        W37181   8.879  10.603   2.201
68964W        W37182  24.070  34.930  13.577
68965W        W37183  30.120  22.084   2.670
68966W        W37184   3.793  43.422  11.043
68967W        W37185  20.604   5.416   2.665
68968W        W37186  36.497  40.137   4.237
68969W        W37187  26.600  11.861  13.500
68970W        W37188   6.183  19.247  13.384
68971W        W37189  28.613  16.785  10.823
68972W        W37190  16.045  17.752  13.414
68973W        W37191  43.745   8.921  11.622
68974W        W37192  36.214  41.784  14.805
68975W        W37193  18.270  24.344  14.261
68976W        W37194  12.366  33.080  11.082
68977W        W37195  20.474  22.016   0.314
68978W        W37196  27.676  41.222  14.549
68979W        W37197   8.890  33.581  10.565
68980W        W37198  35.515  37.027   2.679
68981W        W37199  30.059  20.155   1.325
68982W        W37200  29.480  25.540  12.995
68983W        W37201  25.017   5.361  12.537
68984W        W37202  35.741   2.780  14.931
68985W        W37203   3.063  41.414   1.872
68986W        W37204   8.906  34.591  12.906
68987W        W37205  43.399   2.271   0.853
68988W        W37206  25.968   9.242  13.272
68989W        W37207  28.151  10.626   2.314
68990W        W37208  40.323   0.821  14.532
68991W        W37209  43.216   2.007  12.963
68992W        W37210  10.206  11.750   1.369
68993W        W37211  10.528  44.095  14.857
68994W        W37212  38.981  39.086  13.983
68995W        W37213  39.102  18.355  11.135
68996W        W37214  40.656   1.607  14.619
68997W        W37215  18.072  35.441  14.738
68998W        W37216  20.246  13.637   1.838
68999W        W37217  31.487  23.414   1.063
69000W        W37218  11.441  38.763  14.824
69001W        W37219  21.552  23.711   0.949
69002W        W37220   0.695  11.505   1.865
69003W        W37221   6.466  44.328   4.176
69004W        W37222  39.906  24.249   0.470
69005W        W37223  15.904  14.684   0.450
69006W        W37224  21.937   4.601   3.108
69007W        W37225  14.749  30.429  11.405
69008W        W37226  14.729  27.024  14.318
69009W        W37227   9.097  34.121   9.857
69010W        W37228  33.921  37.396  12.827
69011W        W37229   7.504  33.072  14.274
69012W        W37230   4.872  36.218   1.313
69013W        W37231  23.475   3.871  10.963
69014W        W37232  10.860  15.223  14.487
69015W        W37233  18.476   1.173   1.245
69016W        W37234  16.236   6.689   0.741
69017W        W37235  34.782  26.158   3.243
69018W        W37236   7.552  35.138  11.151
69019W        W37237  16.298   5.894  11.193
69020W        W37238  27.383  23.023  11.044
69021W        W37239   6.648  21.112   3.128
69022W        W37240  10.656  39.569   1.073
69023W        W37241   7.270   4.929  11.480
69024W        W37242  39.591  20.307  12.318
69025W        W37243  21.247  30.062  12.805
69026W        W37244  41.038  30.662  14.073
69027W        W37245  30.076  36.932   3.132
69028W        W37246   8.429   2.182  10.724
69029W        W37247  13.859  14.331   0.927
69030W        W37248  16.486  15.166   4.602
69031W        W37249  21.304  14.389   0.394
69032W        W37250  27.500   4.590   4.569
69033W        W37251  11.885  21.061   2.862
69034W        W37252  11.544  39.630   2.774
69035W        W37253  27.500  33.088  10.420
69036W        W37254  19.730  28.325   0.047
69037W        W37255   1.998  27.963   4.212
69038W        W37256  12.488  23.496  13.721
69039W        W37257  25.230  37.586  12.555
69040W        W37258  10.266  36.302   4.765
69041W        W37259   5.175  37.880   0.921
69042W        W37260  36.873  20.007  14.722
69043W        W37261   5.189  34.868  14.993
69044W        W37262  20.539  16.264   4.954
69045W        W37263  31.882  34.426  10.247
69046W        W37264   3.272  23.627  11.024
69047W        W37265  44.435  15.307   3.897
69048W        W37266  18.690   3.590  13.978
69049W        W37267  19.623  18.518   3.174
69050W        W37268   6.408  32.897   3.246
69051W        W37269  27.091  31.122  13.915
69052W        W37270  36.220  42.328  11.700
69053W        W37271  14.347  29.975  13.770
69054W        W37272  40.103  20.208  11.018
69055W        W37273   2.507  38.966  12.052
69056W        W37274  23.946   9.257  13.725
69057W        W37275  36.060  37.032   4.348
69058W        W37276  42.147  11.172  10.724
69059W        W37277  34.136  14.191   2.709
69060W        W37278   5.360  23.295  13.120
69061W        W37279  31.518  39.216   4.127
69062W        W37280  24.263  29.861  11.178
69063W        W37281  22.879  34.079   4.177
69064W        W37282  16.307   8.278  11.607
69065W        W37283  37.145  23.556  13.407
69066W        W37284  21.286  43.992   0.191
69067W        W37285   4.221  34.041  12.475
69068W        W37286  30.606   9.156  10.676
69069W        W37287  10.752  34.710  14.824
69070W        W37288  22.473  42.811   3.902
69071W        W37289   2.877  19.256  13.492
69072W        W37290   2.271   0.876  10.620
69073W        W37291  30.696  17.178   3.375
69074W        W37292  42.368  27.952  13.503
69075W        W37293   9.182  19.759   0.652
69076W        W37294  34.932  33.033  10.740
69077W        W37295  12.746   7.410   4.356
69078W        W37296  12.390  35.356   2.307
69079W        W37297   2.155  11.196   3.385
69080W        W37298  28.929  10.922  13.460
69081W        W37299  36.730   3.766  11.174
69082W        W37300  15.108  12.108  12.024
69083W        W37301  24.199  38.897  13.391
69084W        W37302  35.339   2.222   4.068
69085W        W37303   5.184  41.841  11.341
69086W        W37304  22.659   8.007  12.073
69087W        W37305   8.499  38.456  11.698
69088W        W37306   8.730  15.286   0.658
69089W        W37307  22.766  34.840   3.792
69090W        W37308   0.801  18.444   3.353
69091W        W37309   2.677   7.812  14.450
69092W        W37310  42.040  16.902  12.522
69093W        W37311  10.847  10.562   3.276
69094W        W37312  27.548  43.745  10.831
69095W        W37313   4.159  35.874   3.210
69096W        W37314  28.649   7.708  11.801
69097W        W37315   2.627  40.878  13.084
69098W        W37316  25.596  42.547  14.739
69099W        W37317  30.879  29.565   2.954
69100W        W37318   5.499  20.476   4.411
69101W        W37319  39.896  37.700  13.352
69102W        W37320  27.164  13.772   1.713
69103W        W37321  27.078  13.872   3.335
69104W        W37322  31.960  37.120  11.059
69105W        W37323  29.869  42.816  14.334
69106W        W37324   6.459  17.719  14.845
69107W        W37325   7.779  39.534   2.656
69108W        W37326   5.760   1.634  11.175
69109W        W37327  31.999  34.987  14.054
69110W        W37328  35.315  40.381  14.037
69111W        W37329  32.676   2.661   1.650
69112W        W37330   0.532  20.272  14.559
69113W        W37331  13.742   1.442  11.128
69114W        W37332   5.406  22.170  12.965
69115W        W37333   1.834  19.231  12.388
69116W        W37334  14.777   0.880   9.907
69117W        W37335  11.670  25.044  13.506
69118W        W37336  40.557  38.546   2.334
69119W        W37337   8.251  42.408  13.303
69120W        W37338  40.108  14.840   1.743
69121W        W37339  25.333  34.081  12.123
69122W        W37340  42.827  13.895  13.195
69123W        W37341  44.923   5.506  13.926
69124W        W37342  39.675  41.880   1.869
69125W        W37343  19.531  29.168  13.310
69126W        W37344  20.079  15.129   3.296
69127W        W37345  40.300  14.363   4.190
69128W        W37346  38.568  36.805  12.104
69129W        W37347  29.582  18.270   4.502
69130W        W37348   8.380   1.312  11.220
69131W        W37349  12.731  13.843   2.643
69132W        W37350   9.555  38.823   3.069
69133W        W37351  42.855  40.785   1.485
69134W        W37352  17.754  21.791   0.836
69135W        W37353  40.949  19.187   1.439
69136W        W37354  24.139  14.297   1.876
69137W        W37355  44.699  19.296  10.653
69138W        W37356  27.481  40.087   1.765
69139W        W37357  34.361  29.156   3.168
69140W        W37358  22.943  17.493   0.927
69141W        W37359  20.037  20.279  12.052
69142W        W37360  12.932  20.287   3.654
69143W        W37361  15.073  30.895   0.931
69144W        W37362   4.855  17.879   4.087
69145W        W37363  41.407  12.893  13.967
69146W        W37364  26.560   7.072   1.520
69147W        W37365  38.588  30.693  13.032
69148W        W37366   0.939   8.641   4.217
69149W        W37367   8.765  16.880   0.683
69150W        W37368  26.222   4.713   3.344
69151W        W37369  25.063   4.772   1.258
69152W        W37370  44.505  16.182   3.558
69153W        W37371   2.758  28.927   4.190
69154W        W37372   6.401  23.608  13.490
69155W        W37373   0.220  14.388   2.263
69156W        W37374  22.814  30.711  10.480
69157W        W37375   1.898  32.191  12.931
69158W        W37376  31.610  44.910   2.524
69159W        W37377  36.807  22.234   0.278
69160W        W37378   7.846  31.836  10.292
69161W        W37379  30.130   2.545   4.622
69162W        W37380  31.509  40.238   3.350
69163W        W37381  30.085  23.565   1.542
69164W        W37382  12.783  44.196  13.101
69165W        W37383   3.388   1.982   2.243
69166W        W37384  19.708  44.910  13.346
69167W        W37385  40.946  19.227   0.500
69168W        W37386  29.901   4.708  10.194
69169W        W37387  41.050  19.815   4.141
69170W        W37388  27.796  16.315  14.747
69171W        W37389  42.210  11.123  11.569
69172W        W37390   7.903  32.610  12.559
69173W        W37391  29.986  26.201   0.707
69174W        W37392  11.725  42.044  12.883
69175W        W37393  39.538   0.569   4.931
69176W        W37394  34.408  44.492   4.620
69177W        W37395   6.363   5.233  10.506
69178W        W37396  27.745  27.938  11.475
69179W        W37397   3.069   3.482  13.593
69180W        W37398  38.361   1.233  14.971
69181W        W37399  15.268  41.436   3.707
69182W        W37400  42.217  22.835   4.148
69183W        W37401  21.704   5.333   4.650
69184W        W37402  27.518  17.500  12.574
69185W        W37403  33.588  38.110   2.380
69186W        W37404  28.953  23.638   0.435
69187W        W37405   3.178   5.234  10.645
69188W        W37406  29.913  40.241  14.787
69189W        W37407  19.585  27.941   0.903
69190W        W37408  27.934  25.742  10.557
69191W        W37409  34.582  30.940  11.997
69192W        W37410  33.202   5.424   4.321
69193W        W37411  28.701  41.482  14.399
69194W        W37412  41.559  36.075   1.647
69195W        W37413  17.087  26.068   0.744
69196W        W37414  18.765   0.246  11.684
69197W        W37415  16.796  43.986  14.402
69198W        W37416  27.203  31.007  11.607
69199W        W37417  18.511  28.030  12.064
69200W        W37418  28.623   5.020   3.925
69201W        W37419  42.591  19.160   1.918
69202W        W37420  25.174  12.893  13.539
69203W        W37421   8.893   8.823   2.755
69204W        W37422   0.089  44.954  14.293
69205W        W37423  29.752  12.051  10.782
69206W        W37424  15.759  14.653  14.953
69207W        W37425  11.416   1.245   0.022
69208W        W37426  13.829  16.804   0.472
69209W        W37427  29.292  11.870   5.049
69210W        W37428  37.667  22.065  14.846
69211W        W37429  21.771  15.596  12.425
69212W        W37430  40.335  35.477  12.864
69213W        W37431  27.200   8.913   4.035
69214W        W37432  18.173  32.375   4.356
69215W        W37433   7.921  35.463  12.399
69216W        W37434   5.283   3.439  14.027
69217W        W37435  20.097  15.109   1.384
69218W        W37436  40.281   9.645   1.433
69219W        W37437   4.300  34.552  13.617
69220W        W37438   6.831  12.160   0.441
69221W        W37439  34.468  39.171  13.782
69222W        W37440  12.855  43.758   2.351
69223W        W37441   1.878   2.365   3.918
69224W        W37442   5.192  22.790   1.310
69225W        W37443  20.417   7.410  11.537
69226W        W37444  11.191   5.328  11.279
69227W        W37445  18.620  23.198   3.590
69228W        W37446  40.854  41.308  14.347
69229W        W37447   8.916  14.682   0.335
69230W        W37448  18.235  20.566  14.432
69231W        W37449  43.941  19.579  13.469
69232W        W37450  39.891   5.389   2.273
69233W        W37451   3.612  28.949  12.423
69234W        W37452  12.963  37.501   1.246
69235W        W37453  12.754   1.742  11.964
69236W        W37454  38.884  31.380  14.710
69237W        W37455  38.413  15.309   0.857
69238W        W37456  38.524  26.150   4.461
69239W        W37457  27.991  10.863  13.398
69240W        W37458  38.397  42.713   3.068
69241W        W37459  36.922  35.969  10.705
69242W        W37460  21.925  17.311  12.589
69243W        W37461  40.347  41.758   3.192
69244W        W37462  20.228  34.616  14.794
69245W        W37463  14.839  18.074   0.579
69246W        W37464  27.577  21.004  11.935
69247W        W37465  29.491  40.815  12.947
69248W        W37466  32.681  33.915   1.206
69249W        W37467  30.049   0.765   1.877
69250W        W37468  33.756  31.701   2.832
69251W        W37469   4.840  26.440   2.386
69252W        W37470  39.420   0.051   2.204
69253W        W37471  31.918  26.919  13.378
69254W        W37472  42.515  11.271  11.968
69255W        W37473  26.024  38.996  14.665
69256W        W37474  17.877  15.157   0.854
69257W        W37475  23.194  19.012   4.005
69258W        W37476  44.273  23.269   2.317
69259W        W37477   7.355  22.787  13.293
69260W        W37478  27.732  34.032  14.099
69261W        W37479  18.325  12.462   4.446
69262W        W37480  17.102  27.869   1.386
69263W        W37481  21.301  26.107  12.337
69264W        W37482   6.028  22.105  11.447
69265W        W37483  29.237  35.503  14.208
69266W        W37484  40.983  25.743  12.049
69267W        W37485  11.987  34.952   4.184
69268W        W37486  42.384   2.000   0.234
69269W        W37487  41.030  44.248   1.323
69270W        W37488  13.689  32.977  12.787
69271W        W37489  27.366   4.450   0.445
69272W        W37490  40.609  22.957  12.381
69273W        W37491  26.437  41.406   1.721
69274W        W37492  35.487  34.189  14.576
69275W        W37493   1.987   3.833   3.184
69276W        W37494  21.040  10.778   3.675
69277W        W37495  31.305  25.526  13.058
69278W        W37496  18.397  28.803   4.079
69279W        W37497  39.993  10.984  12.584
69280W        W37498  10.365   9.561  10.647
69281W        W37499  34.758  29.392   2.837
69282W        W37500  20.759  31.700  11.620
69283W        W37501  44.413  14.173   4.081
69284W        W37502  39.352  44.819   0.781
69285W        W37503  19.892  41.889  12.623
69286W        W37504  27.049  43.383   4.523
69287W        W37505  18.194  33.392  13.812
69288W        W37506  17.066  26.147  13.929
69289W        W37507   0.839  14.065  10.295
69290W        W37508  33.446  30.243   3.839
69291W        W37509   8.383   4.365   2.268
69292W        W37510  10.282  22.414   5.120
69293W        W37511  14.176  10.689   3.251
69294W        W37512  32.104   5.186   4.888
69295W        W37513  17.624   1.095  14.278
69296W        W37514  30.666   3.528  13.918
69297W        W37515  40.594  39.344   1.832
69298W        W37516   4.080  40.451   9.703
69299W        W37517  27.121  44.542   0.452
69300W        W37518  25.102  15.355  10.544
69301W        W37519  15.056  18.724   0.063
69302W        W37520  41.571  17.583  14.312
69303W        W37521  37.537   2.197   3.245
69304W        W37522  31.139  27.215   4.175
69305W        W37523   0.699  39.195  12.823
69306W        W37524  43.049   8.922   1.259
69307W        W37525   0.610  16.987   4.909
69308W        W37526  19.035  12.023   1.663
69309W        W37527  17.312  19.830   4.046
69310W        W37528   2.816  21.131   4.790
69311W        W37529  44.261   3.193   1.259
69312W        W37530  32.140  33.381   1.822
69313W        W37531  44.954  24.357   1.337
69314W        W37532  20.751  10.758  14.015
69315W        W37533  29.311  37.618  14.226
69316W        W37534  20.737  18.217  14.469
69317W        W37535  27.028  30.520  13.382
69318W        W37536  10.854   5.864   0.262
69319W        W37537   6.846  13.163   2.339
69320W        W37538  27.170  10.857  13.977
69321W        W37539  11.649  10.359  12.354
69322W        W37540   1.551  40.577   1.837
69323W        W37541  20.641   2.723  12.558
69324W        W37542   2.306  21.571   2.934
69325W        W37543  20.168  30.753   3.111
69326W        W37544   7.802  24.970  11.076
69327W        W37545  30.671   6.202   2.231
69328W        W37546  39.933  17.423   4.509
69329W        W37547   7.837  16.237  12.541
69330W        W37548  32.483   7.821   1.528
69331W        W37549  44.422   3.511   9.951
69332W        W37550  16.179  12.339   1.437
69333W        W37551  28.885   4.655   4.183
69334W        W37552  15.311  25.047   1.746
69335W        W37553  42.985  24.241   3.155
69336W        W37554  30.190   6.346   3.086
69337W        W37555  21.801  10.638   3.717
69338W        W37556   0.965  29.108   4.089
69339W        W37557   8.955  42.521  13.129
69340W        W37558  38.328  12.931   3.717
69341W        W37559  27.409   4.428  11.917
69342W        W37560   7.628  41.780   3.347
69343W        W37561   9.396  21.062  14.766
69344W        W37562   1.468  14.237   0.278
69345W        W37563   2.755  13.024  12.067
69346W        W37564  18.078  26.753  12.721
69347W        W37565  34.154  36.986   2.430
69348W        W37566  26.936  20.720  11.931
69349W        W37567  32.385  38.507   0.581
69350W        W37568   7.357   8.710   1.272
69351W        W37569  15.262  39.529   4.639
69352W        W37570  30.559  24.809   2.772
69353W        W37571  15.575  38.773  14.872
69354W        W37572  14.225  17.243  10.732
69355W        W37573  23.542  23.558  14.453
69356W        W37574  22.774  15.257  14.984
69357W        W37575   4.992   1.384  11.589
69358W        W37576  29.767  17.191  11.680
69359W        W37577  13.994  17.366   5.084
69360W        W37578   3.761   6.213  11.156
69361W        W37579  39.982   6.277  11.155
69362W        W37580  30.494  30.545   2.141
69363W        W37581  23.467  24.504   2.296
69364W        W37582  10.755   5.385  13.397
69365W        W37583  20.080  23.526  13.333
69366W        W37584  16.913  40.488   1.858
69367W        W37585  29.967   0.348  14.994
69368W        W37586  38.430  29.419   1.663
69369W        W37587  12.200   8.975  12.663
69370W        W37588  36.501  32.588   3.829
69371W        W37589   6.516  29.373  13.497
69372W        W37590  38.065  22.831   4.970
69373W        W37591  35.393  28.353   0.840
69374W        W37592  27.523  23.985  14.904
69375W        W37593  16.480   3.953   3.186
69376W        W37594  39.387   9.464   1.833
69377W        W37595  15.330  12.918  12.835
69378W        W37596  36.575   4.695   1.279
69379W        W37597  42.849  13.656  10.957
69380W        W37598  11.116  42.362  14.004
69381W        W37599   6.122  29.136   1.958
69382W        W37600  12.313  16.584   3.137
69383W        W37601  13.297  37.694  12.049
69384W        W37602  34.314   0.730   2.280
69385W        W37603   5.441  37.940   3.324
69386W        W37604  14.233  21.683   2.682
69387W        W37605   9.667   4.299   2.637
69388W        W37606  26.754   4.223  13.355
69389W        W37607   1.457   2.996  14.500
69390W        W37608  29.787  16.397  12.457
69391W        W37609  33.779  35.465   3.369
69392W        W37610  21.546  22.619   0.987
69393W        W37611   7.663  34.535  12.160
69394W        W37612  43.031  16.940  13.999
69395W        W37613  14.876   3.348   4.140
69396W        W37614  15.588  10.455   2.201
69397W        W37615  43.212  20.641  11.646
69398W        W37616   6.885  12.649  10.846
69399W        W37617   1.861  35.869  12.577
69400W        W37618  34.458  43.277   3.216
69401W        W37619  12.533  28.063   0.455
69402W        W37620  23.010  20.752  10.352
69403W        W37621  31.991   3.398  14.797
69404W        W37622  40.275  16.135  14.561
69405W        W37623  38.962  13.054  11.487
69406W        W37624  15.755  44.425  13.399
69407W        W37625  18.421  31.167  13.418
69408W        W37626   2.324   8.196   4.469
69409W        W37627  40.411  23.326   0.817
69410W        W37628  13.420  17.475   1.016
69411W        W37629  21.199  15.259   4.078
69412W        W37630   4.540  12.341  12.980
69413W        W37631   4.534  13.688   0.303
69414W        W37632  30.153  24.509  11.045
69415W        W37633  36.972  25.629  14.355
69416W        W37634  40.908  36.831  14.964
69417W        W37635  44.216  37.059  10.941
69418W        W37636  32.564  25.665  12.640
69419W        W37637  20.113  44.321   1.385
69420W        W37638  14.281   2.520  14.703
69421W        W37639  20.254  20.827   3.590
69422W        W37640  21.071  31.692   1.922
69423W        W37641  22.655  39.533  12.677
69424W        W37642  29.695   5.842  10.516
69425W        W37643  11.570  42.394  14.875
69426W        W37644   8.051  26.007  12.844
69427W        W37645  20.714  42.592   3.390
69428W        W37646  39.501  27.253   3.420
69429W        W37647  25.206  41.998   3.167
69430W        W37648   0.450  43.056   1.890
69431W        W37649  44.254  34.224   2.369
69432W        W37650  40.867  28.146  11.480
69433W        W37651  44.726   2.780   1.324
69434W        W37652  27.185   6.969  13.469
69435W        W37653  35.398  24.191   1.179
69436W        W37654  27.671  13.181   4.228
69437W        W37655   9.456  41.076   2.669
69438W        W37656  13.346  44.020  13.056
69439W        W37657  10.309  31.121  10.737
69440W        W37658   8.384   8.068  11.232
69441W        W37659  40.250   7.722   1.208
69442W        W37660  18.136  28.701  13.828
69443W        W37661  20.542  23.000  14.288
69444W        W37662   7.450  44.721   5.068
69445W        W37663  21.051  13.825   4.798
69446W        W37664   3.205  14.302   2.359
69447W        W37665   1.428  35.073   3.561
69448W        W37666  36.816  35.955   1.178
69449W        W37667  16.134   8.114  11.150
69450W        W37668  34.385  37.423   1.182
69451W        W37669  16.798  11.193  12.415
69452W        W37670  19.151  21.175  11.728
69453W        W37671  18.314   8.841   0.348
69454W        W37672  27.682  39.269   1.452
69455W        W37673  35.775  43.383   4.654
69456W        W37674  36.273  42.767   0.215
69457W        W37675  14.122  12.892  11.350
69458W        W37676  17.252  17.456  11.405
69459W        W37677  38.913   1.455   5.015
69460W        W37678  19.360   0.547   2.688
69461W        W37679  34.807   9.334   3.611
69462W        W37680  39.043  13.192  10.465
69463W        W37681  35.951  28.904   1.267
69464W        W37682  24.053   8.358   1.783
69465W        W37683  24.650  30.140  13.129
69466W        W37684  15.801   5.160  14.121
69467W        W37685  44.410  17.550  10.946
69468W        W37686  14.499  31.002   3.414
69469W        W37687  28.129   4.705  10.599
69470W        W37688  35.520  18.055   1.282
69471W        W37689  28.295  12.504   2.151
69472W        W37690   1.856  26.276  12.823
69473W        W37691  11.257  14.584  13.324
69474W        W37692  42.059  35.487  13.065
69475W        W37693  22.970  31.101  11.055
69476W        W37694  15.051  40.971  11.441
69477W        W37695  28.111  17.087   0.898
69478W        W37696  35.755  36.574   2.690
69479W        W37697  40.805  10.349  12.371
69480W        W37698  39.574  21.477  12.710
69481W        W37699   3.122   6.735  10.488
69482W        W37700  27.932  41.317   5.182
69483W        W37701  15.868  43.550   1.407
69484W        W37702   7.328  34.582   0.298
69485W        W37703  13.073  25.120  14.968
69486W        W37704  16.839  43.968   5.069
69487W        W37705  31.886   6.379  11.789
69488W        W37706   2.878   6.372   1.043
69489W        W37707  26.351  23.559   2.238
69490W        W37708  42.302  34.372  11.887
69491W        W37709  31.948  30.086   4.601
69492W        W37710  12.122   8.298  10.667
69493W        W37711  15.639  33.772   2.488
69494W        W37712   0.270  12.859   0.662
69495W        W37713  29.297   6.972  14.347
69496W        W37714  39.222  10.582   4.080
69497W        W37715  36.967  30.374   4.622
69498W        W37716  10.926  40.252   3.774
69499W        W37717  11.298   0.910   1.315
69500W        W37718  43.674  29.973   3.094
69501W        W37719  34.889  21.416  14.760
69502W        W37720  37.582  29.566   3.170
69503W        W37721   4.147  31.206   4.656
69504W        W37722  41.259  34.879   3.364
69505W        W37723  32.422  38.831   3.797
69506W        W37724  42.591  42.395   1.204
69507W        W37725  14.907   3.590  11.667
69508W        W37726  31.901  26.296  11.811
69509W        W37727  30.016  37.157  13.387
69510W        W37728  18.765  10.760   1.153
69511W        W37729   9.696  12.532  12.597
69512W        W37730   2.905  43.477  14.887
69513W        W37731  22.706  39.877   3.667
69514W        W37732   4.685  10.871   2.191
69515W        W37733  41.044   6.364  13.601
69516W        W37734   3.399  20.516   3.650
69517W        W37735  15.649  29.908  11.369
69518W        W37736   1.959  41.867   2.786
69519W        W37737  23.240  43.769  13.966
69520W        W37738  20.760  24.135   1.480
69521W        W37739  34.939  32.467   0.511
69522W        W37740  35.232  23.284   0.088
69523W        W37741  26.731  17.064  12.032
69524W        W37742  13.009  44.704  12.368
69525W        W37743  26.989   7.778  14.315
69526W        W37744  26.098  38.052  13.678
69527W        W37745   2.432  24.974  12.699
69528W        W37746  25.044  25.212  11.218
69529W        W37747  37.943  12.707   2.363
69530W        W37748  20.283  36.807   2.123
69531W        W37749   2.998  28.458   4.292
69532W        W37750  21.283  35.989  13.902
69533W        W37751  21.752  25.662   4.671
69534W        W37752  18.092  21.303  11.749
69535W        W37753  29.648  37.287  13.034
69536W        W37754   4.419  18.605  12.095
69537W        W37755   0.408  40.313  11.627
69538W        W37756   8.757  23.896   1.949
69539W        W37757  24.822  15.331  14.034
69540W        W37758  41.947  30.671  13.835
69541W        W37759  28.557   0.413  12.406
69542W        W37760  23.254   5.484   0.097
69543W        W37761  22.243  14.323   1.365
69544W        W37762  41.832  22.604  13.584
69545W        W37763  22.325  29.519   4.489
69546W        W37764  26.211  28.130  13.047
69547W        W37765  10.964  14.479   0.562
69548W        W37766  34.541  41.562  11.474
69549W        W37767  14.229  21.768   0.403
69550W        W37768  41.693  37.378  10.264
69551W        W37769  23.527  24.581  11.902
69552W        W37770   1.089  40.089   2.719
69553W        W37771  10.860  16.173   5.201
69554W        W37772  30.890  39.506  13.307
69555W        W37773  33.197  15.183  13.117
69556W        W37774  41.861  12.170   1.291
69557W        W37775  41.926  40.834  13.996
69558W        W37776  27.565  19.013   1.903
69559W        W37777  40.582  10.011  12.045
69560W        W37778  23.742   6.216  11.504
69561W        W37779  40.395  34.181   4.215
69562W        W37780  17.920   4.914   3.652
69563W        W37781   0.958  37.412   4.109
69564W        W37782  21.182   5.801  10.147
69565W        W37783  18.073  39.514  11.094
69566W        W37784  12.460  26.025  11.649
69567W        W37785  20.084  29.528  12.591
69568W        W37786  26.471  29.075   2.771
69569W        W37787  31.097   3.502   2.721
69570W        W37788   3.743   8.506  11.530
69571W        W37789  15.329  36.532  10.674
69572W        W37790  42.569  17.694  10.636
69573W        W37791   7.327  11.500   2.006
69574W        W37792   2.644  14.842  14.627
69575W        W37793  39.095   4.596   4.182
69576W        W37794  28.237   1.145   0.934
69577W        W37795  23.073  39.947   2.191
69578W        W37796  24.493  41.473   0.627
69579W        W37797  25.985  14.040  13.537
69580W        W37798   5.608  30.750  11.107
69581W        W37799  15.707  40.392  10.699
69582W        W37800  33.244  12.214   4.850
69583W        W37801  38.835  44.489  11.115
69584W        W37802  23.276  34.081  13.009
69585W        W37803  11.890  32.822   0.492
69586W        W37804  33.889  38.555   0.202
69587W        W37805  23.051  19.955   4.430
69588W        W37806  22.593   9.998   4.655
69589W        W37807  33.415   7.379   2.723
69590W        W37808  27.182  16.371  14.049
69591W        W37809  40.496  19.214  12.415
69592W        W37810  37.792  30.403  11.244
69593W        W37811  32.193  20.989   4.930
69594W        W37812  42.090  30.028   0.167
69595W        W37813  30.396   9.374   0.016
69596W        W37814  36.135  44.555  12.594
69597W        W37815  17.847  27.341   2.397
69598W        W37816  43.962   2.250  10.554
69599W        W37817  10.266  21.498  10.492
69600W        W37818  16.188  19.496   4.635
69601W        W37819   8.406  33.973  11.184
69602W        W37820  27.455  15.057   1.193
69603W        W37821  29.539   1.453   4.653
69604W        W37822  41.026  29.075   1.264
69605W        W37823  30.472  37.098  11.412
69606W        W37824  36.427   0.344   5.544
69607W        W37825   5.200  40.715   0.898
69608W        W37826   6.153  23.889   1.222
69609W        W37827  22.577  19.280   2.181
69610W        W37828   2.780  28.884   2.295
69611W        W37829  26.397  27.663  10.666
69612W        W37830  21.034  21.287   3.770
69613W        W37831   1.862   8.135   2.268
69614W        W37832  30.223  32.034   4.662
69615W        W37833  22.605  11.406  11.119
69616W        W37834  17.189  43.801  11.653
69617W        W37835  32.486  30.469  12.101
69618W        W37836  21.906  35.503   3.178
69619W        W37837  22.204   5.732  12.986
69620W        W37838  15.899   5.364   0.448
69621W        W37839  43.508   1.751   3.831
69622W        W37840  10.114  15.327  11.426
69623W        W37841  24.100  23.959   1.380
69624W        W37842  17.318  31.944   3.341
69625W        W37843  24.155  24.423   1.589
69626W        W37844  21.534  36.821   1.334
69627W        W37845  44.416  40.981  11.173
69628W        W37846  33.380  25.514  14.745
69629W        W37847  26.087  19.110   3.059
69630W        W37848  12.086   6.801   3.301
69631W        W37849  38.553  23.103   3.952
69632W        W37850   3.672  18.803   4.049
69633W        W37851   9.083  43.343  11.249
69634W        W37852   6.904  36.294  12.442
69635W        W37853   9.794   3.459   2.791
69636W        W37854   0.008   0.836  14.603
69637W        W37855  16.679  24.984   0.544
69638W        W37856  34.043   6.816  13.892
69639W        W37857  22.568  11.728  10.717
69640W        W37858  44.948   1.735   2.440
69641W        W37859  14.821   2.790  11.959
69642W        W37860  31.216  18.968   3.861
69643W        W37861   8.646   8.297  12.132
69644W        W37862   3.231  12.803  11.524
69645W        W37863  29.491   1.136  10.077
69646W        W37864  10.466  18.843  11.172
69647W        W37865  29.907   1.305  14.846
69648W        W37866  24.380  25.452   2.001
69649W        W37867   0.286  13.197  13.793
69650W        W37868  38.586  31.008  14.009
69651W        W37869  41.747  43.437  11.397
69652W        W37870   3.279  39.493  10.571
69653W        W37871   6.978  20.614  11.150
69654W        W37872   4.254  29.658  14.835
69655W        W37873  23.045  27.464  13.307
69656W        W37874   3.202  38.265  12.641
69657W        W37875  35.974   1.643   2.377
69658W        W37876  15.693  28.923   2.581
69659W        W37877  14.077  32.506  13.839
69660W        W37878  36.483  39.289   1.902
69661W        W37879  42.568   2.393  14.416
69662W        W37880  16.061  26.941   1.728
69663W        W37881  26.609  37.820   4.159
69664W        W37882  39.554  24.846  10.531
69665W        W37883  23.380  34.994  13.128
69666W        W37884  22.272  13.250   3.165
69667W        W37885  27.964  24.684  12.013
69668W        W37886   8.849  25.016   3.635
69669W        W37887   6.134  27.477  11.525
69670W        W37888  15.527  15.116   4.547
69671W        W37889  35.943  44.710  12.143
69672W        W37890  10.320  15.093  10.654
69673W        W37891  30.467  41.733   2.306
69674W        W37892  31.949  16.547   0.274
69675W        W37893  18.587  44.933  12.979
69676W        W37894   5.855  36.174   0.326
69677W        W37895  37.606  14.111  14.060
69678W        W37896   4.367  23.551   1.883
69679W        W37897   8.858  24.040  11.524
69680W        W37898   2.774  37.031  10.424
69681W        W37899  22.843  35.556  10.736
69682W        W37900  44.013  12.847   1.895
69683W        W37901  43.939  28.440  11.032
69684W        W37902  28.008  22.722  11.695
69685W        W37903   9.654  17.601   4.095
69686W        W37904  42.829  40.567   0.961
69687W        W37905  33.327  44.879   0.185
69688W        W37906  25.212  37.309  12.986
69689W        W37907  38.471  26.424  10.453
69690W        W37908   1.416  32.387  13.007
69691W        W37909  26.674  15.357  12.520
69692W        W37910  39.751  20.515   2.926
69693W        W37911   6.133  24.111  10.559
69694W        W37912   1.916  26.647   3.425
69695W        W37913   6.377  40.708  14.755
69696W        W37914   9.218  11.380  12.013
69697W        W37915  12.129   3.888   4.182
69698W        W37916  31.634   4.062   1.820
69699W        W37917   6.714  44.856  11.527
69700W        W37918   8.576  22.569   1.660
69701W        W37919  34.612  42.298  12.505
69702W        W37920  20.018  37.936   2.573
69703W        W37921   8.369  42.167   2.354
69704W        W37922  29.888  35.152  14.920
69705W        W37923  40.370   4.632  10.747
69706W        W37924  39.330  12.309  11.910
69707W        W37925   3.483  20.552   1.511
69708W        W37926  40.301  31.113   0.279
69709W        W37927  27.856  18.065  10.254
69710W        W37928  21.393  40.306  10.750
69711W        W37929  14.125   5.646  11.919
69712W        W37930  27.668  35.609  13.499
69713W        W37931   8.918  18.318   5.467
69714W        W37932  19.739  44.196   3.333
69715W        W37933  27.438  13.375  10.745
69716W        W37934   7.755  30.535  14.859
69717W        W37935  34.828  40.889   0.270
69718W        W37936  21.527  27.622   3.537
69719W        W37937  18.651  34.814  13.115
69720W        W37938   4.207  20.125   1.347
69721W        W37939  20.095  14.340  14.847
69722W        W37940   3.350  30.612  10.632
69723W        W37941  23.093  33.926  14.242
69724W        W37942  12.337  44.549  13.397
69725W        W37943   6.728  31.447  13.448
69726W        W37944  34.608  40.977   2.776
69727W        W37945   2.959  17.143   4.616
69728W        W37946  35.006  23.668  13.093
69729W        W37947  33.997   6.300   3.625
69730W        W37948  16.988   0.514   3.715
69731W        W37949   5.688  24.520   3.889
69732W        W37950   1.202  34.338  13.932
69733W        W37951   3.916  43.964  12.450
69734W        W37952   0.318  38.205   0.003
69735W        W37953   7.650  40.950  11.656
69736W        W37954  25.313  30.925   0.882
69737W        W37955   0.385  12.511   4.193
69738W        W37956  19.060  23.523   3.709
69739W        W37957  31.577  10.486   4.511
69740W        W37958  44.436   0.257  13.453
69741W        W37959   3.416   7.353  12.063
69742W        W37960  21.740  13.396  11.979
69743W        W37961   8.856  42.966  12.399
69744W        W37962  34.714   4.173   0.471
69745W        W37963  37.038   2.781   0.502
69746W        W37964   5.276  13.986  13.245
69747W        W37965  32.091   4.775   0.399
69748W        W37966  26.867  37.346   5.077
69749W        W37967   9.826   4.086  11.877
69750W        W37968  27.960  25.082   2.675
69751W        W37969  33.457   2.811   3.671
69752W        W37970  14.139  30.463   3.237
69753W        W37971  17.736  41.721   0.383
69754W        W37972  31.415  31.024   1.280
69755W        W37973  22.021  39.015   3.353
69756W        W37974   5.971  22.757   1.771
69757W        W37975  25.450  13.089   3.246
69758W        W37976   2.224  35.923   2.693
69759W        W37977  40.576  35.343  14.333
69760W        W37978  15.635   2.468  13.916
69761W        W37979  21.249   7.256   1.844
69762W        W37980  25.223  29.145   4.095
69763W        W37981  32.342  26.160  11.032
69764W        W37982  43.693  14.317  10.736
69765W        W37983   1.222  12.330   4.217
69766W        W37984   3.191  31.097  14.493
69767W        W37985  19.877   8.535  14.868
69768W        W37986  43.908   8.507  13.094
69769W        W37987  19.504  43.201   3.034
69770W        W37988  29.433   9.259  10.985
69771W        W37989  30.465  43.517  13.432
69772W        W37990  44.810  24.898   3.139
69773W        W37991  31.029  34.611  11.865
69774W        W37992  24.753  19.139  12.338
69775W        W37993  20.228  24.080   2.292
69776W        W37994   1.220  42.891  10.813
69777W        W37995  41.825  29.018  14.995
69778W        W37996  25.008  40.402   0.829
69779W        W37997  28.649   2.975  11.134
69780W        W37998  15.833  11.603  12.917
69781W        W37999   1.408  25.917  12.884
69782W        W38000  38.011  17.350  14.514
69783W        W38001  44.376   0.432   2.325
69784W        W38002  19.458  33.081  11.643
69785W        W38003   7.646  35.021  11.645
69786W        W38004  23.267  12.123   4.151
69787W        W38005  29.575  27.718   1.702
69788W        W38006  19.043  22.588   0.882
69789W        W38007  16.189  35.088  10.846
69790W        W38008  25.093  29.951   4.758
69791W        W38009  14.422  10.570   4.744
69792W        W38010   3.201  42.355  14.520
69793W        W38011  16.745  36.847  11.183
69794W        W38012  42.435  19.358   3.528
69795W        W38013  29.775   4.746  13.318
69796W        W38014  31.557  16.442  11.923
69797W        W38015  39.888   1.706   0.273
69798W        W38016  43.409  27.596  12.571
69799W        W38017  30.920  36.580  14.772
69800W        W38018  33.547  14.579  11.627
69801W        W38019  18.312  35.063   1.715
69802W        W38020  17.259  32.081  11.469
69803W        W38021  39.916   1.198   0.218
69804W        W38022   8.147  26.544  10.375
69805W        W38023  30.264  21.401  13.367
69806W        W38024   3.205   8.441   2.231
69807W        W38025  14.967   1.728   4.984
69808W        W38026   3.007  37.538  14.505
69809W        W38027  29.410   4.278  11.617
69810W        W38028  26.030  42.443   3.247
69811W        W38029   4.041  24.175   2.346
69812W        W38030   9.973  32.201   0.420
69813W        W38031  41.354  18.385  11.549
69814W        W38032  30.898   4.666   3.227
69815W        W38033  23.941   6.709  14.864
69816W        W38034  21.721  21.264   0.745
69817W        W38035  24.198  29.527  12.917
69818W        W38036  26.333  13.891   0.865
69819W        W38037   5.942  26.394   4.080
69820W        W38038  21.658  41.851  10.688
69821W        W38039  30.470  37.410   4.311
69822W        W38040  13.567   0.302  12.413
69823W        W38041  43.093  24.639  12.228
69824W        W38042  30.005  36.330  13.969
69825W        W38043  21.147  16.039  13.769
69826W        W38044  27.663   0.704  12.472
69827W        W38045  12.361  28.624  12.540
69828W        W38046  29.580  13.084  14.464
69829W        W38047   4.711   0.965   1.649
69830W        W38048   5.441  33.743  13.712
69831W        W38049  24.122   1.591   4.920
69832W        W38050  26.194  13.627   0.446
69833W        W38051  34.808  16.910   1.864
69834W        W38052  38.096  44.858   0.798
69835W        W38053  30.005  33.912   4.107
69836W        W38054  20.256  24.783   3.827
69837W        W38055  26.913  41.510  10.773
69838W        W38056  16.944  17.560   2.868
69839W        W38057   8.928  32.995  14.681
69840W        W38058  39.294  10.654   0.383
69841W        W38059  20.190   6.992   2.235
69842W        W38060  30.202  21.251  14.906
69843W        W38061  35.886  38.547   2.083
69844W        W38062  31.968  40.038  12.781
69845W        W38063  29.075  32.465   2.341
69846W        W38064   6.843  21.219  12.108
69847W        W38065  13.706  31.929  12.419
69848W        W38066  28.050  16.892   2.747
69849W        W38067   0.976  17.636  13.567
69850W        W38068  30.757  22.025   3.775
69851W        W38069  11.291  24.297   4.106
69852W        W38070  18.343   8.358  11.859
69853W        W38071   5.849  31.010   1.349
69854W        W38072  30.124  10.880   0.854
69855W        W38073   0.516  38.341   0.914
69856W        W38074  29.433  25.040   4.045
69857W        W38075   0.974  30.926   3.651
69858W        W38076  29.542  10.213   4.585
69859W        W38077  29.559  37.826   0.013
69860W        W38078  18.578   7.899   3.518
69861W        W38079  26.024   8.640   3.204
69862W        W38080  39.054  19.840   4.178
69863W        W38081  36.293  12.597   2.780
69864W        W38082   6.482   3.451   4.089
69865W        W38083   8.052  40.101   1.068
69866W        W38084  43.894  29.929  12.441
69867W        W38085  35.441  36.043  11.877
69868W        W38086  41.418  43.785  13.838
69869W        W38087   0.749  32.559  12.643
69870W        W38088  25.519  30.345  13.360
69871W        W38089  24.325  13.809   1.798
69872W        W38090  18.680  25.005  13.950
69873W        W38091   4.937  44.234   3.152
69874W        W38092   6.284   9.003   2.759
69875W        W38093  37.894  13.365  14.921
69876W        W38094  13.255  33.204   1.928
69877W        W38095  25.633  15.015  14.323
69878W        W38096  15.127  23.957   3.748
69879W        W38097   1.929  26.730   3.931
69880W        W38098   9.739  40.488  14.258
69881W        W38099   2.468  13.303   1.081
69882W        W38100  31.414  21.519   3.821
69883W        W38101  19.618  16.291   2.869
69884W        W38102  44.568  33.985   2.706
69885W        W38103   1.433   4.431   2.551
69886W        W38104   1.915  32.562   0.058
69887W        W38105   1.336  21.808   2.295
69888W        W38106  18.081  18.165  13.340
69889W        W38107  16.200  40.924  14.507
69890W        W38108   3.350   3.517  12.435
69891W        W38109  44.232   8.884   2.826
69892W        W38110  23.461  43.716  14.441
69893W        W38111   7.641  36.803   2.662
69894W        W38112  36.648  12.105  12.882
69895W        W38113  13.730  19.685   1.645
69896W        W38114  31.119  14.286  10.805
69897W        W38115  15.667  38.623  12.638
69898W        W38116   1.718  26.730   2.538
69899W        W38117  36.102   9.329   0.421
69900W        W38118  30.870  37.133   0.935
69901W        W38119   1.285  16.029  13.809
69902W        W38120  42.041  15.067   0.837
69903W        W38121  10.932   2.220  12.648
69904W        W38122  29.357  22.606  11.067
69905W        W38123   0.663   3.278   2.225
69906W        W38124   2.345  40.943  13.541
69907W        W38125  27.967  40.180   3.617
69908W        W38126   1.328  26.683   0.151
69909W        W38127  44.334   9.642   4.668
69910W        W38128  29.235  35.783  11.178
69911W        W38129   2.952   6.653   0.161
69912W        W38130  17.629  11.615   0.964
69913W        W38131  22.344  23.742   3.931
69914W        W38132  12.450  43.406   2.254
69915W        W38133   7.241  19.183  11.541
69916W        W38134  30.712   1.014  12.943
69917W        W38135   3.475  25.361   3.653
69918W        W38136  32.455  29.855  13.484
69919W        W38137  24.021  42.421   1.454
69920W        W38138  18.465  37.138  14.246
69921W        W38139  44.337  11.270   2.196
69922W        W38140  44.251  18.067   0.296
69923W        W38141  23.668   8.933   4.135
69924W        W38142  22.372  33.262   9.842
69925W        W38143  42.676  29.674   1.913
69926W        W38144  31.128   6.922   1.122
69927W        W38145   7.271  32.991   0.215
69928W        W38146  35.364  17.404  10.697
69929W        W38147  11.102  33.226  10.739
69930W        W38148  32.053  37.742   4.138
69931W        W38149  22.065  22.235  11.216
69932W        W38150  38.486  39.309   0.874
69933W        W38151   8.827  19.109  13.557
69934W        W38152   2.906   3.725  12.657
69935W        W38153  27.679  13.765   3.790
69936W        W38154  42.775  19.220   0.541
69937W        W38155   5.155  38.647  12.538
69938W        W38156   4.244  25.389   0.523
69939W        W38157  36.453   8.980   5.044
69940W        W38158  27.260  39.596   1.336
69941W        W38159   8.577   5.207   1.682
69942W        W38160  15.278  41.262  14.472
69943W        W38161  10.166  17.562  14.343
69944W        W38162  41.464  41.093   0.707
69945W        W38163  30.975  43.029   0.427
69946W        W38164  39.942  22.378   4.629
69947W        W38165  19.098  23.428  14.752
69948W        W38166  36.260  12.933  12.496
69949W        W38167   8.412   1.519   4.055
69950W        W38168  36.339   9.250   3.248
69951W        W38169  26.978   0.003  12.001
69952W        W38170  25.056   2.278  10.720
69953W        W38171  20.709  36.448  11.214
69954W        W38172  33.849  10.623  12.830
69955W        W38173  29.913  30.151  13.453
69956W        W38174  24.046  10.338   2.635
69957W        W38175   0.045  11.466  11.957
69958W        W38176  29.456  40.128   3.592
69959W        W38177   2.037  25.916  10.927
69960W        W38178  22.024  15.612  14.576
69961W        W38179  21.537  34.071  11.976
69962W        W38180  12.192  19.819  14.894
69963W        W38181   7.917  15.912   3.603
69964W        W38182  30.554  10.196   0.437
69965W        W38183  27.698  43.387   3.924
69966W        W38184  21.611  20.091   0.492
69967W        W38185  37.470   8.844   2.253
69968W        W38186   3.941  30.962  11.982
69969W        W38187  25.240   2.964   2.637
69970W        W38188  17.340  29.407  13.891
69971W        W38189  14.278   8.354  12.494
69972W        W38190  19.305  28.858  11.020
69973W        W38191  19.880  20.480  11.615
69974W        W38192  28.894  44.773   4.070
69975W        W38193   8.791  14.225  13.378
69976W        W38194  17.816   9.394   2.785
69977W        W38195  15.035  22.141   4.121
69978W        W38196  11.749  17.074   4.572
69979W        W38197  42.610   0.750   3.542
69980W        W38198  35.936  29.935  11.925
69981W        W38199   7.435  21.448   1.835
69982W        W38200   2.911  40.824  12.030
69983W        W38201  11.315  27.900   1.746
69984W        W38202   8.789  16.130   1.644
69985W        W38203  36.382  23.971  12.946
69986W        W38204  29.567  30.672  11.704
69987W        W38205  19.733  17.169  10.993
69988W        W38206  35.053  14.313  12.355
69989W        W38207  37.903  17.620   2.901
69990W        W38208  31.648  25.470  10.822
69991W        W38209  16.767  41.627   3.745
69992W        W38210  44.410  28.508  12.061
69993W        W38211  38.321  42.242   3.322
69994W        W38212  39.748   9.424  11.176
69995W        W38213  27.373  37.954   2.697
69996W        W38214  36.362  30.196  12.018
69997W        W38215  15.567  13.238  10.707
69998W        W38216  39.483  28.644   4.135
69999W        W38217  38.075  44.663  10.730
70000W        W38218  10.138   1.695   1.415
70001W        W38219  13.313   1.767  11.512
70002W        W38220  37.074  29.226   0.720
70003W        W38221  29.740  30.098   3.320
70004W        W38222  25.114   2.477  14.351
70005W        W38223   7.839  10.601   3.251
70006W        W38224  30.761   5.944   1.767
70007W        W38225  18.351  16.811  11.247
70008W        W38226  24.490  21.361  11.172
70009W        W38227  36.505  40.834   0.535
70010W        W38228  28.205  11.735   0.415
70011W        W38229   3.357  28.640  12.956
70012W        W38230  14.818  38.792   3.213
70013W        W38231  24.776  43.315   1.168
70014W        W38232  31.048  38.906  14.078
70015W        W38233  14.652   3.062   2.350
70016W        W38234  16.796   8.727   0.415
70017W        W38235  25.029   7.677  14.030
70018W        W38236  42.056   8.397  14.363
70019W        W38237  35.559   3.982   0.781
70020W        W38238   0.325  18.083  14.458
70021W        W38239   6.575  10.769   1.046
70022W        W38240  28.378   8.270   3.174
70023W        W38241  16.804  32.011  11.735
70024W        W38242  42.921  21.807  12.740
70025W        W38243  30.947  16.392  10.703
70026W        W38244  18.799  40.792   1.344
70027W        W38245   4.207  39.370   0.287
70028W        W38246  26.214   5.298  12.912
70029W        W38247  25.370  41.426   0.374
70030W        W38248  30.182  44.953  10.672
70031W        W38249  19.723  38.471  13.730
70032W        W38250  14.824  39.357   1.208
70033W        W38251  42.954  34.148   2.285
70034W        W38252  21.227  23.036   4.089
70035W        W38253  35.645   6.932  12.175
70036W        W38254   7.338  38.605  10.645
70037W        W38255  34.611  28.695   3.232
70038W        W38256  28.197  31.025   0.976
70039W        W38257  22.098  36.924   2.737
70040W        W38258   4.577   5.514  12.013
70041W        W38259  28.361  33.981  12.173
70042W        W38260   2.416  26.051  12.005
70043W        W38261  17.723  31.005   4.159
70044W        W38262  30.659  39.291   2.847
70045W        W38263   8.883  31.571  14.796
70046W        W38264   6.277  12.711   2.743
70047W        W38265  44.328  19.887   1.460
70048W        W38266  12.702  29.050  14.766
70049W        W38267  22.485  33.235  13.450
70050W        W38268  44.804  35.769  12.359
70051W        W38269  37.308  39.023  11.985
70052W        W38270  18.026   7.916   5.026
70053W        W38271  16.610  29.629   1.470
70054W        W38272   8.466  30.991  11.005
70055W        W38273  13.618  26.307   3.317
70056W        W38274  44.019   9.834  13.429
70057W        W38275   2.911  28.741   3.198
70058W        W38276  11.903   8.583   0.264
70059W        W38277   4.070   8.363  13.331
70060W        W38278  36.041   1.443  10.719
70061W        W38279  34.403  22.193  11.594
70062W        W38280  10.780  44.281  12.554
70063W        W38281  28.140  27.425  13.892
70064W        W38282  43.465  40.934  12.128
70065W        W38283  30.723  23.356  13.430
70066W        W38284   0.510  30.102   0.732
70067W        W38285  28.686  44.371  12.339
70068W        W38286  13.112  23.666  11.498
70069W        W38287  33.731  41.959  12.576
70070W        W38288  15.817   9.163  13.019
70071W        W38289  15.713  17.766   1.419
70072W        W38290  40.828   5.503  13.494
70073W        W38291  38.438  20.240  11.645
70074W        W38292  20.782  18.577   0.015
70075W        W38293   4.785  37.598   1.648
70076W        W38294  22.427  24.467   2.239
70077W        W38295  15.717  13.329  13.605
70078W        W38296   2.725  36.823   0.263
70079W        W38297   1.693  10.611  14.931
70080W        W38298  34.326  23.305  11.591
70081W        W38299  17.748  28.482   0.817
70082W        W38300  32.559   8.796  14.497
70083W        W38301  35.550  40.445   3.380
70084W        W38302  21.201  37.511   4.506
70085W        W38303  26.121   1.161   2.401
70086W        W38304   5.861  27.008  14.423
70087W        W38305  31.956  33.004  13.860
70088W        W38306   1.210  20.094  11.126
70089W        W38307  25.571   7.300  13.623
70090W        W38308  29.627  15.100   2.900
70091W        W38309  16.755  26.673  11.477
70092W        W38310   3.080  34.598   3.638
70093W        W38311  44.017  15.133   4.671
70094W        W38312   4.891  21.259   1.864
70095W        W38313  12.047   0.940   0.337
70096W        W38314  30.395  14.585   0.764
70097W        W38315  39.813  36.558   2.745
70098W        W38316  41.990  28.710  11.076
70099W        W38317  25.612  15.230  10.439
70100W        W38318  26.789  12.046   3.713
70101W        W38319  34.481  42.532   3.604
70102W        W38320  32.657  43.325  11.610
70103W        W38321   0.777   4.190  13.112
70104W        W38322  43.107  38.337  14.457
70105W        W38323  27.066  28.610   0.721
70106W        W38324   1.387  44.145  12.020
70107W        W38325  21.228  37.579   1.736
70108W        W38326  24.486  24.542  13.873
70109W        W38327  17.530   3.733  13.458
70110W        W38328  28.860  43.790  12.009
70111W        W38329  22.768  22.511   0.347
70112W        W38330  33.902   1.331  12.567
70113W        W38331  21.683  33.392   2.663
70114W        W38332  41.475   1.858  13.490
70115W        W38333   3.120   7.837  12.773
70116W        W38334  12.267  15.957  13.323
70117W        W38335   3.040   5.502   0.742
70118W        W38336  29.502  30.984  12.107
70119W        W38337  31.950  41.311  13.360
70120W        W38338  11.111  38.955  13.568
70121W        W38339   4.878  44.330  14.051
70122W        W38340   2.264  37.829   3.599
70123W        W38341  12.784   2.027   1.600
70124W        W38342   7.406  41.896   0.566
70125W        W38343  40.175  10.972   4.051
70126W        W38344  31.111   8.919  11.744
70127W        W38345   1.701  18.791   2.931
70128W        W38346  11.646  15.656   4.910
70129W        W38347   1.407   1.313   3.171
70130W        W38348  43.997  16.852   4.048
70131W        W38349  10.177   8.187  11.652
70132W        W38350  32.065  43.100   1.364
70133W        W38351  22.570  12.627   4.647
70134W        W38352   5.158   6.102   4.412
70135W        W38353   2.502  33.929  11.487
70136W        W38354  19.280  44.724   4.726
70137W        W38355  21.492  26.678  13.312
70138W        W38356   8.145  35.934  13.664
70139W        W38357  37.532  34.359  14.955
70140W        W38358  39.333  34.462  14.924
70141W        W38359   5.640  11.355   0.171
70142W        W38360  37.165  41.939   3.424
70143W        W38361  36.884   6.012   3.809
70144W        W38362  12.579  30.630   3.403
70145W        W38363  34.151   8.091  11.033
70146W        W38364  42.834  20.881   3.275
70147W        W38365  25.061  37.065  10.539
70148W        W38366  12.625  32.073  14.870
70149W        W38367  29.594  16.003  12.761
70150W        W38368   8.504  30.627   2.843
70151W        W38369   4.128  33.805   3.348
70152W        W38370   9.185   1.243  13.432
70153W        W38371  18.726   4.789  13.261
70154W        W38372  40.627  10.679   4.115
70155W        W38373   2.840  25.240  12.961
70156W        W38374  18.461  36.614  11.991
70157W        W38375  31.249  16.437   9.862
70158W        W38376   5.881  28.599  10.800
70159W        W38377  25.277  37.050  13.469
70160W        W38378  39.589  23.689  14.981
70161W        W38379   4.263  12.578   4.546
70162W        W38380   2.759  29.172  13.486
70163W        W38381  34.367  36.958   1.915
70164W        W38382  44.191  13.140  12.388
70165W        W38383  20.276  19.251   0.274
70166W        W38384  40.565  10.290  10.542
70167W        W38385   2.121  13.874  11.292
70168W        W38386  36.672  11.596  11.645
70169W        W38387  18.976  24.928  12.059
70170W        W38388  35.149  34.667  13.867
70171W        W38389  12.949  33.612   2.820
70172W        W38390  31.476  36.515   2.388
70173W        W38391  41.331  42.319  11.678
70174W        W38392  40.360   7.561   3.306
70175W        W38393   6.288  24.376   1.274
70176W        W38394  23.218  22.227   0.328
70177W        W38395  30.443  20.747   3.996
70178W        W38396  19.196  20.209  11.608
70179W        W38397  22.153  35.893   1.309
70180W        W38398  17.535  34.020   1.211
70181W        W38399  14.603   3.692   0.270
70182W        W38400   8.148   1.487  14.369
70183W        W38401  26.817  21.313  13.969
70184W        W38402   3.700  36.553   3.881
70185W        W38403  36.794  39.953   1.343
70186W        W38404  32.432  25.600  10.820
70187W        W38405  24.211  19.870  11.088
70188W        W38406  31.849  29.279   3.342
70189W        W38407  37.001   3.234  12.288
70190W        W38408  32.967  31.061  10.240
70191W        W38409  21.090   2.829   0.944
70192W        W38410  37.701   6.127   3.309
70193W        W38411  12.691   3.904  10.420
70194W        W38412   2.367  38.315   3.111
70195W        W38413  11.136   7.722   3.742
70196W        W38414   4.358   0.234  12.124
70197W        W38415  34.214   6.325  14.063
70198W        W38416  14.597   6.418  11.558
70199W        W38417  19.285  39.057   4.567
70200W        W38418  41.634   9.231  11.584
70201W        W38419  10.694  34.872  11.683
70202W        W38420  22.644  27.641  12.969
70203W        W38421   1.315   0.284   3.342
70204W        W38422  27.886  43.479   1.255
70205W        W38423  23.580  29.696  14.084
70206W        W38424  37.936  16.270  14.280
70207W        W38425   4.255   6.707  11.187
70208W        W38426  31.605   3.493  12.570
70209W        W38427  31.163  27.488   3.344
70210W        W38428  35.487   9.710  13.841
70211W        W38429  40.331  22.091   3.803
70212W        W38430  29.042  38.217  12.410
70213W        W38431  35.652  22.073   2.351
70214W        W38432  44.449   2.974  14.460
70215W        W38433  35.974   3.675   0.854
70216W        W38434  39.993   9.833   3.668
70217W        W38435   9.590  19.609   0.347
70218W        W38436  23.969   1.325   3.115
70219W        W38437  29.981  28.699  12.429
70220W        W38438  11.467  19.109  10.644
70221W        W38439  12.689   6.392  13.142
70222W        W38440  10.707  41.314   3.676
70223W        W38441  44.838  36.264   4.417
70224W        W38442   4.381   7.224   0.397
70225W        W38443   8.201  24.754  14.031
70226W        W38444  14.872  31.551  10.559
70227W        W38445  25.594  18.089   2.428
70228W        W38446  31.634   8.632   0.232
70229W        W38447  38.487  27.513   1.454
70230W        W38448  21.040  12.453  13.881
70231W        W38449  10.899  35.143  12.567
70232W        W38450  40.853  28.413   1.194
70233W        W38451   8.852  43.789  13.972
70234W        W38452  41.499  44.805   4.673
70235W        W38453  16.099   1.192  12.114
70236W        W38454   0.096   8.873  14.821
70237W        W38455  42.541  11.710   3.847
70238W        W38456  27.362  44.895   3.059
70239W        W38457  33.211  42.784   3.827
70240W        W38458  26.565  31.366  12.570
70241W        W38459   5.505  30.161   4.239
70242W        W38460   4.161  40.279  14.856
70243W        W38461  26.120  29.849   1.967
70244W        W38462  34.563  44.364  13.689
70245W        W38463  28.727   7.088   2.866
70246W        W38464  35.374  11.743  13.759
70247W        W38465  13.591  21.283   3.796
70248W        W38466   9.867  43.758   4.207
70249W        W38467   5.259  11.562   3.694
70250W        W38468  43.567   4.749   4.581
70251W        W38469  44.282  38.129  11.964
70252W        W38470  38.968   2.706   0.310
70253W        W38471  34.096  28.475   1.894
70254W        W38472  37.409  14.080   3.832
70255W        W38473   6.707  10.493   3.827
70256W        W38474  44.815  14.929   4.020
70257W        W38475  12.662  13.823  14.026
70258W        W38476  39.369  23.733   0.843
70259W        W38477   0.089  31.654  12.906
70260W        W38478  18.548  43.578  11.550
70261W        W38479  25.050  37.829  13.014
70262W        W38480  17.376  12.361   3.579
70263W        W38481  33.157  41.382   4.824
70264W        W38482  25.749  35.605   3.465
70265W        W38483  37.745   0.291   1.674
70266W        W38484  24.246  42.882   4.662
70267W        W38485  29.351  43.257   2.133
70268W        W38486  33.572  28.662  12.916
70269W        W38487  15.995  28.743  12.869
70270W        W38488  40.878  31.086   2.359
70271W        W38489  19.012   6.372   1.338
70272W        W38490   8.217  23.140   4.892
70273W        W38491  41.384  18.345  14.017
70274W        W38492  19.309  36.610   4.057
70275W        W38493  27.605  39.869   2.243
70276W        W38494  26.552  26.982   3.346
70277W        W38495  10.112  37.880   1.732
70278W        W38496  38.365  12.659  13.276
70279W        W38497  35.469  44.469   4.752
70280W        W38498  39.506   0.798  12.784
70281W        W38499  28.648  17.615   3.733
70282W        W38500  40.394  17.546  11.186
70283W        W38501  29.971  42.482   4.875
70284W        W38502  16.738  30.991  13.561
70285W        W38503  11.494  10.280  13.415
70286W        W38504   5.830  10.091   1.227
70287W        W38505  20.606  41.962  10.852
70288W        W38506   7.377  36.474   3.736
70289W        W38507  17.339   7.424   0.751
70290W        W38508  16.636  36.091  14.273
70291W        W38509  18.552   3.265   3.266
70292W        W38510   5.354   5.013   0.679
70293W        W38511  19.639   2.182  12.599
70294W        W38512  44.022   8.850   0.906
70295W        W38513  18.217  19.832   1.757
70296W        W38514   1.354   6.942   1.364
70297W        W38515   4.611  41.799   4.300
70298W        W38516  15.556  29.677  13.158
70299W        W38517  15.727  19.298   2.345
70300W        W38518   3.442  18.793  12.299
70301W        W38519  28.102   1.251  11.224
70302W        W38520  21.168  42.048  12.083
70303W        W38521  11.923  32.125   1.259
70304W        W38522  17.331   8.757  14.499
70305W        W38523   0.738  15.603   1.842
70306W        W38524  31.834  32.416   3.714
70307W        W38525  16.592  39.596  12.449
70308W        W38526  11.775  30.980  11.904
70309W        W38527  43.717  13.322  11.638
70310W        W38528  32.391  25.664   0.915
70311W        W38529   2.203  11.582  14.127
70312W        W38530  19.437  41.003  13.785
70313W        W38531   5.001  12.637   1.328
70314W        W38532  28.599   9.968   1.749
70315W        W38533   4.287  16.741   3.230
70316W        W38534  35.284   7.721   2.743
70317W        W38535  11.272   9.341  11.452
70318W        W38536  32.095  43.033  10.778
70319W        W38537  34.419  21.308  12.793
70320W        W38538  33.063  23.035   1.852
70321W        W38539  20.091  18.109  12.977
70322W        W38540  41.249  34.447  13.187
70323W        W38541   6.454  36.502  13.952
70324W        W38542  30.994  36.977  11.588
70325W        W38543  31.125  13.465   2.404
70326W        W38544   4.717  17.641  14.341
70327W        W38545   8.277  19.625   3.092
70328W        W38546  34.625  43.223  10.790
70329W        W38547  39.993  44.617  10.750
70330W        W38548  22.724  13.443   4.215
70331W        W38549  41.028  22.999  13.813
70332W        W38550  44.864   0.423  14.989
70333W        W38551   3.040  35.507   1.933
70334W        W38552   1.071  33.979  11.597
70335W        W38553  43.993   2.534   3.832
70336W        W38554  30.436  17.733  12.612
70337W        W38555  35.122  13.220  14.112
70338W        W38556  30.356  43.755   4.003
70339W        W38557   4.831   2.328  14.815
70340W        W38558   2.481  16.618   3.314
70341W        W38559   4.389  42.484  14.947
70342W        W38560  38.059   2.757   3.672
70343W        W38561   5.725  40.339   9.817
70344W        W38562  33.287  35.600   3.326
70345W        W38563  12.823   8.659   0.232
70346W        W38564  37.323  27.315  12.322
70347W        W38565  43.325   2.905   4.584
70348W        W38566  19.264   3.330   2.679
70349W        W38567  14.752  36.550   4.768
70350W        W38568  14.725  15.333   4.178
70351W        W38569   9.295  35.827  14.712
70352W        W38570  13.600  25.792   0.287
70353W        W38571  15.983  10.723  11.864
70354W        W38572  21.913   8.393   3.682
70355W        W38573  23.770  16.125   3.036
70356W        W38574   6.663  43.067  11.504
70357W        W38575  14.273  18.508   1.734
70358W        W38576  20.674  22.108   1.194
70359W        W38577   8.757  31.954   3.822
70360W        W38578  28.566   5.164   2.192
70361W        W38579  25.976   5.989  13.858
70362W        W38580  40.879  39.824  11.607
70363W        W38581  11.854  26.053   0.914
70364W        W38582  37.586  16.274   1.817
70365W        W38583  31.584   2.331   0.641
70366W        W38584  13.674  20.155   4.816
70367W        W38585  35.231   0.294  12.410
70368W        W38586  25.318  18.739   2.859
70369W        W38587  40.865  29.589   4.184
70370W        W38588  10.916  33.973  11.248
70371W        W38589  33.956  24.156   4.949
70372W        W38590  22.298  25.394  14.445
70373W        W38591  15.355   7.448  12.564
70374W        W38592  34.482  30.575   4.155
70375W        W38593  28.771  32.153  14.785
70376W        W38594  19.983  37.629  14.975
70377W        W38595  23.788  44.550  13.051
70378W        W38596  19.234   8.351  12.256
70379W        W38597   4.530  14.852   2.387
70380W        W38598  11.831  32.696  12.128
70381W        W38599  14.631   3.284   0.929
70382W        W38600  18.504  19.747   5.062
70383W        W38601  24.083  37.387  11.867
70384W        W38602  44.210  11.817   1.723
70385W        W38603  31.488   7.646   1.382
70386W        W38604  38.860  37.123  14.773
70387W        W38605  37.970   6.671  10.647
70388W        W38606  24.298  44.378  13.942
70389W        W38607   4.612  29.163   3.831
70390W        W38608  30.472  37.107  10.912
70391W        W38609  21.984  18.637   3.498
70392W        W38610   5.491  29.694   1.501
70393W        W38611  18.814  32.158  14.017
70394W        W38612  38.781  33.417  12.561
70395W        W38613  43.527  40.354  14.428
70396W        W38614  26.581  13.041  11.106
70397W        W38615  36.383  35.395   0.952
70398W        W38616   1.355  40.568   0.129
70399W        W38617  26.695  39.803  11.181
70400W        W38618  10.745  43.212   2.663
70401W        W38619  18.060  30.606   4.161
70402W        W38620  21.346  26.851  14.024
70403W        W38621   4.478  29.416  14.422
70404W        W38622   0.025  16.188   2.874
70405W        W38623  24.675   8.696   0.791
70406W        W38624  39.017  34.572   2.204
70407W        W38625  41.086  33.854   1.338
70408W        W38626   9.217  42.165  12.343
70409W        W38627  35.764   8.222  14.781
70410W        W38628  38.382  27.572  10.970
70411W        W38629  20.527  37.964   4.138
70412W        W38630  30.137  42.528  13.903
70413W        W38631  42.142  36.067   0.740
70414W        W38632  12.624  30.211  11.975
70415W        W38633  15.746  17.587   3.328
70416W        W38634  26.756  15.366   2.959
70417W        W38635  11.211  43.715   4.623
70418W        W38636  23.250  24.029   2.245
70419W        W38637  17.191  24.861  12.553
70420W        W38638  28.639  20.155  11.388
70421W        W38639   6.423  44.396  10.014
70422W        W38640  29.230  10.566  11.167
70423W        W38641   6.671  16.168   0.359
70424W        W38642   2.946  13.667   0.276
70425W        W38643  11.695   0.841   4.992
70426W        W38644  29.868   1.253  11.150
70427W        W38645  43.054  25.311   4.567
70428W        W38646  25.623  20.467   4.846
70429W        W38647   8.113  38.561   1.406
70430W        W38648  33.870  20.354   2.965
70431W        W38649  32.473  31.483  14.528
70432W        W38650  42.054  24.047   1.389
70433W        W38651  15.195  18.829   3.319
70434W        W38652  18.191  28.566   3.114
70435W        W38653  22.171  13.569   4.062
70436W        W38654  14.048  44.682   3.267
70437W        W38655  25.467  44.223  13.556
70438W        W38656  31.107  18.793  13.457
70439W        W38657  26.539  13.183   3.955
70440W        W38658   4.614  37.914  10.801
70441W        W38659  26.380  16.577   1.324
70442W        W38660  38.198  27.077  12.450
70443W        W38661  31.438  24.698  13.417
70444W        W38662  40.516   1.791  13.592
70445W        W38663  28.214   0.801  11.719
70446W        W38664   1.957  34.695   1.320
70447W        W38665  29.725  19.388   0.826
70448W        W38666  26.724  20.345   0.913
70449W        W38667  37.520  39.505   4.108
70450W        W38668  30.880  17.185  14.854
70451W        W38669  31.952   2.368  14.260
70452W        W38670  37.327  37.863  14.530
70453W        W38671  40.392  38.565  11.440
70454W        W38672  23.278  29.269   2.269
70455W        W38673  28.357  15.859   0.462
70456W        W38674  38.118   0.015  13.811
70457W        W38675  42.225   6.365   0.303
70458W        W38676   9.586  24.621   1.253
70459W        W38677  24.038  18.776   2.288
70460W        W38678  41.056  10.604  13.573
70461W        W38679  24.903   9.746  14.951
70462W        W38680  11.631  13.277   1.020
70463W        W38681  22.378  35.656   3.228
70464W        W38682  23.917  23.883  10.759
70465W        W38683   3.423  23.219  13.371
70466W        W38684  43.057  29.384  11.127
70467W        W38685   8.369  33.872  14.853
70468W        W38686  11.177  31.285  13.410
70469W        W38687  36.029  33.524  14.051
70470W        W38688  24.149  41.043  14.745
70471W        W38689  37.784  25.855  13.847
70472W        W38690  28.540  31.165  11.166
70473W        W38691  26.984  12.534   1.919
70474W        W38692  23.451  32.582  14.293
70475W        W38693  22.992  21.772   2.926
70476W        W38694   7.178  29.532  14.863
70477W        W38695   5.304  42.735  12.378
70478W        W38696  35.100  13.320   2.742
70479W        W38697  42.206  16.438   0.356
70480W        W38698  25.100  16.628  12.484
70481W        W38699  27.136  26.091  10.452
70482W        W38700  17.084  29.511  12.658
70483W        W38701  31.022  34.044   2.847
70484W        W38702  35.657  32.338  13.492
70485W        W38703  32.071  40.841   3.117
70486W        W38704  38.927   6.283  13.449
70487W        W38705  15.221  33.359  13.525
70488W        W38706  10.167   8.360   0.720
70489W        W38707  27.305  10.161  14.418
70490W        W38708   3.328   6.151   2.242
70491W        W38709  15.173   2.888   1.233
70492W        W38710   5.941  16.571  13.538
70493W        W38711  38.852  40.755  14.561
70494W        W38712   0.809   2.581  13.566
70495W        W38713  29.372  39.762   2.785
70496W        W38714  21.559  10.210   0.324
70497W        W38715  41.044   2.656   2.213
70498W        W38716  27.465   2.959   1.428
70499W        W38717   1.461  23.472   0.510
70500W        W38718   5.220  28.831  13.307
70501W        W38719  40.800  44.580  12.815
70502W        W38720  20.737  36.289   3.583
70503W        W38721  43.824  15.546  11.160
70504W        W38722  16.317  33.577  12.730
70505W        W38723   4.752  14.414   2.665
70506W        W38724  12.240  14.013   3.303
70507W        W38725  13.285  15.247  10.369
70508W        W38726  19.635  11.712  14.095
70509W        W38727   7.328   0.570  12.974
70510W        W38728  40.642  11.300  11.914
70511W        W38729   6.389  42.381  14.072
70512W        W38730  30.842  13.137  11.568
70513W        W38731   7.282   6.413  11.600
70514W        W38732  41.384  41.610  13.446
70515W        W38733   1.439  30.359   0.295
70516W        W38734  29.481  27.686   0.403
70517W        W38735  21.066  13.704  10.700
70518W        W38736  23.395  39.510  11.156
70519W        W38737  19.866   2.338   4.565
70520W        W38738  12.582   7.298  14.352
70521W        W38739  15.353  42.218  14.668
70522W        W38740  22.944  28.377  14.334
70523W        W38741  33.984  25.141   2.677
70524W        W38742  18.614  42.586   2.339
70525W        W38743  20.273  34.014   1.433
70526W        W38744  11.136  35.945   4.558
70527W        W38745  43.477  42.934   0.837
70528W        W38746  21.136  11.836  14.096
70529W        W38747  28.493  37.116  12.183
70530W        W38748  25.016   6.405   3.622
70531W        W38749  28.401   5.409  10.232
70532W        W38750  35.032  41.887  13.737
70533W        W38751  15.521   9.099  12.067
70534W        W38752  17.018  32.916  14.847
70535W        W38753  43.299  21.229   0.433
70536W        W38754  29.197  28.947   4.575
70537W        W38755   3.402  43.796   4.498
70538W        W38756  31.889  43.893   3.842
70539W        W38757   1.729  31.124   4.294
70540W        W38758  20.032  18.931   4.708
70541W        W38759   2.261   5.313   3.651
70542W        W38760  33.668  34.488   4.114
70543W        W38761  40.437  29.890   4.140
70544W        W38762  24.515  15.945   2.679
70545W        W38763  20.330   5.820   4.005
70546W        W38764  21.521  24.854  13.583
70547W        W38765  29.003  34.545   0.151
70548W        W38766  31.463  14.851  11.513
70549W        W38767  11.393  30.095  12.502
70550W        W38768  26.441   6.509  11.093
70551W        W38769  31.730   1.224  10.849
70552W        W38770  32.190  35.577   4.278
70553W        W38771  11.292  23.494   4.558
70554W        W38772  33.684  14.176   4.725
70555W        W38773  10.594  42.582   1.863
70556W        W38774  31.366  30.164   1.314
70557W        W38775  28.196   6.970  10.386
70558W        W38776   6.386  31.597  10.723
70559W        W38777  10.410  21.802   1.882
70560W        W38778  17.745  20.875  10.346
70561W        W38779  38.710  31.892  14.554
70562W        W38780  20.112   2.424  13.306
70563W        W38781  26.127  34.464   0.233
70564W        W38782  37.869  27.707   3.332
70565W        W38783  14.118  29.649  14.081
70566W        W38784   6.747   6.810   3.058
70567W        W38785  27.612  28.908  11.662
70568W        W38786  26.004  40.654   2.635
70569W        W38787  10.444  26.693   4.117
70570W        W38788  42.061  27.455   1.302
70571W        W38789  36.751   0.375  12.473
70572W        W38790  13.125  42.881  14.362
70573W        W38791  36.720   2.771   0.093
70574W        W38792  32.481  12.835   3.243
70575W        W38793  17.826  42.824   1.714
70576W        W38794  13.935  15.576   4.647
70577W        W38795   0.627   0.443   4.702
70578W        W38796  19.677  39.906  11.146
70579W        W38797  34.175   7.459   4.599
70580W        W38798  43.285  29.015  11.446
70581W        W38799   8.013   4.182  13.624
70582W        W38800   5.166  23.454   2.170
70583W        W38801   5.483  14.352   4.146
70584W        W38802  37.439  43.910  14.806
70585W        W38803  23.553  17.079  13.565
70586W        W38804  32.356  41.900  11.081
70587W        W38805  33.930  38.481  12.158
70588W        W38806  24.117  25.247  14.856
70589W        W38807  25.513  44.800   4.589
70590W        W38808  26.050  32.524  10.748
70591W        W38809  22.241  20.783   2.770
70592W        W38810  16.572  18.736  12.465
70593W        W38811  29.451  24.610  12.124
70594W        W38812  24.986   5.389  10.771
70595W        W38813  40.988   5.936   3.661
70596W        W38814  14.796  20.003   0.502
70597W        W38815  34.726  18.009   4.165
70598W        W38816  39.047  44.522   4.328
70599W        W38817   8.505  13.708  11.163
70600W        W38818  32.441  41.990   2.484
70601W        W38819   4.448   9.921  13.850
70602W        W38820  44.162  28.471   2.151
70603W        W38821   4.679  41.567   2.270
70604W        W38822  14.561  24.031   2.253
70605W        W38823  33.409  25.169  14.347
70606W        W38824  39.340  32.845   1.854
70607W        W38825  18.410   7.305  11.025
70608W        W38826  18.383  13.198  12.138
70609W        W38827  32.682  24.052  13.562
70610W        W38828  12.157  28.972  11.130
70611W        W38829  20.384  30.896  13.563
70612W        W38830  36.822  17.174  12.455
70613W        W38831  30.503  43.483  14.957
70614W        W38832   3.368  37.099  12.134
70615W        W38833  11.025  30.211  14.223
70616W        W38834   3.871  17.286   1.815
70617W        W38835  25.439  43.268   3.339
70618W        W38836  40.555   2.806  14.756
70619W        W38837  40.612  21.022  10.683
70620W        W38838  18.156  10.492   4.705
70621W        W38839  32.473   2.083  14.983
70622W        W38840  27.692  13.138  14.149
70623W        W38841  26.539  31.739  13.022
70624W        W38842   1.506  26.734  13.420
70625W        W38843   7.860   4.838   4.109
70626W        W38844  10.608  28.029   2.379
70627W        W38845  17.541   1.997   3.753
70628W        W38846  24.501  23.073  14.926
70629W        W38847  30.255  26.045   3.708
70630W        W38848  20.190   5.621   1.405
70631W        W38849  13.215  38.833   4.315
70632W        W38850  12.256  14.930   1.066
70633W        W38851  12.795  36.073  14.391
70634W        W38852  40.514  30.518   4.952
70635W        W38853  44.769   8.387   1.371
70636W        W38854  31.498  16.185   2.794
70637W        W38855  38.609  31.954   3.187
70638W        W38856  24.678   0.364  11.056
70639W        W38857  17.257  29.901   2.449
70640W        W38858  13.026   1.002   2.801
70641W        W38859  40.322  24.747  11.978
70642W        W38860  37.561  28.442   0.690
70643W        W38861  31.315  41.852  12.397
70644W        W38862  16.666  10.869   0.730
70645W        W38863   0.433   0.862   4.381
70646W        W38864   3.749   6.731  11.110
70647W        W38865  30.650   3.801   0.736
70648W        W38866  29.020  28.033   2.160
70649W        W38867   9.742   4.801   3.328
70650W        W38868  11.208  26.686   0.751
70651W        W38869  41.742  40.626  13.548
70652W        W38870  19.596  23.457  10.631
70653W        W38871  35.914  23.958  13.447
70654W        W38872  22.015  37.392  13.993
70655W        W38873   8.295  29.403  11.176
70656W        W38874  40.380  42.231   2.290
70657W        W38875  36.362  35.849   0.268
70658W        W38876  24.043  32.130  14.697
70659W        W38877  13.738  43.604  11.133
70660W        W38878  20.297  41.451   2.761
70661W        W38879  35.413  44.167  12.881
70662W        W38880  18.531  30.470   2.934
70663W        W38881  30.248  28.742  13.765
70664W        W38882  23.927   0.522   4.126
70665W        W38883  30.675   9.741   4.093
70666W        W38884  21.610  17.687   2.879
70667W        W38885  13.555   1.800  14.444
70668W        W38886  26.135  30.952   0.738
70669W        W38887  35.385   1.942   2.812
70670W        W38888  12.579  42.535   4.625
70671W        W38889  25.618  41.013  14.112
70672W        W38890  17.182   7.821  14.002
70673W        W38891  43.986   7.404   2.022
70674W        W38892  15.651  35.018   3.409
70675W        W38893  39.642  29.540   3.679
70676W        W38894   5.112  15.760   3.172
70677W        W38895   0.351  14.585   4.472
70678W        W38896   0.167  41.109   2.291
70679W        W38897   8.695   2.324  14.477
70680W        W38898   0.992  36.257   0.921
70681W        W38899   2.221  34.629   3.442
70682W        W38900  37.974  12.185   2.286
70683W        W38901   2.420   9.835  11.535
70684W        W38902  39.408  14.299   3.162
70685W        W38903  19.834  28.830   0.013
70686W        W38904  24.662  21.516   4.804
70687W        W38905   1.186   2.528   0.753
70688W        W38906  37.134  35.514   1.394
70689W        W38907   6.420  15.151  12.169
70690W        W38908   7.643  40.052  14.698
70691W        W38909   4.614  32.541   4.532
70692W        W38910  32.228  32.772   0.705
70693W        W38911  14.258  24.221  11.637
70694W        W38912  30.386  27.652  13.949
70695W        W38913  42.220  29.410  14.346
70696W        W38914  27.110   0.397  11.107
70697W        W38915  19.615  15.594   0.399
70698W        W38916   0.471  14.354  14.878
70699W        W38917  29.994  36.482   3.815
70700W        W38918   3.604  30.796   1.218
70701W        W38919  36.929  18.554  11.490
70702W        W38920   7.101   5.485   2.222
70703W        W38921  37.538  44.821   3.273
70704W        W38922  31.154   2.304   4.555
70705W        W38923  33.610   3.856  13.952
70706W        W38924  33.486   3.604  11.371
70707W        W38925  19.643  38.132   2.278
70708W        W38926   1.949  27.478  12.076
70709W        W38927  13.160  26.943   1.778
70710W        W38928  31.301   5.925   1.900
70711W        W38929  39.854  44.913  14.881
70712W        W38930  28.705  20.462   3.143
70713W        W38931  36.366  11.352   4.154
70714W        W38932   7.563  35.903  14.384
70715W        W38933  12.955  16.627   3.958
70716W        W38934  19.860  29.008  12.858
70717W        W38935  17.314   6.427  14.931
70718W        W38936  17.569   9.301   2.319
70719W        W38937  17.949  28.987   3.237
70720W        W38938  26.501  29.578   1.724
70721W        W38939  22.728  20.807   3.547
70722W        W38940  30.087   3.735  11.722
70723W        W38941   1.807  15.465  14.782
70724W        W38942  44.752  37.786   0.874
70725W        W38943  15.282  29.497   0.979
70726W        W38944  39.910   6.010  14.549
70727W        W38945  16.393   9.036  14.285
70728W        W38946  44.435  38.838  12.478
70729W        W38947  44.856  23.092  14.937
70730W        W38948  35.509  34.236   3.857
70731W        W38949  27.796  11.575   4.633
70732W        W38950  32.332  32.418  13.329
70733W        W38951   8.984  28.991   1.498
70734W        W38952  25.476  36.379  14.317
70735W        W38953  25.028  16.997   4.609
70736W        W38954  25.994  43.090  10.288
70737W        W38955  31.715   7.746  11.950
70738W        W38956   5.546  19.840   2.660
70739W        W38957  36.049   6.987   3.201
70740W        W38958   3.147  18.104  11.160
70741W        W38959  43.930  30.346  10.622
70742W        W38960  14.007  15.155   1.406
70743W        W38961  29.550  23.955   4.087
70744W        W38962  24.123  13.109   4.286
70745W        W38963  32.345  11.737  14.294
70746W        W38964  35.605  19.722  13.485
70747W        W38965  32.967  22.205  11.556
70748W        W38966  25.970  14.904   2.081
70749W        W38967  31.246   9.694   4.266
70750W        W38968  23.614  31.154  12.484
70751W        W38969  22.973  22.121  11.168
70752W        W38970  19.286  22.117   0.965
70753W        W38971  33.622  39.378   0.455
70754W        W38972  29.112  40.320   0.718
70755W        W38973  11.338  14.314   5.069
70756W        W38974  36.529  10.866   4.092
70757W        W38975   8.076  40.924   1.332
70758W        W38976  34.559  10.300  10.724
70759W        W38977  33.542  22.804  13.542
70760W        W38978  21.992  38.282  13.812
70761W        W38979   7.968   5.763   1.484
70762W        W38980  12.990   9.588  13.316
70763W        W38981  35.953  25.176   0.395
70764W        W38982   6.025  17.886  13.934
70765W        W38983   1.540   7.968   1.444
70766W        W38984  13.576   3.682  13.969
70767W        W38985  26.222   7.303  14.414
70768W        W38986   2.376  24.716  10.611
70769W        W38987  33.017  30.962   4.188
70770W        W38988  23.366  19.228  11.730
70771W        W38989  26.734  24.310  12.649
70772W        W38990   7.194  31.236  10.826
70773W        W38991   1.974   1.929   2.255
70774W        W38992   4.287   1.578   0.070
70775W        W38993  18.154  11.217   4.173
70776W        W38994  29.549  18.450   0.005
70777W        W38995   9.367  29.898  12.016
70778W        W38996  36.984   6.825   3.261
70779W        W38997  39.019  34.098   1.385
70780W        W38998  18.285  10.600   1.214
70781W        W38999   6.498   7.909  14.509
70782W        W39000   0.793  11.699  12.462
70783W        W39001   3.923  19.344   0.272
70784W        W39002  17.064  17.582  12.347
70785W        W39003  39.011  27.260  12.958
70786W        W39004   0.375  28.090  11.511
70787W        W39005   5.204  33.570  13.235
70788W        W39006  15.063  18.735   4.207
70789W        W39007  37.967  18.153   4.588
70790W        W39008  38.425   9.670   2.274
70791W        W39009   2.968  35.928  14.270
70792W        W39010  27.476  31.977  14.466
70793W        W39011   7.271  21.523   2.374
70794W        W39012  15.514   7.543  13.908
70795W        W39013   4.939  16.234   1.699
70796W        W39014  19.200  31.426  13.888
70797W        W39015  35.766   0.942   3.683
70798W        W39016  37.365  17.486  10.720
70799W        W39017   5.483   1.459   2.820
70800W        W39018   1.274  31.837  14.421
70801W        W39019  44.739  42.040   3.843
70802W        W39020   8.204   6.918   3.266
70803W        W39021   2.440  38.439  14.898
70804W        W39022  18.118  15.314   0.403
70805W        W39023   5.897  19.244   3.980
70806W        W39024  30.561  36.050   2.358
70807W        W39025  15.214  22.957   3.501
70808W        W39026  39.818  24.518   0.953
70809W        W39027   5.725  35.434  10.697
70810W        W39028  18.554   0.274   0.772
70811W        W39029  33.164  24.087   0.317
70812W        W39030  35.663  26.393   4.643
70813W        W39031  34.866   9.635   1.595
70814W        W39032  13.908  32.565   4.496
70815W        W39033  18.542  28.599  12.443
70816W        W39034  23.115  40.331   4.140
70817W        W39035  33.262   0.153   1.675
70818W        W39036  18.773  15.811   0.835
70819W        W39037  13.315  21.822  14.918
70820W        W39038   1.781   1.366   4.877
70821W        W39039  36.950  31.920  14.239
70822W        W39040  40.460  36.553  13.984
70823W        W39041   4.391  34.456  14.978
70824W        W39042  15.563  28.608  11.184
70825W        W39043  18.487   7.776   2.298
70826W        W39044   3.351   4.274   1.028
70827W        W39045  42.218   6.125  14.290
70828W        W39046  33.446  13.310  10.287
70829W        W39047  30.002   4.301   1.402
70830W        W39048  37.390   4.582   2.834
70831W        W39049  35.089  36.153   3.372
70832W        W39050  34.686  43.840  13.864
70833W        W39051  11.005  44.086   5.013
70834W        W39052   2.018  13.084   2.438
70835W        W39053   8.859  21.032   1.033
70836W        W39054  13.408   4.978   2.757
70837W        W39055  32.087  42.048   0.323
70838W        W39056  26.961  13.863   0.220
70839W        W39057  36.490  30.478   0.268
70840W        W39058  14.173  33.817  11.512
70841W        W39059  40.349  25.529   3.163
70842W        W39060  29.971  41.021  14.478
70843W        W39061  31.460  13.652   4.642
70844W        W39062  14.477   2.855   1.791
70845W        W39063  28.352  19.870  13.638
70846W        W39064  29.155  41.064   3.657
70847W        W39065   0.882   8.925   3.781
70848W        W39066  28.727  15.850  13.061
70849W        W39067  42.276  32.798   3.026
70850W        W39068  40.481   9.319   4.640
70851W        W39069  15.216  35.023   3.125
70852W        W39070  12.688  35.814   1.333
70853W        W39071  22.161   4.711   4.057
70854W        W39072   8.100  35.925   3.806
70855W        W39073  10.682  36.038   5.274
70856W        W39074   0.467  36.389  14.991
70857W        W39075  24.213  20.379   1.705
70858W        W39076  37.804  27.093  13.306
70859W        W39077  36.761  35.625  14.367
70860W        W39078  32.496   8.282  14.401
70861W        W39079  43.802   9.673   3.213
70862W        W39080  29.014  42.905   4.570
70863W        W39081  34.140  25.030  12.170
70864W        W39082  25.991  37.938  10.661
70865W        W39083   9.619  17.746  10.795
70866W        W39084  43.465   9.268   1.962
70867W        W39085   3.232  25.613  14.458
70868W        W39086  33.523  26.455  12.497
70869W        W39087  22.530  35.513   0.366
70870W        W39088  39.069  27.179   3.724
70871W        W39089  32.873   0.008   3.827
70872W        W39090   7.274  21.516  12.901
70873W        W39091  40.465  31.584   4.169
70874W        W39092  26.177  27.448  13.959
70875W        W39093  11.285  33.537  10.368
70876W        W39094  39.339  42.319   4.416
70877W        W39095  16.386  13.783  12.509
70878W        W39096   7.745  38.241  14.122
70879W        W39097  21.296  30.625  14.326
70880W        W39098  28.673   1.411  14.331
70881W        W39099  38.083  28.604   0.762
70882W        W39100  11.959  13.679   4.669
70883W        W39101  19.148   8.805  10.429
70884W        W39102  10.506  19.490  12.090
70885W        W39103  38.709  11.707   1.888
70886W        W39104  44.357   6.245  12.308
70887W        W39105   5.740  28.253   3.575
70888W        W39106  37.904  10.130  13.495
70889W        W39107  32.477   8.332   1.409
70890W        W39108  16.001  31.583   4.105
70891W        W39109  14.323  36.369   1.689
70892W        W39110  21.518  24.902  14.930
70893W        W39111   3.646  33.494   4.767
70894W        W39112   6.213   3.890   3.387
70895W        W39113  23.520   5.705  13.886
70896W        W39114  38.503  25.070   1.372
70897W        W39115  15.656   2.744   1.071
70898W        W39116  31.660  31.015  14.873
70899W        W39117   7.688   5.973  14.893
70900W        W39118  20.070   6.426  11.453
70901W        W39119  13.678  16.938   2.711
70902W        W39120   6.402   4.701   4.608
70903W        W39121  19.940  41.481   4.106
70904W        W39122   2.981  32.583   0.886
70905W        W39123  16.059  16.743  14.585
70906W        W39124   5.403  23.576  14.319
70907W        W39125  29.600  38.325  10.661
70908W        W39126  28.764  25.605  11.190
70909W        W39127  14.761   7.907  10.645
70910W        W39128  34.953  33.413  11.565
70911W        W39129  35.142   3.186  10.575
70912W        W39130   6.912   7.705  14.275
70913W        W39131  28.412   3.187   0.835
70914W        W39132  18.074  21.544   4.559
70915W        W39133   1.185  27.649   4.091
70916W        W39134  10.112  10.866   2.430
70917W        W39135   5.955  43.299   2.659
70918W        W39136  12.102  41.865   1.297
70919W        W39137  40.100  13.764  11.638
70920W        W39138  24.122   7.023   1.529
70921W        W39139  39.159  12.245  12.947
70922W        W39140  12.707  22.470  13.252
70923W        W39141   2.531  13.240  12.479
70924W        W39142  30.431   0.495  13.439
70925W        W39143   5.822  32.781  11.643
70926W        W39144  38.564  37.378   0.126
70927W        W39145  28.601   3.110  10.259
70928W        W39146  44.447  37.299   1.243
70929W        W39147  42.083  13.214  13.332
70930W        W39148  32.660  36.500   4.733
70931W        W39149  14.658   3.879  13.207
70932W        W39150   7.191  21.003  13.460
70933W        W39151  41.456  10.765  10.988
70934W        W39152  16.672   3.268  11.602
70935W        W39153  44.389  34.560  13.753
70936W        W39154   5.164  34.556  13.868
70937W        W39155  29.193  20.755   2.166
70938W        W39156  41.056  30.055   0.023
70939W        W39157  15.342  35.091   2.612
70940W        W39158  18.662  21.914   1.836
70941W        W39159  20.616  15.848  11.053
70942W        W39160  26.704   5.606   3.195
70943W        W39161  20.781  28.995   2.160
70944W        W39162  29.116   7.265   0.357
70945W        W39163  40.896   5.761   2.653
70946W        W39164  33.176  29.272   1.709
70947W        W39165  27.379   0.480   1.275
70948W        W39166  41.704   9.308   2.363
70949W        W39167   1.351  21.389   3.249
70950W        W39168  20.529   8.678  13.748
70951W        W39169   0.257  33.018   4.582
70952W        W39170  24.083  16.795   3.092
70953W        W39171  38.985  38.073   4.200
70954W        W39172  26.977  36.635  14.853
70955W        W39173  26.130  35.793  11.079
70956W        W39174  42.234  33.550  12.541
70957W        W39175   0.784  18.123   0.406
70958W        W39176   5.614  33.342  13.437
70959W        W39177  21.492   6.173  10.370
70960W        W39178  11.207  35.369  11.157
70961W        W39179  16.527  41.948   2.580
70962W        W39180   9.926   3.188  12.686
70963W        W39181  32.668  42.866   5.054
70964W        W39182  30.931  35.876  14.330
70965W        W39183  24.908   3.712  10.463
70966W        W39184  11.829  10.386   9.892
70967W        W39185   9.778  15.523   1.367
70968W        W39186  41.394  27.048  14.761
70969W        W39187  23.042   9.793  10.787
70970W        W39188  24.259  25.052  12.681
70971W        W39189  28.181   0.717  12.622
70972W        W39190   7.615  34.905   3.718
70973W        W39191  29.286  18.955  13.111
70974W        W39192  38.456  43.756  10.687
70975W        W39193  43.270  42.340  13.014
70976W        W39194   4.367  15.809   2.319
70977W        W39195  40.411  32.174  13.512
70978W        W39196  17.279  32.464   3.865
70979W        W39197  34.602   9.366  11.907
70980W        W39198  44.832  29.912  14.982
70981W        W39199  15.948  21.060  12.464
70982W        W39200  20.813  38.260   2.881
70983W        W39201  20.006   1.496  13.687
70984W        W39202   9.794   1.714   3.752
70985W        W39203   8.840  14.760   0.866
70986W        W39204  40.563  17.469   3.248
70987W        W39205  42.990  27.947   1.374
70988W        W39206  30.924  25.066   4.596
70989W        W39207   7.809  29.516   4.526
70990W        W39208  33.538  11.392   0.036
70991W        W39209   5.847  39.202   2.142
70992W        W39210  30.513  22.013  11.944
70993W        W39211  33.362  27.500  14.990
70994W        W39212  19.084   6.750  13.735
70995W        W39213  35.954  39.258  14.445
70996W        W39214  18.514  36.142   1.296
70997W        W39215   6.950  17.912  14.900
70998W        W39216   8.133  37.024   0.486
70999W        W39217  16.183  26.340  14.956
71000W        W39218  36.567  33.699  14.714
71001W        W39219  38.270  39.546  14.076
71002W        W39220  42.492  38.023  13.840
71003W        W39221  23.608  15.098  10.542
71004W        W39222  41.957  32.076  14.545
71005W        W39223   7.698  43.576   4.699
71006W        W39224  22.501  16.264   2.807
71007W        W39225  11.634  19.696  13.519
71008W        W39226   0.411  33.510   0.261
71009W        W39227   1.184  41.063  10.718
71010W        W39228  39.339  20.196   1.243
71011W        W39229  42.223  25.044  13.796
71012W        W39230   0.395  42.026   4.610
71013W        W39231  27.710   3.721   2.083
71014W        W39232  19.504  19.348  14.991
71015W        W39233  43.072   9.657  11.210
71016W        W39234  12.194  25.531  11.734
71017W        W39235  24.071  17.958   4.559
71018W        W39236  19.632  10.869   3.773
71019W        W39237  16.357  25.500  12.465
71020W        W39238   5.859  43.500   2.188
71021W        W39239  19.327  30.536   4.981
71022W        W39240  20.767  16.542  13.533
71023W        W39241   9.070  39.413  11.774
71024W        W39242   0.567   6.758   4.651
71025W        W39243   5.418   4.668  11.723
71026W        W39244  21.827  19.169   1.887
71027W        W39245   1.294  28.028  13.945
71028W        W39246  13.409  31.762   2.173
71029W        W39247  35.387   3.317   4.326
71030W        W39248  37.082  21.073   2.535
71031W        W39249  16.105   7.361   0.448
71032W        W39250  10.313   1.271  11.600
71033W        W39251  22.696   0.981   0.433
71034W        W39252  20.631  15.148  10.353
71035W        W39253   2.601   9.872   3.240
71036W        W39254   3.461  38.308  10.647
71037W        W39255  38.897  26.414  14.495
71038W        W39256  36.498  36.922   4.103
71039W        W39257  44.779  40.545  12.887
71040W        W39258  19.462  22.547   2.184
71041W        W39259  26.635   0.766  11.704
71042W        W39260  24.949  26.857  10.737
71043W        W39261  40.205  30.854  11.027
71044W        W39262   4.063  16.570  11.625
71045W        W39263  26.697  37.598  11.143
71046W        W39264  28.209  44.451  10.829
71047W        W39265  15.107  42.959  11.078
71048W        W39266  20.289  28.160   0.709
71049W        W39267   0.470  32.344   3.329
71050W        W39268  38.934   1.457  12.581
71051W        W39269  22.803   5.160   3.479
71052W        W39270  28.213  22.005   2.239
71053W        W39271  11.223   8.279   1.426
71054W        W39272  42.763  23.171  14.478
71055W        W39273   0.869  27.948  11.597
71056W        W39274  27.619  11.746  10.511
71057W        W39275  16.664  12.677  10.245
71058W        W39276  11.686  20.743  13.896
71059W        W39277  26.454   5.225   1.331
71060W        W39278  27.103  36.518   1.167
71061W        W39279  38.933  23.663  10.760
71062W        W39280  27.539   8.327   2.871
71063W        W39281   1.375  41.120  14.932
71064W        W39282   7.951   5.222   0.840
71065W        W39283   6.283  39.565   4.215
71066W        W39284  18.009  12.667   4.100
71067W        W39285  25.092  42.505  14.954
71068W        W39286   2.778  10.443  12.072
71069W        W39287   3.803  33.920  14.433
71070W        W39288   4.798   2.255   2.231
71071W        W39289   4.278  40.026  12.584
71072W        W39290   0.233  44.516  13.459
71073W        W39291  33.149  26.206  14.124
71074W        W39292  25.973   7.405   4.613
71075W        W39293  11.155  13.327  11.528
71076W        W39294  29.544  43.613   3.376
71077W        W39295  12.273   7.454   1.965
71078W        W39296  17.151  26.272   4.158
71079W        W39297  12.054   2.865   0.205
71080W        W39298   5.904  20.013  10.853
71081W        W39299  34.004   8.735  11.151
71082W        W39300  41.826  21.985   0.663
71083W        W39301  37.419  19.282   1.826
71084W        W39302   0.956  11.652   4.907
71085W        W39303  34.773  39.043  12.511
71086W        W39304  43.508   0.013  14.537
71087W        W39305   2.208  10.913   4.602
71088W        W39306  18.385  38.478  11.918
71089W        W39307  42.839  16.061   4.988
71090W        W39308  42.450  20.777   1.132
71091W        W39309  38.532  19.675  12.079
71092W        W39310  20.256  21.645  14.555
71093W        W39311  36.936   6.378  13.122
71094W        W39312   7.670  27.540  12.994
71095W        W39313  34.403  19.076  10.902
71096W        W39314  11.657  28.987   1.819
71097W        W39315  18.935  43.804  14.902
71098W        W39316  32.113  44.006  14.908
71099W        W39317   8.659  38.923   5.050
71100W        W39318  21.961  30.013  12.772
71101W        W39319  16.122  18.933  11.067
71102W        W39320  35.147  30.486   5.095
71103W        W39321  10.304   0.371   3.242
71104W        W39322  19.177  42.416  11.242
71105W        W39323  39.387  27.678   3.150
71106W        W39324  32.198  31.355   1.722
71107W        W39325  33.134  26.271   4.278
71108W        W39326  34.522   1.153   4.912
71109W        W39327  36.900  38.788  13.546
71110W        W39328  40.525  36.622   4.379
71111W        W39329  32.102   8.337   0.298
71112W        W39330  30.078  31.741  14.546
71113W        W39331   3.951  35.113   3.719
71114W        W39332  24.051  25.561  13.900
71115W        W39333  27.171  25.070   4.447
71116W        W39334  36.132   7.501   3.382
71117W        W39335   8.790  25.173  14.399
71118W        W39336  17.138  10.191  13.730
71119W        W39337  30.446   2.955  13.191
71120W        W39338  32.425   5.842  10.702
71121W        W39339  42.013  16.697  11.651
71122W        W39340  42.425  33.413  11.400
71123W        W39341  15.731  21.279   3.561
71124W        W39342  44.957  14.276   1.352
71125W        W39343  23.862   7.835   4.859
71126W        W39344  17.716  34.149  14.728
71127W        W39345  28.104   8.609  11.919
71128W        W39346  20.783   1.140  13.336
71129W        W39347  24.907  16.575   4.886
71130W        W39348  44.903  40.586   3.796
71131W        W39349   0.690  25.359   0.879
71132W        W39350  38.584  21.180  14.338
71133W        W39351  22.220  13.737  14.662
71134W        W39352  34.534  34.485   3.764
71135W        W39353  22.820  12.773   1.933
71136W        W39354  13.848   8.065  11.095
71137W        W39355  34.541  42.455   4.578
71138W        W39356  16.797  18.448   2.714
71139W        W39357  23.097  36.041   0.759
71140W        W39358  42.549  42.044  14.283
71141W        W39359  13.054  30.651  11.089
71142W        W39360  10.771  21.034   4.578
71143W        W39361   0.453  36.944  12.559
71144W        W39362  21.523  37.064   3.569
71145W        W39363  16.538  35.748   1.262
71146W        W39364  19.478  36.710  13.343
71147W        W39365  31.155   9.784   1.020
71148W        W39366  22.519  22.530  13.442
71149W        W39367   4.430  16.399  13.094
71150W        W39368  14.248  11.470   2.824
71151W        W39369  26.269  13.685  14.536
71152W        W39370  19.173  17.262  11.006
71153W        W39371  17.474  42.224   2.326
71154W        W39372  38.262  43.545   0.489
71155W        W39373   6.115  37.728   4.983
71156W        W39374  30.462  33.691   1.313
71157W        W39375   3.406  29.428   4.553
71158W        W39376  25.084  30.993  11.243
71159W        W39377  36.716   2.650  13.005
71160W        W39378  32.054  28.836  14.864
71161W        W39379   1.005  32.980   4.178
71162W        W39380  40.790  12.848  11.654
71163W        W39381   6.035  22.301   3.417
71164W        W39382  24.653   3.974  12.127
71165W        W39383   9.599   8.427   4.029
71166W        W39384  39.398  10.658  12.290
71167W        W39385  30.998  28.726  14.232
71168W        W39386  34.829  27.068   2.436
71169W        W39387  11.201   6.258  13.990
71170W        W39388  21.071  16.625   1.322
71171W        W39389  37.036   2.415  13.768
71172W        W39390  37.553  35.345  14.521
71173W        W39391  44.383  16.231   0.707
71174W        W39392   9.895  31.557  12.811
71175W        W39393  32.608   2.758  11.166
71176W        W39394  44.417  38.624   0.891
71177W        W39395  26.316  12.134  10.335
71178W        W39396  10.587  38.764   3.259
71179W        W39397  16.625   4.888   2.304
71180W        W39398  42.984  40.292  14.462
71181W        W39399  40.918   8.717  12.196
71182W        W39400  29.202  18.075   3.424
71183W        W39401  43.278  39.773  12.831
71184W        W39402  31.963  10.034  11.469
71185W        W39403   0.040  27.206   1.658
71186W        W39404  16.217   5.473  13.086
71187W        W39405  42.582  10.327  12.836
71188W        W39406   0.774  35.787   0.664
71189W        W39407   3.882  18.138   4.351
71190W        W39408  10.300  14.099  10.637
71191W        W39409  26.137  13.794  13.069
71192W        W39410  35.878  29.077   3.257
71193W        W39411  33.984  21.796   4.163
71194W        W39412  33.067  28.974  10.718
71195W        W39413  28.079  28.620  10.834
71196W        W39414   6.029  23.373   4.588
71197W        W39415  42.904   5.983   3.680
71198W        W39416  15.156  22.983   4.026
71199W        W39417  43.985  39.854   1.735
71200W        W39418  42.258  38.411  11.463
71201W        W39419  33.953  20.636  14.456
71202W        W39420   5.350  35.611  12.433
71203W        W39421   0.765  37.231   1.661
71204W        W39422  13.877  32.111   2.338
71205W        W39423   0.782  19.244   3.819
71206W        W39424  19.787  22.535  13.341
71207W        W39425   9.553  22.149  11.438
71208W        W39426  19.311  35.490  10.770
71209W        W39427  29.179  40.797  10.614
71210W        W39428  33.588  19.187   1.378
71211W        W39429  21.055  27.423   0.722
71212W        W39430  32.557  39.127  13.893
71213W        W39431  10.227  13.110   2.592
71214W        W39432  44.716  15.294   3.074
71215W        W39433  31.620   9.602   4.955
71216W        W39434  23.543  43.318  11.015
71217W        W39435   5.264  19.735  12.937
71218W        W39436  18.832   8.288  11.966
71219W        W39437  25.158  23.360  13.889
71220W        W39438  32.358  41.568   1.346
71221W        W39439  34.304   8.334  14.921
71222W        W39440   7.072  38.901  14.702
71223W        W39441  26.792   5.978  14.036
71224W        W39442  30.404  24.065   1.530
71225W        W39443  22.058  30.142  10.896
71226W        W39444  30.539   1.311   3.269
71227W        W39445  15.748  32.048  11.506
71228W        W39446   9.432  18.219   3.235
71229W        W39447   9.813  38.390  13.425
71230W        W39448   6.195  40.866  13.838
71231W        W39449  36.423  14.461   0.457
71232W        W39450  34.357  26.136  11.629
71233W        W39451  39.310  42.837  13.935
71234W        W39452  35.511  20.327   1.222
71235W        W39453   9.291   4.338   4.504
71236W        W39454  14.841  22.284  13.884
71237W        W39455  42.485   0.464  13.758
71238W        W39456  44.529  13.904   0.370
71239W        W39457   7.671  37.895  13.744
71240W        W39458  20.315  13.162  10.593
71241W        W39459  38.457   4.310   2.775
71242W        W39460  13.829  27.162  13.033
71243W        W39461  34.999  42.014  14.237
71244W        W39462  24.058  30.471  14.866
71245W        W39463  18.111  15.818   1.205
71246W        W39464   7.696  13.894  10.639
71247W        W39465  23.905  10.298   2.143
71248W        W39466  31.667   1.652   2.742
71249W        W39467  28.887  43.590  12.502
71250W        W39468  24.065   6.556   2.291
71251W        W39469   6.607   4.469   3.268
71252W        W39470  22.067  16.573  12.101
71253W        W39471  36.447  42.397   0.544
71254W        W39472  44.131  29.621   0.799
71255W        W39473   9.897  44.451   0.321
71256W        W39474   9.329  25.893  12.834
71257W        W39475   6.312  16.196   2.270
71258W        W39476  19.114   2.857  10.508
71259W        W39477  39.896  21.400  12.012
71260W        W39478  11.256  25.409   1.859
71261W        W39479  43.501   1.252   0.919
71262W        W39480  14.275   8.939   5.011
71263W        W39481   2.159  21.703  13.175
71264W        W39482   5.904  26.441   0.805
71265W        W39483  43.696   3.110  11.996
71266W        W39484   7.342  39.037   1.474
71267W        W39485  41.173  42.911   3.187
71268W        W39486  19.117  19.309   1.675
71269W        W39487   6.723  12.579   0.919
71270W        W39488  40.275  33.574   2.417
71271W        W39489  17.704  22.658   4.112
71272W        W39490  25.003  31.010  14.083
71273W        W39491  21.160  16.626  11.877
71274W        W39492  42.311  15.535  11.998
71275W        W39493  13.035  20.081  11.083
71276W        W39494  15.405  43.257  12.543
71277W        W39495  30.487   3.873  13.026
71278W        W39496  18.475  26.111  14.892
71279W        W39497  12.749  15.579   0.276
71280W        W39498  16.273  14.188   4.064
71281W        W39499  10.661  24.295  13.341
71282W        W39500  36.443  12.370  11.235
71283W        W39501  31.608  32.943   3.069
71284W        W39502   3.203  37.433  12.461
71285W        W39503  22.093  22.755  13.729
71286W        W39504   9.138   6.610  13.392
71287W        W39505  37.411  24.963   0.043
71288W        W39506  38.355  36.199   1.021
71289W        W39507   9.807   4.282   3.278
71290W        W39508  13.179  41.800   3.036
71291W        W39509   3.249  21.786   2.293
71292W        W39510  14.000  32.110   4.243
71293W        W39511   8.890  24.029   2.851
71294W        W39512  29.036  32.548   1.326
71295W        W39513   4.761   7.279  12.467
71296W        W39514  42.907  13.020  14.944
71297W        W39515   8.823  36.033  14.811
71298W        W39516  26.071  13.792   1.369
71299W        W39517   8.221  30.466  13.519
71300W        W39518  27.074  21.677  11.385
71301W        W39519   7.842  25.691   4.264
71302W        W39520   2.178  42.867   4.953
71303W        W39521   9.837  40.345   2.938
71304W        W39522   3.171   6.383   4.874
71305W        W39523  14.841  43.512  14.905
71306W        W39524  32.613  19.559   4.888
71307W        W39525   0.824  25.678   4.071
71308W        W39526  25.624   9.379   0.102
71309W        W39527   6.863  44.150   0.210
71310W        W39528   9.159  11.820   3.189
71311W        W39529  11.244  24.493   1.877
71312W        W39530  14.830  20.522   3.716
71313W        W39531  25.865  32.522  13.030
71314W        W39532  21.670  36.674  10.728
71315W        W39533  44.267  38.836   1.342
71316W        W39534  20.782   1.472   2.363
71317W        W39535  40.416  40.819  13.778
71318W        W39536  11.833   4.234  12.566
71319W        W39537  31.881  36.825  14.113
71320W        W39538  28.690  15.014   3.965
71321W        W39539  14.000  40.858  12.990
71322W        W39540  43.410  26.465  12.534
71323W        W39541  24.958  20.305  11.697
71324W        W39542  22.479   6.590  14.023
71325W        W39543  44.010  16.393   4.244
71326W        W39544  10.901  44.882  13.830
71327W        W39545  20.103  25.266   3.813
71328W        W39546  34.917  11.863   0.472
71329W        W39547   4.955  16.649   2.417
71330W        W39548   7.415  33.088   3.215
71331W        W39549   2.240  14.343  10.542
71332W        W39550  38.512   0.349  13.952
71333W        W39551  37.131   3.333  14.756
71334W        W39552   3.913  35.280  14.783
71335W        W39553  10.791   9.435  11.689
71336W        W39554  36.333   9.977  11.430
71337W        W39555  39.052  10.992  10.628
71338W        W39556  39.952  31.178   0.819
71339W        W39557   1.427  44.970   3.754
71340W        W39558  15.557  12.329   2.876
71341W        W39559   6.308  16.504   9.847
71342W        W39560   5.366  32.112   2.703
71343W        W39561  20.540  27.629   1.892
71344W        W39562  42.429  32.419   3.356
71345W        W39563  22.640  21.772  12.970
71346W        W39564  44.401  33.922   0.964
71347W        W39565   3.224  19.117   3.638
71348W        W39566  31.687  34.554  13.827
71349W        W39567   2.696  37.776  14.905
71350W        W39568  17.238  19.998   0.957
71351W        W39569  19.630  32.054   3.588
71352W        W39570  15.341  27.501   0.380
71353W        W39571   2.972  13.599  12.562
71354W        W39572  36.284  11.703  14.786
71355W        W39573  15.236   8.030  11.092
71356W        W39574  39.229  34.212  12.481
71357W        W39575   5.692  41.287  13.478
71358W        W39576   4.467  16.886  11.632
71359W        W39577  19.058  31.185  11.799
71360W        W39578  38.096  23.349  13.683
71361W        W39579  23.256  17.817  14.842
71362W        W39580   2.984  37.930  12.236
71363W        W39581   1.146  28.350   2.378
71364W        W39582  24.840  19.202  11.369
71365W        W39583  28.929  12.621   4.147
71366W        W39584  19.964  16.127   3.240
71367W        W39585  28.484  42.436  14.487
71368W        W39586  15.500   3.473  12.082
71369W        W39587  11.289  22.125   4.521
71370W        W39588   0.823  27.595   4.451
71371W        W39589  21.526   5.189   2.125
71372W        W39590  34.032  17.661  13.841
71373W        W39591  14.165  23.115  10.626
71374W        W39592  11.202  17.742   2.554
71375W        W39593  18.775  17.349   0.881
71376W        W39594   7.209   9.184  11.138
71377W        W39595  35.908   2.141  13.266
71378W        W39596   2.064  24.277   0.351
71379W        W39597   3.707  30.879   1.889
71380W        W39598   5.720   2.527  13.435
71381W        W39599   0.747  12.658  13.075
71382W        W39600  24.335   0.534  13.563
71383W        W39601  19.595   5.965  11.180
71384W        W39602  15.597  41.972  13.112
71385W        W39603  19.870   9.839  13.821
71386W        W39604  10.647   9.368  13.523
71387W        W39605  11.182  12.245  12.147
71388W        W39606  29.633  12.774  13.961
71389W        W39607   8.584   8.283  13.110
71390W        W39608  30.372  36.368  13.574
71391W        W39609   8.434  38.609  14.480
71392W        W39610   0.863   0.933   4.080
71393W        W39611  38.539  15.406   4.911
71394W        W39612  44.847  41.596  11.403
71395W        W39613  34.901  36.585   3.659
71396W        W39614  16.072   6.245   4.395
71397W        W39615  35.759   5.911  13.523
71398W        W39616  20.698  20.773   1.928
71399W        W39617  33.512  21.752   2.373
71400W        W39618  18.804  20.325   3.333
71401W        W39619   9.825   6.684   1.797
71402W        W39620  37.490  12.603   3.987
71403W        W39621  10.803  34.525  10.979
71404W        W39622  10.669  43.312  11.958
71405W        W39623  38.891  22.202  11.999
71406W        W39624  12.640  43.933  12.554
71407W        W39625  14.699  39.021   2.038
71408W        W39626  10.849  40.290  14.340
71409W        W39627  17.190  14.199   3.137
71410W        W39628   0.978   4.245  11.199
71411W        W39629  35.079  12.970   4.829
71412W        W39630   1.297  13.118   3.235
71413W        W39631   8.776  29.270  12.910
71414W        W39632   4.436  44.706   2.745
71415W        W39633  34.092   3.999  10.759
71416W        W39634  29.224  27.981  14.626
71417W        W39635  38.522  34.182  14.403
71418W        W39636  18.154   7.033  11.809
71419W        W39637  40.798  32.434   2.830
71420W        W39638  30.328  26.221   2.121
71421W        W39639   3.068  34.874   0.755
71422W        W39640  32.996  32.026   1.499
71423W        W39641  26.266  10.640  12.808
71424W        W39642  44.533  30.802   3.234
71425W        W39643  20.303   6.301  13.536
71426W        W39644  29.330  25.697  13.475
71427W        W39645  28.729  22.143   2.155
71428W        W39646  22.121  19.316   0.403
71429W        W39647  16.772  27.068  12.109
71430W        W39648  39.459  33.163   3.789
71431W        W39649  13.801  44.149  11.225
71432W        W39650  31.175  43.335  12.183
71433W        W39651  18.990  26.522  13.449
71434W        W39652  40.566  20.065  13.632
71435W        W39653  28.758  19.123  13.191
71436W        W39654   4.459  44.562  14.244
71437W        W39655   8.779  39.243  13.925
71438W        W39656  43.190  22.247  14.715
71439W        W39657  12.523  14.201   2.311
71440W        W39658  34.369  27.855   3.549
71441W        W39659  31.617  16.158   1.449
71442W        W39660  32.685   8.461  11.237
71443W        W39661  41.957  19.514   3.692
71444W        W39662  36.388  40.381  14.796
71445W        W39663  20.136  37.896  12.628
71446W        W39664  25.051  16.285   9.737
71447W        W39665  27.951  29.441  12.983
71448W        W39666  19.108  35.629   5.042
71449W        W39667  15.232  26.902   1.505
71450W        W39668  38.996  15.678   5.058
71451W        W39669  12.989  37.368   4.204
71452W        W39670   4.339   8.204   1.251
71453W        W39671  40.137  13.799   1.878
71454W        W39672  17.215  22.359   1.297
71455W        W39673  42.867  37.373  12.689
71456W        W39674  12.397  24.652   0.897
71457W        W39675  35.944   6.915   4.011
71458W        W39676  14.343  20.193  12.971
71459W        W39677  25.973  14.495   1.077
71460W        W39678  16.108  41.449   3.433
71461W        W39679  14.250  30.967  13.326
71462W        W39680  27.855  43.954  13.915
71463W        W39681  28.612   4.406  14.988
71464W        W39682  30.678  14.822  11.000
71465W        W39683  43.523  28.103  10.941
71466W        W39684  38.358  38.777  12.893
71467W        W39685  23.237  40.180  12.475
71468W        W39686   7.751  26.942   3.587
71469W        W39687   5.780  35.332   2.449
71470W        W39688   2.731   6.565   3.495
71471W        W39689  26.300  14.680  12.177
71472W        W39690   9.296   0.944  11.989
71473W        W39691  31.023  31.905   3.420
71474W        W39692  44.762   3.226   1.078
71475W        W39693  27.032   6.559   0.359
71476W        W39694  12.840  40.546  13.660
71477W        W39695  25.836  41.400   4.818
71478W        W39696  15.059  19.733  14.255
71479W        W39697  17.643  39.800  14.542
71480W        W39698  29.523   8.670  12.002
71481W        W39699   9.136  24.867  11.220
71482W        W39700  43.371  18.886  11.198
71483W        W39701  29.066  37.957  14.962
71484W        W39702  42.889  15.904  12.821
71485W        W39703  22.974  10.892   4.107
71486W        W39704   5.419  33.694  10.714
71487W        W39705   8.697  30.286  11.678
71488W        W39706  10.231  22.742   2.671
71489W        W39707  30.844  13.685   1.126
71490W        W39708  42.832  34.947  12.353
71491W        W39709  34.036   5.296   5.494
71492W        W39710  39.405  16.264   2.626
71493W        W39711  23.193   8.668   4.353
71494W        W39712  30.310  10.296  12.105
71495W        W39713   3.762   9.805   1.752
71496W        W39714  12.897  21.962   3.300
71497W        W39715   8.755  44.773  11.947
71498W        W39716  14.726  30.492   0.800
71499W        W39717  37.037  42.013   3.910
71500W        W39718  37.532  19.002  11.932
71501W        W39719  23.997   0.125  13.491
71502W        W39720  32.142  27.400   1.542
71503W        W39721  44.874  15.950  12.473
71504W        W39722  17.357   9.425  12.856
71505W        W39723  26.348  35.870   1.323
71506W        W39724  24.969   0.357   3.741
71507W        W39725  35.904  27.548  13.383
71508W        W39726  41.725   9.389  13.423
71509W        W39727   3.840  13.744  11.937
71510W        W39728  10.821  40.747  13.421
71511W        W39729   2.396   6.983  12.571
71512W        W39730  17.449  28.962   3.319
71513W        W39731   8.689   5.826  11.583
71514W        W39732  37.682  27.408   2.934
71515W        W39733  10.076  37.138  12.904
71516W        W39734  23.512   0.815   1.494
71517W        W39735  31.176  31.792  11.939
71518W        W39736  11.948   3.355  11.729
71519W        W39737  17.734  37.404   4.375
71520W        W39738  34.912  19.183   0.862
71521W        W39739  23.251   5.771   2.375
71522W        W39740  22.518  29.488  14.044
71523W        W39741  36.391  14.357  14.417
71524W        W39742  38.896  37.546  13.024
71525W        W39743  39.612  18.371  11.232
71526W        W39744  11.139   7.698  11.562
71527W        W39745  40.013  35.794   3.935
71528W        W39746  10.848   3.695  11.140
71529W        W39747   3.419  31.571   0.365
71530W        W39748  24.907  20.846  13.876
71531W        W39749  22.499  34.894  12.030
71532W        W39750  25.743  38.905   3.370
71533W        W39751  15.315   4.437  10.297
71534W        W39752  17.358  33.845   3.930
71535W        W39753  27.511  40.643  12.432
71536W        W39754  14.149  39.470  12.489
71537W        W39755  42.967  43.866  12.572
71538W        W39756   9.594  41.463  13.845
71539W        W39757  27.868  21.235   0.229
71540W        W39758  15.802  19.086   0.039
71541W        W39759  23.143   4.370   3.190
71542W        W39760  32.163   1.650   4.049
71543W        W39761  28.751  16.455   4.157
71544W        W39762  27.024  12.535  11.517
71545W        W39763  27.065  30.353  10.812
71546W        W39764  11.836  13.140   2.756
71547W        W39765  10.569   8.641   3.322
71548W        W39766   8.178   7.783   0.742
71549W        W39767   6.870  15.691  10.696
71550W        W39768  35.868  26.568   2.644
71551W        W39769  13.085   4.033   4.318
71552W        W39770  13.123   9.898  11.106
71553W        W39771  22.621  18.056  10.446
71554W        W39772  37.923   9.397  11.046
71555W        W39773  15.808  24.999   3.303
71556W        W39774  15.440  11.102   1.322
71557W        W39775  31.381  42.782  12.246
71558W        W39776  29.024   2.983   4.015
71559W        W39777   2.866  42.015  14.708
71560W        W39778  33.391  20.165   1.818
71561W        W39779  24.139   2.898   4.433
71562W        W39780   7.633  39.829   4.119
71563W        W39781  28.611   7.794   1.357
71564W        W39782  11.635  26.196   1.522
71565W        W39783   8.756  23.754   4.191
71566W        W39784   5.932  21.282   3.651
71567W        W39785  29.565  25.636  10.465
71568W        W39786  10.672  32.387   1.224
71569W        W39787   2.788  42.395   3.309
71570W        W39788  39.519   8.837   0.199
71571W        W39789  19.837  33.275  13.016
71572W        W39790  38.291  17.558   1.932
71573W        W39791  13.134  23.222  11.204
71574W        W39792  35.053  37.822   4.069
71575W        W39793  33.997  18.087  12.034
71576W        W39794  22.517  41.254   2.886
71577W        W39795  42.410  18.700   3.575
71578W        W39796  27.566  33.521  11.594
71579W        W39797   4.425   1.684   1.383
71580W        W39798   3.405  35.828  11.681
71581W        W39799  16.286  22.460  11.163
71582W        W39800  15.323  34.609   3.423
71583W        W39801   4.408  23.594  14.787
71584W        W39802  20.439   1.675   1.995
71585W        W39803  23.178  44.982  10.968
71586W        W39804   9.411  22.471   9.950
71587W        W39805  12.875  39.013  12.841
71588W        W39806  44.009   7.801  13.640
71589W        W39807  30.115  25.727  11.655
71590W        W39808  41.528  36.900   3.102
71591W        W39809   1.266  17.652  14.820
71592W        W39810  30.628  25.056  14.280
71593W        W39811   8.404   0.230  14.954
71594W        W39812  37.861  11.928  13.690
71595W        W39813  37.504  18.886  13.974
71596W        W39814  18.219  24.111   4.196
71597W        W39815  27.875   6.675   2.403
71598W        W39816  10.853   8.755   2.881
71599W        W39817  35.468  42.633   1.290
71600W        W39818  20.812  22.105  10.675
71601W        W39819   9.319  35.196  11.156
71602W        W39820   7.899  30.324  14.012
71603W        W39821  42.873  29.411  13.523
71604W        W39822  13.742  21.205   4.290
71605W        W39823   3.699  36.958   4.819
71606W        W39824  25.261   9.710   3.675
71607W        W39825  12.945  21.293   4.557
71608W        W39826  18.522  44.688  14.947
71609W        W39827  37.516  32.028   3.261
71610W        W39828  14.686  38.852  10.751
71611W        W39829  28.426  39.609   4.097
71612W        W39830   7.128  24.227  11.758
71613W        W39831   5.292  31.778   3.115
71614W        W39832  35.520  17.212  14.147
71615W        W39833  33.511  34.846  10.632
71616W        W39834  27.494  30.770   4.867
71617W        W39835  39.458  34.107   4.854
71618W        W39836  15.977  26.540  11.017
71619W        W39837  28.360  37.989  10.874
71620W        W39838  40.331  20.512   4.852
71621W        W39839  23.918   6.245   4.203
71622W        W39840  10.617  21.563   0.613
71623W        W39841  27.440  26.048  13.798
71624W        W39842   7.126  19.464  13.609
71625W        W39843   5.884  31.011  14.955
71626W        W39844  42.078  28.577   3.211
71627W        W39845   8.663  37.911  12.568
71628W        W39846   2.004  43.981   0.299
71629W        W39847  14.050  35.574   3.526
71630W        W39848  12.280   6.144  12.868
71631W        W39849   7.385  31.002  11.230
71632W        W39850  18.739  23.043  13.037
71633W        W39851  21.608  30.145   3.794
71634W        W39852  44.028  38.017   3.912
71635W        W39853  23.248  12.566  11.535
71636W        W39854  21.927  19.198   2.816
71637W        W39855  34.846  24.620   3.820
71638W        W39856  25.238   6.111   3.138
71639W        W39857  14.142  42.411   9.848
71640W        W39858  13.120  21.576  12.363
71641W        W39859   4.670  31.862  11.196
71642W        W39860  30.772  24.021   3.192
71643W        W39861  26.403  30.981   4.217
71644W        W39862  11.686  44.763   1.831
71645W        W39863  28.420  26.324   0.852
71646W        W39864   6.713  24.536   2.805
71647W        W39865  27.555  24.226  14.415
71648W        W39866   5.172   1.422  12.872
71649W        W39867  17.305   4.210   1.635
71650W        W39868  39.517   4.740  13.074
71651W        W39869  39.391   6.793   2.374
71652W        W39870   7.327  21.051  12.079
71653W        W39871  23.035   6.383   4.908
71654W        W39872  21.113  41.858  10.748
71655W        W39873   3.758  36.979  12.448
71656W        W39874  14.561  10.910  12.088
71657W        W39875  10.892  22.059  12.108
71658W        W39876  36.820  20.111   3.485
71659W        W39877   3.913  18.594  10.483
71660W        W39878  19.988   8.821   1.981
71661W        W39879  20.719   7.492  14.186
71662W        W39880   3.671  33.134   2.134
71663W        W39881  38.973  37.614  13.858
71664W        W39882  25.698  40.774  10.068
71665W        W39883  38.482  28.425   1.775
71666W        W39884  40.792  34.370   0.822
71667W        W39885  10.735   3.859  14.196
71668W        W39886   5.936  44.864  10.829
71669W        W39887  26.462  16.878  11.104
71670W        W39888  21.194   8.122  14.820
71671W        W39889  16.697  39.414   0.849
71672W        W39890  20.277   8.243  14.720
71673W        W39891   8.145  42.774  10.145
71674W        W39892  22.261  14.847   1.586
71675W        W39893  41.486  17.119  14.812
71676W        W39894  19.044  29.577  14.540
71677W        W39895   8.228  28.118   0.297
71678W        W39896  28.116   1.970   9.935
71679W        W39897  29.633  40.589  10.451
71680W        W39898  27.496   2.153  14.298
71681W        W39899  37.946  41.916   1.491
71682W        W39900  25.604  19.568  14.405
71683W        W39901  31.660  11.032  13.216
71684W        W39902   5.926  32.020   4.518
71685W        W39903  28.910  11.850  11.561
71686W        W39904  36.654   8.278   0.982
71687W        W39905  28.971  10.939  12.479
71688W        W39906  31.963  15.085  12.036
71689W        W39907  30.187  42.484   0.303
71690W        W39908  23.940  20.006  11.521
71691W        W39909   0.982   1.929  14.633
71692W        W39910   0.771  15.914  13.791
71693W        W39911   1.202  21.993   0.300
71694W        W39912  29.167   0.103   2.827
71695W        W39913  39.988  30.394  13.238
71696W        W39914  41.459  43.881  11.246
71697W        W39915  33.454  19.035  10.606
71698W        W39916  35.978  41.016   1.774
71699W        W39917  37.773  15.735   4.648
71700W        W39918  38.375  17.025   2.668
71701W        W39919  34.865  34.229  10.961
71702W        W39920  14.945   5.245  13.827
71703W        W39921  13.901  30.426  14.416
71704W        W39922  22.328  23.242  13.801
71705W        W39923  10.780  10.398   1.797
71706W        W39924  16.254   5.407   2.945
71707W        W39925  10.669  39.259  13.473
71708W        W39926  16.271  39.945  13.799
71709W        W39927  37.831   1.479  10.264
71710W        W39928  43.999  12.667   2.765
71711W        W39929   9.779   8.438   2.226
71712W        W39930   1.172  41.241   4.171
71713W        W39931   9.592  40.057  14.879
71714W        W39932  23.553  17.092   4.256
71715W        W39933  43.026  26.161   2.727
71716W        W39934  26.434  32.053   3.392
71717W        W39935  34.511  29.567  14.066
71718W        W39936  22.471   2.254  12.946
71719W        W39937  33.703  15.580   1.194
71720W        W39938  32.057  26.569  11.015
71721W        W39939   6.268  11.727   2.316
71722W        W39940  23.450  11.306   0.245
71723W        W39941   7.271  43.728  12.222
71724W        W39942  18.754  24.522   2.822
71725W        W39943   7.519  30.667  13.953
71726W        W39944  29.148  36.026   3.619
71727W        W39945   0.504  40.038   4.460
71728W        W39946   7.576  34.506  13.858
71729W        W39947  34.409   4.758  10.930
71730W        W39948   7.368   5.740   4.645
71731W        W39949  36.614  15.262  11.117
71732W        W39950  29.086  25.579  11.627
71733W        W39951   0.354  17.458   4.892
71734W        W39952  35.631  29.698  11.579
71735W        W39953  29.496   9.823   2.809
71736W        W39954  14.683  29.738  13.412
71737W        W39955  34.535   9.141   2.385
71738W        W39956  42.896   6.035  13.273
71739W        W39957  37.607  20.526   4.470
71740W        W39958   6.173   4.312   2.248
71741W        W39959  44.959  37.542   1.924
71742W        W39960  35.411  16.759  11.300
71743W        W39961  12.831  40.363  12.868
71744W        W39962  37.835   8.911   4.276
71745W        W39963  36.098  39.911  14.039
71746W        W39964  26.537   1.001  14.484
71747W        W39965  37.509  13.006   4.515
71748W        W39966  18.716  42.792   4.009
71749W        W39967  10.397   9.516  13.100
71750W        W39968  36.858  10.139  14.970
71751W        W39969  20.054  20.138   0.405
71752W        W39970  22.274  38.893  14.917
71753W        W39971   7.266  35.100  10.705
71754W        W39972  42.468   4.620   3.769
71755W        W39973  23.617  44.890  11.240
71756W        W39974  22.401  19.539  13.401
71757W        W39975   8.786  40.625  12.154
71758W        W39976   2.541  33.844  10.556
71759W        W39977  35.836  14.623  14.432
71760W        W39978  15.377  43.083  14.351
71761W        W39979   5.322   3.988   3.516
71762W        W39980  12.865   3.375   3.660
71763W        W39981  15.718   9.249   4.964
71764W        W39982   4.256   9.460  14.433
71765W        W39983  10.097  20.485   0.475
71766W        W39984  39.889  41.591  12.666
71767W        W39985  16.372   2.965   0.796
71768W        W39986  30.827   7.220  14.947
71769W        W39987  11.735  21.983  10.689
71770W        W39988   0.852  31.842   3.706
71771W        W39989   2.793  18.972   0.720
71772W        W39990  26.121   9.104   1.898
71773W        W39991  22.955  32.914  11.525
71774W        W39992  24.499   0.018  10.721
71775W        W39993  44.479  18.212   2.630
71776W        W39994  22.682  28.603   3.347
71777W        W39995  21.971  34.861  14.324
71778W        W39996  42.606  16.690  12.460
71779W        W39997   5.673  44.285   0.849
71780W        W39998   9.472  36.028  11.982
71781W        W39999  42.812   1.395   4.654
71782W        W40000   5.985   7.923   3.371
71783W        W40001  23.518  27.726   3.663
71784W        W40002  26.442  22.555  14.506
71785W        W40003  11.701   1.623  14.807
71786W        W40004  16.564  24.352   2.355
71787W        W40005   8.917  32.592   1.794
71788W        W40006  32.627  15.683  14.776
71789W        W40007  37.368  18.745   2.264
71790W        W40008   5.126  19.037   1.868
71791W        W40009  10.610  27.677   1.317
71792W        W40010  23.074  31.194  10.556
71793W        W40011  14.079  37.511  13.979
71794W        W40012   7.681  41.134   1.802
71795W        W40013  21.290   8.867   0.488
71796W        W40014   2.977  43.441  12.761
71797W        W40015   1.209  17.050  14.188
71798W        W40016  39.133  24.108  13.881
71799W        W40017  30.340  42.683   2.775
71800W        W40018  43.280  11.190  13.553
71801W        W40019   9.612  16.246   0.424
71802W        W40020  42.422  21.375   9.894
71803W        W40021  15.555   1.816   4.140
71804W        W40022  38.965  12.181  14.955
71805W        W40023  12.205   2.676  12.909
71806W        W40024  27.697  35.022  10.699
71807W        W40025  24.671   3.417   1.386
71808W        W40026  28.155   4.529  14.404
71809W        W40027  15.557  26.127   0.870
71810W        W40028   0.737  12.603   1.906
71811W        W40029  40.819  13.259  14.038
71812W        W40030   5.409  33.655  12.742
71813W        W40031   3.062  10.443  12.513
71814W        W40032  15.843  29.010  12.056
71815W        W40033  42.854  10.026   4.820
71816W        W40034  42.458   1.063   3.161
71817W        W40035  16.501  24.037   1.390
71818W        W40036  27.445   6.802   3.255
71819W        W40037  24.194  18.277  10.768
71820W        W40038   3.600   9.622  10.163
71821W        W40039   5.797  16.286  13.977
71822W        W40040  32.204  21.743   3.685
71823W        W40041  11.323  12.389   1.211
71824W        W40042  31.654  24.524  10.703
71825W        W40043   1.323  32.888  12.981
71826W        W40044  12.112  28.524   3.663
71827W        W40045  36.052  30.121   0.786
71828W        W40046  17.637  18.413  10.701
71829W        W40047  18.687   0.200   4.128
71830W        W40048  24.295  36.607   0.874
71831W        W40049  24.432  40.341  11.596
71832W        W40050  27.241  25.748  11.674
71833W        W40051  37.939  32.670   3.756
71834W        W40052   9.290  27.456   1.019
71835W        W40053   8.378  18.289   1.433
71836W        W40054  30.053  20.764  10.596
71837W        W40055   2.259  25.489  11.164
71838W        W40056  26.223   1.850  12.900
71839W        W40057  38.886  13.638  11.177
71840W        W40058  20.727   3.362  14.421
71841W        W40059  30.480  42.629  12.201
71842W        W40060  35.508  34.453   4.742
71843W        W40061  15.132   5.708  11.932
71844W        W40062  22.097   8.145  12.833
71845W        W40063  28.445  26.549  14.001
71846W        W40064   4.332  13.286  12.544
71847W        W40065  36.799  37.032  12.397
71848W        W40066  26.439  33.501  12.707
71849W        W40067  44.159  39.378   4.365
71850W        W40068  17.810   9.172   0.904
71851W        W40069  14.031  18.181   0.903
71852W        W40070  32.291   6.049   3.369
71853W        W40071   8.267  28.480  14.909
71854W        W40072  32.991  12.130   0.358
71855W        W40073   4.447  30.553  11.447
71856W        W40074  16.688   8.504   1.739
71857W        W40075  32.660  25.401   1.574
71858W        W40076  22.489  33.897  12.065
71859W        W40077  36.108  39.044   0.468
71860W        W40078  36.490  22.488   1.301
71861W        W40079  12.193  44.895   4.707
71862W        W40080  38.432  23.537  10.682
71863W        W40081  14.382   5.224  12.118
71864W        W40082  21.050  44.871  12.731
71865W        W40083  43.874  11.549  13.920
71866W        W40084  38.503  31.045  12.029
71867W        W40085  34.277  28.967   0.441
71868W        W40086  34.610   5.123  10.581
71869W        W40087   3.947  39.293   1.988
71870W        W40088  33.504   1.869   4.048
71871W        W40089   9.273  35.964   2.339
71872W        W40090   5.265  24.208  13.538
71873W        W40091  17.926  23.029  11.472
71874W        W40092   0.984   5.305  11.884
71875W        W40093   4.562  28.980  12.106
71876W        W40094  22.159  35.088   2.409
71877W        W40095  40.651  12.656  11.203
71878W        W40096  26.075  16.327  14.823
71879W        W40097   1.526  18.740  13.590
71880W        W40098  42.736  37.914  13.401
71881W        W40099  34.382  33.968  13.897
71882W        W40100  33.895  10.908   2.365
71883W        W40101   7.162  41.891   9.891
71884W        W40102  35.361  32.314  11.075
71885W        W40103  31.105  36.106   2.362
71886W        W40104  44.025   2.973  13.849
71887W        W40105  43.359  15.109   1.793
71888W        W40106  36.210  42.935  13.450
71889W        W40107  36.941  11.212  13.288
71890W        W40108  19.378  42.988  12.924
71891W        W40109  37.044  25.212  12.936
71892W        W40110   8.134   8.370   1.460
71893W        W40111  17.467  28.667  13.278
71894W        W40112  38.413  37.458  10.392
71895W        W40113  36.769  16.241   2.382
71896W        W40114   7.904  14.132   2.231
71897W        W40115  18.332  34.960   0.754
71898W        W40116   3.995  35.177   0.833
71899W        W40117   7.297  32.179   0.776
71900W        W40118  34.993  24.325  11.326
71901W        W40119  20.275  18.556  14.542
71902W        W40120  32.173   4.279  12.706
71903W        W40121  34.012  23.645   3.735
71904W        W40122  21.769  36.630  11.620
71905W        W40123  42.996  15.660   3.709
71906W        W40124  44.879   8.510   3.362
71907W        W40125  17.678  14.095   2.851
71908W        W40126  36.471  14.457  10.494
71909W        W40127  16.660  24.164   1.878
71910W        W40128  29.059   6.586  12.517
71911W        W40129  27.805  27.629   3.885
71912W        W40130   0.200   0.816   1.267
71913W        W40131  28.702  33.004  12.374
71914W        W40132  26.644  20.759  13.532
71915W        W40133  18.972  10.227  11.825
71916W        W40134  22.285  28.725  14.388
71917W        W40135  20.594  19.996   2.431
71918W        W40136  36.008  15.622  14.636
71919W        W40137  28.655   6.029   1.423
71920W        W40138   9.510  35.054   4.191
71921W        W40139  24.666  37.009  11.476
71922W        W40140  18.216  40.866   2.123
71923W        W40141  20.149  11.242   1.911
71924W        W40142  32.186   0.337   5.020
71925W        W40143  35.013   6.454  13.867
71926W        W40144  42.101   8.871   1.902
71927W        W40145  12.185  10.628  12.286
71928W        W40146   2.753  40.949   4.734
71929W        W40147  22.014  21.977   4.470
71930W        W40148  31.125  19.524  13.937
71931W        W40149  40.420   3.134  12.554
71932W        W40150  13.184  22.706  13.080
71933W        W40151  19.509  36.386  12.067
71934W        W40152  31.720  33.869  13.392
71935W        W40153  36.513  17.657  13.532
71936W        W40154  33.235   8.805   1.267
71937W        W40155  25.516   5.388   1.781
71938W        W40156   8.623  21.733   2.223
71939W        W40157  37.909  22.992   2.746
71940W        W40158  42.526  37.154  14.261
71941W        W40159  10.114  43.211  12.834
71942W        W40160  35.753   5.923  14.773
71943W        W40161  32.675   3.168   1.451
71944W        W40162   2.464   1.189   2.009
71945W        W40163  36.341  13.027   3.049
71946W        W40164  38.769  43.045  10.344
71947W        W40165  23.673  36.196  10.697
71948W        W40166  11.751  14.797   1.009
71949W        W40167  13.570  41.472   3.011
71950W        W40168  12.391   0.445  11.468
71951W        W40169   8.076  40.399   2.535
71952W        W40170  44.980  31.596  14.322
71953W        W40171  43.029  16.861   0.211
71954W        W40172  33.812  24.525   1.947
71955W        W40173  25.248  11.141   1.513
71956W        W40174   3.501  44.383  13.509
71957W        W40175  25.750  16.456   0.635
71958W        W40176  33.586  28.655   3.209
71959W        W40177   1.773  11.097  14.753
71960W        W40178  35.274  38.108  12.988
71961W        W40179  24.720  28.182   4.071
71962W        W40180   7.692  14.152  11.141
71963W        W40181  33.637   7.359  10.811
71964W        W40182   5.925  31.804   1.860
71965W        W40183  29.916  16.601  14.464
71966W        W40184  36.071  19.609  11.166
71967W        W40185   8.237  42.291  10.685
71968W        W40186  19.691  21.898  11.638
71969W        W40187  37.812  31.024   2.409
71970W        W40188  40.478  40.083   3.639
71971W        W40189   3.634  43.271  11.961
71972W        W40190  40.038  41.842   0.244
71973W        W40191  10.256  33.935   4.003
71974W        W40192  44.450   3.228  14.013
71975W        W40193  18.825  33.216  13.928
71976W        W40194  34.674  23.744  10.756
71977W        W40195  32.111  16.983   2.586
71978W        W40196  41.270  31.561   1.400
71979W        W40197  35.579   1.944   9.907
71980W        W40198   0.388  37.861   3.617
71981W        W40199   6.061  21.611   4.064
71982ION    NA+40200   9.635  24.532   3.319
71983ION    NA+40201  20.440  17.722  10.907
71984ION    NA+40202   2.423   1.439  13.811
71985ION    NA+40203  40.875  11.181   2.451
71986ION    NA+40204   9.323  25.814   1.352
71987ION    NA+40205   5.504  22.543  11.191
71988ION    NA+40206  34.928   7.487   1.640
71989ION    NA+40207  34.892  29.216  11.185
71990ION    NA+40208  32.857  20.913   1.611
71991ION    NA+40209  16.178  23.955  11.443
71992ION    NA+40210  22.454  31.146  11.180
71993ION    NA+40211  25.732  41.503  14.010
71994ION    NA+40212   8.943   8.575   1.060
71995ION    NA+40213  20.639   5.798  14.721
71996ION    NA+40214  31.291  28.119   4.070
71997ION    NA+40215  37.933   7.251   2.484
71998ION    NA+40216  22.852   4.367  11.929
71999ION    NA+40217  22.639  42.288   2.171
72000ION    NA+40218   5.883  39.330   4.018
72001ION    NA+40219  44.756  18.929  12.972
72002ION    NA+40220   6.175  27.933  11.850
72003ION    NA+40221  14.507  23.635  13.286
72004ION    NA+40222  13.462   6.669   2.491
72005ION    NA+40223  40.851   7.867   4.303
72006ION    NA+40224   8.109  24.162  13.380
72007ION    NA+40225  24.863   6.095   1.970
72008ION    NA+40226   1.411   6.537  10.810
72009ION    NA+40227  25.984  31.133  12.505
72010ION    NA+40228  33.272  40.045  12.311
72011ION    NA+40229  35.619  32.499  11.775
72012ION    NA+40230  30.962  19.082  11.560
72013ION    NA+40231   6.340  41.063   1.299
72014ION    NA+40232  41.370  39.113  12.459
72015ION    NA+40233  26.674   5.676  13.631
72016ION    NA+40234  30.937  18.681   2.100
72017ION    NA+40235  31.175   2.713  13.420
72018ION    NA+40236   0.374   7.790  14.157
72019ION    NA+40237  35.451  21.684  13.753
72020ION    NA+40238  14.732  30.149  10.938
72021ION    NA+40239  10.707  16.185   9.941
72022ION    NA+40240  23.741  30.872  14.779
72023ION    NA+40241   5.512  43.828   1.096
72024ION    NA+40242  21.511  42.000  13.713
72025ION    NA+40243  31.981   7.853   0.099
72026ION    NA+40244   3.463   7.774   0.532
72027ION    NA+40245   9.759  28.387   0.330
72028ION    NA+40246   0.326  24.381   4.277
72029ION    NA+40247  37.538  30.957   1.219
72030ION    NA+40248  20.265  43.604  10.329
72031ION    NA+40249  34.056  23.373   4.183
72032ION    NA+40250  37.353  31.127   4.328
72033ION    NA+40251  13.542  24.946   2.714
72034ION    NA+40252  35.341   7.325   2.410
72035ION    NA+40253  35.193  17.176  14.552
72036ION    NA+40254   8.851  15.652  10.334
72037ION    NA+40255   5.553  40.374   2.229
72038ION    NA+40256   4.297  38.578  11.578
72039ION    NA+40257   9.834   2.102   1.681
72040ION    NA+40258   3.305  22.670  11.116
72041ION    NA+40259  31.439  34.354  13.316
72042ION    NA+40260  12.358  36.385   1.804
72043ION    NA+40261   4.945   1.616  13.813
72044ION    NA+40262  26.211  18.179  12.122
72045ION    NA+40263   2.960   6.462   4.388
72046ION    NA+40264  13.575  26.464  13.473
72047ION    NA+40265  40.317   6.217  14.272
72048ION    NA+40266  37.823  14.364  12.821
72049ION    NA+40267  22.771  34.367  14.257
72050ION    NA+40268  35.935   5.772  11.194
72051ION    NA+40269  12.800  23.432   1.276
72052ION    NA+40270  32.468  17.907   9.904
72053ION    NA+40271  31.329  18.898  14.596
72054ION    NA+40272  25.085  24.039   0.489
72055ION    NA+40273  22.156  43.858   4.587
72056ION    NA+40274  31.740  27.242   0.019
72057ION    NA+40275  25.963  22.149  13.425
72058ION    NA+40276   0.393   8.796   1.507
72059ION    NA+40277  22.777  20.299   3.497
72060ION    NA+40278   7.570  28.059   4.663
72061ION    NA+40279   2.858   2.659   1.553
72062ION    NA+40280  13.846  17.106   2.251
72063ION    NA+40281  17.648   7.823  12.912
72064ION    NA+40282   6.397  22.087  10.708
72065ION    NA+40283  14.264   5.510   0.013
72066ION    NA+40284  43.733  43.177  13.487
72067ION    NA+40285  31.511  31.062   2.834
72068ION    NA+40286  27.119  26.604  10.936
72069ION    NA+40287  11.152  31.670  11.582
72070ION    NA+40288  35.015  34.435  13.343
72071ION    NA+40289  13.098  19.472   0.895
72072ION    NA+40290  27.639  34.849  14.481
72073ION    NA+40291  42.819   7.430  13.357
72074ION    NA+40292  38.323  34.926  11.933
72075ION    NA+40293   9.309  31.814  13.805
72076ION    NA+40294  27.964  36.896  10.899
72077ION    NA+40295  41.542  27.096  13.757
72078ION    NA+40296  40.896   7.698  10.340
72079ION    NA+40297  19.593  15.060  14.797
72080ION    NA+40298  37.305   5.361   4.536
72081ION    NA+40299  40.276  13.907  10.830
72082ION    NA+40300  25.773  33.545  11.148
72083ION    NA+40301   6.677  39.740  14.685
72084ION    NA+40302   9.723  27.867   3.787
72085ION    NA+40303  10.511  40.641  11.144
72086ION    NA+40304  15.954  39.981   2.329
72087ION    NA+40305  27.882  41.077  12.406
72088ION    NA+40306   4.241  21.100  12.377
72089ION    NA+40307   7.415   1.393  12.679
72090ION    NA+40308  11.138  12.928  13.871
72091ION    NA+40309  42.981  38.919  13.973
72092ION    NA+40310  26.273   2.853   2.214
72093ION    NA+40311  40.408  25.270  11.967
72094ION    NA+40312  26.389  22.132   0.545
72095ION    NA+40313   5.305  17.552   4.174
72096ION    NA+40314  11.087  42.851  14.812
72097ION    NA+40315  31.376  23.945  12.980
72098ION    NA+40316  34.456   7.757  11.678
72099ION    NA+40317  44.215  27.520  10.951
72100ION    NA+40318   3.637  38.362  12.381
72101ION    NA+40319   2.086  35.353  13.944
72102ION    NA+40320  22.676  28.908   3.756
72103ION    NA+40321   5.023  31.843  11.561
72104ION    NA+40322   9.686  30.493   2.824
72105ION    NA+40323  11.916  18.004  14.963
72106ION    NA+40324  42.443   5.633   2.893
72107ION    NA+40325  20.937  29.667   1.588
72108ION    NA+40326  33.496   5.254   0.639
72109ION    NA+40327  17.098  36.138   3.822
72110ION    NA+40328  24.704  38.992  11.949
72111ION    NA+40329  25.579  27.998   0.821
72112ION    NA+40330  32.341  28.315   1.260
72113ION    NA+40331   6.163  32.186  13.640
72114ION    NA+40332   2.041  29.671   3.639
72115ION    NA+40333  11.683  38.648   0.364
72116ION    NA+40334  28.673  13.373   9.806
72117ION    NA+40335  33.196  20.427   0.582
72118ION    NA+40336  10.242  16.754   0.840
72119ION    NA+40337  25.456  27.909   1.810
72120ION    NA+40338  20.680  22.536  13.371
72121ION    NA+40339  12.758  18.006   0.520
72122ION    NA+40340  29.223  38.667   0.208
72123ION    NA+40341  31.438  17.261  10.597
72124ION    NA+40342  39.089   8.148   0.441
72125ION    NA+40343  24.009  22.009   1.157
72126ION    NA+40344  37.988  18.782   0.577
72127ION    NA+40345  26.480  44.995   4.590
72128ION    NA+40346  39.513  32.479   0.992
72129ION    NA+40347  10.624   7.839   0.815
72130ION    NA+40348   1.598  37.067  11.304
72131ION    NA+40349  33.114  29.285   4.645
72132ION    NA+40350  25.942   0.926  11.077
72133ION    NA+40351   3.910  17.747  11.048
72134ION    NA+40352  15.569  39.156   0.797
72135ION    NA+40353  13.516  27.345  10.838
72136ION    NA+40354  11.000  44.398  13.040
72137ION    NA+40355   0.416  13.428   0.083
72138ION    NA+40356  44.688  31.772  10.202
72139ION    NA+40357  24.562  21.975  12.259
72140ION    NA+40358  32.155  16.112  14.403
72141ION    NA+40359   4.530  20.343  11.209
72142ION    NA+40360  32.760  31.398  13.329
72143ION    NA+40361  41.356  43.589  14.308
72144ION    NA+40362   2.107  18.345   0.546
72145ION    NA+40363  24.665  35.800  12.432
72146ION    NA+40364   8.566  34.690  13.858
72147ION    NA+40365   4.167  26.663   3.094
72148ION    NA+40366   8.552  22.828   4.051
72149ION    NA+40367  28.224   9.941  14.301
72150ION    NA+40368   6.828  39.053   3.847
72151ION    NA+40369  35.551  32.437   4.315
72152ION    NA+40370   6.935  40.270   4.221
72153ION    NA+40371  14.661  33.144   4.403
72154ION    NA+40372  25.060  26.396  12.157
72155ION    NA+40373  33.124  14.622   4.023
72156ION    NA+40374   6.129  11.283   1.548
72157ION    NA+40375   0.819  14.767   1.148
72158ION    NA+40376   6.782   1.472   3.565
72159ION    NA+40377  43.128   0.445  10.427
72160ION    NA+40378  25.171   3.775  12.163
72161ION    NA+40379  22.636  21.206  13.014
72162ION    NA+40380  25.719  18.846  11.564
72163ION    NA+40381  29.589  17.233  13.433
72164ION    NA+40382  30.461  38.544  13.916
72165ION    NA+40383  20.593  33.960   1.846
72166ION    NA+40384   7.521   1.414   4.504
72167ION    NA+40385  17.815  15.564  12.019
72168ION    NA+40386  14.741  14.864   3.850
72169ION    NA+40387  30.820  24.784   2.212
72170ION    NA+40388  34.509   0.554   0.825
72171ION    NA+40389   9.141  41.294   4.765
72172ION    NA+40390  27.322   8.065   0.258
72173ION    NA+40391  33.661  40.877  11.893
72174ION    NA+40392  34.061  43.024  12.370
72175ION    NA+40393  33.059  28.583   4.040
72176ION    NA+40394  31.794   1.433   0.308
72177ION    NA+40395  25.252  13.045   2.194
72178ION    NA+40396  20.855  32.635   2.944
72179ION    NA+40397   5.352  20.535   3.496
72180ION    NA+40398  30.732  23.766   1.288
72181ION    NA+40399  42.360  31.347  10.767
72182ION    NA+40400  42.855   0.020  14.907
72183ION    NA+40401  15.928   0.650  12.986
72184ION    NA+40402  42.288  34.827  11.574
72185ION    NA+40403  25.994  27.503   3.521
72186ION    NA+40404   3.147  28.624   3.807
72187ION    NA+40405   2.930  18.823   0.208
72188ION    NA+40406  18.755  21.529  11.052
72189ION    NA+40407  32.379  29.505   1.686
72190ION    NA+40408   1.022  29.581   1.885
72191ION    NA+40409  25.518   1.444   3.170
72192ION    NA+40410   7.888   7.345   4.702
72193ION    NA+40411   6.180   2.055  12.241
72194ION    NA+40412  17.643  36.538   0.319
72195ION    NA+40413  21.611  12.162  12.170
72196ION    NA+40414  31.083  33.146  13.877
72197ION    NA+40415   0.782  10.225  11.578
72198ION    NA+40416  26.625  44.709  10.625
72199ION    NA+40417  30.169   6.734   4.523
72200ION    NA+40418  13.357  37.539   4.546
72201ION    NA+40419  21.551  23.078   1.216
72202ION    NA+40420  30.411  27.152  11.990
72203ION    NA+40421  18.601  27.143  13.946
72204ION    NA+40422  27.668   8.724   4.100
72205ION    NA+40423  37.431  24.594  10.354
72206ION    NA+40424   0.412  37.196  14.234
72207ION    NA+40425  38.781  17.555  11.807
72208ION    NA+40426  19.158  34.309  13.237
72209ION    NA+40427   9.576  20.049  14.071
72210ION    NA+40428  32.358  34.798  11.589
72211ION    NA+40429  36.188   2.136   3.757
72212ION    NA+40430  23.135   3.437   4.688
72213ION    NA+40431  44.342  29.934   4.665
72214ION    NA+40432  10.224  19.719   0.768
72215ION    NA+40433  28.248   4.335   1.639
72216ION    NA+40434  30.920  27.969  10.269
72217ION    NA+40435  18.731  26.961   2.338
72218ION    NA+40436  37.278  23.244  14.297
72219ION    NA+40437  44.565  41.974   2.415
72220ION    NA+40438   3.026   7.542  12.345
72221ION    NA+40439  19.028  44.748  13.278
72222ION    NA+40440  34.142  19.539   2.651
72223ION    NA+40441  32.665  39.854   2.315
72224ION    NA+40442  19.257   1.399  11.087
72225ION    NA+40443  20.892  25.679   4.575
72226ION    NA+40444  13.727  27.908   1.227
72227ION    NA+40445  12.924  36.002  13.386
72228ION    NA+40446  29.613  32.332   2.268
72229ION    NA+40447  19.787  39.458   2.236
72230ION    NA+40448  38.361  41.018  13.344
72231ION    NA+40449  36.377  31.314   4.254
72232ION    NA+40450  14.318   4.966  14.109
72233ION    NA+40451  43.598  18.983  11.646
72234ION    NA+40452  13.590  44.812  14.579
72235ION    NA+40453  13.318  25.624   2.115
72236ION    NA+40454  28.478   5.270   3.109
72237ION    NA+40455  16.475  40.843  11.505
72238ION    NA+40456  27.107  42.260   0.851
72239ION    NA+40457   7.016  16.493  11.039
72240ION    NA+40458  35.611  10.859   4.093
72241ION    NA+40459   9.695  38.974  12.151
72242ION    NA+40460  12.035  32.848   2.670
72243ION    NA+40461   2.036  44.475   3.208
72244ION    NA+40462  39.607  38.351  12.512
72245ION    NA+40463  44.773  35.189   1.810
72246ION    NA+40464  12.429  13.799  13.192
72247ION    NA+40465   8.374  40.487  10.697
72248ION    NA+40466  24.975  24.082  12.160
72249ION    NA+40467  18.326  25.867  11.757
72250ION    NA+40468  38.023  21.564  11.200
72251ION    NA+40469  40.393  39.505   3.171
72252ION    NA+40470  15.046   1.328   1.236
72253ION    NA+40471  21.155   5.790   4.640
72254ION    NA+40472  37.046  15.555  11.108
72255ION    NA+40473  32.430  22.046   0.021
72256ION    NA+40474  43.733  23.838  12.580
72257ION    NA+40475   4.524  15.577   0.958
72258ION    NA+40476  37.331  42.645   1.471
72259ION    NA+40477  13.738  31.098  11.981
72260ION    NA+40478  30.798  20.128   2.560
72261ION    NA+40479  17.827  32.065  11.857
72262ION    NA+40480   9.263  29.077   0.105
72263ION    NA+40481  10.867   8.646   1.353
72264ION    NA+40482   2.165  44.980  12.411
72265ION    NA+40483  21.831  34.144   1.758
72266ION    NA+40484  38.135   3.667  13.459
72267ION    NA+40485  35.239  38.348   2.690
72268ION    NA+40486  24.330  24.714   2.948
72269ION    NA+40487   2.194  28.530  13.704
72270ION    NA+40488  43.413  42.327  13.949
72271ION    NA+40489  20.740  26.687  11.472
72272ION    NA+40490   1.286  32.589  11.176
72273ION    NA+40491  30.450  32.487  13.470
72274ION    NA+40492   5.309  20.855  11.298
72275ION    NA+40493  13.154   4.536  12.869
72276ION    NA+40494  41.215  10.328  10.907
72277ION    NA+40495  19.490  13.363   3.014
72278ION    NA+40496  31.669  42.366  14.384
72279ION    NA+40497  44.643   6.320   4.066
72280ION    NA+40498  15.768  41.162  14.325
72281ION    NA+40499  14.333  38.905  11.655
72282ION    NA+40500  19.285   4.329   1.070
72283ION    NA+40501  31.582   2.280   2.201
72284ION    NA+40502  29.545  37.986   1.871
72285ION    NA+40503  22.853   6.733   2.281
72286ION    NA+40504  21.504  23.596  14.064
72287ION    NA+40505  39.707  41.096  12.186
72288ION    NA+40506  16.365  35.455   3.787
72289ION    NA+40507  11.268   9.661   4.645
72290ION    NA+40508  37.156  34.208   1.305
72291ION    NA+40509  11.552  32.265  12.962
72292ION    NA+40510  22.295  19.338  14.788
72293ION    NA+40511  42.112  41.709  11.070
72294ION    NA+40512  38.003  36.534   1.545
72295ION    NA+40513   1.335  21.318   1.485
72296ION    NA+40514  30.189  10.801  12.208
72297ION    NA+40515  37.730   1.026   2.080
72298ION    NA+40516  38.767   0.165  13.338
72299ION    NA+40517   1.083   0.904  14.078
72300ION    NA+40518  37.855  35.338   3.794
72301ION    NA+40519  35.188  33.142   1.246
72302ION    NA+40520  27.413  34.423  12.960
72303ION    NA+40521   3.853  16.333  13.499
72304ION    NA+40522  18.146  19.358   2.424
72305ION    NA+40523   1.996  33.907  11.530
72306ION    NA+40524  30.048  39.026   0.645
72307ION    NA+40525   0.993  22.203  11.495
72308ION    NA+40526  11.621  36.211  11.136
72309ION    NA+40527  18.759   8.947  14.531
72310ION    NA+40528  34.487  18.421   3.942
72311ION    NA+40529  29.322  25.328   0.669
72312ION    NA+40530  31.133  14.796  14.588
72313ION    NA+40531   5.614  24.041   5.001
72314ION    NA+40532  12.906  26.154   1.483
72315ION    NA+40533  19.115  39.968  11.398
72316ION    NA+40534   0.645   6.949  11.911
72317ION    NA+40535  25.869  22.315   1.432
72318ION    NA+40536  35.675  11.982   3.054
72319ION    NA+40537   9.941  33.529   0.688
72320ION    NA+40538  38.986  29.651   1.759
72321ION    NA+40539   6.145  11.181  14.092
72322ION    NA+40540  23.185  11.396  13.857
72323ION    NA+40541  39.902  32.680   1.921
72324ION    NA+40542  21.833  44.304   0.317
72325ION    NA+40543  39.460  14.040   3.613
72326ION    NA+40544  14.124  35.364   2.412
72327ION    NA+40545  12.970  26.780   4.104
72328ION    NA+40546  44.750  11.365  14.720
72329ION    NA+40547  27.681  23.285   1.028
72330ION    NA+40548  19.325   6.605   4.406
72331ION    NA+40549  30.659  13.692  13.678
72332ION    NA+40550  41.273   9.360  14.842
72333ION    NA+40551  23.713   6.013  10.570
72334ION    NA+40552  14.309   9.344   0.828
72335ION    NA+40553  36.600   2.348   2.871
72336ION    NA+40554  43.261  34.961   1.976
72337ION    NA+40555  42.292  31.560   2.901
72338ION    NA+40556  37.398  15.023   4.563
72339ION    NA+40557  18.633  34.791   2.074
72340ION    NA+40558  22.577  36.412  11.687
72341ION    NA+40559  23.852  11.600   0.328
72342ION    NA+40560  33.626  43.008  13.915
72343ION    NA+40561  34.396   7.552  13.205
72344ION    NA+40562  27.073   2.618   3.671
72345ION    NA+40563  22.786  30.960  12.413
72346ION    NA+40564  21.990  31.437  14.873
72347ION    NA+40565  25.890  18.159   0.728
72348ION    NA+40566  19.369  18.855   0.090
72349ION    NA+40567  25.698  25.073  13.001
72350ION    NA+40568  43.890  14.587  14.069
72351ION    NA+40569  37.741  11.570  10.341
72352ION    NA+40570  38.084  31.654  12.482
72353ION    NA+40571  20.606  14.834  12.152
72354ION    NA+40572  19.082  14.487  14.281
72355ION    NA+40573   7.189  40.936   1.811
72356ION    NA+40574  14.123  30.865   4.655
72357ION    NA+40575   4.901  10.420   1.833
72358ION    NA+40576  23.550  32.698  11.446
72359ION    NA+40577  14.516  14.551  11.566
72360ION    NA+40578  42.245  18.752  13.858
72361ION    NA+40579  14.886  39.855   0.467
72362ION    NA+40580   2.446  27.487  11.958
72363ION    NA+40581  28.675   5.920   3.899
72364ION    NA+40582  13.735  37.579   0.197
72365ION    NA+40583  13.705   9.968   0.558
72366ION    NA+40584  37.347  39.638  13.728
72367ION    NA+40585  35.311  38.114   4.960
72368ION    NA+40586  21.331  20.318   2.839
72369ION    NA+40587   2.129  22.659  14.840
72370ION    NA+40588  41.978  36.424  10.867
72371ION    NA+40589  29.437  23.539   3.211
72372ION    NA+40590  41.089   1.879  14.559
72373ION    NA+40591  42.081  27.201   0.418
72374ION    NA+40592  28.755  40.687   5.030
72375ION    NA+40593   3.445  13.918   2.597
72376ION    NA+40594   4.137  44.621   2.316
72377ION    NA+40595   6.060  15.711  10.796
72378ION    NA+40596   8.597   9.246   2.809
72379ION    NA+40597  13.106  32.975  10.776
72380ION    NA+40598   3.394  20.249  13.109
72381ION    NA+40599   8.793  27.504   1.899
72382ION    NA+40600   6.693  31.936   3.129
72383ION    NA+40601  42.244  13.404  10.785
72384ION    NA+40602  34.246  12.843   2.527
72385ION    NA+40603  43.700  30.483  13.287
72386ION    NA+40604   6.638  36.020  11.582
72387ION    NA+40605  16.828  23.678   1.859
72388ION    NA+40606  42.060  43.235  12.820
72389ION    NA+40607  37.447   4.147   1.656
72390ION    NA+40608  16.225  42.468  13.913
72391ION    NA+40609   6.170  30.332   3.893
72392ION    NA+40610   1.565  41.080  11.216
72393ION    NA+40611  26.330  32.247   4.600
72394ION    NA+40612  22.875   2.695   0.133
72395ION    NA+40613   5.340  14.201  12.257
72396ION    NA+40614  12.405  26.823   0.307
72397ION    NA+40615  25.503  12.834  11.686
72398ION    NA+40616  37.594  27.923  10.604
72399ION    NA+40617  16.640  19.433   0.427
72400ION    NA+40618   3.945  18.968  12.948
72401ION    NA+40619  15.571  15.693  11.479
72402ION    NA+40620  40.561   6.570  11.605
72403ION    NA+40621  16.120  26.984   0.545
72404ION    NA+40622   9.765   4.727  14.737
72405ION    NA+40623   5.693  16.121   3.095
72406ION    NA+40624  18.503  19.155   1.611
72407ION    NA+40625   6.123  32.664  10.878
72408ION    NA+40626   8.738  16.211  11.457
72409ION    NA+40627   4.513  10.341  12.800
72410ION    NA+40628  12.236  17.641   2.815
72411ION    NA+40629  40.080  15.330  14.412
72412ION    NA+40630  43.588   8.100   2.674
72413ION    NA+40631  13.103  11.495   1.004
72414ION    NA+40632  38.249  27.677  14.265
72415ION    NA+40633   9.052  24.663   1.299
72416ION    NA+40634  14.205  11.877  12.400
72417ION    NA+40635  35.015  11.733   5.421
72418ION    NA+40636   6.663   4.160  14.485
72419ION    NA+40637   7.341  23.294   4.909
72420ION    NA+40638  18.074  12.252   4.861
72421ION    NA+40639  37.809  27.428   0.463
72422ION    NA+40640   3.619   8.950   4.250
72423ION    NA+40641  15.737  32.125  10.074
72424ION    NA+40642   0.510   0.241  14.188
72425ION    NA+40643  28.501  36.856   4.713
72426ION    NA+40644   3.641   2.778   0.033
72427ION    NA+40645  15.209  38.881  11.895
72428ION    NA+40646  44.527  10.725  10.745
72429ION    NA+40647   9.349  13.362  11.989
72430ION    NA+40648  43.916  35.468  12.135
72431ION    NA+40649  22.221  32.246   3.980
72432ION    NA+40650  39.209  19.927   2.326
72433ION    NA+40651   7.183   3.792   3.041
72434ION    NA+40652  32.868  32.813  10.358
72435ION    NA+40653  15.112  41.570  10.285
72436ION    NA+40654  41.583  35.317  13.144
72437ION    NA+40655   1.926  38.631  13.773
72438ION    NA+40656  43.871  40.479  13.333
72439ION    NA+40657   7.637  38.606   2.339
72440ION    NA+40658  26.458  43.373   2.372
72441ION    NA+40659   4.942  32.157   3.859
72442ION    NA+40660  30.815  19.274   0.366
72443ION    NA+40661  26.169  26.245  13.366
72444ION    NA+40662  18.525   2.103  12.678
72445ION    NA+40663  42.445   9.279   1.858
72446ION    NA+40664  25.745  20.562   4.264
72447ION    NA+40665  15.123  37.831   3.629
72448ION    NA+40666  11.265  22.918  13.379
72449ION    NA+40667  23.198  16.129   2.305
72450ION    NA+40668  17.680  26.281  11.475
72451ION    NA+40669  20.106  13.599  13.091
72452ION    NA+40670  19.061  15.941  10.932
72453ION    NA+40671  38.866   5.765   1.300
72454ION    NA+40672  41.716  28.219  11.635
72455ION    NA+40673  12.343  24.127   2.696
72456ION    NA+40674  23.709  28.305  11.384
72457ION    NA+40675   4.669  20.410   2.223
72458ION    NA+40676  22.658   9.551   0.092
72459ION    NA+40677   9.326   2.941  11.116
72460ION    NA+40678  43.754   2.425  12.035
72461ION    NA+40679  44.430   6.030  13.500
72462ION    NA+40680  22.152  24.939  14.625
72463ION    NA+40681  21.590  28.465   3.761
72464ION    NA+40682  11.642   7.518  11.697
72465ION    NA+40683  42.220  10.938   2.817
72466ION    NA+40684  29.612  30.332  10.859
72467ION    NA+40685  23.053  28.890   1.794
72468ION    NA+40686   0.483  31.115  10.785
72469ION    NA+40687  13.698  20.698  11.078
72470ION    NA+40688  43.191  15.154  12.540
72471ION    NA+40689  29.172  27.886  11.735
72472ION    NA+40690  14.097  16.476   0.134
72473ION    NA+40691  36.920  32.283   1.311
72474ION    NA+40692  41.544  37.263  13.088
72475ION    NA+40693  36.783  20.548   4.693
72476ION    NA+40694  41.491  14.021   3.310
72477ION    NA+40695   7.767  18.229   3.669
72478ION    NA+40696  10.578  21.952   2.355
72479ION    NA+40697   0.049  21.064  11.450
72480ION    NA+40698  16.168  21.360  12.932
72481ION    NA+40699  18.646  18.779   4.230
72482ION    NA+40700  41.521  31.965  10.567
72483ION    NA+40701  13.949   7.658  14.484
72484ION    NA+40702  18.059  38.149   4.019
72485ION    NA+40703  15.636  31.931   0.687
72486ION    NA+40704  26.988  10.427   4.451
72487ION    NA+40705   4.890  11.693  11.644
72488ION    NA+40706  24.199   8.180  13.575
72489ION    NA+40707  24.141  14.154   9.747
72490ION    NA+40708  11.282  19.600   3.611
72491ION    NA+40709  15.093  13.462  14.846
72492ION    NA+40710   9.711  32.693  11.208
72493ION    NA+40711  18.380  44.839  12.523
72494ION    NA+40712  10.852  39.304  11.918
72495ION    NA+40713  18.009  31.974   4.032
72496ION    NA+40714  14.404  11.141  13.046
72497ION    NA+40715  25.972  39.053  12.751
72498ION    NA+40716  22.714  43.295  12.869
72499ION    NA+40717  22.906   8.732   3.501
72500ION    NA+40718   9.039  15.074  12.158
72501ION    NA+40719  33.063  11.579   2.161
72502ION    NA+40720  32.090  25.853   3.133
72503ION    NA+40721  17.587  33.158  14.457
72504ION    NA+40722  39.214  43.470  11.125
72505ION    NA+40723  44.431   7.255  12.545
72506ION    NA+40724  38.041  14.590   1.914
72507ION    NA+40725  16.065   3.965  12.014
72508ION    NA+40726  40.150  35.976  12.965
72509ION    NA+40727  37.518  20.213  14.482
72510ION    NA+40728  42.167  39.018  14.365
72511ION    NA+40729  33.822  37.950   1.928
72512ION    NA+40730  37.734   4.072  12.494
72513ION    NA+40731   4.719   8.734  13.961
72514ION    NA+40732  44.829  24.919  12.382
72515ION    NA+40733  23.235   8.125  13.312
72516ION    NA+40734  36.599  44.400   5.356
72517ION    NA+40735  39.130  27.751   1.221
72518ION    NA+40736  11.280  31.390  12.905
72519ION    NA+40737   5.712  36.959   5.090
72520ION    NA+40738   2.663  35.191   1.735
72521ION    NA+40739  17.993  18.955  14.463
72522ION    NA+40740  26.762   3.895   4.970
72523ION    NA+40741  42.823  30.948  12.938
72524ION    NA+40742  18.313  41.404  11.133
72525ION    NA+40743  32.274  23.513  12.897
72526ION    NA+40744  23.844   0.286   0.297
72527ION    NA+40745  40.407   3.965   0.302
72528ION    NA+40746   1.207  17.108  11.434
72529ION    NA+40747  13.575   7.950  12.401
72530ION    NA+40748   9.229   1.981  10.703
72531ION    NA+40749  21.633  30.322  14.067
72532ION    NA+40750  20.922  43.254  10.997
72533ION    NA+40751  34.582  21.478   0.917
72534ION    NA+40752  33.458  23.050  10.725
72535ION    NA+40753  22.050  16.539  13.880
72536ION    NA+40754  41.295  16.611  12.843
72537ION    NA+40755  35.612  42.427  10.390
72538ION    NA+40756   4.556  43.051  14.196
72539ION    NA+40757  18.376  20.871   1.753
72540ION    NA+40758  38.487  26.409  12.106
72541ION    NA+40759  31.347  20.326  11.248
72542ION    NA+40760  37.092   0.340  10.959
72543ION    NA+40761  28.708  43.681  14.709
72544ION    NA+40762   3.553  21.910   2.781
72545ION    NA+40763  28.696  30.460   1.000
72546ION    NA+40764  15.566  16.395   2.197
72547ION    NA+40765   4.182  43.443  10.013
72548ION    NA+40766  34.676  14.826   0.546
72549ION    NA+40767  27.582  23.842  11.688
72550ION    NA+40768  23.725  32.396   2.816
72551ION    NA+40769  26.022   5.223   3.968
72552ION    NA+40770  30.606  33.980   1.786
72553ION    NA+40771  24.656  44.608   0.402
72554ION    NA+40772  23.652   2.594   4.545
72555ION    NA+40773  43.396  35.817   1.149
72556ION    NA+40774  15.803   5.171  11.542
72557ION    NA+40775  34.961   7.905  14.727
72558ION    NA+40776  44.542  41.347   3.579
72559ION    NA+40777  13.477  15.707  12.984
72560ION    NA+40778  29.501  27.198   1.772
72561ION    NA+40779  35.931  44.022   1.885
72562ION    NA+40780   1.759  26.206  10.582
72563ION    NA+40781  32.676   0.797  11.525
72564ION    NA+40782  12.037  34.873  10.735
72565ION    NA+40783   0.527  22.034  14.686
72566ION    NA+40784  14.875   8.326  12.507
72567ION    NA+40785   8.060  24.121  11.960
72568ION    NA+40786   5.041  31.599   4.683
72569ION    NA+40787   9.507  12.626   1.306
72570ION    NA+40788   8.520  22.680  14.989
72571ION    NA+40789  43.697  23.534   5.012
72572ION    NA+40790  14.351  36.170   2.959
72573ION    NA+40791   0.820  10.619   2.061
72574ION    NA+40792   2.878  23.749   0.779
72575ION    NA+40793   3.041  32.811   3.923
72576ION    NA+40794  14.714  13.621   3.255
72577ION    NA+40795  11.545   5.961  14.279
72578ION    NA+40796   2.911  31.114   4.977
72579ION    NA+40797   8.882  37.121   0.042
72580ION    NA+40798  38.700  23.562   4.145
72581ION    NA+40799   7.438  20.219   3.788
72582ION    NA+40800  13.681  22.066  14.604
72583ION    NA+40801  12.131   1.998  14.361
72584ION    NA+40802   9.814  31.588   4.334
72585ION    NA+40803  13.305  13.679   1.205
72586ION    NA+40804   2.382  42.996   0.542
72587ION    NA+40805  12.558  29.686   2.392
72588ION    NA+40806  41.264  11.138   3.425
72589ION    NA+40807   3.802  28.148   4.173
72590ION    NA+40808  33.397  44.234  10.528
72591ION    NA+40809  41.376  22.553   1.262
72592ION    NA+40810   3.294  18.144   0.903
72593ION    NA+40811  43.351  29.823   1.306
72594ION    NA+40812  28.200  20.063   1.812
72595ION    NA+40813  38.585  27.180   2.122
72596ION    NA+40814   9.847  27.474  11.100
72597ION    NA+40815  35.361  22.764  13.465
72598ION    NA+40816  34.999  42.306   2.796
72599ION    NA+40817  34.307  10.970   0.034
72600ION    NA+40818   7.613  37.986  11.092
72601ION    NA+40819   5.080  41.045  14.639
72602ION    NA+40820  29.633  11.456   4.018
72603ION    NA+40821  39.150  35.993   4.896
72604ION    NA+40822  34.522  13.597   1.407
72605ION    NA+40823  29.390  28.114   3.026
72606ION    NA+40824  28.178  15.528  14.848
72607ION    NA+40825  25.742  20.375   1.063
72608ION    NA+40826   1.594  12.908   1.783
72609ION    NA+40827  42.746  19.009   4.213
72610ION    NA+40828  40.860  20.233   1.436
72611ION    NA+40829  44.536  24.201  10.254
72612ION    NA+40830  15.259  42.507  11.315
72613ION    NA+40831  14.520  18.002   0.993
72614ION    NA+40832   0.493  35.096   3.667
72615ION    NA+40833  38.475   8.638  14.822
72616ION    NA+40834  26.034  25.208  11.924
72617ION    NA+40835  30.409   3.664   1.167
72618ION    NA+40836  43.596  25.704  11.117
72619ION    NA+40837  26.717  39.028  13.474
72620ION    NA+40838   8.126   4.400  11.791
72621ION    NA+40839  10.428  21.479   4.089
72622ION    NA+40840  14.683  33.880  11.275
72623ION    NA+40841  10.630  22.927  14.600
72624ION    NA+40842  13.884  23.447  11.775
72625ION    NA+40843  43.095  16.796   2.840
72626ION    NA+40844  33.257  28.013   0.859
72627ION    NA+40845  21.039   1.182   2.990
72628ION    NA+40846   1.749   6.782   1.817
72629ION    NA+40847  30.965  15.720  12.828
72630ION    NA+40848  32.722  44.797   2.448
72631ION    NA+40849   4.146  16.091  11.768
72632ION    NA+40850  20.159  38.464  12.225
72633ION    NA+40851  32.780  41.684  13.632
72634ION    NA+40852  38.666  27.454  11.878
72635ION    NA+40853   7.517  35.397   2.432
72636ION    NA+40854  39.207  18.583   3.475
72637ION    NA+40855  29.939  28.167  11.158
72638ION    NA+40856   0.928  22.002   9.817
72639ION    NA+40857   8.943  23.678   1.165
72640ION    NA+40858  23.551  41.762   1.384
72641ION    NA+40859  12.866  39.307  14.830
72642ION    NA+40860  14.694  41.563  13.921
72643ION    NA+40861  18.573   8.676   4.080
72644ION    NA+40862  21.106   5.876  11.530
72645ION    NA+40863   5.502  30.968   3.571
72646ION    NA+40864  22.888  44.941   0.283
72647ION    NA+40865  14.749   0.363   4.020
72648ION    NA+40866  22.845  43.767   1.583
72649ION    NA+40867  31.505  11.130  12.409
72650ION    NA+40868  35.989  32.674   2.664
72651ION    NA+40869  44.821  12.159   2.841
72652ION    NA+40870  27.419  42.634   0.092
72653ION    NA+40871  12.022  41.902   4.598
72654ION    NA+40872  33.925   0.010   1.428
72655ION    NA+40873  32.634  21.359  10.191
72656ION    NA+40874  20.603  36.752   3.801
72657ION    NA+40875  34.248   5.709  10.123
72658ION    NA+40876   6.924  32.168  14.309
72659ION    NA+40877  22.268   2.993  13.321
72660ION    NA+40878  16.078  10.620   4.156
72661ION    NA+40879   9.321  11.141  10.716
72662ION    NA+40880  21.408  15.335   0.566
72663ION    NA+40881  30.934   5.357   0.518
72664ION    NA+40882   2.596  22.668  10.607
72665ION    NA+40883   4.951  14.999  13.147
72666ION    NA+40884  11.716  34.923   3.629
72667ION    NA+40885  32.293  44.017   2.331
72668ION    NA+40886  19.596  31.111  14.037
72669ION    NA+40887  26.064  19.847  11.434
72670ION    NA+40888   2.841  33.760   2.840
72671ION    NA+40889   2.558   3.807  10.906
72672ION    NA+40890  28.375   2.356   9.693
72673ION    NA+40891   1.001  19.051  11.239
72674ION    NA+40892   0.490   3.137   1.224
72675ION    NA+40893  18.665  36.133  12.016
72676ION    NA+40894  41.483   9.341   1.344
72677ION    NA+40895  19.392   1.636  10.190
72678ION    NA+40896   7.433  36.521  13.308
72679ION    NA+40897  15.485  11.984   2.108
72680ION    NA+40898   5.575  37.907   0.557
72681ION    NA+40899  28.587  31.435   3.643
72682ION    NA+40900  35.978  12.560  14.945
72683ION    NA+40901  43.978  31.934  13.486
72684ION    NA+40902  31.675  38.328  11.240
72685ION    NA+40903  22.240  14.513  13.050
72686ION    NA+40904  12.633  10.540  14.564
72687ION    NA+40905   5.701   0.877   4.607
72688ION    NA+40906  43.021  27.151  13.832
72689ION    NA+40907  10.233  34.609   3.507
72690ION    NA+40908  29.350  12.943   4.149
72691ION    NA+40909  28.780  17.170  14.018
72692ION    NA+40910  39.199  34.551   4.641
72693ION    NA+40911   1.860  27.831  13.222
72694ION    NA+40912  44.694  36.109   3.945
72695ION    NA+40913  38.007  20.501   3.142
72696ION    NA+40914  37.420   9.560   0.469
72697ION    NA+40915  41.468  21.750   3.641
72698ION    NA+40916  38.849  14.653  14.443
72699ION    NA+40917  33.332  38.441  12.896
72700ION    NA+40918  42.937  18.485  12.653
72701ION    NA+40919   5.471  22.993   1.887
72702ION    NA+40920  19.743  17.747  14.367
72703ION    NA+40921  30.625  19.555   1.669
72704ION    NA+40922  28.572  22.943  14.035
72705ION    NA+40923  43.619  26.720   2.325
72706ION    NA+40924   8.262   6.335  11.601
72707ION    NA+40925  19.535  18.819   4.687
72708ION    NA+40926  29.700   6.770   0.804
72709ION    NA+40927   1.377  37.829  13.142
72710ION    NA+40928  16.265   1.489  11.213
72711ION    NA+40929  40.765  31.763  11.189
72712ION    NA+40930  18.536  34.310  14.020
72713ION    NA+40931  41.490   4.378   1.293
72714ION    NA+40932  44.308  15.545  13.170
72715ION    NA+40933  33.127  36.610   1.857
72716ION    NA+40934   3.362  39.060   0.780
72717ION    NA+40935  22.236   7.472   4.050
72718ION    NA+40936  41.756  17.081   2.328
72719ION    NA+40937   3.643  24.821   3.641
72720ION    NA+40938  41.245  30.703   2.483
72721ION    NA+40939   0.294  35.770   0.896
72722ION    NA+40940  14.855   5.153  11.224
72723ION    NA+40941  35.047  14.717  14.708
72724ION    NA+40942   4.556  26.762  13.017
72725ION    NA+40943  43.764  23.779   0.828
72726ION    NA+40944   6.805   6.708  14.352
72727ION    NA+40945   6.073  42.589  14.441
72728ION    NA+40946  39.009  22.238   9.721
72729ION    NA+40947  43.163  13.252  11.149
72730ION    NA+40948  39.910  12.297  13.803
72731ION    NA+40949   7.647  32.839   4.355
72732ION    NA+40950  29.013   1.611  12.068
72733ION    NA+40951   1.169  31.220   1.393
72734ION    NA+40952  15.158   2.736   5.227
72735ION    NA+40953  32.125  29.293  11.668
72736ION    NA+40954  32.542  30.017  10.686
72737ION    NA+40955   6.172   5.291  12.954
72738ION    NA+40956  39.906  11.807   2.659
72739ION    NA+40957  31.526  10.324   2.152
72740ION    NA+40958  18.352  38.106  13.207
72741ION    NA+40959   5.868  12.768  11.642
72742ION    NA+40960  17.795   4.439  13.396
72743ION    NA+40961  23.688   5.309  11.280
72744ION    NA+40962   5.456  15.194  12.295
72745ION    NA+40963  12.028  13.629   2.834
72746ION    NA+40964  38.610  31.876   1.939
72747ION    NA+40965  12.835  41.468   0.909
72748ION    NA+40966  33.709   2.795   4.138
72749ION    NA+40967   5.297  19.007  10.782
72750ION    NA+40968  36.894  29.364   3.630
72751ION    NA+40969   8.676  21.077  12.008
72752ION    NA+40970   5.699  30.688   4.510
72753ION    NA+40971   0.877   8.246   2.464
72754ION    NA+40972  22.005  21.840  10.900
72755ION    NA+40973   2.991   9.619   1.442
72756ION    NA+40974  26.740  28.004  11.657
72757ION    NA+40975  16.921  15.036   3.730
72758ION    NA+40976   4.907  35.976   4.592
72759ION    NA+40977  26.403  16.259   3.357
72760ION    NA+40978  23.893  35.883  13.188
72761ION    NA+40979  10.114  28.248   2.375
72762ION    NA+40980  14.293  29.175  13.004
72763ION    NA+40981  23.956  34.374   0.042
72764ION    NA+40982  17.175  20.261   1.408
72765ION    NA+40983  28.776  27.915   1.306
72766ION    NA+40984  41.948  33.614  13.168
72767ION    NA+40985  18.055  42.537   3.658
72768ION    NA+40986  28.003  11.898  13.332
72769ION    NA+40987  35.154  31.766   1.199
72770ION    NA+40988   4.196  19.767   0.140
72771ION    NA+40989   6.136  18.300   0.744
72772ION    NA+40990  44.494  37.120   4.594
72773ION    NA+40991  33.751  43.172   4.724
72774ION    NA+40992  18.333  11.343  11.231
72775ION    NA+40993   5.914  40.681  13.016
72776ION    NA+40994  15.203  42.086  12.053
72777ION    NA+40995  14.781  21.403   3.501
72778ION    NA+40996  14.616  11.830  14.499
72779ION    NA+40997   4.423   9.930   1.104
72780ION    NA+40998  38.720  13.407   5.489
72781ION    NA+40999   2.424  18.799   3.052
72782ION    NA+41000  14.461  25.976  12.909
72783ION    NA+41001  29.386  24.340   0.940
72784ION    NA+41002   6.528  35.457  10.319
72785ION    NA+41003  37.708   8.149   2.895
72786ION    NA+41004   8.734   7.642  14.368
72787ION    NA+41005   3.882  28.729  10.990
72788ION    NA+41006  28.401  31.785   9.860
72789ION    NA+41007  13.644  28.229  11.288
72790ION    NA+41008  39.905  22.288   0.445
72791ION    NA+41009  16.703  23.614   0.065
72792ION    NA+41010  18.931  28.011   1.418
72793ION    NA+41011   0.875  11.905  11.178
72794ION    NA+41012  35.930   0.680  12.012
72795ION    NA+41013  13.006  17.192  12.682
72796ION    NA+41014  33.419  31.956   0.408
72797ION    NA+41015   5.647  33.315  14.347
72798ION    NA+41016  12.396  36.140  10.319
72799ION    NA+41017  34.422  14.518  13.518
72800ION    NA+41018   8.026  35.003  14.513
72801ION    NA+41019  31.492  25.994  11.767
72802ION    NA+41020  35.960  40.791   4.045
72803ION    NA+41021  42.512   6.080  13.657
72804ION    NA+41022  40.251   5.828   3.146
72805ION    NA+41023  39.026  25.639  13.981
72806ION    NA+41024  34.115   5.777   3.661
72807ION    NA+41025  44.437  16.232  12.455
72808ION    NA+41026  18.577   8.260   3.148
72809ION    NA+41027  25.747  13.531   3.318
72810ION    NA+41028  44.978   6.827   3.258
72811ION    NA+41029   4.252   6.119  13.281
72812ION    NA+41030   6.447  21.323  10.237
72813ION    NA+41031  10.835  12.460  14.250
72814ION    NA+41032  22.960  44.670   1.560
72815ION    NA+41033  15.138  30.962  10.946
72816ION    NA+41034  32.848  24.039  11.684
72817ION    NA+41035  39.347  17.905  11.221
72818ION    NA+41036  12.896   5.180  14.953
72819ION    NA+41037   7.526  36.750  14.592
72820ION    NA+41038  33.831  17.353  13.435
72821ION    NA+41039  33.055  24.948   3.765
72822ION    NA+41040  22.109  42.071  10.835
72823ION    NA+41041   0.279  43.699  11.465
72824ION    NA+41042  17.470  11.365  10.727
72825ION    NA+41043   3.162  12.786  12.319
72826ION    NA+41044   6.409  23.585   2.717
72827ION    NA+41045   6.850  11.959  12.939
72828ION    NA+41046  44.326  31.118  12.014
72829ION    NA+41047   7.795   9.517  14.101
72830ION    NA+41048  14.115  35.074   3.686
72831ION    NA+41049  14.635  23.032   3.196
72832ION    NA+41050  41.441  15.772  12.111
72833ION    NA+41051  29.923  13.689  14.355
72834ION    NA+41052   4.952  24.480   2.277
72835ION    NA+41053  42.908  30.400   0.774
72836ION    NA+41054  43.993  13.255   0.231
72837ION    NA+41055   3.708  16.289  10.890
72838ION    NA+41056  26.632  13.477  13.673
72839ION    NA+41057  43.286   3.319   4.174
72840ION    NA+41058  27.448  24.164   1.889
72841ION    NA+41059  18.606  33.991  11.490
72842ION    NA+41060  24.633  13.237   4.319
72843ION    NA+41061  14.791  17.731  12.976
72844ION    NA+41062   7.192   7.723   3.565
72845ION    NA+41063  37.786   9.309  14.548
72846ION    NA+41064   2.355  25.017   5.136
72847ION    NA+41065  15.619  10.190   3.198
72848ION    NA+41066  34.284   0.457  14.139
72849ION    NA+41067  16.221  10.555  11.248
72850ION    NA+41068  17.723  14.375   3.281
72851ION    NA+41069  42.904  36.334   4.074
72852ION    NA+41070   6.867   2.487  13.982
72853ION    NA+41071  10.149   2.986   1.019
72854ION    NA+41072  44.499   4.636  11.203
72855ION    NA+41073   9.172   5.909  11.854
72856ION    NA+41074  11.482  32.048   2.209
72857ION    NA+41075   9.549  30.699   4.303
72858ION    NA+41076  43.704   0.386   0.287
72859ION    NA+41077  29.830   8.493   4.417
72860ION    NA+41078  32.995   9.670  10.260
72861ION    NA+41079  11.315   6.274   3.331
72862ION    NA+41080   4.728  40.351  13.722
72863ION    NA+41081  27.665   1.856  13.085
72864ION    NA+41082   5.537  43.990  11.626
72865ION    NA+41083   8.105   3.292  12.467
72866ION    NA+41084   7.387   5.014   2.264
72867ION    NA+41085  21.139   3.548   2.726
72868ION    NA+41086  11.626  33.509  11.333
72869ION    NA+41087  21.815   8.849   3.930
72870ION    NA+41088  36.145  15.032  11.126
72871ION    NA+41089  29.003  33.203   2.015
72872ION    NA+41090  20.707  12.700  10.525
72873ION    NA+41091  32.597  11.242  14.534
72874ION    NA+41092  21.401  19.799  13.485
72875ION    NA+41093  40.413  12.879  13.390
72876ION    NA+41094  33.847  11.674  10.912
72877ION    NA+41095  13.451  13.120  12.915
72878ION    NA+41096   6.646  44.955  14.100
72879ION    NA+41097   1.766  22.713  13.863
72880ION    NA+41098  37.988   6.274   2.860
72881ION    NA+41099  32.285  28.424  13.646
72882ION    NA+41100  31.878  11.885   0.895
72883ION    NA+41101   4.833  43.036   0.914
72884ION    NA+41102  36.146  31.148  13.979
72885ION    NA+41103  42.659  10.250   2.798
72886ION    NA+41104  12.387  31.912  14.444
72887ION    NA+41105   4.728   8.272   0.901
72888ION    NA+41106   0.858  39.951  14.866
72889ION    NA+41107  14.526  13.850   1.592
72890ION    NA+41108  32.031  16.592   0.833
72891ION    NA+41109  34.407  42.487   1.674
72892ION    NA+41110   1.440   3.740   3.099
72893ION    NA+41111  12.104  32.867  10.694
72894ION    NA+41112  26.740  18.238   1.018
72895ION    NA+41113  35.003  39.844  11.347
72896ION    NA+41114   7.138   8.702  12.937
72897ION    NA+41115  17.308  27.336  11.309
72898ION    NA+41116  28.749  43.333  10.254
72899ION    NA+41117  16.787  24.607  14.976
72900ION    NA+41118  21.330  38.904   2.214
72901ION    NA+41119  37.633  41.867  12.090
72902ION    NA+41120  20.760  37.285  12.842
72903ION    NA+41121  36.796  35.101   4.414
72904ION    NA+41122  31.767  42.816  12.616
72905ION    NA+41123  29.108  12.302   1.804
72906ION    NA+41124  11.400  21.318   3.917
72907ION    NA+41125  23.263  33.077  12.182
72908ION    NA+41126   7.487  21.620   2.823
72909ION    NA+41127  28.135  14.529  14.869
72910ION    NA+41128  44.819  39.343  12.476
72911ION    NA+41129   8.326  19.598   1.203
72912ION    NA+41130  20.077   2.525  10.585
72913ION    NA+41131  14.380  25.964  14.096
72914ION    NA+41132  26.226   1.357  11.042
72915ION    NA+41133  10.317  38.308  10.441
72916ION    NA+41134  44.316  42.710   1.961
72917ION    NA+41135   5.957  41.680  12.993
72918ION    NA+41136  31.168  23.699  11.601
72919ION    NA+41137  34.166  27.554   1.811
72920ION    NA+41138   9.681  32.010  14.611
72921ION    NA+41139  18.504  23.936  13.104
72922ION    NA+41140  15.288  19.258  12.493
72923ION    NA+41141  43.774  38.830   1.544
72924ION    NA+41142  23.125  34.846   2.231
72925ION    NA+41143  35.731  25.667   0.403
72926ION    NA+41144  34.431  21.683   2.237
72927ION    NA+41145  34.190  23.893  14.149
72928ION    NA+41146  33.001  33.036  11.825
72929ION    NA+41147  23.714  34.497   4.725
72930ION    NA+41148  24.466  39.985  14.614
72931ION    NA+41149  30.229  12.613   3.700
72932ION    NA+41150  33.914  44.182  11.506
72933ION    NA+41151  42.683  12.223  12.345
72934ION    NA+41152  12.254   6.727   0.894
72935ION    NA+41153  21.275  19.054   1.108
72936ION    NA+41154  24.987  24.695  14.741
72937ION    NA+41155   3.363  19.599  13.868
72938ION    NA+41156  13.967  21.833   3.111
72939ION    NA+41157  16.671  17.332   2.100
72940ION    NA+41158  28.056  24.723   4.110
72941ION    NA+41159  34.506  38.752   4.508
72942ION    NA+41160  38.026  26.609  14.271
72943ION    NA+41161  30.654   4.467  13.667
72944ION    NA+41162  34.699  24.662  10.337
72945ION    NA+41163  22.788   2.773  11.149
72946ION    NA+41164  25.559  34.857  11.050
72947ION    NA+41165  17.046  15.154  12.515
72948ION    NA+41166  31.695   7.763   2.291
72949ION    NA+41167  43.244  26.130   0.004
72950ION    NA+41168  32.658  38.111   0.427
72951ION    NA+41169   4.160   9.073   1.222
72952ION    NA+41170  33.155  23.155   3.738
72953ION    NA+41171  38.155  22.807  14.099
72954ION    NA+41172  35.651   4.902  10.639
72955ION    NA+41173  33.922  17.664   3.613
72956ION    NA+41174  28.854  12.689  11.203
72957ION    NA+41175  40.008  29.032  11.264
72958ION    NA+41176   4.753  41.538  12.079
72959ION    NA+41177  38.922   7.045  11.081
72960ION    NA+41178   7.826  38.907  10.689
72961ION    NA+41179  15.691  17.178   2.877
72962ION    NA+41180   8.435   8.363   4.698
72963ION    NA+41181  23.176   9.178   0.894
72964ION    NA+41182  16.870   0.385  13.289
72965ION    NA+41183   3.689  14.376  11.210
72966ION    NA+41184  21.082  42.802  13.636
72967ION    NA+41185  30.565  36.159  11.434
72968ION    NA+41186   4.482  19.696  13.374
72969ION    NA+41187  40.872  10.831  13.136
72970ION    NA+41188  20.282  13.802   3.791
72971ION    NA+41189  33.952  31.807   5.473
72972ION    NA+41190   8.287  27.742   0.967
72973ION    NA+41191  43.853  22.437  14.404
72974ION    NA+41192  40.577  39.777   1.390
72975ION    NA+41193  44.887  31.199   0.278
72976ION    NA+41194  21.135  35.613   4.143
72977ION    NA+41195   7.311   7.195  11.987
72978ION    NA+41196  10.653  20.337   2.282
72979ION    NA+41197  12.367   6.763  11.623
72980ION    NA+41198  44.505   8.346   0.872
72981ION    NA+41199  17.733   8.647   4.623
72982ION    NA+41200  29.885  33.948  12.090
72983ION    NA+41201  19.892  12.648  14.584
72984ION    NA+41202  15.580  22.714   3.116
72985ION    NA+41203  23.478  36.724  14.419
72986ION    NA+41204  28.589  25.569   4.117
72987ION    NA+41205  34.398  25.593  14.064
72988ION    NA+41206  17.324  17.685  11.905
72989ION    NA+41207  27.962  37.567  14.833
72990ION    NA+41208   4.319  16.351   3.990
72991ION    NA+41209   9.183  34.931  12.431
72992ION    NA+41210  31.166  17.591  12.769
72993ION    NA+41211  41.260  36.646  14.648
72994ION    NA+41212  33.049  27.084   2.184
72995ION    NA+41213  41.494  12.517   3.284
72996ION    NA+41214  19.404  31.329   1.229
72997ION    NA+41215  28.653  28.169   5.012
72998ION    NA+41216   3.968   4.266  12.286
72999ION    NA+41217   3.765  13.759   0.731
73000ION    NA+41218  15.646  29.051   1.027
73001ION    NA+41219  37.156  43.326   3.463
73002ION    NA+41220  29.889  25.473   1.479
73003ION    NA+41221  17.114  34.780   3.939
73004ION    NA+41222  20.578   1.902  11.185
73005ION    NA+41223  37.272  23.542   3.296
73006ION    NA+41224  31.659   9.720   0.902
73007ION    NA+41225  10.842  28.076  10.893
73008ION    NA+41226  24.245  42.214   1.965
73009ION    NA+41227  17.169  29.305  13.117
73010ION    NA+41228  12.125  25.200  13.368
73011ION    NA+41229  37.302  25.527  10.688
73012ION    NA+41230  39.276  13.730  12.993
73013ION    NA+41231  27.915  37.397   4.309
73014ION    NA+41232  22.945  21.508   3.609
73015ION    NA+41233  18.334   8.822  13.549
73016ION    NA+41234  33.853  40.364  14.128
73017ION    NA+41235  33.358  22.065   3.125
73018ION    NA+41236  25.990  44.444  14.800
73019ION    NA+41237  11.304  44.793   9.423
73020ION    NA+41238  33.947  21.874  12.851
73021ION    NA+41239  15.605   4.575   4.514
73022ION    NA+41240  37.042  34.948   2.058
73023ION    NA+41241   7.979  19.836  13.270
73024ION    NA+41242  38.287  26.887  13.347
73025ION    NA+41243   3.347  27.887  11.061
73026ION    NA+41244   6.018   8.861   4.823
73027ION    NA+41245  33.568  35.372  10.582
73028ION    NA+41246  38.584   3.692  11.925
73029ION    NA+41247  40.340  17.003   3.166
73030ION    NA+41248   7.629   8.094   2.862
73031ION    NA+41249  37.092   6.385   2.994
73032ION    NA+41250  41.026  36.880   2.364
73033ION    NA+41251  40.346  42.041  14.300
73034ION    NA+41252  16.069  37.983  10.733
73035ION    NA+41253   1.794  37.520   2.456
73036ION    NA+41254   1.512  12.877  13.174
73037ION    NA+41255   3.149   2.549   4.986
73038ION    NA+41256  26.408   2.498   3.835
73039ION    NA+41257  31.463  35.047  14.037
73040ION    NA+41258  18.430  26.603  11.378
73041ION    NA+41259   1.324  22.186  12.475
73042ION    NA+41260  12.900  15.905   2.629
73043ION    NA+41261  34.550  36.568   2.849
73044ION    NA+41262  14.816  29.228   5.045
73045ION    NA+41263   7.123  13.204   0.746
73046ION    NA+41264  18.641   7.573   0.457
73047ION    NA+41265  35.931   8.969  12.059
73048ION    NA+41266   5.901  44.849   1.751
73049ION    NA+41267  31.561   9.724  14.390
73050ION    NA+41268   6.293   4.925   0.360
73051ION    NA+41269   4.925   0.566  13.052
73052ION    NA+41270  25.622  26.676   1.866
73053ION    NA+41271   0.803  39.811   2.202
73054ION    NA+41272  18.872  41.106   0.257
73055ION    NA+41273  42.756  10.787  12.497
73056ION    NA+41274  41.436  29.450  14.122
73057ION    NA+41275  36.740  23.692  10.361
73058ION    NA+41276   8.123  31.078   2.318
73059ION    NA+41277  13.153  40.408  14.067
73060ION    NA+41278   5.396  17.062   3.307
73061ION    NA+41279  30.028   6.830   3.165
73062ION    NA+41280  27.436   1.632  14.249
73063ION    NA+41281  23.504  39.127  10.830
73064ION    NA+41282  43.497   5.154  11.135
73065ION    NA+41283  30.008   2.710   4.156
73066ION    NA+41284  28.738  28.705  11.360
73067ION    NA+41285  38.368  12.076   0.468
73068ION    NA+41286   6.324   7.781   2.261
73069ION    NA+41287  42.718  13.309   0.745
73070ION    NA+41288  28.535  30.366  14.294
73071ION    NA+41289  28.898  36.400  13.228
73072ION    NA+41290  11.926  35.685   4.074
73073ION    NA+41291  14.115  33.197  12.996
73074ION    NA+41292   3.887   0.334  10.862
73075ION    NA+41293  39.877   0.375   3.252
73076ION    NA+41294  33.623  14.581   2.245
73077ION    NA+41295  35.363  34.095   1.000
73078ION    NA+41296  42.774  17.513  12.819
73079ION    NA+41297   1.908  31.591   3.179
73080ION    NA+41298  16.743  11.091  14.659
73081ION    NA+41299   5.010  27.458  12.322
73082ION    NA+41300  22.968   4.244   2.666
73083ION    NA+41301  33.963  23.479  11.287
73084ION    NA+41302   2.075  40.602  13.117
73085ION    NA+41303   2.547  40.170   1.311
73086ION    NA+41304   6.637   8.032   0.858
73087ION    NA+41305  29.920  42.903  13.247
73088ION    NA+41306  33.749   2.469   2.040
73089ION    NA+41307   5.883  17.090   1.331
73090ION    NA+41308  26.030  14.668   3.771
73091ION    NA+41309   5.178  36.462   2.781
73092ION    NA+41310  26.492  43.887   4.534
73093ION    NA+41311  25.457  36.846  13.029
73094ION    NA+41312  32.162  26.761   2.720
73095ION    NA+41313  35.956  32.526   1.424
73096ION    NA+41314  17.584  40.392   1.006
73097ION    NA+41315   7.501  32.539   3.047
73098ION    NA+41316  25.616  28.077  11.550
73099ION    NA+41317   3.332  24.495   4.748
73100ION    NA+41318  30.872  40.078   2.649
73101ION    NA+41319  28.591  13.407   4.605
73102ION    NA+41320  31.545  41.271  11.910
73103ION    NA+41321  35.075  44.898   4.381
73104ION    NA+41322  26.217  19.208   3.564
73105ION    NA+41323  44.007  19.048  14.271
73106ION    NA+41324  20.709  40.220  14.356
73107ION    NA+41325  18.751  32.364   0.731
73108ION    NA+41326  23.847  17.728  12.448
73109ION    NA+41327  27.766  22.863  14.770
73110ION    NA+41328   4.800   7.456   0.162
73111ION    NA+41329  31.655  36.381  14.515
73112ION    NA+41330  29.008  17.154   0.957
73113ION    NA+41331  10.474  29.713   9.892
73114ION    NA+41332   4.081  37.375  13.500
73115ION    NA+41333  26.791  17.318  11.099
73116ION    NA+41334  12.142   4.120  12.988
73117ION    NA+41335  43.283  40.737  11.334
73118ION    NA+41336  14.780  22.612   4.092
73119ION    NA+41337  17.553  40.824  10.839
73120ION    NA+41338  26.048   4.424   0.199
73121ION    NA+41339  17.010   8.822   3.625
73122ION    NA+41340  15.096   4.843  12.169
73123ION    NA+41341  27.332  20.218   3.303
73124ION    NA+41342  15.433  24.699  11.511
73125ION    NA+41343  38.278  31.475   2.795
73126ION    NA+41344  10.849  11.160  13.845
73127ION    NA+41345  34.937  39.072   3.664
73128ION    NA+41346  31.940  44.762   3.871
73129ION    NA+41347  16.938  37.300   1.343
73130ION    NA+41348  27.212  40.399  14.743
73131ION    NA+41349  15.319  22.289  14.670
73132ION    NA+41350   6.098  29.391   2.987
73133ION    NA+41351  39.975  17.791   3.673
73134ION    NA+41352  23.987  25.045   0.330
73135ION    NA+41353  22.032  42.609   3.588
73136ION    NA+41354  14.299  31.630   2.650
73137ION    NA+41355  39.421  21.421   0.323
73138ION    NA+41356  29.759  42.237   4.068
73139ION    NA+41357   2.767  31.496   2.897
73140ION    NA+41358  20.462  20.043   4.688
73141ION    NA+41359  29.431  11.119  11.638
73142ION    NA+41360  11.073   0.442  10.493
73143ION    NA+41361  30.612  33.042   3.009
73144ION    NA+41362  44.855  22.539  10.628
73145ION    NA+41363   0.343  26.427  11.856
73146ION    NA+41364  41.121   1.203   1.402
73147ION    NA+41365   5.841  17.594  13.554
73148ION    NA+41366   1.563  30.562   2.035
73149ION    NA+41367  22.740  26.172   1.384
73150ION    NA+41368  22.967  30.309  10.786
73151ION    NA+41369  15.262   4.819  14.404
73152ION    NA+41370  38.617  17.148  13.098
73153ION    NA+41371  32.564  41.830  10.613
73154ION    NA+41372  17.793  21.304   2.931
73155ION    NA+41373  32.296  11.192   1.856
73156ION    NA+41374  26.903  31.945  14.743
73157ION    NA+41375  35.170  14.071   5.330
73158ION    NA+41376  41.769  18.898   0.068
73159ION    NA+41377  43.833  14.473   2.317
73160ION    NA+41378  36.291   3.068   4.878
73161ION    NA+41379  12.139   4.782  14.561
73162ION    NA+41380  26.690  39.474   4.648
73163ION    NA+41381  18.412   8.884   2.333
73164ION    NA+41382  17.450  29.645   2.858
73165ION    NA+41383  14.853  28.625   2.161
73166ION    NA+41384  36.783  23.130   0.166
73167ION    NA+41385   1.508  34.994  10.838
73168ION    NA+41386  15.232   4.745   2.731
73169ION    NA+41387  22.947  12.529  12.811
73170ION    NA+41388  27.505   0.076  11.150
73171ION    NA+41389  28.115  29.433   0.309
73172ION    NA+41390   5.930  19.825   3.908
73173ION    NA+41391  29.634  33.680   2.746
73174ION    NA+41392  38.532   9.601  13.420
73175ION    NA+41393  12.249   8.624  13.100
73176ION    NA+41394   8.928  30.017   0.441
73177ION    NA+41395  27.317  33.085  14.811
73178ION    NA+41396  28.302  12.467  10.315
73179ION    NA+41397  32.368  37.966  14.630
73180ION    NA+41398  44.792  29.716  11.099
73181ION    NA+41399  18.936  12.372   0.007
73182ION    NA+41400  21.646  17.351  13.024
73183ION    NA+41401  37.110  37.594   4.145
73184ION    NA+41402   2.742  11.343  11.234
73185ION    NA+41403   9.991  10.158   5.171
73186ION    NA+41404  40.847  27.191   2.107
73187ION    NA+41405   5.660  14.814  14.793
73188ION    NA+41406  31.511   3.731  13.046
73189ION    NA+41407  14.735  42.781   9.951
73190ION    NA+41408  44.104  40.855  11.840
73191ION    NA+41409  44.664  28.289   3.960
73192ION    NA+41410   4.690   3.164   5.178
73193ION    NA+41411  25.786  23.048  12.103
73194ION    NA+41412   4.862  30.747  13.433
73195ION    NA+41413  37.981   7.729  12.696
73196ION    NA+41414  28.185  15.216   1.997
73197ION    NA+41415   1.741  29.126  10.831
73198ION    NA+41416   9.282  16.987   1.713
73199ION    NA+41417   1.965  19.064  14.287
73200ION    NA+41418   9.162  11.775   1.378
73201ION    NA+41419   9.842  30.284  11.280
73202ION    NA+41420  14.136  42.531  11.577
73203ION    NA+41421  15.829   6.884  11.242
73204ION    NA+41422  28.689  43.694   2.567
73205ION    NA+41423   9.379  20.232   3.861
73206ION    NA+41424  27.055  22.738   0.463
73207ION    NA+41425  38.110   1.444   2.943
73208ION    NA+41426  17.810   5.220  13.861
73209ION    NA+41427  16.543  36.055   1.703
73210ION    NA+41428  30.483  29.129  13.507
73211ION    NA+41429  27.527  38.985  14.822
73212ION    NA+41430   1.788  12.748   5.028
73213ION    NA+41431  34.591  28.977   5.016
73214ION    NA+41432  33.312  27.446  12.060
73215ION    NA+41433  44.411   1.357  14.057
73216ION    NA+41434  14.696  37.556   1.365
73217ION    NA+41435  24.210  21.766  14.817
73218ION    NA+41436  34.798   6.310  14.771
73219ION    NA+41437  19.651  11.670  14.943
73220ION    NA+41438  30.169  43.510  11.324
73221ION    NA+41439  39.056  36.255  12.328
73222ION    NA+41440  42.959  16.112  13.991
73223ION    NA+41441   1.523  38.270  14.958
73224ION    NA+41442  43.433  25.670  12.916
73225ION    NA+41443  14.922  37.491  11.433
73226ION    NA+41444  15.787  43.167  10.757
73227ION    NA+41445   0.669  32.589   0.407
73228ION    NA+41446  36.410  29.706   2.765
73229ION    NA+41447  17.688  30.133  12.901
73230ION    NA+41448  17.578  35.363   3.238
73231ION    NA+41449  33.524  19.730   2.053
73232ION    NA+41450   8.353  27.039   2.667
73233ION    NA+41451  19.421  33.826  11.165
73234ION    NA+41452  28.575  39.012  14.228
73235ION    NA+41453  22.968  18.351  12.410
73236ION    NA+41454   9.493  31.040  12.719
73237ION    NA+41455  25.836  15.499   4.645
73238ION    NA+41456   2.416   8.361   0.450
73239ION    NA+41457   3.458  40.869   9.753
73240ION    NA+41458   9.126  41.066   1.639
73241ION    NA+41459   4.584  31.223   3.873
73242ION    NA+41460   6.789  39.905   2.705
73243ION    NA+41461  40.703  32.568  10.600
73244ION    NA+41462  12.739   2.677   3.994
73245ION    NA+41463  36.396   2.910   3.673
73246ION    NA+41464  33.445  17.518   4.480
73247ION    NA+41465  24.262  17.857   1.892
73248ION    NA+41466  18.855   1.932   2.317
73249ION    NA+41467  34.169  40.543  13.196
73250ION    NA+41468  25.435  22.030   4.448
73251ION    NA+41469  10.784  13.172  10.836
73252ION    NA+41470  33.733   3.463   1.249
73253ION    NA+41471  42.015  30.262  14.197
73254ION    NA+41472  17.447  19.451  10.925
73255ION    NA+41473   3.668   7.365   4.486
73256ION    NA+41474   6.516  22.225  11.691
73257ION    NA+41475  16.022  27.674   2.834
73258ION    NA+41476   3.463  19.285   1.172
73259ION    NA+41477  36.712   9.949  13.906
73260ION    NA+41478  10.418  32.350   4.492
73261ION    NA+41479  21.791  32.442   1.204
73262ION    NA+41480   1.350  27.540   0.186
73263ION    NA+41481  12.378  41.206   4.110
73264ION    NA+41482  13.850   4.846   1.849
73265ION    NA+41483  19.728   8.084  14.684
73266ION    NA+41484  15.653  32.283  11.058
73267ION    NA+41485  11.023  39.293   0.281
73268ION    NA+41486  16.515  42.465  10.711
73269ION    NA+41487  17.828  33.444  12.839
73270ION    NA+41488   3.280  30.397   4.385
73271ION    NA+41489   9.939  17.195   3.840
73272ION    NA+41490   3.876  15.437   9.802
73273ION    NA+41491  40.585  41.948   1.372
73274ION    NA+41492  25.213   6.270  14.727
73275ION    NA+41493   8.681  24.071  11.003
73276ION    NA+41494  17.158  21.036  13.233
73277ION    NA+41495  14.531  21.871  13.353
73278ION    NA+41496  37.890   1.899   1.787
73279ION    NA+41497   9.544  22.144   0.068
73280ION    NA+41498  21.077  34.468   0.418
73281ION    NA+41499  32.802   8.136   1.800
73282ION    NA+41500  44.270  12.402   0.252
73283ION    NA+41501  21.978  31.416   1.762
73284ION    NA+41502   1.740  17.056   3.654
73285ION    NA+41503  23.094   0.423   2.798
73286ION    NA+41504  35.295  23.695   9.753
73287ION    NA+41505  15.853  33.383  14.637
73288ION    NA+41506  34.672   1.231   1.562
73289ION    NA+41507   3.146  32.819  13.114
73290ION    NA+41508  21.765   1.636  10.754
73291ION    NA+41509   8.038   4.903   1.699
73292ION    NA+41510  19.791  23.700   4.409
73293ION    NA+41511  43.188  41.501   3.308
73294ION    NA+41512  23.207  20.819   1.783
73295ION    NA+41513  44.296  18.197   3.112
73296ION    NA+41514   4.737  26.508   0.655
73297ION    NA+41515  21.871   4.296   2.695
73298ION    NA+41516  18.000   5.793   3.683
73299ION    NA+41517  13.671  33.915   1.720
73300ION    NA+41518   8.872  26.496  11.144
73301ION    NA+41519  11.705   2.823  13.752
73302ION    NA+41520  12.767  13.879  14.549
73303ION    NA+41521  44.004  17.598   0.105
73304ION    NA+41522   2.046  42.552   2.970
73305ION    NA+41523  40.400  37.397   3.027
73306ION    NA+41524  27.808  42.882  10.655
73307ION    NA+41525   6.216  40.372  10.001
73308ION    NA+41526  30.422  31.882  12.665
73309ION    NA+41527   2.772   3.927   1.499
73310ION    NA+41528   3.362  32.020  11.199
73311ION    NA+41529  30.645  34.467   0.778
73312ION    NA+41530  14.847  13.046   1.395
73313ION    NA+41531  22.945  37.161   4.562
73314ION    NA+41532   9.761  24.645  12.906
73315ION    NA+41533  43.179  14.191  13.487
73316ION    NA+41534   2.587  38.062   2.179
73317ION    NA+41535  25.037  34.707  10.324
73318ION    NA+41536  16.863  35.350  13.188
73319ION    NA+41537  32.369  28.764   4.480
73320ION    NA+41538  37.082  16.605   3.995
73321ION    NA+41539  14.804  19.611  14.712
73322ION    NA+41540  33.565   2.239  14.839
73323ION    NA+41541  38.809  16.513  14.828
73324ION    NA+41542  44.485   5.280   3.601
73325ION    NA+41543  29.266  37.484  14.745
73326ION    NA+41544   5.869   6.341  14.404
73327ION    NA+41545  18.111  36.845  13.355
73328ION    NA+41546  36.068  39.437   2.184
73329ION    NA+41547  27.220  43.499  12.184
73330ION    NA+41548   2.765  15.632   4.913
73331ION    NA+41549  28.516   1.983   3.869
73332ION    NA+41550  18.430  40.120   2.493
73333ION    NA+41551  13.081  24.398   1.260
73334ION    NA+41552  20.980   4.546   3.073
73335ION    NA+41553  21.794  11.861  11.234
73336ION    NA+41554  31.513  19.670  12.195
73337ION    NA+41555  28.383  25.443   2.776
73338ION    NA+41556  38.439  35.875  11.639
73339ION    NA+41557  15.319   3.916  13.978
73340ION    NA+41558  27.639   1.786   2.800
73341ION    NA+41559  15.543  19.542   2.758
73342ION    NA+41560  38.702   1.326  11.294
73343ION    NA+41561  33.423  13.431   2.565
73344ION    NA+41562   2.881  14.123  14.993
73345ION    NA+41563  32.015   5.391   5.365
73346ION    NA+41564  34.159  23.953   2.128
73347ION    NA+41565  14.037  40.082   2.840
73348ION    NA+41566  10.850  43.477   3.634
73349ION    NA+41567  40.695  17.352  13.368
73350ION    NA+41568  35.675  15.509   2.151
73351ION    NA+41569  32.702  11.906   4.868
73352ION    NA+41570   3.282  36.258   4.538
73353ION    NA+41571  11.089  16.371  12.891
73354ION    NA+41572  21.197  32.046  14.906
73355ION    NA+41573  25.483   3.322   1.695
73356ION    NA+41574   0.471  27.306   4.207
73357ION    NA+41575  35.122   4.644   3.842
73358ION    NA+41576   9.548  15.957  12.916
73359ION    NA+41577  34.301  38.341   1.094
73360ION    NA+41578  38.128  33.845   1.386
73361ION    NA+41579  22.232   5.235   0.196
73362ION    NA+41580  21.111  15.066   3.614
73363ION    NA+41581  43.800   7.152  10.389
73364ION    NA+41582  21.731  11.706  14.990
73365ION    NA+41583  19.727   6.531   1.018
73366ION    NA+41584   3.227   6.258  13.511
73367ION    NA+41585   5.215  18.456   2.939
73368ION    NA+41586  30.338  11.166  13.433
73369ION    NA+41587   5.372  23.004   0.680
73370ION    NA+41588   4.643  24.017  10.532
73371ION    NA+41589  42.370  30.461   0.020
73372ION    NA+41590  44.841  37.164   1.585
73373ION    NA+41591  38.813   6.519   1.955
73374ION    NA+41592  19.521  18.013   3.296
73375ION    NA+41593   0.689   3.376   2.735
73376ION    NA+41594  18.335  11.152  12.515
73377ION    NA+41595  31.194  37.563  14.173
73378ION    NA+41596  34.203  30.518   2.344
73379ION    NA+41597  10.380  20.572  11.619
73380ION    NA+41598  27.054  40.252   0.720
73381ION    NA+41599  29.489   7.574  11.659
73382ION    NA+41600  16.318   9.971  10.560
73383ION    NA+41601  15.789  27.087   4.400
73384ION    NA+41602  12.371  15.987   1.757
73385ION    NA+41603   1.216  35.403   1.014
73386ION    NA+41604  12.241   4.374   2.826
73387ION    NA+41605  20.031  29.433  13.532
73388ION    NA+41606   3.405  17.181   3.337
73389ION    NA+41607  39.422   1.170   3.235
73390ION    NA+41608   4.036   9.778  13.501
73391ION    NA+41609  38.098  22.392   0.007
73392ION    NA+41610   4.042  17.393   0.090
73393ION    NA+41611  20.833  15.315   5.413
73394ION    NA+41612  17.621  20.477   2.278
73395ION    NA+41613  23.960  43.005   3.186
73396ION    NA+41614  11.140  39.986  11.211
73397ION    NA+41615  38.353  39.994   4.557
73398ION    NA+41616  44.747  29.330   2.691
73399ION    NA+41617  25.002  22.953   1.958
73400ION    NA+41618  39.493  22.634   4.809
73401ION    NA+41619   2.132   1.408   0.878
73402ION    NA+41620  26.563  28.349   3.064
73403ION    NA+41621  41.351  26.093   3.653
73404ION    NA+41622  24.141  38.120  12.195
73405ION    NA+41623  30.918   0.334   0.373
73406ION    NA+41624   2.957  40.266  11.866
73407ION    NA+41625  11.331  41.572  14.436
73408ION    NA+41626  11.882  29.956   3.386
73409ION    NA+41627  21.113   0.879  10.725
73410ION    NA+41628  43.043  16.050   2.176
73411ION    NA+41629  16.665  33.341  11.917
73412ION    NA+41630   3.775   8.219  11.943
73413ION    NA+41631  23.080   8.321   4.761
73414ION    NA+41632  33.369  32.406  11.141
73415ION    NA+41633  35.734   2.633   3.283
73416ION    NA+41634  33.588   7.450  14.563
73417ION    NA+41635  33.845  21.030   1.714
73418ION    NA+41636  19.340  24.752  12.735
73419ION    NA+41637   9.763  36.887   1.866
73420ION    NA+41638   9.701  21.060   2.637
73421ION    NA+41639  15.099  37.245   2.818
73422ION    NA+41640   4.827  42.524  12.225
73423ION    NA+41641   3.604   4.263  13.218
73424ION    NA+41642  35.963   7.358  12.161
73425ION    NA+41643  12.570   8.347  11.574
73426ION    NA+41644  27.235  32.817  13.407
73427ION    NA+41645  38.453  37.026   3.678
73428ION    NA+41646  14.868  44.890  10.792
73429ION    NA+41647   9.716   9.107  11.114
73430ION    NA+41648  17.528  11.907   3.864
73431ION    NA+41649  21.209  13.234  13.544
73432ION    NA+41650  16.347  19.306   3.330
73433ION    NA+41651  36.831  27.981  13.434
73434ION    NA+41652  22.203  39.059   0.769
73435ION    NA+41653  21.508  33.173   1.665
73436ION    NA+41654  41.973  22.600  10.795
73437ION    NA+41655   3.506   7.594  11.001
73438ION    NA+41656  26.546  23.276  11.448
73439ION    NA+41657  17.850   9.753  11.595
73440ION    NA+41658  19.726  33.096   3.837
73441ION    NA+41659   9.120  41.661  12.255
73442ION    NA+41660  11.661  14.416  12.035
73443ION    NA+41661  42.889   8.360  11.524
73444ION    NA+41662  36.084   1.579  12.421
73445ION    NA+41663  39.298  13.126  12.196
73446ION    NA+41664   6.200  31.470  14.479
73447ION    NA+41665  19.282  24.026   0.567
73448ION    NA+41666  11.399  27.955  13.937
73449ION    NA+41667  24.263   9.891   2.771
73450ION    NA+41668  18.760  21.157   3.914
73451ION    NA+41669  41.913  24.676  11.397
73452ION    NA+41670  17.090   5.205  14.400
73453ION    NA+41671  20.173  12.570  13.084
73454ION    NA+41672  11.787  30.022  10.487
73455ION    NA+41673  30.541  32.843   3.999
73456ION    NA+41674  43.582   9.720   0.799
73457ION    NA+41675  38.757   4.298  13.934
73458ION    NA+41676  25.783  26.349   5.085
73459ION    NA+41677  41.775  40.683  11.521
73460ION    NA+41678   7.754   3.368   3.744
73461ION    NA+41679   7.833  32.508  14.948
73462ION    NA+41680  16.138  37.547   0.200
73463ION    NA+41681  35.296  29.682   0.881
73464ION    NA+41682  21.862   8.844  12.403
73465ION    NA+41683  31.616  32.502   2.138
73466ION    NA+41684  34.616  40.836  14.748
73467ION    NA+41685  12.951   6.404   3.525
73468ION    NA+41686   7.659   4.842  14.103
73469ION    NA+41687  30.821  20.821   2.023
73470ION    NA+41688  16.742  13.549  13.707
73471ION    NA+41689   1.913  19.305   0.256
73472ION    NA+41690  31.559   1.495  13.272
73473ION    NA+41691  18.935  16.739  14.988
73474ION    NA+41692  42.561   8.271  10.560
73475ION    NA+41693  44.422   5.529  11.646
73476ION    NA+41694  44.059  34.036   3.611
73477ION    NA+41695   9.719  26.888  13.686
73478ION    NA+41696  12.210  26.944   1.280
73479ION    NA+41697  10.055  26.482  14.422
73480ION    NA+41698   6.920  22.498   4.763
73481ION    NA+41699  44.515  26.263  13.169
73482ION    NA+41700   4.440  30.108  11.189
73483ION    NA+41701   1.655  37.941   1.559
73484ION    NA+41702   8.474  29.213   4.024
73485ION    NA+41703  42.319  40.037  14.033
73486ION    NA+41704  21.170   1.507  13.377
73487ION    NA+41705   4.011  35.238  11.376
73488ION    NA+41706  44.012  22.003   4.266
73489ION    NA+41707  29.252  21.629   2.559
73490ION    NA+41708   5.937  27.718   4.267
73491ION    NA+41709  21.697  37.906  14.284
73492ION    NA+41710  34.376  26.286  12.500
73493ION    NA+41711  29.306   3.420   4.094
73494ION    NA+41712  40.380  34.617   0.528
73495ION    NA+41713  33.922   9.373  10.396
73496ION    NA+41714  17.269   2.845  12.846
73497ION    NA+41715  31.620  41.997   2.773
73498ION    NA+41716  18.452  22.134  11.946
73499ION    NA+41717   0.952  33.353  14.620
73500ION    NA+41718  30.121   4.949  14.363
73501ION    NA+41719  24.926  14.396   2.303
73502ION    NA+41720  28.608  19.666  13.178
73503ION    NA+41721  42.285  39.251   0.414
73504ION    NA+41722  12.683  25.494  11.289
73505ION    NA+41723   2.037   8.748   5.051
73506ION    NA+41724  14.029  15.647  10.598
73507ION    NA+41725   2.741   1.667   4.754
73508ION    NA+41726  33.105  31.139   3.711
73509ION    NA+41727   5.768  10.571   9.836
73510ION    NA+41728   9.078   6.869   1.622
73511ION    NA+41729  44.047  17.241   4.364
73512ION    NA+41730  38.715  35.836   1.617
73513ION    NA+41731  41.914  18.085   0.806
73514ION    NA+41732  30.348  23.946  12.908
73515ION    NA+41733  20.781   3.562  13.656
73516ION    NA+41734  28.786  27.698   3.510
73517ION    NA+41735  35.461  27.749  10.690
73518ION    NA+41736  30.422  11.062   3.215
73519ION    NA+41737  42.704  14.726   3.914
73520ION    NA+41738   8.306   9.211  14.904
73521ION    NA+41739   8.958   2.719  12.538
73522ION    NA+41740  38.475  43.071   0.323
73523ION    NA+41741  31.186   9.097   2.805
73524ION    NA+41742  22.072   8.452   0.501
73525ION    NA+41743   4.070  22.070   3.555
73526ION    NA+41744  33.538  32.014   2.417
73527ION    NA+41745   7.625  30.838   1.421
73528ION    NA+41746  35.564  40.099   2.543
73529ION    NA+41747  27.904  42.099  13.991
73530ION    NA+41748  21.781  29.168   3.076
73531ION    NA+41749  32.715  15.586   1.520
73532ION    NA+41750  12.921  22.101  12.428
73533ION    NA+41751  25.485  23.875  14.248
73534ION    NA+41752  23.827  37.557  13.502
73535ION    NA+41753  20.503  23.077  12.465
73536ION    NA+41754   9.870  21.745   3.467
73537ION    NA+41755  36.329  12.683  11.645
73538ION    NA+41756  27.941  18.194   1.853
73539ION    NA+41757  29.518  15.830   1.822
73540ION    NA+41758   4.829  42.572   2.253
73541ION    NA+41759  26.670  35.804  12.969
73542ION    NA+41760  10.374  43.560  11.359
73543ION    NA+41761  11.241  17.647   2.038
73544ION    NA+41762  37.339   4.471  13.124
73545ION    NA+41763  28.130  22.204  13.526
73546ION    NA+41764  28.655   8.684   0.466
73547ION    NA+41765   2.944  17.457  11.153
73548ION    NA+41766  30.731  16.454  12.170
73549ION    NA+41767  31.295   6.824  14.318
73550ION    NA+41768  19.277  12.329  13.633
73551ION    NA+41769  22.658  33.427  10.777
73552ION    NA+41770  22.467  13.055  11.588
73553ION    NA+41771  39.184  16.240   1.788
73554ION    NA+41772  10.177  37.364  11.480
73555ION    NA+41773   2.502   8.972  13.932
73556ION    NA+41774  37.292  32.123  12.047
73557ION    NA+41775  23.368  12.457   4.610
73558ION    NA+41776  22.169  39.219  13.999
73559ION    NA+41777   1.900  29.069  14.974
73560ION    NA+41778  34.274  27.272  14.340
73561ION    NA+41779  33.682  38.862  14.844
73562ION    NA+41780  32.872  17.148   0.861
73563ION    NA+41781  29.535   6.529  14.486
73564ION    NA+41782  20.026  15.897   0.384
73565ION    NA+41783  36.025  18.514  11.034
73566ION    NA+41784  39.767   1.754   4.910
73567ION    NA+41785  43.832  12.851  12.664
73568ION    NA+41786  17.480  43.658   5.444
73569ION    NA+41787  43.811  10.768   2.723
73570ION    NA+41788  17.390  42.223   3.136
73571ION    NA+41789  19.510  42.298   4.418
73572ION    NA+41790   9.868  24.985   1.779
73573ION    NA+41791  33.444  44.775  13.729
73574ION    NA+41792  41.872  27.396  11.086
73575ION    NA+41793   2.635  43.016  12.539
73576ION    NA+41794  35.143  16.080   3.158
73577ION    NA+41795  21.486  18.220   1.619
73578ION    NA+41796   2.951   7.910  13.272
73579ION    NA+41797  32.509   3.688  14.033
73580ION    NA+41798  14.525  13.198  10.724
73581ION    NA+41799  41.893  22.569  11.791
73582ION    NA+41800  32.593   5.146  11.618
73583ION    NA+41801  20.975  11.574  10.694
73584ION    NA+41802  32.418  42.059   3.375
73585ION    NA+41803  43.843   6.326  11.036
73586ION    NA+41804  11.638  30.106   0.786
73587ION    NA+41805   2.331  11.135   0.422
73588ION    NA+41806  41.341  41.317  12.975
73589ION    NA+41807   1.811  15.869   3.759
73590ION    NA+41808  16.660   2.890   0.003
73591ION    NA+41809  39.151  21.144   3.065
73592ION    NA+41810  40.260  10.422  11.187
73593ION    NA+41811   0.114  12.482   3.754
73594ION    NA+41812  35.483  30.927   1.286
73595ION    NA+41813  44.888  28.183  11.399
73596ION    NA+41814  31.259  12.627  10.784
73597ION    NA+41815  29.128   2.478  12.894
73598ION    NA+41816  43.875  44.757  11.375
73599ION    NA+41817  22.718  19.594  12.971
73600ION    NA+41818  27.622  15.561  12.084
73601ION    NA+41819  21.526  34.644  11.349
73602ION    NA+41820   8.878  25.486   0.400
73603ION    NA+41821  33.382  42.243   4.706
73604ION    NA+41822  37.261   9.306  13.695
73605ION    NA+41823  40.971   7.636  14.024
73606ION    NA+41824  36.937   3.465  13.827
73607ION    NA+41825  11.908  20.629  14.345
73608ION    NA+41826  30.639  17.721  11.929
73609ION    NA+41827  33.115  37.558  10.321
73610ION    NA+41828  17.309  23.958  10.695
73611ION    NA+41829  42.027   4.301  11.529
73612ION    NA+41830  31.992   2.822  13.988
73613ION    NA+41831  40.284   9.655  11.828
73614ION    NA+41832  13.574   9.349  12.140
73615ION    NA+41833  44.014  32.716  12.839
73616ION    NA+41834  14.256  31.901  10.223
73617ION    NA+41835  28.857  11.068  14.645
73618ION    NA+41836   9.764  13.273   2.811
73619ION    NA+41837  39.148  16.057  10.028
73620ION    NA+41838  38.151  20.759   4.609
73621ION    NA+41839  30.137  28.405  12.839
73622ION    NA+41840   6.912  33.480   4.136
73623ION    NA+41841  24.905  11.924   2.702
73624ION    NA+41842  35.885  34.323  13.097
73625ION    NA+41843  24.279   9.972  13.743
73626ION    NA+41844  34.434   1.256  13.293
73627ION    NA+41845  21.314  13.108  12.042
73628ION    NA+41846  24.526   4.861  13.562
73629ION    NA+41847  22.560  11.727   3.128
73630ION    NA+41848   8.340  38.822  12.292
73631ION    NA+41849  41.527   0.733  11.152
73632ION    NA+41850  19.406  11.502   3.487
73633ION    NA+41851   8.639  12.190  11.925
73634ION    NA+41852  20.989  14.727  13.901
73635ION    NA+41853  27.362  43.661   3.627
73636ION    NA+41854  28.563  10.582   3.652
73637ION    NA+41855  11.651  44.645  11.866
73638ION    NA+41856   0.002   2.021  14.563
73639ION    NA+41857  35.598   6.485   0.468
73640ION    NA+41858  43.353   9.443   4.958
73641ION    NA+41859  20.093   5.964  13.900
73642ION    NA+41860  37.131  43.198   2.468
73643ION    NA+41861   8.370  30.464   1.031
73644ION    NA+41862   5.316   4.827   2.544
73645ION    NA+41863   0.807  13.375   3.676
73646ION    NA+41864  18.334  33.376   4.089
73647ION    NA+41865  37.349  23.255  12.989
73648ION    NA+41866   7.853  10.801  14.265
73649ION    NA+41867  27.548  27.360  10.844
73650ION    NA+41868  31.608  38.423  12.120
73651ION    NA+41869  20.454  32.545   2.139
73652ION    NA+41870  35.650  22.470  11.286
73653ION    NA+41871   5.735  10.246   3.703
73654ION    NA+41872  30.798  35.767  13.839
73655ION    NA+41873  29.082  24.575  10.408
73656ION    NA+41874   4.708  11.685  10.661
73657ION    NA+41875   6.552  26.043   0.350
73658ION    NA+41876  31.115  34.652  10.390
73659ION    NA+41877  22.451  15.291  11.688
73660ION    NA+41878   1.585  31.852   5.103
73661ION    NA+41879  39.558  16.929  11.161
73662ION    NA+41880  19.043  43.468  14.065
73663ION    NA+41881  11.304   8.967  14.621
73664ION    NA+41882  16.143  16.233  12.224
73665ION    NA+41883  31.855  34.201   2.173
73666ION    NA+41884  33.874  32.830   0.238
73667ION    NA+41885   2.148   6.419   4.969
73668ION    NA+41886   9.671  17.145  13.547
73669ION    NA+41887   1.990  30.402   1.145
73670ION    NA+41888  18.066  34.067   2.223
73671ION    NA+41889  19.953  37.119  11.638
73672ION    NA+41890   4.222  38.789  13.985
73673ION    NA+41891  12.082  13.319   0.758
73674ION    NA+41892  35.094  22.074   3.514
73675ION    NA+41893  35.548  12.446   2.171
73676ION    NA+41894  24.895  10.705   9.686
73677ION    NA+41895  37.995  19.488  12.375
73678ION    NA+41896  14.639   1.372  14.726
73679ION    NA+41897   2.941  21.594   0.387
73680ION    NA+41898  44.219  41.972  12.163
73681ION    NA+41899   6.961  21.638  13.354
73682ION    NA+41900   3.872  34.976  10.140
73683ION    NA+41901  17.882   7.161   2.718
73684ION    NA+41902  36.093  23.306  13.916
73685ION    NA+41903   2.624  12.407   0.328
73686ION    NA+41904  19.229  35.943  14.883
73687ION    NA+41905   7.257  24.462   4.548
73688ION    NA+41906   2.190  15.179  11.552
73689ION    NA+41907   3.978  29.803   0.771
73690ION    NA+41908  21.874  10.462  11.068
73691ION    NA+41909  11.777  33.237   5.092
73692ION    NA+41910  44.833  35.274  11.008
73693ION    NA+41911  20.396  18.929  14.157
73694ION    NA+41912  16.735  40.605   2.363
73695ION    NA+41913  43.055  28.416   4.160
73696ION    NA+41914  12.086   4.136   0.794
73697ION    NA+41915  41.870  13.258   4.213
73698ION    NA+41916  40.990   9.412   4.656
73699ION    NA+41917  30.678  15.661   0.041
73700ION    NA+41918  38.959  13.869  13.812
73701ION    NA+41919   3.691  26.753  13.281
73702ION    NA+41920   5.328   2.772  11.934
73703ION    NA+41921   4.231  41.095  10.699
73704ION    NA+41922  33.747  15.878  13.120
73705ION    NA+41923  43.726  24.217  11.815
73706ION    NA+41924  33.913  32.629   4.235
73707ION    NA+41925  25.006  41.296   0.733
73708ION    NA+41926  26.444  33.168  14.583
73709ION    NA+41927   0.664  40.987  10.792
73710ION    NA+41928   7.376  27.965   3.347
73711ION    NA+41929  23.946  24.507   2.048
73712ION    NA+41930  17.102  11.706  14.084
73713ION    NA+41931   4.498   7.751  12.481
73714ION    NA+41932   9.359   9.817   3.128
73715ION    NA+41933  16.181   8.650   1.549
73716ION    NA+41934  38.071  15.504   5.075
73717ION    NA+41935  42.962  13.702  12.025
73718ION    NA+41936  34.535  31.604   2.401
73719ION    NA+41937  11.377  24.953   2.676
73720ION    NA+41938  34.636   9.434   1.178
73721ION    NA+41939   0.634  13.066   0.989
73722ION    NA+41940  32.898  33.307  13.081
73723ION    NA+41941  16.831  33.401  12.779
73724ION    NA+41942   8.341  22.033   0.785
73725ION    NA+41943  16.358  18.628  12.919
73726ION    NA+41944  10.635  12.794   4.208
73727ION    NA+41945  35.118  12.864   3.017
73728ION    NA+41946  24.298  11.397   3.114
73729ION    NA+41947  15.998  10.623   2.491
73730ION    NA+41948  27.303   0.070  14.299
73731ION    NA+41949  12.379   2.528  11.680
73732ION    NA+41950  30.476  16.430   9.926
73733ION    NA+41951  14.394  22.750  13.581
73734ION    NA+41952  36.797  41.575  12.810
73735ION    NA+41953  41.801  25.454  14.302
73736ION    NA+41954  14.175  36.785   2.188
73737ION    NA+41955  20.503  16.318  11.247
73738ION    NA+41956  34.231  33.005  14.276
73739ION    NA+41957  29.345  11.220  13.334
73740ION    NA+41958  43.923   1.361   0.337
73741ION    NA+41959  13.690  17.489  11.048
73742ION    NA+41960  10.317  16.251  11.869
73743ION    NA+41961  18.732   3.968  12.173
73744ION    NA+41962  26.589  34.909   3.055
73745ION    NA+41963  29.495  14.291   2.960
73746ION    NA+41964  42.406  43.340  10.726
73747ION    NA+41965  35.062   8.819   1.550
73748ION    NA+41966  34.162  17.343   1.064
73749ION    NA+41967  32.100   0.741  10.827
73750ION    NA+41968  40.604  15.874   3.631
73751ION    NA+41969  25.774  10.433   5.324
73752ION    NA+41970  44.079  37.494   3.172
73753ION    NA+41971  40.392   1.543   0.407
73754ION    NA+41972  12.434   5.053   0.988
73755ION    NA+41973  32.256   5.972  11.166
73756ION    NA+41974   9.320   5.433  11.086
73757ION    NA+41975  18.110   9.755   0.414
73758ION    NA+41976   6.344  18.681  11.494
73759ION    NA+41977   7.773  33.381   3.524
73760ION    NA+41978   6.486  20.848  11.981
73761ION    NA+41979  28.073  22.162  10.293
73762ION    NA+41980  38.398  29.732  11.237
73763ION    NA+41981   5.913  21.989  12.632
73764ION    NA+41982  22.472   4.415   1.801
73765ION    NA+41983  27.169  13.023   2.067
73766ION    NA+41984  28.357  13.414  11.679
73767ION    NA+41985  21.962  32.262  12.773
73768ION    NA+41986  30.579  32.556   2.136
73769ION    NA+41987  20.803  30.068  13.571
73770ION    NA+41988  43.058  24.865  12.713
73771ION    NA+41989  44.870  17.955  12.736
73772ION    NA+41990  35.440  38.955  11.483
73773ION    NA+41991  43.897  19.922  11.476
73774ION    NA+41992  39.792   3.931   3.167
73775ION    NA+41993   7.691  26.095   3.315
73776ION    NA+41994   9.615   4.912   2.165
73777ION    NA+41995   9.875  15.400  12.153
73778ION    NA+41996  26.550  10.361  13.707
73779ION    NA+41997  31.225  28.428   0.854
73780ION    NA+41998  16.836  43.258   1.268
73781ION    NA+41999  12.557  37.256  11.586
73782ION    NA+42000  38.373   2.790   2.849
73783ION    NA+42001  32.570  42.028   0.508
73784ION    NA+42002   5.665  23.458   4.191
73785ION    NA+42003  21.210   2.849  10.646
73786ION    NA+42004  41.861  10.202   2.983
73787ION    NA+42005  42.991  33.540   4.018
73788ION    NA+42006  20.235   7.145  11.980
73789ION    NA+42007  13.256  34.199  13.713
73790ION    NA+42008   5.390  12.883   4.094
73791ION    NA+42009  21.360  16.050  11.172
73792ION    NA+42010  10.163  32.019  12.817
73793ION    NA+42011  15.209  35.821  11.365
73794ION    NA+42012  34.608   4.633   3.411
73795ION    NA+42013  25.100   7.447  14.511
73796ION    NA+42014  18.533  23.298   1.438
73797ION    NA+42015  10.018  11.317   1.632
73798ION    NA+42016  43.232  27.496   4.576
73799ION    NA+42017   5.342  43.385   1.976
73800ION    NA+42018   0.868  39.342  13.480
73801ION    NA+42019  31.205  43.321  13.000
73802ION    NA+42020  20.075   9.171   2.421
73803ION    NA+42021  13.328  27.904  14.932
73804ION    NA+42022  30.523  10.484   0.009
73805ION    NA+42023  27.347  38.830   2.667
73806ION    NA+42024  41.126  36.152  12.837
73807ION    NA+42025  11.637  28.678  11.121
73808ION    NA+42026  13.101  18.120  11.552
73809ION    NA+42027  15.346  30.523   2.307
73810ION    NA+42028  12.668   8.651  14.734
73811ION    CL-42029  25.046   4.315   3.639
73812ION    CL-42030  36.988  26.731   0.326
73813ION    CL-42031  32.452  35.938   0.426
73814ION    CL-42032  16.034   3.778   1.775
73815ION    CL-42033   6.192  24.142  14.736
73816ION    CL-42034  33.150  19.982   0.556
73817ION    CL-42035  24.299  30.180   1.606
73818ION    CL-42036   3.772  32.114   4.949
73819ION    CL-42037  25.242  34.709  10.743
73820ION    CL-42038  28.844  21.828   2.537
73821ION    CL-42039  27.669  31.846   1.363
73822ION    CL-42040  32.525   1.839   4.380
73823ION    CL-42041   6.559  31.923   4.939
73824ION    CL-42042   3.725  16.159  11.935
73825ION    CL-42043  44.501  11.861   2.743
73826ION    CL-42044  40.357  44.444   4.000
73827ION    CL-42045   1.425  11.195   0.559
73828ION    CL-42046  29.348  30.573  12.975
73829ION    CL-42047   3.621  12.879  14.391
73830ION    CL-42048  11.355  38.962   0.302
73831ION    CL-42049   2.409  40.721  14.265
73832ION    CL-42050  11.615  20.620   2.798
73833ION    CL-42051  14.659  11.737   2.646
73834ION    CL-42052  15.146  25.731  11.837
73835ION    CL-42053  13.154  27.172  11.049
73836ION    CL-42054  27.508   0.221  14.667
73837ION    CL-42055  28.435  11.198  14.592
73838ION    CL-42056  27.426  31.457  11.507
73839ION    CL-42057  20.935  16.175  11.268
73840ION    CL-42058  13.849  31.844  13.324
73841ION    CL-42059  33.026  38.797   2.357
73842ION    CL-42060   5.971   0.990   1.303
73843ION    CL-42061  33.237  24.905   4.172
73844ION    CL-42062  17.131  42.033  13.011
73845ION    CL-42063  38.815  38.725   3.136
73846ION    CL-42064  35.611  13.545  12.742
73847ION    CL-42065  27.128  30.710   0.462
73848ION    CL-42066  22.916  23.703  12.057
73849ION    CL-42067  26.649  12.115   5.103
73850ION    CL-42068  34.746  11.745  11.962
73851ION    CL-42069  21.296  42.400  13.651
73852ION    CL-42070   4.398   6.736  11.692
73853ION    CL-42071  34.668   4.785   3.835
73854ION    CL-42072  30.404  10.904   0.115
73855ION    CL-42073  28.648   1.760   5.135
73856ION    CL-42074  26.511  35.351   3.130
73857ION    CL-42075   2.978  31.774  11.242
73858ION    CL-42076  33.363  31.501   3.669
73859ION    CL-42077  29.841  33.576  12.333
73860ION    CL-42078  19.496  21.539   2.790
73861ION    CL-42079  17.905  22.670  13.253
73862ION    CL-42080  43.485  33.122   3.223
73863ION    CL-42081   9.498  15.149  12.131
73864ION    CL-42082  26.459  39.831  10.722
73865ION    CL-42083  13.265  41.691  12.208
73866ION    CL-42084  26.599  16.051  12.016
73867ION    CL-42085  19.748   2.183  14.013
73868ION    CL-42086  27.860   7.726   5.159
73869ION    CL-42087  23.423  33.027  11.748
73870ION    CL-42088  20.779   0.967  12.063
73871ION    CL-42089  34.426  24.974   2.940
73872ION    CL-42090  11.941  32.871   4.843
73873ION    CL-42091  25.561  18.118   1.912
73874ION    CL-42092  26.348  16.359   2.902
73875ION    CL-42093  28.942  17.591  10.739
73876ION    CL-42094  19.367  21.913  13.802
73877ION    CL-42095  22.565  31.981   4.129
73878ION    CL-42096   1.105  38.269  14.775
73879ION    CL-42097  29.727  20.046  10.728
73880ION    CL-42098  30.730  30.911  11.081
73881ION    CL-42099  37.101  35.489  14.753
73882ION    CL-42100  20.100   9.333  11.303
73883ION    CL-42101  33.006  11.343   4.597
73884ION    CL-42102  23.227  30.228  10.421
73885ION    CL-42103  17.920  10.293   5.120
73886ION    CL-42104   0.192  44.098  13.137
73887ION    CL-42105  30.474  31.694   5.023
73888ION    CL-42106  28.514   8.830  13.094
73889ION    CL-42107  41.903  44.399  13.390
73890ION    CL-42108  39.757   0.865   2.086
73891ION    CL-42109  22.333  36.159   3.331
73892ION    CL-42110  34.987  41.253  11.450
73893ION    CL-42111  15.300  27.151  11.260
73894ION    CL-42112  38.954  26.670   0.731
73895ION    CL-42113  24.304   3.367  13.408
73896ION    CL-42114  20.339  28.147   2.647
73897ION    CL-42115  33.140   7.551   0.925
73898ION    CL-42116   0.988   1.857  12.388
73899ION    CL-42117  28.353  27.792   1.382
73900ION    CL-42118  22.388  31.525   5.001
73901ION    CL-42119  22.603  17.545  14.530
73902ION    CL-42120  31.359  42.976  12.742
73903ION    CL-42121  10.772  26.923   0.493
73904ION    CL-42122   8.660   3.023   0.669
73905ION    CL-42123   6.812  24.347  13.979
73906ION    CL-42124  30.178  42.393   4.043
73907ION    CL-42125  27.925  25.993   2.040
73908ION    CL-42126  42.838  43.868   1.540
73909ION    CL-42127  26.452  35.337  14.088
73910ION    CL-42128  28.527  43.730  14.298
73911ION    CL-42129   1.770  32.564   2.848
73912ION    CL-42130   3.644  26.502   0.294
73913ION    CL-42131   4.556  26.873   0.468
73914ION    CL-42132  44.510  25.241   0.407
73915ION    CL-42133   1.633  39.349   0.085
73916ION    CL-42134   3.654   2.496   0.394
73917ION    CL-42135   9.876  28.155   4.091
73918ION    CL-42136  22.013  27.171  12.023
73919ION    CL-42137   1.869   7.399   2.703
73920ION    CL-42138   3.152  36.242   4.985
73921ION    CL-42139  33.892  11.553  10.476
73922ION    CL-42140   4.239  21.596   0.616
73923ION    CL-42141  17.071  13.784  13.897
73924ION    CL-42142  38.013  29.905   1.434
73925ION    CL-42143  18.182  38.755   0.337
73926ION    CL-42144  13.962  39.652   2.938
73927ION    CL-42145  12.135  29.807  10.291
73928ION    CL-42146   4.212  37.082  13.809
73929ION    CL-42147  24.616  37.135   3.390
73930ION    CL-42148  27.925  44.305   0.783
73931ION    CL-42149  40.473  15.265  14.615
73932ION    CL-42150   9.407  32.022   1.193
73933ION    CL-42151  40.691  42.877  11.416
73934ION    CL-42152  38.788   9.689  11.640
73935ION    CL-42153  10.867   1.278  14.960
73936ION    CL-42154   1.890  42.548  11.094
73937ION    CL-42155   8.798  33.434   3.135
73938ION    CL-42156  29.508   9.060   3.303
73939ION    CL-42157  27.696  21.162  14.233
73940ION    CL-42158  24.583  18.781  13.811
73941ION    CL-42159  33.976  12.816  13.543
73942ION    CL-42160  28.303  32.842  12.666
73943ION    CL-42161  21.336  24.549  11.124
73944ION    CL-42162  37.257   8.217   2.886
73945ION    CL-42163  10.191  25.215  13.917
73946ION    CL-42164  15.987  42.197   5.003
73947ION    CL-42165   1.779  35.107  14.155
73948ION    CL-42166  35.235  16.565   4.862
73949ION    CL-42167  33.529  25.127  10.765
73950ION    CL-42168  11.396  27.139  10.443
73951ION    CL-42169  35.066  27.659   3.066
73952ION    CL-42170   0.339  31.300   0.188
73953ION    CL-42171   1.452   6.537  10.360
73954ION    CL-42172  18.704  38.344  13.374
73955ION    CL-42173  10.309   2.920   4.956
73956ION    CL-42174  35.255  15.351   2.137
73957ION    CL-42175  44.131  20.861   5.307
73958ION    CL-42176  17.939  25.126   3.472
73959ION    CL-42177  22.429  37.557  14.907
73960ION    CL-42178  23.460  11.810   0.387
73961ION    CL-42179  40.160  22.867  13.095
73962ION    CL-42180  33.661  43.810   0.796
73963ION    CL-42181   2.980  38.745   3.216
73964ION    CL-42182  33.434  36.972   0.278
73965ION    CL-42183  37.666   2.424   3.702
73966ION    CL-42184   6.444  11.608   1.478
73967ION    CL-42185   4.513  16.116  11.494
73968ION    CL-42186  18.607  22.592  14.060
73969ION    CL-42187  39.562  21.110   2.887
73970ION    CL-42188  43.474   8.721   9.786
73971ION    CL-42189  23.776  12.278   4.701
73972ION    CL-42190  33.756  19.606   2.422
73973ION    CL-42191   2.604  18.410   2.898
73974ION    CL-42192  26.380   0.956  11.239
73975ION    CL-42193  22.285  22.193  14.600
73976ION    CL-42194  28.879  43.455   2.240
73977ION    CL-42195  11.805  24.450  14.316
73978ION    CL-42196  32.944  27.886  14.256
73979ION    CL-42197   6.355   2.223   1.764
73980ION    CL-42198  23.526   7.919   2.371
73981ION    CL-42199  36.136   0.400   2.646
73982ION    CL-42200  28.860  12.381  11.526
73983ION    CL-42201  16.968  12.916   5.008
73984ION    CL-42202  10.436  32.033  12.464
73985ION    CL-42203  38.969  27.704  12.092
73986ION    CL-42204  39.123  35.969   1.406
73987ION    CL-42205  18.212  23.590   3.266
73988ION    CL-42206  30.610   5.421  11.060
73989ION    CL-42207  33.569  14.594   3.916
73990ION    CL-42208  17.873  19.844   3.367
73991ION    CL-42209  36.114  34.490  12.072
73992ION    CL-42210  39.302  29.754   0.365
73993ION    CL-42211  13.864   3.208   0.005
73994ION    CL-42212  10.570  34.824   3.311
73995ION    CL-42213   6.388  11.171  11.637
73996ION    CL-42214  13.280  20.540  11.076
73997ION    CL-42215  36.047   5.901   4.156
73998ION    CL-42216  32.987   6.277  13.502
73999ION    CL-42217  19.314  11.292   3.874
74000ION    CL-42218   8.535  25.261  12.619
74001ION    CL-42219  31.697   5.865   2.803
74002ION    CL-42220   7.058  44.714   4.684
74003ION    CL-42221  11.117  44.796   2.237
74004ION    CL-42222  44.467  42.321   2.140
74005ION    CL-42223  27.512   7.498   1.346
74006ION    CL-42224  30.867  36.388   4.110
74007ION    CL-42225  19.724  43.932  12.807
74008ION    CL-42226  11.682  14.218   1.882
74009ION    CL-42227  13.156  11.801   4.863
74010ION    CL-42228  38.399   1.198   5.002
74011ION    CL-42229  34.083   6.339   1.315
74012ION    CL-42230  20.112  43.968  14.490
74013ION    CL-42231  21.824  32.559   9.983
74014ION    CL-42232  29.546  14.677   3.181
74015ION    CL-42233  33.488  11.122  13.595
74016ION    CL-42234  19.414  23.595   0.643
74017ION    CL-42235   5.891  32.501  13.797
74018ION    CL-42236  28.572  33.881  14.048
74019ION    CL-42237  24.391  40.365  14.381
74020ION    CL-42238  15.251  12.365   2.141
74021ION    CL-42239  10.215  40.102  13.984
74022ION    CL-42240  33.222  22.081   2.701
74023ION    CL-42241  35.104  43.943   3.920
74024ION    CL-42242   8.560   8.672  12.511
74025ION    CL-42243  44.686  44.463   4.347
74026ION    CL-42244  30.918   5.185   4.093
74027ION    CL-42245  10.243   1.992   1.846
74028ION    CL-42246  11.869   2.272   2.347
74029ION    CL-42247  37.719  14.678  10.097
74030ION    CL-42248   6.755  24.585   1.328
74031ION    CL-42249  26.489  34.375   1.743
74032ION    CL-42250  16.749  20.198   5.003
74033ION    CL-42251  14.106  36.695  13.634
74034ION    CL-42252   3.022  39.983  12.208
74035ION    CL-42253  44.285  25.456   1.839
74036ION    CL-42254   6.214  10.705   1.575
74037ION    CL-42255  14.925   2.548   4.864
74038ION    CL-42256  42.379  19.647  12.405
74039ION    CL-42257   3.814  21.908   3.216
74040ION    CL-42258  42.428  35.800   4.785
74041ION    CL-42259  26.924  21.793  14.159
74042ION    CL-42260  11.587   8.986  11.211
74043ION    CL-42261  34.965   1.530   1.405
74044ION    CL-42262   8.804  42.523   1.609
74045ION    CL-42263  38.641  37.676   1.126
74046ION    CL-42264  36.813  36.703  12.002
74047ION    CL-42265  29.616  30.078  13.906
74048ION    CL-42266  24.009  38.528  12.913
74049ION    CL-42267  24.375  35.923   0.528
74050ION    CL-42268  35.500  43.029   3.841
74051ION    CL-42269  20.794  22.011   5.012
74052ION    CL-42270  13.667   1.385   3.292
74053ION    CL-42271  34.487   2.338  10.674
74054ION    CL-42272  11.556  34.612   2.344
74055ION    CL-42273  43.903  10.223  11.389
74056ION    CL-42274  23.278   7.081   4.173
74057ION    CL-42275  22.960  37.538   4.817
74058ION    CL-42276  43.695  41.613  13.987
74059ION    CL-42277  20.973  25.935   4.946
74060ION    CL-42278   1.400  31.359   1.751
74061ION    CL-42279  18.594  27.817  14.397
74062ION    CL-42280   1.022  38.099  13.099
74063ION    CL-42281   2.330   7.269   3.844
74064ION    CL-42282  21.188  36.146  10.633
74065ION    CL-42283  29.237  37.517  10.700
74066ION    CL-42284  13.583   9.086   3.440
74067ION    CL-42285  31.464  28.043  12.924
74068ION    CL-42286  38.348  10.785   4.300
74069ION    CL-42287   2.404  42.742   2.759
74070ION    CL-42288   9.344   1.612   4.895
74071ION    CL-42289  16.291  12.298  13.382
74072ION    CL-42290   5.837  18.682  14.741
74073ION    CL-42291   2.127  35.420  12.592
74074ION    CL-42292  22.373  20.105   3.391
74075ION    CL-42293   3.488  32.464  11.187
74076ION    CL-42294  30.026  32.617  13.431
74077ION    CL-42295  37.113  30.915   4.014
74078ION    CL-42296  13.899  27.458  10.621
74079ION    CL-42297  37.540  32.101   0.521
74080ION    CL-42298  28.304  34.574  11.543
74081ION    CL-42299   6.837  13.506   0.912
74082ION    CL-42300  44.505  28.685   4.093
74083ION    CL-42301   8.964  27.536  12.152
74084ION    CL-42302  16.750   6.618  11.697
74085ION    CL-42303  24.403  22.505   4.964
74086ION    CL-42304  37.085  16.202  14.768
74087ION    CL-42305  18.389  33.158   4.502
74088ION    CL-42306  37.477  40.077  13.735
74089ION    CL-42307  33.418  20.252  13.498
74090ION    CL-42308  12.107   2.382  14.129
74091ION    CL-42309   5.643  14.111  13.613
74092ION    CL-42310  42.288  38.228   5.211
74093ION    CL-42311  27.471  17.749  13.040
74094ION    CL-42312   1.580  12.462   1.776
74095ION    CL-42313  42.364   9.193   3.826
74096ION    CL-42314  17.452  11.543   3.603
74097ION    CL-42315  26.079  19.364   1.662
74098ION    CL-42316  20.792  24.969   3.642
74099ION    CL-42317  43.072   2.043  12.432
74100ION    CL-42318   8.719  23.713  10.739
74101ION    CL-42319  10.672  39.569   0.377
74102ION    CL-42320   6.461  21.663  10.558
74103ION    CL-42321  41.658  14.120  13.436
74104ION    CL-42322  24.537  40.924   4.758
74105ION    CL-42323  23.470  27.025   4.134
74106ION    CL-42324  24.060  26.546  10.564
74107ION    CL-42325  29.660  21.442   2.629
74108ION    CL-42326  27.770  32.732   1.927
74109ION    CL-42327  32.661  41.972  13.298
74110ION    CL-42328  43.499  28.784   0.032
74111ION    CL-42329   0.423   3.012   0.799
74112ION    CL-42330   1.424  15.122  14.912
74113ION    CL-42331   7.191  41.901  12.184
74114ION    CL-42332  29.932  12.467   3.401
74115ION    CL-42333   3.400   7.373   0.720
74116ION    CL-42334  10.312  26.155   5.086
74117ION    CL-42335  20.617  32.524   2.561
74118ION    CL-42336  37.258  32.363  14.173
74119ION    CL-42337  29.860  17.166  14.783
74120ION    CL-42338  16.591  13.688   4.093
74121ION    CL-42339  40.219  29.381  11.449
74122ION    CL-42340   8.094  34.358  11.077
74123ION    CL-42341  34.954  26.887   0.983
74124ION    CL-42342  25.950  32.047   4.759
74125ION    CL-42343   1.888  40.800   5.017
74126ION    CL-42344   9.954   7.700  12.946
74127ION    CL-42345  42.818  24.298   4.950
74128ION    CL-42346  40.427  44.774  10.469
74129ION    CL-42347   1.632  37.012   5.003
74130ION    CL-42348  16.033  16.334  13.507
74131ION    CL-42349  32.701  11.404   1.935
74132ION    CL-42350  20.899  43.690   2.784
74133ION    CL-42351  24.031  26.673   3.277
74134ION    CL-42352   6.321  43.603   4.973
74135ION    CL-42353   2.045  28.914  11.083
74136ION    CL-42354  40.017   9.289   0.785
74137ION    CL-42355  31.966  37.597   5.041
74138ION    CL-42356   4.490  32.499   0.084
74139ION    CL-42357  33.994  16.471  11.168
74140ION    CL-42358   6.733   9.028   2.444
74141ION    CL-42359  13.152  19.914   0.847
74142ION    CL-42360  22.198  32.012  13.071
74143ION    CL-42361  20.259  22.936   0.491
74144ION    CL-42362  21.709  18.193   3.303
74145ION    CL-42363   5.351  38.285   0.660
74146ION    CL-42364  31.637  44.202  11.738
74147ION    CL-42365  14.098  34.639   3.796
74148ION    CL-42366  32.553  30.311  14.376
74149ION    CL-42367   1.494   5.378  13.317
74150ION    CL-42368   8.794   2.447   4.934
74151ION    CL-42369  26.723  15.949   3.503
74152ION    CL-42370  39.040  19.618  11.850
74153ION    CL-42371   0.467   7.644  14.570
74154ION    CL-42372   5.184  19.986  12.468
74155ION    CL-42373  41.182  17.572  14.653
74156ION    CL-42374   5.297  32.224   2.171
74157ION    CL-42375  16.162   8.634   1.995
74158ION    CL-42376  13.592   6.320   2.244
74159ION    CL-42377  24.660  26.672   9.829
74160ION    CL-42378  21.664  10.070  11.065
74161ION    CL-42379  17.350  36.054  11.643
74162ION    CL-42380  24.442  33.894  11.062
74163ION    CL-42381  33.866   2.743   2.373
74164ION    CL-42382  32.066  12.596  13.948
74165ION    CL-42383  13.842  21.680   0.843
74166ION    CL-42384  43.088  39.500  10.623
74167ION    CL-42385   2.590   5.209   5.142
74168ION    CL-42386  19.035  40.044  14.370
74169ION    CL-42387  12.260  23.614  11.880
74170ION    CL-42388   1.817  39.958   3.181
74171ION    CL-42389  31.237  15.989  12.593
74172ION    CL-42390  14.345  32.880  14.973
74173ION    CL-42391  41.971  21.149  13.625
74174ION    CL-42392  18.200  27.336   0.315
74175ION    CL-42393  30.616  34.740   4.961
74176ION    CL-42394  36.897   8.104  11.521
74177ION    CL-42395   9.859  22.263  13.417
74178ION    CL-42396  14.928  22.229  14.875
74179ION    CL-42397  14.090   9.969   5.242
74180ION    CL-42398   8.386  23.215   3.902
74181ION    CL-42399  11.366  44.559  13.244
74182ION    CL-42400  15.902  21.648   0.888
74183ION    CL-42401  15.379   4.658   0.865
74184ION    CL-42402   0.969  30.294   0.494
74185ION    CL-42403  27.628  10.494   3.105
74186ION    CL-42404  28.131  37.070   4.539
74187ION    CL-42405   8.096  17.128   3.618
74188ION    CL-42406   5.729  10.622  14.932
74189ION    CL-42407  16.789  44.391  12.377
74190ION    CL-42408   3.756  40.994   1.323
74191ION    CL-42409  25.828  20.820   1.018
74192ION    CL-42410  17.992  13.583   4.118
74193ION    CL-42411  38.142  26.127  12.061
74194ION    CL-42412   2.956   2.715  12.494
74195ION    CL-42413  26.576  13.469  13.230
74196ION    CL-42414  25.821  42.112  14.885
74197ION    CL-42415  36.110  29.401   2.634
74198ION    CL-42416   2.302  12.715   0.284
74199ION    CL-42417  14.123  30.419   4.816
74200ION    CL-42418  38.774  16.071   1.853
74201ION    CL-42419  42.833  20.074   3.866
74202ION    CL-42420  38.127  40.108   1.757
74203ION    CL-42421  37.140  39.258  13.578
74204ION    CL-42422   8.659  30.229   0.746
74205ION    CL-42423  42.982  12.997  14.071
74206ION    CL-42424  13.817  19.211  12.534
74207ION    CL-42425  10.349   3.859  11.167
74208ION    CL-42426  20.717  19.692  11.765
74209ION    CL-42427   7.545  15.165   4.556
74210ION    CL-42428  18.441  41.060   0.115
74211ION    CL-42429  26.071  16.165  13.421
74212ION    CL-42430  39.131   1.432  11.351
74213ION    CL-42431  38.138   7.997   2.905
74214ION    CL-42432   0.880  15.298   2.884
74215ION    CL-42433   0.365  19.232   3.538
74216ION    CL-42434  15.854  31.967  12.026
74217ION    CL-42435   9.610  31.167   4.270
74218ION    CL-42436  33.325  31.546  13.992
74219ION    CL-42437  38.886  10.660  14.566
74220ION    CL-42438  24.092  41.550  11.702
74221ION    CL-42439  37.690   0.572   2.143
74222ION    CL-42440   5.666  13.087   3.811
74223ION    CL-42441  22.568  29.932   2.726
74224ION    CL-42442   7.269  43.967   3.954
74225ION    CL-42443  27.723  10.982  11.141
74226ION    CL-42444   4.770  34.042  14.289
74227ION    CL-42445  44.974  28.193  11.836
74228ION    CL-42446  35.177  32.556  13.604
74229ION    CL-42447  25.591  15.734   4.951
74230ION    CL-42448  37.721  26.745   9.989
74231ION    CL-42449  29.201  34.747   4.932
74232ION    CL-42450   9.685  27.324  13.555
74233ION    CL-42451  39.833  43.437  14.385
74234ION    CL-42452  26.997  13.350   4.102
74235ION    CL-42453  39.330  18.619   3.914
74236ION    CL-42454  43.936  40.907  11.423
74237ION    CL-42455  31.188   8.068  13.867
74238ION    CL-42456  23.613  32.253  11.363
74239ION    CL-42457  34.339  12.904  12.615
74240ION    CL-42458  40.626  20.171  11.078
74241ION    CL-42459  18.098  44.515   1.406
74242ION    CL-42460  32.561  37.451   4.751
74243ION    CL-42461  31.735  30.148  12.896
74244ION    CL-42462  37.562   1.491  12.964
74245ION    CL-42463   7.728  13.773   4.103
74246ION    CL-42464  10.989  17.713   1.673
74247ION    CL-42465  44.743  30.159  11.116
74248ION    CL-42466  41.213   7.852   2.945
74249ION    CL-42467  44.734  41.096   3.892
74250ION    CL-42468   1.871  38.838  11.610
74251ION    CL-42469  26.456  26.586   3.716
74252ION    CL-42470   0.829  20.653   3.604
74253ION    CL-42471  40.658  23.698   2.228
74254ION    CL-42472  34.881  34.838  11.631
74255ION    CL-42473  44.887  10.836   4.141
74256ION    CL-42474   9.372  12.179   1.349
74257ION    CL-42475   9.177  16.140  13.084
74258ION    CL-42476   5.264  27.823  12.387
74259ION    CL-42477  20.794   9.376  10.584
74260ION    CL-42478  30.167  27.048  11.629
74261ION    CL-42479   1.057  28.972   0.507
74262ION    CL-42480  17.353  41.824   2.914
74263ION    CL-42481  30.614  10.665   3.148
74264ION    CL-42482   1.920  23.116   3.338
74265ION    CL-42483  34.306  23.577  13.855
74266ION    CL-42484  43.671   7.714   5.390
74267ION    CL-42485  19.790  26.258  14.017
74268ION    CL-42486  39.243  24.192   0.272
74269ION    CL-42487   4.713  41.127  11.908
74270ION    CL-42488  24.883  30.885  11.704
74271ION    CL-42489  34.105  36.618   2.834
74272ION    CL-42490  42.645  30.472   0.395
74273ION    CL-42491   5.646  42.465  14.412
74274ION    CL-42492  19.462  28.018  11.048
74275ION    CL-42493  22.782  18.522  12.040
74276ION    CL-42494  33.643  13.001   3.662
74277ION    CL-42495   3.409  41.908  13.213
74278ION    CL-42496  19.750   6.227   0.692
74279ION    CL-42497  36.155  39.321   4.156
74280ION    CL-42498  22.023  21.700  11.325
74281ION    CL-42499  34.871  14.771   0.139
74282ION    CL-42500  42.130  31.729   2.522
74283ION    CL-42501  11.199   7.809  10.337
74284ION    CL-42502  11.670  20.135  10.654
74285ION    CL-42503  27.383  17.662  10.618
74286ION    CL-42504  27.250   9.968  11.918
74287ION    CL-42505  38.075  40.529   0.053
74288ION    CL-42506  40.809  30.647  10.640
74289ION    CL-42507   7.391  36.316  14.626
74290ION    CL-42508  16.905  35.356  13.635
74291ION    CL-42509  31.700  25.677   3.000
74292ION    CL-42510  41.310  24.366   4.608
74293ION    CL-42511  33.720   4.929   0.849
74294ION    CL-42512  14.386   1.851   2.777
74295ION    CL-42513  12.758  39.591   3.351
74296ION    CL-42514  37.044  18.832  14.872
74297ION    CL-42515  13.161  30.561  14.014
74298ION    CL-42516   1.180  40.687   2.705
74299ION    CL-42517  14.753  21.562  13.102
74300ION    CL-42518  22.413  19.476  14.378
74301ION    CL-42519  43.397   7.698   2.768
74302ION    CL-42520  20.779   0.315  14.528
74303ION    CL-42521  44.302  39.523  11.472
74304ION    CL-42522  12.116  27.439   4.555
74305ION    CL-42523   3.008  32.506  13.401
74306ION    CL-42524  14.323  17.195  14.055
74307ION    CL-42525   0.958   7.222  11.736
74308ION    CL-42526  25.722  42.363  11.221
74309ION    CL-42527  14.374  17.620   1.174
74310ION    CL-42528  43.728   8.753  13.524
74311ION    CL-42529   6.860  37.521   3.776
74312ION    CL-42530  31.508   2.865  10.784
74313ION    CL-42531   5.047  18.642   4.767
74314ION    CL-42532  13.552   2.401   2.720
74315ION    CL-42533  38.837  19.894   2.583
74316ION    CL-42534  38.501  23.649   4.546
74317ION    CL-42535  34.948   1.317   5.155
74318ION    CL-42536  21.961   1.920  11.037
74319ION    CL-42537   2.148  23.758  14.333
74320ION    CL-42538  41.280  13.461  12.739
74321ION    CL-42539  31.036   1.449   3.200
74322ION    CL-42540  38.567  43.706   3.284
74323ION    CL-42541  44.199  27.198   1.327
74324ION    CL-42542   7.958  15.725   1.815
74325ION    CL-42543  33.582   6.251   2.176
74326ION    CL-42544   0.760  29.696   2.228
74327ION    CL-42545  37.931   4.471  10.724
74328ION    CL-42546  11.798  36.807  13.582
74329ION    CL-42547  44.290  29.128   0.655
74330ION    CL-42548  34.336   9.679   1.417
74331ION    CL-42549   4.348  22.221   1.455
74332ION    CL-42550  30.475   6.488   4.308
74333ION    CL-42551   0.267   3.674  13.936
74334ION    CL-42552  13.039  17.150  13.127
74335ION    CL-42553   2.396  39.780  14.603
74336ION    CL-42554  34.559   7.958  13.099
74337ION    CL-42555  19.988  40.828   0.735
74338ION    CL-42556   6.873  23.887  12.079
74339ION    CL-42557   6.202  44.995  12.959
74340ION    CL-42558   2.775   0.951  11.810
74341ION    CL-42559  13.271  44.704  14.875
74342ION    CL-42560   3.666   2.904  14.594
74343ION    CL-42561  26.876  33.176  14.725
74344ION    CL-42562  37.550  40.275  11.654
74345ION    CL-42563  42.323  30.201   3.399
74346ION    CL-42564  18.160  32.350   3.841
74347ION    CL-42565   2.301  44.271  11.073
74348ION    CL-42566  25.828  18.569  11.232
74349ION    CL-42567  44.750  38.714   4.596
74350ION    CL-42568  29.595   1.383  10.716
74351ION    CL-42569  31.260  38.463  12.412
74352ION    CL-42570  37.288  43.793  13.365
74353ION    CL-42571   9.058  41.536  11.830
74354ION    CL-42572  32.134  12.877  14.917
74355ION    CL-42573  41.723   5.804  14.300
74356ION    CL-42574  37.542   6.351   2.874
74357ION    CL-42575  36.049  11.615   5.014
74358ION    CL-42576   7.452   7.910   3.239
74359ION    CL-42577  42.136  30.365  14.625
74360ION    CL-42578  14.347  33.942   2.880
74361ION    CL-42579  32.576  13.254  12.336
74362ION    CL-42580  24.631  32.542  10.513
74363ION    CL-42581  24.233  12.078  14.482
74364ION    CL-42582  12.586  44.846   3.207
74365ION    CL-42583  30.490  36.314  14.961
74366ION    CL-42584  44.006  38.462   1.648
74367ION    CL-42585  35.286  14.481  14.404
74368ION    CL-42586  40.167  12.491  13.466
74369ION    CL-42587  35.792  32.134  11.964
74370ION    CL-42588  38.358  33.078   2.076
74371ION    CL-42589  24.262  23.478   3.691
74372ION    CL-42590   0.789  34.010   1.285
74373ION    CL-42591  35.556   7.110  13.935
74374ION    CL-42592   9.498   2.252   1.414
74375ION    CL-42593   3.088  21.976   2.815
74376ION    CL-42594  30.635  24.631   3.858
74377ION    CL-42595  17.427  15.197   1.897
74378ION    CL-42596  33.446   3.458   0.894
74379ION    CL-42597  32.814  28.843   4.340
74380ION    CL-42598  18.581  26.398   3.215
74381ION    CL-42599  37.142   3.498  11.345
74382ION    CL-42600  29.205  30.652   5.055
74383ION    CL-42601  27.435   2.178   0.966
74384ION    CL-42602   5.045  35.354   1.174
74385ION    CL-42603  43.113  30.170   1.128
74386ION    CL-42604  12.782  28.928  10.681
74387ION    CL-42605  20.454  12.338  12.822
74388ION    CL-42606  31.344  17.524   2.298
74389ION    CL-42607  41.809  39.323   2.202
74390ION    CL-42608  12.098  21.936  11.069
74391ION    CL-42609  26.122   5.175   3.536
74392ION    CL-42610  27.033  40.392  13.396
74393ION    CL-42611  21.874  18.000   1.650
74394ION    CL-42612  14.466  24.041  13.079
74395ION    CL-42613  18.932  32.772   0.758
74396ION    CL-42614  23.045  32.951  12.562
74397ION    CL-42615  37.475  30.532  10.860
74398ION    CL-42616  42.098   5.846   1.320
74399ION    CL-42617   2.977  13.060  12.615
74400ION    CL-42618  42.854   9.494   0.064
74401ION    CL-42619  44.023  17.641  13.268
74402ION    CL-42620   0.920   4.723  13.928
74403ION    CL-42621  17.358  17.765   4.170
74404ION    CL-42622   8.872  21.024  14.042
74405ION    CL-42623  20.471  26.585   0.413
74406ION    CL-42624  11.142  30.963  12.993
74407ION    CL-42625  28.121   9.454  10.032
74408ION    CL-42626  24.627  40.762  11.383
74409ION    CL-42627   8.259  12.202   3.183
74410ION    CL-42628  27.910  10.255  14.250
74411ION    CL-42629  11.864   4.597  14.251
74412ION    CL-42630  38.776  35.422   1.837
74413ION    CL-42631  10.159  31.960   4.535
74414ION    CL-42632  43.074  12.256   4.576
74415ION    CL-42633  15.703   0.840   3.851
74416ION    CL-42634  35.979  27.181  13.026
74417ION    CL-42635  38.035  35.758   4.863
74418ION    CL-42636  31.634  31.950  11.244
74419ION    CL-42637  33.077   8.286   0.234
74420ION    CL-42638  42.673   6.014  14.069
74421ION    CL-42639  18.391   2.120   1.029
74422ION    CL-42640  39.481  22.535   1.525
74423ION    CL-42641  12.126  41.538   4.291
74424ION    CL-42642   7.857  23.219  12.560
74425ION    CL-42643  34.192   3.304  12.141
74426ION    CL-42644  35.818  38.796  11.307
74427ION    CL-42645  24.658  14.876  13.309
74428ION    CL-42646  23.850  39.340  11.020
74429ION    CL-42647  31.349   8.859  13.253
74430ION    CL-42648  34.121   9.133  12.985
74431ION    CL-42649  22.435  36.482   0.380
74432ION    CL-42650  40.910   5.217   4.346
74433ION    CL-42651  25.826  35.136  11.283
74434ION    CL-42652   0.630  30.640  11.683
74435ION    CL-42653  34.563   9.311  14.423
74436ION    CL-42654  21.899  26.203  11.039
74437ION    CL-42655  35.271  31.335   1.300
74438ION    CL-42656  26.466  36.578   4.079
74439ION    CL-42657  26.238  41.332  12.873
74440ION    CL-42658  34.198  10.499  13.197
74441ION    CL-42659  36.214   0.377   4.988
74442ION    CL-42660  44.918   5.103   0.750
74443ION    CL-42661  30.885  29.112  13.315
74444ION    CL-42662  34.329  14.968  11.113
74445ION    CL-42663  14.073  35.589  14.544
74446ION    CL-42664  30.915  21.700   0.504
74447ION    CL-42665  13.867   6.907  10.358
74448ION    CL-42666  25.059  10.873   4.144
74449ION    CL-42667   6.963   2.454   0.813
74450ION    CL-42668   6.417  44.948  10.675
74451ION    CL-42669   3.173  28.697   0.871
74452ION    CL-42670  14.403  22.281  13.553
74453ION    CL-42671  24.133  29.781   2.508
74454ION    CL-42672  18.072  28.108  13.046
74455ION    CL-42673  19.051  40.370  11.214
74456ION    CL-42674  24.606   9.122   0.003
74457ION    CL-42675  11.867   1.416   0.247
74458ION    CL-42676  19.718   1.903   0.870
74459ION    CL-42677  20.115  16.787   2.833
74460ION    CL-42678  35.724  23.140   1.785
74461ION    CL-42679  11.175  36.776   4.346
74462ION    CL-42680   5.199   0.874  12.877
74463ION    CL-42681  32.092  43.668   2.122
74464ION    CL-42682  11.527   3.170  14.007
74465ION    CL-42683  32.674  34.999   0.697
74466ION    CL-42684   7.166   2.738  13.764
74467ION    CL-42685  33.814   5.446  12.511
74468ION    CL-42686  31.276  38.261  11.033
74469ION    CL-42687   7.578   1.578  13.051
74470ION    CL-42688  17.292  25.632   1.971
74471ION    CL-42689  32.144  44.785   3.465
74472ION    CL-42690  13.630  11.155   1.659
74473ION    CL-42691  32.547  44.378   2.488
74474ION    CL-42692  40.641  18.409   4.945
74475ION    CL-42693  18.380  33.644   3.725
74476ION    CL-42694  20.961  26.501   3.257
74477ION    CL-42695  17.099  29.908   2.940
74478ION    CL-42696  19.477  40.534   3.258
74479ION    CL-42697   5.107   2.667  14.503
74480ION    CL-42698   2.049  17.118  12.495
74481ION    CL-42699  28.271  35.267   2.245
74482ION    CL-42700  43.363  25.180  14.477
74483ION    CL-42701  37.830   6.886   3.669
74484ION    CL-42702  35.061   4.688   3.371
74485ION    CL-42703  37.721  15.225   4.842
74486ION    CL-42704  34.371  10.512  11.541
74487ION    CL-42705   7.763   5.081   2.018
74488ION    CL-42706  43.691  24.161  12.263
74489ION    CL-42707   4.328  29.911   2.730
74490ION    CL-42708  27.122  10.840   4.637
74491ION    CL-42709  24.465  39.587  14.831
74492ION    CL-42710  26.132  43.966   1.382
74493ION    CL-42711  17.680  38.337   4.166
74494ION    CL-42712   9.394   5.084  10.797
74495ION    CL-42713  11.077  30.507  14.644
74496ION    CL-42714  42.240  10.466   2.868
74497ION    CL-42715  32.712  11.802  10.041
74498ION    CL-42716  15.625  20.882   1.467
74499ION    CL-42717  19.700   8.428  12.069
74500ION    CL-42718   1.718  41.486  11.305
74501ION    CL-42719  22.696  35.467  13.082
74502ION    CL-42720   3.054  32.806   5.026
74503ION    CL-42721  26.418  18.161  12.516
74504ION    CL-42722   3.950   1.926  11.910
74505ION    CL-42723  13.248   5.366   0.174
74506ION    CL-42724  19.135  15.203   3.824
74507ION    CL-42725   2.494  34.633  13.088
74508ION    CL-42726   7.779   0.034   1.758
74509ION    CL-42727  34.170  30.021   0.284
74510ION    CL-42728  30.742  20.537   2.368
74511ION    CL-42729  19.805  42.062   4.160
74512ION    CL-42730  30.313  31.836  12.234
74513ION    CL-42731  31.809   5.976  11.168
74514ION    CL-42732  14.000  18.497   3.708
74515ION    CL-42733  17.204   2.786   4.097
74516ION    CL-42734  40.933  12.713  14.069
74517ION    CL-42735  17.314  22.653   2.656
74518ION    CL-42736  22.132   0.928  13.045
74519ION    CL-42737  42.576  38.925  14.189
74520ION    CL-42738  18.157  26.235  11.510
74521ION    CL-42739  16.078  32.538   3.676
74522ION    CL-42740  24.215   8.925   4.156
74523ION    CL-42741  11.391  21.181   4.354
74524ION    CL-42742  43.453   9.562  14.266
74525ION    CL-42743  42.797  10.354  12.381
74526ION    CL-42744  29.077  34.570   2.339
74527ION    CL-42745   4.299   9.493   1.128
74528ION    CL-42746   5.127  30.872  13.770
74529ION    CL-42747  29.402  20.478   2.560
74530ION    CL-42748  21.638  19.080   5.066
74531ION    CL-42749  44.916  37.348  11.637
74532ION    CL-42750  14.613  27.913  12.051
74533ION    CL-42751  44.194  12.849   0.222
74534ION    CL-42752  33.075  13.546   2.309
74535ION    CL-42753   6.289   8.071   2.598
74536ION    CL-42754  31.977  12.758  12.965
74537ION    CL-42755  26.192  43.190   2.061
74538ION    CL-42756  33.766  15.852  12.670
74539ION    CL-42757  13.840  22.278  14.963
74540ION    CL-42758   2.628  42.850   0.898
74541ION    CL-42759   1.688  42.447   3.230
74542ION    CL-42760  13.262  39.844  10.776
74543ION    CL-42761   8.515  34.307  13.613
74544ION    CL-42762  14.496  14.105  11.528
74545ION    CL-42763   2.272   3.523  10.715
74546ION    CL-42764  23.431  25.138   9.440
74547ION    CL-42765  32.018   6.676   2.031
74548ION    CL-42766  38.056  18.985   4.853
74549ION    CL-42767  31.542  14.524   4.579
74550ION    CL-42768  25.226  38.860   3.419
74551ION    CL-42769   7.746  42.454  11.562
74552ION    CL-42770  14.344  40.532   1.168
74553ION    CL-42771  19.198  41.243   9.840
74554ION    CL-42772  37.573   4.547   1.500
74555ION    CL-42773  36.573  26.280  12.751
74556ION    CL-42774  25.291  23.299   1.882
74557ION    CL-42775  14.149  12.337   3.262
74558ION    CL-42776  14.656  41.850  13.582
74559ION    CL-42777  31.566   0.311   2.841
74560ION    CL-42778  15.523  32.330   0.521
74561ION    CL-42779  28.598  21.826   3.640
74562ION    CL-42780  23.884   9.783  13.835
74563ION    CL-42781   8.572  34.122   0.832
74564ION    CL-42782  32.684  14.680   4.122
74565ION    CL-42783  25.817   4.816   0.232
74566ION    CL-42784  25.674  25.120   4.808
74567ION    CL-42785  20.676  24.034   3.253
74568ION    CL-42786   7.853  22.275  12.108
74569ION    CL-42787  26.682  12.481   2.805
74570ION    CL-42788  10.398  32.583   0.843
74571ION    CL-42789  12.874  19.835  10.309
74572ION    CL-42790  26.694  22.466   0.517
74573ION    CL-42791  19.111  41.289   0.600
74574ION    CL-42792  34.210  27.715  14.327
74575ION    CL-42793   0.525  43.523  11.126
74576ION    CL-42794  38.161  41.100   1.880
74577ION    CL-42795  39.260  22.332   2.936
74578ION    CL-42796  15.631  15.057   2.817
74579ION    CL-42797  14.279   3.338   4.121
74580ION    CL-42798  33.409   7.418   4.143
74581ION    CL-42799  32.485   7.117   5.496
74582ION    CL-42800  28.452   0.914  13.427
74583ION    CL-42801   1.713  11.719   2.684
74584ION    CL-42802   8.482  16.507  11.247
74585ION    CL-42803   2.066   9.055  13.875
74586ION    CL-42804  29.269   4.820  11.963
74587ION    CL-42805  24.196   3.280   0.734
74588ION    CL-42806  35.541  34.473   1.153
74589ION    CL-42807  12.266  20.366   0.745
74590ION    CL-42808  17.266  27.842  14.835
74591ION    CL-42809  39.024  24.911   1.067
74592ION    CL-42810  19.399  35.175   5.063
74593ION    CL-42811  14.603  29.494  12.940
74594ION    CL-42812   7.926  28.545   0.399
74595ION    CL-42813  16.918  11.399  14.369
74596ION    CL-42814   5.950  40.131   0.414
74597ION    CL-42815  10.521  17.311  14.924
74598ION    CL-42816  11.922  44.282  11.830
74599ION    CL-42817  40.712  13.829  10.893
74600ION    CL-42818  37.911  41.109   2.848
74601ION    CL-42819  25.310   3.736   1.709
74602ION    CL-42820  26.129  16.498   3.664
74603ION    CL-42821  27.687   8.091   0.516
74604ION    CL-42822  24.961   5.760   1.671
74605ION    CL-42823  43.997  23.991  14.778
74606ION    CL-42824  10.418  28.905  12.974
74607ION    CL-42825  35.801  39.765   2.351
74608ION    CL-42826  35.801  20.782   1.764
74609ION    CL-42827  23.769  19.128   1.719
74610ION    CL-42828  44.358  14.018  12.564
74611ION    CL-42829  17.584   1.523  11.120
74612ION    CL-42830   8.634   3.216  14.656
74613ION    CL-42831  10.102  17.379   2.826
74614ION    CL-42832  37.600   9.239  10.236
74615ION    CL-42833  43.917  33.978   0.783
74616ION    CL-42834  40.576  18.201   0.535
74617ION    CL-42835  37.264  15.652   2.100
74618ION    CL-42836  12.457  37.695  11.569
74619ION    CL-42837  21.727  32.652  12.748
74620ION    CL-42838  17.645  32.453   1.777
74621ION    CL-42839  31.042   0.520  13.818
74622ION    CL-42840  39.670   6.363   4.323
74623ION    CL-42841   6.782   5.305   3.823
74624ION    CL-42842  28.641   7.165   0.606
74625ION    CL-42843   7.766   5.696   1.014
74626ION    CL-42844   0.465  43.202  12.760
74627ION    CL-42845  19.553  28.650   2.286
74628ION    CL-42846  15.371  42.226  11.651
74629ION    CL-42847   4.432  20.628   2.530
74630ION    CL-42848  31.889  20.317   1.223
74631ION    CL-42849  21.005  10.877   1.251
74632ION    CL-42850   2.523   6.529   4.490
74633ION    CL-42851  11.179  24.964   0.067
74634ION    CL-42852  42.766   5.443  12.022
74635ION    CL-42853  16.172  20.914  12.921
74636ION    CL-42854  30.540  16.880   9.911
74637ION    CL-42855  22.522  42.719   2.212
74638ION    CL-42856  35.142  17.257  11.143
74639ION    CL-42857  10.828  33.030  14.087
74640ION    CL-42858   0.497  43.568   1.881
74641ION    CL-42859  26.699   2.448   3.463
74642ION    CL-42860   2.141  40.158  13.135
74643ION    CL-42861   2.864   6.706   2.045
74644ION    CL-42862  28.537  31.644  13.747
74645ION    CL-42863  25.694   4.952  11.846
74646ION    CL-42864  12.772  14.953   1.096
74647ION    CL-42865  21.908  21.173   1.466
74648ION    CL-42866  10.813  40.303  11.196
74649ION    CL-42867  34.702   0.519  14.289
74650ION    CL-42868   3.062   5.172   4.192
74651ION    CL-42869  30.111  23.728  12.595
74652ION    CL-42870  26.127  26.211   4.794
74653ION    CL-42871  33.624  13.074   1.347
74654ION    CL-42872   5.615  41.632   3.661
74655ION    CL-42873   6.201  19.537   3.704
74656ION    CL-42874   1.997  28.185  13.477
74657ION    CL-42875  22.688  12.553  12.449
74658ION    CL-42876  14.204   8.354   1.435
74659ION    CL-42877  15.349  17.177  13.888
74660ION    CL-42878   7.889  18.167   3.245
74661ION    CL-42879  35.429   1.072   3.256
74662ION    CL-42880  20.601  33.977  13.227
74663ION    CL-42881  33.093  33.153   3.303
74664ION    CL-42882  37.667  21.658  13.479
74665ION    CL-42883  25.979   2.493   4.020
74666ION    CL-42884  37.930  21.310  11.555
74667ION    CL-42885  16.390  40.632  11.890
74668ION    CL-42886  44.918  31.025   3.530
74669ION    CL-42887  37.866   5.639   0.417
74670ION    CL-42888  19.971   3.999  12.426
74671ION    CL-42889  37.758  36.880   1.374
74672ION    CL-42890   7.178  30.917   1.472
74673ION    CL-42891  36.998  15.486  14.040
74674ION    CL-42892   6.393  38.994   0.425
74675ION    CL-42893   4.303  22.929  12.954
74676ION    CL-42894  28.518  30.206  12.178
74677ION    CL-42895  14.041   9.681   0.676
74678ION    CL-42896  18.609  26.729   4.158
74679ION    CL-42897  17.323  18.668   3.582
74680ION    CL-42898  38.793  42.923   1.843
74681ION    CL-42899  32.057  36.041   4.564
74682ION    CL-42900  43.693  11.183   2.847
74683ION    CL-42901  28.933   3.364   4.336
74684ION    CL-42902  17.948  37.933  13.077
74685ION    CL-42903  20.937  40.461   0.737
74686ION    CL-42904  20.545  11.686   4.896
74687ION    CL-42905  26.396   4.125   0.214
74688ION    CL-42906  21.912  44.336   9.818
74689ION    CL-42907  28.456   2.893  12.020
74690ION    CL-42908  12.213  12.387  10.870
74691ION    CL-42909  13.863  26.261   0.395
74692ION    CL-42910   1.168  44.820   1.701
74693ION    CL-42911  34.691  43.488   2.804
74694ION    CL-42912  39.356  27.660   4.341
74695ION    CL-42913  37.459  22.753  11.766
74696ION    CL-42914  42.846  29.479   2.947
74697ION    CL-42915  23.139  20.538   3.348
74698ION    CL-42916  38.613  17.381   0.688
74699ION    CL-42917  25.502  39.592   4.096
74700ION    CL-42918  30.444  28.006   5.096
74701ION    CL-42919  41.013   7.481  14.442
74702ION    CL-42920  11.323  34.825   0.373
74703ION    CL-42921  31.495  12.289  10.954
74704ION    CL-42922   4.023  24.443  13.524
74705ION    CL-42923   2.555  10.495  12.597
74706ION    CL-42924  29.586  15.440   1.613
74707ION    CL-42925   5.670  37.387   1.826
74708ION    CL-42926  42.961  11.269   4.691
74709ION    CL-42927  32.734  23.722  11.389
74710ION    CL-42928  11.377  31.849  12.893
74711ION    CL-42929  31.911   7.001   0.643
74712ION    CL-42930  28.667  36.106  12.983
74713ION    CL-42931  17.946  25.488   4.982
74714ION    CL-42932  25.838  20.216  11.556
74715ION    CL-42933  44.933  36.632   2.605
74716ION    CL-42934  41.281  43.685   1.320
74717ION    CL-42935  36.143   2.541   3.512
74718ION    CL-42936  28.459  19.451   3.226
74719ION    CL-42937  38.320  36.194   1.569
74720ION    CL-42938  43.979  18.533   1.382
74721ION    CL-42939  17.559  12.314   4.059
74722ION    CL-42940  12.141  19.469   0.290
74723ION    CL-42941  32.611  21.356  10.645
74724ION    CL-42942  28.082  25.521   0.833
74725ION    CL-42943  18.990   4.665   2.346
74726ION    CL-42944  30.438  19.467   0.218
74727ION    CL-42945  32.745  16.733  12.018
74728ION    CL-42946  39.179   1.555   3.238
74729ION    CL-42947  33.465  22.051  11.533
74730ION    CL-42948  21.780  39.823   4.154
74731ION    CL-42949  16.232  28.537   3.660
74732ION    CL-42950  40.317  12.605  11.617
74733ION    CL-42951   9.805  16.912  13.182
74734ION    CL-42952  31.037  34.782   9.959
74735ION    CL-42953  32.617  18.160   1.191
74736ION    CL-42954  41.202  30.246   2.483
74737ION    CL-42955  22.208  31.131   1.506
74738ION    CL-42956   1.079  43.056   1.043
74739ION    CL-42957   2.625  32.981   4.001
74740ION    CL-42958  26.633  12.730  10.699
74741ION    CL-42959  17.862  31.610  13.877
74742ION    CL-42960  32.762  31.517  10.359
74743ION    CL-42961  40.166  11.624  14.700
74744ION    CL-42962   8.165  44.797  12.631
74745ION    CL-42963  21.271  12.639   0.858
74746ION    CL-42964  40.259   5.680  12.452
74747ION    CL-42965  18.383  34.372   2.103
74748ION    CL-42966  40.468  26.221   2.314
74749ION    CL-42967  25.565  32.258  14.454
74750ION    CL-42968  13.866  19.793   3.081
74751ION    CL-42969   7.171   6.408   0.641
74752ION    CL-42970  12.397  33.433   0.918
74753ION    CL-42971  33.265   3.244  11.677
74754ION    CL-42972  36.611  44.261  13.961
74755ION    CL-42973   5.111   2.025  13.736
74756ION    CL-42974   1.459  21.039  14.206
74757ION    CL-42975  38.936   5.140  11.338
74758ION    CL-42976  23.029  28.430  13.037
74759ION    CL-42977  16.861  22.757   9.839
74760ION    CL-42978  34.087  42.192   1.565
74761ION    CL-42979  23.999  14.888  14.062
74762ION    CL-42980  23.434  39.054   3.428
74763ION    CL-42981  12.880   4.709  10.349
74764ION    CL-42982  18.631  22.033   0.336
74765ION    CL-42983  39.243  10.765   3.205
74766ION    CL-42984   6.988  35.928   0.539
74767ION    CL-42985  10.454  15.383   4.329
74768ION    CL-42986  18.783  30.462   1.944
74769ION    CL-42987   3.934   7.745  10.970
74770ION    CL-42988   4.312  29.504   0.686
74771ION    CL-42989  36.291  37.382   2.526
74772ION    CL-42990  37.388   4.202  12.758
74773ION    CL-42991  16.762   9.363  14.478
74774ION    CL-42992  11.523   0.062  11.750
74775ION    CL-42993   2.175  12.970  11.157
74776ION    CL-42994   1.585  20.114   1.704
74777ION    CL-42995  29.101  23.984  13.462
74778ION    CL-42996   4.196  20.017  11.222
74779ION    CL-42997  44.107  25.699  13.923
74780ION    CL-42998   6.124  35.656   2.936
74781ION    CL-42999  44.652  40.730   1.337
74782ION    CL-43000  34.562  39.333  14.608
74783ION    CL-43001   8.824  29.062  14.994
74784ION    CL-43002  24.710  22.641   2.115
74785ION    CL-43003  22.391   8.415   0.815
74786ION    CL-43004   7.408   1.786  11.607
74787ION    CL-43005   2.607   1.313   5.006
74788ION    CL-43006  38.752   9.993  13.440
74789ION    CL-43007  36.863  10.706   1.995
74790ION    CL-43008  11.744  15.978  13.995
74791ION    CL-43009  26.330  31.677  10.890
74792ION    CL-43010  32.544  38.176  14.993
74793ION    CL-43011  12.406   5.457  11.920
74794ION    CL-43012  41.722  40.595   3.955
74795ION    CL-43013  26.332  18.123   0.847
74796ION    CL-43014  26.127  31.149   3.316
74797ION    CL-43015  31.847  16.653   4.236
74798ION    CL-43016  27.057  10.181   4.850
74799ION    CL-43017   4.027  23.156   3.107
74800ION    CL-43018  22.600   9.546  14.648
74801ION    CL-43019   2.239  27.885  12.003
74802ION    CL-43020   8.644  17.978   1.076
74803ION    CL-43021   2.603  40.607   1.411
74804ION    CL-43022  33.401  42.777  10.646
74805ION    CL-43023   5.685  19.629  11.620
74806ION    CL-43024   6.017  29.362   2.547
74807ION    CL-43025  27.278  27.001  10.768
74808ION    CL-43026  40.951   9.708  13.137
74809ION    CL-43027   0.111   1.826  14.173
74810ION    CL-43028  37.406  36.464  13.356
74811ION    CL-43029  37.746   1.472   1.934
74812ION    CL-43030  40.041  42.061  13.976
74813ION    CL-43031  35.935  38.645  13.584
74814ION    CL-43032  16.356  12.572  11.418
74815ION    CL-43033  20.097  17.158   1.881
74816ION    CL-43034  18.005  31.058   0.436
74817ION    CL-43035   8.892  20.040  12.370
74818ION    CL-43036  35.891   9.922  10.727
74819ION    CL-43037  20.786   5.548   4.770
74820ION    CL-43038  18.163   0.165  12.760
74821ION    CL-43039  19.601  23.495  13.489
74822ION    CL-43040  20.696  33.358  12.448
74823ION    CL-43041  16.199   3.940   2.748
74824ION    CL-43042  10.893  18.238  14.869
74825ION    CL-43043  44.754  21.298   2.068
74826ION    CL-43044  24.838   8.849  12.655
74827ION    CL-43045  34.602  42.437  14.318
74828ION    CL-43046  21.439  28.023  12.046
74829ION    CL-43047  31.626   1.731  13.645
74830ION    CL-43048  30.246  27.516  14.946
74831ION    CL-43049  33.676   3.701  10.888
74832ION    CL-43050   3.685  40.422   0.071
74833ION    CL-43051  23.553  44.229  12.612
74834ION    CL-43052  12.147   9.328   4.003
74835ION    CL-43053  35.800  18.029  12.434
74836ION    CL-43054  27.030  18.518  11.201
74837ION    CL-43055  35.156  10.201  12.123
74838ION    CL-43056  14.800   9.632   2.804
74839ION    CL-43057   5.851  37.571   0.431
74840ION    CL-43058  42.751  34.565  14.600
74841ION    CL-43059  26.200  18.711   2.410
74842ION    CL-43060  22.636   8.750  11.608
74843ION    CL-43061  11.445  11.658  12.432
74844ION    CL-43062  12.944  24.690   4.568
74845ION    CL-43063  28.300  20.987   0.011
74846ION    CL-43064  28.694  19.470  13.571
74847ION    CL-43065   6.918  14.783   2.652
74848ION    CL-43066  22.734  21.444   3.221
74849ION    CL-43067  22.050  24.814   2.301
74850ION    CL-43068   9.986   3.064   0.613
74851ION    CL-43069  27.307  42.491   0.513
74852ION    CL-43070  26.391  23.664   1.358
74853ION    CL-43071  35.792  37.395  11.218
74854ION    CL-43072  42.223   4.179  13.786
74855ION    CL-43073  16.981  28.096   2.742
74856ION    CL-43074  32.598  13.634   0.954
74857ION    CL-43075  35.068  19.743   0.812
74858ION    CL-43076  29.387  26.312   3.274
74859ION    CL-43077  43.292  43.213  13.424
74860ION    CL-43078  41.732  28.961   3.228
74861ION    CL-43079  15.377  28.212  11.479
74862ION    CL-43080  29.695   6.865   1.810
74863ION    CL-43081  26.243  12.138   1.426
74864ION    CL-43082  37.603  20.621   3.290
74865ION    CL-43083  14.444  26.708  10.996
74866ION    CL-43084  26.007  38.402   1.716
74867ION    CL-43085  16.783  15.461   3.692
74868ION    CL-43086  40.510  17.228  13.757
74869ION    CL-43087  20.910  14.697   3.769
74870ION    CL-43088   4.241  31.037  12.674
74871ION    CL-43089  14.458  31.059   4.405
74872ION    CL-43090  37.926  27.639  10.698
74873ION    CL-43091  35.799  23.639  13.855
74874ION    CL-43092  36.182  36.499  10.850
74875ION    CL-43093   4.127  29.056  12.383
74876ION    CL-43094   4.141  26.757  13.207
74877ION    CL-43095  29.373  37.366  12.442
74878ION    CL-43096  18.698  11.185   1.449
74879ION    CL-43097  18.212  19.098   2.793
74880ION    CL-43098  26.791  36.637   0.339
74881ION    CL-43099  17.142  42.655   0.395
74882ION    CL-43100  39.868  44.939   0.801
74883ION    CL-43101  24.393  37.753  12.133
74884ION    CL-43102  27.327  12.887   1.672
74885ION    CL-43103  16.497  26.567  14.520
74886ION    CL-43104  44.309  24.784   3.198
74887ION    CL-43105  42.323  22.663   2.731
74888ION    CL-43106  33.968  35.385   2.472
74889ION    CL-43107  23.901  33.684   2.312
74890ION    CL-43108   2.060  19.025   3.208
74891ION    CL-43109  32.954  44.610  14.922
74892ION    CL-43110  19.393   1.533  10.674
74893ION    CL-43111   1.554   7.798  10.761
74894ION    CL-43112  42.692   6.273   0.089
74895ION    CL-43113  24.412  43.119  10.072
74896ION    CL-43114  37.808  15.606  13.032
74897ION    CL-43115  37.254   5.438   2.043
74898ION    CL-43116  11.686   7.433  12.134
74899ION    CL-43117  18.702  23.699   1.338
74900ION    CL-43118  36.666  44.706  13.067
74901ION    CL-43119  13.216  34.633   4.776
74902ION    CL-43120  43.919  20.568   2.797
74903ION    CL-43121  29.970  39.475  11.829
74904ION    CL-43122   0.950  33.800  14.615
74905ION    CL-43123   9.495  31.917  14.205
74906ION    CL-43124  17.939  18.510  14.484
74907ION    CL-43125   9.648   3.674  14.896
74908ION    CL-43126  44.985   6.531   1.962
74909ION    CL-43127  13.944  41.415  10.676
74910ION    CL-43128  19.162  13.082   2.899
74911ION    CL-43129   3.381  26.152   2.573
74912ION    CL-43130  29.360   0.032   0.715
74913ION    CL-43131  21.270  35.042   1.814
74914ION    CL-43132  39.345   4.430   4.609
74915ION    CL-43133  26.454  24.472  14.290
74916ION    CL-43134  15.500  13.649  14.877
74917ION    CL-43135  39.065  33.795  13.306
74918ION    CL-43136  11.711   2.238   0.794
74919ION    CL-43137   9.615  28.809   0.251
74920ION    CL-43138  18.862  19.826   3.217
74921ION    CL-43139  40.938  37.805  11.512
74922ION    CL-43140  36.654   6.452   2.899
74923ION    CL-43141   9.821  28.066   2.659
74924ION    CL-43142  26.812   2.640   4.045
74925ION    CL-43143  10.725  43.119   0.823
74926ION    CL-43144  35.208   7.447   1.993
74927ION    CL-43145   0.305  26.048   4.703
74928ION    CL-43146  18.270  44.508  12.230
74929ION    CL-43147   5.350   8.006   4.105
74930ION    CL-43148  43.795  17.572   4.542
74931ION    CL-43149   2.268  10.510   3.749
74932ION    CL-43150   6.852   0.192  13.780
74933ION    CL-43151  34.989  27.416  12.824
74934ION    CL-43152  31.933   1.629   3.602
74935ION    CL-43153  33.321   3.204   9.732
74936ION    CL-43154  10.294   8.208  10.484
74937ION    CL-43155  35.285  40.807  12.406
74938ION    CL-43156  30.043  37.135   0.434
74939ION    CL-43157  13.893  15.887  10.231
74940ION    CL-43158  34.242   4.722  11.916
74941ION    CL-43159  24.563  11.681   2.880
74942ION    CL-43160   9.878  34.885   1.971
74943ION    CL-43161  24.935   6.489   2.189
74944ION    CL-43162  10.541  43.651   5.014
74945ION    CL-43163  15.501   4.593   3.053
74946ION    CL-43164  26.300   5.690  12.144
74947ION    CL-43165  43.041  43.891   3.326
74948ION    CL-43166  27.927   0.215  11.182
74949ION    CL-43167  36.027  42.471  12.489
74950ION    CL-43168  14.240  20.488   1.890
74951ION    CL-43169  28.921  22.665  14.068
74952ION    CL-43170  20.123  26.681   4.359
74953ION    CL-43171   9.794  37.765   4.453
74954ION    CL-43172  13.309   1.283  11.358
74955ION    CL-43173  17.006  32.166  13.853
74956ION    CL-43174  17.452   5.307  14.146
74957ION    CL-43175   0.774   2.015   2.295
74958ION    CL-43176  32.702   6.734   4.321
74959ION    CL-43177  14.595   5.692   0.254
74960ION    CL-43178  21.097  35.838   3.759
74961ION    CL-43179   0.901   0.764   0.534
74962ION    CL-43180  37.956  43.763  12.074
74963ION    CL-43181  34.505  38.323   0.695
74964ION    CL-43182  29.361   2.314   1.327
74965ION    CL-43183  20.988  12.962  13.823
74966ION    CL-43184  26.875  16.309  10.400
74967ION    CL-43185  32.418   0.746  11.155
74968ION    CL-43186  41.609  42.310  11.256
74969ION    CL-43187  13.427  25.285   2.430
74970ION    CL-43188  39.864   5.818  13.370
74971ION    CL-43189  44.507  42.605  10.422
74972ION    CL-43190  42.058   7.372   2.598
74973ION    CL-43191  27.453  42.328   3.137
74974ION    CL-43192   7.344  26.028  11.577
74975ION    CL-43193  44.088  42.068  12.583
74976ION    CL-43194  10.589  25.198   5.177
74977ION    CL-43195   2.912  44.326   0.840
74978ION    CL-43196  15.768  13.338  11.159
74979ION    CL-43197  31.021  22.534   2.684
74980ION    CL-43198   7.697  37.173  14.559
74981ION    CL-43199  19.337  14.766  14.561
74982ION    CL-43200  11.406  16.074   3.664
74983ION    CL-43201   5.872  25.531   0.594
74984ION    CL-43202  41.967  39.069  10.050
74985ION    CL-43203  39.963  34.786   0.582
74986ION    CL-43204  41.031   4.661  14.840
74987ION    CL-43205   9.625  30.252   4.366
74988ION    CL-43206  42.388  21.269   0.821
74989ION    CL-43207  43.063   6.444   1.800
74990ION    CL-43208  14.309  25.237  11.604
74991ION    CL-43209  41.249   1.036   1.008
74992ION    CL-43210  30.211   1.857   1.588
74993ION    CL-43211  41.118  28.925   2.084
74994ION    CL-43212  22.975   0.727  11.845
74995ION    CL-43213  44.850  29.233  13.782
74996ION    CL-43214  37.236  35.480  13.407
74997ION    CL-43215  30.145  26.065   4.793
74998ION    CL-43216  22.713  21.173   0.687
74999ION    CL-43217  36.014  18.377  11.461
75000ION    CL-43218  15.523   5.779  10.726
75001ION    CL-43219  41.000  36.350  14.418
75002ION    CL-43220   3.631  10.462   0.381
75003ION    CL-43221  26.548  11.886   4.135
75004ION    CL-43222   5.350   6.471  11.096
75005ION    CL-43223  24.111  33.130   0.567
75006ION    CL-43224   2.531  10.894   0.742
75007ION    CL-43225  21.042  37.037  13.081
75008ION    CL-43226   7.750  24.434  12.044
75009ION    CL-43227  17.538  44.335  13.724
75010ION    CL-43228  38.161  31.043   2.798
75011ION    CL-43229  32.432  43.873   0.352
75012ION    CL-43230  34.994  11.819   4.090
75013ION    CL-43231  17.166  17.016   0.440
75014ION    CL-43232  41.737  37.886  10.293
75015ION    CL-43233  28.391   4.365  11.813
75016ION    CL-43234  41.620  11.282   0.832
75017ION    CL-43235  37.606  33.612   0.398
75018ION    CL-43236  12.386   3.979  13.334
75019ION    CL-43237  27.524   0.244   4.957
75020ION    CL-43238   9.179  11.024  14.531
75021ION    CL-43239  21.849  44.144   4.415
75022ION    CL-43240  23.445  40.903  14.440
75023ION    CL-43241  29.919   7.608  11.554
75024ION    CL-43242  39.263  41.047  12.216
75025ION    CL-43243   1.723  18.538   2.371
75026ION    CL-43244   1.147  34.735  10.876
75027ION    CL-43245  41.766  17.955  10.873
75028ION    CL-43246   5.320   4.687  10.614
75029ION    CL-43247   3.109   7.408  11.132
75030ION    CL-43248  24.577   7.933   4.193
75031ION    CL-43249  23.125   7.185   1.251
75032ION    CL-43250   9.285   5.727  11.452
75033ION    CL-43251  23.710  30.787   0.215
75034ION    CL-43252  13.036  15.612  12.918
75035ION    CL-43253   4.158  36.087  13.901
75036ION    CL-43254  16.154   4.182  13.388
75037ION    CL-43255   0.376  10.656   1.963
75038ION    CL-43256  27.223  28.090  14.468
75039ION    CL-43257  33.354  25.766  13.014
75040ION    CL-43258  25.474  43.777   3.415
75041ION    CL-43259  16.834   4.166   4.877
75042ION    CL-43260  23.063  10.140  13.324
75043ION    CL-43261  41.835  30.663   1.300
75044ION    CL-43262  40.263  25.401   1.780
75045ION    CL-43263  14.771  38.850  11.765
75046ION    CL-43264   5.697  44.397  13.789
75047ION    CL-43265  28.158   7.307  14.423
75048ION    CL-43266  24.530  11.693   1.114
75049ION    CL-43267  42.332  43.898   2.498
75050ION    CL-43268   6.657  36.080   4.373
75051ION    CL-43269   2.828  12.654  13.741
75052ION    CL-43270  14.177  37.969  14.332
75053ION    CL-43271  16.588   2.386   2.367
75054ION    CL-43272  32.290  15.458   1.584
75055ION    CL-43273  32.855   6.674  11.583
75056ION    CL-43274   4.772  25.168  13.407
75057ION    CL-43275  28.425  38.523  11.228
75058ION    CL-43276   6.932  44.953   2.927
75059ION    CL-43277   4.809  40.108  10.881
75060ION    CL-43278   9.884  26.610  14.022
75061ION    CL-43279  34.450  30.364   2.004
75062ION    CL-43280  27.464  29.765   3.557
75063ION    CL-43281  34.756  16.335   1.125
75064ION    CL-43282   8.957  33.570  12.754
75065ION    CL-43283  11.631   2.702  13.310
75066ION    CL-43284   5.652  25.190  12.933
75067ION    CL-43285  33.039  37.206  11.565
75068ION    CL-43286  13.409  11.364   0.706
75069ION    CL-43287  22.473  36.441  13.044
75070ION    CL-43288  37.154   9.228   0.337
75071ION    CL-43289  34.208  32.637  14.026
75072ION    CL-43290  29.814  15.917  11.884
75073ION    CL-43291   5.047  41.245   0.040
75074ION    CL-43292  22.461   7.475   3.664
75075ION    CL-43293  23.418   8.946   2.149
75076ION    CL-43294  39.542  39.321   0.540
75077ION    CL-43295  18.180   5.389   3.725
75078ION    CL-43296   3.276  26.708   3.790
75079ION    CL-43297   9.947   0.641   2.397
75080ION    CL-43298   5.097  22.681   0.818
75081ION    CL-43299  44.939  28.400   0.880
75082ION    CL-43300  44.312   8.887   5.166
75083ION    CL-43301   7.388  14.767   1.741
75084ION    CL-43302  30.083  29.483  11.335
75085ION    CL-43303  27.432   6.817   0.203
75086ION    CL-43304  10.975  39.467  13.843
75087ION    CL-43305  39.621  20.050   2.187
75088ION    CL-43306   4.247  15.705   0.617
75089ION    CL-43307   0.576   6.508   1.155
75090ION    CL-43308  10.762  26.690   1.654
75091ION    CL-43309  24.943   1.960   1.764
75092ION    CL-43310  27.078  39.978   3.110
75093ION    CL-43311  20.347  20.713  13.421
75094ION    CL-43312  19.798  10.383  13.748
75095ION    CL-43313  24.152  41.840   2.194
75096ION    CL-43314  11.543  22.922  13.028
75097ION    CL-43315  15.305  16.988   1.168
75098ION    CL-43316  38.267  37.951   2.420
75099ION    CL-43317   8.740   0.513   1.281
75100ION    CL-43318  33.818  23.225  10.942
75101ION    CL-43319   5.907  25.618  10.732
75102ION    CL-43320  35.774   1.653  10.319
75103ION    CL-43321  16.922  41.383  10.243
75104ION    CL-43322  21.530  33.562   4.027
75105ION    CL-43323  24.636  43.476  12.050
75106ION    CL-43324  19.240  42.501   4.752
75107ION    CL-43325  27.250   4.601  14.492
75108ION    CL-43326  43.239  25.274  12.798
75109ION    CL-43327  42.489  18.993  13.569
75110ION    CL-43328  31.918  38.141   2.878
75111ION    CL-43329  37.912   9.763   2.244
75112ION    CL-43330  18.585  14.381   3.973
75113ION    CL-43331  20.826  29.986   1.296
75114ION    CL-43332   9.427  13.076   1.346
75115ION    CL-43333   1.248  10.702   1.929
75116ION    CL-43334  27.942  42.314   4.653
75117ION    CL-43335  32.920  40.462  14.970
75118ION    CL-43336  15.195   7.764   3.656
75119ION    CL-43337   3.633   0.770   2.404
75120ION    CL-43338  17.286  11.502  11.109
75121ION    CL-43339  13.984  37.223   0.301
75122ION    CL-43340  22.591  25.933  11.707
75123ION    CL-43341  36.245   9.225   2.698
75124ION    CL-43342  20.096   2.724   1.298
75125ION    CL-43343  44.851  13.254  13.431
75126ION    CL-43344  20.950  13.228   4.959
75127ION    CL-43345   1.361  26.379  13.760
75128ION    CL-43346  36.336  36.135  12.672
75129ION    CL-43347  40.563  25.050   3.326
75130ION    CL-43348  12.914  24.733   1.015
75131ION    CL-43349  37.268  40.607   1.876
75132ION    CL-43350  17.178  38.034  11.770
75133ION    CL-43351  16.281   1.933  11.260
75134ION    CL-43352  24.687   2.954   3.587
75135ION    CL-43353   9.623  21.776  14.826
75136ION    CL-43354  44.312  12.033  11.368
75137ION    CL-43355  15.019  37.392  11.859
75138ION    CL-43356  31.068  17.237   4.847
75139ION    CL-43357  27.353  38.420   2.492
75140ION    CL-43358  20.280  36.954   5.023
75141ION    CL-43359  15.823  19.881   1.505
75142ION    CL-43360   2.299  15.292  13.418
75143ION    CL-43361   3.721  30.077   1.026
75144ION    CL-43362  25.323  33.053  13.898
75145ION    CL-43363  15.497  26.374   9.920
75146ION    CL-43364  33.563  29.938  14.493
75147ION    CL-43365  18.740   8.727  12.260
75148ION    CL-43366  27.435  41.153  12.360
75149ION    CL-43367  33.834   6.328   0.347
75150ION    CL-43368   5.425  24.462   5.061
75151ION    CL-43369  13.107   6.118   3.833
75152ION    CL-43370  25.619   3.652   4.263
75153ION    CL-43371  40.441  13.327  13.315
75154ION    CL-43372  20.020  32.490  10.556
75155ION    CL-43373  13.913  15.833  12.955
75156ION    CL-43374  28.568   8.072  12.443
75157ION    CL-43375  39.670  12.324  14.187
75158ION    CL-43376  34.000   4.657   2.188
75159ION    CL-43377  37.038  30.968  12.041
75160ION    CL-43378   6.887  19.822  14.712
75161ION    CL-43379   7.778  41.200   4.467
75162ION    CL-43380  31.780  25.725  11.993
75163ION    CL-43381  29.736   8.377   3.997
75164ION    CL-43382  42.602  17.186  12.572
75165ION    CL-43383  19.082  26.803   0.445
75166ION    CL-43384   8.049  30.682   1.293
75167ION    CL-43385  36.641   4.980  11.916
75168ION    CL-43386  22.018  22.958   2.792
75169ION    CL-43387   2.536  40.370   5.111
75170ION    CL-43388  41.064  38.063   4.070
75171ION    CL-43389  44.639  31.444   0.604
75172ION    CL-43390  14.502  23.185  13.427
75173ION    CL-43391  27.712  22.018  10.510
75174ION    CL-43392  22.107   2.705   4.439
75175ION    CL-43393  31.209  17.315  10.199
75176ION    CL-43394   4.585  19.986   0.182
75177ION    CL-43395  43.833   2.743  12.338
75178ION    CL-43396  25.699  23.216   3.722
75179ION    CL-43397  23.960   5.528  12.566
75180ION    CL-43398  42.824  22.949   0.469
75181ION    CL-43399  27.156  29.978  11.784
75182ION    CL-43400  43.973   5.938   0.537
75183ION    CL-43401  21.119  20.232   2.456
75184ION    CL-43402   3.346   0.337   0.835
75185ION    CL-43403  20.327  37.325  11.511
75186ION    CL-43404  37.879  39.720   3.274
75187ION    CL-43405   7.250  27.002  14.093
75188ION    CL-43406  21.010  16.348   2.761
75189ION    CL-43407  24.448  25.078   3.178
75190ION    CL-43408  23.492  39.162   2.412
75191ION    CL-43409  13.832  31.990  10.069
75192ION    CL-43410  20.056  13.055  14.488
75193ION    CL-43411  43.941   3.859   2.545
75194ION    CL-43412   6.386  26.413   0.558
75195ION    CL-43413  27.105  43.091  12.330
75196ION    CL-43414   5.110  40.429   2.280
75197ION    CL-43415  25.530  32.685   3.651
75198ION    CL-43416  17.326  16.806   3.488
75199ION    CL-43417   4.957  11.293   2.346
75200ION    CL-43418  14.573   8.968   3.516
75201ION    CL-43419  25.450  33.850  11.212
75202ION    CL-43420   6.317   4.446   5.040
75203ION    CL-43421  40.183  22.275  11.837
75204ION    CL-43422  24.028  28.462  13.059
75205ION    CL-43423   5.300  12.599   1.781
75206ION    CL-43424  27.181  17.076  12.361
75207ION    CL-43425  13.827  12.908  13.031
75208ION    CL-43426   2.994  22.769  10.802
75209ION    CL-43427   4.806  15.395   1.270
75210ION    CL-43428  42.509  36.953  13.261
75211ION    CL-43429  20.225  38.565  11.797
75212ION    CL-43430  39.147  13.893  13.398
75213ION    CL-43431  42.906  20.345  13.108
75214ION    CL-43432  33.646  18.729  13.345
75215ION    CL-43433  33.907  35.446  10.862
75216ION    CL-43434  14.424  43.390   5.089
75217ION    CL-43435   5.369   9.636  13.547
75218ION    CL-43436  26.994  41.843   4.760
75219ION    CL-43437  18.986  44.605  12.859
75220ION    CL-43438  20.753   5.860   0.148
75221ION    CL-43439  31.619  22.526  12.061
75222ION    CL-43440  37.010  14.486  14.011
75223ION    CL-43441   0.072  43.800  11.856
75224ION    CL-43442  13.728  39.024   2.153
75225ION    CL-43443  40.270  29.941  14.003
75226ION    CL-43444  13.179  35.637  13.348
75227ION    CL-43445  40.072  23.704   0.545
75228ION    CL-43446  21.853  32.515   3.908
75229ION    CL-43447  12.912  28.051  14.856
75230ION    CL-43448  10.517  13.080   4.558
75231ION    CL-43449  27.110  11.769  11.070
75232ION    CL-43450  30.071  32.641  10.408
75233ION    CL-43451  15.816  27.415   4.097
75234ION    CL-43452   4.937  20.587  11.255
75235ION    CL-43453  14.683  41.420  10.199
75236ION    CL-43454  35.075   7.307  10.659
75237ION    CL-43455  30.349  34.980  11.935
75238ION    CL-43456   2.268  44.688   3.525
75239ION    CL-43457  12.327  30.376  11.591
75240ION    CL-43458  11.447  41.777   1.780
75241ION    CL-43459  13.152  25.922   1.790
75242ION    CL-43460  29.071  27.829   3.180
75243ION    CL-43461  23.460  10.037   4.437
75244ION    CL-43462   2.887  36.557  11.183
75245ION    CL-43463  10.846  12.921  14.224
75246ION    CL-43464  23.323   0.821   2.780
75247ION    CL-43465  26.715   8.385   3.463
75248ION    CL-43466  17.128  31.524   4.649
75249ION    CL-43467   6.855  36.391  11.700
75250ION    CL-43468  18.581  35.245   2.549
75251ION    CL-43469  25.745  24.523   4.009
75252ION    CL-43470  33.400  10.880  11.499
75253ION    CL-43471  42.560  15.075   4.148
75254ION    CL-43472  28.206  14.269  13.051
75255ION    CL-43473  32.779  41.240  13.747
75256ION    CL-43474  11.630   5.949   0.814
75257ION    CL-43475  22.901  44.218   1.575
75258ION    CL-43476  26.700  34.474   3.140
75259ION    CL-43477  19.693  10.386   1.353
75260ION    CL-43478  21.164  32.803   3.230
75261ION    CL-43479  36.875  41.048   0.151
75262ION    CL-43480  21.156  12.784  14.835
75263ION    CL-43481   4.739  25.702   3.266
75264ION    CL-43482   4.956   2.546  12.043
75265ION    CL-43483  44.510  23.752  10.350
75266ION    CL-43484  41.576  41.053  12.699
75267ION    CL-43485  27.781  28.888   3.158
75268ION    CL-43486  23.575  37.929   0.875
75269ION    CL-43487  25.495  20.002   1.150
75270ION    CL-43488  12.715  13.945  13.497
75271ION    CL-43489  37.831  11.225  10.612
75272ION    CL-43490  40.718  36.490  10.951
75273ION    CL-43491  30.691   5.682   0.327
75274ION    CL-43492  17.353   2.364   1.648
75275ION    CL-43493  32.596  32.517  14.204
75276ION    CL-43494  12.526   4.978  14.744
75277ION    CL-43495  41.390  31.095   2.299
75278ION    CL-43496  38.622  44.973   5.438
75279ION    CL-43497  38.092   5.727  13.612
75280ION    CL-43498  24.960  41.433  12.522
75281ION    CL-43499  13.750  16.268   0.326
75282ION    CL-43500   4.252   7.891   1.996
75283ION    CL-43501  25.989  24.678   1.695
75284ION    CL-43502   1.877  38.296   0.245
75285ION    CL-43503   4.437   4.548   0.784
75286ION    CL-43504   3.467  32.720   3.782
75287ION    CL-43505  18.228   0.863  13.473
75288ION    CL-43506   4.861  34.229   4.993
75289ION    CL-43507  35.543  15.080  13.005
75290ION    CL-43508  13.312  34.622  13.847
75291ION    CL-43509  36.930   9.554  13.887
75292ION    CL-43510  33.859  22.302  12.754
75293ION    CL-43511  40.343   9.626  12.272
75294ION    CL-43512   8.348  34.919  14.203
75295ION    CL-43513  13.506  23.324  11.557
75296ION    CL-43514  35.358   4.386   4.153
75297ION    CL-43515  27.495  25.319  12.362
75298ION    CL-43516  36.769  12.758  11.630
75299ION    CL-43517  38.134  34.051  13.569
75300ION    CL-43518  41.740  29.585   4.269
75301ION    CL-43519  24.512  15.262  11.666
75302ION    CL-43520  39.801  27.378  11.136
75303ION    CL-43521   5.465  17.276  10.462
75304ION    CL-43522  36.575   7.761   0.828
75305ION    CL-43523  28.988   9.160   1.495
75306ION    CL-43524  29.416  34.821  12.257
75307ION    CL-43525  32.518   7.153  13.715
75308ION    CL-43526  22.114  24.981  14.180
75309ION    CL-43527  35.963   9.069  12.490
75310ION    CL-43528  20.134   1.250  12.805
75311ION    CL-43529  20.277  36.383  14.481
75312ION    CL-43530  22.724  27.858  14.871
75313ION    CL-43531  18.112  40.182   2.804
75314ION    CL-43532  18.776  22.735   3.370
75315ION    CL-43533   8.551  22.082  11.278
75316ION    CL-43534   8.910  31.882  12.681
75317ION    CL-43535  31.079  40.495  13.954
75318ION    CL-43536  24.964  13.174   1.874
75319ION    CL-43537  37.348  32.611   4.317
75320ION    CL-43538  33.038  23.201   5.032
75321ION    CL-43539  15.846  16.716  11.086
75322ION    CL-43540  36.942  18.046  14.207
75323ION    CL-43541  24.655  24.355  12.010
75324ION    CL-43542   7.314   7.405   1.672
75325ION    CL-43543   3.531   2.488   1.919
75326ION    CL-43544  44.962  25.328   4.941
75327ION    CL-43545  10.734   0.825  13.231
75328ION    CL-43546  37.108  23.444   5.030
75329ION    CL-43547  25.036  13.093  14.881
75330ION    CL-43548  19.856  33.756  11.063
75331ION    CL-43549  44.308  35.504  13.375
75332ION    CL-43550  23.963  43.825   4.619
75333ION    CL-43551  25.667  11.585  12.021
75334ION    CL-43552  38.804  40.995   4.965
75335ION    CL-43553  18.673   2.852  14.731
75336ION    CL-43554  11.053  14.096  11.131
75337ION    CL-43555  18.846  34.912   1.680
75338ION    CL-43556  39.695   0.793   3.265
75339ION    CL-43557   4.704  40.066   3.775
75340ION    CL-43558   0.644  44.144   4.052
75341ION    CL-43559  10.995  34.537  13.419
75342ION    CL-43560  19.152  26.446   1.376
75343ION    CL-43561  26.679  23.547  14.706
75344ION    CL-43562  28.478  26.646  12.387
75345ION    CL-43563   6.824  25.941  14.997
75346ION    CL-43564   9.744  18.773   0.246
75347ION    CL-43565  27.016  37.988   3.889
75348ION    CL-43566   7.352  40.911  11.009
75349ION    CL-43567   9.343   9.695  14.912
75350ION    CL-43568  31.847   7.902   2.688
75351ION    CL-43569  17.678   2.943  12.998
75352ION    CL-43570   9.236   6.118  13.353
75353ION    CL-43571  24.031  19.133   2.684
75354ION    CL-43572  30.602  41.092   0.028
75355ION    CL-43573  39.049  24.809  13.134
75356ION    CL-43574   5.456  24.391  11.621
75357ION    CL-43575  44.988  19.760  12.458
75358ION    CL-43576   5.369  18.647   2.564
75359ION    CL-43577  25.444  44.361   5.118
75360ION    CL-43578  43.054  36.232  12.835
75361ION    CL-43579  34.842  14.750   2.822
75362ION    CL-43580  10.052   4.492  14.486
75363ION    CL-43581   4.320  18.929  13.189
75364ION    CL-43582   0.307  20.214  13.558
75365ION    CL-43583  24.352  41.365  14.374
75366ION    CL-43584   3.343  10.933   3.573
75367ION    CL-43585  14.761  13.462   1.564
75368ION    CL-43586  17.852  19.419  10.736
75369ION    CL-43587  38.238  22.600   2.693
75370ION    CL-43588   3.764  21.919   2.361
75371ION    CL-43589  21.669  32.805   1.451
75372ION    CL-43590  43.591   8.522   2.500
75373ION    CL-43591  21.097   2.382   3.130
75374ION    CL-43592  21.438   8.759  12.278
75375ION    CL-43593   5.070  29.328  12.574
75376ION    CL-43594   6.310  19.817   0.529
75377ION    CL-43595   3.183   9.859  10.414
75378ION    CL-43596   7.652  12.777   4.155
75379ION    CL-43597  35.003  37.428  10.604
75380ION    CL-43598  25.366  31.445  11.018
75381ION    CL-43599  19.099   0.433   1.447
75382ION    CL-43600   9.012   9.885  11.215
75383ION    CL-43601   2.338  31.560   3.038
75384ION    CL-43602   0.946  11.796  12.934
75385ION    CL-43603  12.111   7.632   2.836
75386ION    CL-43604  10.265  30.384  11.173
75387ION    CL-43605  32.532  17.649  12.504
75388ION    CL-43606  36.048  42.947   4.827
75389ION    CL-43607  32.757  16.122  13.036
75390ION    CL-43608  32.154  30.909   4.033
75391ION    CL-43609  43.367  41.967   0.233
75392ION    CL-43610  12.180   3.818  11.676
75393ION    CL-43611   8.331   1.216  14.783
75394ION    CL-43612  41.620  35.049   2.425
75395ION    CL-43613  22.692  43.717  12.717
75396ION    CL-43614  17.426  27.760  11.221
75397ION    CL-43615  34.201  38.478   4.333
75398ION    CL-43616  42.264  28.190   0.150
75399ION    CL-43617  34.009   0.163   3.251
75400ION    CL-43618   8.061   0.448  11.711
75401ION    CL-43619  27.022  28.179  11.956
75402ION    CL-43620  30.216  22.711  14.031
75403ION    CL-43621   8.618  14.943  12.264
75404ION    CL-43622  36.200  33.995  13.155
75405ION    CL-43623   5.466  32.050   0.693
75406ION    CL-43624   0.634  40.152  14.534
75407ION    CL-43625   3.125  39.249  14.170
75408ION    CL-43626  11.619  14.755   4.144
75409ION    CL-43627  22.977  33.340   2.482
75410ION    CL-43628  31.266  26.190  11.427
75411ION    CL-43629  11.796  34.408  14.002
75412ION    CL-43630   1.557  33.824  11.550
75413ION    CL-43631   3.926  11.638  12.798
75414ION    CL-43632  11.863  35.312   3.812
75415ION    CL-43633  10.390  43.565   2.544
75416ION    CL-43634  40.946  20.744   4.201
75417ION    CL-43635   1.772   7.184  14.940
75418ION    CL-43636  43.570  40.395  14.935
75419ION    CL-43637  44.452  13.849   9.715
75420ION    CL-43638  39.605  29.519  12.459
75421ION    CL-43639  27.865  30.514   2.093
75422ION    CL-43640  10.719  38.422   3.872
75423ION    CL-43641  41.280   0.442   3.188
75424ION    CL-43642  12.344   5.402   1.252
75425ION    CL-43643  25.975  41.891   4.877
75426ION    CL-43644  33.360  31.728   0.789
75427ION    CL-43645  39.039  18.600   3.053
75428ION    CL-43646  20.543  29.673  11.550
75429ION    CL-43647  24.401  33.992  12.177
75430ION    CL-43648  39.388   9.803   1.405
75431ION    CL-43649  28.111   2.848  14.167
75432ION    CL-43650   8.626  18.129  14.344
75433ION    CL-43651  35.444  34.455  13.187
75434ION    CL-43652  11.099  12.471  13.873
75435ION    CL-43653  44.835  36.207   3.532
75436ION    CL-43654  13.114  22.241  13.481
75437ION    CL-43655  33.013   5.153  14.314
75438ION    CL-43656  38.235  27.293   0.426
75439ION    CL-43657  19.375  18.705   0.513
75440ION    CL-43658  33.928   3.475   1.659
75441ION    CL-43659  33.064  34.541  14.742
75442ION    CL-43660  34.962   9.099   1.193
75443ION    CL-43661  13.644  29.583  11.993
75444ION    CL-43662  10.463  18.607  11.636
75445ION    CL-43663  41.985  16.646  14.354
75446ION    CL-43664   6.098  36.112  13.999
75447ION    CL-43665  22.471   5.215  12.900
75448ION    CL-43666  10.130  43.868   1.622
75449ION    CL-43667  41.691  36.514  11.197
75450ION    CL-43668  30.804  28.339   0.727
75451ION    CL-43669  10.955   8.760  14.809
75452ION    CL-43670  24.743  40.449   2.695
75453ION    CL-43671  39.044  36.681  12.193
75454ION    CL-43672  33.609   7.158  13.148
75455ION    CL-43673  30.194  17.540   4.901
75456ION    CL-43674  16.634  33.340  12.374
75457ION    CL-43675  26.086  29.623   4.239
75458ION    CL-43676  12.125  42.321   4.769
75459ION    CL-43677  14.519  28.841   2.370
75460ION    CL-43678  27.918  41.840  13.626
75461ION    CL-43679  11.155  13.103  11.074
75462ION    CL-43680  25.501  40.520   4.469
75463ION    CL-43681  25.446   5.489   2.768
75464ION    CL-43682  15.228  40.849   0.400
75465ION    CL-43683  27.284  24.486   2.152
75466ION    CL-43684  11.691  17.181  11.162
75467ION    CL-43685  17.096   3.392   5.194
75468ION    CL-43686  42.460   5.188   2.925
75469ION    CL-43687  17.068  24.713   3.207
75470ION    CL-43688  15.832  10.414   2.861
75471ION    CL-43689  44.672  30.843   0.049
75472ION    CL-43690   9.513  14.868   3.667
75473ION    CL-43691  35.652  38.349   2.861
75474ION    CL-43692  20.560  18.515  14.102
75475ION    CL-43693  18.286  19.317   1.978
75476ION    CL-43694   8.827  23.498   0.772
75477ION    CL-43695  39.139  17.645  11.538
75478ION    CL-43696  18.635  43.288  14.041
75479ION    CL-43697   4.588  32.366   4.034
75480ION    CL-43698   0.544  17.845  11.216
75481ION    CL-43699  42.444  41.960  10.906
75482ION    CL-43700  15.728   0.251  13.039
75483ION    CL-43701   4.389  43.523  10.411
75484ION    CL-43702  25.003  11.781  13.089
75485ION    CL-43703  11.996  26.994   0.235
75486ION    CL-43704   3.422  28.302   3.979
75487ION    CL-43705  44.041  12.630  12.333
75488ION    CL-43706  28.046  28.604  12.530
75489ION    CL-43707  43.944   0.400  12.557
75490ION    CL-43708  13.019  20.569   4.094
75491ION    CL-43709  14.197   3.690  13.387
75492ION    CL-43710  27.598  23.415  11.826
75493ION    CL-43711   7.537  35.718   2.747
75494ION    CL-43712  38.357  42.416  11.444
75495ION    CL-43713   8.921   9.707  10.192
75496ION    CL-43714  22.910   4.505  12.349
75497ION    CL-43715  19.438  24.318  12.680
75498ION    CL-43716  10.395  41.546  13.325
75499ION    CL-43717   0.722   0.648  14.190
75500ION    CL-43718  10.145   8.225   4.240
75501ION    CL-43719  25.835   1.332  11.290
75502ION    CL-43720  34.865  44.370   0.735
75503ION    CL-43721  30.119  30.122  12.109
75504ION    CL-43722  27.476   6.602  14.227
75505ION    CL-43723  44.835  40.847   0.194
75506ION    CL-43724  30.885  24.360  10.411
75507ION    CL-43725   3.315  35.382   3.923
75508ION    CL-43726  31.875  13.561  14.129
75509ION    CL-43727  10.129  23.209   1.247
75510ION    CL-43728  42.052   2.401   2.771
75511ION    CL-43729  10.669  25.046  11.098
75512ION    CL-43730  20.609  30.779   0.339
75513ION    CL-43731  19.105  36.050  12.024
75514ION    CL-43732  35.517  28.143   3.816
75515ION    CL-43733  16.233   0.546   5.336
75516ION    CL-43734  13.116  35.321  12.068
75517ION    CL-43735  28.897  41.846   3.206
75518ION    CL-43736  11.165  19.688   0.307
75519ION    CL-43737  36.530  36.443   3.175
75520ION    CL-43738  28.284  40.530   4.994
75521ION    CL-43739   7.685  36.940  11.799
75522ION    CL-43740  22.248   5.705  12.057
75523ION    CL-43741   5.813  30.569   4.072
75524ION    CL-43742  21.735  38.786   2.068
75525ION    CL-43743  14.834   2.067  12.724
75526ION    CL-43744   9.109  37.037  12.029
75527ION    CL-43745  18.483  17.744  12.631
75528ION    CL-43746  13.265  34.225  12.436
75529ION    CL-43747  26.010   3.738  11.516
75530ION    CL-43748   6.116   0.986  13.260
75531ION    CL-43749   4.179  17.796  14.948
75532ION    CL-43750  22.849   0.041   2.753
75533ION    CL-43751  42.196  18.772   0.013
75534ION    CL-43752  20.642  14.544   0.082
75535ION    CL-43753   8.713  27.950   5.053
75536ION    CL-43754   6.883   1.367  14.832
75537ION    CL-43755   5.214  39.524  13.312
75538ION    CL-43756  18.290  26.441  13.061
75539ION    CL-43757  18.872  14.113  14.116
75540ION    CL-43758  22.561  32.106  10.439
75541ION    CL-43759  43.511  27.254   4.840
75542ION    CL-43760  17.685  42.477   3.398
75543ION    CL-43761  18.627  27.111   1.930
75544ION    CL-43762  38.370  18.776   0.812
75545ION    CL-43763  33.863  10.941  14.996
75546ION    CL-43764  41.761   4.656  11.560
75547ION    CL-43765  14.073  22.846   4.984
75548ION    CL-43766  42.246  29.756   2.197
75549ION    CL-43767  26.024   1.158  10.677
75550ION    CL-43768  18.746  39.992   5.072
75551ION    CL-43769  31.754  44.778   4.283
75552ION    CL-43770  15.815  31.446   2.256
75553ION    CL-43771  19.396   7.887  14.457
75554ION    CL-43772   2.633  23.255  11.629
75555ION    CL-43773  12.758   2.664   4.443
75556ION    CL-43774   9.145  15.372  10.520
75557ION    CL-43775  29.483  21.281  11.162
75558ION    CL-43776  27.132  35.825   4.129
75559ION    CL-43777  33.748  23.799   2.213
75560ION    CL-43778  27.331  17.270   4.586
75561ION    CL-43779  19.621  39.933  13.042
75562ION    CL-43780  12.752  15.491   2.543
75563ION    CL-43781   2.212   0.146  11.999
75564ION    CL-43782   6.376   5.212  13.344
75565ION    CL-43783  40.801  41.661   1.639
75566ION    CL-43784  20.757   3.200  13.919
75567ION    CL-43785  14.942  30.552  10.951
75568ION    CL-43786  21.164   9.915   3.583
75569ION    CL-43787   6.930  29.490  14.340
75570ION    CL-43788  10.217  21.565   3.695
75571ION    CL-43789   2.749   5.799   3.192
75572ION    CL-43790  15.058  35.443  11.183
75573ION    CL-43791  27.949  36.195   2.430
75574ION    CL-43792  22.270  40.390  12.035
75575ION    CL-43793  19.819  40.891  11.586
75576ION    CL-43794  16.493  23.637  11.415
75577ION    CL-43795  15.906  33.293   0.072
75578ION    CL-43796  31.795  38.375  11.694
75579ION    CL-43797   3.046  34.938  12.221
75580ION    CL-43798  33.172   2.165  13.486
75581ION    CL-43799  23.566   5.787   0.421
75582ION    CL-43800   9.038   7.681  12.530
75583ION    CL-43801  21.072   6.658  14.022
75584ION    CL-43802  11.610   6.974   2.274
75585ION    CL-43803  40.522  43.538  12.147
75586ION    CL-43804   2.040  43.025   0.240
75587ION    CL-43805  30.696  28.917  10.204
75588ION    CL-43806  28.478  12.120   0.013
75589ION    CL-43807  26.995   5.496  13.883
75590ION    CL-43808  25.368  14.471   2.306
75591ION    CL-43809  17.910  44.629  14.604
75592ION    CL-43810   6.878  22.938   4.941
75593ION    CL-43811  18.969  33.878  11.245
75594ION    CL-43812  16.313  10.316  10.864
75595ION    CL-43813  31.640  24.113  14.552
75596ION    CL-43814  11.053  24.074  11.539
75597ION    CL-43815  12.007  25.363  13.765
75598ION    CL-43816  17.869   4.843  13.591
75599ION    CL-43817  12.867  41.865  14.976
75600ION    CL-43818  36.474  31.684   4.027
75601ION    CL-43819  21.460  44.333   0.562
75602ION    CL-43820  27.997  12.604  10.619
75603ION    CL-43821  15.824  16.460  12.442
75604ION    CL-43822  19.181  24.460   0.485
75605ION    CL-43823  44.897  32.436  11.639
75606ION    CL-43824   5.835  11.142  12.912
75607ION    CL-43825   6.904  42.565  12.975
75608ION    CL-43826  34.987   8.805   1.998
75609ION    CL-43827  28.333  41.156  12.424
75610ION    CL-43828  41.435  36.987  14.897
75611ION    CL-43829   5.833  26.176   1.356
75612ION    CL-43830   7.352   3.454   0.439
75613ION    CL-43831  10.583  23.283  14.866
75614ION    CL-43832  40.769  34.504   0.319
75615ION    CL-43833  11.914  14.550  11.694
75616ION    CL-43834  28.621   2.829   0.027
75617ION    CL-43835  14.174  23.478  12.123
75618ION    CL-43836  28.900  17.281   2.637
75619ION    CL-43837   0.625  37.257  14.620
75620ION    CL-43838  44.319   1.482   0.506
75621ION    CL-43839   1.081   3.539   2.899
75622ION    CL-43840  27.429  21.301   1.344
75623ION    CL-43841  16.770   4.761   2.780
75624ION    CL-43842   6.151  14.114   1.631
75625ION    CL-43843  38.406  22.510   1.699
75626ION    CL-43844   6.521  40.338  11.211
75627ION    CL-43845  41.698  12.897  13.452
75628ION    CL-43846  12.906  32.104   1.242
75629ION    CL-43847   9.368  17.312  13.842
75630ION    CL-43848  28.158  13.363  12.076
75631ION    CL-43849  37.938   2.332   1.649
75632ION    CL-43850  43.880  32.185   0.840
75633ION    CL-43851  10.016   3.341   4.098
75634ION    CL-43852  32.777  26.541  12.127
75635ION    CL-43853  43.739  25.945  10.770
75636ION    CL-43854  38.560  14.714   3.216
75637ION    CL-43855  15.283  42.516   0.666
75638ION    CL-43856  26.070  44.305  12.933
75639ION    CL-43857  23.327  23.021   9.906
  45.00000  45.00000  15.00000
